FOO
135168
    1MOL0     O    1   8.618   3.983   4.731 -0.7385 -0.5561  0.5715
    1MOL0     C    2   8.638   3.946   4.610  0.1283 -0.0737  1.2315
    1MOL0     O    3   8.569   3.988   4.502  0.3180  0.0737 -0.4936
    1MOL0     C    4   8.480   4.090   4.513  0.0617  0.9504 -0.3064
    1MOL0     C    5   8.518   4.206   4.571  1.3743  0.0651 -0.1882
    1MOL0     C    6   8.443   4.330   4.554  0.2442  0.4842 -0.0036
    1MOL0     C    7   8.314   4.333   4.495  0.4256 -0.0530  0.4084
    1MOL0     O    8   8.225   4.436   4.495  0.0860  0.0005  0.0019
    1MOL0     C    9   8.260   4.569   4.543 -0.6409 -0.6659  1.0906
    1MOL0     C   10   8.333   4.642   4.431  0.8567 -0.4200  0.2450
    1MOL0     C   11   8.356   4.784   4.472 -0.4326 -0.6984  0.1893
    1MOL0     C   12   8.414   4.872   4.353  0.0282 -0.3862  0.0024
    1MOL0     C   13   8.448   5.010   4.422 -0.5681 -0.6865  0.4325
    1MOL0     C   14   8.485   5.113   4.310  0.2333 -0.3663  1.0093
    1MOL0     C   15   8.487   5.264   4.378 -0.2335 -0.5404  0.4568
    1MOL0     C   16   8.593   5.273   4.491 -0.1543 -0.0853 -0.8191
    1MOL0     N   17   8.723   5.230   4.439  0.5719 -0.0407  0.7109
    1MOL0     C   18   8.818   5.154   4.507  1.2200  0.3120 -0.8101
    1MOL0     C   19   8.920   5.139   4.416  0.3402  0.1692  0.4999
    1MOL0     C   20   9.051   5.068   4.447 -0.0692 -0.0323 -0.0943
    1MOL0     C   21   9.168   5.160   4.478 -0.3842  0.9882 -0.2481
    1MOL0     C   22   9.198   5.261   4.361 -0.8389 -0.4087 -0.1197
    1MOL0     C   23   9.349   5.308   4.357  0.5439  0.4960 -0.2092
    1MOL0     O   24   9.394   5.386   4.463  1.0517 -0.2862 -0.2035
    1MOL0     C   25   9.510   5.454   4.458 -0.7460  0.4373 -0.0808
    1MOL0     C   26   9.545   5.513   4.587 -0.0381 -0.1487 -0.7259
    1MOL0     C   27   9.659   5.581   4.599 -0.0836  0.3564 -0.4354
    1MOL0     C   28   9.747   5.598   4.497 -0.1540 -0.3111 -0.8279
    1MOL0     C   29   9.865   5.681   4.517 -0.1973  0.3864  0.1944
    1MOL0     O   30   9.856   5.790   4.599  0.6611  0.7962  0.5970
    1MOL0     C   31   9.961   5.863   4.632  0.0627 -0.2540 -0.1874
    1MOL0     C   32   9.957   5.903   4.771 -1.0060  0.3930  0.5366
    1MOL0     C   33  10.065   5.966   4.825  0.2624 -0.5907 -1.1734
    1MOL0     C   34  10.176   5.997   4.748 -0.9761  1.1488  0.6033
    1MOL0     O   35  10.275   6.061   4.798 -0.6046 -0.1652 -0.5499
    1MOL0     C   36  10.273   6.207   4.757 -0.9976  0.0300 -0.4049
    1MOL0     C   37  10.373   6.276   4.849 -0.4589  0.3641  0.5048
    1MOL0     C   38  10.379   6.431   4.831  0.5098  0.4603 -0.1172
    1MOL0     C   39  10.483   6.484   4.929 -0.1839  0.0560  0.2781
    1MOL0     C   40  10.487   6.642   4.939  1.1356 -0.0446  0.1338
    1MOL0     C   41  10.613   6.692   4.996  0.2937  0.1457 -0.2350
    1MOL0     C   42  10.608   6.652   5.146 -1.1740 -0.5234  0.1000
    1MOL0     C   43  10.733   6.712   5.209  0.3145  0.2814  0.3013
    1MOL0    Cl   44  10.743   6.671   5.371 -0.8004 -0.0998  0.3192
    1MOL0     C   45  10.188   5.949   4.619 -0.0720 -0.6784  0.1228
    1MOL0     C   46  10.080   5.889   4.561  0.6620 -0.6624  0.6533
    1MOL0     O   47   9.965   5.650   4.456  0.3016  0.1178 -0.3803
    1MOL0     C   48   9.711   5.536   4.375 -1.0704 -0.4756  0.2200
    1MOL0     C   49   9.603   5.456   4.353  0.1579  0.0836 -0.1684
    1MOL0     N   50   8.890   5.231   4.313  0.8958  0.9705 -0.0627
    1MOL0     N   51   8.771   5.290   4.327 -0.1995  0.2347 -0.1654
    1MOL0     C   52   8.276   4.209   4.436 -0.5293 -0.4810  0.1984
    1MOL0     C   53   8.361   4.094   4.447  0.6767  0.2267  0.4663
    1MOL0     C   54   8.713   3.818   4.600  0.8741 -0.4606 -1.1154
    1MOL0     C   55   8.739   3.733   4.715  0.4070  0.1446  0.0470
    1MOL0     C   56   8.810   3.611   4.705 -0.1633 -0.0712  1.0923
    1MOL0     C   57   8.857   3.578   4.578 -0.6708 -0.2657  0.4149
    1MOL0     O   58   8.935   3.466   4.553  0.0600  0.3116  0.5580
    1MOL0     C   59   8.978   3.375   4.660 -0.7699  0.9447  0.3242
    1MOL0     C   60   9.095   3.298   4.608 -0.9812 -0.3032  0.1070
    1MOL0     C   61   9.203   3.398   4.548  0.2546 -0.2221 -0.8455
    1MOL0     C   62   9.322   3.322   4.495 -0.0839 -0.1904  0.0322
    1MOL0     C   63   9.394   3.253   4.605  0.3583 -0.2884 -0.2643
    1MOL0     C   64   9.452   3.190   4.693  0.0776 -0.1335  0.5610
    1MOL0     C   65   8.833   3.668   4.469  0.1937  0.2150  0.2024
    1MOL0     C   66   8.765   3.793   4.476 -0.2197 -0.0057  0.2527
    1MOL0     H   67   8.618   4.221   4.611  1.2141 -1.6002  0.9284
    1MOL0     H   68   8.491   4.422   4.587  3.1953 -0.3015 -1.6890
    1MOL0     H   69   8.322   4.564   4.632  0.5907 -2.4290  0.1957
    1MOL0     H   70   8.163   4.618   4.561 -0.7326 -1.0278  1.6165
    1MOL0     H   71   8.265   4.641   4.345 -0.3839 -0.7954  1.2025
    1MOL0     H   72   8.430   4.593   4.418  0.9666 -0.1276 -0.0441
    1MOL0     H   73   8.421   4.781   4.561  1.1204  0.9615 -0.8213
    1MOL0     H   74   8.259   4.833   4.486 -0.9852 -0.3364 -3.8536
    1MOL0     H   75   8.506   4.829   4.310  1.2522  0.2691  1.8630
    1MOL0     H   76   8.341   4.885   4.272  0.9548  1.3730 -0.5917
    1MOL0     H   77   8.525   5.008   4.500  2.3124  0.2371 -2.2057
    1MOL0     H   78   8.362   5.048   4.479  2.4660  4.1395  2.3505
    1MOL0     H   79   8.409   5.103   4.232  0.1796 -2.3981  1.2650
    1MOL0     H   80   8.582   5.091   4.265 -1.1729 -3.4038 -0.8782
    1MOL0     H   81   8.491   5.349   4.309  0.1715  0.6634  1.9033
    1MOL0     H   82   8.390   5.281   4.425  0.9063  0.0521  2.7640
    1MOL0     H   83   8.560   5.209   4.573  0.3826  0.7581  0.0696
    1MOL0     H   84   8.599   5.372   4.536 -1.3041 -0.6597  0.6528
    1MOL0     H   85   8.819   5.119   4.610  2.4308  0.8552 -0.6291
    1MOL0     H   86   9.086   5.021   4.354 -2.7074 -0.2003 -1.0993
    1MOL0     H   87   9.052   5.008   4.538  4.7424  1.4674  1.1502
    1MOL0     H   88   9.256   5.096   4.492  0.0765  1.0525 -2.4477
    1MOL0     H   89   9.153   5.216   4.571 -2.6783  0.6609 -0.3720
    1MOL0     H   90   9.150   5.233   4.266 -1.8138 -1.0389  0.5426
    1MOL0     H   91   9.138   5.349   4.386 -0.3295  0.4933 -1.9086
    1MOL0     H   92   9.358   5.378   4.274  0.4663 -1.4155 -1.9189
    1MOL0     H   93   9.402   5.214   4.338 -2.8835 -2.0513  1.5892
    1MOL0     H   94   9.469   5.517   4.665  0.2988 -2.2941 -0.2266
    1MOL0     H   95   9.673   5.636   4.691 -4.4349  2.7026 -0.9111
    1MOL0     H   96   9.873   5.877   4.835 -1.2298  4.2557  2.0518
    1MOL0     H   97  10.074   5.993   4.929  1.4341  0.7250 -1.5831
    1MOL0     H   98  10.177   6.252   4.783 -1.2856 -0.7983 -0.0034
    1MOL0     H   99  10.300   6.219   4.652  3.2543 -0.7364  0.4191
    1MOL0     H  100  10.465   6.226   4.819 -0.8986 -1.3557  1.8944
    1MOL0     H  101  10.364   6.247   4.954 -0.5362  1.6803  0.8833
    1MOL0     H  102  10.287   6.471   4.875 -0.2009  0.4307 -1.5182
    1MOL0     H  103  10.382   6.467   4.728 -0.7635  1.1407  0.0670
    1MOL0     H  104  10.448   6.445   5.025 -2.2291 -2.3733 -1.3488
    1MOL0     H  105  10.581   6.443   4.902 -2.1412 -2.9712 -3.0559
    1MOL0     H  106  10.399   6.679   4.993 -0.0436 -0.1306 -1.6332
    1MOL0     H  107  10.484   6.684   4.838  0.8099 -0.6592 -0.1130
    1MOL0     H  108  10.619   6.802   4.996  0.0569  0.1596 -0.1605
    1MOL0     H  109  10.688   6.643   4.933  2.5596 -1.9406  3.7072
    1MOL0     H  110  10.512   6.691   5.182 -1.6992 -0.6444 -1.1109
    1MOL0     H  111  10.624   6.545   5.160  4.4360 -0.1266 -0.8337
    1MOL0     H  112  10.718   6.820   5.196 -0.8938  0.2396  1.2117
    1MOL0     H  113  10.827   6.681   5.162  1.5205  1.2588  1.9561
    1MOL0     H  114  10.284   5.953   4.569  0.0122 -1.2829  0.2313
    1MOL0     H  115  10.099   5.847   4.463  2.1355  0.3165  0.4838
    1MOL0     H  116   9.770   5.558   4.286 -0.1379  4.5149  1.7013
    1MOL0     H  117   9.590   5.397   4.263  4.1799 -0.0531 -0.8420
    1MOL0     H  118   8.186   4.213   4.376 -1.2193  2.6401  1.2158
    1MOL0     H  119   8.335   4.003   4.393 -0.7975  0.5895  0.4980
    1MOL0     H  120   8.685   3.757   4.805 -2.3210  1.0140 -1.6899
    1MOL0     H  121   8.830   3.559   4.799  2.4714  1.5183  1.4911
    1MOL0     H  122   8.908   3.300   4.699  0.0502  0.0207  0.0570
    1MOL0     H  123   9.010   3.438   4.743 -1.6120 -0.6848  1.9768
    1MOL0     H  124   9.137   3.227   4.679 -0.6187 -1.9326 -1.6555
    1MOL0     H  125   9.070   3.233   4.524 -0.8403 -0.3923  0.1354
    1MOL0     H  126   9.234   3.465   4.630  1.5567  2.1025 -3.0684
    1MOL0     H  127   9.156   3.460   4.471 -4.5365  1.0346  2.6547
    1MOL0     H  128   9.286   3.247   4.424 -1.0201  0.2321  0.0509
    1MOL0     H  129   9.392   3.382   4.436  0.5400  0.7123  1.6166
    1MOL0     H  130   9.524   3.145   4.758 -0.3326 -1.4712  0.1139
    1MOL0     H  131   8.896   3.632   4.389  1.7424 -3.6308  2.8611
    1MOL0     H  132   8.748   3.849   4.385  2.7504 -0.1266 -0.4681
    2MOL0     O  133   1.698  10.137   5.481  0.6772  0.4184 -0.9114
    2MOL0     C  134   1.776  10.068   5.545 -0.0188  0.2144 -0.1977
    2MOL0     O  135   1.755   9.936   5.579  0.8161  0.7573 -0.5337
    2MOL0     C  136   1.623   9.887   5.552 -0.8503  0.3559  0.5203
    2MOL0     C  137   1.522   9.890   5.646  0.4906 -0.2575 -0.2756
    2MOL0     C  138   1.395   9.838   5.616 -0.1599 -0.3142 -0.3626
    2MOL0     C  139   1.361   9.794   5.487 -0.4258  0.3848 -0.7132
    2MOL0     O  140   1.239   9.744   5.464  0.3401  0.0134 -0.3737
    2MOL0     C  141   1.129   9.823   5.506 -0.1408  0.2296 -0.2329
    2MOL0     C  142   1.011   9.804   5.410  0.3341 -0.0846  0.4944
    2MOL0     C  143   0.991   9.906   5.297  0.0488 -0.3971 -0.4178
    2MOL0     C  144   1.076   9.855   5.183 -0.2784 -0.0311 -0.6983
    2MOL0     C  145   1.071   9.963   5.077  0.5243  0.2968 -0.2146
    2MOL0     C  146   1.154   9.947   4.950 -0.7068 -0.3236  0.6933
    2MOL0     C  147   1.290   9.899   5.000 -0.5088 -0.0671  0.7104
    2MOL0     C  148   1.396   9.919   4.882  0.5291  0.0032 -0.1239
    2MOL0     N  149   1.541   9.908   4.921  1.1121  0.5548  0.7538
    2MOL0     C  150   1.621  10.013   4.959 -0.2497  0.0426  0.2772
    2MOL0     C  151   1.750   9.972   4.958 -0.5166 -0.0703  0.1862
    2MOL0     C  152   1.856  10.070   5.010 -0.2449  0.2312 -0.8295
    2MOL0     C  153   1.805  10.175   5.112 -0.1111  0.9788 -0.6971
    2MOL0     C  154   1.919  10.254   5.168  0.7666 -0.0913 -0.0276
    2MOL0     C  155   2.001  10.326   5.065  0.1360  1.0751  0.2474
    2MOL0     O  156   2.119  10.247   5.042 -0.8581 -0.0213  0.2131
    2MOL0     C  157   2.241  10.302   5.082  0.5046 -0.9725 -0.9218
    2MOL0     C  158   2.346  10.226   5.062  0.7615  0.4690  1.0063
    2MOL0     C  159   2.477  10.252   5.105 -0.9103 -0.4253 -1.1593
    2MOL0     C  160   2.497  10.368   5.180 -0.4716  0.2498 -0.5458
    2MOL0     C  161   2.635  10.411   5.223  0.5518  0.8953  0.0275
    2MOL0     O  162   2.720  10.301   5.207 -0.3497  0.1086  0.1383
    2MOL0     C  163   2.856  10.314   5.227  0.3445 -0.8207  0.0681
    2MOL0     C  164   2.912  10.226   5.317  0.0770 -0.3746 -0.7540
    2MOL0     C  165   3.053  10.235   5.346 -0.0088 -1.3310  0.3889
    2MOL0     C  166   3.119  10.342   5.288  0.2588 -0.9358 -1.6160
    2MOL0     O  167   3.257  10.348   5.326 -0.4811 -1.1200 -0.0117
    2MOL0     C  168   3.338  10.457   5.273 -0.1161  0.5910  0.8741
    2MOL0     C  169   3.480  10.427   5.332  0.7150  0.0015 -0.0130
    2MOL0     C  170   3.581  10.524   5.276 -0.0021  1.1866 -0.4452
    2MOL0     C  171   3.724  10.492   5.317  0.0596 -0.1220  0.0668
    2MOL0     C  172   3.837  10.611   5.279  0.4523 -0.8886 -0.3000
    2MOL0     C  173   3.982  10.592   5.316 -0.3387  0.6973  0.1867
    2MOL0     C  174   4.083  10.701   5.263  0.2011  0.0632  0.2215
    2MOL0     C  175   4.085  10.836   5.333  0.2669 -0.4715 -0.3544
    2MOL0    Cl  176   4.079  10.819   5.509  0.2755  0.2148 -0.4055
    2MOL0     C  177   3.060  10.425   5.194  0.2928  0.4427 -0.2262
    2MOL0     C  178   2.926  10.419   5.168  0.4170 -0.1256  0.1435
    2MOL0     O  179   2.667  10.523   5.253 -0.0085 -0.5460 -0.7565
    2MOL0     C  180   2.387  10.457   5.202  0.0483 -0.5640  0.7518
    2MOL0     C  181   2.262  10.429   5.150 -0.6133  0.5784  0.2345
    2MOL0     N  182   1.746   9.843   4.912  0.7298 -0.1889 -0.3888
    2MOL0     N  183   1.624   9.799   4.901  0.2353  0.7518 -0.7414
    2MOL0     C  184   1.458   9.790   5.393 -0.1800  0.2297 -0.3924
    2MOL0     C  185   1.589   9.837   5.424  0.6776  0.7643  0.0482
    2MOL0     C  186   1.909  10.124   5.581 -1.2322 -0.4412 -0.7032
    2MOL0     C  187   1.949  10.252   5.529 -0.0147  0.5379  0.2186
    2MOL0     C  188   2.077  10.302   5.551 -0.7346 -0.1228  0.1921
    2MOL0     C  189   2.162  10.242   5.640 -0.8282 -0.7159 -0.3883
    2MOL0     O  190   2.288  10.294   5.680  0.6026 -0.6201  0.5724
    2MOL0     C  191   2.402  10.203   5.669 -0.0806 -0.1313 -0.5875
    2MOL0     C  192   2.479  10.202   5.534 -0.1295 -0.1349 -0.4073
    2MOL0     C  193   2.575  10.085   5.516 -0.5642 -1.9062 -0.1019
    2MOL0     C  194   2.679  10.085   5.627 -0.5928  0.2787  0.2527
    2MOL0     C  195   2.815  10.028   5.582  0.3541  0.6272 -1.1628
    2MOL0     C  196   2.925   9.992   5.566  0.3912  0.2800  1.0287
    2MOL0     C  197   2.125  10.131   5.710  0.6761 -0.2862 -1.1146
    2MOL0     C  198   1.993  10.078   5.681  0.6684  0.2308  0.8062
    2MOL0     H  199   1.540   9.929   5.745 -0.5843  1.1482 -0.6027
    2MOL0     H  200   1.323   9.829   5.696 -0.0488 -0.7950 -0.3160
    2MOL0     H  201   1.153   9.928   5.525 -2.4116  0.1453  4.8505
    2MOL0     H  202   1.102   9.787   5.606  1.3190 -2.0754 -0.5933
    2MOL0     H  203   0.918   9.797   5.467  0.8996  1.8534  1.7555
    2MOL0     H  204   1.020   9.708   5.357  0.7675 -0.2159  0.8027
    2MOL0     H  205   1.028  10.001   5.337 -1.2093  0.2066 -0.6208
    2MOL0     H  206   0.888   9.920   5.262 -0.0621  0.7953  0.3243
    2MOL0     H  207   1.176   9.830   5.221 -1.2888  0.2787  2.4434
    2MOL0     H  208   1.031   9.765   5.140 -1.3933  0.1143  0.1179
    2MOL0     H  209   1.093  10.060   5.123  1.0260  0.5428 -0.9566
    2MOL0     H  210   0.965   9.967   5.050  0.2347  0.1065  0.8546
    2MOL0     H  211   1.163  10.039   4.892 -2.9017  0.0968  0.9273
    2MOL0     H  212   1.112   9.877   4.878 -1.2135 -0.6470  1.2850
    2MOL0     H  213   1.325   9.964   5.081 -0.8272 -2.2354  2.6783
    2MOL0     H  214   1.305   9.797   5.037  4.6421  0.2425  0.1688
    2MOL0     H  215   1.382  10.022   4.850  2.5372  1.5462  3.3691
    2MOL0     H  216   1.381   9.848   4.800  3.9886  0.0758 -0.9778
    2MOL0     H  217   1.587  10.100   5.014  0.0979  0.8995 -0.8062
    2MOL0     H  218   1.885  10.115   4.914  1.3642  2.1773  0.5018
    2MOL0     H  219   1.947  10.016   5.040  0.2619  1.4359 -0.1664
    2MOL0     H  220   1.749  10.125   5.192  1.1885  2.6288  1.3624
    2MOL0     H  221   1.738  10.241   5.057 -1.2335 -0.1376 -0.6995
    2MOL0     H  222   1.881  10.343   5.220 -0.2822  0.3916 -1.5430
    2MOL0     H  223   1.982  10.201   5.239 -1.9288 -0.4045  2.2694
    2MOL0     H  224   2.015  10.429   5.098  1.7185  0.2160  2.5019
    2MOL0     H  225   1.956  10.325   4.965  0.0043 -0.6974  0.2861
    2MOL0     H  226   2.324  10.128   5.022 -0.8914  0.3378  2.1243
    2MOL0     H  227   2.552  10.181   5.070 -0.9197 -0.5836 -0.8575
    2MOL0     H  228   2.849  10.151   5.364  0.2533 -0.4918 -0.7063
    2MOL0     H  229   3.098  10.163   5.414  2.2427  0.1232  0.5482
    2MOL0     H  230   3.296  10.550   5.311  0.5477 -0.1459  3.5992
    2MOL0     H  231   3.341  10.464   5.164 -2.0248 -3.4250  0.4083
    2MOL0     H  232   3.507  10.325   5.301 -4.1948 -1.2018 -1.2233
    2MOL0     H  233   3.463  10.426   5.441  2.3619  2.1118  0.3193
    2MOL0     H  234   3.553  10.620   5.323 -1.2126  1.6305 -2.0066
    2MOL0     H  235   3.561  10.530   5.169 -0.3683  4.9970 -0.3180
    2MOL0     H  236   3.730  10.468   5.423 -0.8491  3.5009  1.0846
    2MOL0     H  237   3.751  10.405   5.256  1.1444  2.4568 -3.5193
    2MOL0     H  238   3.797  10.704   5.321 -0.1064 -0.3404 -1.9742
    2MOL0     H  239   3.833  10.630   5.172  4.2947  4.8445  0.1543
    2MOL0     H  240   4.007  10.495   5.272 -4.6992  0.6171 -2.7399
    2MOL0     H  241   4.000  10.584   5.424  1.5598 -1.7463 -0.2045
    2MOL0     H  242   4.183  10.655   5.262 -0.7512 -2.2995  2.3899
    2MOL0     H  243   4.054  10.713   5.159  1.8003 -3.1364 -0.7452
    2MOL0     H  244   4.004  10.903   5.303  0.5890 -0.6212 -1.6228
    2MOL0     H  245   4.177  10.887   5.301  1.5364 -2.2886  0.2347
    2MOL0     H  246   3.115  10.496   5.134 -0.0043  1.4508  0.6700
    2MOL0     H  247   2.883  10.482   5.091 -0.4234 -1.8242 -0.8467
    2MOL0     H  248   2.407  10.551   5.254 -2.3080  1.8098 -2.2348
    2MOL0     H  249   2.189  10.508   5.162  1.0699  1.9849  1.6434
    2MOL0     H  250   1.439   9.753   5.293 -0.1481 -0.7373 -0.0483
    2MOL0     H  251   1.671   9.824   5.354  1.1310  1.4519  0.4408
    2MOL0     H  252   1.871  10.294   5.466  0.2539 -4.0998 -3.7694
    2MOL0     H  253   2.102  10.398   5.509  0.0586  0.6393  2.2825
    2MOL0     H  254   2.381  10.103   5.708 -3.5599 -0.7607 -3.5389
    2MOL0     H  255   2.481  10.255   5.723 -2.0797  2.1977  0.2605
    2MOL0     H  256   2.401  10.206   5.457 -0.1621  3.3919 -0.3495
    2MOL0     H  257   2.533  10.297   5.527 -1.7231  0.8537  0.2054
    2MOL0     H  258   2.620  10.097   5.417 -2.8733  3.5606 -0.8242
    2MOL0     H  259   2.525   9.988   5.521 -2.3902 -0.9623  0.7868
    2MOL0     H  260   2.694  10.184   5.671  2.2096 -0.2212  0.6121
    2MOL0     H  261   2.634  10.020   5.702 -2.8874  2.3549  0.8038
    2MOL0     H  262   3.031   9.978   5.557  1.2757  5.1439  0.8689
    2MOL0     H  263   2.188  10.097   5.791 -2.0601  1.3061  1.9382
    2MOL0     H  264   1.972   9.992   5.745 -0.4181 -0.4778 -0.4544
    3MOL0     O  265   1.593   0.086   5.887 -0.0151  0.4550 -0.1298
    3MOL0     C  266   1.706   0.117   5.858  0.7567  0.4042 -0.0967
    3MOL0     O  267   1.796   0.193   5.930  1.1298 -0.0104 -0.0150
    3MOL0     C  268   1.756   0.258   6.042 -0.4029  0.2772  0.2661
    3MOL0     C  269   1.768   0.177   6.155  0.1698 -0.0175  0.3935
    3MOL0     C  270   1.729   0.230   6.280  1.3707 -0.5009  0.3156
    3MOL0     C  271   1.681   0.368   6.293 -0.0290  0.5082  0.5932
    3MOL0     O  272   1.631   0.419   6.403 -0.3711 -0.8419 -0.8634
    3MOL0     C  273   1.580   0.321   6.504  0.3394  0.8377 -1.4677
    3MOL0     C  274   1.536   0.398   6.635 -0.5034 -0.1215  0.2945
    3MOL0     C  275   1.426   0.505   6.619  0.6029  0.2645  0.4325
    3MOL0     C  276   1.353   0.552   6.748  1.0331  0.3924  0.5037
    3MOL0     C  277   1.215   0.626   6.718  1.0401  0.9946 -0.3015
    3MOL0     C  278   1.174   0.700   6.841  0.1409 -0.1388 -1.1820
    3MOL0     C  279   1.033   0.744   6.832  0.7093  0.3872  0.9760
    3MOL0     C  280   0.982   0.840   6.945 -0.7398  0.0279 -1.2017
    3MOL0     N  281   0.974   0.752   7.076  0.5744 -0.1595 -0.1230
    3MOL0     C  282   0.890   0.654   7.122 -0.3857  0.1360 -0.7868
    3MOL0     C  283   0.951   0.579   7.207 -0.3437 -0.0386  0.2072
    3MOL0     C  284   0.911   0.462   7.286 -0.8036  0.2300 -0.6150
    3MOL0     C  285   0.802   0.368   7.225 -0.0846 -0.1698 -0.6288
    3MOL0     C  286   0.781   0.247   7.324  1.1019  0.0048  0.4436
    3MOL0     C  287   0.693   0.135   7.273 -0.3275  0.0672  0.0036
    3MOL0     O  288   0.709   0.007   7.342 -0.3996 -0.3856  0.1969
    3MOL0     C  289   0.676  -0.001   7.475 -0.1282  0.4072  0.4365
    3MOL0     C  290   0.540  -0.049   7.490 -0.7328 -0.6375  1.0001
    3MOL0     C  291   0.498  -0.070   7.619 -0.4596  0.1025  0.3165
    3MOL0     C  292   0.581  -0.057   7.730  0.0671  0.4603  0.3990
    3MOL0     C  293   0.517  -0.083   7.860 -0.1175 -0.0014 -1.1296
    3MOL0     O  294   0.383  -0.131   7.855  0.7066  0.2158 -0.8416
    3MOL0     C  295   0.308  -0.149   7.978  0.1211  1.2783  0.2016
    3MOL0     C  296   0.330  -0.095   8.107  0.5598  0.0844  0.0598
    3MOL0     C  297   0.247  -0.139   8.203  0.7013 -0.5187  1.1817
    3MOL0     C  298   0.126  -0.213   8.186 -0.5448 -0.3727 -0.1265
    3MOL0     O  299   0.031  -0.223   8.286  0.1309 -0.2012 -0.3827
    3MOL0     C  300   0.013  -0.362   8.319  0.2342 -0.4264 -0.2527
    3MOL0     C  301  -0.021  -0.373   8.469 -0.0598  0.3638  0.4819
    3MOL0     C  302  -0.041  -0.524   8.520 -0.3251 -0.0447  0.5625
    3MOL0     C  303  -0.097  -0.518   8.653  0.0578  0.0689 -0.4340
    3MOL0     C  304  -0.123  -0.651   8.709  0.5936  0.1594  0.7394
    3MOL0     C  305  -0.142  -0.653   8.864  0.0861  0.8012 -0.7466
    3MOL0     C  306  -0.287  -0.624   8.896 -0.0090 -0.0257  1.0573
    3MOL0     C  307  -0.317  -0.640   9.040 -0.3018  0.2383 -0.7215
    3MOL0    Cl  308  -0.242  -0.521   9.144 -0.0147 -0.4679 -0.0118
    3MOL0     C  309   0.113  -0.277   8.062  0.0695 -0.4384 -0.3972
    3MOL0     C  310   0.203  -0.242   7.958  0.5156  0.3578  0.2080
    3MOL0     O  311   0.581  -0.062   7.963  0.2639  0.2043 -0.1883
    3MOL0     C  312   0.706   0.001   7.718 -0.3506 -0.0886  0.5933
    3MOL0     C  313   0.761   0.021   7.585 -0.1010 -1.1308  0.4804
    3MOL0     N  314   1.074   0.640   7.227  0.5010  0.7771  0.9533
    3MOL0     N  315   1.085   0.745   7.153  0.2844 -0.3048  0.3300
    3MOL0     C  316   1.669   0.449   6.178 -0.0691 -0.6005 -0.1677
    3MOL0     C  317   1.720   0.396   6.056  0.0616 -0.7941 -0.4475
    3MOL0     C  318   1.770   0.053   5.734 -0.0266  0.2242 -0.6787
    3MOL0     C  319   1.694  -0.042   5.662 -0.3323 -0.9491  0.2844
    3MOL0     C  320   1.758  -0.102   5.555 -0.1019  0.9206 -0.7329
    3MOL0     C  321   1.891  -0.077   5.512 -0.2292 -0.8243 -0.4687
    3MOL0     O  322   1.935  -0.152   5.410  0.3221  0.7685 -0.0738
    3MOL0     C  323   2.070  -0.133   5.359  0.1371  0.9304 -0.2280
    3MOL0     C  324   2.071  -0.171   5.208  0.0507 -0.4035 -1.0041
    3MOL0     C  325   2.063  -0.047   5.125  0.1240  0.1268  0.6623
    3MOL0     C  326   1.946   0.049   5.151 -0.0341  0.1416  0.6032
    3MOL0     C  327   1.993   0.174   5.194 -0.5891 -1.0915  0.8725
    3MOL0     C  328   2.067   0.273   5.217 -0.5847  0.1266 -0.2044
    3MOL0     C  329   1.963   0.026   5.583 -0.1774 -0.0250  0.0578
    3MOL0     C  330   1.903   0.096   5.683 -0.8683 -0.1860 -0.2764
    3MOL0     H  331   1.822   0.084   6.141  1.3605  0.5475  1.0608
    3MOL0     H  332   1.746   0.166   6.367 -2.1467 -3.6649 -1.0474
    3MOL0     H  333   1.657   0.254   6.545 -0.3615  0.5602 -0.5747
    3MOL0     H  334   1.499   0.270   6.451 -0.1960  2.3728 -2.1617
    3MOL0     H  335   1.615   0.424   6.706 -0.0241  3.2368 -1.2659
    3MOL0     H  336   1.479   0.329   6.698 -0.1364 -0.4389  0.2854
    3MOL0     H  337   1.358   0.452   6.552  1.3591 -0.5917  0.3329
    3MOL0     H  338   1.454   0.589   6.554 -2.2182 -1.1400 -2.9233
    3MOL0     H  339   1.323   0.465   6.806  0.0081  1.0266  0.9516
    3MOL0     H  340   1.416   0.625   6.800 -0.8588  3.6512 -1.4445
    3MOL0     H  341   1.137   0.562   6.677  3.8122 -3.7973  1.1965
    3MOL0     H  342   1.216   0.691   6.630  0.2950 -1.9149 -2.6284
    3MOL0     H  343   1.249   0.775   6.866  0.5288 -1.1624  0.9240
    3MOL0     H  344   1.176   0.628   6.924 -0.5177  0.6042 -0.5061
    3MOL0     H  345   1.019   0.803   6.741  1.6273  3.6250  2.7920
    3MOL0     H  346   0.971   0.654   6.831  0.5989  0.3167 -2.7866
    3MOL0     H  347   0.882   0.878   6.924 -0.2665  2.3914  0.4051
    3MOL0     H  348   1.053   0.921   6.967  0.9403 -1.3406 -1.3229
    3MOL0     H  349   0.789   0.642   7.085 -0.1838 -2.5983 -0.6299
    3MOL0     H  350   0.891   0.490   7.390  1.9612  0.8394 -0.1830
    3MOL0     H  351   1.006   0.408   7.291  0.3542  1.8152 -3.3955
    3MOL0     H  352   0.837   0.332   7.128  4.1028  0.4925  0.4548
    3MOL0     H  353   0.711   0.428   7.218 -0.1045 -0.2389 -0.9710
    3MOL0     H  354   0.873   0.190   7.344 -0.7566 -2.9823  1.1182
    3MOL0     H  355   0.740   0.289   7.416 -0.8143 -1.1793  0.1845
    3MOL0     H  356   0.739   0.093   7.183  2.0120  1.0674  0.6550
    3MOL0     H  357   0.589   0.166   7.257  0.2553  3.5042  1.9274
    3MOL0     H  358   0.474  -0.071   7.407 -0.3365  0.7892  0.2827
    3MOL0     H  359   0.403  -0.122   7.623  0.3008 -1.2948  0.7843
    3MOL0     H  360   0.411  -0.028   8.135 -0.4802  1.7250 -0.7253
    3MOL0     H  361   0.259  -0.084   8.296 -2.8960  2.9638 -0.1449
    3MOL0     H  362   0.110  -0.414   8.322  1.1019  1.1391  3.1928
    3MOL0     H  363  -0.060  -0.408   8.252 -0.1035  0.5685 -0.5769
    3MOL0     H  364  -0.103  -0.312   8.507  1.0333  0.0475  3.6744
    3MOL0     H  365   0.066  -0.334   8.521 -0.4246 -0.9203  2.1548
    3MOL0     H  366   0.058  -0.570   8.514  0.3092  1.4683 -1.3881
    3MOL0     H  367  -0.103  -0.588   8.457 -0.4816 -0.6704  1.3368
    3MOL0     H  368  -0.036  -0.457   8.720 -1.0465  1.9718 -1.0795
    3MOL0     H  369  -0.186  -0.454   8.653 -1.0706 -1.4260  0.4575
    3MOL0     H  370  -0.041  -0.719   8.686 -0.2315  0.2040 -2.9939
    3MOL0     H  371  -0.212  -0.693   8.662  2.5348 -0.3389 -2.8633
    3MOL0     H  372  -0.075  -0.591   8.922  2.0917 -0.5785 -1.4843
    3MOL0     H  373  -0.107  -0.754   8.889  0.5624  1.2464  0.4798
    3MOL0     H  374  -0.322  -0.533   8.847 -3.3518 -1.8007 -0.1098
    3MOL0     H  375  -0.350  -0.703   8.856 -1.8772  1.9616 -0.1121
    3MOL0     H  376  -0.268  -0.731   9.074 -0.7644 -0.7860 -2.6708
    3MOL0     H  377  -0.426  -0.637   9.050 -0.1489  0.2858  1.2152
    3MOL0     H  378   0.037  -0.353   8.050 -0.1572 -0.3478  0.3825
    3MOL0     H  379   0.183  -0.294   7.865  0.2847  1.0004 -0.1066
    3MOL0     H  380   0.769   0.006   7.807  4.0737 -1.3799 -2.1497
    3MOL0     H  381   0.866   0.037   7.565 -0.7398  0.8762 -1.8883
    3MOL0     H  382   1.622   0.545   6.193  0.9870 -0.4383  2.7107
    3MOL0     H  383   1.724   0.457   5.966  1.4316 -2.5025 -1.5993
    3MOL0     H  384   1.602  -0.086   5.697  0.8394 -4.6269 -0.8280
    3MOL0     H  385   1.708  -0.186   5.509 -2.3321  0.9928  1.3668
    3MOL0     H  386   2.142  -0.197   5.410  1.5756 -2.3100 -5.4762
    3MOL0     H  387   2.109  -0.032   5.369 -0.3814  0.9965  1.2961
    3MOL0     H  388   2.172  -0.203   5.179  1.1002  1.4011  0.4100
    3MOL0     H  389   2.010  -0.258   5.184  0.4154  0.0538 -4.0811
    3MOL0     H  390   2.060  -0.087   5.023  5.0527 -2.6146  1.3110
    3MOL0     H  391   2.162  -0.002   5.126  1.2304 -2.1042 -0.8836
    3MOL0     H  392   1.887   0.079   5.064 -0.8858  0.4224  1.2648
    3MOL0     H  393   1.877   0.005   5.223  1.4522  0.5016  2.3028
    3MOL0     H  394   2.148   0.341   5.229 -0.1532 -0.0906 -1.6706
    3MOL0     H  395   2.064   0.044   5.548 -0.8508 -0.1950 -2.1115
    3MOL0     H  396   1.955   0.185   5.717 -3.3492  1.9312 -1.6964
    4MOL0     O  397   7.631   5.172   2.105 -0.3623 -0.6852 -0.2392
    4MOL0     C  398   7.523   5.137   2.164  0.1131 -0.1767  0.3245
    4MOL0     O  399   7.472   5.010   2.157  0.5063  0.0159 -0.2626
    4MOL0     C  400   7.567   4.908   2.140 -0.1181  0.4658  0.2243
    4MOL0     C  401   7.643   4.867   2.254  0.2840  0.3281  0.5559
    4MOL0     C  402   7.733   4.765   2.253 -0.2657 -0.0371  0.3871
    4MOL0     C  403   7.747   4.693   2.129 -0.0008  0.0773  0.1500
    4MOL0     O  404   7.833   4.586   2.125  0.2995  0.5397  0.6162
    4MOL0     C  405   7.928   4.563   2.234 -0.6132  0.4702  0.1131
    4MOL0     C  406   8.009   4.434   2.241 -0.1871  0.0480 -1.3875
    4MOL0     C  407   7.918   4.314   2.231  0.6205 -1.1328  0.0072
    4MOL0     C  408   8.003   4.195   2.265  0.7296 -0.8940  0.2167
    4MOL0     C  409   7.917   4.067   2.298 -0.4694  0.3114 -0.7435
    4MOL0     C  410   7.833   4.018   2.179 -0.3652  0.3739  0.0353
    4MOL0     C  411   7.916   3.968   2.060 -0.2092 -0.9304  0.3786
    4MOL0     C  412   7.837   3.938   1.932  0.2353 -0.5786  0.4050
    4MOL0     N  413   7.786   4.052   1.864 -0.3858 -0.7157  0.3314
    4MOL0     C  414   7.649   4.077   1.849  0.2442 -0.4744  0.0034
    4MOL0     C  415   7.651   4.193   1.778  0.6128  0.9008  0.6021
    4MOL0     C  416   7.541   4.283   1.756  0.5688 -0.5212 -0.6358
    4MOL0     C  417   7.526   4.391   1.864  0.0007 -1.1463  0.1860
    4MOL0     C  418   7.453   4.341   1.987  0.2354 -0.1325 -0.2619
    4MOL0     C  419   7.491   4.416   2.122  0.3131  0.5501  1.5729
    4MOL0     O  420   7.375   4.411   2.205  0.4956 -0.4446  0.2162
    4MOL0     C  421   7.347   4.524   2.280  1.0057  0.3288  0.1919
    4MOL0     C  422   7.454   4.602   2.328 -0.4990  0.1769 -1.3839
    4MOL0     C  423   7.432   4.704   2.425  0.1024 -0.2734 -0.2307
    4MOL0     C  424   7.304   4.731   2.477  0.2776  0.4369  1.0154
    4MOL0     C  425   7.280   4.840   2.571 -1.7683 -0.2417 -0.2837
    4MOL0     O  426   7.165   4.917   2.549 -0.0367 -0.8083 -1.0054
    4MOL0     C  427   7.146   5.019   2.639  0.6170 -0.9237  0.1438
    4MOL0     C  428   7.247   5.104   2.682  1.3988 -1.3382 -0.3830
    4MOL0     C  429   7.220   5.211   2.754  0.6705 -0.6809  0.8600
    4MOL0     C  430   7.087   5.255   2.780  0.5445  0.6956 -0.4002
    4MOL0     O  431   7.054   5.355   2.871  0.6332 -0.2410  0.1920
    4MOL0     C  432   7.096   5.479   2.821  0.3994  0.0572  0.7018
    4MOL0     C  433   6.969   5.565   2.855 -0.4659  0.1318 -0.9676
    4MOL0     C  434   6.980   5.722   2.836  0.0588 -0.7033 -0.6084
    4MOL0     C  435   7.107   5.770   2.914  0.1596 -0.7995  0.2334
    4MOL0     C  436   7.097   5.904   2.973  0.0533 -0.5965  0.7330
    4MOL0     C  437   7.211   5.935   3.074 -0.2343  0.0608 -0.2855
    4MOL0     C  438   7.226   6.090   3.096  0.1408 -0.1855 -1.2857
    4MOL0     C  439   7.300   6.115   3.231 -0.3636 -0.8750 -0.8730
    4MOL0    Cl  440   7.476   6.051   3.232  0.1368  0.1499 -0.1566
    4MOL0     C  441   6.985   5.171   2.742  0.3455  0.4159 -0.3646
    4MOL0     C  442   7.016   5.052   2.676 -0.5056 -0.3612  0.3154
    4MOL0     O  443   7.362   4.850   2.663  0.3598  0.2577  1.0977
    4MOL0     C  444   7.200   4.674   2.407  0.3478 -0.5710 -0.7009
    4MOL0     C  445   7.222   4.570   2.316  1.0306 -0.0927  0.3362
    4MOL0     N  446   7.782   4.232   1.751  0.3642 -0.3701 -0.2903
    4MOL0     N  447   7.858   4.143   1.796 -0.4013  0.4567 -0.3496
    4MOL0     C  448   7.673   4.730   2.008  0.4360 -0.4636  0.5308
    4MOL0     C  449   7.585   4.836   2.020  0.5749  0.4607 -0.5256
    4MOL0     C  450   7.451   5.246   2.236 -0.6843  0.7794 -1.0082
    4MOL0     C  451   7.484   5.384   2.214  0.9002  0.4060 -1.0855
    4MOL0     C  452   7.420   5.478   2.298  0.1588  0.3353 -1.1099
    4MOL0     C  453   7.323   5.432   2.388 -0.0998 -0.2281 -0.5533
    4MOL0     O  454   7.265   5.502   2.496  0.0393 -0.0243 -0.3033
    4MOL0     C  455   7.195   5.625   2.459 -0.7811  0.6040  0.9190
    4MOL0     C  456   7.290   5.745   2.495 -0.6211  0.5933  0.2681
    4MOL0     C  457   7.244   5.864   2.423 -0.1083  1.3595 -0.3114
    4MOL0     C  458   7.325   6.000   2.452 -0.6341  0.0110 -0.7766
    4MOL0     C  459   7.349   6.021   2.599  0.8172 -0.1926  0.5748
    4MOL0     C  460   7.359   6.032   2.721 -0.4485  0.0869 -0.3136
    4MOL0     C  461   7.295   5.297   2.397  1.4910  0.3071  0.6774
    4MOL0     C  462   7.360   5.202   2.325 -0.5149  0.1576 -0.1044
    4MOL0     H  463   7.629   4.933   2.340 -0.6250 -1.2801  1.6995
    4MOL0     H  464   7.807   4.756   2.332  0.6312  4.7619  0.4473
    4MOL0     H  465   7.888   4.564   2.336  1.7936 -1.7797  1.1962
    4MOL0     H  466   8.004   4.642   2.244  1.7414 -1.7259  0.9032
    4MOL0     H  467   8.061   4.439   2.337 -1.8162  0.7078 -0.5043
    4MOL0     H  468   8.077   4.428   2.155  0.9800 -2.9771 -0.3978
    4MOL0     H  469   7.859   4.318   2.139  0.8934  1.4700 -0.1289
    4MOL0     H  470   7.847   4.315   2.315  0.9184 -1.6487  0.2702
    4MOL0     H  471   8.077   4.185   2.185  2.2004 -1.3669  1.6053
    4MOL0     H  472   8.058   4.204   2.359 -0.5386  0.0041  0.9087
    4MOL0     H  473   7.854   4.080   2.386  1.4144  0.3850  0.6402
    4MOL0     H  474   7.983   3.982   2.315 -0.8583 -0.1595 -1.5250
    4MOL0     H  475   7.775   4.101   2.137  1.5514  0.9642 -1.6136
    4MOL0     H  476   7.770   3.933   2.204 -1.1768  0.3275 -1.9335
    4MOL0     H  477   7.982   4.050   2.030 -1.2203  0.7014  2.3581
    4MOL0     H  478   7.964   3.876   2.096 -0.5536 -0.7397  1.3653
    4MOL0     H  479   7.757   3.871   1.963  0.8975 -1.1030  1.0194
    4MOL0     H  480   7.904   3.880   1.869  4.3180  3.6657  0.2282
    4MOL0     H  481   7.559   4.028   1.887  0.5998  2.9155  6.8858
    4MOL0     H  482   7.443   4.233   1.753 -0.7475  1.7383  1.1050
    4MOL0     H  483   7.553   4.319   1.653 -1.6766 -3.1343 -1.9613
    4MOL0     H  484   7.482   4.486   1.831  0.2453 -0.3468  2.0487
    4MOL0     H  485   7.627   4.420   1.895  1.2437 -4.5109 -0.2713
    4MOL0     H  486   7.349   4.352   1.955  0.9054  2.0257 -1.9164
    4MOL0     H  487   7.468   4.237   2.019 -0.6996 -0.1370  0.2011
    4MOL0     H  488   7.533   4.514   2.098  2.4500 -0.3476  1.4478
    4MOL0     H  489   7.577   4.379   2.179  0.8940  2.4745  1.9908
    4MOL0     H  490   7.557   4.572   2.311  0.1547 -0.1605  2.2812
    4MOL0     H  491   7.522   4.757   2.455  1.1531 -0.9704 -1.9420
    4MOL0     H  492   7.351   5.106   2.650  1.0584 -1.0720 -1.5006
    4MOL0     H  493   7.295   5.278   2.794  2.2338 -2.0048  0.2326
    4MOL0     H  494   7.113   5.482   2.713 -1.2883 -1.3402  0.3568
    4MOL0     H  495   7.177   5.520   2.881  0.0888 -0.2635  1.3469
    4MOL0     H  496   6.945   5.541   2.959  0.8651  1.1403 -0.3961
    4MOL0     H  497   6.887   5.523   2.795 -1.4864  1.3607 -0.4607
    4MOL0     H  498   6.900   5.784   2.876  0.6765  0.4326 -1.0964
    4MOL0     H  499   6.975   5.737   2.727  0.5991  1.7193 -0.3516
    4MOL0     H  500   7.119   5.706   3.001  0.4445 -0.0374  0.7695
    4MOL0     H  501   7.201   5.761   2.859  0.4002  0.3028  0.4371
    4MOL0     H  502   7.000   5.923   3.019 -1.1800 -3.5707 -0.3767
    4MOL0     H  503   7.123   5.974   2.893 -1.2884 -2.1809 -1.1981
    4MOL0     H  504   7.308   5.896   3.044  0.2289  3.0421 -3.3025
    4MOL0     H  505   7.180   5.887   3.168 -0.8686  1.0298  0.0111
    4MOL0     H  506   7.275   6.138   3.010 -1.4876  0.0024 -2.1354
    4MOL0     H  507   7.127   6.135   3.102 -0.0329 -0.6469 -0.6053
    4MOL0     H  508   7.244   6.071   3.315 -1.5473 -1.9758 -2.1982
    4MOL0     H  509   7.295   6.222   3.253 -3.0007 -1.3855  1.6399
    4MOL0     H  510   6.884   5.197   2.773  0.0258  1.4051 -2.0887
    4MOL0     H  511   6.943   4.984   2.632  2.8215 -1.8751 -3.6159
    4MOL0     H  512   7.098   4.704   2.422 -0.3845 -4.1202  3.0828
    4MOL0     H  513   7.139   4.510   2.279  3.3680 -1.4613 -3.2096
    4MOL0     H  514   7.686   4.678   1.914  1.3308 -0.3422  0.5730
    4MOL0     H  515   7.524   4.872   1.939  0.0288  0.8569  0.0507
    4MOL0     H  516   7.554   5.418   2.139  1.2605 -0.4366 -1.1450
    4MOL0     H  517   7.466   5.576   2.299  1.7606 -0.3703  0.3549
    4MOL0     H  518   7.100   5.640   2.510  0.3071  3.3206  2.3430
    4MOL0     H  519   7.166   5.636   2.354 -3.0259  1.3260  1.5703
    4MOL0     H  520   7.284   5.756   2.603 -2.9702 -4.6249  0.9519
    4MOL0     H  521   7.393   5.725   2.465 -1.3512  2.3042 -4.1653
    4MOL0     H  522   7.153   5.879   2.481  0.3657 -0.7306  1.0757
    4MOL0     H  523   7.205   5.845   2.322 -2.5364 -3.8649  1.2849
    4MOL0     H  524   7.425   5.982   2.410 -0.1244 -1.2898  0.8955
    4MOL0     H  525   7.268   6.087   2.418  3.2805  2.2489 -2.2758
    4MOL0     H  526   7.371   6.038   2.827 -0.0291 -2.0615 -0.1905
    4MOL0     H  527   7.225   5.255   2.469  3.0513 -0.7847  1.5957
    4MOL0     H  528   7.340   5.098   2.345  2.9767 -0.1545  2.7126
    5MOL0     O  529   0.025   3.532   9.178 -0.0189  0.2039  0.8014
    5MOL0     C  530   0.028   3.538   9.302  0.5028  1.2269  0.3291
    5MOL0     O  531   0.054   3.443   9.387  0.1113  0.0115 -0.2765
    5MOL0     C  532   0.050   3.313   9.349 -0.5295  0.6025  0.3591
    5MOL0     C  533  -0.001   3.253   9.236  1.1177  0.5895  0.1466
    5MOL0     C  534   0.054   3.130   9.187  0.8898  1.4608  0.3405
    5MOL0     C  535   0.135   3.047   9.266  0.4180 -0.0517  0.0939
    5MOL0     O  536   0.160   2.927   9.210 -0.2094  0.6298  0.3078
    5MOL0     C  537   0.250   2.839   9.288 -0.1751 -0.1185  0.3402
    5MOL0     C  538   0.248   2.705   9.226 -1.4384  1.1674 -0.4910
    5MOL0     C  539   0.364   2.612   9.256  0.5264  0.3718 -0.3539
    5MOL0     C  540   0.351   2.484   9.173  0.1911 -0.4958  0.7318
    5MOL0     C  541   0.463   2.392   9.202 -0.9308  0.9759 -0.4465
    5MOL0     C  542   0.439   2.250   9.153 -0.2534  0.3823 -0.6409
    5MOL0     C  543   0.531   2.147   9.233  0.3995 -0.5157  0.1650
    5MOL0     C  544   0.467   2.012   9.227 -0.0649  0.3598 -1.0430
    5MOL0     N  545   0.533   1.917   9.331 -0.0211  0.0876 -0.4956
    5MOL0     C  546   0.482   1.817   9.403 -0.0351 -0.0952  0.1910
    5MOL0     C  547   0.598   1.743   9.437  0.1081 -0.4003 -0.2077
    5MOL0     C  548   0.617   1.641   9.545 -0.1367 -0.5063 -0.4956
    5MOL0     C  549   0.664   1.506   9.475  0.1757 -0.2805 -0.0488
    5MOL0     C  550   0.628   1.383   9.555  0.5099  0.0076  0.4497
    5MOL0     C  551   0.671   1.263   9.473  0.3275 -0.9817 -0.5209
    5MOL0     O  552   0.789   1.198   9.538  0.6256 -0.1798 -0.4726
    5MOL0     C  553   0.860   1.095   9.477  0.3489 -1.1913 -0.5740
    5MOL0     C  554   0.826   1.047   9.350 -0.0616 -1.1226 -0.6239
    5MOL0     C  555   0.891   0.941   9.299  0.6842 -0.5122  0.6435
    5MOL0     C  556   1.007   0.876   9.364  0.1835  0.3858  0.7288
    5MOL0     C  557   1.076   0.765   9.312 -0.0168 -0.5173 -0.6944
    5MOL0     O  558   1.176   0.711   9.392  0.1928  0.4034 -0.2329
    5MOL0     C  559   1.217   0.583   9.366 -0.4149 -0.7505  0.1192
    5MOL0     C  560   1.123   0.480   9.370 -0.4826 -0.5307 -0.1657
    5MOL0     C  561   1.173   0.350   9.358  0.3788 -0.8803  0.3779
    5MOL0     C  562   1.310   0.322   9.312 -0.8566 -0.3395  0.1134
    5MOL0     O  563   1.367   0.201   9.286  0.0650 -0.4693 -0.1659
    5MOL0     C  564   1.294   0.083   9.314  1.2350 -0.4195  0.8191
    5MOL0     C  565   1.365  -0.025   9.229  0.3637  0.0556  0.3505
    5MOL0     C  566   1.335  -0.159   9.299  0.6192  0.4367  0.7145
    5MOL0     C  567   1.414  -0.269   9.219 -0.0608  0.1667  0.5728
    5MOL0     C  568   1.408  -0.409   9.281  0.5482 -1.1183  0.0294
    5MOL0     C  569   1.271  -0.477   9.230 -0.7279  0.4690  0.4774
    5MOL0     C  570   1.247  -0.599   9.311  1.4300  0.5047  0.3254
    5MOL0     C  571   1.109  -0.655   9.307  0.5599  0.0815 -0.3390
    5MOL0    Cl  572   1.020  -0.628   9.157  0.1561 -0.1857 -0.2473
    5MOL0     C  573   1.397   0.436   9.297  0.0932  0.4286 -0.1635
    5MOL0     C  574   1.356   0.564   9.333  0.4316 -0.3443  0.2127
    5MOL0     O  575   1.034   0.712   9.210  0.2673 -1.0756  0.1213
    5MOL0     C  576   1.037   0.933   9.488  0.2015  0.3128 -0.3788
    5MOL0     C  577   0.964   1.039   9.546 -0.5373  0.5818 -0.1576
    5MOL0     N  578   0.710   1.798   9.380 -0.1239  0.1132 -1.3139
    5MOL0     N  579   0.664   1.888   9.306 -0.1062  0.2857 -0.5819
    5MOL0     C  580   0.168   3.096   9.393  0.4197  0.5396 -0.3682
    5MOL0     C  581   0.127   3.223   9.438  0.4243 -0.9212 -0.5402
    5MOL0     C  582   0.002   3.675   9.354 -0.1757 -0.1862  0.6378
    5MOL0     C  583   0.003   3.703   9.487 -0.3392  0.8222 -0.4485
    5MOL0     C  584  -0.009   3.826   9.545 -0.7425  0.0984  0.2856
    5MOL0     C  585  -0.020   3.936   9.460  0.4320 -0.4147  0.1536
    5MOL0     O  586  -0.015   4.067   9.495 -0.5887  0.0682 -0.3698
    5MOL0     C  587   0.018   4.099   9.628 -0.0729 -0.3571  0.1642
    5MOL0     C  588  -0.013   4.239   9.672  0.2696  0.1059  0.0160
    5MOL0     C  589   0.091   4.338   9.618 -0.4568 -0.5610 -1.1865
    5MOL0     C  590   0.080   4.472   9.706 -0.4480  0.0239  0.5164
    5MOL0     C  591  -0.051   4.545   9.704  0.1176 -0.2668  0.1455
    5MOL0     C  592  -0.160   4.604   9.699 -0.5299 -0.4822 -1.7757
    5MOL0     C  593  -0.019   3.917   9.323  0.5344  0.1133 -0.6703
    5MOL0     C  594  -0.009   3.791   9.275  0.6285  0.5101  0.0192
    5MOL0     H  595  -0.079   3.296   9.175  1.5784  1.3667  0.0832
    5MOL0     H  596   0.025   3.089   9.091  1.1066 -1.7477  1.5055
    5MOL0     H  597   0.217   2.823   9.391  2.7896  3.3343  2.0620
    5MOL0     H  598   0.353   2.876   9.291 -0.8030  1.7670  3.5229
    5MOL0     H  599   0.241   2.728   9.120 -1.7756 -1.0482 -0.9974
    5MOL0     H  600   0.156   2.654   9.260  0.3573 -1.3409  0.9952
    5MOL0     H  601   0.358   2.587   9.362  3.9469  2.1506  0.4261
    5MOL0     H  602   0.461   2.658   9.235  0.1097  0.6706 -1.7000
    5MOL0     H  603   0.260   2.437   9.211 -1.9272  2.2712 -0.5329
    5MOL0     H  604   0.337   2.496   9.065 -4.5454 -5.1853  0.4715
    5MOL0     H  605   0.476   2.385   9.311 -0.7537  1.6733 -0.4161
    5MOL0     H  606   0.561   2.427   9.166  0.6263 -0.4363  2.1492
    5MOL0     H  607   0.456   2.241   9.045 -0.0539 -2.6640 -0.4465
    5MOL0     H  608   0.331   2.238   9.169  0.0618 -0.0563  1.5316
    5MOL0     H  609   0.631   2.152   9.190  1.2157 -2.0753  1.7416
    5MOL0     H  610   0.544   2.183   9.336  2.8452  1.9398 -0.8727
    5MOL0     H  611   0.488   1.974   9.127 -0.8230  1.1574 -1.5180
    5MOL0     H  612   0.360   2.020   9.247 -0.3466 -1.0808 -1.8381
    5MOL0     H  613   0.378   1.796   9.424 -0.8929  1.6455 -1.9227
    5MOL0     H  614   0.516   1.633   9.584 -2.7233  3.7105 -5.1178
    5MOL0     H  615   0.681   1.673   9.627  0.7056 -2.4347 -0.3354
    5MOL0     H  616   0.770   1.509   9.450 -0.0667 -4.5565 -2.5942
    5MOL0     H  617   0.628   1.492   9.373  1.0640  0.7872 -0.5286
    5MOL0     H  618   0.659   1.367   9.658  1.8419  0.9590  0.2223
    5MOL0     H  619   0.519   1.392   9.561  0.5050  0.6210 -0.3344
    5MOL0     H  620   0.700   1.293   9.372  1.0375  2.7554  0.6554
    5MOL0     H  621   0.589   1.192   9.456 -2.3520  1.8780 -0.5669
    5MOL0     H  622   0.750   1.094   9.288  0.1237  2.3311  1.5277
    5MOL0     H  623   0.859   0.910   9.200 -0.8657 -1.1661  1.3165
    5MOL0     H  624   1.020   0.507   9.388 -0.7172  1.2865 -3.5323
    5MOL0     H  625   1.113   0.260   9.372  2.0541 -2.5999 -2.3066
    5MOL0     H  626   1.190   0.099   9.282  1.0914 -2.5364  0.0680
    5MOL0     H  627   1.297   0.053   9.419  1.1759 -2.4667  0.2837
    5MOL0     H  628   1.468  -0.006   9.199 -0.8202 -0.2334 -4.7961
    5MOL0     H  629   1.319  -0.032   9.130  1.4261 -0.7883 -0.1052
    5MOL0     H  630   1.231  -0.190   9.284  1.5800 -2.0767 -1.6706
    5MOL0     H  631   1.371  -0.159   9.402  2.1824 -0.7791  0.1995
    5MOL0     H  632   1.397  -0.277   9.111 -2.0074  0.6258  0.8157
    5MOL0     H  633   1.517  -0.232   9.214  1.0243 -2.5764  0.8765
    5MOL0     H  634   1.410  -0.396   9.390 -3.5987 -2.2007  0.4194
    5MOL0     H  635   1.494  -0.471   9.256  3.1216  0.7118  3.3914
    5MOL0     H  636   1.283  -0.506   9.125  0.0133 -1.0472  0.9505
    5MOL0     H  637   1.179  -0.419   9.242 -0.6034  0.4483  1.5613
    5MOL0     H  638   1.313  -0.668   9.259  0.4647  1.2701 -2.0833
    5MOL0     H  639   1.263  -0.577   9.417  0.3675 -0.4740  0.7149
    5MOL0     H  640   1.056  -0.597   9.384  1.7632  0.4244  0.2554
    5MOL0     H  641   1.110  -0.762   9.331  0.7388  0.6297  2.4427
    5MOL0     H  642   1.501   0.421   9.268  0.2179  0.7771  0.1054
    5MOL0     H  643   1.428   0.644   9.323  1.1811 -0.9588  0.5348
    5MOL0     H  644   1.117   0.886   9.544 -0.7364 -0.4007  0.4068
    5MOL0     H  645   0.981   1.072   9.648  1.3293 -1.6147  0.3382
    5MOL0     H  646   0.229   3.035   9.458 -1.1895  0.7932  1.4544
    5MOL0     H  647   0.166   3.271   9.527  2.9355  2.1124 -3.0066
    5MOL0     H  648   0.022   3.629   9.564  0.4451  1.1595 -0.3032
    5MOL0     H  649   0.014   3.823   9.651 -3.1602 -0.4134  0.8462
    5MOL0     H  650   0.121   4.063   9.640  0.1572 -0.7691 -2.4854
    5MOL0     H  651  -0.054   4.054   9.697 -0.2803  3.0544  2.4239
    5MOL0     H  652  -0.107   4.260   9.620  0.8473 -0.6881 -1.4305
    5MOL0     H  653  -0.024   4.255   9.779  0.9084  2.2444 -0.2045
    5MOL0     H  654   0.066   4.360   9.513 -3.2100  0.4617 -0.4042
    5MOL0     H  655   0.193   4.301   9.619 -0.2170  0.0539  0.6715
    5MOL0     H  656   0.105   4.464   9.812 -0.3513 -0.1670  0.4805
    5MOL0     H  657   0.154   4.539   9.662 -1.6364 -0.1582 -1.9241
    5MOL0     H  658  -0.258   4.644   9.682 -0.6281  0.1382  0.0364
    5MOL0     H  659  -0.011   4.009   9.267  0.8197  1.0102  0.8012
    5MOL0     H  660   0.001   3.775   9.168  0.4282 -0.6608  0.1596
    6MOL0     O  661   5.399   5.178   6.689 -0.1217  0.3022 -0.4988
    6MOL0     C  662   5.512   5.140   6.653 -0.8665 -0.1294  0.1758
    6MOL0     O  663   5.545   5.075   6.536  0.1068  0.5769  0.0286
    6MOL0     C  664   5.426   5.040   6.466 -0.1115 -0.5837  0.0464
    6MOL0     C  665   5.336   4.949   6.513 -0.0353 -0.2459 -0.0692
    6MOL0     C  666   5.225   4.915   6.428 -0.4385  0.1087  0.2959
    6MOL0     C  667   5.214   4.956   6.294  0.7709  0.7705 -0.8553
    6MOL0     O  668   5.111   4.898   6.221  0.6287  0.0796 -0.1975
    6MOL0     C  669   5.075   4.979   6.110 -0.0899 -0.1004 -0.2721
    6MOL0     C  670   5.151   4.934   5.989  0.7193 -0.2345 -0.1745
    6MOL0     C  671   5.101   5.004   5.861 -0.0019 -0.0209 -0.4083
    6MOL0     C  672   5.199   4.971   5.738  0.1367 -0.1034 -0.8573
    6MOL0     C  673   5.196   5.089   5.634 -0.2531 -0.0523 -0.8642
    6MOL0     C  674   5.278   5.056   5.515 -0.0735  0.5355  0.3984
    6MOL0     C  675   5.187   5.016   5.389 -0.7239 -1.2153 -0.1701
    6MOL0     C  676   5.134   4.870   5.421 -0.4213  0.8687 -0.3052
    6MOL0     N  677   5.230   4.757   5.429 -0.7388  0.2025 -0.5672
    6MOL0     C  678   5.318   4.739   5.328 -0.0876  0.5841  0.4037
    6MOL0     C  679   5.387   4.632   5.374  0.7793 -1.3946  0.6428
    6MOL0     C  680   5.479   4.547   5.291 -1.1744  0.0798 -0.8805
    6MOL0     C  681   5.426   4.404   5.249 -0.2319 -0.2142  0.3652
    6MOL0     C  682   5.528   4.339   5.151 -0.5941 -0.5697  0.6968
    6MOL0     C  683   5.478   4.226   5.064  0.6254 -0.3375 -0.2910
    6MOL0     O  684   5.569   4.194   4.960 -0.3299 -0.0627 -0.1324
    6MOL0     C  685   5.554   4.100   4.869  0.3409 -0.5930 -0.1334
    6MOL0     C  686   5.656   4.054   4.787 -0.0939 -0.0945 -1.0254
    6MOL0     C  687   5.646   3.967   4.686 -0.8916  0.9317  0.0093
    6MOL0     C  688   5.519   3.916   4.657 -0.1680  0.0369  0.1500
    6MOL0     C  689   5.509   3.835   4.536  0.6344  0.1727  0.1715
    6MOL0     O  690   5.381   3.817   4.503  0.5004 -0.1963 -1.2997
    6MOL0     C  691   5.339   3.752   4.391  0.6579  0.7310  0.3472
    6MOL0     C  692   5.402   3.769   4.270 -0.4298  0.0823  0.3452
    6MOL0     C  693   5.366   3.699   4.154 -0.1272 -0.4275  0.2849
    6MOL0     C  694   5.253   3.613   4.159 -0.3853  0.4155 -0.3936
    6MOL0     O  695   5.217   3.551   4.042 -0.0762  0.0358 -0.2759
    6MOL0     C  696   5.212   3.403   4.043 -1.1502  0.8202  0.2703
    6MOL0     C  697   5.205   3.369   3.897 -0.8387  0.3950  0.5228
    6MOL0     C  698   5.058   3.370   3.836  0.4732  0.0448 -0.1849
    6MOL0     C  699   4.991   3.503   3.854  0.9694  0.0269 -1.0132
    6MOL0     C  700   4.866   3.518   3.763 -1.0258 -0.6297 -0.2910
    6MOL0     C  701   4.794   3.654   3.801 -0.3421  0.0846 -0.6585
    6MOL0     C  702   4.881   3.778   3.801 -0.4179  0.4877 -0.0419
    6MOL0     C  703   4.787   3.894   3.768 -0.0409  0.2586 -0.6419
    6MOL0    Cl  704   4.645   3.889   3.888  0.4168 -0.4144 -0.0158
    6MOL0     C  705   5.179   3.608   4.278  0.3008  0.5891  0.0695
    6MOL0     C  706   5.222   3.671   4.400  0.5113  0.1937 -0.0290
    6MOL0     O  707   5.608   3.793   4.480 -0.0008 -0.0860 -0.1265
    6MOL0     C  708   5.413   3.957   4.741 -0.5804  0.6367  0.5173
    6MOL0     C  709   5.430   4.048   4.846 -1.1901  0.2290 -0.1586
    6MOL0     N  710   5.341   4.592   5.497 -0.6411  0.2926  1.3783
    6MOL0     N  711   5.243   4.662   5.528 -0.2067  0.2204 -0.2623
    6MOL0     C  712   5.308   5.053   6.252  0.0541 -0.0098  0.1468
    6MOL0     C  713   5.410   5.092   6.342  0.0402  0.1552  0.1209
    6MOL0     C  714   5.620   5.176   6.751 -0.4257  0.3541  1.0860
    6MOL0     C  715   5.601   5.263   6.855  0.8326  0.3783 -0.9824
    6MOL0     C  716   5.696   5.288   6.950 -0.2701 -0.3633 -0.3050
    6MOL0     C  717   5.827   5.228   6.948 -0.0767 -0.1335  0.4901
    6MOL0     O  718   5.914   5.255   7.054  0.1486  0.2897  0.0582
    6MOL0     C  719   6.030   5.167   7.066  0.3063  0.2584  0.1266
    6MOL0     C  720   6.096   5.209   7.200 -0.5079  0.5300 -1.0666
    6MOL0     C  721   6.073   5.101   7.302 -0.8081 -0.3881  0.7706
    6MOL0     C  722   6.094   5.168   7.440 -0.4521 -0.1776  0.0672
    6MOL0     C  723   6.229   5.235   7.470 -0.8531 -0.6931  0.2889
    6MOL0     C  724   6.334   5.295   7.492  0.7497  0.0327  0.1992
    6MOL0     C  725   5.851   5.153   6.839  0.7881  0.2510  0.6691
    6MOL0     C  726   5.754   5.129   6.736  0.2556 -0.6034  0.3879
    6MOL0     H  727   5.346   4.899   6.609  2.5425 -0.9291 -0.6357
    6MOL0     H  728   5.140   4.862   6.470 -0.7318  2.0610  2.4219
    6MOL0     H  729   5.075   5.086   6.135  0.2584  0.5290 -2.7161
    6MOL0     H  730   4.970   4.954   6.090 -0.7135  2.1778 -0.1979
    6MOL0     H  731   5.126   4.830   5.968 -3.9433  0.9811 -2.0631
    6MOL0     H  732   5.258   4.952   6.000  0.1799  4.1929 -0.4271
    6MOL0     H  733   5.102   5.112   5.876  1.1841 -0.2154  1.2206
    6MOL0     H  734   4.997   4.975   5.846  0.4752 -2.5153  0.6749
    6MOL0     H  735   5.299   4.978   5.783 -0.5282  0.6476  0.5390
    6MOL0     H  736   5.188   4.871   5.695  5.5274 -0.4772 -2.1049
    6MOL0     H  737   5.230   5.183   5.678  1.4718 -0.1881 -1.8132
    6MOL0     H  738   5.093   5.107   5.602  0.0834 -2.5311 -3.8795
    6MOL0     H  739   5.365   4.991   5.530  2.5953  4.0375  1.2385
    6MOL0     H  740   5.325   5.153   5.499 -1.1580  2.1904  5.6186
    6MOL0     H  741   5.108   5.091   5.379  0.1277  0.5195  3.9614
    6MOL0     H  742   5.256   5.025   5.305 -0.2708  0.6558  0.3509
    6MOL0     H  743   5.069   4.839   5.339  1.0857 -2.6954 -0.3300
    6MOL0     H  744   5.069   4.878   5.508  0.3540  1.6646  0.2262
    6MOL0     H  745   5.337   4.801   5.241 -2.4657  0.7070 -0.0777
    6MOL0     H  746   5.559   4.516   5.359 -0.8969 -0.1178 -1.2912
    6MOL0     H  747   5.531   4.613   5.221  1.3595  0.2757  1.0186
    6MOL0     H  748   5.335   4.429   5.192 -0.3159 -0.9357  0.1774
    6MOL0     H  749   5.385   4.347   5.332  2.6012 -0.3349  1.7767
    6MOL0     H  750   5.561   4.413   5.078  0.4997 -1.7700 -0.0817
    6MOL0     H  751   5.613   4.299   5.206  1.0763 -2.3993 -2.8358
    6MOL0     H  752   5.391   4.278   5.021  1.1137  1.5914  0.9381
    6MOL0     H  753   5.448   4.134   5.115  1.3808 -0.4421 -0.0351
    6MOL0     H  754   5.753   4.097   4.809 -0.3792 -0.4287  1.0881
    6MOL0     H  755   5.733   3.937   4.628 -2.3616  1.1605 -2.4500
    6MOL0     H  756   5.474   3.850   4.282 -0.2921 -0.0644  0.5115
    6MOL0     H  757   5.421   3.726   4.064  2.0844  1.3931  2.0595
    6MOL0     H  758   5.124   3.370   4.098  0.4151 -0.2884  2.2462
    6MOL0     H  759   5.308   3.372   4.086  0.1044  3.4488 -0.4538
    6MOL0     H  760   5.260   3.277   3.876 -2.1388 -1.0876  3.0238
    6MOL0     H  761   5.263   3.447   3.846  5.2010 -4.0719 -0.5272
    6MOL0     H  762   5.007   3.291   3.891  3.6999 -1.7889  0.4337
    6MOL0     H  763   5.068   3.355   3.729 -2.2455 -2.5154 -0.1918
    6MOL0     H  764   4.949   3.512   3.955  3.0882 -2.3519  0.1775
    6MOL0     H  765   5.062   3.583   3.832  1.3690  1.0251  3.0900
    6MOL0     H  766   4.794   3.439   3.784  1.9461 -2.9492  2.1056
    6MOL0     H  767   4.894   3.524   3.657 -2.0226 -1.9776 -0.6630
    6MOL0     H  768   4.756   3.640   3.903 -0.6377 -0.6224 -0.8591
    6MOL0     H  769   4.706   3.657   3.735 -1.0882  1.2376  0.3303
    6MOL0     H  770   4.935   3.794   3.895 -0.1449  1.0452 -0.2886
    6MOL0     H  771   4.952   3.770   3.718 -0.9214  0.4473 -0.4709
    6MOL0     H  772   4.741   3.867   3.673 -2.4602 -2.1099  1.0242
    6MOL0     H  773   4.830   3.992   3.747 -0.6620  0.3427 -1.5939
    6MOL0     H  774   5.084   3.555   4.272  1.2602 -1.0608 -1.5429
    6MOL0     H  775   5.161   3.667   4.490  2.2699 -0.3790  1.1921
    6MOL0     H  776   5.310   3.923   4.730 -1.0068  1.3645  1.9634
    6MOL0     H  777   5.345   4.075   4.908 -2.2231  0.7587 -1.7471
    6MOL0     H  778   5.296   5.098   6.154  3.1521 -3.9242 -2.3489
    6MOL0     H  779   5.486   5.164   6.314  0.5634  0.5343  2.3164
    6MOL0     H  780   5.498   5.294   6.868  1.3859  3.9374 -3.5801
    6MOL0     H  781   5.676   5.348   7.038  0.0079  0.2439 -0.6550
    6MOL0     H  782   6.105   5.164   6.987  1.5038  1.9530  1.1314
    6MOL0     H  783   5.992   5.064   7.066 -0.3306  0.4893  0.1535
    6MOL0     H  784   6.203   5.225   7.184 -0.8059 -0.1797 -4.8656
    6MOL0     H  785   6.051   5.302   7.236  4.1404  1.8206  2.2817
    6MOL0     H  786   6.139   5.018   7.277  0.0716  0.7836 -0.9697
    6MOL0     H  787   5.975   5.057   7.285 -0.6649 -0.4254  0.0251
    6MOL0     H  788   6.007   5.232   7.458  1.1132  1.2305  3.5515
    6MOL0     H  789   6.086   5.082   7.508 -0.1270  0.6838  1.2200
    6MOL0     H  790   6.429   5.344   7.500  1.1959 -0.7723 -0.0975
    6MOL0     H  791   5.938   5.089   6.831 -0.2548 -0.9967 -3.5595
    6MOL0     H  792   5.786   5.065   6.655  3.1130  2.3426 -1.0930
    7MOL0     O  793   8.602   1.656   4.488 -0.9170 -0.2549 -0.1943
    7MOL0     C  794   8.587   1.608   4.378  0.2295 -0.6039  0.0932
    7MOL0     O  795   8.488   1.639   4.300 -0.4962  0.3201 -0.2062
    7MOL0     C  796   8.393   1.733   4.332  0.0604  0.5933  0.4674
    7MOL0     C  797   8.331   1.742   4.466  0.1880  0.6412 -0.8362
    7MOL0     C  798   8.228   1.833   4.474 -0.3165 -0.2971  0.2263
    7MOL0     C  799   8.198   1.928   4.378  0.5698 -0.2671 -0.1330
    7MOL0     O  800   8.102   2.027   4.391 -0.2366 -0.2579  0.4382
    7MOL0     C  801   8.035   2.050   4.513  0.3558  0.5451 -0.0110
    7MOL0     C  802   8.114   2.152   4.588 -0.5722 -0.9392  0.4212
    7MOL0     C  803   8.033   2.224   4.699 -0.1338 -0.2146  0.9242
    7MOL0     C  804   7.922   2.145   4.770  0.0845 -0.3372 -0.4471
    7MOL0     C  805   7.979   2.031   4.850  0.6320  0.4061  0.3434
    7MOL0     C  806   7.906   2.023   4.981  0.8390 -0.0409 -0.6572
    7MOL0     C  807   7.770   1.940   4.956 -0.7848  0.5676 -0.4327
    7MOL0     C  808   7.679   1.972   5.073  1.2933 -0.1795 -1.0229
    7MOL0     N  809   7.584   1.859   5.096 -0.0523 -0.4665 -0.8355
    7MOL0     C  810   7.612   1.725   5.112  0.8014 -0.4716  0.3876
    7MOL0     C  811   7.490   1.669   5.093  1.0898  0.8197 -0.8479
    7MOL0     C  812   7.473   1.528   5.098  0.4368 -0.2653 -0.5189
    7MOL0     C  813   7.449   1.490   5.249 -0.0283 -0.2507  0.6990
    7MOL0     C  814   7.415   1.338   5.261  0.5096 -1.1670  0.4084
    7MOL0     C  815   7.474   1.260   5.376 -0.6020  0.8305  0.0907
    7MOL0     O  816   7.414   1.122   5.379 -0.3829  0.0194 -0.3291
    7MOL0     C  817   7.451   1.051   5.493 -0.6293  0.3272 -0.4329
    7MOL0     C  818   7.407   1.089   5.625  0.8828  0.0430  0.5193
    7MOL0     C  819   7.434   1.015   5.737  0.3969  0.8720 -0.0199
    7MOL0     C  820   7.500   0.899   5.729 -0.4564 -0.1855 -0.6909
    7MOL0     C  821   7.533   0.827   5.858 -0.5913  0.7326  0.4306
    7MOL0     O  822   7.501   0.897   5.972  0.8159 -0.3898 -0.0100
    7MOL0     C  823   7.501   0.835   6.093 -0.5611 -0.1690 -0.0549
    7MOL0     C  824   7.397   0.752   6.135  0.5149  0.3532  0.0999
    7MOL0     C  825   7.407   0.681   6.252  0.5258  1.1786 -0.5938
    7MOL0     C  826   7.525   0.685   6.327  0.9672 -0.0001  0.0872
    7MOL0     O  827   7.568   0.609   6.431 -0.3760  0.3943 -1.0340
    7MOL0     C  828   7.597   0.475   6.390  0.0141 -0.4965 -0.3575
    7MOL0     C  829   7.487   0.378   6.375  0.8475 -0.6801  0.3840
    7MOL0     C  830   7.445   0.313   6.506  0.5688 -0.6108 -0.7290
    7MOL0     C  831   7.311   0.371   6.559  0.1709 -0.5661  0.6394
    7MOL0     C  832   7.252   0.284   6.670  0.3710 -0.0869  0.3118
    7MOL0     C  833   7.103   0.315   6.694 -0.5048  0.1859 -0.2388
    7MOL0     C  834   7.089   0.450   6.759  0.0894  0.0401 -0.1792
    7MOL0     C  835   6.952   0.507   6.732  0.6005 -0.7455 -0.3638
    7MOL0    Cl  836   6.948   0.680   6.792 -0.5440 -0.2785  0.0863
    7MOL0     C  837   7.618   0.786   6.292  0.3862  0.3673 -0.7391
    7MOL0     C  838   7.611   0.860   6.178  0.3237 -0.0241 -0.7533
    7MOL0     O  839   7.575   0.711   5.847 -0.5706 -0.7663 -0.6209
    7MOL0     C  840   7.530   0.847   5.601  0.2094  0.0204 -1.3930
    7MOL0     C  841   7.508   0.923   5.488 -0.7814 -0.5615 -0.6474
    7MOL0     N  842   7.398   1.761   5.056  1.2646  0.7736  0.8911
    7MOL0     N  843   7.453   1.877   5.074  0.1904 -0.1149  0.4449
    7MOL0     C  844   8.255   1.920   4.256  0.0005  0.6063 -0.1686
    7MOL0     C  845   8.357   1.828   4.234  0.8320 -1.1644 -0.5014
    7MOL0     C  846   8.683   1.506   4.337 -0.0365  0.3966  1.1229
    7MOL0     C  847   8.698   1.466   4.204  0.4713 -0.4835  0.5246
    7MOL0     C  848   8.799   1.386   4.152 -0.0955 -0.1784  0.4642
    7MOL0     C  849   8.900   1.345   4.239  0.7959 -1.1422 -0.1491
    7MOL0     O  850   9.005   1.291   4.176  0.4361  0.0097 -0.2882
    7MOL0     C  851   9.111   1.244   4.256 -0.4090  0.3409  0.4184
    7MOL0     C  852   9.214   1.360   4.273  0.5785  0.0231  0.2960
    7MOL0     C  853   9.269   1.413   4.136  0.4979 -0.2289 -0.2549
    7MOL0     C  854   9.343   1.311   4.052  0.5123  0.7248  0.1446
    7MOL0     C  855   9.452   1.364   3.971  0.0306 -0.4438  0.0218
    7MOL0     C  856   9.542   1.406   3.898 -0.4642 -0.4301  0.6130
    7MOL0     C  857   8.889   1.374   4.382 -0.5968  0.3616  0.5914
    7MOL0     C  858   8.774   1.455   4.432  0.0480  0.0414 -0.0027
    7MOL0     H  859   8.346   1.681   4.554 -1.9045 -1.1009 -1.5990
    7MOL0     H  860   8.169   1.825   4.565 -0.4663 -2.5107 -0.0045
    7MOL0     H  861   8.013   1.954   4.560 -1.9358  0.5639 -0.9143
    7MOL0     H  862   7.933   2.085   4.495 -0.8791 -2.3773  0.7862
    7MOL0     H  863   8.161   2.218   4.515 -1.5569 -3.0217 -2.2763
    7MOL0     H  864   8.203   2.096   4.621 -0.3403 -2.5847 -2.5654
    7MOL0     H  865   7.987   2.312   4.654 -0.4532 -1.1903 -0.7348
    7MOL0     H  866   8.110   2.247   4.774  1.9359 -2.2389 -0.4362
    7MOL0     H  867   7.866   2.219   4.827 -2.3502 -2.0889 -0.4111
    7MOL0     H  868   7.857   2.094   4.699  0.9724  0.5476 -1.9425
    7MOL0     H  869   8.084   2.056   4.869  1.0423 -0.7252 -0.3459
    7MOL0     H  870   7.976   1.929   4.811 -2.9669  0.1784  0.8604
    7MOL0     H  871   7.874   2.124   5.007 -0.0262  0.2634 -2.6840
    7MOL0     H  872   7.969   1.965   5.049  0.8472 -0.9531 -1.4236
    7MOL0     H  873   7.726   1.985   4.867 -1.9926  0.3136  0.0105
    7MOL0     H  874   7.785   1.833   4.938 -1.3849  0.6515 -1.5462
    7MOL0     H  875   7.634   2.071   5.063 -1.0619 -0.2374  4.9194
    7MOL0     H  876   7.739   1.969   5.164 -1.2643  1.4643  0.8342
    7MOL0     H  877   7.708   1.676   5.129  1.1481  0.7241  2.1221
    7MOL0     H  878   7.566   1.477   5.070  2.6755  1.9813  2.1941
    7MOL0     H  879   7.382   1.495   5.047 -1.7778  1.4070  2.1015
    7MOL0     H  880   7.374   1.555   5.295 -0.1477 -0.1944  0.4325
    7MOL0     H  881   7.538   1.506   5.309  0.1731  2.5654 -0.2166
    7MOL0     H  882   7.307   1.342   5.276  0.7018  2.7784  1.8348
    7MOL0     H  883   7.418   1.282   5.167 -5.0122 -0.8006 -0.3117
    7MOL0     H  884   7.462   1.316   5.469  2.3336  0.9063  0.5019
    7MOL0     H  885   7.579   1.249   5.347 -1.2462  0.6722 -2.4400
    7MOL0     H  886   7.351   1.180   5.642 -1.0417 -0.7183 -1.2685
    7MOL0     H  887   7.410   1.063   5.831  1.9165 -0.5227  1.1408
    7MOL0     H  888   7.313   0.741   6.066  0.6956 -3.4279  0.2993
    7MOL0     H  889   7.327   0.611   6.273 -1.1352  2.7768 -1.2495
    7MOL0     H  890   7.671   0.419   6.449 -0.6192 -0.9867 -0.0196
    7MOL0     H  891   7.656   0.470   6.298 -1.8377 -0.6475 -1.5831
    7MOL0     H  892   7.525   0.297   6.311  1.1620  2.2150 -3.4600
    7MOL0     H  893   7.406   0.417   6.313  1.6023  1.9945  0.9398
    7MOL0     H  894   7.517   0.332   6.586  1.6376 -0.8446 -1.6186
    7MOL0     H  895   7.448   0.204   6.511  1.8556 -0.6251 -1.3447
    7MOL0     H  896   7.317   0.475   6.594 -2.9076 -0.2504  0.5399
    7MOL0     H  897   7.242   0.366   6.474 -2.2433 -0.0332  2.4258
    7MOL0     H  898   7.311   0.295   6.761 -2.6986  0.0232  2.4250
    7MOL0     H  899   7.257   0.183   6.628 -3.6572 -0.1139 -0.5453
    7MOL0     H  900   7.047   0.244   6.756 -0.9994  0.9842  0.2451
    7MOL0     H  901   7.052   0.324   6.598 -2.3907 -0.2550  0.6673
    7MOL0     H  902   7.089   0.429   6.867  0.1583 -2.2426 -0.5655
    7MOL0     H  903   7.169   0.519   6.731  1.4237 -1.9883 -1.7105
    7MOL0     H  904   6.875   0.444   6.778  1.6194 -0.8845  1.2033
    7MOL0     H  905   6.947   0.513   6.622 -0.3887 -0.4755 -0.3097
    7MOL0     H  906   7.710   0.794   6.349  0.0314  2.5758 -0.3840
    7MOL0     H  907   7.689   0.932   6.158  0.2592  0.8550  1.8225
    7MOL0     H  908   7.585   0.755   5.586  0.9876  0.4182 -0.9876
    7MOL0     H  909   7.525   0.883   5.388 -2.3960 -0.0138 -1.1587
    7MOL0     H  910   8.224   1.991   4.179  1.7568  0.0260 -1.4885
    7MOL0     H  911   8.409   1.857   4.143  4.3634  3.2124  2.4262
    7MOL0     H  912   8.643   1.514   4.124  1.8442 -0.9757 -0.7735
    7MOL0     H  913   8.798   1.354   4.049  2.3841 -1.7012  0.8338
    7MOL0     H  914   9.157   1.159   4.204  0.1026 -0.1667  1.6745
    7MOL0     H  915   9.079   1.201   4.351  1.3977  0.2265  1.0158
    7MOL0     H  916   9.170   1.447   4.322 -1.0751  0.2813 -1.5182
    7MOL0     H  917   9.297   1.327   4.337  1.7551  0.7940 -0.7717
    7MOL0     H  918   9.344   1.491   4.155 -1.7792  1.9344  0.4588
    7MOL0     H  919   9.195   1.457   4.068 -0.1741  2.1225  1.8341
    7MOL0     H  920   9.381   1.230   4.115 -1.5316 -0.1930  0.3042
    7MOL0     H  921   9.279   1.257   3.982  1.3282  1.5862 -1.3068
    7MOL0     H  922   9.618   1.427   3.826  0.9692 -3.6783  1.0338
    7MOL0     H  923   8.971   1.339   4.443  1.1082  0.0050 -1.7479
    7MOL0     H  924   8.779   1.477   4.538  0.9185 -1.0459  0.2000
    8MOL0     O  925   2.926   7.768  10.487 -0.6138 -0.0433  0.9662
    8MOL0     C  926   2.978   7.782  10.594  0.2481 -0.2070  0.0285
    8MOL0     O  927   2.933   7.858  10.694 -0.3076 -0.5465  0.4627
    8MOL0     C  928   2.824   7.944  10.675 -0.2721  0.8937  0.3409
    8MOL0     C  929   2.836   8.080  10.679  0.2519 -0.1089  0.4701
    8MOL0     C  930   2.731   8.166  10.659 -0.3834  0.3482  0.5080
    8MOL0     C  931   2.608   8.118  10.628 -0.4943 -0.3617  0.7073
    8MOL0     O  932   2.515   8.214  10.577 -0.0009  1.2151 -0.1884
    8MOL0     C  933   2.379   8.184  10.607  0.3627 -0.4679  1.2580
    8MOL0     C  934   2.305   8.319  10.574 -0.4377 -0.2656 -1.1844
    8MOL0     C  935   2.156   8.314  10.586  0.2582  0.1835  0.2184
    8MOL0     C  936   2.112   8.348  10.728  0.1829 -0.5558 -0.5413
    8MOL0     C  937   1.962   8.394  10.743  0.2303  1.1366  0.0235
    8MOL0     C  938   1.873   8.267  10.750 -0.4368 -0.4665  0.0644
    8MOL0     C  939   1.715   8.307  10.741 -0.0441 -0.5890 -0.4904
    8MOL0     C  940   1.647   8.204  10.652  0.5782 -0.1507  0.4084
    8MOL0     N  941   1.508   8.240  10.630 -0.1586  0.4055 -0.5792
    8MOL0     C  942   1.404   8.156  10.669 -0.3629  0.2910  0.0499
    8MOL0     C  943   1.290   8.224  10.643  0.0861  0.6462 -0.9046
    8MOL0     C  944   1.153   8.173  10.660 -0.5770 -0.3221 -0.3424
    8MOL0     C  945   1.108   8.126  10.520  0.4822 -0.8249  0.2808
    8MOL0     C  946   1.172   7.991  10.463 -0.1901 -0.4621 -0.2501
    8MOL0     C  947   1.112   7.948  10.332 -0.1889  0.2110 -0.0320
    8MOL0     O  948   0.967   7.949  10.332 -0.0053  1.2142 -0.0692
    8MOL0     C  949   0.937   7.917  10.199 -0.3195 -0.3752 -0.5868
    8MOL0     C  950   0.913   7.787  10.149  0.6098  0.3189  0.1580
    8MOL0     C  951   0.892   7.769  10.011  0.4577 -0.5561  0.0806
    8MOL0     C  952   0.884   7.883   9.925 -0.1817  0.9774 -0.5323
    8MOL0     C  953   0.839   7.868   9.787  0.6290 -0.6792  0.1239
    8MOL0     O  954   0.752   7.765   9.757  0.3079 -0.1436  0.4936
    8MOL0     C  955   0.736   7.739   9.626 -0.3631  0.5010 -0.3002
    8MOL0     C  956   0.773   7.610   9.577  0.2016  0.0110 -0.2392
    8MOL0     C  957   0.746   7.570   9.445  0.0885  0.1451 -0.6226
    8MOL0     C  958   0.686   7.659   9.356 -0.0243 -0.2186  0.5230
    8MOL0     O  959   0.679   7.639   9.220 -0.5514 -0.3464  0.3023
    8MOL0     C  960   0.708   7.513   9.165 -1.2052 -0.0313 -0.0404
    8MOL0     C  961   0.862   7.488   9.163  0.1602 -0.5118  0.3244
    8MOL0     C  962   0.882   7.341   9.131 -1.0386  0.1499 -0.6091
    8MOL0     C  963   1.021   7.314   9.063  1.1710 -0.3428  0.5138
    8MOL0     C  964   1.069   7.166   9.082  1.5622 -0.4954  0.1509
    8MOL0     C  965   1.195   7.151   9.003  0.3660  0.7459 -1.1016
    8MOL0     C  966   1.325   7.140   9.084 -0.0783 -0.4576 -0.2895
    8MOL0     C  967   1.322   7.028   9.191 -0.1918  0.6410 -0.0872
    8MOL0    Cl  968   1.481   7.004   9.264 -0.2601 -0.1382 -0.0192
    8MOL0     C  969   0.646   7.785   9.401 -0.0937  0.8709  0.5069
    8MOL0     C  970   0.671   7.827   9.532 -0.1857  0.7240  0.3785
    8MOL0     O  971   0.899   7.933   9.709 -0.0607 -0.5796  0.2270
    8MOL0     C  972   0.903   8.010   9.980  0.3918  0.4260 -0.2714
    8MOL0     C  973   0.933   8.030  10.116  0.5314 -0.1505  0.4134
    8MOL0     N  974   1.321   8.347  10.596 -0.6558  0.1143  0.0709
    8MOL0     N  975   1.454   8.357  10.581  0.4468 -0.8666 -0.2123
    8MOL0     C  976   2.583   7.980  10.635 -0.0631 -0.5724  1.0052
    8MOL0     C  977   2.698   7.897  10.653  0.4558  0.1529 -0.7941
    8MOL0     C  978   3.116   7.720  10.618  0.2001  0.4165  0.2638
    8MOL0     C  979   3.171   7.629  10.527  0.5213 -0.4228  0.1707
    8MOL0     C  980   3.306   7.590  10.548 -0.3493 -0.6680  0.0540
    8MOL0     C  981   3.382   7.633  10.656 -0.6726 -0.9278 -0.9218
    8MOL0     O  982   3.519   7.598  10.658  0.0308  0.3894 -0.2917
    8MOL0     C  983   3.591   7.679  10.759  1.4055 -0.0013  0.0647
    8MOL0     C  984   3.739   7.647  10.765 -0.0180  0.0109 -0.3240
    8MOL0     C  985   3.814   7.729  10.648 -0.0705 -0.2061  0.1138
    8MOL0     C  986   3.878   7.642  10.547 -0.5111 -0.2834 -0.3609
    8MOL0     C  987   3.971   7.722  10.470 -0.6711 -0.8917  0.9984
    8MOL0     C  988   4.056   7.784  10.406 -0.5561  0.3717  0.0453
    8MOL0     C  989   3.313   7.699  10.755  0.5857  0.1914 -0.1345
    8MOL0     C  990   3.186   7.747  10.732 -0.4852 -0.3254 -0.2829
    8MOL0     H  991   2.931   8.128  10.699  0.6911  0.2771 -2.1738
    8MOL0     H  992   2.749   8.273  10.648  1.4949 -0.2008 -3.1173
    8MOL0     H  993   2.360   8.142  10.706  4.5738 -2.3914  1.4766
    8MOL0     H  994   2.344   8.118  10.528 -0.9284  1.1687  0.3975
    8MOL0     H  995   2.332   8.351  10.473 -2.0621  4.2197 -0.4458
    8MOL0     H  996   2.337   8.403  10.638 -0.0953  0.8105 -2.7072
    8MOL0     H  997   2.109   8.222  10.549  1.8179 -0.9289  0.8737
    8MOL0     H  998   2.120   8.393  10.520  2.3686 -0.8014 -2.2666
    8MOL0     H  999   2.124   8.264  10.796 -0.7393 -2.1421 -2.2379
    8MOL0     H 1000   2.168   8.434  10.764 -2.1859  0.6268  0.5617
    8MOL0     H 1001   1.931   8.473  10.674  0.7393  2.2079  0.9808
    8MOL0     H 1002   1.937   8.438  10.840 -1.5379  0.6391 -0.1829
    8MOL0     H 1003   1.893   8.213  10.843 -0.2050  0.3351  0.4883
    8MOL0     H 1004   1.901   8.202  10.667  2.4795  3.0901 -2.0512
    8MOL0     H 1005   1.654   8.312  10.832 -1.7111  2.1698 -1.6001
    8MOL0     H 1006   1.703   8.405  10.694 -0.8282 -0.3497  0.1921
    8MOL0     H 1007   1.658   8.103  10.692  0.0771  0.9942  3.7800
    8MOL0     H 1008   1.688   8.219  10.551 -2.9857 -2.5504 -1.6086
    8MOL0     H 1009   1.402   8.056  10.709 -0.5643  1.1087  2.2375
    8MOL0     H 1010   1.095   8.260  10.693  0.9461  0.2648  0.9162
    8MOL0     H 1011   1.154   8.089  10.731 -0.3785 -0.6964 -0.7870
    8MOL0     H 1012   1.118   8.205  10.446  0.0376 -0.2257  0.8543
    8MOL0     H 1013   0.999   8.117  10.523  0.5889 -2.3118  0.6996
    8MOL0     H 1014   1.280   8.004  10.457 -0.1062 -0.0381  1.4942
    8MOL0     H 1015   1.154   7.915  10.540  2.4066 -0.6055  0.2952
    8MOL0     H 1016   1.142   7.844  10.312  3.1709  1.0063  0.2544
    8MOL0     H 1017   1.155   8.017  10.259  3.0709  0.4488  1.9613
    8MOL0     H 1018   0.929   7.702  10.214  2.2087 -1.3003 -2.1967
    8MOL0     H 1019   0.883   7.679   9.951 -0.8142  1.1368 -2.4591
    8MOL0     H 1020   0.817   7.537   9.643 -3.0105 -0.7996  1.1637
    8MOL0     H 1021   0.761   7.468   9.410  0.0761  0.6764 -2.2434
    8MOL0     H 1022   0.670   7.521   9.063  2.6534 -1.0663 -1.7352
    8MOL0     H 1023   0.653   7.426   9.201 -1.7149  0.4976  0.4818
    8MOL0     H 1024   0.898   7.523   9.260 -0.6952  1.5638 -0.0705
    8MOL0     H 1025   0.907   7.540   9.078 -1.3070  1.0452  0.4556
    8MOL0     H 1026   0.808   7.314   9.055 -0.9899  3.2296 -1.9068
    8MOL0     H 1027   0.877   7.286   9.226  3.6176  0.9959  0.3654
    8MOL0     H 1028   1.001   7.338   8.958 -3.8165 -1.0503  1.0422
    8MOL0     H 1029   1.100   7.377   9.104  1.2337 -0.8679  1.2204
    8MOL0     H 1030   0.990   7.094   9.058  1.9027 -0.4360 -1.2402
    8MOL0     H 1031   1.092   7.150   9.187 -0.7937  2.4611  1.2497
    8MOL0     H 1032   1.212   7.247   8.954 -1.6052  1.1153 -1.1311
    8MOL0     H 1033   1.185   7.068   8.933  1.8487 -2.0416  1.7064
    8MOL0     H 1034   1.405   7.127   9.011  1.5546  1.0342  1.1535
    8MOL0     H 1035   1.346   7.227   9.147 -3.3661 -0.4728  1.0784
    8MOL0     H 1036   1.313   6.934   9.135  3.1631  1.1521 -1.7219
    8MOL0     H 1037   1.253   7.036   9.276 -0.4852  4.7877 -0.5102
    8MOL0     H 1038   0.614   7.857   9.326  0.2221  0.8686  0.3675
    8MOL0     H 1039   0.626   7.918   9.571 -3.2044 -0.6139  0.2709
    8MOL0     H 1040   0.908   8.101   9.921 -2.4985 -0.2732 -1.8179
    8MOL0     H 1041   0.950   8.132  10.148 -3.2182  1.8948 -3.2044
    8MOL0     H 1042   2.490   7.930  10.612  0.3676 -1.9853  2.1602
    8MOL0     H 1043   2.680   7.791  10.643 -5.4183  0.9326 -2.0514
    8MOL0     H 1044   3.119   7.596  10.437  5.3890 -0.5067 -2.9628
    8MOL0     H 1045   3.349   7.525  10.472  2.2284 -2.3570  2.7653
    8MOL0     H 1046   3.551   7.659  10.859  0.3496 -0.7672 -0.4920
    8MOL0     H 1047   3.579   7.785  10.736  2.4384  0.2999  0.8463
    8MOL0     H 1048   3.783   7.687  10.857 -0.4202  1.2199 -0.6366
    8MOL0     H 1049   3.759   7.540  10.769  0.6978  0.1684  0.8612
    8MOL0     H 1050   3.881   7.797  10.702  3.9882 -2.7201 -1.2607
    8MOL0     H 1051   3.743   7.797  10.601 -0.9657 -0.3483  1.2001
    8MOL0     H 1052   3.923   7.556  10.596 -1.6905 -1.2019 -0.8443
    8MOL0     H 1053   3.800   7.600  10.483 -4.3689 -0.1538  3.7329
    8MOL0     H 1054   4.132   7.843  10.360 -0.6124 -0.0858 -0.6476
    8MOL0     H 1055   3.354   7.716  10.854  1.0614 -0.6528 -0.1732
    8MOL0     H 1056   3.148   7.796  10.821  1.6181  2.8527 -0.9377
    9MOL0     O 1057   7.035   0.711   8.155  0.5227 -0.4568 -0.3141
    9MOL0     C 1058   7.155   0.731   8.135  0.5200 -0.6342 -0.0602
    9MOL0     O 1059   7.212   0.843   8.069 -0.2935 -0.4430 -0.5871
    9MOL0     C 1060   7.157   0.964   8.059  0.1365 -0.1143  0.7767
    9MOL0     C 1061   7.237   1.056   7.995  0.1695  1.1924  0.3074
    9MOL0     C 1062   7.200   1.184   7.987  0.1946  0.2199 -0.0606
    9MOL0     C 1063   7.065   1.227   8.012  0.3084 -0.4417 -0.2386
    9MOL0     O 1064   7.022   1.353   7.980  0.3011  0.2141  1.0665
    9MOL0     C 1065   7.122   1.449   7.969 -0.1178 -0.1492 -0.4491
    9MOL0     C 1066   7.039   1.579   7.954  0.2483  0.8675  0.3891
    9MOL0     C 1067   7.117   1.708   7.924  0.4695  0.0273 -0.3071
    9MOL0     C 1068   7.180   1.775   8.047 -0.5210 -1.2078  0.4653
    9MOL0     C 1069   7.081   1.825   8.144 -0.0432 -0.1601  0.6260
    9MOL0     C 1070   7.138   1.907   8.258  0.1296 -0.2576 -0.3482
    9MOL0     C 1071   7.205   2.044   8.224 -0.8722 -0.1305 -0.0312
    9MOL0     C 1072   7.114   2.154   8.173 -0.1770  0.7573  0.8742
    9MOL0     N 1073   7.038   2.137   8.054 -0.5002  0.1211  0.0739
    9MOL0     C 1074   7.102   2.136   7.931  0.9258  1.4709 -1.0783
    9MOL0     C 1075   7.002   2.150   7.845 -0.2773  1.4360 -0.5804
    9MOL0     C 1076   7.011   2.130   7.695 -0.0231 -0.5369 -0.9629
    9MOL0     C 1077   7.091   2.238   7.630  0.2411 -0.7599  0.1961
    9MOL0     C 1078   7.051   2.237   7.481  0.3124 -0.6007  0.2757
    9MOL0     C 1079   7.121   2.350   7.395 -0.1283 -0.4815 -0.4623
    9MOL0     O 1080   7.272   2.326   7.410  0.4350  0.9698  0.1404
    9MOL0     C 1081   7.358   2.415   7.351  0.5921 -0.5928 -0.0025
    9MOL0     C 1082   7.325   2.558   7.333 -0.1886  0.9338  0.0350
    9MOL0     C 1083   7.412   2.657   7.276  0.9436 -0.7488 -0.2360
    9MOL0     C 1084   7.540   2.613   7.237  0.0428  0.7550  0.2131
    9MOL0     C 1085   7.640   2.704   7.175 -0.7750  1.7348 -0.0597
    9MOL0     O 1086   7.748   2.647   7.115  0.3193  0.4687 -0.5679
    9MOL0     C 1087   7.856   2.719   7.058  0.5050 -0.2277  0.6643
    9MOL0     C 1088   7.866   2.861   7.037 -0.7725  0.7582  0.6281
    9MOL0     C 1089   7.979   2.902   6.963  1.0667  0.3146  0.1409
    9MOL0     C 1090   8.069   2.822   6.899 -0.5834  0.1616  0.0805
    9MOL0     O 1091   8.172   2.886   6.826  0.0419  0.1530 -0.3547
    9MOL0     C 1092   8.214   2.813   6.707  0.2256  0.1023  0.1665
    9MOL0     C 1093   8.285   2.910   6.615  0.3703  0.4540 -1.2291
    9MOL0     C 1094   8.390   2.994   6.686  0.0605  0.5438 -0.1104
    9MOL0     C 1095   8.520   2.932   6.738  0.1501  0.5571  0.4328
    9MOL0     C 1096   8.581   3.027   6.840 -0.8081  0.3696 -0.0631
    9MOL0     C 1097   8.727   2.996   6.876 -0.9136  0.3296 -0.4654
    9MOL0     C 1098   8.789   3.068   6.997  0.3299  0.4820  0.5587
    9MOL0     C 1099   8.778   2.982   7.120  0.2313  0.2968  0.3099
    9MOL0    Cl 1100   8.832   3.059   7.270  0.3247 -0.1844  0.3041
    9MOL0     C 1101   8.055   2.688   6.915  0.2542 -1.8038  0.1021
    9MOL0     C 1102   7.955   2.638   7.001 -0.4772  0.7040  0.6059
    9MOL0     O 1103   7.609   2.819   7.160  0.1868 -1.0892  0.4642
    9MOL0     C 1104   7.575   2.480   7.251  0.7435 -0.2886  0.8195
    9MOL0     C 1105   7.488   2.382   7.305 -0.6351  0.5363  0.1844
    9MOL0     N 1106   6.887   2.172   7.914 -0.4466 -0.2882  0.3999
    9MOL0     N 1107   6.902   2.165   8.041  0.4229 -0.1743  1.1722
    9MOL0     C 1108   6.976   1.135   8.070 -0.0674  0.2638 -0.3381
    9MOL0     C 1109   7.027   1.007   8.088  0.2159  0.2323 -1.2910
    9MOL0     C 1110   7.240   0.622   8.191 -0.3607 -0.2304 -0.3336
    9MOL0     C 1111   7.382   0.620   8.166 -0.7462 -0.1002 -0.5709
    9MOL0     C 1112   7.464   0.530   8.220  0.3976  1.2560  0.0534
    9MOL0     C 1113   7.406   0.426   8.298 -0.8504  0.4375 -1.0271
    9MOL0     O 1114   7.480   0.330   8.371  0.0745 -0.1990 -0.4542
    9MOL0     C 1115   7.622   0.329   8.366 -0.7195  0.8376 -0.6181
    9MOL0     C 1116   7.681   0.420   8.472 -0.8084 -0.0314 -0.7599
    9MOL0     C 1117   7.832   0.393   8.528  0.3718 -0.0587  0.8651
    9MOL0     C 1118   7.879   0.499   8.629  0.1390  0.0425 -0.1638
    9MOL0     C 1119   8.001   0.462   8.694 -0.4018  0.4455 -1.3483
    9MOL0     C 1120   8.111   0.439   8.755 -0.0049 -0.2929  0.4889
    9MOL0     C 1121   7.264   0.415   8.304 -0.3158  0.7822  0.6561
    9MOL0     C 1122   7.190   0.520   8.265  0.4269  1.4310  0.3489
    9MOL0     H 1123   7.331   1.025   7.950 -0.2167 -0.2918  0.4489
    9MOL0     H 1124   7.268   1.252   7.936 -0.1834 -0.4027 -1.4357
    9MOL0     H 1125   7.180   1.434   7.877  2.6665  4.1899  0.2958
    9MOL0     H 1126   7.188   1.452   8.056 -1.0157  3.6647  0.3126
    9MOL0     H 1127   6.966   1.583   8.036 -0.9400  3.7450 -0.6821
    9MOL0     H 1128   6.968   1.567   7.871 -1.5270  0.5378  1.8880
    9MOL0     H 1129   7.050   1.782   7.881 -0.3501 -0.1737  0.5895
    9MOL0     H 1130   7.195   1.673   7.855 -0.1982  0.4662 -1.3025
    9MOL0     H 1131   7.246   1.709   8.103  1.2739 -0.6474 -0.8896
    9MOL0     H 1132   7.237   1.854   7.997  0.2253 -2.1441 -0.2075
    9MOL0     H 1133   7.033   1.733   8.181  1.5976 -1.1702  0.3408
    9MOL0     H 1134   7.002   1.877   8.088 -1.9052 -1.9748  1.4219
    9MOL0     H 1135   7.223   1.856   8.304  0.0628  1.4665  1.8910
    9MOL0     H 1136   7.053   1.921   8.326  0.8717 -0.8395  0.7276
    9MOL0     H 1137   7.241   2.078   8.322  0.0662 -4.0940  1.2033
    9MOL0     H 1138   7.295   2.038   8.163 -0.7603 -1.6386  0.2472
    9MOL0     H 1139   7.178   2.238   8.145  1.4069 -1.7367 -4.3382
    9MOL0     H 1140   7.037   2.193   8.241  1.2285  1.6999  2.0065
    9MOL0     H 1141   7.207   2.116   7.913  0.3956  0.4093 -3.2452
    9MOL0     H 1142   6.904   2.129   7.672 -0.1934 -1.7445 -0.2079
    9MOL0     H 1143   7.062   2.034   7.683  2.0616  0.2894  0.6122
    9MOL0     H 1144   7.197   2.214   7.635  0.7876  0.9545 -2.0450
    9MOL0     H 1145   7.071   2.330   7.686 -1.7613 -2.1090  1.8798
    9MOL0     H 1146   7.078   2.139   7.441  0.5529  0.5090 -2.4481
    9MOL0     H 1147   6.945   2.264   7.472  1.0837  3.4459  1.3883
    9MOL0     H 1148   7.094   2.454   7.413  3.7739  0.8513 -1.3026
    9MOL0     H 1149   7.108   2.331   7.288  1.1186  0.0107 -0.7123
    9MOL0     H 1150   7.228   2.596   7.363 -1.0192 -0.2529 -1.0106
    9MOL0     H 1151   7.397   2.765   7.275  0.5849 -0.7935 -0.1184
    9MOL0     H 1152   7.796   2.938   7.067 -1.8638 -0.3522  1.0552
    9MOL0     H 1153   7.995   3.010   6.960  0.4058  0.4350  0.6508
    9MOL0     H 1154   8.126   2.788   6.647 -0.3065  3.0305 -0.4085
    9MOL0     H 1155   8.278   2.729   6.733  2.0998  0.9947 -1.3536
    9MOL0     H 1156   8.209   2.972   6.567 -0.3876  1.9918  1.7097
    9MOL0     H 1157   8.342   2.856   6.539  1.0479 -0.3918 -0.1572
    9MOL0     H 1158   8.338   3.045   6.767  0.6509  0.7004  0.1758
    9MOL0     H 1159   8.421   3.073   6.617  0.9089 -1.4575 -2.1604
    9MOL0     H 1160   8.501   2.837   6.790  0.7532  0.6692  0.8690
    9MOL0     H 1161   8.595   2.926   6.659  0.5621  2.5592  0.6218
    9MOL0     H 1162   8.515   3.040   6.926  2.5685 -1.7442  3.1471
    9MOL0     H 1163   8.605   3.127   6.803  0.5268  1.1545  2.6707
    9MOL0     H 1164   8.782   3.020   6.784 -0.8823  2.7968  0.1138
    9MOL0     H 1165   8.754   2.891   6.889  0.2252  0.2379 -2.8847
    9MOL0     H 1166   8.895   3.071   6.971  0.4613 -0.7500  0.8989
    9MOL0     H 1167   8.748   3.166   7.023  0.7802  0.7024  0.4440
    9MOL0     H 1168   8.829   2.887   7.102 -0.4003 -0.0224  0.2118
    9MOL0     H 1169   8.675   2.950   7.136  0.4807  0.3354  2.1883
    9MOL0     H 1170   8.128   2.625   6.866  0.9377 -1.5143  0.7403
    9MOL0     H 1171   7.943   2.534   7.030 -1.8014  0.7242  0.1986
    9MOL0     H 1172   7.669   2.439   7.216 -0.3485 -1.3526 -1.0412
    9MOL0     H 1173   7.503   2.275   7.312 -3.9665  0.0715  3.0866
    9MOL0     H 1174   6.871   1.151   8.093 -0.0425  1.5842 -1.0443
    9MOL0     H 1175   6.977   0.928   8.142  1.1997  0.1336 -0.4711
    9MOL0     H 1176   7.409   0.700   8.098  0.9948  2.5033  2.8770
    9MOL0     H 1177   7.572   0.539   8.219  0.4783  0.5860  1.1255
    9MOL0     H 1178   7.659   0.360   8.268 -1.8942  1.2225 -0.9626
    9MOL0     H 1179   7.646   0.223   8.371 -5.3254 -0.4242 -0.4593
    9MOL0     H 1180   7.670   0.525   8.444 -0.3340  1.2200  3.1431
    9MOL0     H 1181   7.616   0.407   8.559 -0.7269  3.1207 -0.1172
    9MOL0     H 1182   7.904   0.383   8.447  0.1749 -2.3799  0.8863
    9MOL0     H 1183   7.820   0.293   8.573 -4.4337 -0.8346 -1.4264
    9MOL0     H 1184   7.910   0.597   8.593  2.3797 -0.7063 -0.4600
    9MOL0     H 1185   7.793   0.522   8.691  0.6588  0.0052  0.5788
    9MOL0     H 1186   8.195   0.428   8.820  1.1285 -5.4757 -1.3800
    9MOL0     H 1187   7.213   0.349   8.374  1.6118 -2.6000 -0.8556
    9MOL0     H 1188   7.084   0.512   8.289 -0.3134  0.5261 -2.6952
   10MOL0     O 1189  10.255   3.868   9.082 -0.3377  0.9866 -0.3786
   10MOL0     C 1190  10.305   3.793   9.170  0.4745  0.7669  0.3147
   10MOL0     O 1191  10.439   3.752   9.181  0.5264 -0.0439  0.6996
   10MOL0     C 1192  10.549   3.775   9.094  0.2177 -1.7354  1.1800
   10MOL0     C 1193  10.678   3.740   9.132  0.6662  0.2644  1.4647
   10MOL0     C 1194  10.788   3.771   9.054  0.0750  0.4092 -0.6661
   10MOL0     C 1195  10.768   3.847   8.938  0.9243 -0.2385  0.0537
   10MOL0     O 1196  10.870   3.877   8.857 -0.7234 -0.0551  0.1268
   10MOL0     C 1197  10.952   3.772   8.806  1.2606  0.2892  0.0156
   10MOL0     C 1198  11.068   3.829   8.720 -0.1769  0.1963  0.7181
   10MOL0     C 1199  11.157   3.934   8.802  0.3679  0.5399 -0.3090
   10MOL0     C 1200  11.221   3.876   8.930  0.7853 -0.0367  0.1840
   10MOL0     C 1201  11.301   3.984   9.002 -0.1512  0.1845 -0.5793
   10MOL0     C 1202  11.227   4.104   9.057 -0.3547  0.2345  0.3020
   10MOL0     C 1203  11.092   4.075   9.136 -0.1118  0.6624  0.4643
   10MOL0     C 1204  11.105   3.998   9.267  0.4135  0.4884  0.6063
   10MOL0     N 1205  10.985   3.933   9.322  0.4098 -0.6175 -0.1729
   10MOL0     C 1206  10.862   3.994   9.312 -0.3990  0.1659 -0.4514
   10MOL0     C 1207  10.783   3.914   9.381 -0.4603 -0.1731  1.0937
   10MOL0     C 1208  10.639   3.919   9.408 -1.2485 -0.3995 -0.2827
   10MOL0     C 1209  10.616   3.984   9.542 -1.1412  0.2471 -0.2808
   10MOL0     C 1210  10.468   4.034   9.551 -0.5372 -1.1486 -0.1799
   10MOL0     C 1211  10.381   3.946   9.639  0.2367  0.0528  0.3072
   10MOL0     O 1212  10.430   3.910   9.770 -0.1659  0.1104 -0.0046
   10MOL0     C 1213  10.425   3.996   9.876  0.1892 -1.0618 -1.1303
   10MOL0     C 1214  10.331   4.102   9.891  0.7913 -0.0486  0.9480
   10MOL0     C 1215  10.329   4.172  10.010  0.0305 -0.3016  0.7106
   10MOL0     C 1216  10.410   4.150  10.119 -0.2661 -1.3270  0.2615
   10MOL0     C 1217  10.392   4.227  10.253  0.3648  0.6275  0.4014
   10MOL0     O 1218  10.506   4.235  10.330  0.4320  0.7806  0.7176
   10MOL0     C 1219  10.515   4.318  10.438  0.1228  0.3947  0.9703
   10MOL0     C 1220  10.593   4.273  10.545 -0.3142 -0.7599 -0.1306
   10MOL0     C 1221  10.623   4.360  10.650  0.1780  0.6211 -0.0707
   10MOL0     C 1222  10.564   4.489  10.667 -0.4632  0.0355  0.6906
   10MOL0     O 1223  10.610   4.561  10.776 -0.1540 -0.2025  0.6037
   10MOL0     C 1224  10.539   4.680  10.810  0.3371 -0.8488  0.5638
   10MOL0     C 1225  10.624   4.799  10.771  0.7435 -0.0726  0.3886
   10MOL0     C 1226  10.583   4.947  10.819 -0.5020  0.2174 -0.0264
   10MOL0     C 1227  10.583   4.952  10.972  0.0192  0.2892 -0.7812
   10MOL0     C 1228  10.574   5.095  11.031 -1.0610 -0.9798 -0.3583
   10MOL0     C 1229  10.440   5.169  11.017 -0.3150  0.1804 -0.2836
   10MOL0     C 1230  10.335   5.105  11.112  0.3305  0.8517 -0.9062
   10MOL0     C 1231  10.295   5.186  11.237  0.3255 -0.0205 -0.6067
   10MOL0    Cl 1232  10.270   5.363  11.216 -0.2772 -0.0634 -0.3671
   10MOL0     C 1233  10.484   4.531  10.552  0.3342 -0.6737  0.3610
   10MOL0     C 1234  10.454   4.447  10.449 -0.1461 -0.3037  0.5871
   10MOL0     O 1235  10.282   4.270  10.275  0.1158  0.3813  0.6187
   10MOL0     C 1236  10.503   4.053  10.104  0.1617  0.3923  1.0905
   10MOL0     C 1237  10.517   3.979   9.977 -0.6862  0.4385 -0.1436
   10MOL0     N 1238  10.858   3.811   9.431 -1.1232  0.2585  0.3204
   10MOL0     N 1239  10.977   3.835   9.408 -0.6041  0.1521  1.0835
   10MOL0     C 1240  10.637   3.868   8.886  0.1956  0.1360 -1.2714
   10MOL0     C 1241  10.529   3.843   8.971  1.2825  0.6305 -0.1988
   10MOL0     C 1242  10.227   3.771   9.293  0.7766  0.4726  1.0243
   10MOL0     C 1243  10.119   3.848   9.316 -0.1490  0.9398  0.1568
   10MOL0     C 1244  10.045   3.821   9.432 -0.0567  0.1120 -0.4649
   10MOL0     C 1245  10.079   3.714   9.518 -0.0928  0.7614 -0.0805
   10MOL0     O 1246  10.000   3.683   9.626 -0.2694 -0.3571  0.0021
   10MOL0     C 1247  10.046   3.601   9.729 -0.3240 -1.6540  0.9322
   10MOL0     C 1248  10.156   3.656   9.820 -0.5543  0.6063 -0.3410
   10MOL0     C 1249  10.125   3.782   9.905  0.7735 -0.6113  0.4846
   10MOL0     C 1250  10.016   3.745  10.003 -0.2095  1.0458 -0.6812
   10MOL0     C 1251  10.055   3.635  10.101  1.2834 -0.4591 -0.7374
   10MOL0     C 1252  10.083   3.560  10.193 -0.5471 -0.1530 -0.0874
   10MOL0     C 1253  10.193   3.644   9.490 -0.3157  0.2421  0.3937
   10MOL0     C 1254  10.258   3.666   9.373  0.2388  0.5330 -0.2977
   10MOL0     H 1255  10.693   3.686   9.225  1.8361  2.0745  2.3772
   10MOL0     H 1256  10.881   3.723   9.083 -1.0365 -1.3161  0.2263
   10MOL0     H 1257  10.888   3.704   8.749 -1.9172 -1.1223  4.7388
   10MOL0     H 1258  10.995   3.708   8.884  0.2785 -2.3981 -1.4982
   10MOL0     H 1259  11.025   3.860   8.625 -1.3404  2.5258  1.9229
   10MOL0     H 1260  11.137   3.748   8.694  1.4257  0.8915  2.5406
   10MOL0     H 1261  11.088   4.015   8.826 -0.0993 -0.5877  2.5878
   10MOL0     H 1262  11.236   3.981   8.744 -0.1585  1.6517 -0.1601
   10MOL0     H 1263  11.142   3.840   8.997  1.5253 -4.6581 -1.0249
   10MOL0     H 1264  11.279   3.786   8.905 -0.3420 -2.2812  4.5528
   10MOL0     H 1265  11.365   4.028   8.925 -0.3768 -3.2728 -3.0162
   10MOL0     H 1266  11.364   3.942   9.081  0.5477  1.5795 -0.3567
   10MOL0     H 1267  11.203   4.162   8.967  0.3014  1.4809  0.8998
   10MOL0     H 1268  11.289   4.162   9.126 -1.2242  1.2220  0.2773
   10MOL0     H 1269  11.037   4.166   9.162 -3.7044 -1.5179  1.1980
   10MOL0     H 1270  11.025   4.024   9.066 -1.1581  3.1225 -0.4541
   10MOL0     H 1271  11.138   4.069   9.343  1.2293 -0.8160  1.5094
   10MOL0     H 1272  11.184   3.922   9.266  0.0286  0.0942  0.3580
   10MOL0     H 1273  10.827   4.086   9.267 -5.2755 -0.7898  0.8006
   10MOL0     H 1274  10.606   3.815   9.414 -1.1789 -0.3514  4.4204
   10MOL0     H 1275  10.583   3.964   9.325  1.5169 -0.1201 -2.1365
   10MOL0     H 1276  10.677   4.075   9.547 -1.1213  0.2639 -0.8415
   10MOL0     H 1277  10.640   3.914   9.623 -1.0425  1.5859  0.8897
   10MOL0     H 1278  10.474   4.128   9.607 -1.3114 -0.8972 -0.5216
   10MOL0     H 1279  10.433   4.061   9.452 -1.2728  0.4424  0.4904
   10MOL0     H 1280  10.376   3.849   9.589 -5.0629 -2.1544  4.1295
   10MOL0     H 1281  10.277   3.981   9.646 -0.3968 -1.3743 -1.3835
   10MOL0     H 1282  10.265   4.133   9.811  1.5388 -1.5883 -0.2943
   10MOL0     H 1283  10.261   4.253  10.033  1.0342  0.7431  0.1191
   10MOL0     H 1284  10.643   4.177  10.537  0.5860 -0.2707 -0.6765
   10MOL0     H 1285  10.687   4.320  10.728 -0.6707  0.7390  0.6995
   10MOL0     H 1286  10.529   4.674  10.919  4.0435  1.4848  1.2110
   10MOL0     H 1287  10.443   4.696  10.762  1.0844  2.1985 -0.0842
   10MOL0     H 1288  10.628   4.808  10.663 -1.9290  0.1219  0.2449
   10MOL0     H 1289  10.721   4.771  10.812  1.3839  1.4732  0.0034
   10MOL0     H 1290  10.490   4.979  10.771 -0.5297 -1.4624 -1.1817
   10MOL0     H 1291  10.650   5.025  10.782 -0.4853 -0.1767 -0.8497
   10MOL0     H 1292  10.495   4.896  11.004 -0.3626  1.6800  0.7500
   10MOL0     H 1293  10.667   4.908  11.028 -0.8438 -0.2160  0.1412
   10MOL0     H 1294  10.644   5.162  10.979 -1.7274  1.0608  1.2577
   10MOL0     H 1295  10.596   5.102  11.138 -3.0740  4.6061  0.0122
   10MOL0     H 1296  10.402   5.178  10.914  3.5842  4.2093 -1.6777
   10MOL0     H 1297  10.458   5.271  11.053 -1.5263 -0.0950  1.1857
   10MOL0     H 1298  10.247   5.077  11.054  1.3102 -1.3575 -1.4296
   10MOL0     H 1299  10.366   5.007  11.148 -0.6974  0.9513  0.3447
   10MOL0     H 1300  10.355   5.182  11.328 -2.5795 -2.8894  1.3941
   10MOL0     H 1301  10.199   5.147  11.272 -2.2943  0.1292 -6.3908
   10MOL0     H 1302  10.454   4.636  10.553 -0.1736 -0.7770 -0.8994
   10MOL0     H 1303  10.399   4.482  10.363  0.4249  0.4264  0.5106
   10MOL0     H 1304  10.582   4.046  10.178  1.2080  0.3056 -0.0038
   10MOL0     H 1305  10.600   3.910   9.965 -0.1893  0.9932  0.0438
   10MOL0     H 1306  10.611   3.910   8.789  0.8205 -2.3122 -2.5584
   10MOL0     H 1307  10.434   3.867   8.925 -0.0192 -0.0224  1.9770
   10MOL0     H 1308  10.088   3.930   9.252 -0.4598  0.6523 -0.0716
   10MOL0     H 1309   9.947   3.868   9.435 -2.0018 -3.2119 -3.6249
   10MOL0     H 1310  10.083   3.503   9.696  1.2236  0.3943 -4.7649
   10MOL0     H 1311   9.963   3.587   9.798 -1.0269 -0.0568  0.4644
   10MOL0     H 1312  10.193   3.569   9.876 -0.2207  0.6989 -0.4111
   10MOL0     H 1313  10.252   3.670   9.770  0.5484  1.8618  1.9340
   10MOL0     H 1314  10.094   3.865   9.841  1.7316 -0.2008  0.5388
   10MOL0     H 1315  10.216   3.814   9.956  2.7594  0.1398 -3.1210
   10MOL0     H 1316  10.004   3.837  10.061  0.1049  2.9433 -3.4335
   10MOL0     H 1317   9.925   3.737   9.943 -0.5568  0.6515 -0.1131
   10MOL0     H 1318  10.112   3.504  10.280  1.3945 -0.1786 -0.7119
   10MOL0     H 1319  10.239   3.570   9.555  1.3642 -0.2186 -1.2210
   10MOL0     H 1320  10.345   3.601   9.362  1.0993  1.3243  1.4542
   11MOL0     O 1321  10.468   2.113   9.047  0.0635  0.1097  0.1487
   11MOL0     C 1322  10.579   2.065   9.019 -0.8545 -0.9565  0.7474
   11MOL0     O 1323  10.620   1.939   9.022 -0.0216  0.4846 -0.5342
   11MOL0     C 1324  10.522   1.839   9.013 -0.4403  0.0742  0.4547
   11MOL0     C 1325  10.442   1.817   9.121  0.4172  0.0891 -0.5703
   11MOL0     C 1326  10.353   1.705   9.123  0.2990  1.3211  0.4339
   11MOL0     C 1327  10.335   1.623   9.010  0.6047  0.5975 -1.1913
   11MOL0     O 1328  10.242   1.518   8.999  0.0505 -0.7271  1.0957
   11MOL0     C 1329  10.136   1.505   9.103 -0.5481 -0.2366 -0.0623
   11MOL0     C 1330  10.054   1.390   9.050  0.9514  0.0014 -0.7624
   11MOL0     C 1331   9.911   1.404   9.098  0.0039  0.2450 -0.5888
   11MOL0     C 1332   9.833   1.274   9.074  0.2858 -0.1654 -1.3371
   11MOL0     C 1333   9.685   1.296   9.039  0.0674 -0.3001 -0.6736
   11MOL0     C 1334   9.602   1.378   9.144 -1.3180  0.7296  0.2439
   11MOL0     C 1335   9.564   1.287   9.261  0.0258 -0.8336  0.5327
   11MOL0     C 1336   9.442   1.356   9.333 -0.3707 -0.2866  0.6612
   11MOL0     N 1337   9.364   1.291   9.439 -0.3228  0.0167  0.5732
   11MOL0     C 1338   9.230   1.261   9.434  0.3084  0.1602 -0.7771
   11MOL0     C 1339   9.204   1.194   9.549  0.2659  0.2946  0.2218
   11MOL0     C 1340   9.062   1.154   9.604  0.2248 -0.6351 -0.7794
   11MOL0     C 1341   9.034   1.187   9.751  1.1404 -0.2102 -0.4140
   11MOL0     C 1342   8.930   1.098   9.814 -0.6665 -0.0912 -0.2382
   11MOL0     C 1343   8.904   1.134   9.962 -0.0895 -0.4711 -0.1888
   11MOL0     O 1344   8.782   1.071  10.005 -1.2810  0.8970 -0.4145
   11MOL0     C 1345   8.796   0.932  10.032  0.6795 -0.5839  0.3550
   11MOL0     C 1346   8.677   0.865  10.020 -0.1085 -0.7025  1.0507
   11MOL0     C 1347   8.677   0.726  10.029  0.3445  1.0897  0.1499
   11MOL0     C 1348   8.799   0.653  10.057 -0.0061 -0.1136 -1.7842
   11MOL0     C 1349   8.807   0.503  10.065 -0.7428 -0.5646 -0.0742
   11MOL0     O 1350   8.904   0.446  10.141 -0.5246 -0.2063 -0.0825
   11MOL0     C 1351   8.937   0.311  10.142 -0.1180 -0.8199  0.4742
   11MOL0     C 1352   9.065   0.272  10.126  0.1307 -1.1406 -0.4320
   11MOL0     C 1353   9.097   0.138  10.117  0.9443  0.4622  0.9980
   11MOL0     C 1354   8.999   0.042  10.136 -0.3801 -0.2721  0.6116
   11MOL0     O 1355   9.041  -0.091  10.138  0.1130 -0.5191 -0.8345
   11MOL0     C 1356   9.026  -0.147  10.269  0.2327 -0.5244 -0.2584
   11MOL0     C 1357   8.957  -0.282  10.262  0.9870  1.0697 -0.4148
   11MOL0     C 1358   9.047  -0.385  10.197 -0.5727  0.1770 -0.0821
   11MOL0     C 1359   9.038  -0.532  10.249 -0.3462 -0.2401 -0.4418
   11MOL0     C 1360   9.156  -0.614  10.197  0.5755 -0.6281 -0.5317
   11MOL0     C 1361   9.142  -0.765  10.187  0.0392 -0.4534 -0.9956
   11MOL0     C 1362   9.284  -0.819  10.157 -1.1821  0.4215  1.0466
   11MOL0     C 1363   9.303  -0.975  10.163  0.1261 -0.1098 -0.2038
   11MOL0    Cl 1364   9.313  -1.011  10.334 -0.2354 -0.8843  0.4487
   11MOL0     C 1365   8.866   0.086  10.155 -0.7757  0.1249 -0.5709
   11MOL0     C 1366   8.833   0.218  10.157 -0.5099 -0.1688 -0.0604
   11MOL0     O 1367   8.725   0.446   9.999  0.2541  0.2875  0.6837
   11MOL0     C 1368   8.912   0.731  10.078  0.1664  0.2303  0.1354
   11MOL0     C 1369   8.912   0.863  10.062 -0.0965 -0.4726  0.8138
   11MOL0     N 1370   9.327   1.155   9.598  0.1897 -0.1837  0.0823
   11MOL0     N 1371   9.428   1.226   9.544 -0.4305  0.6605  0.2588
   11MOL0     C 1372  10.408   1.662   8.894  0.8179  0.3415 -0.3391
   11MOL0     C 1373  10.501   1.772   8.893 -0.3490  1.0382  0.0127
   11MOL0     C 1374  10.698   2.157   9.021  1.3051  0.6500  0.2361
   11MOL0     C 1375  10.834   2.115   9.043 -0.1595 -0.0357 -1.2276
   11MOL0     C 1376  10.944   2.207   9.052  1.4666  0.4045 -0.7676
   11MOL0     C 1377  10.917   2.343   9.040  0.0849  1.2206  0.4620
   11MOL0     O 1378  11.030   2.421   9.037 -0.8126  0.0698  0.2736
   11MOL0     C 1379  10.997   2.560   9.062 -0.7480  0.3622 -0.5117
   11MOL0     C 1380  11.129   2.636   9.075  0.5585  0.5025 -0.1843
   11MOL0     C 1381  11.226   2.647   8.955  0.0062  0.3432  0.8281
   11MOL0     C 1382  11.343   2.554   8.975 -0.3907  0.7614  0.7541
   11MOL0     C 1383  11.442   2.547   8.862 -0.6382  0.0665  1.0271
   11MOL0     C 1384  11.511   2.545   8.760 -0.6013  0.6050 -0.9786
   11MOL0     C 1385  10.779   2.382   9.039  0.4188 -0.6746  0.3964
   11MOL0     C 1386  10.670   2.296   9.015 -0.1408 -0.9194 -0.3963
   11MOL0     H 1387  10.458   1.876   9.210 -2.3647  2.3219 -1.4013
   11MOL0     H 1388  10.301   1.689   9.217  0.3780  6.5510  1.6683
   11MOL0     H 1389  10.080   1.597   9.121 -1.0594 -1.0619  3.1194
   11MOL0     H 1390  10.170   1.458   9.196 -0.8531 -3.8815 -1.6251
   11MOL0     H 1391  10.096   1.298   9.093 -1.7631 -0.5117  1.0272
   11MOL0     H 1392  10.061   1.390   8.940  1.4999  0.3848 -0.7296
   11MOL0     H 1393   9.872   1.484   9.035 -2.3432 -0.8129 -0.5952
   11MOL0     H 1394   9.894   1.424   9.204  1.5061  0.6145 -0.3899
   11MOL0     H 1395   9.875   1.217   8.991 -2.0288 -2.3161 -1.1513
   11MOL0     H 1396   9.849   1.205   9.157 -0.3607  0.6212 -0.5261
   11MOL0     H 1397   9.640   1.197   9.030  0.2187 -0.4124 -0.1899
   11MOL0     H 1398   9.683   1.354   8.946  1.4330 -0.1707 -0.6407
   11MOL0     H 1399   9.511   1.408   9.092 -0.2907 -1.9239 -3.4799
   11MOL0     H 1400   9.647   1.471   9.180 -0.7450  0.2602  0.7669
   11MOL0     H 1401   9.532   1.189   9.225 -0.2331 -0.5529 -0.0138
   11MOL0     H 1402   9.645   1.281   9.334 -0.0140  0.1802  0.6755
   11MOL0     H 1403   9.372   1.388   9.256 -0.0602 -2.2960 -0.5113
   11MOL0     H 1404   9.476   1.447   9.383 -1.7961 -0.4992  2.1019
   11MOL0     H 1405   9.166   1.302   9.356  0.2247  1.7460  0.0763
   11MOL0     H 1406   9.049   1.046   9.592 -2.2957 -0.4351 -0.4531
   11MOL0     H 1407   8.984   1.201   9.544  1.5074 -2.3289 -4.0067
   11MOL0     H 1408   8.993   1.288   9.748  1.6710 -0.0057 -1.8908
   11MOL0     H 1409   9.128   1.182   9.806  0.5883 -1.5765  0.4501
   11MOL0     H 1410   8.832   1.094   9.766 -2.8207 -0.1114  3.7753
   11MOL0     H 1411   8.982   1.002   9.819  0.9290  0.5363 -2.8436
   11MOL0     H 1412   8.898   1.242   9.972  2.9148 -0.3406  1.8103
   11MOL0     H 1413   8.983   1.110  10.035 -2.1889  0.5264  2.6100
   11MOL0     H 1414   8.580   0.914  10.021  0.2090 -0.0413  2.2838
   11MOL0     H 1415   8.586   0.668  10.013 -0.1160  1.9108 -0.2202
   11MOL0     H 1416   9.151   0.338  10.133 -0.2575 -0.7909  1.5019
   11MOL0     H 1417   9.199   0.102  10.129  2.3762  3.1177 -1.9748
   11MOL0     H 1418   8.977  -0.066  10.324  1.9577  1.0218 -0.8921
   11MOL0     H 1419   9.126  -0.167  10.309  0.5565  0.1798 -0.7045
   11MOL0     H 1420   8.864  -0.277  10.205  0.5194  3.4020  0.4662
   11MOL0     H 1421   8.930  -0.324  10.360 -0.2822  1.1484 -0.7126
   11MOL0     H 1422   9.154  -0.366  10.210 -0.4472 -1.4970  2.0396
   11MOL0     H 1423   9.031  -0.394  10.090  2.1292 -1.2971 -0.4641
   11MOL0     H 1424   9.037  -0.543  10.357  1.4259  0.1725 -0.3408
   11MOL0     H 1425   8.941  -0.569  10.217 -0.7707  1.2863 -0.9976
   11MOL0     H 1426   9.241  -0.585  10.259 -0.5423 -0.8448  1.1675
   11MOL0     H 1427   9.166  -0.578  10.094 -2.5906  3.0104  0.2125
   11MOL0     H 1428   9.078  -0.791  10.102 -2.1212 -3.3852  1.2717
   11MOL0     H 1429   9.105  -0.826  10.270  0.5961 -0.2006 -0.5495
   11MOL0     H 1430   9.320  -0.767  10.068  1.7744  3.8745  3.9673
   11MOL0     H 1431   9.356  -0.791  10.234  0.1289 -0.9565  0.3870
   11MOL0     H 1432   9.393  -1.015  10.115 -1.5127 -0.6644 -3.0557
   11MOL0     H 1433   9.213  -1.029  10.134 -0.5137  0.2767  0.9932
   11MOL0     H 1434   8.787   0.014  10.172  1.0400 -1.6028  1.0573
   11MOL0     H 1435   8.734   0.257  10.178  0.1064  0.7918  1.2071
   11MOL0     H 1436   9.009   0.690  10.103  0.9716  0.8955 -1.7452
   11MOL0     H 1437   9.010   0.908  10.065 -0.3717  0.0874  1.9795
   11MOL0     H 1438  10.396   1.610   8.799 -0.2206 -1.4275  0.7060
   11MOL0     H 1439  10.540   1.799   8.795 -3.5185 -0.0522 -1.6830
   11MOL0     H 1440  10.853   2.008   9.051  2.0436  0.2174 -2.3000
   11MOL0     H 1441  11.045   2.170   9.063  1.2602  0.6020  3.7680
   11MOL0     H 1442  10.943   2.576   9.156 -0.9243  0.4000 -0.6183
   11MOL0     H 1443  10.948   2.605   8.975 -1.6893 -0.7359 -0.5740
   11MOL0     H 1444  11.104   2.738   9.107  1.0814  1.0304 -1.4195
   11MOL0     H 1445  11.189   2.587   9.152  2.3647 -0.9457 -2.3894
   11MOL0     H 1446  11.267   2.748   8.950  2.0029 -0.4821 -1.3027
   11MOL0     H 1447  11.175   2.625   8.861  2.4787  1.3959 -0.8872
   11MOL0     H 1448  11.395   2.566   9.071 -0.8075  2.0017  0.8386
   11MOL0     H 1449  11.309   2.451   8.992 -3.4919  2.1235  4.4287
   11MOL0     H 1450  11.569   2.530   8.671 -1.0380  2.6750 -1.6636
   11MOL0     H 1451  10.763   2.490   9.036  3.8820  0.0602  2.4933
   11MOL0     H 1452  10.569   2.327   8.986 -1.1559 -2.8449  0.8958
   12MOL0     O 1453   5.850   4.782   6.654  0.2166  0.4347  0.1908
   12MOL0     C 1454   5.731   4.776   6.636 -0.3021 -0.8331  0.7549
   12MOL0     O 1455   5.627   4.788   6.720 -0.4303 -0.2873 -0.2444
   12MOL0     C 1456   5.650   4.831   6.847  0.0220 -0.9453 -1.1958
   12MOL0     C 1457   5.547   4.891   6.904  0.8293  0.4516  1.8944
   12MOL0     C 1458   5.543   4.956   7.027 -0.1358  0.6860 -0.2232
   12MOL0     C 1459   5.667   4.948   7.106  0.3810 -0.1701 -0.3380
   12MOL0     O 1460   5.676   5.022   7.223  0.0153  0.6335  0.4248
   12MOL0     C 1461   5.567   5.012   7.303  0.5342  0.1452 -1.1839
   12MOL0     C 1462   5.593   5.078   7.448 -0.3773 -1.0967 -0.5983
   12MOL0     C 1463   5.677   5.212   7.455  0.6783 -0.2650  0.0537
   12MOL0     C 1464   5.656   5.314   7.329  0.6316  0.5387 -0.2327
   12MOL0     C 1465   5.709   5.455   7.341 -0.6804 -0.0957 -0.0509
   12MOL0     C 1466   5.649   5.527   7.464  0.3660 -0.2946  0.7391
   12MOL0     C 1467   5.731   5.650   7.502 -0.4041 -0.7256  0.0848
   12MOL0     C 1468   5.712   5.683   7.650  0.0744  0.5885  0.3615
   12MOL0     N 1469   5.769   5.810   7.680  0.1406 -0.4499  1.3709
   12MOL0     C 1470   5.900   5.840   7.712  0.7346  0.5131  0.8690
   12MOL0     C 1471   5.898   5.974   7.744 -0.4830 -0.3763 -0.3215
   12MOL0     C 1472   6.027   6.034   7.795 -0.9808  0.0629  0.0958
   12MOL0     C 1473   6.022   6.040   7.946  0.5507 -0.2333 -0.9137
   12MOL0     C 1474   6.157   6.049   8.016 -0.4296 -0.2376 -1.6157
   12MOL0     C 1475   6.240   5.920   8.028 -0.6464  0.8357 -0.5421
   12MOL0     O 1476   6.150   5.809   8.036  0.2624  0.4712  0.3473
   12MOL0     C 1477   6.151   5.738   8.150  0.5021 -0.6911  0.4029
   12MOL0     C 1478   6.029   5.706   8.196 -0.3724  0.2785 -0.3479
   12MOL0     C 1479   6.016   5.635   8.309  0.7994 -0.3817 -1.5462
   12MOL0     C 1480   6.134   5.595   8.383  0.5497  1.2504  0.3447
   12MOL0     C 1481   6.112   5.516   8.507  0.4522  0.0914 -0.4761
   12MOL0     O 1482   6.230   5.506   8.576 -0.0575 -0.1155 -0.2313
   12MOL0     C 1483   6.218   5.455   8.709 -0.8900 -0.0882  0.6682
   12MOL0     C 1484   6.220   5.317   8.736  0.4748  0.5726 -1.0564
   12MOL0     C 1485   6.217   5.270   8.865  0.2014 -0.4086 -0.2585
   12MOL0     C 1486   6.194   5.365   8.973 -0.1589  0.0327 -0.1317
   12MOL0     O 1487   6.181   5.334   9.112 -1.0764  0.2164 -0.6255
   12MOL0     C 1488   6.065   5.259   9.137  0.1003  0.4474  0.6872
   12MOL0     C 1489   6.034   5.226   9.294  0.2848  0.3485  1.0121
   12MOL0     C 1490   5.913   5.137   9.318  0.0373  0.4229  0.8279
   12MOL0     C 1491   5.874   5.137   9.460  0.9258 -0.5190 -0.5987
   12MOL0     C 1492   5.755   5.037   9.479 -1.0666  0.8758 -0.1052
   12MOL0     C 1493   5.714   5.044   9.632  0.4861  0.4613 -0.2365
   12MOL0     C 1494   5.576   5.013   9.651  0.7501  0.2444  0.4925
   12MOL0     C 1495   5.552   5.008   9.805 -0.6898 -1.2329 -0.1808
   12MOL0    Cl 1496   5.582   5.173   9.869 -0.2265 -0.0365  0.1065
   12MOL0     C 1497   6.206   5.501   8.945 -0.5415  0.4634  0.4681
   12MOL0     C 1498   6.211   5.550   8.818 -0.8774  0.2854  0.0721
   12MOL0     O 1499   6.005   5.471   8.543 -0.2833  0.2374  0.2661
   12MOL0     C 1500   6.261   5.616   8.334  0.0925 -0.0678 -0.7786
   12MOL0     C 1501   6.269   5.706   8.222  0.1657  0.9138 -0.4648
   12MOL0     N 1502   5.767   6.015   7.726 -1.0602 -0.7486 -0.4155
   12MOL0     N 1503   5.699   5.925   7.680  0.1331  0.4786 -0.8289
   12MOL0     C 1504   5.775   4.873   7.049  0.1727 -0.5983  0.0846
   12MOL0     C 1505   5.766   4.809   6.927 -0.3060  0.1330 -0.3369
   12MOL0     C 1506   5.682   4.717   6.503 -0.4173  0.2342 -1.2436
   12MOL0     C 1507   5.539   4.707   6.472  0.9669  1.1008  0.7953
   12MOL0     C 1508   5.502   4.674   6.341  0.3601  0.5398 -0.6988
   12MOL0     C 1509   5.588   4.643   6.238 -1.1960 -0.6223 -0.1580
   12MOL0     O 1510   5.559   4.633   6.104  0.3812  0.6490  0.4229
   12MOL0     C 1511   5.426   4.662   6.062 -1.1895  0.6066  0.2744
   12MOL0     C 1512   5.434   4.682   5.911 -0.1128  0.5771  0.7650
   12MOL0     C 1513   5.516   4.809   5.882  0.2804  0.6448  0.2073
   12MOL0     C 1514   5.542   4.816   5.727  0.3790 -0.3517 -0.1971
   12MOL0     C 1515   5.622   4.933   5.679 -0.1151  0.1850  0.0338
   12MOL0     C 1516   5.685   5.032   5.654 -0.5036  0.0433  0.6803
   12MOL0     C 1517   5.729   4.642   6.274 -0.1537 -0.1552  0.4441
   12MOL0     C 1518   5.768   4.679   6.401 -0.5939 -0.3541  0.0066
   12MOL0     H 1519   5.462   4.897   6.838  1.4392  2.7156  1.2337
   12MOL0     H 1520   5.453   5.009   7.056 -0.8865 -1.8561  2.5933
   12MOL0     H 1521   5.552   4.904   7.319 -0.1689  0.7109  3.1104
   12MOL0     H 1522   5.477   5.055   7.261  0.2896  0.2420 -0.5763
   12MOL0     H 1523   5.659   5.009   7.501  0.5036 -1.3960 -2.0191
   12MOL0     H 1524   5.495   5.098   7.493 -1.0138  3.5413 -3.3324
   12MOL0     H 1525   5.785   5.203   7.442  0.8009  2.0374 -0.8647
   12MOL0     H 1526   5.651   5.262   7.548 -2.4256 -0.1858 -0.7406
   12MOL0     H 1527   5.693   5.271   7.235 -0.4034  1.9345 -1.3318
   12MOL0     H 1528   5.548   5.314   7.313 -0.3354 -1.0913  4.6492
   12MOL0     H 1529   5.699   5.516   7.252  1.1656 -0.4285 -0.5387
   12MOL0     H 1530   5.817   5.446   7.356 -0.8700 -1.7929  0.6185
   12MOL0     H 1531   5.651   5.467   7.555  0.6959 -2.3363 -0.5573
   12MOL0     H 1532   5.549   5.561   7.438  2.0201  4.4392 -0.4694
   12MOL0     H 1533   5.837   5.639   7.476 -0.2657  0.6467 -0.0186
   12MOL0     H 1534   5.695   5.736   7.443 -0.1287 -0.5194  0.2159
   12MOL0     H 1535   5.766   5.612   7.714  1.7611  3.8495  2.8413
   12MOL0     H 1536   5.608   5.674   7.684  0.6167 -2.6058  1.5322
   12MOL0     H 1537   5.987   5.780   7.737  0.3815  0.0176  0.9159
   12MOL0     H 1538   6.049   6.125   7.738  1.4780 -0.9076 -0.6456
   12MOL0     H 1539   6.108   5.967   7.763 -2.3419 -2.1889  1.1749
   12MOL0     H 1540   5.959   5.959   7.984 -1.2395  1.2207 -0.6622
   12MOL0     H 1541   5.973   6.137   7.955  0.3696 -0.3631 -0.4876
   12MOL0     H 1542   6.209   6.119   7.951  3.4136  0.3478  1.7025
   12MOL0     H 1543   6.147   6.105   8.110 -4.0176 -2.4821 -0.4510
   12MOL0     H 1544   6.315   5.929   8.108 -0.3257 -0.0500 -0.7275
   12MOL0     H 1545   6.278   5.902   7.927  1.3778 -1.0483  0.4619
   12MOL0     H 1546   5.944   5.750   8.144  0.0728  0.3819 -1.0080
   12MOL0     H 1547   5.916   5.614   8.345  1.3675 -2.6093 -1.0814
   12MOL0     H 1548   6.223   5.236   8.664  0.1943 -0.1942 -0.2288
   12MOL0     H 1549   6.213   5.166   8.895  1.1275 -0.5398 -0.5537
   12MOL0     H 1550   6.087   5.162   9.092  4.2864  2.1170 -1.4295
   12MOL0     H 1551   5.977   5.302   9.090 -0.1351 -1.5205 -0.7827
   12MOL0     H 1552   6.009   5.321   9.342  0.3161  2.6793 -3.1069
   12MOL0     H 1553   6.124   5.182   9.339  2.2821  4.2835  1.2912
   12MOL0     H 1554   5.923   5.037   9.276 -1.3938  1.0142 -1.0454
   12MOL0     H 1555   5.828   5.177   9.263  0.4271  1.5592  1.0217
   12MOL0     H 1556   5.963   5.102   9.514  0.5484 -2.6168 -1.2704
   12MOL0     H 1557   5.840   5.237   9.490 -0.0134 -1.5730  2.1600
   12MOL0     H 1558   5.787   4.939   9.445 -1.5889  0.1154  1.4688
   12MOL0     H 1559   5.670   5.066   9.417 -0.7291  4.3302  0.8426
   12MOL0     H 1560   5.738   5.144   9.668  0.2591  0.3400  0.2632
   12MOL0     H 1561   5.780   4.971   9.681 -1.5772 -1.4836 -0.2128
   12MOL0     H 1562   5.516   5.093   9.607 -0.1821 -1.4729 -1.5498
   12MOL0     H 1563   5.537   4.920   9.610  0.7001 -0.4631  2.0610
   12MOL0     H 1564   5.629   4.949   9.855 -1.2696 -1.7366  0.1370
   12MOL0     H 1565   5.447   4.981   9.824 -1.1167 -0.8129 -1.7182
   12MOL0     H 1566   6.221   5.574   9.023 -0.3651 -0.2594  1.1297
   12MOL0     H 1567   6.227   5.657   8.805 -0.2268  0.1680 -0.1327
   12MOL0     H 1568   6.357   5.576   8.366  0.5944  0.9042 -1.0179
   12MOL0     H 1569   6.372   5.726   8.194  0.7929 -1.4295 -0.0388
   12MOL0     H 1570   5.867   4.872   7.107 -0.3824 -3.6158  1.0985
   12MOL0     H 1571   5.851   4.751   6.893 -0.7549 -0.5649 -0.2908
   12MOL0     H 1572   5.468   4.719   6.553  0.5913 -0.4871  0.7477
   12MOL0     H 1573   5.396   4.667   6.320  0.2081 -1.6056  0.4643
   12MOL0     H 1574   5.387   4.760   6.094 -1.8075  0.6681 -0.6276
   12MOL0     H 1575   5.363   4.579   6.095  0.9955  0.7664  6.0727
   12MOL0     H 1576   5.479   4.599   5.856  0.4359  2.8889 -2.5402
   12MOL0     H 1577   5.336   4.700   5.865  0.7497  0.0085 -1.4285
   12MOL0     H 1578   5.616   4.808   5.927  1.7639  3.0409 -2.7312
   12MOL0     H 1579   5.466   4.899   5.920 -0.2989 -0.1257  1.3147
   12MOL0     H 1580   5.603   4.729   5.702  1.1099  0.1003 -0.0378
   12MOL0     H 1581   5.446   4.814   5.674 -0.8202 -1.8678  1.9065
   12MOL0     H 1582   5.743   5.115   5.619 -0.1868 -0.8965 -1.2046
   12MOL0     H 1583   5.795   4.625   6.190 -3.2291 -1.1179 -1.9717
   12MOL0     H 1584   5.873   4.671   6.428 -0.5858 -2.3299 -0.5012
   13MOL0     O 1585   3.152   2.978   9.278  0.0640 -0.2310 -0.6240
   13MOL0     C 1586   3.254   3.022   9.219 -0.4783  0.4861 -0.1775
   13MOL0     O 1587   3.342   2.941   9.152  0.2287  0.0870 -0.1198
   13MOL0     C 1588   3.310   2.826   9.088  0.0172  0.6318 -0.2398
   13MOL0     C 1589   3.413   2.761   9.023 -0.7569  0.6469  0.5825
   13MOL0     C 1590   3.398   2.649   8.932  0.5051 -0.4979 -0.4945
   13MOL0     C 1591   3.264   2.602   8.915  0.7390 -0.0467  0.2063
   13MOL0     O 1592   3.231   2.490   8.844  0.4065 -0.7358 -0.7283
   13MOL0     C 1593   3.315   2.432   8.745 -0.4680 -0.2978  0.2209
   13MOL0     C 1594   3.245   2.317   8.677 -1.0334 -0.2199  0.3288
   13MOL0     C 1595   3.109   2.358   8.612 -0.4898 -0.3199 -0.5011
   13MOL0     C 1596   3.035   2.239   8.548  0.4984  0.1988 -0.2407
   13MOL0     C 1597   3.119   2.155   8.458 -0.3552  0.0489  0.3436
   13MOL0     C 1598   3.022   2.071   8.371  1.1418 -0.3375 -0.6700
   13MOL0     C 1599   3.092   1.982   8.274  0.0518 -0.0222 -0.3786
   13MOL0     C 1600   3.197   2.043   8.183 -0.5020 -0.4267  0.2437
   13MOL0     N 1601   3.271   1.949   8.102  0.3919 -0.3516  0.5946
   13MOL0     C 1602   3.407   1.933   8.120  0.0547  0.3007 -0.0191
   13MOL0     C 1603   3.426   1.813   8.067  0.4122  0.5412 -0.5038
   13MOL0     C 1604   3.557   1.745   8.045 -0.4772 -0.7377 -1.0908
   13MOL0     C 1605   3.558   1.665   7.918 -0.3813  0.3763 -0.2110
   13MOL0     C 1606   3.698   1.593   7.893 -0.7309  1.2984 -0.0993
   13MOL0     C 1607   3.713   1.515   7.761  0.0277  0.8266 -0.4893
   13MOL0     O 1608   3.833   1.441   7.776  0.7746  0.0855  0.2168
   13MOL0     C 1609   3.817   1.299   7.779  0.4828 -0.1536  0.2890
   13MOL0     C 1610   3.856   1.236   7.896 -0.6490 -0.5763  0.1851
   13MOL0     C 1611   3.868   1.097   7.896 -1.2211  0.0597  0.3690
   13MOL0     C 1612   3.835   1.033   7.774  1.0404 -0.5696  0.1989
   13MOL0     C 1613   3.848   0.890   7.767 -0.6717  0.5352 -0.7520
   13MOL0     O 1614   3.927   0.833   7.875  0.0407 -0.1031 -0.5315
   13MOL0     C 1615   3.959   0.694   7.865 -0.4456 -1.4425 -0.1779
   13MOL0     C 1616   3.954   0.626   7.984 -1.1647  0.2738 -0.3309
   13MOL0     C 1617   3.975   0.492   7.986 -0.2582  0.0942 -0.1896
   13MOL0     C 1618   4.003   0.429   7.868  0.4313 -0.1900  0.3274
   13MOL0     O 1619   4.003   0.292   7.881 -0.2751  0.5837 -0.4488
   13MOL0     C 1620   3.990   0.206   7.764 -0.3721  0.5601  0.7733
   13MOL0     C 1621   3.871   0.224   7.668  0.1480 -0.7144 -1.1926
   13MOL0     C 1622   3.745   0.299   7.715 -0.5137 -0.4602 -0.6528
   13MOL0     C 1623   3.636   0.285   7.608  0.7811  0.3614 -0.6227
   13MOL0     C 1624   3.654   0.328   7.455  0.3550 -0.4446 -1.0835
   13MOL0     C 1625   3.642   0.484   7.439  0.1804 -0.5919  0.5461
   13MOL0     C 1626   3.761   0.570   7.491 -0.2146  0.5620 -0.7323
   13MOL0     C 1627   3.797   0.680   7.394 -0.3495  0.4078 -0.2905
   13MOL0    Cl 1628   3.856   0.617   7.240  0.1431 -0.3802  0.1802
   13MOL0     C 1629   4.026   0.499   7.751  0.7069  0.1124  0.6427
   13MOL0     C 1630   3.993   0.630   7.746 -0.5932 -1.3490 -0.3072
   13MOL0     O 1631   3.781   0.830   7.680 -0.0786  0.0107  0.1167
   13MOL0     C 1632   3.787   1.102   7.657  0.0743 -0.2514 -1.3992
   13MOL0     C 1633   3.794   1.236   7.659 -0.3376  0.8055  0.3291
   13MOL0     N 1634   3.312   1.760   8.008 -0.7082  0.3465 -0.1705
   13MOL0     N 1635   3.214   1.847   8.017 -0.5428  0.1608  0.2620
   13MOL0     C 1636   3.158   2.669   8.979  0.3380  0.0657 -0.6195
   13MOL0     C 1637   3.185   2.783   9.056 -0.5174 -0.7917 -0.8508
   13MOL0     C 1638   3.291   3.160   9.227 -0.7721 -0.1935  0.6915
   13MOL0     C 1639   3.195   3.260   9.269 -0.7640 -0.2346  1.0388
   13MOL0     C 1640   3.228   3.389   9.291  0.4465 -0.4593 -0.1098
   13MOL0     C 1641   3.360   3.434   9.292  0.7064 -0.5783 -0.4007
   13MOL0     O 1642   3.395   3.571   9.337  0.2957  0.0350  0.4810
   13MOL0     C 1643   3.530   3.620   9.336  0.1285 -0.5780  0.4383
   13MOL0     C 1644   3.614   3.580   9.462  0.7593 -0.1047 -0.2213
   13MOL0     C 1645   3.761   3.641   9.464  0.0321  0.4913  0.9126
   13MOL0     C 1646   3.767   3.782   9.530  0.1865  0.3912 -0.9484
   13MOL0     C 1647   3.906   3.815   9.565  0.4696 -0.1156 -0.2882
   13MOL0     C 1648   4.015   3.860   9.583 -0.5175 -0.2589  0.5738
   13MOL0     C 1649   3.453   3.335   9.277  0.1230  0.0046 -0.4394
   13MOL0     C 1650   3.423   3.204   9.233 -0.0593  0.4678  0.1360
   13MOL0     H 1651   3.508   2.806   9.048 -0.8682 -0.4067  3.1367
   13MOL0     H 1652   3.484   2.601   8.887 -0.8420 -0.7485 -2.9853
   13MOL0     H 1653   3.408   2.403   8.794  0.8958 -0.4131 -2.2381
   13MOL0     H 1654   3.349   2.502   8.668 -5.4078  0.8206 -1.2622
   13MOL0     H 1655   3.227   2.237   8.749 -3.2669 -1.4323 -1.4251
   13MOL0     H 1656   3.310   2.274   8.600 -1.1637  1.5900 -0.8632
   13MOL0     H 1657   3.116   2.435   8.535 -1.1413 -0.0567 -0.3037
   13MOL0     H 1658   3.041   2.396   8.689 -2.3969 -0.4323 -2.0451
   13MOL0     H 1659   2.987   2.183   8.629  0.6901  0.2865 -0.0653
   13MOL0     H 1660   2.958   2.270   8.477  0.6065 -1.3035 -1.0623
   13MOL0     H 1661   3.194   2.095   8.511  0.6712  0.2479 -0.8427
   13MOL0     H 1662   3.175   2.217   8.387 -2.4229  1.3588 -0.2269
   13MOL0     H 1663   2.954   2.129   8.307  2.6708  0.5388 -1.5749
   13MOL0     H 1664   2.951   2.019   8.435 -0.0298 -1.4574 -2.7462
   13MOL0     H 1665   3.147   1.906   8.330  0.0952  1.9065  2.3920
   13MOL0     H 1666   3.023   1.933   8.204 -1.0855  0.9046  0.0683
   13MOL0     H 1667   3.266   2.100   8.245  0.2213  0.7164 -1.5445
   13MOL0     H 1668   3.156   2.114   8.111 -0.3933 -1.6882 -1.1184
   13MOL0     H 1669   3.474   2.006   8.166  2.3776 -1.4999 -0.3424
   13MOL0     H 1670   3.569   1.679   8.131  0.4833  2.6753  1.6206
   13MOL0     H 1671   3.636   1.821   8.051 -0.2154 -1.0399 -0.6187
   13MOL0     H 1672   3.530   1.743   7.847 -2.6888  1.9963  2.2663
   13MOL0     H 1673   3.484   1.585   7.926  2.0036 -1.9287  0.5830
   13MOL0     H 1674   3.771   1.674   7.884  1.9457 -0.5631  2.7118
   13MOL0     H 1675   3.712   1.517   7.971 -0.5506  3.5366  2.1734
   13MOL0     H 1676   3.728   1.591   7.683  0.6515  1.7161  0.4744
   13MOL0     H 1677   3.619   1.463   7.740  1.4214 -2.5230  0.8787
   13MOL0     H 1678   3.874   1.275   7.996 -0.3379 -0.8934  0.2548
   13MOL0     H 1679   3.885   1.034   7.983 -1.5432 -2.6799 -1.4264
   13MOL0     H 1680   3.917   0.677   8.072  0.6154 -1.9924  1.8447
   13MOL0     H 1681   3.975   0.425   8.070  1.5925  0.3986  0.1032
   13MOL0     H 1682   4.003   0.105   7.805  0.6639  0.5569  0.4543
   13MOL0     H 1683   4.077   0.221   7.700 -3.2633  2.2360 -3.2174
   13MOL0     H 1684   3.831   0.126   7.641 -2.6887  0.0817 -0.1945
   13MOL0     H 1685   3.905   0.283   7.582 -2.9549  1.2832 -1.2097
   13MOL0     H 1686   3.770   0.404   7.733  1.7961 -1.2537  1.2700
   13MOL0     H 1687   3.711   0.253   7.808  2.8077 -3.6547 -0.8188
   13MOL0     H 1688   3.614   0.179   7.596  1.3339  0.1603  0.0973
   13MOL0     H 1689   3.549   0.340   7.645 -0.0650 -2.3435  1.7011
   13MOL0     H 1690   3.567   0.291   7.401 -0.0934 -0.1679 -0.5610
   13MOL0     H 1691   3.751   0.290   7.420  0.3379 -3.5169  1.6669
   13MOL0     H 1692   3.550   0.527   7.480 -0.0837  0.6050 -1.1965
   13MOL0     H 1693   3.617   0.505   7.335 -1.0316  2.8422  1.4127
   13MOL0     H 1694   3.736   0.619   7.586  1.9807  1.1933 -0.4153
   13MOL0     H 1695   3.852   0.515   7.517 -0.0500  0.3749 -1.6533
   13MOL0     H 1696   3.881   0.739   7.430 -0.1963 -0.2167  0.3943
   13MOL0     H 1697   3.704   0.737   7.388 -0.6665  0.2058  1.8312
   13MOL0     H 1698   4.063   0.453   7.660  1.3601 -1.6947  1.7740
   13MOL0     H 1699   3.981   0.685   7.653  1.4945  3.7143  2.0579
   13MOL0     H 1700   3.770   1.058   7.559  2.0849 -2.1564 -0.9743
   13MOL0     H 1701   3.754   1.302   7.583 -3.3626  0.5154  1.5153
   13MOL0     H 1702   3.060   2.623   8.985  0.5170 -0.1827  0.9327
   13MOL0     H 1703   3.096   2.840   9.080 -1.4813 -2.5823  0.0489
   13MOL0     H 1704   3.089   3.235   9.269 -0.7305 -0.3968  1.4740
   13MOL0     H 1705   3.145   3.458   9.302 -1.7948 -2.7606 -1.3730
   13MOL0     H 1706   3.527   3.729   9.321 -2.3934 -0.8553 -1.5916
   13MOL0     H 1707   3.589   3.581   9.252  0.9776 -1.2206  1.3126
   13MOL0     H 1708   3.558   3.605   9.553 -0.9629  2.1225 -1.7780
   13MOL0     H 1709   3.617   3.471   9.470  1.6762 -0.0181  0.7696
   13MOL0     H 1710   3.794   3.662   9.362  0.6587  1.6090  1.3253
   13MOL0     H 1711   3.828   3.564   9.506  0.3478  0.0741 -0.2992
   13MOL0     H 1712   3.717   3.849   9.459 -4.2235 -1.8068 -0.3256
   13MOL0     H 1713   3.697   3.786   9.614  3.4157 -0.6978  2.0346
   13MOL0     H 1714   4.118   3.890   9.586 -0.0770 -1.7499  1.1240
   13MOL0     H 1715   3.556   3.365   9.287 -0.3338  1.4078  0.2750
   13MOL0     H 1716   3.504   3.133   9.221 -1.2836 -1.0854  0.8334
   14MOL0     O 1717   9.762   0.908   0.365  0.4170  0.0652 -0.6943
   14MOL0     C 1718   9.836   0.860   0.455 -0.5618  0.8916  0.2646
   14MOL0     O 1719   9.893   0.730   0.452 -0.2278 -0.7994  0.1080
   14MOL0     C 1720   9.921   0.685   0.329  0.2244  0.2861  0.2832
   14MOL0     C 1721   9.810   0.619   0.267 -0.4860  0.4500 -1.0568
   14MOL0     C 1722   9.837   0.540   0.155  1.0859 -0.1337 -0.4883
   14MOL0     C 1723   9.963   0.548   0.092 -0.4842  0.2670 -0.4459
   14MOL0     O 1724   9.996   0.462  -0.011  0.2738 -0.3310 -0.4147
   14MOL0     C 1725   9.900   0.472  -0.115 -1.1982  1.3914 -1.2411
   14MOL0     C 1726   9.948   0.426  -0.255 -1.2673 -0.0659  0.3818
   14MOL0     C 1727  10.057   0.316  -0.255  0.2552 -0.1088  0.7370
   14MOL0     C 1728  10.101   0.301  -0.403 -0.3166  0.7957 -1.4088
   14MOL0     C 1729  10.221   0.196  -0.416 -0.2134  0.4131  0.1851
   14MOL0     C 1730  10.209   0.057  -0.358  0.4126  0.2613 -0.0614
   14MOL0     C 1731  10.309  -0.037  -0.416  0.5504 -0.5979  0.0421
   14MOL0     C 1732  10.286  -0.179  -0.344  0.9685 -0.0139 -0.8025
   14MOL0     N 1733  10.405  -0.254  -0.370 -0.4613  0.1027  0.5320
   14MOL0     C 1734  10.525  -0.229  -0.311 -0.5221  0.1035  0.6143
   14MOL0     C 1735  10.616  -0.325  -0.351  0.7466 -0.7947 -0.2488
   14MOL0     C 1736  10.757  -0.341  -0.293 -0.8072  0.4470 -0.6152
   14MOL0     C 1737  10.803  -0.482  -0.267 -0.6431  1.0763 -0.1298
   14MOL0     C 1738  10.956  -0.482  -0.244  0.4602  0.2945  1.4987
   14MOL0     C 1739  10.987  -0.600  -0.154 -0.0774  0.5063  0.0236
   14MOL0     O 1740  10.940  -0.711  -0.223  0.4938 -0.2613  0.5006
   14MOL0     C 1741  10.912  -0.814  -0.146 -0.8754  0.5456 -1.9656
   14MOL0     C 1742  11.013  -0.914  -0.121 -1.0823  0.2311 -0.1916
   14MOL0     C 1743  10.983  -1.032  -0.055 -0.2883  0.5932  1.2082
   14MOL0     C 1744  10.851  -1.063  -0.001  0.4898  0.2251  0.0347
   14MOL0     C 1745  10.826  -1.197   0.059 -0.6757 -0.0485  0.5913
   14MOL0     O 1746  10.701  -1.220   0.093  0.3387 -0.3421  0.1699
   14MOL0     C 1747  10.663  -1.343   0.155 -0.7814 -0.6394  0.2665
   14MOL0     C 1748  10.726  -1.473   0.147  0.7795 -0.3905 -0.4177
   14MOL0     C 1749  10.663  -1.586   0.204 -0.5770 -1.1492 -0.7874
   14MOL0     C 1750  10.551  -1.582   0.287  0.3582 -0.4675  0.6493
   14MOL0     O 1751  10.493  -1.695   0.339 -0.4316  0.3503 -0.3676
   14MOL0     C 1752  10.539  -1.727   0.470  0.4720  0.0324 -0.1584
   14MOL0     C 1753  10.507  -1.869   0.523  0.3899  0.8559 -0.3354
   14MOL0     C 1754  10.483  -1.977   0.411 -0.8359 -0.2064 -0.9614
   14MOL0     C 1755  10.473  -2.119   0.475 -0.4214  0.6381  0.1673
   14MOL0     C 1756  10.412  -2.232   0.390  0.6264 -0.9829  0.1437
   14MOL0     C 1757  10.262  -2.195   0.364 -0.2496  0.6828  0.2395
   14MOL0     C 1758  10.183  -2.299   0.274 -0.6928 -0.6412 -0.8880
   14MOL0     C 1759  10.036  -2.255   0.246 -0.6489  0.7058 -0.3957
   14MOL0    Cl 1760   9.955  -2.395   0.166 -0.1901 -0.2888  0.3340
   14MOL0     C 1761  10.496  -1.456   0.310 -0.2793 -0.4312  0.1298
   14MOL0     C 1762  10.547  -1.344   0.238 -0.1829 -0.0506  0.0870
   14MOL0     O 1763  10.916  -1.270   0.077  0.0733  0.6522 -0.6952
   14MOL0     C 1764  10.750  -0.971  -0.033  1.1945 -0.3676 -0.3346
   14MOL0     C 1765  10.779  -0.848  -0.098  0.3244  0.4946  0.1155
   14MOL0     N 1766  10.533  -0.425  -0.403  0.0445 -0.1727 -1.0970
   14MOL0     N 1767  10.413  -0.382  -0.414 -0.3788  0.0674 -0.2633
   14MOL0     C 1768  10.067   0.616   0.151 -0.4562  0.2531 -0.4628
   14MOL0     C 1769  10.044   0.681   0.276 -0.0008  0.7413  0.2022
   14MOL0     C 1770   9.883   0.949   0.561  0.1858  0.5918  1.0241
   14MOL0     C 1771   9.831   1.074   0.586  0.1416  0.0917  0.1310
   14MOL0     C 1772   9.875   1.157   0.694  0.0397  0.6297 -0.1844
   14MOL0     C 1773   9.986   1.114   0.769 -0.0292 -0.7151  0.4894
   14MOL0     O 1774  10.023   1.195   0.869  0.4515 -0.4235  0.2840
   14MOL0     C 1775  10.157   1.228   0.906 -0.5374  0.0642 -0.1166
   14MOL0     C 1776  10.226   1.321   0.809 -0.0709 -0.2817 -0.4532
   14MOL0     C 1777  10.355   1.356   0.870 -0.2562  0.3579  0.3829
   14MOL0     C 1778  10.430   1.446   0.773  0.2642 -0.0893 -1.1757
   14MOL0     C 1779  10.571   1.472   0.828  0.7726 -0.9260  0.9612
   14MOL0     C 1780  10.674   1.492   0.886 -0.7153 -0.3978 -0.3227
   14MOL0     C 1781  10.035   0.990   0.736 -0.7791 -0.0613 -0.1940
   14MOL0     C 1782   9.980   0.903   0.647  0.3522  1.9844 -0.3703
   14MOL0     H 1783   9.709   0.626   0.307  0.0802 -3.1724  1.5328
   14MOL0     H 1784   9.757   0.473   0.124 -0.6326  1.2954  0.6762
   14MOL0     H 1785   9.858   0.573  -0.124  0.2166  2.1401  0.0364
   14MOL0     H 1786   9.818   0.406  -0.085 -0.8695  0.6385 -1.9771
   14MOL0     H 1787   9.988   0.505  -0.319 -2.1485  3.4964  3.8405
   14MOL0     H 1788   9.854   0.398  -0.302 -2.5531  0.5051  2.4820
   14MOL0     H 1789  10.031   0.217  -0.217  0.8145 -0.7752 -0.5774
   14MOL0     H 1790  10.138   0.364  -0.199 -0.1390 -0.5770  1.7491
   14MOL0     H 1791  10.017   0.250  -0.451  0.2832 -0.9073 -0.7098
   14MOL0     H 1792  10.127   0.395  -0.453  2.1160  1.3099  0.6125
   14MOL0     H 1793  10.317   0.235  -0.381  1.7329 -2.9163 -1.0792
   14MOL0     H 1794  10.242   0.193  -0.523 -0.3750  0.0780  0.1637
   14MOL0     H 1795  10.105   0.028  -0.373  0.7070  0.1374 -2.0555
   14MOL0     H 1796  10.222   0.055  -0.249 -2.1773  1.6691  0.3626
   14MOL0     H 1797  10.305  -0.040  -0.526 -1.3117 -3.3390  0.0577
   14MOL0     H 1798  10.410  -0.007  -0.388 -0.0788 -0.1369  1.9424
   14MOL0     H 1799  10.196  -0.231  -0.380  1.3986 -2.0173  0.8915
   14MOL0     H 1800  10.277  -0.164  -0.236 -0.1836  0.1477 -0.9066
   14MOL0     H 1801  10.544  -0.154  -0.236 -2.0918 -0.5329  1.7015
   14MOL0     H 1802  10.780  -0.277  -0.207 -0.2520 -1.8210  1.0380
   14MOL0     H 1803  10.816  -0.314  -0.381 -0.7572 -2.6779 -1.6613
   14MOL0     H 1804  10.774  -0.547  -0.350  1.3874  0.2797 -0.2943
   14MOL0     H 1805  10.744  -0.532  -0.190 -1.9337  1.8685 -0.5799
   14MOL0     H 1806  11.014  -0.511  -0.332  0.7337 -1.3906  2.1910
   14MOL0     H 1807  10.999  -0.386  -0.213  0.1526  1.0208 -0.2306
   14MOL0     H 1808  10.942  -0.587  -0.056  2.0295 -2.2919  1.5026
   14MOL0     H 1809  11.095  -0.612  -0.148  0.4559  3.2369 -2.1353
   14MOL0     H 1810  11.114  -0.886  -0.147 -1.0486  0.0908 -0.2116
   14MOL0     H 1811  11.071  -1.096  -0.053  0.3032  1.4001  2.5522
   14MOL0     H 1812  10.826  -1.503   0.117  0.5993 -3.7485  1.7646
   14MOL0     H 1813  10.713  -1.682   0.202 -0.0058 -0.8369 -2.2306
   14MOL0     H 1814  10.495  -1.654   0.539  1.3358 -0.9129  1.4407
   14MOL0     H 1815  10.648  -1.735   0.470  0.3222 -3.7030  0.0993
   14MOL0     H 1816  10.423  -1.867   0.593  0.9449 -2.1958  0.5966
   14MOL0     H 1817  10.585  -1.910   0.588 -1.2626  0.5874  1.5633
   14MOL0     H 1818  10.569  -1.986   0.346  0.7080  1.2249  0.7485
   14MOL0     H 1819  10.402  -1.950   0.342  0.1943 -0.6428 -2.3755
   14MOL0     H 1820  10.568  -2.152   0.515 -1.4725 -0.5135  1.8298
   14MOL0     H 1821  10.413  -2.108   0.566  1.6209 -0.0956  1.6559
   14MOL0     H 1822  10.424  -2.318   0.456 -0.1249 -0.4996  0.9380
   14MOL0     H 1823  10.457  -2.233   0.290 -1.4627  4.6439 -1.2441
   14MOL0     H 1824  10.245  -2.094   0.327 -0.7818  1.4872  2.5104
   14MOL0     H 1825  10.217  -2.187   0.464  0.7189 -1.5467  0.9252
   14MOL0     H 1826  10.245  -2.307   0.185  0.2952 -0.3464 -0.2504
   14MOL0     H 1827  10.175  -2.393   0.331  2.8119 -0.1345  0.7572
   14MOL0     H 1828  10.030  -2.173   0.174 -0.7612 -1.9256 -3.6449
   14MOL0     H 1829   9.991  -2.216   0.337 -2.5690  0.1723 -1.0759
   14MOL0     H 1830  10.408  -1.456   0.373 -2.0493  0.0258 -2.1867
   14MOL0     H 1831  10.494  -1.250   0.244  0.5890  0.4148 -0.3255
   14MOL0     H 1832  10.652  -0.992   0.009 -0.4934  2.5942 -2.4767
   14MOL0     H 1833  10.700  -0.780  -0.126 -0.6566 -0.7228 -0.1360
   14MOL0     H 1834  10.171   0.616   0.120  0.5104 -0.3217  2.4224
   14MOL0     H 1835  10.126   0.727   0.330  0.2162 -2.7113  3.2392
   14MOL0     H 1836   9.753   1.120   0.527 -0.6327  0.5838  1.4861
   14MOL0     H 1837   9.831   1.255   0.712 -1.4755  0.0096 -0.4298
   14MOL0     H 1838  10.220   1.138   0.916 -1.1372 -0.1683  2.1006
   14MOL0     H 1839  10.164   1.277   1.003  1.8113  1.4722 -0.9053
   14MOL0     H 1840  10.228   1.270   0.713  1.4940  2.7491 -2.1872
   14MOL0     H 1841  10.151   1.400   0.798 -2.6047 -2.6071 -0.9413
   14MOL0     H 1842  10.409   1.264   0.894 -0.7605 -0.4592 -1.3889
   14MOL0     H 1843  10.348   1.414   0.962  3.3669 -0.3003  1.2333
   14MOL0     H 1844  10.432   1.395   0.677 -0.5567  1.8033 -2.2322
   14MOL0     H 1845  10.383   1.545   0.772 -0.4059 -0.3944 -0.7694
   14MOL0     H 1846  10.765   1.490   0.941 -0.9664 -1.4383  0.0876
   14MOL0     H 1847  10.117   0.953   0.797 -2.5865 -0.8654  1.9122
   14MOL0     H 1848  10.006   0.797   0.651  1.8009  2.3495  1.3957
   15MOL0     O 1849   3.794  10.824   4.577 -0.3440 -0.3417 -0.4197
   15MOL0     C 1850   3.736  10.934   4.572 -0.1203 -0.0471  0.3427
   15MOL0     O 1851   3.602  10.950   4.550 -0.0986  0.1312 -0.4174
   15MOL0     C 1852   3.511  10.854   4.530  0.1317 -0.6187  0.0107
   15MOL0     C 1853   3.376  10.891   4.558 -0.4045 -1.2478 -0.2193
   15MOL0     C 1854   3.273  10.812   4.524  0.3078  0.1127 -0.0790
   15MOL0     C 1855   3.298  10.684   4.465 -0.2916  0.2994 -1.2036
   15MOL0     O 1856   3.190  10.600   4.445  0.0186  0.2287 -0.2831
   15MOL0     C 1857   3.083  10.636   4.362  0.7138 -1.0656  1.2389
   15MOL0     C 1858   2.974  10.532   4.358  0.1552  0.0279  0.7329
   15MOL0     C 1859   3.005  10.383   4.388 -0.4410 -0.3145 -0.4820
   15MOL0     C 1860   2.882  10.287   4.402 -0.5984  0.2786 -0.5106
   15MOL0     C 1861   2.912  10.140   4.462  0.3908  0.5818  0.0899
   15MOL0     C 1862   3.009  10.068   4.372 -0.4059  0.3140 -0.3376
   15MOL0     C 1863   3.071   9.956   4.445  0.2645 -0.1210 -0.1404
   15MOL0     C 1864   3.156   9.850   4.372 -0.1787  0.6583 -0.4281
   15MOL0     N 1865   3.243   9.890   4.261  0.3142  0.6765 -0.0458
   15MOL0     C 1866   3.313  10.007   4.253 -1.2708 -0.0462  0.3521
   15MOL0     C 1867   3.313  10.031   4.118 -0.1345 -0.5546 -1.1915
   15MOL0     C 1868   3.402  10.142   4.058  0.0796  0.4817 -1.2608
   15MOL0     C 1869   3.520  10.171   4.151 -0.4605 -0.0700 -0.9458
   15MOL0     C 1870   3.655  10.222   4.082 -0.2864  0.7307  0.9582
   15MOL0     C 1871   3.753  10.111   4.014 -0.0429 -0.5272  0.1032
   15MOL0     O 1872   3.782  10.022   4.119  1.4174  0.8697  0.6474
   15MOL0     C 1873   3.772   9.893   4.083  0.7187 -0.4133  0.4622
   15MOL0     C 1874   3.650   9.828   4.061  0.5487  0.1198 -0.2213
   15MOL0     C 1875   3.658   9.686   4.052 -0.4291 -0.4990 -0.0056
   15MOL0     C 1876   3.774   9.613   4.027  0.0038 -0.9257 -0.0014
   15MOL0     C 1877   3.768   9.457   4.001  0.6727 -0.8162  0.1368
   15MOL0     O 1878   3.886   9.404   3.954 -0.5468  0.5480 -0.6149
   15MOL0     C 1879   3.889   9.267   3.925  0.1038  0.2834  1.0202
   15MOL0     C 1880   3.810   9.214   3.824  0.3747  0.0934  0.1564
   15MOL0     C 1881   3.811   9.078   3.795  0.2832  0.5766 -0.5556
   15MOL0     C 1882   3.905   8.993   3.862  1.7734  0.7833  0.2929
   15MOL0     O 1883   3.933   8.858   3.830 -0.3925  0.7544  0.7149
   15MOL0     C 1884   3.903   8.817   3.698  0.2843  0.1522  0.8030
   15MOL0     C 1885   3.983   8.696   3.663 -0.3893  0.7592 -0.4281
   15MOL0     C 1886   3.987   8.586   3.780 -0.0041  0.5451  0.1444
   15MOL0     C 1887   4.036   8.442   3.739 -0.1984  0.1856  0.2666
   15MOL0     C 1888   4.189   8.434   3.713 -0.3847  0.1565 -0.0603
   15MOL0     C 1889   4.247   8.297   3.705 -0.6434  0.3213  0.1246
   15MOL0     C 1890   4.206   8.201   3.809 -0.1686  0.3355  0.5220
   15MOL0     C 1891   4.256   8.058   3.785 -0.2726  0.0795 -0.2150
   15MOL0    Cl 1892   4.228   7.970   3.921  0.2585 -0.1332 -0.2272
   15MOL0     C 1893   3.983   9.041   3.964 -1.3910  1.3580  0.0857
   15MOL0     C 1894   3.980   9.183   3.988 -0.4814  0.2161  0.3265
   15MOL0     O 1895   3.661   9.400   4.015 -0.2608 -0.2261 -0.0122
   15MOL0     C 1896   3.887   9.685   4.032  0.1787  0.4724 -0.4506
   15MOL0     C 1897   3.891   9.818   4.068 -0.5619 -0.1829  1.1115
   15MOL0     N 1898   3.251   9.931   4.050  0.7305  0.3520  0.8863
   15MOL0     N 1899   3.206   9.845   4.134 -1.3111 -0.2079  0.2012
   15MOL0     C 1900   3.430  10.636   4.449  0.7535 -0.0002  0.2939
   15MOL0     C 1901   3.539  10.718   4.489  0.2829 -0.0231 -0.5309
   15MOL0     C 1902   3.828  11.049   4.583  0.5504  0.0723  0.6424
   15MOL0     C 1903   3.964  11.044   4.602 -0.3315 -0.3310  0.1682
   15MOL0     C 1904   4.037  11.153   4.632 -0.1173 -0.9888 -0.4347
   15MOL0     C 1905   3.983  11.280   4.637  0.5190 -0.4484  0.3381
   15MOL0     O 1906   4.045  11.397   4.669 -0.9207  0.6426  0.1232
   15MOL0     C 1907   4.187  11.419   4.654 -0.1957  0.0260  0.0318
   15MOL0     C 1908   4.205  11.523   4.547 -0.9910 -1.0625 -0.8285
   15MOL0     C 1909   4.147  11.485   4.408  0.3282 -0.6005 -0.4987
   15MOL0     C 1910   4.181  11.337   4.361  0.9207  0.2782  0.0632
   15MOL0     C 1911   4.321  11.340   4.328 -0.6109 -0.0057  0.1334
   15MOL0     C 1912   4.442  11.356   4.311 -0.7090 -0.6929  0.3737
   15MOL0     C 1913   3.853  11.295   4.606  0.6760  0.2685 -0.3221
   15MOL0     C 1914   3.772  11.180   4.574  0.3929 -0.5379  0.4009
   15MOL0     H 1915   3.362  10.984   4.613  0.9349 -2.0679  1.6197
   15MOL0     H 1916   3.171  10.843   4.544  1.4489  3.5442  1.0981
   15MOL0     H 1917   3.120  10.668   4.265 -3.9473 -2.5935 -1.3528
   15MOL0     H 1918   3.041  10.730   4.397  2.3191  1.0240 -2.0176
   15MOL0     H 1919   2.916  10.550   4.267  1.5573 -0.4595 -0.2876
   15MOL0     H 1920   2.911  10.564   4.442 -0.0565 -1.3203  1.1074
   15MOL0     H 1921   3.065  10.366   4.478 -1.9566 -1.0217  0.4217
   15MOL0     H 1922   3.058  10.342   4.301 -2.2701 -2.5225 -0.6406
   15MOL0     H 1923   2.811  10.336   4.469  0.1909 -1.8180  1.9905
   15MOL0     H 1924   2.831  10.290   4.305 -0.1988  0.3473 -0.7203
   15MOL0     H 1925   2.826  10.072   4.464  3.8542 -4.4898 -2.1474
   15MOL0     H 1926   2.955  10.145   4.562  0.6054  0.1107  0.0226
   15MOL0     H 1927   3.089  10.137   4.343 -0.1283 -1.8186 -5.9745
   15MOL0     H 1928   2.979  10.015   4.281  1.6557  0.8063 -1.3609
   15MOL0     H 1929   3.144   9.994   4.516  1.7117 -2.3656 -0.3343
   15MOL0     H 1930   2.987   9.899   4.485 -0.4391  0.8149 -0.2518
   15MOL0     H 1931   3.084   9.782   4.327 -0.2852  1.7769 -2.0555
   15MOL0     H 1932   3.229   9.811   4.444  0.5157 -0.9087 -1.9233
   15MOL0     H 1933   3.357  10.071   4.329 -0.3576 -0.1521 -0.0705
   15MOL0     H 1934   3.338  10.227   4.033 -0.4086  0.7993  0.8257
   15MOL0     H 1935   3.447  10.102   3.967  2.4488  0.6080 -0.2371
   15MOL0     H 1936   3.551  10.086   4.212  0.0541  0.4019 -0.5426
   15MOL0     H 1937   3.486  10.243   4.227 -1.2200 -1.1003 -0.2791
   15MOL0     H 1938   3.620  10.291   4.005 -2.9413 -0.5379  0.9368
   15MOL0     H 1939   3.711  10.281   4.155  4.3708 -1.8088 -0.1122
   15MOL0     H 1940   3.848  10.161   3.993 -0.3301  0.7236  1.5897
   15MOL0     H 1941   3.727  10.067   3.917  0.3410  3.3979 -1.9842
   15MOL0     H 1942   3.551   9.871   4.047 -1.9976 -4.8759  0.0555
   15MOL0     H 1943   3.567   9.628   4.045  0.2026 -1.3638 -1.2736
   15MOL0     H 1944   3.737   9.284   3.786  0.0806 -1.7336 -2.9857
   15MOL0     H 1945   3.748   9.037   3.718 -0.7570 -1.3713  1.2160
   15MOL0     H 1946   3.942   8.896   3.633  0.8953 -1.4639 -0.8638
   15MOL0     H 1947   3.797   8.802   3.677  0.8112  0.3752 -2.4047
   15MOL0     H 1948   4.088   8.724   3.651  0.6417 -1.7173  1.7593
   15MOL0     H 1949   3.951   8.655   3.567  2.1579 -1.5853 -0.4105
   15MOL0     H 1950   3.894   8.596   3.838 -0.5091  0.2207 -0.5967
   15MOL0     H 1951   4.059   8.622   3.854  2.1319  1.4033 -2.2308
   15MOL0     H 1952   3.997   8.375   3.816 -0.3357  2.3617  2.1923
   15MOL0     H 1953   3.994   8.395   3.650  1.0471 -3.0481  1.2164
   15MOL0     H 1954   4.229   8.484   3.802 -3.6219  0.9671  1.0485
   15MOL0     H 1955   4.220   8.503   3.634  2.4662  1.8228  2.2957
   15MOL0     H 1956   4.356   8.294   3.698 -0.3424 -1.7367  3.2167
   15MOL0     H 1957   4.212   8.242   3.618 -2.2137 -0.5469  1.2454
   15MOL0     H 1958   4.255   8.233   3.901 -0.6900 -0.2368  1.0100
   15MOL0     H 1959   4.099   8.205   3.832 -0.6475 -0.5572 -1.3729
   15MOL0     H 1960   4.364   8.058   3.767 -0.7066 -0.9032 -3.5114
   15MOL0     H 1961   4.209   8.029   3.691  0.2197  0.7714 -0.6841
   15MOL0     H 1962   4.057   8.974   4.005 -0.8424 -1.0812 -4.2554
   15MOL0     H 1963   4.046   9.209   4.070 -1.0594 -3.4393  2.1620
   15MOL0     H 1964   3.979   9.634   4.004  0.7678  0.5452  1.2320
   15MOL0     H 1965   3.980   9.879   4.063 -0.0160 -1.0428  0.1110
   15MOL0     H 1966   3.422  10.535   4.410 -1.3584 -1.8331  4.8425
   15MOL0     H 1967   3.635  10.674   4.468  1.1123  0.7731  1.3833
   15MOL0     H 1968   4.011  10.946   4.591 -1.7278 -0.7877 -2.3882
   15MOL0     H 1969   4.145  11.144   4.644 -0.0625  1.5925  2.2996
   15MOL0     H 1970   4.236  11.327   4.620 -1.5443 -0.3917 -0.8718
   15MOL0     H 1971   4.243  11.452   4.742 -0.3696  3.2604 -0.9396
   15MOL0     H 1972   4.156  11.615   4.581 -1.6571 -0.7697 -2.4781
   15MOL0     H 1973   4.313  11.537   4.535 -1.1815 -1.6518 -3.7674
   15MOL0     H 1974   4.188  11.556   4.336 -0.4488  3.0579  2.3520
   15MOL0     H 1975   4.038  11.496   4.413  0.0789 -2.8753  0.6361
   15MOL0     H 1976   4.149  11.259   4.431 -0.9659  0.4107 -0.6005
   15MOL0     H 1977   4.117  11.319   4.274  0.9713 -2.0890  0.4492
   15MOL0     H 1978   4.547  11.368   4.293 -1.0284  0.5988 -0.8462
   15MOL0     H 1979   3.810  11.394   4.615  1.8197  0.9466 -1.8501
   15MOL0     H 1980   3.664  11.184   4.560  0.3459 -0.5626  0.7422
   16MOL0     O 1981   9.704   7.363   8.660 -0.8059  0.7442  0.4020
   16MOL0     C 1982   9.701   7.296   8.764 -0.4160 -1.4789 -0.5491
   16MOL0     O 1983   9.805   7.285   8.852 -0.7104 -0.0904 -0.1357
   16MOL0     C 1984   9.916   7.356   8.830 -0.2833 -0.6283  0.1131
   16MOL0     C 1985   9.954   7.465   8.912 -0.7143  0.7033 -0.4434
   16MOL0     C 1986  10.080   7.522   8.885  0.3184  0.0159 -0.3244
   16MOL0     C 1987  10.163   7.478   8.785  0.3153  0.4315 -0.0936
   16MOL0     O 1988  10.289   7.539   8.786 -0.5203 -0.2125  0.1247
   16MOL0     C 1989  10.375   7.509   8.673  0.0424 -0.2860 -0.5882
   16MOL0     C 1990  10.462   7.395   8.710 -0.4269  0.1498 -0.0888
   16MOL0     C 1991  10.612   7.423   8.727 -0.3962  0.3871 -0.2637
   16MOL0     C 1992  10.683   7.497   8.605 -0.4567 -0.4226 -0.2543
   16MOL0     C 1993  10.680   7.412   8.482 -0.2458 -0.1129  0.6695
   16MOL0     C 1994  10.794   7.457   8.386  0.6416 -0.1303 -0.5838
   16MOL0     C 1995  10.795   7.609   8.355  0.0061  0.4213 -0.2426
   16MOL0     C 1996  10.916   7.661   8.267  0.9820 -0.1222  0.6049
   16MOL0     N 1997  10.917   7.609   8.133 -0.3082 -0.1858 -0.6439
   16MOL0     C 1998  10.820   7.613   8.043 -0.3409  0.1175 -0.5386
   16MOL0     C 1999  10.879   7.563   7.923  0.5918 -0.5000  0.0986
   16MOL0     C 2000  10.817   7.571   7.788 -0.1062 -0.2728 -0.1500
   16MOL0     C 2001  10.909   7.488   7.695 -0.0360 -0.2716 -0.8212
   16MOL0     C 2002  10.896   7.339   7.696  0.0188 -0.8578 -0.8978
   16MOL0     C 2003  11.011   7.265   7.628 -0.4653 -0.1127  0.7715
   16MOL0     O 2004  10.989   7.127   7.594 -0.8236 -0.3334 -0.2796
   16MOL0     C 2005  10.885   7.101   7.508  0.0301  1.2699 -0.4016
   16MOL0     C 2006  10.831   7.187   7.411 -0.5333  0.0288  0.3634
   16MOL0     C 2007  10.721   7.143   7.337 -0.6951  0.2448 -0.0491
   16MOL0     C 2008  10.681   7.013   7.327  1.0208  0.8221  0.2237
   16MOL0     C 2009  10.573   6.964   7.228  0.3722 -1.2064  0.4823
   16MOL0     O 2010  10.549   7.061   7.132 -0.0649 -0.5789 -0.0171
   16MOL0     C 2011  10.435   7.052   7.062  0.3156 -0.5984  0.4705
   16MOL0     C 2012  10.421   6.949   6.965 -0.7193  0.2275  0.1358
   16MOL0     C 2013  10.304   6.935   6.895 -0.0607  0.3995  0.9978
   16MOL0     C 2014  10.213   7.037   6.901  0.0020 -0.3445  0.0843
   16MOL0     O 2015  10.108   7.016   6.816 -0.6575 -0.6194  0.1059
   16MOL0     C 2016   9.992   7.103   6.820  0.1678 -1.0952 -0.9647
   16MOL0     C 2017   9.893   7.062   6.702 -0.4995 -0.6100 -0.0425
   16MOL0     C 2018   9.934   7.113   6.561  0.3389  0.0119  0.2446
   16MOL0     C 2019   9.822   7.110   6.457  0.5382  0.3359 -0.5681
   16MOL0     C 2020   9.885   7.115   6.309 -0.8188 -0.1435 -0.8012
   16MOL0     C 2021   9.786   7.159   6.201 -0.6370  0.1373 -0.2552
   16MOL0     C 2022   9.646   7.083   6.227 -0.3308 -0.3249  1.0491
   16MOL0     C 2023   9.562   7.055   6.100  0.3131  0.0088 -0.0921
   16MOL0    Cl 2024   9.554   7.201   5.990  0.4171  0.3788  0.0042
   16MOL0     C 2025  10.241   7.157   6.967 -0.2308  0.0757  0.6420
   16MOL0     C 2026  10.353   7.165   7.043 -0.1114 -0.3141 -0.5595
   16MOL0     O 2027  10.525   6.853   7.230 -0.2564 -0.3053  0.5912
   16MOL0     C 2028  10.740   6.917   7.423 -0.5815 -0.6679  0.0671
   16MOL0     C 2029  10.837   6.969   7.512  0.5911  0.1441 -0.0714
   16MOL0     N 2030  11.009   7.535   7.954  0.6749 -0.6049  0.4507
   16MOL0     N 2031  11.028   7.562   8.076 -0.3912 -0.3478  0.6257
   16MOL0     C 2032  10.117   7.373   8.706  1.0277  0.3169 -0.5622
   16MOL0     C 2033   9.998   7.311   8.732 -0.1551  0.4019 -0.5718
   16MOL0     C 2034   9.575   7.230   8.798 -0.9435 -0.0191  0.6401
   16MOL0     C 2035   9.560   7.141   8.911 -0.3970  0.2513 -1.1800
   16MOL0     C 2036   9.438   7.082   8.950 -0.1654  0.3441  0.6289
   16MOL0     C 2037   9.323   7.107   8.874 -0.0410 -0.1196  1.6149
   16MOL0     O 2038   9.209   7.029   8.884 -0.4833 -0.2000 -0.7546
   16MOL0     C 2039   9.165   7.021   9.019  0.6690 -0.0406  0.1308
   16MOL0     C 2040   9.042   6.941   9.043 -0.8523 -1.1613  0.3801
   16MOL0     C 2041   8.926   7.020   8.975  0.5691 -0.0164  0.0425
   16MOL0     C 2042   8.811   6.989   9.052  0.6902  0.1221 -0.2994
   16MOL0     C 2043   8.677   7.030   9.004  0.1811  0.7913  0.2890
   16MOL0     C 2044   8.567   7.060   8.971  0.4125  0.3113  0.2519
   16MOL0     C 2045   9.336   7.193   8.764  0.5417  0.2871 -0.1097
   16MOL0     C 2046   9.456   7.251   8.725 -1.6028  0.8808  0.1287
   16MOL0     H 2047   9.888   7.497   8.992 -0.5043  0.9458 -0.3648
   16MOL0     H 2048  10.125   7.611   8.928  0.0706  0.5919 -1.2401
   16MOL0     H 2049  10.422   7.608   8.674 -0.6905  0.1186  1.8023
   16MOL0     H 2050  10.324   7.503   8.576 -0.9015  0.2647 -0.1509
   16MOL0     H 2051  10.442   7.318   8.635 -2.3460  2.5718 -2.2771
   16MOL0     H 2052  10.429   7.351   8.804  1.8201  0.6028  0.9809
   16MOL0     H 2053  10.648   7.323   8.752 -2.3362 -0.6356 -1.3615
   16MOL0     H 2054  10.602   7.497   8.808  1.7728 -1.2778  1.6545
   16MOL0     H 2055  10.639   7.593   8.576 -1.4856 -0.5251  0.8734
   16MOL0     H 2056  10.788   7.511   8.632 -0.0822 -2.1568 -0.6733
   16MOL0     H 2057  10.583   7.414   8.432 -0.0554  0.9619  0.3122
   16MOL0     H 2058  10.705   7.309   8.512  2.7810 -0.6120 -2.7973
   16MOL0     H 2059  10.767   7.398   8.298 -1.5117  1.2404 -0.9206
   16MOL0     H 2060  10.895   7.423   8.411  1.1936  1.9740  0.2886
   16MOL0     H 2061  10.696   7.636   8.320 -1.1295 -1.2487  1.4682
   16MOL0     H 2062  10.812   7.655   8.453 -2.9371 -0.5679  0.8389
   16MOL0     H 2063  11.013   7.635   8.310  1.5394  0.2758 -0.3884
   16MOL0     H 2064  10.928   7.769   8.268  2.3043 -0.1614 -1.9387
   16MOL0     H 2065  10.737   7.679   8.067  1.9620  1.9940  3.0957
   16MOL0     H 2066  10.803   7.670   7.743  1.5207 -0.9410 -2.3052
   16MOL0     H 2067  10.721   7.519   7.791 -0.9686  1.3096  1.6172
   16MOL0     H 2068  11.015   7.515   7.705  0.0666 -1.6379  3.5284
   16MOL0     H 2069  10.891   7.522   7.592  0.8092 -0.5657 -1.0761
   16MOL0     H 2070  10.898   7.290   7.794  2.3675 -0.6439 -0.7764
   16MOL0     H 2071  10.796   7.318   7.658  1.0181  0.1067 -4.4331
   16MOL0     H 2072  11.098   7.268   7.694  0.2253 -3.4744  0.1717
   16MOL0     H 2073  11.049   7.316   7.539  0.6890 -3.6213 -0.9147
   16MOL0     H 2074  10.858   7.291   7.422  1.4360 -0.5669  1.8160
   16MOL0     H 2075  10.669   7.213   7.272  2.9589 -0.6451 -4.3600
   16MOL0     H 2076  10.497   6.872   6.970 -0.5908  0.2459 -1.3167
   16MOL0     H 2077  10.289   6.851   6.827 -2.1072  2.1147 -0.8407
   16MOL0     H 2078  10.021   7.204   6.792  0.3535 -0.5711  0.9554
   16MOL0     H 2079   9.945   7.099   6.919  1.9543 -1.3975 -0.0685
   16MOL0     H 2080   9.798   7.106   6.734 -2.1871 -2.1694 -2.4983
   16MOL0     H 2081   9.888   6.953   6.691  0.6905 -0.7508  0.6371
   16MOL0     H 2082  10.008   7.049   6.512  0.6068 -2.0213  3.0627
   16MOL0     H 2083   9.962   7.219   6.566 -2.6847  0.9154 -0.3033
   16MOL0     H 2084   9.761   7.020   6.472  3.6129 -1.7989  0.2796
   16MOL0     H 2085   9.758   7.198   6.468  1.9994  1.3720  0.0321
   16MOL0     H 2086   9.928   7.022   6.271  2.4976  1.4644 -1.3465
   16MOL0     H 2087   9.979   7.170   6.307  1.3222 -3.4838  0.0019
   16MOL0     H 2088   9.835   7.128   6.108  1.9253  0.1453  0.9951
   16MOL0     H 2089   9.779   7.268   6.209  4.2871  0.6356  0.2041
   16MOL0     H 2090   9.656   6.983   6.270 -1.3473  0.1551  2.4732
   16MOL0     H 2091   9.603   7.143   6.307  0.7894  2.1170 -0.0690
   16MOL0     H 2092   9.461   7.024   6.128 -0.4152 -1.7585 -3.9950
   16MOL0     H 2093   9.614   6.980   6.039  2.7569  0.6629  1.0358
   16MOL0     H 2094  10.175   7.242   6.950 -2.4105 -1.9571 -2.3139
   16MOL0     H 2095  10.385   7.260   7.084 -1.1671  0.7262 -2.0672
   16MOL0     H 2096  10.713   6.812   7.430  1.9314 -1.2754  1.8847
   16MOL0     H 2097  10.873   6.896   7.585 -3.3931 -1.4926  0.5194
   16MOL0     H 2098  10.179   7.314   8.639 -1.6536 -4.4628  0.7215
   16MOL0     H 2099   9.960   7.228   8.673  1.9457 -1.3524  0.4204
   16MOL0     H 2100   9.650   7.121   8.968  1.3529 -1.7550 -4.3747
   16MOL0     H 2101   9.445   7.005   9.026  2.5258  0.7708  0.8993
   16MOL0     H 2102   9.156   7.122   9.060  0.0493  0.3892 -1.0252
   16MOL0     H 2103   9.246   6.961   9.063  2.7511  0.9393 -2.1364
   16MOL0     H 2104   9.060   6.839   9.008 -2.8679 -1.8256  1.0980
   16MOL0     H 2105   9.034   6.939   9.152 -1.2675  0.4711  0.4041
   16MOL0     H 2106   8.910   6.972   8.878  4.2749 -2.6004  0.4647
   16MOL0     H 2107   8.941   7.128   8.965  1.6053 -0.1486 -0.0257
   16MOL0     H 2108   8.804   6.880   9.060 -0.1573  0.2444  0.9400
   16MOL0     H 2109   8.821   7.032   9.152 -1.6549  0.3258 -0.0995
   16MOL0     H 2110   8.471   7.097   8.939  0.3029 -1.3888 -1.5460
   16MOL0     H 2111   9.243   7.204   8.709 -1.0492 -0.2425  2.2943
   16MOL0     H 2112   9.468   7.297   8.627 -3.6124 -0.3812 -0.7821
   17MOL0     O 2113   4.476   1.715   9.766 -0.7244 -0.1344  1.1673
   17MOL0     C 2114   4.459   1.836   9.754  0.2957  0.2256  0.4917
   17MOL0     O 2115   4.471   1.894   9.629  0.5874  0.3297 -0.7729
   17MOL0     C 2116   4.495   1.805   9.527  0.8450  1.0054  0.8294
   17MOL0     C 2117   4.612   1.828   9.464  0.5144 -0.0664 -0.5301
   17MOL0     C 2118   4.646   1.758   9.356 -0.8037  0.3922 -0.6692
   17MOL0     C 2119   4.567   1.645   9.313  0.5427 -1.0235  0.0172
   17MOL0     O 2120   4.611   1.572   9.211  0.1270 -0.1269  0.1996
   17MOL0     C 2121   4.525   1.559   9.102 -0.0666  0.3538 -0.3045
   17MOL0     C 2122   4.602   1.529   8.965  0.2153 -0.4052 -0.7926
   17MOL0     C 2123   4.673   1.394   8.962  0.7570 -0.4195 -0.0457
   17MOL0     C 2124   4.574   1.279   8.965  0.0886 -0.3213 -0.0854
   17MOL0     C 2125   4.630   1.130   8.982 -0.1930  0.3062 -0.5476
   17MOL0     C 2126   4.714   1.102   9.116  0.2787  0.2896  0.0678
   17MOL0     C 2127   4.789   0.971   9.111 -0.5545 -1.0076 -0.8260
   17MOL0     C 2128   4.842   0.942   9.258 -0.2625  0.0336 -0.1308
   17MOL0     N 2129   4.888   0.797   9.267  0.1660 -0.0812 -0.8333
   17MOL0     C 2130   5.017   0.744   9.301 -1.1974  0.3609 -0.0113
   17MOL0     C 2131   5.014   0.609   9.280  0.1213  0.4770 -0.4051
   17MOL0     C 2132   5.134   0.522   9.277 -0.3097  0.2610  0.2735
   17MOL0     C 2133   5.160   0.440   9.158  0.1589  0.2519 -0.2102
   17MOL0     C 2134   5.260   0.324   9.189 -0.0455  0.0931  0.7738
   17MOL0     C 2135   5.202   0.204   9.251  0.4724 -0.1057 -0.4309
   17MOL0     O 2136   5.300   0.097   9.262  0.1929  0.2081  0.8276
   17MOL0     C 2137   5.423   0.113   9.340  1.7200  0.4596 -0.4710
   17MOL0     C 2138   5.436   0.204   9.444  0.6927  0.2457 -0.8534
   17MOL0     C 2139   5.545   0.192   9.536 -0.3329  1.3292  0.7190
   17MOL0     C 2140   5.651   0.110   9.492  0.1023  0.0253 -0.3940
   17MOL0     C 2141   5.758   0.082   9.605 -0.8161 -0.0870  0.4032
   17MOL0     O 2142   5.816  -0.041   9.598  0.1783  0.7752  0.2334
   17MOL0     C 2143   5.909  -0.104   9.668  0.0822 -0.0848 -0.5389
   17MOL0     C 2144   5.922  -0.237   9.630  0.2495  0.8488 -0.3688
   17MOL0     C 2145   6.002  -0.323   9.702 -0.9338 -0.5633  0.0717
   17MOL0     C 2146   6.084  -0.280   9.815  1.1494 -0.0825 -0.0649
   17MOL0     O 2147   6.164  -0.356   9.895 -0.3838  0.6579  0.5225
   17MOL0     C 2148   6.149  -0.499   9.870  0.0610  0.6819  0.0912
   17MOL0     C 2149   6.244  -0.574   9.964  0.3153 -0.5317 -0.3696
   17MOL0     C 2150   6.245  -0.508  10.098  0.5810  0.8393  0.8397
   17MOL0     C 2151   6.301  -0.600  10.203  0.4381 -0.4677  0.8883
   17MOL0     C 2152   6.345  -0.520  10.334 -0.1213  0.0612  0.4962
   17MOL0     C 2153   6.416  -0.604  10.440 -0.0796  0.9297 -0.3208
   17MOL0     C 2154   6.554  -0.653  10.423  0.2215  1.1514  1.0531
   17MOL0     C 2155   6.586  -0.761  10.523 -0.3378 -0.9020 -0.0668
   17MOL0    Cl 2156   6.757  -0.805  10.511  0.0626 -0.0655  0.1468
   17MOL0     C 2157   6.069  -0.141   9.845  0.9267 -0.3867 -0.1211
   17MOL0     C 2158   5.988  -0.056   9.770  0.0259 -0.4107  0.7603
   17MOL0     O 2159   5.787   0.172   9.680 -0.0135  0.5663  0.6043
   17MOL0     C 2160   5.632   0.026   9.386  0.8997  0.5138 -0.3316
   17MOL0     C 2161   5.515   0.028   9.309 -0.9269  0.2563 -0.5876
   17MOL0     N 2162   4.880   0.583   9.257  0.3603  0.3238 -0.2051
   17MOL0     N 2163   4.810   0.689   9.253  0.3329 -0.2110 -1.0086
   17MOL0     C 2164   4.443   1.614   9.387 -0.5297 -0.0221 -0.1537
   17MOL0     C 2165   4.403   1.706   9.490 -0.7848 -0.1762 -0.5932
   17MOL0     C 2166   4.415   1.910   9.873 -0.4030  0.0243  0.4815
   17MOL0     C 2167   4.447   2.045   9.879  0.3257 -0.0908  0.3366
   17MOL0     C 2168   4.428   2.115   9.998  0.4380  0.5423 -0.1007
   17MOL0     C 2169   4.360   2.060  10.114 -0.4649 -0.2032 -0.1541
   17MOL0     O 2170   4.331   2.120  10.232 -0.1790 -0.2714  0.2916
   17MOL0     C 2171   4.386   2.247  10.258 -0.5187 -0.2300 -0.4372
   17MOL0     C 2172   4.367   2.273  10.409 -0.6578  0.9606 -0.1642
   17MOL0     C 2173   4.404   2.166  10.505  0.0521 -0.3024 -0.7824
   17MOL0     C 2174   4.550   2.117  10.497 -0.5948  0.3056 -1.5503
   17MOL0     C 2175   4.584   2.061  10.629 -0.6988  0.5800 -0.0883
   17MOL0     C 2176   4.615   2.025  10.745  0.5011 -0.6574 -0.4012
   17MOL0     C 2177   4.316   1.932  10.095  0.7980 -0.3391 -1.3735
   17MOL0     C 2178   4.343   1.855   9.983  0.7799 -0.1827  0.4040
   17MOL0     H 2179   4.670   1.915   9.491  2.0364 -1.1572 -0.1243
   17MOL0     H 2180   4.738   1.768   9.299 -1.1263 -2.2689 -1.7737
   17MOL0     H 2181   4.468   1.653   9.102  0.7306  0.9447  2.8037
   17MOL0     H 2182   4.455   1.477   9.121  1.3970 -0.9658 -0.4910
   17MOL0     H 2183   4.672   1.611   8.951 -0.1217 -0.4242 -3.0063
   17MOL0     H 2184   4.538   1.534   8.876 -0.9374 -1.2196 -0.0474
   17MOL0     H 2185   4.746   1.393   9.044  2.0373  0.5164 -1.1139
   17MOL0     H 2186   4.734   1.382   8.871  2.1743 -1.9493  1.0505
   17MOL0     H 2187   4.508   1.293   9.051  1.6320 -0.6318  1.1857
   17MOL0     H 2188   4.527   1.284   8.866  2.6407  0.3560 -1.3329
   17MOL0     H 2189   4.694   1.107   8.896 -2.9139 -4.7610 -1.6581
   17MOL0     H 2190   4.552   1.053   8.982  0.6167 -0.5379  0.3968
   17MOL0     H 2191   4.642   1.102   9.199  2.2723 -0.3244  1.9015
   17MOL0     H 2192   4.781   1.188   9.128  1.9449 -0.6759 -1.7349
   17MOL0     H 2193   4.728   0.881   9.099  0.5054 -1.7448 -0.8771
   17MOL0     H 2194   4.864   0.966   9.031  0.3560  1.5822 -0.2015
   17MOL0     H 2195   4.761   0.957   9.331  1.0412 -2.1227  1.9190
   17MOL0     H 2196   4.924   1.010   9.282  2.0388 -2.3074 -0.9342
   17MOL0     H 2197   5.108   0.801   9.317  1.3189 -3.3682  0.0313
   17MOL0     H 2198   5.113   0.446   9.353  0.7977 -1.2509 -0.8831
   17MOL0     H 2199   5.227   0.574   9.299 -0.8615  1.6755 -0.6073
   17MOL0     H 2200   5.195   0.509   9.081 -2.0776  2.0156  0.2390
   17MOL0     H 2201   5.073   0.392   9.113  1.2156 -1.5606 -0.4004
   17MOL0     H 2202   5.293   0.285   9.092 -2.6460  0.0103 -0.1540
   17MOL0     H 2203   5.340   0.368   9.249  2.3760  0.0688 -2.1588
   17MOL0     H 2204   5.121   0.163   9.190  0.7123 -1.1447 -0.0732
   17MOL0     H 2205   5.151   0.219   9.346 -0.7715 -1.5560 -0.8256
   17MOL0     H 2206   5.358   0.277   9.465  0.0610 -0.7402  0.3160
   17MOL0     H 2207   5.534   0.243   9.632 -1.2976 -4.0717  3.8566
   17MOL0     H 2208   5.860  -0.271   9.548 -0.3685 -0.1776  0.4971
   17MOL0     H 2209   5.993  -0.431   9.689 -1.3795 -1.0800  3.6867
   17MOL0     H 2210   6.176  -0.520   9.766 -2.6831 -2.2413 -0.1991
   17MOL0     H 2211   6.046  -0.533   9.882  0.0722 -1.1767 -3.6194
   17MOL0     H 2212   6.349  -0.578   9.936  0.0040  1.1110 -1.9348
   17MOL0     H 2213   6.212  -0.677   9.982 -1.3611 -0.0986 -0.6652
   17MOL0     H 2214   6.147  -0.469  10.127  0.0217 -1.5375  2.4323
   17MOL0     H 2215   6.310  -0.421  10.089 -1.4531  3.0181  4.4970
   17MOL0     H 2216   6.223  -0.667  10.241 -0.7139  1.6693  2.5130
   17MOL0     H 2217   6.386  -0.654  10.161  2.1518  2.4989  0.3008
   17MOL0     H 2218   6.253  -0.476  10.372 -1.4036 -1.6261 -0.4611
   17MOL0     H 2219   6.419  -0.452  10.290 -2.4597  1.9821 -0.6904
   17MOL0     H 2220   6.354  -0.690  10.467  3.0032 -1.0095  1.1061
   17MOL0     H 2221   6.415  -0.541  10.530 -0.3554  1.6584 -0.8230
   17MOL0     H 2222   6.575  -0.700  10.327 -0.2936  2.5713  0.2244
   17MOL0     H 2223   6.632  -0.576  10.423  1.3190  0.1214 -1.2261
   17MOL0     H 2224   6.514  -0.843  10.526 -1.3880 -0.2954 -3.8340
   17MOL0     H 2225   6.577  -0.710  10.619  0.1305  1.6409 -1.2922
   17MOL0     H 2226   6.125  -0.102   9.929  5.3746 -4.0031 -0.9928
   17MOL0     H 2227   5.963   0.047   9.793 -0.0789 -0.2741  0.0383
   17MOL0     H 2228   5.700  -0.052   9.354 -1.4841 -0.5206 -3.4819
   17MOL0     H 2229   5.508  -0.048   9.232 -1.0863  1.3877 -1.7166
   17MOL0     H 2230   4.384   1.532   9.349 -0.1382 -0.6621  0.5874
   17MOL0     H 2231   4.319   1.695   9.558 -0.7632  2.8876  0.0786
   17MOL0     H 2232   4.493   2.101   9.799 -0.4091  0.4359  0.2746
   17MOL0     H 2233   4.443   2.222  10.012  2.2644  0.4964 -1.3256
   17MOL0     H 2234   4.319   2.320  10.211 -2.8959 -2.2290 -0.3744
   17MOL0     H 2235   4.490   2.258  10.229 -0.4655  1.7252  0.3314
   17MOL0     H 2236   4.418   2.361  10.448  1.8107 -0.8173  0.8498
   17MOL0     H 2237   4.261   2.294  10.429 -0.3757  1.0313  1.3139
   17MOL0     H 2238   4.348   2.075  10.480 -0.0848 -0.2856 -0.5425
   17MOL0     H 2239   4.389   2.187  10.612 -0.1917 -1.0744 -0.6527
   17MOL0     H 2240   4.564   2.040  10.421  1.1389  0.3589 -1.3249
   17MOL0     H 2241   4.619   2.200  10.483  0.9996 -0.9842 -1.5468
   17MOL0     H 2242   4.664   1.995  10.835 -0.7656 -0.7239  0.2856
   17MOL0     H 2243   4.244   1.892  10.167 -1.9667  1.5412 -2.9209
   17MOL0     H 2244   4.307   1.752   9.988 -2.7927  0.9735  1.7828
   18MOL0     O 2245   9.491   6.553   1.356  0.1503 -0.2515 -0.1110
   18MOL0     C 2246   9.556   6.521   1.448 -0.0909  0.5278  0.2750
   18MOL0     O 2247   9.583   6.389   1.476 -0.6491 -0.7405  0.4793
   18MOL0     C 2248   9.573   6.289   1.381 -0.3422  0.4261 -0.3796
   18MOL0     C 2249   9.528   6.166   1.425  0.0022  0.1287 -0.5231
   18MOL0     C 2250   9.514   6.056   1.341 -0.9269 -1.8299 -0.2220
   18MOL0     C 2251   9.538   6.074   1.198 -0.2106 -1.2352  0.1686
   18MOL0     O 2252   9.545   5.984   1.107  0.6821 -0.1315 -0.4724
   18MOL0     C 2253   9.479   5.855   1.132  0.2905  0.0195 -0.3689
   18MOL0     C 2254   9.511   5.778   1.009 -0.1344  0.2508  0.0906
   18MOL0     C 2255   9.457   5.828   0.875  0.0837 -0.0782 -0.3259
   18MOL0     C 2256   9.448   5.710   0.785 -0.4421  0.4163 -0.1278
   18MOL0     C 2257   9.431   5.744   0.633  0.0375 -0.8125  0.6283
   18MOL0     C 2258   9.301   5.819   0.595 -0.8638  0.4755 -0.4691
   18MOL0     C 2259   9.180   5.742   0.626  0.0415  0.9969 -0.3914
   18MOL0     C 2260   9.046   5.787   0.563 -0.0998  0.6330 -0.5214
   18MOL0     N 2261   8.945   5.675   0.561  0.3551 -0.6135 -0.0985
   18MOL0     C 2262   8.888   5.635   0.440  0.0750 -0.5891 -0.1794
   18MOL0     C 2263   8.828   5.516   0.467  0.4155  1.2497 -0.0767
   18MOL0     C 2264   8.769   5.423   0.356 -0.2881 -0.1261  0.5659
   18MOL0     C 2265   8.670   5.495   0.257 -0.2539 -0.1274  0.1559
   18MOL0     C 2266   8.535   5.543   0.328  0.0751 -0.2490 -0.7280
   18MOL0     C 2267   8.440   5.572   0.227 -0.1961 -0.4560 -0.1628
   18MOL0     O 2268   8.386   5.471   0.152  0.3114  0.6434  0.5692
   18MOL0     C 2269   8.307   5.377   0.214  0.4505  1.0275 -0.6064
   18MOL0     C 2270   8.309   5.262   0.130  0.2282  0.1637  0.6125
   18MOL0     C 2271   8.279   5.132   0.179  0.4666  0.5675  0.1187
   18MOL0     C 2272   8.211   5.121   0.303  0.2779  0.1442  0.0858
   18MOL0     C 2273   8.179   4.986   0.361  0.5215  0.2593  0.7829
   18MOL0     O 2274   8.102   4.987   0.469 -0.6733  0.1688 -0.1289
   18MOL0     C 2275   8.128   4.886   0.551 -0.2993  0.4088  0.1938
   18MOL0     C 2276   8.091   4.753   0.525  0.1826 -0.5064 -0.8119
   18MOL0     C 2277   8.114   4.656   0.619 -0.6918 -0.0026  0.1130
   18MOL0     C 2278   8.192   4.684   0.735 -0.0843  0.1449 -0.0517
   18MOL0     O 2279   8.231   4.593   0.832 -0.2828 -0.0788  0.2086
   18MOL0     C 2280   8.156   4.477   0.843  0.8489  0.6888  0.3716
   18MOL0     C 2281   8.155   4.456   0.990  0.0613 -0.3420  0.2866
   18MOL0     C 2282   8.085   4.318   1.026  0.9334  0.8411  0.5436
   18MOL0     C 2283   8.118   4.269   1.167 -0.8254  0.9526  0.2006
   18MOL0     C 2284   8.004   4.162   1.209 -0.9228  0.1729 -0.4124
   18MOL0     C 2285   8.011   4.138   1.357 -0.1658 -0.1690  0.0605
   18MOL0     C 2286   7.875   4.128   1.423 -0.3207  0.5409 -0.4379
   18MOL0     C 2287   7.808   3.995   1.416  0.3480 -0.0933 -0.1672
   18MOL0    Cl 2288   7.646   3.997   1.486  0.4178  0.5258  0.0189
   18MOL0     C 2289   8.222   4.816   0.767 -0.5449 -0.0369  0.0685
   18MOL0     C 2290   8.201   4.916   0.668 -0.3392  0.2219 -1.1687
   18MOL0     O 2291   8.249   4.890   0.311 -0.1023 -0.3761 -0.4569
   18MOL0     C 2292   8.195   5.243   0.379 -0.0632  0.3688  0.1312
   18MOL0     C 2293   8.247   5.364   0.343 -0.4309 -0.5403  0.8415
   18MOL0     N 2294   8.852   5.480   0.600  0.0845 -0.0146  0.2991
   18MOL0     N 2295   8.910   5.588   0.658 -0.2785 -0.4620 -0.8309
   18MOL0     C 2296   9.565   6.203   1.160  0.3690 -0.3379 -0.1760
   18MOL0     C 2297   9.587   6.305   1.246  0.0476 -0.3122 -0.0630
   18MOL0     C 2298   9.607   6.626   1.535 -0.1654  0.9717  0.2429
   18MOL0     C 2299   9.541   6.746   1.565 -0.2660 -0.8206  0.0485
   18MOL0     C 2300   9.594   6.835   1.659  0.6039 -0.6973  0.6770
   18MOL0     C 2301   9.692   6.800   1.752  0.2110 -1.2266  0.6719
   18MOL0     O 2302   9.738   6.892   1.837 -0.0622  0.0146 -0.3494
   18MOL0     C 2303   9.690   6.864   1.966 -0.1719  0.0645  0.7411
   18MOL0     C 2304   9.541   6.883   2.004  0.6863  0.3688 -0.2548
   18MOL0     C 2305   9.463   7.009   1.943  0.2473  0.0979  1.0818
   18MOL0     C 2306   9.528   7.142   1.983  0.9580  0.9712  0.3844
   18MOL0     C 2307   9.419   7.236   1.994 -0.0162 -0.5643  1.0032
   18MOL0     C 2308   9.345   7.327   2.005 -0.0665  0.8036  0.8286
   18MOL0     C 2309   9.753   6.680   1.726 -0.1180 -0.7772  0.0362
   18MOL0     C 2310   9.710   6.592   1.628  0.0586 -0.3928 -0.0441
   18MOL0     H 2311   9.516   6.163   1.533 -1.9824 -1.9163 -0.7002
   18MOL0     H 2312   9.484   5.956   1.371 -1.9109 -0.8219  2.4138
   18MOL0     H 2313   9.372   5.876   1.142  0.2642 -0.6875  1.1572
   18MOL0     H 2314   9.516   5.811   1.225  2.7317  0.5792 -1.0191
   18MOL0     H 2315   9.457   5.686   1.033 -2.9151  1.5134 -0.9802
   18MOL0     H 2316   9.619   5.762   0.999 -0.6230 -2.4297 -2.3927
   18MOL0     H 2317   9.510   5.909   0.825  0.7468  0.4169  1.1460
   18MOL0     H 2318   9.358   5.874   0.889 -0.0366 -0.3331 -0.3323
   18MOL0     H 2319   9.544   5.656   0.787 -0.9237 -0.4977 -0.6370
   18MOL0     H 2320   9.372   5.643   0.827 -0.6540  0.5943 -0.2302
   18MOL0     H 2321   9.429   5.663   0.559 -0.2923 -0.9448  0.7804
   18MOL0     H 2322   9.517   5.806   0.605 -1.7323  0.9949 -1.1246
   18MOL0     H 2323   9.300   5.850   0.490  1.8033 -2.6031 -1.5619
   18MOL0     H 2324   9.288   5.909   0.655  0.8808 -0.4469  1.3757
   18MOL0     H 2325   9.197   5.637   0.604  0.1611  1.1877 -1.2471
   18MOL0     H 2326   9.172   5.756   0.734  0.7164  0.4015 -0.2597
   18MOL0     H 2327   9.051   5.827   0.462  0.7618  3.1175  0.4420
   18MOL0     H 2328   8.999   5.864   0.624  2.5885  0.2511  2.2578
   18MOL0     H 2329   8.905   5.676   0.341 -2.6265  1.3160  0.0365
   18MOL0     H 2330   8.713   5.347   0.411  0.0310 -1.2540 -0.6219
   18MOL0     H 2331   8.848   5.382   0.293  0.9041  4.6812 -1.5583
   18MOL0     H 2332   8.643   5.425   0.177 -0.2306  1.0353 -0.9035
   18MOL0     H 2333   8.709   5.590   0.218 -1.0188 -0.7744 -2.3599
   18MOL0     H 2334   8.481   5.469   0.389 -0.6871 -2.3887 -3.7945
   18MOL0     H 2335   8.551   5.636   0.384 -1.9241  0.2974 -0.9840
   18MOL0     H 2336   8.494   5.630   0.152  0.4120 -2.5309 -1.4260
   18MOL0     H 2337   8.365   5.635   0.276 -0.7228 -2.4869  1.8071
   18MOL0     H 2338   8.345   5.272   0.028  0.6780 -1.6896  0.5582
   18MOL0     H 2339   8.277   5.047   0.112 -1.4388  0.7587 -0.1249
   18MOL0     H 2340   8.039   4.730   0.433  1.6757 -0.2933 -1.7476
   18MOL0     H 2341   8.071   4.556   0.613  0.2387 -0.5420  1.8037
   18MOL0     H 2342   8.220   4.401   0.797  3.1188  2.6871 -0.0009
   18MOL0     H 2343   8.054   4.477   0.803  1.4601  0.0849 -1.2656
   18MOL0     H 2344   8.110   4.539   1.044 -0.2123  0.1744 -0.7193
   18MOL0     H 2345   8.260   4.437   1.017  0.8103 -0.4986 -2.3953
   18MOL0     H 2346   8.116   4.233   0.964  0.6871 -2.1152  4.1486
   18MOL0     H 2347   7.982   4.316   0.992  0.8630  0.1210  0.7884
   18MOL0     H 2348   8.215   4.221   1.158 -0.8304  0.8673  0.5896
   18MOL0     H 2349   8.133   4.351   1.238  1.7829  0.5227  0.2366
   18MOL0     H 2350   8.016   4.065   1.159 -2.8158 -1.3613  1.9095
   18MOL0     H 2351   7.905   4.196   1.181 -1.8681 -3.3806 -1.9850
   18MOL0     H 2352   8.056   4.224   1.406  0.9413 -1.4454  1.3850
   18MOL0     H 2353   8.066   4.048   1.384  0.4763 -0.1784 -1.2276
   18MOL0     H 2354   7.898   4.138   1.530  3.1457 -2.8515 -0.6352
   18MOL0     H 2355   7.812   4.206   1.381 -1.3063  0.3124  0.5570
   18MOL0     H 2356   7.863   3.911   1.462  1.3264  2.2289  3.3019
   18MOL0     H 2357   7.785   3.965   1.313 -3.0083 -2.2291  1.0243
   18MOL0     H 2358   8.267   4.849   0.860  0.2138 -2.8282  0.7705
   18MOL0     H 2359   8.232   5.017   0.692 -1.2956  0.8924 -2.5979
   18MOL0     H 2360   8.156   5.236   0.480  1.4830  0.8317  0.8014
   18MOL0     H 2361   8.267   5.443   0.416  1.0329 -1.3263  1.3360
   18MOL0     H 2362   9.568   6.227   1.054  1.4940 -2.3036 -0.6525
   18MOL0     H 2363   9.607   6.401   1.198  0.3646 -1.0854 -1.5306
   18MOL0     H 2364   9.456   6.776   1.504  0.5038  1.5086  0.0274
   18MOL0     H 2365   9.554   6.936   1.663 -1.7575 -1.4315 -1.7339
   18MOL0     H 2366   9.748   6.929   2.032 -0.0289  2.1286 -1.2590
   18MOL0     H 2367   9.722   6.763   1.992 -0.6155 -0.3938 -0.4227
   18MOL0     H 2368   9.496   6.790   1.967  3.2205 -0.3022 -1.9512
   18MOL0     H 2369   9.531   6.887   2.112  0.6462  0.1393 -0.2494
   18MOL0     H 2370   9.360   7.009   1.980 -0.8889  1.4112 -1.7094
   18MOL0     H 2371   9.458   7.000   1.834 -2.6717 -0.7780  1.2125
   18MOL0     H 2372   9.581   7.129   2.078  0.1505 -2.6954  0.4634
   18MOL0     H 2373   9.596   7.184   1.908  1.2842  0.4219  0.3665
   18MOL0     H 2374   9.276   7.409   2.010 -1.3545 -0.1974 -0.0489
   18MOL0     H 2375   9.840   6.653   1.786 -0.5903 -2.9865 -0.1770
   18MOL0     H 2376   9.750   6.492   1.617 -2.2381 -1.4895  0.9714
   19MOL0     O 2377   1.359  10.576   9.201 -0.0696 -0.4259  0.2990
   19MOL0     C 2378   1.287  10.481   9.233 -0.2672 -0.1742  0.2113
   19MOL0     O 2379   1.195  10.422   9.147 -0.2803 -0.1352 -0.5230
   19MOL0     C 2380   1.219  10.441   9.013  0.3348 -0.2967 -1.0576
   19MOL0     C 2381   1.339  10.419   8.949  0.3375 -1.1263 -0.2945
   19MOL0     C 2382   1.341  10.430   8.815  0.7269  0.7113 -0.7258
   19MOL0     C 2383   1.237  10.476   8.734  0.6767  0.6906 -0.5264
   19MOL0     O 2384   1.245  10.483   8.601 -0.0332  0.6149 -0.7722
   19MOL0     C 2385   1.269  10.360   8.535  0.3046  0.4112 -0.3493
   19MOL0     C 2386   1.261  10.368   8.382  0.0545 -0.7493 -0.3757
   19MOL0     C 2387   1.282  10.225   8.308 -0.0128  0.1204  0.5942
   19MOL0     C 2388   1.303  10.235   8.145  0.9534 -0.3199  0.5332
   19MOL0     C 2389   1.365  10.103   8.107 -0.3256 -0.5466 -0.0588
   19MOL0     C 2390   1.362  10.097   7.949 -0.1828  0.7659 -0.1498
   19MOL0     C 2391   1.396   9.944   7.910  0.5681 -0.1357  0.9763
   19MOL0     C 2392   1.375   9.925   7.747  0.5034 -0.3496 -0.1125
   19MOL0     N 2393   1.494   9.968   7.670  0.3391 -0.6202  0.9232
   19MOL0     C 2394   1.604   9.889   7.648  0.2501 -0.3063  0.1112
   19MOL0     C 2395   1.703   9.968   7.592 -0.2355  0.5892 -0.7235
   19MOL0     C 2396   1.838   9.923   7.556  0.1544  0.0460 -0.1032
   19MOL0     C 2397   1.908   9.842   7.669  0.2742 -0.4092  0.3075
   19MOL0     C 2398   2.031   9.771   7.611  0.1174  0.2333 -0.1740
   19MOL0     C 2399   2.096   9.675   7.714 -0.4530 -0.0200  0.6756
   19MOL0     O 2400   2.203   9.593   7.658  0.4311 -0.3919  0.1167
   19MOL0     C 2401   2.310   9.566   7.735 -0.5015 -0.2510  0.9058
   19MOL0     C 2402   2.435   9.549   7.663 -1.3629  0.0854  0.3586
   19MOL0     C 2403   2.548   9.535   7.744  0.1652  0.0407  0.2573
   19MOL0     C 2404   2.546   9.542   7.888  0.6834  0.2121  0.5002
   19MOL0     C 2405   2.679   9.507   7.949 -0.0937 -0.2918  0.1761
   19MOL0     O 2406   2.783   9.481   7.866 -0.0922 -0.1256 -0.2098
   19MOL0     C 2407   2.919   9.468   7.905  0.3097 -1.0466  0.0858
   19MOL0     C 2408   2.988   9.587   7.922  0.6227  0.0905 -1.0249
   19MOL0     C 2409   3.124   9.589   7.977  0.5737 -0.0379 -0.7948
   19MOL0     C 2410   3.185   9.465   8.003  1.1300 -0.5257 -0.6492
   19MOL0     O 2411   3.310   9.482   8.056 -0.2880  1.0762  0.2165
   19MOL0     C 2412   3.409   9.487   7.952  0.3856 -0.9722 -0.8336
   19MOL0     C 2413   3.557   9.493   8.019  0.1215  0.2622  0.4086
   19MOL0     C 2414   3.610   9.629   8.018  0.0217  0.6494  0.4569
   19MOL0     C 2415   3.751   9.643   8.076  0.0985  0.0957  0.4751
   19MOL0     C 2416   3.748   9.652   8.227  0.3970  0.1393  0.1580
   19MOL0     C 2417   3.880   9.704   8.289 -0.7463 -0.2366 -0.4845
   19MOL0     C 2418   3.909   9.853   8.273  0.7088  0.8972 -0.1104
   19MOL0     C 2419   3.922   9.928   8.410 -0.2756  0.1180  0.5758
   19MOL0    Cl 2420   4.090   9.947   8.463  0.3643  0.1846  0.0803
   19MOL0     C 2421   3.105   9.356   8.000 -0.0354  0.6405  0.0141
   19MOL0     C 2422   2.970   9.348   7.945 -0.4647  0.2123 -0.0068
   19MOL0     O 2423   2.674   9.517   8.069 -0.0359  0.9371  0.8135
   19MOL0     C 2424   2.421   9.566   7.960 -0.9015  0.2969 -0.3743
   19MOL0     C 2425   2.306   9.568   7.877  0.1553  1.1957  0.5045
   19MOL0     N 2426   1.651  10.093   7.573  0.4107  0.3714 -0.0689
   19MOL0     N 2427   1.533  10.096   7.622 -0.2810  0.2575 -0.1680
   19MOL0     C 2428   1.112  10.503   8.796 -0.4069  0.5819 -0.6522
   19MOL0     C 2429   1.110  10.487   8.942 -0.1760  0.5271  0.3210
   19MOL0     C 2430   1.292  10.449   9.373 -0.1138 -0.8777 -0.5870
   19MOL0     C 2431   1.377  10.519   9.465  0.0003  0.4503 -0.3412
   19MOL0     C 2432   1.385  10.475   9.596 -1.1519 -0.5597 -0.6432
   19MOL0     C 2433   1.299  10.372   9.643 -0.1772  0.0401  0.9191
   19MOL0     O 2434   1.292  10.319   9.773 -0.1162  0.0341  0.3179
   19MOL0     C 2435   1.424  10.286   9.840 -0.7209  1.0614 -0.4818
   19MOL0     C 2436   1.377  10.211   9.966 -0.0617  0.4270  0.0111
   19MOL0     C 2437   1.492  10.162  10.052 -0.8610 -0.0163 -0.2925
   19MOL0     C 2438   1.444  10.074  10.165 -0.4559 -0.4122 -0.4101
   19MOL0     C 2439   1.367   9.956  10.116 -0.1607  0.3111  0.5320
   19MOL0     C 2440   1.319   9.851  10.100 -0.8878 -0.7145  0.5084
   19MOL0     C 2441   1.199  10.319   9.554  0.1199 -1.4400  0.5332
   19MOL0     C 2442   1.198  10.356   9.417  0.6028  0.4191 -0.5493
   19MOL0     H 2443   1.427  10.383   9.001 -0.5775 -2.7573  0.1796
   19MOL0     H 2444   1.432  10.405   8.762  0.2656  1.8103 -2.0981
   19MOL0     H 2445   1.188  10.295   8.568 -1.2675  0.2478 -4.0219
   19MOL0     H 2446   1.367  10.321   8.563  0.6625 -0.5127 -2.6990
   19MOL0     H 2447   1.335  10.437   8.341 -1.6765  0.4902 -1.5607
   19MOL0     H 2448   1.166  10.416   8.356  0.5877 -0.9241 -2.9569
   19MOL0     H 2449   1.189  10.169   8.325 -0.7686  0.7692 -1.0789
   19MOL0     H 2450   1.362  10.165   8.351  0.2876 -0.1803 -0.3494
   19MOL0     H 2451   1.205  10.256   8.100  0.7065  3.7444  2.4292
   19MOL0     H 2452   1.352  10.320   8.097  1.0535  2.1832  4.6113
   19MOL0     H 2453   1.305  10.022   8.148  1.0533 -1.1277  0.8745
   19MOL0     H 2454   1.468  10.103   8.143 -0.2172  1.0569 -0.2671
   19MOL0     H 2455   1.427  10.173   7.906 -0.4433  0.1934 -1.5998
   19MOL0     H 2456   1.259  10.118   7.917 -0.8482 -0.3855  1.0993
   19MOL0     H 2457   1.503   9.933   7.931  0.6642  2.0720  1.9429
   19MOL0     H 2458   1.326   9.877   7.960 -0.1254  1.2326  1.9076
   19MOL0     H 2459   1.285   9.976   7.712  0.3127  0.2473  1.1854
   19MOL0     H 2460   1.369   9.816   7.735  1.2812 -0.7879  2.6932
   19MOL0     H 2461   1.625   9.789   7.684  0.3106  0.1667  1.4297
   19MOL0     H 2462   1.896  10.005   7.512 -3.0770  1.5999 -1.8442
   19MOL0     H 2463   1.821   9.850   7.477  0.1106  0.0124 -0.0623
   19MOL0     H 2464   1.837   9.778   7.722  0.3792  0.9493  2.1892
   19MOL0     H 2465   1.940   9.913   7.746  0.4266 -0.5115  0.3379
   19MOL0     H 2466   1.999   9.714   7.523 -2.0951  1.7242 -0.4507
   19MOL0     H 2467   2.104   9.850   7.587 -1.1916  2.6869  3.0969
   19MOL0     H 2468   2.020   9.608   7.754  1.1268 -1.2791  1.6703
   19MOL0     H 2469   2.136   9.736   7.796  3.0591 -3.3006  1.7047
   19MOL0     H 2470   2.443   9.564   7.556  0.6172 -0.5867  0.3624
   19MOL0     H 2471   2.640   9.518   7.689  0.1896  0.9612 -0.0213
   19MOL0     H 2472   2.933   9.678   7.901 -1.3887  0.4295  4.1790
   19MOL0     H 2473   3.175   9.685   7.979 -0.2777  0.4694 -2.0593
   19MOL0     H 2474   3.394   9.583   7.903  0.7689 -0.3894  0.1581
   19MOL0     H 2475   3.391   9.401   7.886 -0.2719 -0.7831 -0.9081
   19MOL0     H 2476   3.618   9.433   7.949 -1.1825 -0.9716  0.2731
   19MOL0     H 2477   3.561   9.446   8.118  1.8201  0.4362  0.4606
   19MOL0     H 2478   3.545   9.692   8.080  1.5797  0.6899  2.1605
   19MOL0     H 2479   3.614   9.653   7.912 -2.8357  1.3500  0.4419
   19MOL0     H 2480   3.813   9.556   8.053  0.4613 -0.1796  2.3494
   19MOL0     H 2481   3.804   9.732   8.040  0.6127 -1.3330 -2.6026
   19MOL0     H 2482   3.717   9.559   8.277  1.5533  0.4614  1.5365
   19MOL0     H 2483   3.671   9.722   8.261 -1.4078 -2.1456  1.0354
   19MOL0     H 2484   3.956   9.645   8.237 -1.5657 -0.5627 -1.3444
   19MOL0     H 2485   3.889   9.671   8.393  2.6968 -2.7404 -1.3680
   19MOL0     H 2486   4.002   9.863   8.216  1.5452  0.1511  1.0827
   19MOL0     H 2487   3.827   9.901   8.218  1.8811  1.5487 -1.3501
   19MOL0     H 2488   3.859   9.883   8.488 -1.7702 -1.8994 -1.6447
   19MOL0     H 2489   3.884  10.030   8.400 -0.4247  0.1596  1.5074
   19MOL0     H 2490   3.158   9.268   8.036  2.1383  2.3727  1.3068
   19MOL0     H 2491   2.898   9.267   7.934 -1.2810  0.6171  1.9195
   19MOL0     H 2492   2.414   9.554   8.068  0.4630 -0.5814 -0.3644
   19MOL0     H 2493   2.214   9.566   7.933  1.7821 -0.9503  3.3337
   19MOL0     H 2494   1.022  10.526   8.738 -0.8298 -1.2651 -0.7765
   19MOL0     H 2495   1.026  10.527   8.999 -0.6971  2.8535 -1.8786
   19MOL0     H 2496   1.443  10.602   9.440  2.0639 -1.2330 -0.8102
   19MOL0     H 2497   1.462  10.526   9.653  0.5302 -2.4971 -1.1043
   19MOL0     H 2498   1.483  10.371   9.875  2.4758 -0.9034 -0.7283
   19MOL0     H 2499   1.487  10.222   9.778 -0.9290  1.0569 -0.6900
   19MOL0     H 2500   1.307  10.268  10.027 -1.4290  0.3871 -1.4601
   19MOL0     H 2501   1.324  10.118   9.942 -2.1497  1.2642  1.1064
   19MOL0     H 2502   1.532  10.248  10.107 -2.7702 -0.2028  1.5206
   19MOL0     H 2503   1.568  10.116   9.989 -1.2853  0.3557 -1.0916
   19MOL0     H 2504   1.539  10.044  10.211  0.9917  2.6902 -1.1431
   19MOL0     H 2505   1.392  10.127  10.246  1.0189  0.3941  0.0608
   19MOL0     H 2506   1.275   9.755  10.082 -0.8405 -0.5793 -0.3505
   19MOL0     H 2507   1.117  10.255   9.587 -3.2196  2.4628  0.5734
   19MOL0     H 2508   1.131  10.303   9.350  0.4374  1.2407 -1.0448
   20MOL0     O 2509   1.289   5.909   9.441  0.5114 -0.0935 -0.4252
   20MOL0     C 2510   1.376   5.946   9.525  0.5250 -0.6466  1.7883
   20MOL0     O 2511   1.507   5.972   9.490 -0.1592 -0.2628 -0.3489
   20MOL0     C 2512   1.555   5.928   9.367  0.6210  0.1849  0.1758
   20MOL0     C 2513   1.686   5.868   9.369  0.3350  1.2215 -0.0945
   20MOL0     C 2514   1.757   5.843   9.252 -0.2639 -0.7721 -0.1610
   20MOL0     C 2515   1.698   5.867   9.132  0.1000  0.8873  0.7316
   20MOL0     O 2516   1.766   5.823   9.014 -0.3498  0.3097  0.6740
   20MOL0     C 2517   1.711   5.842   8.887 -0.8972  0.7335 -0.0953
   20MOL0     C 2518   1.810   5.780   8.779  0.5851 -0.0663 -0.8108
   20MOL0     C 2519   1.943   5.856   8.776 -0.4236 -0.2543  0.5135
   20MOL0     C 2520   2.042   5.782   8.684 -0.0039  0.5383 -0.3607
   20MOL0     C 2521   2.183   5.843   8.683 -1.1389  0.2515  0.7251
   20MOL0     C 2522   2.279   5.770   8.575 -0.1551 -0.5072 -0.1375
   20MOL0     C 2523   2.262   5.619   8.557  0.0310  0.7657 -1.1050
   20MOL0     C 2524   2.301   5.551   8.691  0.9842  0.4315  0.0649
   20MOL0     N 2525   2.327   5.407   8.670 -0.8840 -0.7057  0.3897
   20MOL0     C 2526   2.389   5.333   8.760 -0.4834 -0.4095 -0.3048
   20MOL0     C 2527   2.382   5.207   8.710  0.1155 -0.3938 -0.0947
   20MOL0     C 2528   2.422   5.081   8.776  0.8314 -1.3835  0.9507
   20MOL0     C 2529   2.570   5.063   8.755 -0.1336  0.6041  0.1732
   20MOL0     C 2530   2.611   4.926   8.819  0.0037  0.2134 -0.6168
   20MOL0     C 2531   2.744   4.943   8.885  0.0556  0.5748 -0.3763
   20MOL0     O 2532   2.736   5.035   9.001 -0.7975 -0.6072  0.0595
   20MOL0     C 2533   2.847   5.103   9.043  0.1855 -0.2861 -0.6637
   20MOL0     C 2534   2.968   5.099   8.989  0.6133 -0.2555 -0.3746
   20MOL0     C 2535   3.070   5.187   9.040  0.9324 -0.9309  0.8120
   20MOL0     C 2536   3.036   5.278   9.137 -0.8707  0.1063 -0.7890
   20MOL0     C 2537   3.134   5.373   9.188 -0.2634 -0.6397 -0.2446
   20MOL0     O 2538   3.255   5.375   9.120 -0.8468  0.0809 -0.0483
   20MOL0     C 2539   3.357   5.449   9.183 -0.9096  0.6291  0.3875
   20MOL0     C 2540   3.344   5.592   9.199  0.7325  0.8692  0.9405
   20MOL0     C 2541   3.445   5.670   9.249 -0.2652  0.4975 -0.3371
   20MOL0     C 2542   3.563   5.600   9.294 -0.0869 -0.3831  0.1496
   20MOL0     O 2543   3.660   5.685   9.342 -0.0590  1.0197  0.8942
   20MOL0     C 2544   3.800   5.646   9.358 -0.6766 -0.3558  0.7119
   20MOL0     C 2545   3.810   5.582   9.496  0.4842 -0.4047 -0.3438
   20MOL0     C 2546   3.814   5.694   9.608 -0.0225  0.7810 -0.7613
   20MOL0     C 2547   3.844   5.635   9.750  1.0789  0.3734 -0.1984
   20MOL0     C 2548   3.887   5.745   9.840  1.0881 -0.5117 -0.5386
   20MOL0     C 2549   3.764   5.810   9.925  0.8038 -1.0942  0.1682
   20MOL0     C 2550   3.805   5.938  10.001  0.2590 -0.8416 -1.4761
   20MOL0     C 2551   3.862   6.070   9.934  0.4107  0.7856 -0.4823
   20MOL0    Cl 2552   4.014   6.075   9.823 -0.2097 -0.0172  0.3170
   20MOL0     C 2553   3.580   5.464   9.283 -0.3274  0.4962 -0.3347
   20MOL0     C 2554   3.474   5.390   9.231  0.8421  0.2198  0.7314
   20MOL0     O 2555   3.104   5.431   9.289 -0.3429 -1.2724 -0.3687
   20MOL0     C 2556   2.902   5.283   9.182  0.0588  0.9326  0.0666
   20MOL0     C 2557   2.806   5.192   9.143  1.0741  0.1082 -0.1015
   20MOL0     N 2558   2.322   5.214   8.589  0.1282 -0.6491 -0.3628
   20MOL0     N 2559   2.278   5.325   8.574  0.0873 -0.7341  0.7943
   20MOL0     C 2560   1.581   5.931   9.127 -0.0664  0.0056  0.0448
   20MOL0     C 2561   1.508   5.956   9.248  0.8395 -0.7037  0.7693
   20MOL0     C 2562   1.337   5.985   9.658 -0.1196 -0.1855 -0.3096
   20MOL0     C 2563   1.193   5.985   9.692 -0.6173  0.4104  0.4294
   20MOL0     C 2564   1.166   6.003   9.826  0.0879  0.0843  0.2939
   20MOL0     C 2565   1.267   6.027   9.924  0.1978  0.4037 -0.1107
   20MOL0     O 2566   1.219   6.034  10.046 -0.6999  0.5570 -0.3420
   20MOL0     C 2567   1.297   6.059  10.162 -0.2595 -0.1447 -0.8823
   20MOL0     C 2568   1.219   6.048  10.289  0.3944 -0.3396 -0.9225
   20MOL0     C 2569   1.169   5.900  10.317 -0.4574  0.1466  0.4639
   20MOL0     C 2570   1.017   5.901  10.333  0.3268 -0.5387 -0.3196
   20MOL0     C 2571   0.958   5.944  10.461 -0.7184  0.1556  0.3357
   20MOL0     C 2572   0.896   5.980  10.559  0.9713  0.6403 -0.4353
   20MOL0     C 2573   1.397   6.024   9.890 -0.8178 -1.0534 -0.4586
   20MOL0     C 2574   1.436   6.012   9.756  0.2283 -0.4948  0.2961
   20MOL0     H 2575   1.725   5.839   9.466 -1.6461 -2.1151 -0.1149
   20MOL0     H 2576   1.850   5.788   9.256 -0.7373 -2.0251 -3.5656
   20MOL0     H 2577   1.691   5.946   8.859 -1.8919 -0.0108 -2.4828
   20MOL0     H 2578   1.616   5.788   8.897 -0.5040 -0.1744 -1.0996
   20MOL0     H 2579   1.758   5.783   8.683 -1.2392  0.8536  0.1537
   20MOL0     H 2580   1.839   5.679   8.809  0.7153  0.2689  0.2397
   20MOL0     H 2581   2.007   5.861   8.864 -0.1283  1.8649  0.2169
   20MOL0     H 2582   1.933   5.962   8.752  2.0297  0.0717  0.6752
   20MOL0     H 2583   2.045   5.683   8.730 -3.2188  0.2979 -0.4987
   20MOL0     H 2584   2.005   5.782   8.581  1.1087  0.3715 -0.7846
   20MOL0     H 2585   2.219   5.829   8.786 -1.2927 -0.2806  0.7132
   20MOL0     H 2586   2.173   5.947   8.651 -0.2358 -0.4663 -2.1784
   20MOL0     H 2587   2.384   5.792   8.596 -0.6747  1.9063  0.3303
   20MOL0     H 2588   2.252   5.821   8.482 -4.2484  1.5929  1.8986
   20MOL0     H 2589   2.159   5.606   8.523  0.6049  1.2083 -3.1356
   20MOL0     H 2590   2.330   5.580   8.481  0.6977 -1.6684  0.6163
   20MOL0     H 2591   2.220   5.554   8.764  1.6736  1.5763  0.8242
   20MOL0     H 2592   2.383   5.605   8.741  0.5525 -0.9761  2.4769
   20MOL0     H 2593   2.438   5.355   8.854  0.3696 -3.8066  0.1941
   20MOL0     H 2594   2.364   4.999   8.733 -2.1083  1.2328 -0.5736
   20MOL0     H 2595   2.403   5.089   8.883  0.6402 -2.2850  0.9857
   20MOL0     H 2596   2.615   5.137   8.821  1.1629 -1.3419  1.5798
   20MOL0     H 2597   2.613   5.074   8.655  0.4519 -0.7408  0.2597
   20MOL0     H 2598   2.531   4.897   8.888 -1.8422 -0.3088 -2.8186
   20MOL0     H 2599   2.618   4.856   8.735 -3.1602 -2.3097  0.9809
   20MOL0     H 2600   2.801   4.976   8.797 -1.0791 -0.0563 -1.3710
   20MOL0     H 2601   2.792   4.848   8.911  4.1510  1.6019 -3.1625
   20MOL0     H 2602   3.001   5.027   8.915  2.5172  0.5782 -0.4037
   20MOL0     H 2603   3.160   5.195   8.980 -0.0057 -0.4388 -0.5808
   20MOL0     H 2604   3.245   5.629   9.174  0.2588 -0.8547  0.1019
   20MOL0     H 2605   3.432   5.777   9.260 -1.2979  0.5642 -1.8104
   20MOL0     H 2606   3.861   5.737   9.358  0.3838 -0.9726 -1.8364
   20MOL0     H 2607   3.833   5.584   9.274 -0.9369  0.3962  0.0377
   20MOL0     H 2608   3.901   5.523   9.509 -1.5796 -3.8875 -0.5992
   20MOL0     H 2609   3.725   5.516   9.515  1.1326 -1.1069  0.2083
   20MOL0     H 2610   3.726   5.757   9.595 -0.4503 -0.0611 -2.2984
   20MOL0     H 2611   3.906   5.744   9.576  1.2976 -0.6702  0.5613
   20MOL0     H 2612   3.753   5.589   9.789 -0.0599  2.8385  0.1964
   20MOL0     H 2613   3.908   5.546   9.745 -0.6544 -0.9550  0.4263
   20MOL0     H 2614   3.941   5.820   9.782  2.0324  2.0700  3.2756
   20MOL0     H 2615   3.951   5.700   9.916 -0.0041  1.8640  1.9635
   20MOL0     H 2616   3.708   5.740   9.988 -1.3055 -1.7238 -2.2508
   20MOL0     H 2617   3.703   5.844   9.841  2.7140 -0.7195 -1.1448
   20MOL0     H 2618   3.725   5.965  10.070  3.6674  0.0043  2.5637
   20MOL0     H 2619   3.884   5.911  10.072 -1.3206 -0.4536  0.4834
   20MOL0     H 2620   3.883   6.140  10.015 -2.2023  3.9373 -2.2830
   20MOL0     H 2621   3.783   6.112   9.872 -1.7826 -0.8785  1.0333
   20MOL0     H 2622   3.666   5.402   9.309 -0.1856 -0.0285 -1.9278
   20MOL0     H 2623   3.472   5.282   9.235 -0.6460  0.2486  1.3343
   20MOL0     H 2624   2.878   5.367   9.246  0.8281  0.6570  0.7382
   20MOL0     H 2625   2.702   5.199   9.174  0.9729  1.9891 -0.7581
   20MOL0     H 2626   1.535   5.958   9.033  0.8529 -1.9604 -1.0313
   20MOL0     H 2627   1.412   6.004   9.231  0.9196 -0.9353 -0.4476
   20MOL0     H 2628   1.111   5.983   9.622  0.8887  1.8263 -1.5019
   20MOL0     H 2629   1.061   6.010   9.852 -0.2961  1.3430 -1.4664
   20MOL0     H 2630   1.328   6.163  10.149 -0.2212  0.1883  1.5385
   20MOL0     H 2631   1.381   5.989  10.170 -3.2437 -4.3092 -2.2289
   20MOL0     H 2632   1.280   6.079  10.374  0.8658  1.0549 -1.7585
   20MOL0     H 2633   1.134   6.117  10.281  1.2479  1.1054  1.4595
   20MOL0     H 2634   1.225   5.861  10.403 -0.9373  1.5769  1.4649
   20MOL0     H 2635   1.195   5.843  10.228  3.5243  0.7793  1.0557
   20MOL0     H 2636   0.974   5.967  10.257  2.0278 -1.9362 -2.6130
   20MOL0     H 2637   0.998   5.794  10.326  0.3628 -0.8286  2.5697
   20MOL0     H 2638   0.836   6.015  10.640  2.2381 -2.2739  1.9402
   20MOL0     H 2639   1.463   6.038   9.975  0.4383  1.9967 -1.7638
   20MOL0     H 2640   1.542   6.016   9.735 -0.1710 -1.9833 -2.5329
   21MOL0     O 2641   3.526   9.549   6.952  0.1281  0.1559 -0.3306
   21MOL0     C 2642   3.534   9.646   7.024  0.6167  0.3319 -1.0134
   21MOL0     O 2643   3.649   9.712   7.053  0.0344  0.0562 -0.7472
   21MOL0     C 2644   3.766   9.662   7.005 -0.6405 -0.3089 -0.0802
   21MOL0     C 2645   3.851   9.734   6.910  0.0632  0.5757  0.1987
   21MOL0     C 2646   3.967   9.671   6.851 -0.6662 -1.0140 -0.8022
   21MOL0     C 2647   4.006   9.537   6.880 -1.0062 -0.5418 -0.7291
   21MOL0     O 2648   4.105   9.484   6.803  0.4099  0.4069  0.7693
   21MOL0     C 2649   4.174   9.363   6.854  0.4025 -0.9340 -0.4782
   21MOL0     C 2650   4.316   9.367   6.811  0.4519 -0.3555  0.2950
   21MOL0     C 2651   4.389   9.240   6.866 -0.3526  0.6101 -0.2405
   21MOL0     C 2652   4.525   9.209   6.796 -0.1097 -0.8307  0.6665
   21MOL0     C 2653   4.591   9.071   6.809  0.1198  0.4676 -1.2725
   21MOL0     C 2654   4.621   9.028   6.955 -0.0870  0.7178 -0.1419
   21MOL0     C 2655   4.773   9.032   6.979  0.3067 -0.2696  0.2760
   21MOL0     C 2656   4.810   9.181   6.989 -0.2395  0.4537  0.3498
   21MOL0     N 2657   4.934   9.201   7.071  0.4407  0.2824  0.5583
   21MOL0     C 2658   5.053   9.242   7.021 -0.0779 -1.0313  0.4602
   21MOL0     C 2659   5.140   9.229   7.128  1.2385  0.2300  0.0556
   21MOL0     C 2660   5.297   9.230   7.099  1.1069 -0.0488  0.4759
   21MOL0     C 2661   5.353   9.090   7.110  0.3806 -0.5277 -0.4098
   21MOL0     C 2662   5.289   8.988   7.037  0.3092  0.4543 -0.2920
   21MOL0     C 2663   5.371   8.859   7.046  1.2191 -0.5674  0.8058
   21MOL0     O 2664   5.323   8.754   6.953  0.2856  0.3465 -0.1043
   21MOL0     C 2665   5.386   8.726   6.836 -1.2831 -0.6908  0.4306
   21MOL0     C 2666   5.462   8.816   6.773 -0.1908 -0.8836  0.6520
   21MOL0     C 2667   5.536   8.789   6.658  0.0871  0.6906 -0.3938
   21MOL0     C 2668   5.530   8.666   6.594  0.4801  0.5907  0.2830
   21MOL0     C 2669   5.605   8.652   6.468 -1.8402 -0.4739  0.2461
   21MOL0     O 2670   5.622   8.767   6.391 -0.2917  0.1988  0.3002
   21MOL0     C 2671   5.696   8.778   6.275 -0.4076  0.7207  0.0386
   21MOL0     C 2672   5.713   8.684   6.169  0.8161 -0.8850 -0.6054
   21MOL0     C 2673   5.789   8.722   6.058 -0.2974  0.9685 -0.1762
   21MOL0     C 2674   5.844   8.852   6.040 -0.0780 -0.2455  0.5793
   21MOL0     O 2675   5.919   8.884   5.934 -0.0876 -0.3360  0.0419
   21MOL0     C 2676   5.902   8.810   5.816  0.0439 -0.5346  0.2625
   21MOL0     C 2677   5.963   8.893   5.701  0.1621  0.6039  0.1149
   21MOL0     C 2678   6.095   8.841   5.649  1.0606  0.3967 -0.0836
   21MOL0     C 2679   6.169   8.951   5.562 -0.6282  0.2914 -0.1847
   21MOL0     C 2680   6.305   8.901   5.526 -0.2711  0.1449 -0.1996
   21MOL0     C 2681   6.289   8.820   5.399  0.3755  0.6027  0.1922
   21MOL0     C 2682   6.419   8.806   5.313  0.4957 -0.4483 -0.3013
   21MOL0     C 2683   6.399   8.729   5.176 -0.9486  0.3932 -0.0413
   21MOL0    Cl 2684   6.326   8.569   5.201  0.0504 -0.1817  0.3023
   21MOL0     C 2685   5.828   8.939   6.143  0.2253  0.7799 -0.6198
   21MOL0     C 2686   5.774   8.904   6.263  0.9759  0.8915 -0.7768
   21MOL0     O 2687   5.663   8.547   6.450 -0.2189  0.1789  0.3042
   21MOL0     C 2688   5.446   8.571   6.646 -0.1938  0.0011  0.7823
   21MOL0     C 2689   5.389   8.599   6.775  1.0136  0.1803 -0.3495
   21MOL0     N 2690   5.065   9.205   7.244  0.5585 -1.1678  0.4549
   21MOL0     N 2691   4.943   9.194   7.210  0.7102 -0.9809  0.6611
   21MOL0     C 2692   3.928   9.475   6.971  0.6346  0.5482  0.4613
   21MOL0     C 2693   3.814   9.528   7.038  0.9969 -0.3634 -0.3187
   21MOL0     C 2694   3.412   9.694   7.097  0.7906 -0.5847  0.8176
   21MOL0     C 2695   3.414   9.803   7.177 -0.1862 -0.2293 -0.0998
   21MOL0     C 2696   3.299   9.861   7.242 -0.1489 -0.0788 -0.5666
   21MOL0     C 2697   3.168   9.815   7.205  0.1292  0.2258 -0.3573
   21MOL0     O 2698   3.051   9.873   7.248  1.1651  0.5061  0.1434
   21MOL0     C 2699   2.923   9.803   7.230  0.5483 -1.1006  0.9774
   21MOL0     C 2700   2.881   9.812   7.084 -0.4758 -0.2516 -0.6048
   21MOL0     C 2701   2.815   9.936   7.045  1.6026 -0.0439  0.6150
   21MOL0     C 2702   2.661   9.936   7.070 -0.3522  0.8079 -0.4829
   21MOL0     C 2703   2.639   9.948   7.217 -0.1415  1.1790  0.5014
   21MOL0     C 2704   2.605  10.007   7.316  0.1306  0.4874 -1.0566
   21MOL0     C 2705   3.170   9.691   7.132  0.1868 -0.4704 -0.0259
   21MOL0     C 2706   3.284   9.635   7.074 -1.2310  1.1051 -0.1557
   21MOL0     H 2707   3.830   9.831   6.866  1.7056  0.3214 -1.2554
   21MOL0     H 2708   4.016   9.731   6.775 -1.6034 -0.4369 -0.9658
   21MOL0     H 2709   4.122   9.279   6.805 -2.5742  0.0896  0.7184
   21MOL0     H 2710   4.157   9.364   6.962 -0.4464 -1.3198 -0.6024
   21MOL0     H 2711   4.377   9.450   6.847 -0.7157  1.8832 -2.5697
   21MOL0     H 2712   4.332   9.376   6.704  5.4847 -1.2845  0.7276
   21MOL0     H 2713   4.326   9.151   6.852 -0.1886  0.6115 -1.0633
   21MOL0     H 2714   4.410   9.249   6.973 -1.8000 -0.6072  0.1868
   21MOL0     H 2715   4.511   9.221   6.688  2.4680 -2.8732  0.0122
   21MOL0     H 2716   4.595   9.282   6.840  0.3618 -2.0925  2.1106
   21MOL0     H 2717   4.680   9.055   6.747  1.2842 -2.0255  0.8380
   21MOL0     H 2718   4.513   9.003   6.774  1.4703 -1.5634 -0.5786
   21MOL0     H 2719   4.588   8.924   6.964  1.5072  0.0964 -1.0099
   21MOL0     H 2720   4.564   9.073   7.037 -0.6125 -3.5274  2.1202
   21MOL0     H 2721   4.794   8.988   7.077 -0.0254  0.4608  0.6860
   21MOL0     H 2722   4.828   8.971   6.907  0.0392  0.2118 -0.3444
   21MOL0     H 2723   4.732   9.237   7.042 -3.3086 -0.5965 -2.6802
   21MOL0     H 2724   4.818   9.222   6.888  1.3609  0.8853  0.6278
   21MOL0     H 2725   5.078   9.270   6.919 -1.7588 -1.1839 -0.0177
   21MOL0     H 2726   5.351   9.296   7.168  0.7539  0.5348  0.2005
   21MOL0     H 2727   5.309   9.270   6.998  0.3918 -2.3198 -0.5964
   21MOL0     H 2728   5.354   9.067   7.217  2.6903 -1.9014 -0.6466
   21MOL0     H 2729   5.451   9.079   7.062 -0.7388 -3.4894 -2.2966
   21MOL0     H 2730   5.183   8.973   7.059  0.0870  2.1950 -0.0219
   21MOL0     H 2731   5.278   9.027   6.935  0.6873  2.6512  0.4565
   21MOL0     H 2732   5.356   8.819   7.146 -2.2612 -0.1627  0.5588
   21MOL0     H 2733   5.480   8.867   7.049  1.2684 -1.0262  4.6234
   21MOL0     H 2734   5.465   8.911   6.825  1.9007 -1.0160  0.8736
   21MOL0     H 2735   5.607   8.866   6.632 -0.8565  1.9489  0.6052
   21MOL0     H 2736   5.656   8.592   6.177 -1.8484  0.4489 -2.5640
   21MOL0     H 2737   5.803   8.653   5.975  2.1123 -1.0656  1.7677
   21MOL0     H 2738   5.797   8.797   5.788  0.6850 -1.7578 -1.8116
   21MOL0     H 2739   5.948   8.711   5.820 -1.1715 -1.0847  3.3482
   21MOL0     H 2740   5.981   8.997   5.733 -0.6037 -0.1445  3.3820
   21MOL0     H 2741   5.902   8.881   5.612  0.6825 -4.7255  0.1753
   21MOL0     H 2742   6.069   8.759   5.581 -0.9777  3.0886 -2.8295
   21MOL0     H 2743   6.156   8.794   5.728  2.5370  0.2327 -1.2646
   21MOL0     H 2744   6.098   8.978   5.483 -1.2007  1.7309  0.7756
   21MOL0     H 2745   6.189   9.040   5.623  2.3191  0.8590 -1.7944
   21MOL0     H 2746   6.344   8.851   5.615  0.1802 -1.3139 -1.1712
   21MOL0     H 2747   6.371   8.987   5.511  0.1941 -0.2465 -0.4462
   21MOL0     H 2748   6.225   8.880   5.333  3.1498  0.6034 -2.7983
   21MOL0     H 2749   6.256   8.721   5.432 -0.6689  0.6855 -0.5421
   21MOL0     H 2750   6.451   8.909   5.296  0.0179  0.0145  1.4076
   21MOL0     H 2751   6.492   8.762   5.382 -0.9859  1.4223  2.6698
   21MOL0     H 2752   6.501   8.720   5.138 -0.0502  1.2599  1.9594
   21MOL0     H 2753   6.348   8.795   5.105  1.2553  2.0835 -0.1783
   21MOL0     H 2754   5.853   9.044   6.132  0.5649  0.8330  0.5841
   21MOL0     H 2755   5.787   8.974   6.345 -0.6978  1.0413 -0.6107
   21MOL0     H 2756   5.426   8.476   6.597 -0.2774  1.5785 -2.4369
   21MOL0     H 2757   5.326   8.528   6.827  1.3749  1.3839  1.8250
   21MOL0     H 2758   3.942   9.369   6.986 -2.3252 -0.0055  0.0673
   21MOL0     H 2759   3.749   9.464   7.098 -0.6531 -0.7960 -2.4366
   21MOL0     H 2760   3.511   9.840   7.207  1.7670 -3.4271 -1.9852
   21MOL0     H 2761   3.309   9.943   7.313  1.7582 -2.3565  1.9911
   21MOL0     H 2762   2.845   9.841   7.296 -1.1470  0.3254 -1.6886
   21MOL0     H 2763   2.931   9.696   7.250  1.1109 -1.9555 -3.0334
   21MOL0     H 2764   2.974   9.809   7.026  0.7505 -2.0165  1.3103
   21MOL0     H 2765   2.824   9.721   7.064 -0.7832 -0.3620  0.7247
   21MOL0     H 2766   2.828   9.948   6.937 -3.3038 -2.3746 -0.5254
   21MOL0     H 2767   2.868  10.016   7.097  5.8169 -1.1351 -1.5455
   21MOL0     H 2768   2.615  10.028   7.035  1.2854  1.8383 -0.0494
   21MOL0     H 2769   2.621   9.842   7.029  1.4641 -0.1171 -0.2647
   21MOL0     H 2770   2.571  10.068   7.397 -0.3366 -0.6921 -0.3400
   21MOL0     H 2771   3.084   9.637   7.092 -2.3465  2.4937  0.9627
   21MOL0     H 2772   3.281   9.547   7.010  1.1439  2.5583 -2.4183
   22MOL0     O 2773   3.854   1.264   3.300  0.2054  0.1142  0.2178
   22MOL0     C 2774   3.873   1.379   3.251 -0.0340  0.7030 -0.1025
   22MOL0     O 2775   3.815   1.432   3.148 -0.0365  0.2342  0.4234
   22MOL0     C 2776   3.732   1.359   3.083  0.4188  0.8571  0.3626
   22MOL0     C 2777   3.759   1.325   2.949 -0.5769  0.6373 -0.1156
   22MOL0     C 2778   3.664   1.246   2.869 -0.8770  0.4988 -0.7432
   22MOL0     C 2779   3.535   1.213   2.918  0.6347 -0.4089 -0.4670
   22MOL0     O 2780   3.435   1.169   2.840 -0.2878  0.8963  0.1423
   22MOL0     C 2781   3.295   1.196   2.861 -0.6002  1.0513 -0.1731
   22MOL0     C 2782   3.215   1.168   2.729  0.1069  0.2627  0.0272
   22MOL0     C 2783   3.061   1.167   2.762  0.6854 -0.0582 -0.7504
   22MOL0     C 2784   2.971   1.158   2.642 -1.1015 -0.6655  0.6705
   22MOL0     C 2785   2.840   1.224   2.679 -0.0270 -0.5043  0.3323
   22MOL0     C 2786   2.748   1.220   2.562 -0.5624 -0.1326  0.1146
   22MOL0     C 2787   2.625   1.296   2.569 -0.3550 -0.1640 -0.7700
   22MOL0     C 2788   2.551   1.282   2.704  0.9571  0.3900 -0.5553
   22MOL0     N 2789   2.426   1.365   2.701 -0.4197  0.1731  0.3828
   22MOL0     C 2790   2.424   1.497   2.692  0.0238 -0.5445  0.3875
   22MOL0     C 2791   2.296   1.533   2.653 -0.8854  0.3678 -0.3787
   22MOL0     C 2792   2.243   1.673   2.634 -0.7257  0.1118  0.2223
   22MOL0     C 2793   2.257   1.762   2.759  0.5732 -0.7670  0.7663
   22MOL0     C 2794   2.166   1.884   2.747  0.3194 -1.0293 -0.4123
   22MOL0     C 2795   2.207   1.990   2.851  0.7966  0.5104 -0.0755
   22MOL0     O 2796   2.099   2.073   2.838  0.2995  0.7117 -0.3868
   22MOL0     C 2797   2.080   2.177   2.924 -0.3205  0.5766 -0.7930
   22MOL0     C 2798   1.967   2.260   2.923  0.7692  0.5165 -0.4408
   22MOL0     C 2799   1.960   2.383   2.991  0.8624 -0.5442  0.8821
   22MOL0     C 2800   2.061   2.423   3.077 -0.9097  0.1407 -0.1190
   22MOL0     C 2801   2.056   2.550   3.167  1.1887 -0.4720 -0.0532
   22MOL0     O 2802   1.951   2.645   3.133 -0.1800 -0.4207 -0.6188
   22MOL0     C 2803   1.930   2.755   3.221 -1.5293  0.0519  0.8950
   22MOL0     C 2804   1.799   2.792   3.251  0.3020  0.6436  0.1052
   22MOL0     C 2805   1.773   2.906   3.332 -0.6092 -1.3350 -0.2622
   22MOL0     C 2806   1.875   2.997   3.359 -0.3750 -0.0066 -0.2128
   22MOL0     O 2807   1.840   3.117   3.423 -0.2847 -0.5106  0.2510
   22MOL0     C 2808   1.936   3.220   3.427  0.2770 -0.1723  0.0374
   22MOL0     C 2809   1.892   3.345   3.501  0.4530  0.3482 -0.3766
   22MOL0     C 2810   2.017   3.432   3.530  0.4701 -0.8141  0.0664
   22MOL0     C 2811   2.129   3.383   3.623 -0.6605 -0.0674  0.6988
   22MOL0     C 2812   2.199   3.512   3.666 -0.6358  0.2654 -0.5702
   22MOL0     C 2813   2.319   3.485   3.755  0.2859  0.1109  1.2204
   22MOL0     C 2814   2.362   3.612   3.825  0.6852 -0.0442  0.6426
   22MOL0     C 2815   2.509   3.598   3.868 -0.6927 -0.2782 -0.3140
   22MOL0    Cl 2816   2.626   3.639   3.738  0.1200  0.0067 -0.1914
   22MOL0     C 2817   2.008   2.965   3.313  0.1239  0.2266 -0.0810
   22MOL0     C 2818   2.043   2.839   3.250  0.1450 -0.7544 -0.9369
   22MOL0     O 2819   2.124   2.556   3.267 -0.3776 -0.0787  0.4935
   22MOL0     C 2820   2.174   2.336   3.086 -0.4933  0.9260 -0.5036
   22MOL0     C 2821   2.187   2.220   3.003 -0.4463  0.0455  0.1732
   22MOL0     N 2822   2.215   1.416   2.658 -0.3637 -1.2317  0.7148
   22MOL0     N 2823   2.296   1.322   2.682 -0.1964  0.6822 -0.5893
   22MOL0     C 2824   3.510   1.257   3.055 -0.2678 -0.4774  0.3125
   22MOL0     C 2825   3.604   1.325   3.133  0.0675 -0.0261  0.7263
   22MOL0     C 2826   3.959   1.467   3.338  0.1840  0.8708 -0.0800
   22MOL0     C 2827   3.932   1.600   3.349 -0.8521  0.2626 -0.5782
   22MOL0     C 2828   4.005   1.679   3.436  0.2056  0.3226 -0.6714
   22MOL0     C 2829   4.113   1.627   3.521  0.6147 -0.5090  0.9904
   22MOL0     O 2830   4.203   1.717   3.575 -0.1634 -0.4792 -0.4586
   22MOL0     C 2831   4.218   1.698   3.717 -0.0351  0.3939  0.0964
   22MOL0     C 2832   4.282   1.813   3.782  0.2194  0.4477 -0.9641
   22MOL0     C 2833   4.429   1.784   3.796  0.0471  0.5673 -0.1439
   22MOL0     C 2834   4.486   1.903   3.873  0.0801 -0.4286 -0.1693
   22MOL0     C 2835   4.633   1.900   3.866  1.2856 -1.2549 -0.8092
   22MOL0     C 2836   4.751   1.893   3.848 -0.1876  0.6789  0.1171
   22MOL0     C 2837   4.144   1.489   3.498  0.0908 -0.5070 -0.5631
   22MOL0     C 2838   4.069   1.411   3.410  0.1263  0.6897 -0.7641
   22MOL0     H 2839   3.852   1.366   2.912 -0.6593 -0.3702 -1.4799
   22MOL0     H 2840   3.700   1.233   2.767  2.1575  1.7033  0.0705
   22MOL0     H 2841   3.291   1.301   2.889 -0.3136  0.4443  2.3286
   22MOL0     H 2842   3.252   1.134   2.940 -1.2435 -1.7148 -2.4979
   22MOL0     H 2843   3.241   1.068   2.695  3.2670  0.8627  0.3898
   22MOL0     H 2844   3.234   1.242   2.651 -5.6562  0.9253 -1.2028
   22MOL0     H 2845   3.041   1.263   2.809  1.7546  1.1356 -2.6032
   22MOL0     H 2846   3.019   1.090   2.827  0.3697 -1.9093 -2.9974
   22MOL0     H 2847   3.022   1.212   2.561 -1.0520 -2.0048 -0.2217
   22MOL0     H 2848   2.950   1.056   2.608  0.1993 -0.3039 -1.3774
   22MOL0     H 2849   2.855   1.327   2.714  0.8819 -0.8973  1.1330
   22MOL0     H 2850   2.794   1.172   2.763 -0.8056 -0.1089  0.1638
   22MOL0     H 2851   2.706   1.119   2.554  0.1215 -0.8421  3.7761
   22MOL0     H 2852   2.794   1.238   2.465 -1.3453 -0.5028 -0.3373
   22MOL0     H 2853   2.649   1.403   2.558 -2.6956  0.7324  1.6599
   22MOL0     H 2854   2.554   1.272   2.490 -1.2589 -0.0812 -0.0072
   22MOL0     H 2855   2.603   1.310   2.796 -0.7116 -0.9932  0.8651
   22MOL0     H 2856   2.513   1.181   2.718 -1.1396  0.9090 -2.1068
   22MOL0     H 2857   2.512   1.560   2.704 -1.1479  0.9676  1.3160
   22MOL0     H 2858   2.141   1.662   2.596 -0.2799 -1.2066 -0.6682
   22MOL0     H 2859   2.308   1.714   2.557  2.0792 -1.4902  1.5718
   22MOL0     H 2860   2.362   1.794   2.757  0.7026 -1.1060  1.7118
   22MOL0     H 2861   2.227   1.707   2.848 -0.2720 -2.9664 -0.7977
   22MOL0     H 2862   2.168   1.931   2.648 -0.9609  1.5452  0.7051
   22MOL0     H 2863   2.062   1.867   2.775 -0.3794  1.7583 -1.0383
   22MOL0     H 2864   2.293   2.051   2.822  0.5494  1.0662  0.3374
   22MOL0     H 2865   2.226   1.956   2.953  3.8162  0.3346 -0.6035
   22MOL0     H 2866   1.885   2.235   2.857 -1.2763  0.3563  1.9945
   22MOL0     H 2867   1.868   2.440   2.985  1.4673  0.2875 -1.4853
   22MOL0     H 2868   1.714   2.732   3.219  0.7628 -1.3391  2.2810
   22MOL0     H 2869   1.676   2.941   3.364  0.1787 -1.0001  1.9350
   22MOL0     H 2870   1.957   3.249   3.324  2.5388 -2.3545 -0.2103
   22MOL0     H 2871   2.031   3.189   3.471  0.6019  2.0713  1.0417
   22MOL0     H 2872   1.860   3.303   3.597 -2.3143  0.4854 -1.1560
   22MOL0     H 2873   1.815   3.391   3.440 -0.6795 -1.0205 -0.0435
   22MOL0     H 2874   1.985   3.534   3.555  1.9761  0.0485 -1.3551
   22MOL0     H 2875   2.065   3.447   3.433  2.2981 -0.0703  1.0336
   22MOL0     H 2876   2.081   3.331   3.706  1.8707 -1.1272  1.6071
   22MOL0     H 2877   2.210   3.321   3.584  0.3237  0.8574  1.2084
   22MOL0     H 2878   2.118   3.563   3.718 -0.3322  0.1809 -0.0129
   22MOL0     H 2879   2.218   3.575   3.579 -1.1277  3.5046  1.5284
   22MOL0     H 2880   2.403   3.455   3.692 -2.2062  2.1992 -3.6505
   22MOL0     H 2881   2.289   3.410   3.828 -2.3684 -1.2045 -1.0143
   22MOL0     H 2882   2.348   3.700   3.761  0.6846  0.7030  1.6510
   22MOL0     H 2883   2.298   3.628   3.912 -2.8309 -0.3484 -1.7170
   22MOL0     H 2884   2.530   3.497   3.905 -0.5041 -0.5663 -1.1873
   22MOL0     H 2885   2.521   3.667   3.952  3.8962 -2.1572  0.8988
   22MOL0     H 2886   2.092   3.032   3.322  0.0291  0.2971  0.3410
   22MOL0     H 2887   2.150   2.824   3.238  0.2857  0.0747 -0.8206
   22MOL0     H 2888   2.258   2.360   3.150  0.2834 -1.1971 -0.6700
   22MOL0     H 2889   2.287   2.179   3.013 -1.6945 -3.0369  1.2310
   22MOL0     H 2890   3.413   1.245   3.102 -1.3551 -0.2445 -1.7923
   22MOL0     H 2891   3.567   1.354   3.231 -0.0656  3.5626 -0.2549
   22MOL0     H 2892   3.859   1.654   3.290 -1.8688  2.4012  2.3804
   22MOL0     H 2893   3.985   1.785   3.451  2.5749  0.7548 -0.2702
   22MOL0     H 2894   4.278   1.609   3.740 -0.4905  0.6594  2.6405
   22MOL0     H 2895   4.121   1.688   3.768 -1.9858  2.4998 -2.8597
   22MOL0     H 2896   4.258   1.895   3.714  0.3048  0.1998 -1.2924
   22MOL0     H 2897   4.228   1.816   3.878 -0.5161 -1.0915 -1.2927
   22MOL0     H 2898   4.490   1.755   3.710 -0.8605 -2.1285  0.0176
   22MOL0     H 2899   4.447   1.694   3.856 -2.7117  0.0123 -0.0464
   22MOL0     H 2900   4.463   1.996   3.821 -2.0970 -0.5711  0.4354
   22MOL0     H 2901   4.460   1.922   3.977 -1.5581 -1.5956 -0.3321
   22MOL0     H 2902   4.858   1.888   3.848 -0.2107  0.1317  0.1223
   22MOL0     H 2903   4.232   1.444   3.544 -0.5918 -2.1861 -0.8209
   22MOL0     H 2904   4.086   1.304   3.421 -1.9386  0.4690  1.1896
   23MOL0     O 2905   7.575  10.566   1.554 -0.3593 -0.1679  1.0383
   23MOL0     C 2906   7.487  10.619   1.617  0.6709  0.0622  0.1149
   23MOL0     O 2907   7.383  10.554   1.687 -0.0890  0.0771 -0.6944
   23MOL0     C 2908   7.380  10.419   1.699 -1.8631 -0.0432 -0.6421
   23MOL0     C 2909   7.452  10.314   1.630 -0.1939 -0.6805 -0.5285
   23MOL0     C 2910   7.427  10.184   1.665 -0.2829  0.3220 -1.5485
   23MOL0     C 2911   7.329  10.149   1.766  0.0695 -0.7148 -0.2025
   23MOL0     O 2912   7.296  10.022   1.815  0.0011 -0.6687  0.3349
   23MOL0     C 2913   7.327   9.906   1.743  0.3287  0.9862  0.0985
   23MOL0     C 2914   7.226   9.799   1.788 -0.1443  0.1822  0.1749
   23MOL0     C 2915   7.080   9.854   1.755 -0.0796 -0.3932 -0.4976
   23MOL0     C 2916   6.963   9.768   1.799  0.0828 -0.3025 -0.6227
   23MOL0     C 2917   6.937   9.651   1.698  0.4288 -0.4619  0.2296
   23MOL0     C 2918   6.851   9.537   1.751 -0.5383 -0.5070 -0.6980
   23MOL0     C 2919   6.943   9.436   1.837 -1.3749 -0.1503  0.8237
   23MOL0     C 2920   6.872   9.306   1.882 -0.4403  0.4137  0.7141
   23MOL0     N 2921   6.947   9.212   1.964  0.0193 -0.1456 -0.0071
   23MOL0     C 2922   6.925   9.078   1.960  0.2272 -0.7602 -0.0772
   23MOL0     C 2923   7.019   9.019   2.039 -0.0536 -0.1932 -0.5925
   23MOL0     C 2924   7.029   8.873   2.071  0.9393  0.3074  0.1964
   23MOL0     C 2925   7.171   8.830   2.113  0.2041  0.2077 -0.2774
   23MOL0     C 2926   7.186   8.685   2.120 -0.4775 -0.4118  0.7574
   23MOL0     C 2927   7.290   8.643   2.218 -1.0192  0.3311  0.1696
   23MOL0     O 2928   7.243   8.689   2.349 -0.5732  0.7918 -0.5921
   23MOL0     C 2929   7.347   8.722   2.442  1.0925  0.0098 -0.1686
   23MOL0     C 2930   7.328   8.818   2.543 -0.4428  0.5317 -0.1604
   23MOL0     C 2931   7.421   8.844   2.647  0.1444 -0.5267 -0.1335
   23MOL0     C 2932   7.555   8.786   2.638  0.5720 -0.7505  0.0065
   23MOL0     C 2933   7.664   8.823   2.720  0.0867 -0.1979 -0.2888
   23MOL0     O 2934   7.640   8.917   2.817 -0.0260 -0.1245 -0.1385
   23MOL0     C 2935   7.736   8.956   2.903  0.2406 -0.0083 -0.3807
   23MOL0     C 2936   7.852   9.029   2.866 -0.4543  0.6073 -0.3155
   23MOL0     C 2937   7.937   9.094   2.958  0.1177  1.6317 -0.1537
   23MOL0     C 2938   7.898   9.093   3.095 -0.3121 -0.1861  0.1785
   23MOL0     O 2939   7.982   9.148   3.191 -0.2547  0.8800 -0.0151
   23MOL0     C 2940   8.026   9.285   3.169  0.2801 -0.7817 -0.3275
   23MOL0     C 2941   8.107   9.323   3.300  0.0785 -0.4110 -0.2447
   23MOL0     C 2942   8.202   9.212   3.344 -1.2006 -0.0803  0.5545
   23MOL0     C 2943   8.310   9.278   3.437  1.0033 -0.0526  0.0176
   23MOL0     C 2944   8.425   9.187   3.481  0.6106 -0.1800 -0.2283
   23MOL0     C 2945   8.543   9.262   3.544  0.5864  0.6541  1.1149
   23MOL0     C 2946   8.668   9.177   3.557  0.2702 -0.2139 -0.4516
   23MOL0     C 2947   8.646   9.098   3.687  0.5219  0.2051  0.8511
   23MOL0    Cl 2948   8.805   9.020   3.714 -0.7977 -0.0587  0.6754
   23MOL0     C 2949   7.794   9.010   3.133 -0.1910  0.3078  0.4719
   23MOL0     C 2950   7.704   8.953   3.038 -0.1166  1.2645  0.1038
   23MOL0     O 2951   7.768   8.780   2.689  0.0231 -1.2528 -0.2995
   23MOL0     C 2952   7.572   8.681   2.544  0.0376  0.4400  0.4352
   23MOL0     C 2953   7.471   8.646   2.458  0.0668  0.0539  0.5689
   23MOL0     N 2954   7.099   9.119   2.099  0.5781 -0.5762 -0.0737
   23MOL0     N 2955   7.055   9.234   2.050 -0.3879  0.1056  0.0754
   23MOL0     C 2956   7.259  10.250   1.833 -0.3124 -0.0739 -0.0394
   23MOL0     C 2957   7.288  10.382   1.800  0.0464 -0.2579  1.1063
   23MOL0     C 2958   7.502  10.768   1.642  0.4488  0.8473  0.5284
   23MOL0     C 2959   7.604  10.841   1.583 -0.1916 -0.3904  0.0906
   23MOL0     C 2960   7.605  10.984   1.588 -0.0217 -0.5264 -1.5336
   23MOL0     C 2961   7.495  11.053   1.642  0.1819  0.4996 -0.1932
   23MOL0     O 2962   7.506  11.186   1.658 -0.3412 -0.2257  0.4706
   23MOL0     C 2963   7.502  11.240   1.801 -1.1289  0.4664  1.1788
   23MOL0     C 2964   7.486  11.392   1.793 -0.6080  0.0560  0.0808
   23MOL0     C 2965   7.541  11.465   1.919  0.5960 -0.6313 -0.4200
   23MOL0     C 2966   7.443  11.511   2.025  0.7882 -0.0174  0.7606
   23MOL0     C 2967   7.352  11.621   1.977 -0.3454 -0.8280  0.7033
   23MOL0     C 2968   7.284  11.716   1.936  0.1128  0.0371 -0.3573
   23MOL0     C 2969   7.392  10.975   1.688  0.1860 -0.0468 -0.5669
   23MOL0     C 2970   7.397  10.837   1.696 -0.1929 -0.9964 -0.3697
   23MOL0     H 2971   7.527  10.341   1.556 -0.2483  1.9370  0.2804
   23MOL0     H 2972   7.480  10.103   1.615 -2.0656  0.3820 -3.6696
   23MOL0     H 2973   7.422   9.867   1.779  0.1333 -0.8139 -1.1911
   23MOL0     H 2974   7.337   9.916   1.635  2.5573 -0.6116  0.0851
   23MOL0     H 2975   7.243   9.776   1.893  3.1786  3.2302  0.4841
   23MOL0     H 2976   7.246   9.702   1.742 -3.0815 -0.2788 -0.3585
   23MOL0     H 2977   7.084   9.880   1.649  0.7452 -5.7335 -2.0660
   23MOL0     H 2978   7.082   9.947   1.813 -2.0176 -1.1854  0.9699
   23MOL0     H 2979   6.979   9.725   1.898 -1.0124 -2.1542 -1.1845
   23MOL0     H 2980   6.872   9.829   1.799 -0.9442 -1.7434 -1.5165
   23MOL0     H 2981   7.031   9.612   1.661 -0.2895 -0.1470 -2.0725
   23MOL0     H 2982   6.888   9.705   1.616  1.6250  3.0101  1.6000
   23MOL0     H 2983   6.806   9.492   1.662 -1.8251 -1.2510  0.2908
   23MOL0     H 2984   6.771   9.579   1.813 -0.6387  1.9318 -2.3422
   23MOL0     H 2985   7.034   9.412   1.781 -0.0852  2.3864  1.6985
   23MOL0     H 2986   6.974   9.495   1.923  0.9266 -0.0208 -0.0172
   23MOL0     H 2987   6.826   9.245   1.804 -3.2411  2.8156  0.2907
   23MOL0     H 2988   6.784   9.348   1.933  0.1843 -0.9099  3.0183
   23MOL0     H 2989   6.841   9.023   1.920  1.0273 -1.6166 -0.6057
   23MOL0     H 2990   7.001   8.836   1.972  2.4646 -1.3429  0.3480
   23MOL0     H 2991   6.939   8.856   2.131 -1.6887 -0.3029 -3.5889
   23MOL0     H 2992   7.197   8.888   2.202 -0.8798  3.7044 -2.0565
   23MOL0     H 2993   7.230   8.872   2.032 -2.0288  2.7554 -0.7492
   23MOL0     H 2994   7.095   8.641   2.161 -1.5336 -0.6511 -1.6333
   23MOL0     H 2995   7.214   8.644   2.023 -0.2902  3.7853 -1.1964
   23MOL0     H 2996   7.389   8.681   2.189  0.8427 -3.2948  1.2540
   23MOL0     H 2997   7.296   8.534   2.212 -2.1183  0.2917 -0.6590
   23MOL0     H 2998   7.236   8.875   2.548 -0.5008  0.9298 -3.4924
   23MOL0     H 2999   7.396   8.932   2.704 -0.2179 -0.2057 -0.7746
   23MOL0     H 3000   7.877   9.033   2.760  2.4425  2.0005  0.3192
   23MOL0     H 3001   8.029   9.143   2.930  0.1972  0.8749 -1.2804
   23MOL0     H 3002   7.941   9.352   3.149  0.3139  0.1604  2.3652
   23MOL0     H 3003   8.106   9.299   3.095 -0.4550 -1.5733 -1.3016
   23MOL0     H 3004   8.035   9.350   3.378  0.3413  0.3038 -0.2348
   23MOL0     H 3005   8.163   9.413   3.273  0.9830 -0.5271  1.1070
   23MOL0     H 3006   8.254   9.165   3.260 -2.2460 -0.8886  0.3167
   23MOL0     H 3007   8.139   9.132   3.385  0.5396 -0.5911  2.3972
   23MOL0     H 3008   8.352   9.368   3.391  1.8100 -0.2209  0.4007
   23MOL0     H 3009   8.263   9.312   3.530 -0.0883 -1.2959 -0.0571
   23MOL0     H 3010   8.460   9.146   3.386 -0.2437  2.8678 -2.0098
   23MOL0     H 3011   8.390   9.109   3.549  3.6150 -3.2342 -1.9058
   23MOL0     H 3012   8.513   9.301   3.641 -1.1963 -2.6540  2.0361
   23MOL0     H 3013   8.573   9.342   3.476  1.2786 -2.4116 -2.5569
   23MOL0     H 3014   8.687   9.114   3.470  1.9384 -2.9422  1.7319
   23MOL0     H 3015   8.750   9.245   3.583 -0.5369  0.7052 -0.2316
   23MOL0     H 3016   8.557   9.036   3.679 -1.5167  2.9676  0.5581
   23MOL0     H 3017   8.643   9.170   3.769 -0.0107  1.0619  0.0995
   23MOL0     H 3018   7.792   8.996   3.240  3.4098  2.1129  0.9352
   23MOL0     H 3019   7.614   8.903   3.072  0.5356  0.0883  0.1398
   23MOL0     H 3020   7.656   8.612   2.553 -1.7439 -1.7076  1.4815
   23MOL0     H 3021   7.497   8.565   2.390  0.3342  0.6158 -0.0100
   23MOL0     H 3022   7.188  10.223   1.911 -0.2139  0.4777  0.2454
   23MOL0     H 3023   7.226  10.460   1.844 -0.8324 -1.3605  1.8834
   23MOL0     H 3024   7.689  10.789   1.540 -0.4523 -0.8499  0.1178
   23MOL0     H 3025   7.691  11.036   1.545 -1.3031  0.8614 -2.5047
   23MOL0     H 3026   7.602  11.223   1.842  0.3963 -0.5235 -2.4872
   23MOL0     H 3027   7.424  11.192   1.860 -2.7229  1.6711  0.1539
   23MOL0     H 3028   7.548  11.434   1.713 -0.5458 -0.6959 -0.2770
   23MOL0     H 3029   7.379  11.412   1.779 -0.7899 -1.1589 -0.3602
   23MOL0     H 3030   7.581  11.560   1.883  2.0694  0.0113  2.6087
   23MOL0     H 3031   7.615  11.402   1.970  2.1764  1.0011 -0.6060
   23MOL0     H 3032   7.378  11.425   2.045  0.0334 -0.0771 -1.6569
   23MOL0     H 3033   7.487  11.530   2.123 -0.2449 -0.5439  1.3440
   23MOL0     H 3034   7.219  11.779   1.879  0.6716  0.6757 -0.3006
   23MOL0     H 3035   7.305  11.031   1.722 -0.5719  0.1841 -2.7188
   23MOL0     H 3036   7.306  10.787   1.728  1.4463 -3.7553  0.3724
   24MOL0     O 3037   5.128   7.286   2.337  0.6335  0.9381 -0.0944
   24MOL0     C 3038   5.142   7.278   2.216 -0.3123 -0.7205  0.7900
   24MOL0     O 3039   5.043   7.283   2.119  1.0872 -0.0037  1.0076
   24MOL0     C 3040   4.956   7.378   2.146 -0.9204  0.9885 -0.5094
   24MOL0     C 3041   4.831   7.339   2.183  0.1878  0.2080  0.5799
   24MOL0     C 3042   4.733   7.431   2.199  0.4398 -0.7897 -0.2238
   24MOL0     C 3043   4.753   7.570   2.186 -0.2646  0.7042  0.1497
   24MOL0     O 3044   4.657   7.668   2.192 -0.3374  0.3311  1.0296
   24MOL0     C 3045   4.534   7.639   2.251 -1.2881 -0.1789 -0.5761
   24MOL0     C 3046   4.473   7.780   2.299  0.2008  1.0373  0.3026
   24MOL0     C 3047   4.556   7.849   2.401  0.1259 -0.0967 -0.7873
   24MOL0     C 3048   4.508   7.973   2.468 -0.1077 -0.1766 -0.0556
   24MOL0     C 3049   4.549   8.098   2.392  0.1601 -0.2239  0.3236
   24MOL0     C 3050   4.488   8.216   2.467 -0.3097  0.9647  0.1894
   24MOL0     C 3051   4.520   8.345   2.401 -0.3375 -0.6864 -0.2984
   24MOL0     C 3052   4.665   8.376   2.418 -0.2005 -0.1272  0.6531
   24MOL0     N 3053   4.689   8.523   2.397  0.3139  0.4964 -0.3686
   24MOL0     C 3054   4.606   8.613   2.341  0.0701  0.0006  0.6950
   24MOL0     C 3055   4.642   8.739   2.385 -0.1803  0.5201 -0.0056
   24MOL0     C 3056   4.570   8.872   2.380  0.1923  0.2634 -1.0519
   24MOL0     C 3057   4.432   8.844   2.433  0.5159 -0.1223  0.0623
   24MOL0     C 3058   4.346   8.980   2.444 -0.3461  0.6042 -0.4386
   24MOL0     C 3059   4.204   8.955   2.466  0.4452  0.0496  1.7356
   24MOL0     O 3060   4.152   8.915   2.335  0.2672 -0.4578 -0.7057
   24MOL0     C 3061   4.021   8.881   2.352 -1.0926 -1.1514 -0.4242
   24MOL0     C 3062   3.962   8.788   2.275 -0.3816  0.4852  1.2190
   24MOL0     C 3063   3.825   8.747   2.276  0.5446 -1.4260  0.5150
   24MOL0     C 3064   3.739   8.838   2.349 -0.6449  0.8660  0.2545
   24MOL0     C 3065   3.594   8.834   2.339  0.4072  0.6001 -0.6003
   24MOL0     O 3066   3.555   8.773   2.231 -0.4059  0.1427 -0.3247
   24MOL0     C 3067   3.431   8.809   2.178 -0.1771 -0.8631 -0.4895
   24MOL0     C 3068   3.308   8.793   2.240  0.4963  0.4715  0.3796
   24MOL0     C 3069   3.190   8.843   2.176  0.6119 -0.8034  0.2122
   24MOL0     C 3070   3.200   8.905   2.056  0.4948 -1.9391 -1.2450
   24MOL0     O 3071   3.081   8.913   2.003 -0.9603  0.5159 -0.0062
   24MOL0     C 3072   3.065   9.027   1.910  0.0805  0.2650  0.7442
   24MOL0     C 3073   3.010   9.148   1.995  0.0725  1.3381 -0.6319
   24MOL0     C 3074   2.886   9.114   2.091  0.1751  0.1901 -0.7794
   24MOL0     C 3075   2.748   9.096   2.021 -0.5543 -0.4004  0.8054
   24MOL0     C 3076   2.699   9.229   1.954  0.3600 -0.2544 -1.0595
   24MOL0     C 3077   2.697   9.203   1.800  0.6101  0.3770 -0.5194
   24MOL0     C 3078   2.655   9.336   1.726  0.5410  0.1889  0.6029
   24MOL0     C 3079   2.502   9.365   1.712 -0.3700 -0.2097  0.3357
   24MOL0    Cl 3080   2.427   9.212   1.656 -0.2280  0.0170 -0.5113
   24MOL0     C 3081   3.317   8.896   1.982 -0.1874 -0.2953  0.3447
   24MOL0     C 3082   3.435   8.853   2.048 -1.3156  0.0982  0.0109
   24MOL0     O 3083   3.519   8.894   2.418 -0.7109 -0.4135 -0.0104
   24MOL0     C 3084   3.802   8.922   2.450  0.6459 -0.3586  1.5860
   24MOL0     C 3085   3.937   8.942   2.452  0.4846  0.8974  0.5394
   24MOL0     N 3086   4.770   8.709   2.457 -0.3460  0.3574  0.5693
   24MOL0     N 3087   4.796   8.582   2.460  0.2640 -0.2805 -0.4072
   24MOL0     C 3088   4.882   7.610   2.167 -1.4093 -0.4085  0.2658
   24MOL0     C 3089   4.980   7.515   2.139 -0.2978  0.3089  0.8547
   24MOL0     C 3090   5.271   7.206   2.167 -0.6502  0.0736  0.1573
   24MOL0     C 3091   5.360   7.147   2.259 -0.1548  0.0408  0.4328
   24MOL0     C 3092   5.481   7.084   2.218 -0.1459 -0.3578 -0.1834
   24MOL0     C 3093   5.513   7.075   2.079 -0.0133 -0.6275  0.1913
   24MOL0     O 3094   5.625   7.011   2.026  0.0375  0.5210  0.0039
   24MOL0     C 3095   5.704   6.915   2.101  0.3961  0.1905 -0.0923
   24MOL0     C 3096   5.627   6.803   2.154 -0.6800 -0.7347  0.2030
   24MOL0     C 3097   5.566   6.710   2.039 -0.8909  0.0035 -0.7866
   24MOL0     C 3098   5.652   6.598   1.995 -0.6513  0.6847  0.3106
   24MOL0     C 3099   5.698   6.506   2.098 -0.1610  0.7093 -0.1795
   24MOL0     C 3100   5.719   6.452   2.204  0.3947  1.3049 -0.0832
   24MOL0     C 3101   5.424   7.128   1.981  0.7759  0.9170  0.4789
   24MOL0     C 3102   5.300   7.185   2.023 -0.2408 -0.6164 -0.1256
   24MOL0     H 3103   4.798   7.237   2.169 -1.6653  1.0475 -1.7459
   24MOL0     H 3104   4.634   7.390   2.217  0.4261 -0.5109  0.3786
   24MOL0     H 3105   4.544   7.573   2.338 -3.0739  0.5710  0.2408
   24MOL0     H 3106   4.470   7.586   2.180 -0.7124 -1.4914 -0.1531
   24MOL0     H 3107   4.379   7.743   2.342  0.8571 -4.4574 -2.1077
   24MOL0     H 3108   4.456   7.844   2.212  2.6737  3.4675  1.4791
   24MOL0     H 3109   4.663   7.863   2.383 -0.0113  0.4801 -1.1854
   24MOL0     H 3110   4.568   7.770   2.475 -2.1006  0.7115  0.5330
   24MOL0     H 3111   4.400   7.967   2.481 -0.3518  0.7515 -1.4726
   24MOL0     H 3112   4.547   7.970   2.570  0.6656 -0.9167 -0.3521
   24MOL0     H 3113   4.513   8.088   2.289  0.2473 -1.0002  0.3601
   24MOL0     H 3114   4.658   8.103   2.391  0.2126 -0.9408  1.5034
   24MOL0     H 3115   4.522   8.217   2.571 -0.2490  0.1479  0.1838
   24MOL0     H 3116   4.380   8.199   2.465 -0.1675 -0.2151  0.9336
   24MOL0     H 3117   4.494   8.354   2.295  2.1187 -2.4016 -1.1351
   24MOL0     H 3118   4.463   8.418   2.459 -1.0390 -2.3661  1.2007
   24MOL0     H 3119   4.721   8.315   2.348 -1.0119  0.9525 -1.0068
   24MOL0     H 3120   4.689   8.343   2.520 -0.0873 -1.4033  0.2346
   24MOL0     H 3121   4.513   8.603   2.285  1.0031  1.2056 -1.1779
   24MOL0     H 3122   4.558   8.906   2.277 -3.4949  0.6437 -0.6329
   24MOL0     H 3123   4.628   8.951   2.428  1.1284 -0.2164 -1.3704
   24MOL0     H 3124   4.428   8.793   2.530 -0.1828 -1.4344 -0.6287
   24MOL0     H 3125   4.368   8.790   2.363 -2.4913  1.8585  1.0841
   24MOL0     H 3126   4.384   9.058   2.511  2.2072 -0.4625 -0.5429
   24MOL0     H 3127   4.348   9.035   2.349 -0.0025  2.8732  0.8066
   24MOL0     H 3128   4.159   9.049   2.498  0.2426 -0.6566  3.6830
   24MOL0     H 3129   4.180   8.868   2.528 -3.6282  2.7577  4.4311
   24MOL0     H 3130   4.024   8.727   2.210 -0.8913  0.5387  0.6727
   24MOL0     H 3131   3.791   8.666   2.211  0.0303 -1.5637  0.9460
   24MOL0     H 3132   3.308   8.750   2.339 -3.3411 -2.1216 -0.5269
   24MOL0     H 3133   3.096   8.842   2.231  1.2091  0.7789  1.3302
   24MOL0     H 3134   2.998   9.002   1.827 -1.1208  1.8460  1.1941
   24MOL0     H 3135   3.157   9.063   1.862  0.5494 -0.4415  1.0989
   24MOL0     H 3136   2.990   9.232   1.928  1.2534  1.5286 -0.7649
   24MOL0     H 3137   3.100   9.175   2.050  0.3414 -0.3648 -0.1779
   24MOL0     H 3138   2.869   9.193   2.164 -0.2172 -0.9704  0.4058
   24MOL0     H 3139   2.920   9.021   2.139 -0.2223 -1.0184 -2.7223
   24MOL0     H 3140   2.750   9.014   1.948  0.0077  0.4170 -0.1274
   24MOL0     H 3141   2.674   9.072   2.098  1.0144 -0.1516  2.4532
   24MOL0     H 3142   2.767   9.310   1.981  0.5019 -0.7297  0.0832
   24MOL0     H 3143   2.600   9.262   1.990 -0.1765  0.4942 -3.1106
   24MOL0     H 3144   2.627   9.120   1.786 -0.7580  0.8224  2.7440
   24MOL0     H 3145   2.786   9.167   1.748  1.0392 -0.5008  0.7753
   24MOL0     H 3146   2.706   9.425   1.765  2.2739 -0.6770  0.4114
   24MOL0     H 3147   2.696   9.317   1.627  1.4440 -3.4387  1.5164
   24MOL0     H 3148   2.492   9.444   1.637 -4.8363  0.9283  1.7985
   24MOL0     H 3149   2.454   9.405   1.802  2.7443  0.7690  1.7006
   24MOL0     H 3150   3.329   8.930   1.879 -3.1788 -0.4995 -0.1588
   24MOL0     H 3151   3.523   8.862   1.985 -1.0584 -1.5138  0.0863
   24MOL0     H 3152   3.748   8.984   2.520 -2.0430  0.4915 -1.0259
   24MOL0     H 3153   3.958   9.023   2.521 -1.0597  1.8361 -0.0319
   24MOL0     H 3154   4.906   7.715   2.154  2.4185 -0.9553  1.6579
   24MOL0     H 3155   5.076   7.538   2.094  0.5153 -2.9051  0.6854
   24MOL0     H 3156   5.335   7.147   2.365  1.6166 -2.2538  0.9232
   24MOL0     H 3157   5.551   7.040   2.289 -0.5001 -1.2248 -0.3565
   24MOL0     H 3158   5.759   6.964   2.182 -0.1093 -0.5622  0.7320
   24MOL0     H 3159   5.780   6.883   2.030 -0.7236  0.6097 -1.5268
   24MOL0     H 3160   5.693   6.752   2.224 -2.0053 -0.2485  1.8649
   24MOL0     H 3161   5.541   6.836   2.213  0.5732  1.3778  0.9627
   24MOL0     H 3162   5.546   6.772   1.951  0.6781 -0.0177 -1.1967
   24MOL0     H 3163   5.472   6.672   2.081  0.8482 -0.1446  3.4404
   24MOL0     H 3164   5.593   6.535   1.928  1.2498 -1.0827  0.1903
   24MOL0     H 3165   5.733   6.647   1.940 -0.2233 -2.8761 -2.6679
   24MOL0     H 3166   5.717   6.424   2.307  1.2495  0.3769 -0.3009
   24MOL0     H 3167   5.425   7.112   1.874  1.6768 -1.3459  0.7777
   24MOL0     H 3168   5.230   7.209   1.943 -0.4550  2.5824  0.8536
   25MOL0     O 3169   8.559  10.684   9.246  0.4148 -0.2408 -0.1127
   25MOL0     C 3170   8.657  10.714   9.316  1.1777  0.0907 -1.1816
   25MOL0     O 3171   8.746  10.806   9.285 -0.3420 -0.1371 -0.1577
   25MOL0     C 3172   8.753  10.852   9.155  0.4326 -0.4869  0.6233
   25MOL0     C 3173   8.768  10.983   9.131 -0.2809  0.1078  0.2373
   25MOL0     C 3174   8.770  11.045   9.000 -0.5691  0.1296 -0.7775
   25MOL0     C 3175   8.761  10.964   8.891  0.3102  0.0773 -1.4070
   25MOL0     O 3176   8.784  11.003   8.762  0.7693 -0.4756 -0.2886
   25MOL0     C 3177   8.716  11.116   8.707 -0.3240 -0.0341 -0.3059
   25MOL0     C 3178   8.814  11.199   8.626  0.4282  1.0173  0.2959
   25MOL0     C 3179   8.864  11.122   8.501 -0.1098  0.2976  0.6629
   25MOL0     C 3180   8.755  11.119   8.388 -0.7778  0.3171 -0.6070
   25MOL0     C 3181   8.662  11.232   8.360 -0.5691  0.3306  0.3662
   25MOL0     C 3182   8.739  11.348   8.318  0.6395 -0.4563 -0.2029
   25MOL0     C 3183   8.805  11.329   8.183  0.3776 -0.4642 -0.0069
   25MOL0     C 3184   8.845  11.465   8.108  0.6511  0.2446 -0.4377
   25MOL0     N 3185   8.724  11.531   8.060  0.3485 -0.9470 -0.2775
   25MOL0     C 3186   8.683  11.654   8.089 -0.5913 -0.7871 -0.2931
   25MOL0     C 3187   8.590  11.686   7.995  0.3066 -0.3133  0.0481
   25MOL0     C 3188   8.526  11.819   7.978  0.1511  0.7272  1.3924
   25MOL0     C 3189   8.518  11.898   8.110  1.1817  0.1072 -0.2033
   25MOL0     C 3190   8.428  11.833   8.218 -0.1367  0.9743 -0.8227
   25MOL0     C 3191   8.428  11.933   8.341 -0.5418  0.1735 -0.6523
   25MOL0     O 3192   8.348  12.048   8.301 -0.2860  0.1818  0.1515
   25MOL0     C 3193   8.378  12.166   8.353  0.4375  0.2695 -0.4128
   25MOL0     C 3194   8.391  12.276   8.268 -0.4156  0.3391 -0.8117
   25MOL0     C 3195   8.433  12.400   8.323  0.3792 -0.0335  0.8530
   25MOL0     C 3196   8.466  12.410   8.461  0.1264 -0.0613 -0.9276
   25MOL0     C 3197   8.540  12.521   8.525  1.1184  0.4881  0.3208
   25MOL0     O 3198   8.525  12.554   8.657 -0.6880 -0.2525 -0.9308
   25MOL0     C 3199   8.572  12.682   8.687  0.2235  0.0890 -0.3170
   25MOL0     C 3200   8.496  12.795   8.675  0.4405  0.1006  0.1355
   25MOL0     C 3201   8.535  12.918   8.724 -0.7598  0.3652  0.3866
   25MOL0     C 3202   8.650  12.928   8.790 -0.7852 -0.2239  0.4707
   25MOL0     O 3203   8.699  13.060   8.820  0.4335 -0.4102 -0.5605
   25MOL0     C 3204   8.615  13.143   8.906 -0.9056 -0.1955 -0.1435
   25MOL0     C 3205   8.599  13.284   8.861  0.1333 -1.0114 -0.0299
   25MOL0     C 3206   8.726  13.369   8.886  0.3833 -0.6388  1.2307
   25MOL0     C 3207   8.704  13.511   8.836  0.7170 -0.6133  0.5429
   25MOL0     C 3208   8.725  13.529   8.685  0.3972  0.0829  0.3063
   25MOL0     C 3209   8.772  13.680   8.661 -0.1446  0.1209  0.3529
   25MOL0     C 3210   8.797  13.707   8.510 -0.8138 -0.3109 -0.3360
   25MOL0     C 3211   8.881  13.833   8.481 -0.3733 -0.6681 -0.1240
   25MOL0    Cl 3212   8.779  13.981   8.507 -0.0445  0.2172  0.0391
   25MOL0     C 3213   8.742  12.818   8.796 -0.8030 -0.3283  1.3476
   25MOL0     C 3214   8.694  12.694   8.755 -0.3132 -0.2278 -0.3776
   25MOL0     O 3215   8.597  12.596   8.441  0.4375  0.4250 -0.0644
   25MOL0     C 3216   8.447  12.299   8.546  0.5653  0.2403  0.1345
   25MOL0     C 3217   8.387  12.181   8.495  0.2060 -0.9338  1.2130
   25MOL0     N 3218   8.566  11.574   7.919 -0.1956 -0.0648  0.1116
   25MOL0     N 3219   8.644  11.482   7.965 -1.0105 -0.1028  0.0530
   25MOL0     C 3220   8.762  10.823   8.910  0.4959 -0.6454  0.0185
   25MOL0     C 3221   8.745  10.769   9.042 -0.1371 -1.3088  0.4464
   25MOL0     C 3222   8.676  10.659   9.451  0.4035  0.0203  0.0380
   25MOL0     C 3223   8.574  10.570   9.484  0.3148  1.5147  0.1414
   25MOL0     C 3224   8.577  10.504   9.607  0.2700  0.1388  0.1627
   25MOL0     C 3225   8.683  10.512   9.697  0.1282 -1.0645  0.5468
   25MOL0     O 3226   8.675  10.445   9.810  0.5386 -0.3889 -0.9396
   25MOL0     C 3227   8.725  10.309   9.789  0.3113 -0.4716  0.5072
   25MOL0     C 3228   8.611  10.208   9.794 -0.5586 -0.4553 -0.2256
   25MOL0     C 3229   8.652  10.067   9.751 -0.3290 -0.2313  0.1312
   25MOL0     C 3230   8.547  10.003   9.660  0.2547 -0.3485 -0.0947
   25MOL0     C 3231   8.568  10.045   9.521 -0.5033 -0.6914 -0.1485
   25MOL0     C 3232   8.617  10.068   9.413 -0.7798  0.5793  0.0137
   25MOL0     C 3233   8.776  10.614   9.670 -0.4828  0.6128 -0.2182
   25MOL0     C 3234   8.777  10.690   9.550  0.6622 -1.3465 -0.1468
   25MOL0     H 3235   8.778  11.048   9.217 -3.2055  1.2865 -0.1990
   25MOL0     H 3236   8.775  11.153   8.993 -0.9513  0.5192  2.9571
   25MOL0     H 3237   8.673  11.184   8.781 -0.6122  1.2200 -1.5824
   25MOL0     H 3238   8.638  11.082   8.639  0.6008 -1.4876 -0.6777
   25MOL0     H 3239   8.905  11.206   8.684  0.8527 -2.4569  0.3052
   25MOL0     H 3240   8.757  11.290   8.608 -1.5863  0.5687  3.5121
   25MOL0     H 3241   8.897  11.025   8.537 -1.5237  0.9910  4.2777
   25MOL0     H 3242   8.946  11.177   8.454 -0.9237  1.1261  0.1674
   25MOL0     H 3243   8.807  11.097   8.295  1.4406 -2.0840  1.0465
   25MOL0     H 3244   8.693  11.031   8.404 -0.7216  0.4957  0.7906
   25MOL0     H 3245   8.607  11.256   8.451 -0.2920 -1.5685  1.0702
   25MOL0     H 3246   8.602  11.195   8.277  1.1041  1.0122 -1.2165
   25MOL0     H 3247   8.812  11.388   8.389  1.1135 -2.1404  0.2911
   25MOL0     H 3248   8.671  11.433   8.305 -0.9560 -1.5186  1.0035
   25MOL0     H 3249   8.896  11.269   8.184  0.6585 -0.1699 -2.1351
   25MOL0     H 3250   8.734  11.280   8.116  0.1318 -2.1140  1.4040
   25MOL0     H 3251   8.901  11.440   8.017 -3.4068 -1.7559 -2.6743
   25MOL0     H 3252   8.898  11.528   8.179 -0.8623  2.3827 -1.1163
   25MOL0     H 3253   8.736  11.731   8.145 -0.6574  0.8008 -2.3110
   25MOL0     H 3254   8.430  11.802   7.927 -0.2552  4.5913  0.5155
   25MOL0     H 3255   8.573  11.869   7.893 -1.1300 -3.9075 -2.4837
   25MOL0     H 3256   8.488  11.999   8.082  4.6021  1.2766 -0.0480
   25MOL0     H 3257   8.614  11.927   8.153  1.9011  2.5839 -3.1645
   25MOL0     H 3258   8.327  11.826   8.177 -1.2865  0.7391  1.9024
   25MOL0     H 3259   8.470  11.736   8.249  1.0858  2.0852  1.1814
   25MOL0     H 3260   8.520  11.974   8.384 -1.0101 -0.4212  0.9863
   25MOL0     H 3261   8.389  11.875   8.424 -0.3327 -0.5158 -1.0302
   25MOL0     H 3262   8.379  12.251   8.163 -3.6870 -0.3005 -0.3977
   25MOL0     H 3263   8.447  12.482   8.254 -1.2198  0.0089  0.5388
   25MOL0     H 3264   8.401  12.791   8.622  0.5080  0.0655  0.0171
   25MOL0     H 3265   8.473  13.004   8.701  2.3067  2.7848  0.4583
   25MOL0     H 3266   8.677  13.146   8.996  1.4401  1.4619 -1.7023
   25MOL0     H 3267   8.518  13.094   8.920 -1.3758  0.8550  0.3665
   25MOL0     H 3268   8.530  13.341   8.923  2.0295  3.2059 -1.4374
   25MOL0     H 3269   8.568  13.291   8.756  1.5464  4.0558 -0.3638
   25MOL0     H 3270   8.812  13.336   8.828  0.2059  2.1695 -0.8323
   25MOL0     H 3271   8.755  13.362   8.991 -1.9928  0.3315  2.0292
   25MOL0     H 3272   8.606  13.552   8.861  0.7331  1.1276 -1.8781
   25MOL0     H 3273   8.766  13.581   8.893 -0.3788  1.3936 -0.6192
   25MOL0     H 3274   8.626  13.521   8.640  0.4546  3.7846 -0.8041
   25MOL0     H 3275   8.786  13.450   8.640  0.3122  1.8135 -3.1734
   25MOL0     H 3276   8.854  13.704   8.730 -0.4835 -0.7095  1.0596
   25MOL0     H 3277   8.695  13.750   8.693 -1.4763 -1.5113  0.8967
   25MOL0     H 3278   8.841  13.622   8.457 -1.6375  0.1071 -1.7178
   25MOL0     H 3279   8.694  13.717   8.474 -0.3095 -0.2214 -1.8285
   25MOL0     H 3280   8.904  13.838   8.374  2.4125 -3.7163  0.1660
   25MOL0     H 3281   8.979  13.833   8.530 -0.0333 -0.4026 -0.7948
   25MOL0     H 3282   8.841  12.845   8.832 -1.0894  2.4553  0.3043
   25MOL0     H 3283   8.767  12.614   8.764 -0.8314 -0.5680  1.0175
   25MOL0     H 3284   8.471  12.308   8.652  1.5082  0.0999 -0.0513
   25MOL0     H 3285   8.359  12.098   8.559 -3.3851  1.1787  2.7140
   25MOL0     H 3286   8.778  10.766   8.820  4.7622 -0.0133  0.1920
   25MOL0     H 3287   8.721  10.664   9.053 -0.6334 -1.2219  0.1852
   25MOL0     H 3288   8.476  10.578   9.439 -1.1295 -3.6246  1.6252
   25MOL0     H 3289   8.482  10.456   9.630  0.2033  1.9648  4.7368
   25MOL0     H 3290   8.793  10.280   9.869  3.1125  0.3547 -1.4206
   25MOL0     H 3291   8.784  10.297   9.698  0.7490  1.8471  0.4209
   25MOL0     H 3292   8.561  10.215   9.891 -2.3730  0.0671 -1.1721
   25MOL0     H 3293   8.542  10.255   9.724 -0.1790  0.5568  0.0571
   25MOL0     H 3294   8.676  10.008   9.840 -1.4585  0.4580  0.9203
   25MOL0     H 3295   8.737  10.067   9.682 -0.9830 -0.0874 -0.6931
   25MOL0     H 3296   8.558   9.895   9.663 -0.6384 -0.4845 -1.1946
   25MOL0     H 3297   8.452  10.028   9.708  0.6688 -1.8261  1.6171
   25MOL0     H 3298   8.661  10.099   9.320  4.8633 -0.3546  2.0264
   25MOL0     H 3299   8.844  10.631   9.752 -1.2372 -0.8270  0.7431
   25MOL0     H 3300   8.840  10.778   9.543 -1.3510  0.0599 -2.3934
   26MOL0     O 3301   6.279   5.200   0.092  0.4923 -0.0094  0.5213
   26MOL0     C 3302   6.229   5.299   0.145 -0.1512  1.3010  0.3336
   26MOL0     O 3303   6.260   5.432   0.111  0.2854  0.4755  0.1718
   26MOL0     C 3304   6.333   5.470  -0.002 -0.2987 -0.9954 -0.3264
   26MOL0     C 3305   6.333   5.616  -0.000 -0.1901 -0.0519 -0.1958
   26MOL0     C 3306   6.406   5.689  -0.098  0.5491  0.1159  0.4771
   26MOL0     C 3307   6.467   5.619  -0.208 -0.3167  0.1964 -0.4262
   26MOL0     O 3308   6.534   5.676  -0.317  0.4053  0.1720 -1.1653
   26MOL0     C 3309   6.524   5.819  -0.324  0.1566 -0.5622  0.1129
   26MOL0     C 3310   6.545   5.856  -0.469  0.2051  0.4795  0.7513
   26MOL0     C 3311   6.452   5.775  -0.563  0.0222 -0.2390  0.5576
   26MOL0     C 3312   6.451   5.824  -0.706  0.0246 -0.2311 -0.1693
   26MOL0     C 3313   6.420   5.972  -0.725 -0.0186  0.3408 -1.1114
   26MOL0     C 3314   6.422   6.004  -0.863 -0.6277 -0.5775  0.3069
   26MOL0     C 3315   6.384   6.144  -0.892 -0.0462 -0.5909 -0.5875
   26MOL0     C 3316   6.422   6.194  -1.034 -0.2914 -0.0179 -1.1240
   26MOL0     N 3317   6.360   6.319  -1.072 -0.2538 -1.1796 -0.2548
   26MOL0     C 3318   6.417   6.446  -1.063  0.0542  0.2197  0.6461
   26MOL0     C 3319   6.330   6.526  -1.142 -0.5748  0.5331 -0.6191
   26MOL0     C 3320   6.336   6.678  -1.185  0.1744 -0.6760 -0.4708
   26MOL0     C 3321   6.477   6.733  -1.171 -0.2820  0.2941 -0.9961
   26MOL0     C 3322   6.506   6.864  -1.229 -0.1803 -0.1761 -0.0990
   26MOL0     C 3323   6.483   6.864  -1.384 -0.1497  0.6563  1.4982
   26MOL0     O 3324   6.537   6.984  -1.431  1.2855  0.5180  0.2513
   26MOL0     C 3325   6.666   7.012  -1.464  0.6702 -0.3482 -1.0344
   26MOL0     C 3326   6.776   6.934  -1.440  0.8337  0.1075 -0.4391
   26MOL0     C 3327   6.906   6.973  -1.454 -0.1789  0.2398  1.1535
   26MOL0     C 3328   6.940   7.102  -1.498 -0.8252 -0.1218  0.4451
   26MOL0     C 3329   7.079   7.146  -1.520 -1.0070  0.1026 -0.7432
   26MOL0     O 3330   7.118   7.275  -1.513  0.2350 -0.1570 -0.0597
   26MOL0     C 3331   7.253   7.327  -1.503  0.2555  0.6540  0.0400
   26MOL0     C 3332   7.372   7.262  -1.483  0.0536  1.3145  0.4734
   26MOL0     C 3333   7.490   7.334  -1.467  0.1055  0.4752 -0.1081
   26MOL0     C 3334   7.500   7.474  -1.466  1.0365 -0.7127 -0.1693
   26MOL0     O 3335   7.623   7.531  -1.466 -0.1712 -0.1079  0.8314
   26MOL0     C 3336   7.651   7.664  -1.423  0.0416 -0.0578 -0.5052
   26MOL0     C 3337   7.792   7.705  -1.484 -0.0765 -0.5319 -0.4926
   26MOL0     C 3338   7.884   7.747  -1.379 -0.9270 -0.5322  0.2891
   26MOL0     C 3339   7.938   7.628  -1.293  0.4384  0.2644  0.2060
   26MOL0     C 3340   7.990   7.510  -1.373  0.7867  0.9622  0.6184
   26MOL0     C 3341   8.047   7.408  -1.283  0.4379 -0.1387  0.3030
   26MOL0     C 3342   8.132   7.319  -1.361 -0.9042  0.0344  0.3360
   26MOL0     C 3343   8.182   7.198  -1.289  0.6700  0.0100 -0.2193
   26MOL0    Cl 3344   8.276   7.081  -1.392 -0.0533  0.5103  0.5426
   26MOL0     C 3345   7.378   7.539  -1.482 -0.1997 -0.5812  0.7363
   26MOL0     C 3346   7.263   7.464  -1.500  0.5756 -0.1989  0.0599
   26MOL0     O 3347   7.154   7.050  -1.527  0.2931  0.5368  0.1129
   26MOL0     C 3348   6.838   7.195  -1.532  0.4717  0.4095 -0.0153
   26MOL0     C 3349   6.706   7.144  -1.504  0.0691 -0.4454  0.1789
   26MOL0     N 3350   6.231   6.444  -1.180  0.4699 -0.4728  0.4936
   26MOL0     N 3351   6.250   6.321  -1.149 -0.3046 -0.8574 -0.8109
   26MOL0     C 3352   6.458   5.476  -0.207  0.1435  0.2856 -0.1348
   26MOL0     C 3353   6.399   5.406  -0.101  0.3228 -0.4626  0.6863
   26MOL0     C 3354   6.145   5.280   0.262 -0.4395  0.5227  0.4718
   26MOL0     C 3355   6.090   5.149   0.284 -0.7643  0.0795 -1.0498
   26MOL0     C 3356   6.001   5.145   0.395  0.4365  0.2308 -0.4625
   26MOL0     C 3357   5.969   5.253   0.479  0.3067 -0.2137 -0.1438
   26MOL0     O 3358   5.892   5.237   0.595 -0.0149  0.2425 -0.2143
   26MOL0     C 3359   5.892   5.118   0.676  0.3660 -1.1307 -0.4743
   26MOL0     C 3360   6.017   5.099   0.753  0.4343  0.8288  0.2802
   26MOL0     C 3361   6.014   4.984   0.860 -0.5564 -0.7131  0.0480
   26MOL0     C 3362   5.966   5.045   0.990  0.4032 -0.0530 -0.4340
   26MOL0     C 3363   5.915   4.924   1.061 -0.1700  1.0915  0.9408
   26MOL0     C 3364   5.896   4.820   1.111 -0.5303  0.6196  1.1647
   26MOL0     C 3365   6.007   5.378   0.445  0.0436  0.8007  0.4077
   26MOL0     C 3366   6.096   5.390   0.340  0.7240 -1.1309 -0.0953
   26MOL0     H 3367   6.260   5.665   0.063 -2.8753  0.2374 -3.2597
   26MOL0     H 3368   6.419   5.797  -0.106  1.2678 -0.1029 -2.6064
   26MOL0     H 3369   6.603   5.851  -0.256 -1.1937 -1.1128  2.0162
   26MOL0     H 3370   6.434   5.870  -0.288 -1.1687 -2.7866  0.1142
   26MOL0     H 3371   6.650   5.849  -0.498  0.6227  0.1954  2.2697
   26MOL0     H 3372   6.506   5.958  -0.471 -0.3327  0.2863 -0.8904
   26MOL0     H 3373   6.354   5.780  -0.514  0.5177  0.3818  1.5061
   26MOL0     H 3374   6.461   5.666  -0.569 -3.4489 -0.5760 -1.8041
   26MOL0     H 3375   6.547   5.792  -0.746 -1.4925 -1.0430 -3.5443
   26MOL0     H 3376   6.377   5.764  -0.759 -0.8705  0.4837  0.2360
   26MOL0     H 3377   6.496   6.029  -0.671  1.2521 -0.8956 -1.5436
   26MOL0     H 3378   6.323   5.999  -0.683 -0.2931  1.5762 -2.4645
   26MOL0     H 3379   6.353   5.933  -0.910 -0.9587  0.0039 -0.0912
   26MOL0     H 3380   6.518   5.985  -0.912 -1.7892 -0.5032 -2.1288
   26MOL0     H 3381   6.277   6.165  -0.881  0.6751  2.2216  2.7202
   26MOL0     H 3382   6.430   6.202  -0.811  0.1892 -0.6883 -0.6514
   26MOL0     H 3383   6.401   6.115  -1.107 -1.8339 -1.3556  0.6582
   26MOL0     H 3384   6.530   6.200  -1.020 -0.6757  2.0315  1.8876
   26MOL0     H 3385   6.496   6.494  -1.005  0.4488  0.1479  0.1764
   26MOL0     H 3386   6.268   6.732  -1.119  1.6672 -1.7531  2.1329
   26MOL0     H 3387   6.311   6.687  -1.291 -2.2745  2.2183  0.2125
   26MOL0     H 3388   6.550   6.663  -1.214  0.2283  0.4984 -0.4665
   26MOL0     H 3389   6.507   6.721  -1.067 -0.8614  0.0008 -0.8585
   26MOL0     H 3390   6.458   6.951  -1.182  0.5439 -0.0956  0.4954
   26MOL0     H 3391   6.613   6.872  -1.212  0.1154 -2.6345 -0.4856
   26MOL0     H 3392   6.376   6.853  -1.403  0.1998  0.7735 -0.7377
   26MOL0     H 3393   6.533   6.778  -1.429 -0.2506  1.0088  0.6924
   26MOL0     H 3394   6.772   6.830  -1.410  1.2776  0.3483  0.5366
   26MOL0     H 3395   6.984   6.898  -1.443  0.3971 -0.0793 -3.1529
   26MOL0     H 3396   7.369   7.153  -1.488  0.0972  1.3143  0.4441
   26MOL0     H 3397   7.587   7.286  -1.475  0.3007  0.8672 -0.1069
   26MOL0     H 3398   7.653   7.688  -1.316 -0.5970  1.2845 -0.7665
   26MOL0     H 3399   7.578   7.733  -1.467 -0.2928 -1.0268 -1.5189
   26MOL0     H 3400   7.773   7.787  -1.555 -1.4426 -0.6272 -0.2570
   26MOL0     H 3401   7.837   7.623  -1.541 -0.8938 -0.1474 -1.7158
   26MOL0     H 3402   7.827   7.822  -1.323 -4.8408 -2.4929 -0.7129
   26MOL0     H 3403   7.968   7.800  -1.424 -1.5907 -2.2101 -3.2929
   26MOL0     H 3404   8.025   7.660  -1.234  2.3691 -1.6136 -1.4158
   26MOL0     H 3405   7.862   7.610  -1.217  1.1494  4.5162  2.2186
   26MOL0     H 3406   8.066   7.556  -1.437  0.5936  0.7012  0.2043
   26MOL0     H 3407   7.909   7.458  -1.424  0.8951 -0.8569  2.1702
   26MOL0     H 3408   7.963   7.363  -1.231  0.4316  0.8106  1.1429
   26MOL0     H 3409   8.110   7.455  -1.207  1.0093 -2.1448  1.1402
   26MOL0     H 3410   8.067   7.294  -1.446 -3.3301  1.4285  1.6563
   26MOL0     H 3411   8.210   7.377  -1.410  0.2465  0.2357  2.3174
   26MOL0     H 3412   8.091   7.152  -1.247  2.5003 -2.1714  1.6494
   26MOL0     H 3413   8.254   7.204  -1.207  0.9601  0.5831 -0.5185
   26MOL0     H 3414   7.371   7.647  -1.487  4.4128 -0.1194 -3.4264
   26MOL0     H 3415   7.172   7.521  -1.517  2.4780  3.0786 -0.1544
   26MOL0     H 3416   6.858   7.291  -1.579 -1.7960  2.6902  3.2421
   26MOL0     H 3417   6.618   7.202  -1.531  0.7669  1.1073  1.0766
   26MOL0     H 3418   6.479   5.418  -0.296 -2.1492 -1.4374  0.3447
   26MOL0     H 3419   6.391   5.297  -0.100 -0.1455 -0.4289  1.3798
   26MOL0     H 3420   6.100   5.059   0.225  0.3168  0.0491 -0.8444
   26MOL0     H 3421   5.946   5.052   0.402 -1.9516  1.4570 -1.9427
   26MOL0     H 3422   5.873   5.037   0.606 -2.1721 -1.6683  0.7091
   26MOL0     H 3423   5.815   5.146   0.750  1.7236 -0.1035  0.6086
   26MOL0     H 3424   6.093   5.070   0.680  1.7426 -3.3364  2.9637
   26MOL0     H 3425   6.058   5.196   0.785 -3.2611  2.5156  0.4648
   26MOL0     H 3426   6.114   4.940   0.865 -0.2907 -0.1165  0.1280
   26MOL0     H 3427   5.962   4.893   0.829  1.2549 -1.4548 -0.9746
   26MOL0     H 3428   6.046   5.076   1.058 -0.1105 -0.3895  0.3344
   26MOL0     H 3429   5.905   5.129   0.956  1.8634  0.3282 -2.2662
   26MOL0     H 3430   5.877   4.721   1.148  0.7064  0.0840  0.4601
   26MOL0     H 3431   5.980   5.462   0.509 -2.4878 -0.5365  1.2527
   26MOL0     H 3432   6.144   5.486   0.328  3.1045 -2.5854 -4.6347
   27MOL0     O 3433   9.573   8.381   3.932 -0.9939  0.2010 -0.3384
   27MOL0     C 3434   9.455   8.359   3.950 -0.1254  0.4438  0.5563
   27MOL0     O 3435   9.400   8.282   4.048  0.7436  0.0848 -0.2011
   27MOL0     C 3436   9.498   8.224   4.132 -1.0120 -0.4377  0.9842
   27MOL0     C 3437   9.556   8.102   4.098 -1.1287  0.0467  1.0141
   27MOL0     C 3438   9.644   8.045   4.192  0.0528 -0.4392  0.2149
   27MOL0     C 3439   9.678   8.102   4.317  0.4648  1.0648 -0.7224
   27MOL0     O 3440   9.774   8.050   4.405  0.0640  0.8971  0.7629
   27MOL0     C 3441   9.827   8.138   4.507 -0.8341  0.5042  0.3292
   27MOL0     C 3442   9.937   8.059   4.576 -0.0057 -0.6590  0.3611
   27MOL0     C 3443  10.021   8.157   4.674  1.1570 -0.6128  0.6643
   27MOL0     C 3444  10.135   8.230   4.596  0.7633 -0.3302  0.2655
   27MOL0     C 3445  10.204   8.336   4.690 -0.1787 -0.6848  0.0265
   27MOL0     C 3446  10.284   8.442   4.614  0.1593  1.0335  0.9112
   27MOL0     C 3447  10.316   8.572   4.696  0.0359 -0.1029  0.0467
   27MOL0     C 3448  10.441   8.640   4.634  0.3740 -0.0417  0.4305
   27MOL0     N 3449  10.507   8.736   4.720 -0.3779 -0.0112 -0.0485
   27MOL0     C 3450  10.454   8.857   4.771 -0.7696 -0.2648  0.9584
   27MOL0     C 3451  10.555   8.906   4.850  0.2718  0.1270 -1.0478
   27MOL0     C 3452  10.565   9.041   4.921  0.2866 -0.4289 -1.2163
   27MOL0     C 3453  10.470   9.153   4.866 -0.8896 -0.6749  0.4828
   27MOL0     C 3454  10.510   9.192   4.721 -0.3522  0.6227 -0.5683
   27MOL0     C 3455  10.441   9.311   4.665 -0.7032 -1.0085 -0.1807
   27MOL0     O 3456  10.477   9.442   4.706 -0.5282 -0.0904 -0.3003
   27MOL0     C 3457  10.614   9.463   4.690 -0.9898  0.1729  0.7258
   27MOL0     C 3458  10.705   9.415   4.601  0.7035 -0.4886 -1.2699
   27MOL0     C 3459  10.839   9.455   4.601 -0.6190 -0.2744  0.3351
   27MOL0     C 3460  10.879   9.563   4.685  0.3925  0.0019  0.1580
   27MOL0     C 3461  11.019   9.622   4.697 -0.2527  0.0321 -0.1314
   27MOL0     O 3462  11.051   9.677   4.819 -0.5315 -0.2089 -1.0109
   27MOL0     C 3463  11.179   9.724   4.851 -0.0157 -0.3844  0.1490
   27MOL0     C 3464  11.298   9.733   4.771  0.4223  0.9981  0.6031
   27MOL0     C 3465  11.418   9.801   4.809 -0.6540 -1.0848  0.3429
   27MOL0     C 3466  11.422   9.856   4.943  0.5298  0.6957  0.9923
   27MOL0     O 3467  11.537   9.903   4.993  0.5327  0.2610  0.0631
   27MOL0     C 3468  11.536  10.004   5.098  0.6639 -0.0084  0.2246
   27MOL0     C 3469  11.666  10.093   5.081  0.0581  0.4719 -0.4037
   27MOL0     C 3470  11.663  10.179   4.954 -0.4753 -0.3531 -0.0055
   27MOL0     C 3471  11.772  10.284   4.955 -0.1157  0.0999  0.1641
   27MOL0     C 3472  11.788  10.339   4.814 -0.0534  1.0751 -0.2183
   27MOL0     C 3473  11.670  10.429   4.775 -0.2652  0.2292 -0.2290
   27MOL0     C 3474  11.694  10.519   4.654  0.4364 -0.1772  0.2664
   27MOL0     C 3475  11.620  10.462   4.526 -0.4238  0.4994 -0.1884
   27MOL0    Cl 3476  11.671  10.559   4.378  0.1277 -0.3460 -0.1837
   27MOL0     C 3477  11.302   9.854   5.017 -0.5336 -0.3504  0.4029
   27MOL0     C 3478  11.184   9.784   4.978  0.3836 -1.0130  0.3066
   27MOL0     O 3479  11.098   9.599   4.608 -0.3371 -0.3892  0.5187
   27MOL0     C 3480  10.779   9.625   4.757 -0.5728  0.6531 -0.3753
   27MOL0     C 3481  10.650   9.579   4.757 -0.0090  0.6823  0.3663
   27MOL0     N 3482  10.652   8.810   4.843 -0.9104 -0.0853  0.1946
   27MOL0     N 3483  10.627   8.718   4.765  0.1275  0.2586 -0.1484
   27MOL0     C 3484   9.619   8.226   4.341  0.0234 -0.3263  0.5990
   27MOL0     C 3485   9.529   8.279   4.250 -0.6678  0.2173 -0.8613
   27MOL0     C 3486   9.368   8.437   3.859 -0.3657  0.0449  0.1136
   27MOL0     C 3487   9.415   8.463   3.727  0.2338 -0.2790  0.5678
   27MOL0     C 3488   9.324   8.512   3.630  0.6214  0.1178  0.8376
   27MOL0     C 3489   9.191   8.554   3.670  0.0404 -1.5205 -0.5384
   27MOL0     O 3490   9.093   8.615   3.591 -0.3537  0.1493  0.1921
   27MOL0     C 3491   9.113   8.582   3.452  0.2245  0.3814 -0.1274
   27MOL0     C 3492   8.976   8.582   3.390  1.5342 -0.1599  0.7866
   27MOL0     C 3493   8.975   8.523   3.246 -0.7079 -0.5186  0.2437
   27MOL0     C 3494   8.977   8.373   3.243  0.2497 -0.0690 -0.8032
   27MOL0     C 3495   8.898   8.335   3.129 -0.6968 -1.1315  0.8318
   27MOL0     C 3496   8.831   8.302   3.028  0.7893  0.3541 -0.1402
   27MOL0     C 3497   9.158   8.525   3.802  1.0739 -0.3615  0.5125
   27MOL0     C 3498   9.240   8.465   3.894  0.1175  0.0615 -0.4698
   27MOL0     H 3499   9.533   8.067   3.998 -1.9362 -0.1471  1.2605
   27MOL0     H 3500   9.693   7.954   4.160  1.4389 -0.3635  1.9609
   27MOL0     H 3501   9.755   8.176   4.580 -0.8813  0.5187  0.2746
   27MOL0     H 3502   9.860   8.228   4.454 -1.2755 -0.3437 -1.4237
   27MOL0     H 3503   9.996   7.992   4.513 -3.1430 -3.6090  0.2425
   27MOL0     H 3504   9.886   7.990   4.645  0.9917 -1.1604  0.6071
   27MOL0     H 3505  10.067   8.090   4.747 -0.1401 -1.2436  0.9303
   27MOL0     H 3506   9.961   8.240   4.713  3.5384  0.2314  2.8397
   27MOL0     H 3507  10.214   8.166   4.556  0.9432 -0.1597  0.3415
   27MOL0     H 3508  10.091   8.289   4.514 -3.6084 -0.2025  2.4164
   27MOL0     H 3509  10.257   8.277   4.766 -1.4546 -0.1426  1.3747
   27MOL0     H 3510  10.140   8.399   4.753  2.5044 -1.0161  3.3800
   27MOL0     H 3511  10.218   8.468   4.531  0.2398 -0.7746  0.2289
   27MOL0     H 3512  10.367   8.397   4.559 -1.2652 -0.0912 -0.3992
   27MOL0     H 3513  10.233   8.643   4.688 -1.2711 -1.3601  1.7104
   27MOL0     H 3514  10.326   8.543   4.801  0.5492  2.2060  0.6990
   27MOL0     H 3515  10.415   8.677   4.534  1.8857 -0.6375 -0.2125
   27MOL0     H 3516  10.517   8.563   4.617 -1.7287 -2.5438  1.7313
   27MOL0     H 3517  10.353   8.891   4.755  0.1138  2.0822  0.0359
   27MOL0     H 3518  10.668   9.075   4.908  0.1463  1.5110  1.6693
   27MOL0     H 3519  10.537   9.018   5.024  2.3810 -0.0501 -0.5161
   27MOL0     H 3520  10.472   9.241   4.932 -3.1520  0.8460 -1.3083
   27MOL0     H 3521  10.373   9.105   4.874 -1.3739  0.6174  4.9123
   27MOL0     H 3522  10.619   9.201   4.725 -0.2348 -0.8121  1.3311
   27MOL0     H 3523  10.500   9.105   4.656 -1.9409  1.9983 -2.2441
   27MOL0     H 3524  10.337   9.294   4.694 -0.5640 -0.6018  0.5741
   27MOL0     H 3525  10.451   9.311   4.556 -1.6179  1.1492 -0.3155
   27MOL0     H 3526  10.674   9.335   4.535 -4.5671 -0.4770  0.6703
   27MOL0     H 3527  10.908   9.412   4.530  2.7922  3.9358  0.7008
   27MOL0     H 3528  11.293   9.691   4.671 -1.4850  0.1756  0.9984
   27MOL0     H 3529  11.497   9.806   4.734 -2.6268 -0.9503 -1.8609
   27MOL0     H 3530  11.543   9.952   5.194  1.7584 -4.0199 -1.7633
   27MOL0     H 3531  11.447  10.067   5.106  0.7843  0.1901  0.0025
   27MOL0     H 3532  11.760  10.039   5.095 -0.9425 -1.2904 -0.1709
   27MOL0     H 3533  11.669  10.159   5.168 -2.6288  0.4154 -0.1669
   27MOL0     H 3534  11.565  10.223   4.934  0.1118  1.1073  0.2028
   27MOL0     H 3535  11.690  10.110   4.873  1.0108  0.0457  0.1236
   27MOL0     H 3536  11.747  10.364   5.026 -1.6689  1.3926 -1.7317
   27MOL0     H 3537  11.866  10.238   4.985 -0.1831 -0.7048 -0.8248
   27MOL0     H 3538  11.789  10.258   4.741  1.6288 -0.3220  1.2798
   27MOL0     H 3539  11.885  10.389   4.804  0.9946 -1.0996 -1.6476
   27MOL0     H 3540  11.641  10.491   4.861  1.5412  0.9723 -0.1073
   27MOL0     H 3541  11.584  10.365   4.755 -1.5475  1.7334  0.1813
   27MOL0     H 3542  11.664  10.623   4.669  0.7085  0.0398 -0.6443
   27MOL0     H 3543  11.800  10.544   4.645 -0.6376  5.1649 -0.6809
   27MOL0     H 3544  11.511  10.467   4.534 -0.8940 -2.4627 -2.8243
   27MOL0     H 3545  11.637  10.354   4.520 -0.8305  0.5082 -3.2931
   27MOL0     H 3546  11.308   9.891   5.119 -0.5097  1.0803 -0.1033
   27MOL0     H 3547  11.095   9.793   5.039  1.4835  0.2751  1.8080
   27MOL0     H 3548  10.811   9.715   4.807 -0.5924  0.0458  0.7736
   27MOL0     H 3549  10.578   9.631   4.820  0.7402 -0.2463  2.0700
   27MOL0     H 3550   9.640   8.298   4.420 -0.4126 -0.0757  0.4899
   27MOL0     H 3551   9.467   8.360   4.285 -2.0901 -1.7208  1.4363
   27MOL0     H 3552   9.519   8.453   3.698  0.3999  4.6463 -1.4300
   27MOL0     H 3553   9.365   8.533   3.532  0.3619 -1.9541  0.2410
   27MOL0     H 3554   9.154   8.480   3.447  0.4628  0.0456  4.4392
   27MOL0     H 3555   9.188   8.647   3.409  0.5077  0.5327  0.5798
   27MOL0     H 3556   8.907   8.525   3.452  1.1259  0.9311  1.3743
   27MOL0     H 3557   8.946   8.687   3.377 -2.4347 -1.1510  0.7710
   27MOL0     H 3558   9.047   8.557   3.172 -1.6817  0.1318 -0.4272
   27MOL0     H 3559   8.879   8.557   3.207 -0.1394  0.1867 -0.5698
   27MOL0     H 3560   9.081   8.342   3.234  1.4451  2.7501  1.6579
   27MOL0     H 3561   8.925   8.330   3.329  2.0999 -1.7593 -0.4476
   27MOL0     H 3562   8.757   8.278   2.954 -0.8959  3.1444  0.4867
   27MOL0     H 3563   9.064   8.564   3.839  1.8939 -0.1369  2.4905
   27MOL0     H 3564   9.197   8.456   3.993 -1.1426 -0.6019 -1.0517
   28MOL0     O 3565   9.182  10.219   7.191 -0.4690  0.6923  0.9619
   28MOL0     C 3566   9.153  10.271   7.296 -0.6834 -0.1916  0.6936
   28MOL0     O 3567   9.203  10.391   7.342 -0.2889  0.6737  0.2119
   28MOL0     C 3568   9.316  10.447   7.290 -1.2024  0.2669  0.2872
   28MOL0     C 3569   9.411  10.375   7.211 -0.4220 -0.8824  1.1620
   28MOL0     C 3570   9.535  10.428   7.193 -0.1142  0.2517  0.7582
   28MOL0     C 3571   9.568  10.554   7.223 -0.0621 -0.2259  0.1130
   28MOL0     O 3572   9.698  10.592   7.196  0.0462 -0.3449  0.1496
   28MOL0     C 3573   9.704  10.727   7.143 -0.1266  0.1317  0.4506
   28MOL0     C 3574   9.624  10.744   7.011 -1.2397  0.2939 -0.0926
   28MOL0     C 3575   9.668  10.644   6.896  0.5061 -0.4086  0.8865
   28MOL0     C 3576   9.646  10.699   6.753  0.2336  0.6689  0.5552
   28MOL0     C 3577   9.498  10.671   6.709 -0.5417 -0.3428 -0.2962
   28MOL0     C 3578   9.464  10.704   6.561  0.2112  0.3207 -0.6539
   28MOL0     C 3579   9.515  10.597   6.464  0.5015 -1.2018 -0.3827
   28MOL0     C 3580   9.499  10.644   6.318 -0.1801  1.0178 -0.0314
   28MOL0     N 3581   9.590  10.582   6.220  0.4295  0.3030 -0.8099
   28MOL0     C 3582   9.577  10.451   6.189  0.4494 -0.3737  0.0027
   28MOL0     C 3583   9.691  10.419   6.126 -0.0768 -0.5769  0.1482
   28MOL0     C 3584   9.734  10.281   6.089  0.3104  1.0045  0.3832
   28MOL0     C 3585   9.728  10.272   5.936  1.1171  0.2362 -0.5282
   28MOL0     C 3586   9.587  10.277   5.883 -0.4432  0.2416 -0.2077
   28MOL0     C 3587   9.604  10.261   5.724  0.6146 -0.3462  1.2978
   28MOL0     O 3588   9.578  10.119   5.683  0.0999 -0.0120 -0.3313
   28MOL0     C 3589   9.454  10.089   5.653  0.2014  0.0488 -0.1788
   28MOL0     C 3590   9.436   9.947   5.640 -0.5471 -0.0065  0.3578
   28MOL0     C 3591   9.328   9.883   5.595 -0.8966  0.4432  0.5626
   28MOL0     C 3592   9.215   9.958   5.578 -0.0265  0.2962 -0.0608
   28MOL0     C 3593   9.093   9.892   5.538 -0.1793 -0.3849  0.1771
   28MOL0     O 3594   9.106   9.765   5.501  0.0986 -0.1018  0.1626
   28MOL0     C 3595   8.992   9.706   5.439 -0.0356 -0.6710  0.0919
   28MOL0     C 3596   8.894   9.661   5.529  0.3903 -0.0672  0.1534
   28MOL0     C 3597   8.781   9.594   5.478 -0.1477 -0.1928  0.7922
   28MOL0     C 3598   8.750   9.598   5.337 -0.1051 -0.7565 -0.2813
   28MOL0     O 3599   8.630   9.546   5.290  0.0313 -0.3505 -0.1726
   28MOL0     C 3600   8.599   9.565   5.159 -0.2125 -0.3833  1.0578
   28MOL0     C 3601   8.466   9.489   5.135 -0.2627  0.3539 -0.5684
   28MOL0     C 3602   8.422   9.488   4.984  0.6401 -0.5047 -0.3782
   28MOL0     C 3603   8.301   9.394   4.967 -0.5109 -0.6264 -0.5414
   28MOL0     C 3604   8.235   9.392   4.831 -0.3226 -0.2286  0.4202
   28MOL0     C 3605   8.318   9.310   4.721  0.4685 -0.4901  0.2286
   28MOL0     C 3606   8.226   9.297   4.590  0.4389  0.2070 -0.8403
   28MOL0     C 3607   8.274   9.179   4.496  0.6187  0.2410 -0.1684
   28MOL0    Cl 3608   8.161   9.147   4.361  0.3410  0.1006 -0.5320
   28MOL0     C 3609   8.843   9.656   5.260 -0.1772  0.7257  1.2537
   28MOL0     C 3610   8.964   9.709   5.300  0.7052  0.6117  0.0445
   28MOL0     O 3611   8.987   9.953   5.543 -0.6787 -0.2333 -0.0654
   28MOL0     C 3612   9.220  10.092   5.605 -0.0923  0.6384  0.6088
   28MOL0     C 3613   9.339  10.159   5.636 -0.7219  0.6480 -0.3321
   28MOL0     N 3614   9.781  10.534   6.137  0.6473  0.0273  0.1634
   28MOL0     N 3615   9.713  10.624   6.182  0.3722 -0.4891 -0.2139
   28MOL0     C 3616   9.473  10.632   7.295  0.0480  0.2734  0.4044
   28MOL0     C 3617   9.352  10.572   7.329 -0.7234 -0.0322 -0.2765
   28MOL0     C 3618   9.048  10.202   7.385  0.5519 -0.4531  0.4359
   28MOL0     C 3619   8.986  10.083   7.340 -0.6475  0.2002 -0.4617
   28MOL0     C 3620   8.887  10.015   7.413 -0.5534 -0.7782  0.4860
   28MOL0     C 3621   8.840  10.058   7.537  0.0942 -0.1689  0.6195
   28MOL0     O 3622   8.728  10.008   7.596  0.1536 -0.4729 -0.6262
   28MOL0     C 3623   8.667   9.887   7.537  0.5652 -0.6722 -0.3848
   28MOL0     C 3624   8.538   9.845   7.623 -0.6158 -0.3353  0.1442
   28MOL0     C 3625   8.579   9.827   7.771 -0.6864  0.3385 -0.0069
   28MOL0     C 3626   8.465   9.787   7.867  1.0256 -0.5100  0.3559
   28MOL0     C 3627   8.348   9.873   7.876 -0.2577  0.6547 -0.0557
   28MOL0     C 3628   8.247   9.932   7.879 -0.6537 -0.4455 -0.0999
   28MOL0     C 3629   8.907  10.173   7.586  1.0414 -0.3860 -0.7299
   28MOL0     C 3630   9.006  10.245   7.512 -0.3056  0.9184 -0.1864
   28MOL0     H 3631   9.380  10.278   7.174  0.8672 -1.1421  0.7233
   28MOL0     H 3632   9.611  10.368   7.144 -1.8811  0.2754 -2.2876
   28MOL0     H 3633   9.808  10.757   7.123 -0.3978 -0.1668 -1.7224
   28MOL0     H 3634   9.677  10.809   7.210  0.8000  2.9846 -2.4245
   28MOL0     H 3635   9.648  10.839   6.963 -1.2104  0.4828  0.2920
   28MOL0     H 3636   9.515  10.746   7.025 -1.2463  0.1570 -0.1229
   28MOL0     H 3637   9.612  10.552   6.910 -0.6711  0.0805 -0.3093
   28MOL0     H 3638   9.775  10.623   6.899  0.0630 -2.9531  1.1103
   28MOL0     H 3639   9.670  10.806   6.748  2.9556  0.0955 -2.1575
   28MOL0     H 3640   9.712  10.645   6.683 -1.0574  0.3797 -0.4781
   28MOL0     H 3641   9.451  10.740   6.780 -0.7607 -0.6706 -0.1215
   28MOL0     H 3642   9.461  10.569   6.723 -2.1548 -0.8139 -5.7994
   28MOL0     H 3643   9.506  10.803   6.540  1.3356  0.4199  1.7532
   28MOL0     H 3644   9.356  10.715   6.555  0.3495  2.7911  0.3239
   28MOL0     H 3645   9.621  10.584   6.486  0.1789 -0.5082  1.8553
   28MOL0     H 3646   9.478  10.495   6.478  0.9031 -1.2231  0.6170
   28MOL0     H 3647   9.516  10.752   6.319  0.0566  1.0363 -1.9399
   28MOL0     H 3648   9.393  10.625   6.300 -0.5953  0.7099  2.3585
   28MOL0     H 3649   9.494  10.384   6.209  0.8583 -0.3525  1.9510
   28MOL0     H 3650   9.665  10.213   6.140  0.5491  1.5644  1.4856
   28MOL0     H 3651   9.837  10.275   6.125  0.8783 -0.1365 -1.3460
   28MOL0     H 3652   9.762  10.172   5.905 -0.6210 -0.3039 -0.7752
   28MOL0     H 3653   9.791  10.356   5.903  2.9736  1.0073  4.1952
   28MOL0     H 3654   9.539  10.186   5.920  2.1142 -0.4982  1.6067
   28MOL0     H 3655   9.529  10.361   5.922 -2.4419 -1.7860  1.3803
   28MOL0     H 3656   9.710  10.275   5.700  0.6384 -0.4366  1.3482
   28MOL0     H 3657   9.549  10.333   5.664 -1.7648 -1.9039  1.4765
   28MOL0     H 3658   9.515   9.881   5.672  0.2298  2.2224  3.5787
   28MOL0     H 3659   9.326   9.776   5.576 -0.3427  0.4243  0.5974
   28MOL0     H 3660   8.908   9.661   5.636 -1.0736  3.5575  0.4825
   28MOL0     H 3661   8.704   9.548   5.539 -1.8398  1.1091 -0.2637
   28MOL0     H 3662   8.675   9.514   5.098  0.5778 -0.3731  2.0169
   28MOL0     H 3663   8.600   9.669   5.127  0.4729 -0.5928  0.3746
   28MOL0     H 3664   8.389   9.537   5.197 -1.9162  1.5032 -3.3474
   28MOL0     H 3665   8.483   9.387   5.171 -1.5574  0.4681  0.4327
   28MOL0     H 3666   8.505   9.453   4.922 -0.4798  0.2635 -2.3877
   28MOL0     H 3667   8.410   9.593   4.954 -1.0772  0.2781  2.5891
   28MOL0     H 3668   8.323   9.293   5.001  1.5392 -0.6884 -1.8890
   28MOL0     H 3669   8.220   9.431   5.031 -2.3345 -1.4879 -2.2522
   28MOL0     H 3670   8.243   9.495   4.795  1.0086  0.3732  2.2508
   28MOL0     H 3671   8.131   9.358   4.840 -0.7652  1.1773  0.8141
   28MOL0     H 3672   8.339   9.209   4.755  0.8948 -0.2658  0.6365
   28MOL0     H 3673   8.413   9.356   4.694  0.4625  0.9688  2.4514
   28MOL0     H 3674   8.125   9.266   4.621 -0.4896  1.9952 -1.9283
   28MOL0     H 3675   8.211   9.389   4.533  2.2918  2.0553  1.4771
   28MOL0     H 3676   8.274   9.082   4.546 -3.6225  0.1426 -0.0409
   28MOL0     H 3677   8.366   9.210   4.446  3.1454 -1.8574  2.7856
   28MOL0     H 3678   8.843   9.677   5.154 -0.7193  0.4053  1.1862
   28MOL0     H 3679   9.030   9.742   5.220 -1.7543 -0.6958 -2.6839
   28MOL0     H 3680   9.134  10.155   5.587 -0.3727  0.0431 -0.1721
   28MOL0     H 3681   9.337  10.268   5.640  0.9348  0.6734  1.3227
   28MOL0     H 3682   9.503  10.732   7.324 -3.2450  2.3259 -2.5432
   28MOL0     H 3683   9.274  10.625   7.382 -0.0885  0.2149  0.4178
   28MOL0     H 3684   9.026  10.023   7.259  0.1957 -1.8352  1.3817
   28MOL0     H 3685   8.868   9.912   7.388 -1.7879 -0.1133 -1.5364
   28MOL0     H 3686   8.740   9.806   7.544 -0.0216 -1.1457  0.4543
   28MOL0     H 3687   8.642   9.886   7.430  0.4957 -3.0259 -0.4069
   28MOL0     H 3688   8.473   9.933   7.626  0.6388  0.5840  1.9790
   28MOL0     H 3689   8.490   9.758   7.577  0.2576  0.4212 -2.3548
   28MOL0     H 3690   8.610   9.924   7.813  1.1236 -0.7294  1.2747
   28MOL0     H 3691   8.661   9.755   7.773 -0.4591  0.5722 -0.6406
   28MOL0     H 3692   8.437   9.684   7.844  0.8938 -0.2989 -0.4773
   28MOL0     H 3693   8.504   9.792   7.969  0.3770 -1.7908  0.6799
   28MOL0     H 3694   8.163   9.999   7.878 -4.0283 -4.2275  1.1096
   28MOL0     H 3695   8.861  10.214   7.675  0.3148  2.6033 -2.3180
   28MOL0     H 3696   9.062  10.332   7.544  0.2935  1.5312 -2.6628
   29MOL0     O 3697   6.761   2.515   8.672 -0.6944  0.1371  0.1949
   29MOL0     C 3698   6.658   2.451   8.669  0.3553  0.2896 -0.0366
   29MOL0     O 3699   6.583   2.433   8.785 -1.0937  0.1202 -0.1134
   29MOL0     C 3700   6.633   2.471   8.910 -0.3771 -0.2595 -0.3239
   29MOL0     C 3701   6.707   2.589   8.942  0.0236 -0.3209 -0.2523
   29MOL0     C 3702   6.742   2.611   9.079  0.2729 -0.0233 -0.5541
   29MOL0     C 3703   6.707   2.518   9.181 -0.1679  0.2494  0.6381
   29MOL0     O 3704   6.748   2.520   9.305 -0.1468 -0.3854  0.2456
   29MOL0     C 3705   6.821   2.631   9.364  0.2206  0.3525 -0.3630
   29MOL0     C 3706   6.727   2.732   9.411 -0.0586 -0.3279  1.1414
   29MOL0     C 3707   6.800   2.828   9.507 -0.2967  0.9255 -0.9057
   29MOL0     C 3708   6.702   2.942   9.553  0.2564  1.0015  0.3716
   29MOL0     C 3709   6.750   2.993   9.681  0.0184  0.1419 -0.3213
   29MOL0     C 3710   6.903   3.029   9.703  1.4321 -0.5405 -0.6702
   29MOL0     C 3711   6.947   3.132   9.610 -0.1230  1.2840  0.0149
   29MOL0     C 3712   7.105   3.127   9.584  0.2004 -0.0256 -0.4692
   29MOL0     N 3713   7.183   3.144   9.700 -0.1227 -0.0717 -0.9508
   29MOL0     C 3714   7.236   3.262   9.728  0.7705 -0.3195  1.0136
   29MOL0     C 3715   7.329   3.242   9.824 -0.3251 -0.0758 -0.2713
   29MOL0     C 3716   7.388   3.359   9.899 -0.0510  0.1021  0.7294
   29MOL0     C 3717   7.544   3.351   9.892  0.2038 -0.3489  0.2006
   29MOL0     C 3718   7.617   3.485   9.912  1.2745 -1.1768 -0.5242
   29MOL0     C 3719   7.573   3.559  10.040  0.0060  0.1018 -0.1844
   29MOL0     O 3720   7.657   3.672  10.060  0.1275 -0.6331 -0.7403
   29MOL0     C 3721   7.617   3.795  10.011 -0.4909  0.3411 -0.2907
   29MOL0     C 3722   7.690   3.908  10.047  0.0046 -0.2089  0.5551
   29MOL0     C 3723   7.654   4.039   9.991 -0.3190 -0.1921 -1.0751
   29MOL0     C 3724   7.561   4.058   9.907  1.8885 -0.0910  0.7238
   29MOL0     C 3725   7.530   4.190   9.862  1.0212  0.1918  0.4903
   29MOL0     O 3726   7.399   4.217   9.828 -0.8144 -0.0993  0.6725
   29MOL0     C 3727   7.339   4.338   9.802 -0.3663  0.1222  1.0270
   29MOL0     C 3728   7.388   4.468   9.816  0.1627 -0.5555  0.0640
   29MOL0     C 3729   7.305   4.577   9.796  0.4241  0.6604 -0.1452
   29MOL0     C 3730   7.172   4.567   9.756 -0.0459  0.1240  0.3750
   29MOL0     O 3731   7.108   4.680   9.727 -0.4151 -0.8504  0.5221
   29MOL0     C 3732   6.998   4.705   9.807 -0.3735  0.9398 -0.0362
   29MOL0     C 3733   6.902   4.807   9.739  0.1241  0.1713 -0.5619
   29MOL0     C 3734   6.821   4.879   9.848  0.5410  0.0074 -0.4491
   29MOL0     C 3735   6.706   4.961   9.785 -1.4329 -0.1517  0.3976
   29MOL0     C 3736   6.665   5.075   9.887  0.4584 -0.8602  0.4096
   29MOL0     C 3737   6.576   5.175   9.817 -0.1937  0.0195 -0.5360
   29MOL0     C 3738   6.516   5.285   9.901 -0.0993  0.5716  0.0794
   29MOL0     C 3739   6.458   5.398   9.823 -0.9963 -0.1453 -0.5857
   29MOL0    Cl 3740   6.389   5.534   9.921  0.1409  0.0783  0.3221
   29MOL0     C 3741   7.115   4.437   9.752 -0.2743  0.0890 -0.6514
   29MOL0     C 3742   7.200   4.323   9.774 -0.1968  0.1316 -0.2939
   29MOL0     O 3743   7.624   4.270   9.853 -0.0251  0.3110 -0.1238
   29MOL0     C 3744   7.483   3.945   9.867 -1.0949 -1.2482  0.0678
   29MOL0     C 3745   7.516   3.819   9.918 -0.6671  0.1880  0.4715
   29MOL0     N 3746   7.337   3.111   9.859 -0.4127 -0.2589  0.2495
   29MOL0     N 3747   7.248   3.053   9.779 -0.5558 -0.0810 -0.8159
   29MOL0     C 3748   6.633   2.407   9.141 -0.6899 -0.1473 -0.8593
   29MOL0     C 3749   6.594   2.386   9.013  0.3881  0.9065 -0.1416
   29MOL0     C 3750   6.594   2.402   8.534 -1.1926 -0.0116 -0.2949
   29MOL0     C 3751   6.476   2.324   8.542 -0.4434 -0.7271  0.4414
   29MOL0     C 3752   6.420   2.286   8.418 -0.4844 -0.5005 -0.2179
   29MOL0     C 3753   6.488   2.291   8.304 -0.0503 -0.0168 -0.0145
   29MOL0     O 3754   6.466   2.234   8.177  0.5357  0.3610 -0.1996
   29MOL0     C 3755   6.340   2.167   8.161 -0.3557  0.9735 -0.0173
   29MOL0     C 3756   6.309   2.130   8.018  0.1844 -0.0466  0.4612
   29MOL0     C 3757   6.308   2.239   7.914  0.0424 -1.1923  0.4164
   29MOL0     C 3758   6.224   2.206   7.796  0.1275 -0.7093  0.0688
   29MOL0     C 3759   6.202   2.331   7.719  0.7833  1.0348 -1.1325
   29MOL0     C 3760   6.169   2.416   7.643 -0.3397  0.0654  0.5393
   29MOL0     C 3761   6.601   2.364   8.300  0.2735 -0.0661 -0.0549
   29MOL0     C 3762   6.659   2.424   8.413 -0.3363  1.1037  0.9105
   29MOL0     H 3763   6.737   2.661   8.867 -1.7583 -1.3249 -2.0159
   29MOL0     H 3764   6.805   2.695   9.107 -0.6853  1.1062 -1.6660
   29MOL0     H 3765   6.890   2.686   9.300  2.9031 -0.3164  1.7688
   29MOL0     H 3766   6.872   2.593   9.454 -0.8210 -1.2279 -0.3924
   29MOL0     H 3767   6.662   2.688   9.487  1.1300 -0.3476  2.1776
   29MOL0     H 3768   6.671   2.780   9.330  1.6843  1.9023  1.1424
   29MOL0     H 3769   6.890   2.865   9.457  0.4905  1.7195  0.9918
   29MOL0     H 3770   6.830   2.762   9.589 -1.6655  0.8689 -0.4299
   29MOL0     H 3771   6.705   3.008   9.466 -0.2468  1.5287  0.7454
   29MOL0     H 3772   6.602   2.901   9.567  1.0150 -0.5001  1.7400
   29MOL0     H 3773   6.725   2.916   9.755 -0.5891 -0.9096 -1.5826
   29MOL0     H 3774   6.698   3.084   9.714  1.8458  0.8995  0.6027
   29MOL0     H 3775   6.956   2.937   9.679 -0.1717 -2.4145  2.3616
   29MOL0     H 3776   6.920   3.061   9.806  1.9974  1.6628 -1.3833
   29MOL0     H 3777   6.899   3.130   9.511 -0.9459 -2.5602  0.3543
   29MOL0     H 3778   6.915   3.231   9.645 -3.6495  0.8724 -1.6357
   29MOL0     H 3779   7.137   3.196   9.505  0.3682 -1.7314 -1.9492
   29MOL0     H 3780   7.123   3.027   9.545 -0.8718 -1.3853  2.2317
   29MOL0     H 3781   7.200   3.352   9.678  1.6726 -1.2638 -1.4971
   29MOL0     H 3782   7.354   3.337  10.001  2.2538 -5.2612  0.7020
   29MOL0     H 3783   7.348   3.451   9.856  0.4590  1.6405  3.3184
   29MOL0     H 3784   7.566   3.323   9.788 -0.4984  0.7556 -0.2696
   29MOL0     H 3785   7.580   3.269   9.954 -1.2039 -1.1460  0.0250
   29MOL0     H 3786   7.723   3.463   9.927  1.5815  0.8016  0.5288
   29MOL0     H 3787   7.606   3.553   9.827  1.3035 -1.1985 -0.5462
   29MOL0     H 3788   7.593   3.489  10.121  1.4483 -1.4795 -1.8153
   29MOL0     H 3789   7.466   3.581  10.038  0.2284  1.1708 -1.1645
   29MOL0     H 3790   7.771   3.886  10.116  0.1371  0.2496  0.5504
   29MOL0     H 3791   7.727   4.113  10.023  1.9061 -2.3420 -0.8876
   29MOL0     H 3792   7.488   4.491   9.848 -0.7451  0.9896  1.9516
   29MOL0     H 3793   7.348   4.677   9.804  2.6650 -0.2026 -0.5770
   29MOL0     H 3794   7.041   4.739   9.902  0.4046  0.6141 -0.2602
   29MOL0     H 3795   6.936   4.618   9.833  1.1953 -0.1971  0.0491
   29MOL0     H 3796   6.834   4.747   9.678  2.0200 -2.4766 -0.2955
   29MOL0     H 3797   6.971   4.872   9.685  1.7853 -1.6229 -0.7597
   29MOL0     H 3798   6.892   4.939   9.905  1.4714 -2.0583  0.7056
   29MOL0     H 3799   6.791   4.802   9.920  0.8506 -1.4198 -1.7827
   29MOL0     H 3800   6.734   5.003   9.688 -1.9397  0.2662  0.4302
   29MOL0     H 3801   6.625   4.891   9.762 -1.2603  0.2040 -1.4490
   29MOL0     H 3802   6.751   5.122   9.937  0.4048  0.2001 -0.4627
   29MOL0     H 3803   6.608   5.025   9.965 -0.8952 -0.4090 -0.2633
   29MOL0     H 3804   6.506   5.132   9.745 -4.1186 -0.3656  3.1233
   29MOL0     H 3805   6.651   5.229   9.759 -0.4894 -0.2341 -1.1616
   29MOL0     H 3806   6.435   5.245   9.963  1.5676 -0.7510  1.4957
   29MOL0     H 3807   6.594   5.328   9.964 -0.1892  1.4680 -0.4023
   29MOL0     H 3808   6.382   5.366   9.752 -1.7002  3.2160 -1.4949
   29MOL0     H 3809   6.529   5.446   9.756 -0.9904 -0.9228 -1.1473
   29MOL0     H 3810   7.012   4.436   9.718 -0.3557  0.1204 -0.4038
   29MOL0     H 3811   7.148   4.229   9.757 -3.4308  1.5537  0.9313
   29MOL0     H 3812   7.405   3.961   9.793 -2.2052  1.5252  1.6480
   29MOL0     H 3813   7.456   3.736   9.884  1.4087 -1.5387  0.8036
   29MOL0     H 3814   6.596   2.338   9.216  0.8055 -0.2127 -0.1487
   29MOL0     H 3815   6.535   2.301   8.980 -0.5060  1.1752  0.6907
   29MOL0     H 3816   6.433   2.277   8.630 -0.4484 -1.2068  0.1861
   29MOL0     H 3817   6.326   2.232   8.425  0.3067 -2.0936 -1.3169
   29MOL0     H 3818   6.265   2.230   8.210  0.2915  0.1522  2.1309
   29MOL0     H 3819   6.345   2.081   8.229 -2.1812  0.8636  0.0349
   29MOL0     H 3820   6.377   2.050   7.988 -0.5006 -0.7456  0.7295
   29MOL0     H 3821   6.215   2.075   8.019  0.5496 -0.7184 -0.6900
   29MOL0     H 3822   6.410   2.251   7.874 -1.1260 -0.1938 -2.5545
   29MOL0     H 3823   6.273   2.330   7.962  1.1391 -0.8688  0.6378
   29MOL0     H 3824   6.273   2.141   7.724  1.2158  1.1512 -0.9484
   29MOL0     H 3825   6.124   2.189   7.838 -0.1656  0.4575 -0.1180
   29MOL0     H 3826   6.131   2.503   7.593  2.1605  1.2085  0.5168
   29MOL0     H 3827   6.656   2.377   8.207 -0.3782 -1.2270 -0.6263
   29MOL0     H 3828   6.754   2.476   8.413 -0.4658  1.4515  3.3170
   30MOL0     O 3829   3.693   8.762   2.800  0.3451  0.1792 -0.2301
   30MOL0     C 3830   3.646   8.709   2.899  0.8673  0.2485 -0.2222
   30MOL0     O 3831   3.509   8.696   2.925  0.1041  0.1738  0.4706
   30MOL0     C 3832   3.413   8.714   2.837  0.0171 -0.0185 -0.3222
   30MOL0     C 3833   3.404   8.778   2.720 -0.6228 -0.1409 -0.4965
   30MOL0     C 3834   3.286   8.785   2.649 -0.0579 -0.6641 -0.0985
   30MOL0     C 3835   3.161   8.740   2.697 -0.3436  1.3084  0.4220
   30MOL0     O 3836   3.053   8.747   2.619  0.9140 -0.2493  0.1158
   30MOL0     C 3837   2.974   8.879   2.639  0.3485  0.0822  0.2620
   30MOL0     C 3838   2.903   8.902   2.503  0.8645 -0.1392 -0.3212
   30MOL0     C 3839   2.807   8.790   2.447  0.1653  0.1472  0.0194
   30MOL0     C 3840   2.705   8.845   2.341  0.1691  0.3955 -0.1177
   30MOL0     C 3841   2.627   8.724   2.286 -0.8138 -0.6013 -0.1612
   30MOL0     C 3842   2.623   8.695   2.137 -0.8626 -0.2282  0.7922
   30MOL0     C 3843   2.561   8.556   2.110 -0.9695  0.1000  0.9455
   30MOL0     C 3844   2.411   8.560   2.112 -0.7027  0.1656 -0.3391
   30MOL0     N 3845   2.346   8.428   2.118  0.2609 -0.2790 -0.3101
   30MOL0     C 3846   2.349   8.342   2.217  0.0767  0.1894  0.2530
   30MOL0     C 3847   2.281   8.229   2.171 -0.2259  0.1130  0.6549
   30MOL0     C 3848   2.238   8.128   2.267 -0.2539 -0.1166  0.4861
   30MOL0     C 3849   2.159   8.014   2.199 -0.2220  0.4333  0.5149
   30MOL0     C 3850   2.135   7.886   2.283 -0.3770  0.4475  0.1680
   30MOL0     C 3851   2.009   7.867   2.355 -0.0032 -0.6975  0.6058
   30MOL0     O 3852   2.023   7.781   2.468 -0.0537 -0.4772  0.8964
   30MOL0     C 3853   2.068   7.818   2.586 -0.3539  0.2837 -0.5712
   30MOL0     C 3854   2.080   7.721   2.682 -0.0632  0.4591 -0.1922
   30MOL0     C 3855   2.151   7.749   2.798  0.9875 -0.0388  0.2852
   30MOL0     C 3856   2.182   7.884   2.837  0.8127  0.1313 -0.2870
   30MOL0     C 3857   2.273   7.914   2.955 -0.6551 -0.6220  0.2136
   30MOL0     O 3858   2.358   7.817   2.986  0.5412  0.0896  0.1859
   30MOL0     C 3859   2.452   7.850   3.077  0.0704 -0.4861 -0.0056
   30MOL0     C 3860   2.567   7.907   3.030 -0.2807 -1.1799  0.4430
   30MOL0     C 3861   2.666   7.966   3.119  0.3809 -0.1525  0.9864
   30MOL0     C 3862   2.636   7.964   3.256  0.2862 -0.0006 -0.6502
   30MOL0     O 3863   2.732   8.023   3.333 -0.3095 -0.4257  0.4373
   30MOL0     C 3864   2.705   8.027   3.474 -0.3571  0.6973  0.4653
   30MOL0     C 3865   2.840   8.032   3.561  0.6164 -0.0507  0.6720
   30MOL0     C 3866   2.870   8.185   3.587  0.0813  0.6324 -0.3205
   30MOL0     C 3867   2.915   8.263   3.465 -0.1249  0.8247  0.4949
   30MOL0     C 3868   2.832   8.385   3.458 -0.1057  0.1708  0.0410
   30MOL0     C 3869   2.859   8.457   3.333  0.1651 -0.3620  0.2178
   30MOL0     C 3870   2.760   8.574   3.341  0.4188 -0.4193  0.7123
   30MOL0     C 3871   2.743   8.643   3.206  0.6051 -0.3605 -0.3018
   30MOL0    Cl 3872   2.679   8.814   3.234 -0.1111 -0.3297  0.3087
   30MOL0     C 3873   2.520   7.902   3.301  0.1250 -0.1684  0.4537
   30MOL0     C 3874   2.423   7.853   3.211  0.0148  1.2029  0.5378
   30MOL0     O 3875   2.263   8.024   3.016 -0.2428  0.5152  0.2814
   30MOL0     C 3876   2.150   7.983   2.742 -1.4535 -0.2202 -0.1986
   30MOL0     C 3877   2.100   7.947   2.619  0.0303 -0.6114 -0.7624
   30MOL0     N 3878   2.255   8.244   2.037  0.6093  0.0108  0.0659
   30MOL0     N 3879   2.289   8.367   2.011  0.0055 -0.6772  0.0515
   30MOL0     C 3880   3.171   8.672   2.814  0.7299 -0.6883 -0.3791
   30MOL0     C 3881   3.298   8.651   2.884 -0.3811  0.7647  1.2134
   30MOL0     C 3882   3.733   8.684   3.015  0.4896 -0.4564 -0.1553
   30MOL0     C 3883   3.871   8.711   3.015  0.1861 -0.0883  1.1668
   30MOL0     C 3884   3.966   8.685   3.119 -0.0890  0.1900  0.5120
   30MOL0     C 3885   3.918   8.626   3.233 -0.5523 -0.6219  0.0222
   30MOL0     O 3886   4.004   8.583   3.330  1.0305  1.0160  0.1974
   30MOL0     C 3887   4.139   8.567   3.285  0.4351  0.1766 -0.3388
   30MOL0     C 3888   4.149   8.445   3.199  0.1761  0.3356  0.8183
   30MOL0     C 3889   4.299   8.442   3.138 -0.3942  1.6311 -0.5043
   30MOL0     C 3890   4.330   8.312   3.060  0.3604  0.7683 -0.5595
   30MOL0     C 3891   4.474   8.312   3.026  0.2573 -0.5723 -0.3253
   30MOL0     C 3892   4.570   8.314   2.952 -0.4860  1.3757  0.4130
   30MOL0     C 3893   3.778   8.612   3.246 -0.1067  0.0423 -0.0753
   30MOL0     C 3894   3.685   8.640   3.138  0.5320  1.0632  0.1141
   30MOL0     H 3895   3.487   8.832   2.674 -1.2126  0.6557 -0.6538
   30MOL0     H 3896   3.292   8.841   2.556  0.6664 -0.7477 -0.1039
   30MOL0     H 3897   3.028   8.972   2.660 -0.7951  0.5398  1.3018
   30MOL0     H 3898   2.896   8.857   2.712  0.1539 -1.6435 -0.4327
   30MOL0     H 3899   2.982   8.918   2.429  0.4456 -0.2929 -0.8023
   30MOL0     H 3900   2.849   8.997   2.508 -1.1763 -1.2556 -0.5164
   30MOL0     H 3901   2.753   8.751   2.533 -2.0655 -0.0253 -1.3790
   30MOL0     H 3902   2.873   8.718   2.397  0.5427  0.5486 -0.0697
   30MOL0     H 3903   2.639   8.922   2.382 -1.0525  0.4435 -2.0826
   30MOL0     H 3904   2.753   8.892   2.255  2.2735 -0.0730  0.7299
   30MOL0     H 3905   2.525   8.733   2.324 -0.6333  0.6034  0.0749
   30MOL0     H 3906   2.669   8.637   2.337  2.8977 -0.2417 -2.2364
   30MOL0     H 3907   2.727   8.688   2.102 -0.7784 -1.6655  1.2786
   30MOL0     H 3908   2.573   8.783   2.095  0.5729  1.1006  1.7080
   30MOL0     H 3909   2.598   8.528   2.011  0.0637  1.2244  0.9919
   30MOL0     H 3910   2.586   8.488   2.192  1.6005 -1.7602 -1.2153
   30MOL0     H 3911   2.375   8.616   2.025 -0.0978  0.1049 -0.6332
   30MOL0     H 3912   2.375   8.613   2.201  2.9081  0.7586  0.9129
   30MOL0     H 3913   2.375   8.351   2.322  1.0323 -3.6910  0.5069
   30MOL0     H 3914   2.174   8.164   2.348 -0.2061 -2.9073  1.8824
   30MOL0     H 3915   2.326   8.075   2.305 -0.2297 -0.3170  0.1535
   30MOL0     H 3916   2.213   7.982   2.109 -0.3214  2.5274 -0.3581
   30MOL0     H 3917   2.062   8.059   2.173 -0.7702  0.8328  3.0447
   30MOL0     H 3918   2.152   7.798   2.221 -1.0741  1.5378 -1.6634
   30MOL0     H 3919   2.213   7.887   2.359  1.9989 -3.1968 -1.9293
   30MOL0     H 3920   1.941   7.816   2.286  1.4619  1.9036 -3.1293
   30MOL0     H 3921   1.955   7.959   2.382  0.0903 -0.5916  0.4317
   30MOL0     H 3922   2.059   7.617   2.660  2.3549 -0.3413  0.9962
   30MOL0     H 3923   2.178   7.671   2.869 -1.4579 -0.0945  1.2461
   30MOL0     H 3924   2.576   7.918   2.922 -0.1215  1.0522  0.6224
   30MOL0     H 3925   2.760   8.004   3.082 -1.4378  2.4171 -1.3969
   30MOL0     H 3926   2.660   7.939   3.520  1.2654  0.8597  2.4459
   30MOL0     H 3927   2.627   8.098   3.503 -0.0061 -0.4461  4.7771
   30MOL0     H 3928   2.921   7.976   3.513  1.0947  0.5285  0.7982
   30MOL0     H 3929   2.815   7.976   3.652  1.8665 -2.4499 -0.3759
   30MOL0     H 3930   2.955   8.200   3.654  0.1162  0.6855 -0.3760
   30MOL0     H 3931   2.779   8.227   3.629 -0.7494 -1.5690  0.2252
   30MOL0     H 3932   3.019   8.295   3.464  0.0999  0.3665 -2.8046
   30MOL0     H 3933   2.900   8.206   3.373  0.8536 -1.2690  1.5496
   30MOL0     H 3934   2.853   8.443   3.549 -2.5635 -0.6619  1.2299
   30MOL0     H 3935   2.727   8.357   3.463 -0.1241  0.0526 -0.8027
   30MOL0     H 3936   2.855   8.397   3.242 -0.6336  0.2624 -0.1736
   30MOL0     H 3937   2.954   8.508   3.351 -1.6518  3.1496  0.6853
   30MOL0     H 3938   2.659   8.543   3.368  0.8105 -3.0359 -0.4328
   30MOL0     H 3939   2.798   8.646   3.414  0.6364  1.9110 -1.5406
   30MOL0     H 3940   2.670   8.596   3.139 -1.3699  0.8921  0.8389
   30MOL0     H 3941   2.837   8.654   3.153 -1.7719  0.8958 -4.7739
   30MOL0     H 3942   2.499   7.903   3.407  1.6141 -3.0848  0.8861
   30MOL0     H 3943   2.322   7.823   3.236  1.0975 -0.8969  2.7768
   30MOL0     H 3944   2.176   8.088   2.752  0.5418 -0.7925  1.5144
   30MOL0     H 3945   2.105   8.027   2.546  1.6588  0.6600  0.6635
   30MOL0     H 3946   3.076   8.632   2.849 -0.4708  1.9598 -0.4039
   30MOL0     H 3947   3.294   8.570   2.957  4.1250 -1.0427 -0.2405
   30MOL0     H 3948   3.915   8.736   2.919 -0.9942 -0.0521  0.6117
   30MOL0     H 3949   4.063   8.714   3.079 -1.1488 -0.0700 -2.4725
   30MOL0     H 3950   4.194   8.571   3.380 -0.7988 -0.0234  0.4102
   30MOL0     H 3951   4.180   8.653   3.230  1.8139 -0.5311 -0.4592
   30MOL0     H 3952   4.138   8.358   3.264 -1.0083  1.5055  2.2445
   30MOL0     H 3953   4.081   8.437   3.113  0.3604 -1.7223  0.8283
   30MOL0     H 3954   4.377   8.451   3.214 -1.1028 -0.8826  0.6153
   30MOL0     H 3955   4.313   8.525   3.068  0.1791  0.7055 -1.5254
   30MOL0     H 3956   4.302   8.220   3.112 -1.0751  1.4201 -0.1548
   30MOL0     H 3957   4.274   8.304   2.966  1.6965 -1.3590 -1.2491
   30MOL0     H 3958   4.643   8.303   2.874  1.5405  0.1793  2.3361
   30MOL0     H 3959   3.739   8.572   3.339 -0.3100  3.0957  1.2755
   30MOL0     H 3960   3.586   8.602   3.160  1.1185  0.4225  1.8346
   31MOL0     O 3961   4.871   7.503   5.147  0.3783  0.2011  0.0834
   31MOL0     C 3962   4.779   7.420   5.132 -0.0008  0.3058 -0.1161
   31MOL0     O 3963   4.669   7.410   5.222 -0.0252  0.7813  0.2184
   31MOL0     C 3964   4.670   7.477   5.342  0.6933  0.0322  0.6789
   31MOL0     C 3965   4.778   7.544   5.407 -0.6473 -0.1281  0.5798
   31MOL0     C 3966   4.759   7.620   5.521  0.5296  0.1333  0.2841
   31MOL0     C 3967   4.640   7.613   5.587  0.7998 -0.3898  0.2637
   31MOL0     O 3968   4.606   7.674   5.695  0.1878 -0.3524 -0.9477
   31MOL0     C 3969   4.672   7.799   5.724  0.3099  0.9129  0.6496
   31MOL0     C 3970   4.641   7.819   5.870  0.2285 -0.2525 -0.3863
   31MOL0     C 3971   4.498   7.812   5.921  0.5573  1.2165 -0.6919
   31MOL0     C 3972   4.473   7.853   6.073 -0.8258 -0.3345  1.1464
   31MOL0     C 3973   4.454   8.006   6.079  0.2618 -0.0178 -0.1244
   31MOL0     C 3974   4.419   8.053   6.221 -0.6386  0.3670  0.6645
   31MOL0     C 3975   4.276   8.023   6.258 -0.1775 -0.1598 -0.2862
   31MOL0     C 3976   4.190   8.143   6.264 -0.3817 -0.2664 -0.2032
   31MOL0     N 3977   4.152   8.199   6.140  0.4733 -0.0899 -0.5176
   31MOL0     C 3978   4.225   8.294   6.068  1.2647  0.0543  0.6382
   31MOL0     C 3979   4.139   8.313   5.959 -0.0749  0.5476 -0.3722
   31MOL0     C 3980   4.175   8.404   5.847 -0.4821  1.1881  0.8394
   31MOL0     C 3981   4.314   8.357   5.783  0.4708 -0.4289  0.4398
   31MOL0     C 3982   4.310   8.229   5.710  0.0595  0.1046  1.0777
   31MOL0     C 3983   4.436   8.179   5.654  0.5724 -0.8318 -0.1353
   31MOL0     O 3984   4.456   8.270   5.544 -0.7959  0.4118 -0.2741
   31MOL0     C 3985   4.564   8.223   5.454 -0.4478 -0.5813 -0.8664
   31MOL0     C 3986   4.566   8.269   5.326  0.2566 -0.4273  0.4226
   31MOL0     C 3987   4.673   8.231   5.236  0.2110 -0.4718  0.1930
   31MOL0     C 3988   4.766   8.133   5.274  0.2953 -0.3859  0.6099
   31MOL0     C 3989   4.871   8.098   5.175 -0.0919  0.4783 -0.8745
   31MOL0     O 3990   4.932   7.982   5.203 -0.1574 -0.0735  0.0578
   31MOL0     C 3991   5.021   7.920   5.116 -0.2214 -0.4510  1.2194
   31MOL0     C 3992   4.980   7.787   5.074 -0.7649 -0.6130  0.5851
   31MOL0     C 3993   5.074   7.701   5.000 -0.0427 -0.5622  0.7130
   31MOL0     C 3994   5.194   7.759   4.967  0.9092  0.4391  0.6785
   31MOL0     O 3995   5.284   7.669   4.922 -0.2276  0.0003  0.1840
   31MOL0     C 3996   5.379   7.714   4.809  1.0086 -0.1257  0.0046
   31MOL0     C 3997   5.521   7.722   4.872  1.2661  1.2529  0.0323
   31MOL0     C 3998   5.614   7.780   4.764 -0.3392  0.0522 -0.0651
   31MOL0     C 3999   5.657   7.687   4.654  0.3475 -0.5031  0.3435
   31MOL0     C 4000   5.713   7.769   4.543  1.4612  0.4071  0.1029
   31MOL0     C 4001   5.806   7.697   4.454  0.7075  0.6422 -0.0351
   31MOL0     C 4002   5.830   7.770   4.318  0.3447 -0.5153  0.8172
   31MOL0     C 4003   5.704   7.741   4.220 -0.5423 -0.0162  0.5866
   31MOL0    Cl 4004   5.733   7.829   4.066  0.3171  0.3987  0.9192
   31MOL0     C 4005   5.229   7.885   5.008 -0.8471 -0.4943  0.2874
   31MOL0     C 4006   5.148   7.969   5.088 -0.3186  0.8023  1.1771
   31MOL0     O 4007   4.890   8.167   5.082 -0.1589  0.0716  0.3750
   31MOL0     C 4008   4.755   8.072   5.401  0.0354 -0.3010 -0.2826
   31MOL0     C 4009   4.663   8.128   5.487 -0.0719 -1.0257  0.8102
   31MOL0     N 4010   4.023   8.236   5.962 -0.8901 -0.7572  0.0800
   31MOL0     N 4011   4.034   8.167   6.075 -0.0212 -0.0791  0.5656
   31MOL0     C 4012   4.537   7.546   5.530 -0.3809  0.3785  0.0963
   31MOL0     C 4013   4.549   7.478   5.407  0.2250 -0.0215 -0.2479
   31MOL0     C 4014   4.798   7.313   5.036  0.4370  0.6612 -0.2708
   31MOL0     C 4015   4.693   7.220   5.007  0.3775 -0.6048  0.6457
   31MOL0     C 4016   4.709   7.113   4.924 -0.4123 -0.8887 -1.0931
   31MOL0     C 4017   4.818   7.113   4.834  0.4940 -0.0237 -0.5728
   31MOL0     O 4018   4.817   7.030   4.730  0.1532 -0.0080  0.7517
   31MOL0     C 4019   4.757   6.904   4.739 -0.7113  0.2392 -0.8806
   31MOL0     C 4020   4.855   6.812   4.653 -0.2961 -0.1538  0.4997
   31MOL0     C 4021   4.980   6.775   4.730 -0.2338 -0.6399 -0.1406
   31MOL0     C 4022   5.096   6.743   4.638 -0.4422  0.2506 -0.2395
   31MOL0     C 4023   5.067   6.641   4.540 -0.4237 -0.1893  0.4676
   31MOL0     C 4024   5.063   6.551   4.453  0.0654  0.7147  0.2857
   31MOL0     C 4025   4.914   7.215   4.846 -0.8372 -0.6618 -0.9711
   31MOL0     C 4026   4.911   7.304   4.956  0.2673 -0.7156 -0.5116
   31MOL0     H 4027   4.879   7.532   5.369 -1.2820 -0.0438 -1.2039
   31MOL0     H 4028   4.836   7.679   5.570 -0.4225  2.5544 -0.9932
   31MOL0     H 4029   4.626   7.877   5.664 -0.9334 -0.3848 -0.1558
   31MOL0     H 4030   4.779   7.807   5.705  0.5853 -0.8105  1.3048
   31MOL0     H 4031   4.671   7.920   5.902  3.7032 -1.0447 -0.7575
   31MOL0     H 4032   4.705   7.747   5.921  0.3290 -0.7217 -1.1585
   31MOL0     H 4033   4.477   7.705   5.918 -1.3999  1.3164  3.1068
   31MOL0     H 4034   4.424   7.870   5.864  0.1522  1.2047 -0.1910
   31MOL0     H 4035   4.388   7.796   6.111 -1.9940 -2.0777 -3.4486
   31MOL0     H 4036   4.566   7.822   6.122  2.0855  1.7512 -2.5299
   31MOL0     H 4037   4.378   8.042   6.010  1.1571  2.2343 -0.0020
   31MOL0     H 4038   4.548   8.052   6.048  0.3308 -1.3118 -2.0019
   31MOL0     H 4039   4.423   8.162   6.212  0.1239  0.1725 -3.1997
   31MOL0     H 4040   4.497   8.018   6.289 -0.3026  1.6886  0.9837
   31MOL0     H 4041   4.244   7.953   6.180  2.4389  0.2971 -1.8834
   31MOL0     H 4042   4.259   7.966   6.350  2.9424  0.5259  0.8281
   31MOL0     H 4043   4.229   8.215   6.336  1.3587 -2.6422  1.3698
   31MOL0     H 4044   4.101   8.099   6.311  0.2578 -1.1094  0.2336
   31MOL0     H 4045   4.318   8.338   6.102 -0.5928  2.4486  3.0099
   31MOL0     H 4046   4.177   8.511   5.871 -0.8258  1.4619 -0.3169
   31MOL0     H 4047   4.116   8.382   5.758  2.4073 -2.2805 -0.4039
   31MOL0     H 4048   4.384   8.356   5.867  0.8981  0.1212  0.0945
   31MOL0     H 4049   4.350   8.438   5.720  2.7975 -0.4211  1.7103
   31MOL0     H 4050   4.269   8.167   5.790  1.6856  0.1475  1.9936
   31MOL0     H 4051   4.231   8.228   5.635  0.2637 -2.7069  0.7936
   31MOL0     H 4052   4.419   8.075   5.623  1.1101 -0.3396 -2.2515
   31MOL0     H 4053   4.517   8.181   5.727  0.0167 -1.7225  0.5376
   31MOL0     H 4054   4.488   8.342   5.306 -0.0169 -0.0710  2.5339
   31MOL0     H 4055   4.678   8.279   5.139 -1.1025  0.7852  0.7169
   31MOL0     H 4056   4.882   7.750   5.102  0.3652 -2.6153  2.1564
   31MOL0     H 4057   5.056   7.598   4.973  1.5618 -0.9705  1.0563
   31MOL0     H 4058   5.343   7.811   4.774  0.5119 -0.5032 -0.5458
   31MOL0     H 4059   5.377   7.639   4.730  0.0656  0.0349 -0.1330
   31MOL0     H 4060   5.541   7.616   4.891  0.8084  1.0729 -0.4754
   31MOL0     H 4061   5.517   7.775   4.967  2.3989  3.0254 -0.8513
   31MOL0     H 4062   5.698   7.822   4.821  0.9264 -1.9727 -0.3268
   31MOL0     H 4063   5.544   7.856   4.727 -1.0627 -0.7054 -0.2764
   31MOL0     H 4064   5.742   7.631   4.693 -1.2177 -0.5983  3.9970
   31MOL0     H 4065   5.582   7.618   4.613 -0.9117 -1.7710  4.3090
   31MOL0     H 4066   5.752   7.864   4.580 -1.9514  2.1538 -0.3677
   31MOL0     H 4067   5.628   7.790   4.478  1.7349  0.1644 -0.3429
   31MOL0     H 4068   5.772   7.596   4.432  2.6093  0.4170 -2.4378
   31MOL0     H 4069   5.895   7.691   4.518 -1.1389 -2.3417  2.5429
   31MOL0     H 4070   5.855   7.876   4.315  0.7929 -0.6238  0.6215
   31MOL0     H 4071   5.917   7.721   4.275  0.6272  0.9076 -0.3179
   31MOL0     H 4072   5.613   7.783   4.264  0.9106 -0.3647  4.2568
   31MOL0     H 4073   5.700   7.637   4.186  1.7136  0.9882 -3.2786
   31MOL0     H 4074   5.329   7.922   4.991 -1.2877 -0.7773 -4.2112
   31MOL0     H 4075   5.176   8.061   5.138  1.2943  1.0651 -0.1148
   31MOL0     H 4076   4.823   7.995   5.436  0.9478 -0.4035 -2.1340
   31MOL0     H 4077   4.657   8.086   5.587  0.0355 -1.6082  0.5754
   31MOL0     H 4078   4.442   7.541   5.582 -1.2460  0.0643 -1.4680
   31MOL0     H 4079   4.465   7.415   5.382  0.4099 -0.5935  0.5382
   31MOL0     H 4080   4.603   7.225   5.067 -1.7966  1.6193 -2.5074
   31MOL0     H 4081   4.638   7.032   4.936 -1.9549  0.5517 -0.1236
   31MOL0     H 4082   4.652   6.908   4.707 -1.7776 -3.0936  1.5957
   31MOL0     H 4083   4.737   6.856   4.836  0.6129  2.2314  0.4318
   31MOL0     H 4084   4.806   6.732   4.598 -1.6640  2.2290 -2.0039
   31MOL0     H 4085   4.879   6.882   4.573 -1.3591 -0.3393 -0.0044
   31MOL0     H 4086   4.953   6.690   4.792 -3.3386 -0.6209 -1.3031
   31MOL0     H 4087   5.016   6.861   4.787  0.0659 -0.4480 -0.6084
   31MOL0     H 4088   5.135   6.830   4.585 -1.8949  0.9582 -0.1842
   31MOL0     H 4089   5.180   6.694   4.689 -2.1314 -3.5910 -0.7550
   31MOL0     H 4090   5.050   6.474   4.380 -0.7058 -0.9298  2.0500
   31MOL0     H 4091   4.999   7.197   4.781  0.1752 -3.1049  0.8749
   31MOL0     H 4092   4.983   7.383   4.974 -1.0513  1.0784 -2.5064
   32MOL0     O 4093   1.199   7.208   5.827  0.1071 -0.2151 -1.0087
   32MOL0     C 4094   1.133   7.217   5.938 -0.9572 -0.5357 -0.1866
   32MOL0     O 4095   1.016   7.147   5.959  0.0258  0.2528  0.0548
   32MOL0     C 4096   0.959   7.091   5.846  0.4653  0.0645  0.1322
   32MOL0     C 4097   0.909   7.168   5.733  0.2239  0.3527 -0.4620
   32MOL0     C 4098   0.842   7.105   5.632 -0.4209  0.3270 -0.0378
   32MOL0     C 4099   0.821   6.957   5.633 -0.1931 -0.2706  0.2605
   32MOL0     O 4100   0.754   6.896   5.523 -0.5051  0.2973 -0.0598
   32MOL0     C 4101   0.629   6.943   5.492  0.6579 -0.5536  0.2401
   32MOL0     C 4102   0.565   6.862   5.380 -0.7564 -0.1120 -0.6080
   32MOL0     C 4103   0.417   6.897   5.377 -0.5425  0.1241 -0.9418
   32MOL0     C 4104   0.338   6.810   5.272 -0.5357  0.4995 -0.7249
   32MOL0     C 4105   0.325   6.866   5.138 -0.0244 -0.5672 -0.0306
   32MOL0     C 4106   0.247   6.772   5.038 -1.2617 -0.4345 -0.7793
   32MOL0     C 4107   0.235   6.856   4.906  1.2740 -0.0126 -0.6747
   32MOL0     C 4108   0.230   6.783   4.771 -1.2887 -0.3711  0.1220
   32MOL0     N 4109   0.128   6.675   4.772 -0.3693  0.1727  0.6066
   32MOL0     C 4110   0.120   6.559   4.851 -0.4639 -0.9475 -0.4227
   32MOL0     C 4111   0.002   6.507   4.816  0.0342 -0.3476 -0.2378
   32MOL0     C 4112  -0.053   6.374   4.865  0.0621  0.1742  0.7445
   32MOL0     C 4113   0.057   6.267   4.856 -0.5477  0.2705 -0.3176
   32MOL0     C 4114   0.015   6.119   4.898  0.7117  0.0259 -0.1467
   32MOL0     C 4115  -0.039   6.119   5.039  1.5649 -0.6043 -0.3073
   32MOL0     O 4116   0.076   6.118   5.129  0.7519 -0.1010  0.7836
   32MOL0     C 4117   0.083   6.022   5.223  1.0959  0.4260  0.0080
   32MOL0     C 4118   0.041   6.054   5.358 -1.4124  0.5281  0.3955
   32MOL0     C 4119   0.060   5.954   5.448 -0.1110  0.5555 -0.1498
   32MOL0     C 4120   0.103   5.821   5.412 -0.3501  0.8672 -0.1439
   32MOL0     C 4121   0.112   5.701   5.495 -0.0888  0.6363 -0.0555
   32MOL0     O 4122   0.203   5.593   5.463 -0.2889  0.4697 -0.0474
   32MOL0     C 4123   0.220   5.499   5.561 -0.1545  1.0272  0.6603
   32MOL0     C 4124   0.296   5.526   5.683  0.5564  0.4073  0.3290
   32MOL0     C 4125   0.308   5.439   5.801  0.0828  1.1659  0.8482
   32MOL0     C 4126   0.260   5.301   5.775 -0.1655 -0.5394  0.1470
   32MOL0     O 4127   0.272   5.193   5.863  0.4360  1.0821 -0.7598
   32MOL0     C 4128   0.269   5.228   6.000 -0.3790 -0.4580  0.0372
   32MOL0     C 4129   0.266   5.105   6.075 -0.0267 -0.1790  0.1185
   32MOL0     C 4130   0.139   5.028   6.059  0.1126  1.0809  0.3285
   32MOL0     C 4131   0.157   4.914   6.145 -0.3007  0.0428  0.0281
   32MOL0     C 4132   0.023   4.836   6.170 -0.7890 -0.4157 -0.5320
   32MOL0     C 4133   0.026   4.715   6.253  0.8921  0.2298  1.1162
   32MOL0     C 4134  -0.114   4.681   6.305 -0.4802  0.0499  0.6549
   32MOL0     C 4135  -0.088   4.596   6.427  0.3445 -0.8782 -0.2418
   32MOL0    Cl 4136   0.010   4.692   6.542  0.2084  0.0012 -0.0213
   32MOL0     C 4137   0.189   5.274   5.654 -0.7110 -0.6519  0.0809
   32MOL0     C 4138   0.176   5.369   5.546  0.2435  0.1652 -0.3433
   32MOL0     O 4139   0.049   5.710   5.599  0.0647 -0.1762 -0.3406
   32MOL0     C 4140   0.140   5.800   5.278  0.2475 -0.5548  0.3631
   32MOL0     C 4141   0.134   5.896   5.187  0.0305 -0.4011  0.4421
   32MOL0     N 4142  -0.050   6.579   4.712  0.1946 -0.5017 -0.9992
   32MOL0     N 4143   0.020   6.684   4.690 -0.9711 -0.4799 -0.6960
   32MOL0     C 4144   0.894   6.878   5.725  1.4954 -0.1463  0.0277
   32MOL0     C 4145   0.955   6.948   5.835 -0.3852  0.1672 -0.9544
   32MOL0     C 4146   1.174   7.309   6.045 -0.3701 -1.4059  0.0799
   32MOL0     C 4147   1.095   7.326   6.156  1.0896  0.2468  0.8399
   32MOL0     C 4148   1.139   7.397   6.269  0.0851 -0.4951 -0.4299
   32MOL0     C 4149   1.270   7.450   6.271 -0.4763  0.4915  0.5763
   32MOL0     O 4150   1.307   7.489   6.398 -1.1853 -0.6033 -0.0944
   32MOL0     C 4151   1.440   7.526   6.428 -0.3767 -0.1347  0.7645
   32MOL0     C 4152   1.449   7.576   6.568  1.0008  0.5344  0.1112
   32MOL0     C 4153   1.422   7.720   6.588  0.6765  0.9986  0.2783
   32MOL0     C 4154   1.533   7.814   6.539 -0.2544  1.8149 -0.2184
   32MOL0     C 4155   1.475   7.941   6.513 -1.1136  0.3659 -0.7759
   32MOL0     C 4156   1.420   8.043   6.479 -0.7575 -0.0057  0.2418
   32MOL0     C 4157   1.349   7.436   6.152 -0.7367  0.1118  0.0898
   32MOL0     C 4158   1.303   7.370   6.045  0.7892 -0.5391 -0.0765
   32MOL0     H 4159   0.926   7.274   5.744  3.6434 -0.2050  1.2087
   32MOL0     H 4160   0.787   7.163   5.558 -1.5994 -0.3229  0.2934
   32MOL0     H 4161   0.641   7.048   5.464  1.8340 -0.3598  1.4227
   32MOL0     H 4162   0.565   6.947   5.581  1.6891  0.5496  0.9530
   32MOL0     H 4163   0.566   6.757   5.410  1.1261  0.0799  0.1553
   32MOL0     H 4164   0.622   6.877   5.288  1.4036  3.4823  1.0969
   32MOL0     H 4165   0.401   7.004   5.357  0.4220  0.5201  0.2782
   32MOL0     H 4166   0.377   6.871   5.475  1.5469 -0.7313 -0.2600
   32MOL0     H 4167   0.379   6.709   5.265 -3.4874 -0.7291 -1.9105
   32MOL0     H 4168   0.248   6.796   5.332  2.1137  1.1200  3.8162
   32MOL0     H 4169   0.426   6.883   5.098 -0.1800 -2.7884 -1.6041
   32MOL0     H 4170   0.281   6.965   5.147  2.2295  0.4100  1.2430
   32MOL0     H 4171   0.152   6.746   5.086  0.9233 -0.1465  4.3963
   32MOL0     H 4172   0.310   6.685   5.018  3.7359  2.1012  2.0038
   32MOL0     H 4173   0.151   6.926   4.912  1.5837  0.3154 -0.0072
   32MOL0     H 4174   0.313   6.933   4.894 -1.0473  2.4042 -1.1830
   32MOL0     H 4175   0.330   6.746   4.745  1.2151  4.2470  1.8634
   32MOL0     H 4176   0.216   6.862   4.697  0.8894  1.9803  1.9933
   32MOL0     H 4177   0.185   6.533   4.934  0.8304 -0.5290 -1.2725
   32MOL0     H 4178  -0.119   6.339   4.785  3.7631  1.8420 -3.4235
   32MOL0     H 4179  -0.104   6.388   4.961 -2.0045  2.2142 -0.5387
   32MOL0     H 4180   0.146   6.293   4.914  0.2595 -0.8750 -1.0131
   32MOL0     H 4181   0.093   6.255   4.754 -0.8285  1.4975 -0.5728
   32MOL0     H 4182  -0.057   6.097   4.819  0.7915  3.2283 -1.2595
   32MOL0     H 4183   0.100   6.050   4.900  1.4089  0.6264  5.4889
   32MOL0     H 4184  -0.094   6.026   5.056  2.2276 -0.4141  3.8059
   32MOL0     H 4185  -0.109   6.202   5.055  1.2962 -0.8141 -0.3771
   32MOL0     H 4186  -0.005   6.148   5.386 -1.2364  1.3916 -2.0125
   32MOL0     H 4187   0.029   5.973   5.551 -0.5850  1.4258 -0.4450
   32MOL0     H 4188   0.353   5.618   5.669  0.2847  0.4429 -0.6259
   32MOL0     H 4189   0.386   5.466   5.871  0.9556  2.4109 -0.5467
   32MOL0     H 4190   0.179   5.289   6.012  1.3309  2.5146 -1.2202
   32MOL0     H 4191   0.358   5.284   6.027 -0.2636 -1.0449  0.8980
   32MOL0     H 4192   0.280   5.141   6.177 -5.3185  0.9172  0.7098
   32MOL0     H 4193   0.354   5.046   6.050  2.4502  3.3702 -0.3787
   32MOL0     H 4194   0.118   5.010   5.953 -3.7066  3.3155  0.5410
   32MOL0     H 4195   0.059   5.092   6.097 -1.2893  0.3263 -1.2504
   32MOL0     H 4196   0.219   4.839   6.095 -1.6234 -2.2306  1.5739
   32MOL0     H 4197   0.193   4.934   6.247 -1.1304 -1.3495  0.6364
   32MOL0     H 4198  -0.018   4.799   6.075  0.8962 -2.4527 -0.5422
   32MOL0     H 4199  -0.050   4.902   6.217  1.5822  0.1452  2.6722
   32MOL0     H 4200   0.098   4.740   6.332  1.7558 -0.7573  0.6712
   32MOL0     H 4201   0.067   4.642   6.183 -2.9514 -1.0147 -0.0597
   32MOL0     H 4202  -0.168   4.769   6.341 -1.7594 -0.7852  0.8525
   32MOL0     H 4203  -0.185   4.642   6.231 -2.1815  1.9558  1.1695
   32MOL0     H 4204  -0.028   4.507   6.408 -0.7138 -1.9445  1.1105
   32MOL0     H 4205  -0.179   4.564   6.480  0.2932  3.4495  2.7990
   32MOL0     H 4206   0.148   5.174   5.644  0.4462 -1.1764  0.4997
   32MOL0     H 4207   0.120   5.361   5.453  0.6075  0.8592 -0.6355
   32MOL0     H 4208   0.179   5.702   5.252  1.2060  0.1211 -0.8579
   32MOL0     H 4209   0.170   5.878   5.086  2.5381  1.1536  0.9741
   32MOL0     H 4210   0.894   6.770   5.713 -0.7014  0.0987 -3.4686
   32MOL0     H 4211   1.002   6.891   5.914 -1.8066 -2.2476 -1.7602
   32MOL0     H 4212   0.999   7.277   6.142  1.9326 -0.9188 -1.5198
   32MOL0     H 4213   1.096   7.401   6.368  2.2854 -3.1037  0.7785
   32MOL0     H 4214   1.473   7.600   6.356 -2.5909  1.5577  1.3854
   32MOL0     H 4215   1.500   7.435   6.434  0.9133  0.7643  2.0915
   32MOL0     H 4216   1.370   7.522   6.622 -1.3404  0.5513 -3.0081
   32MOL0     H 4217   1.544   7.547   6.613  0.8240  0.0970  0.2123
   32MOL0     H 4218   1.419   7.731   6.697 -0.6815 -1.6793  0.6203
   32MOL0     H 4219   1.328   7.743   6.536 -0.0546 -0.8343  0.6819
   32MOL0     H 4220   1.599   7.825   6.625 -0.8669  2.8052  0.1355
   32MOL0     H 4221   1.584   7.774   6.451 -0.5250  0.5588  0.1773
   32MOL0     H 4222   1.378   8.135   6.442  1.9164  0.5371 -1.7931
   32MOL0     H 4223   1.456   7.451   6.154 -0.0982 -3.0660 -2.5548
   32MOL0     H 4224   1.377   7.343   5.970  1.2923 -0.9047  0.5391
   33MOL0     O 4225   5.830   1.192   6.726 -0.3650  0.0362  1.3843
   33MOL0     C 4226   5.756   1.280   6.680  1.1037 -0.4595 -0.3396
   33MOL0     O 4227   5.629   1.269   6.629 -0.0739 -0.0176  0.9216
   33MOL0     C 4228   5.574   1.148   6.596 -0.8447  0.7008  0.5523
   33MOL0     C 4229   5.634   1.049   6.519  1.2867 -0.3648  0.0212
   33MOL0     C 4230   5.562   0.931   6.485 -0.0248  0.7311 -0.9094
   33MOL0     C 4231   5.421   0.915   6.523 -0.8625 -1.1346 -0.2448
   33MOL0     O 4232   5.346   0.806   6.493 -0.2855  0.6364  0.0348
   33MOL0     C 4233   5.262   0.828   6.386  0.3470 -0.0730 -0.2898
   33MOL0     C 4234   5.279   0.724   6.282  0.3167  0.8865 -0.3349
   33MOL0     C 4235   5.177   0.754   6.169 -0.5072 -0.1438 -0.0959
   33MOL0     C 4236   5.208   0.649   6.055 -0.7935 -0.4353 -0.2553
   33MOL0     C 4237   5.127   0.694   5.926 -0.8870 -1.2896 -0.2094
   33MOL0     C 4238   4.986   0.644   5.922  0.2630 -0.0257 -0.4942
   33MOL0     C 4239   4.922   0.660   5.784  1.2238  0.2505 -0.7119
   33MOL0     C 4240   4.770   0.651   5.782 -0.6311  0.6477  0.2731
   33MOL0     N 4241   4.726   0.745   5.676  0.3716 -0.0591  0.1079
   33MOL0     C 4242   4.724   0.700   5.547 -0.6997  0.4960 -0.0146
   33MOL0     C 4243   4.672   0.802   5.479  0.1645  1.0408  0.6912
   33MOL0     C 4244   4.645   0.818   5.327  0.9270  0.0147 -0.6427
   33MOL0     C 4245   4.715   0.941   5.282 -0.1940 -0.1912 -0.4957
   33MOL0     C 4246   4.861   0.942   5.302 -1.4367 -0.4390  0.3948
   33MOL0     C 4247   4.916   1.077   5.268 -0.2660 -0.0828  0.5903
   33MOL0     O 4248   5.044   1.103   5.333 -0.3299 -0.7978  0.2196
   33MOL0     C 4249   5.046   1.205   5.427 -0.8996 -0.4274 -0.8578
   33MOL0     C 4250   4.942   1.240   5.520 -0.3921 -0.7534  0.2543
   33MOL0     C 4251   4.970   1.338   5.617 -0.8492  0.3361  1.2839
   33MOL0     C 4252   5.095   1.392   5.635 -0.1866 -0.7915 -0.2077
   33MOL0     C 4253   5.104   1.489   5.747 -0.6678 -1.0447  0.2571
   33MOL0     O 4254   5.230   1.529   5.765 -0.2999 -0.3179  0.0117
   33MOL0     C 4255   5.250   1.651   5.821 -0.1980  0.5366 -0.7102
   33MOL0     C 4256   5.358   1.725   5.772  0.4113  0.1254 -0.9636
   33MOL0     C 4257   5.399   1.850   5.833 -0.0799 -0.7230 -1.2991
   33MOL0     C 4258   5.342   1.895   5.948 -1.3482 -0.2994  0.0460
   33MOL0     O 4259   5.391   1.989   6.042 -0.2217  1.2635  1.2059
   33MOL0     C 4260   5.526   2.035   6.036  0.2843 -0.1174  0.9782
   33MOL0     C 4261   5.544   2.141   6.143 -0.2813 -0.4454 -0.1463
   33MOL0     C 4262   5.688   2.188   6.152 -0.0660  0.2228 -0.3363
   33MOL0     C 4263   5.708   2.270   6.277 -0.7334 -0.6303 -0.7579
   33MOL0     C 4264   5.843   2.345   6.261  0.4512  0.7759 -0.0345
   33MOL0     C 4265   5.881   2.412   6.390 -0.1027  0.4680  0.3930
   33MOL0     C 4266   5.992   2.527   6.374 -1.6743 -1.1267 -0.0731
   33MOL0     C 4267   5.929   2.665   6.416  0.2815  0.5303  0.6213
   33MOL0    Cl 4268   5.940   2.692   6.597  0.2314 -0.6102  0.5679
   33MOL0     C 4269   5.234   1.827   6.002 -0.2504 -0.6711 -0.4389
   33MOL0     C 4270   5.187   1.710   5.939  0.6393  1.1357  0.4318
   33MOL0     O 4271   5.011   1.522   5.818  0.4293  0.1466  0.6597
   33MOL0     C 4272   5.198   1.363   5.539 -0.2839  0.4496 -0.4019
   33MOL0     C 4273   5.172   1.272   5.437 -0.4764  0.8657  0.1585
   33MOL0     N 4274   4.635   0.901   5.561  0.9748  1.0464  0.0471
   33MOL0     N 4275   4.672   0.872   5.681 -0.6715  1.1910  0.2001
   33MOL0     C 4276   5.363   1.015   6.600  0.2013 -0.4235 -0.3755
   33MOL0     C 4277   5.437   1.127   6.639 -0.5174  0.9113 -0.4526
   33MOL0     C 4278   5.809   1.414   6.698 -0.0846 -0.3779 -0.1608
   33MOL0     C 4279   5.725   1.523   6.744 -0.9423 -0.1318 -0.1615
   33MOL0     C 4280   5.768   1.652   6.749 -0.3290 -0.0979 -0.0799
   33MOL0     C 4281   5.903   1.677   6.707 -0.2942  0.7435 -0.7606
   33MOL0     O 4282   5.969   1.796   6.706 -0.0913 -0.4157  0.1375
   33MOL0     C 4283   5.896   1.916   6.664 -0.5230  0.6404  0.1674
   33MOL0     C 4284   5.962   2.028   6.731 -0.7590 -0.6980 -0.2182
   33MOL0     C 4285   6.099   2.078   6.654 -0.7537  0.4451 -0.1934
   33MOL0     C 4286   6.222   2.011   6.726 -1.2593 -0.0918  0.2736
   33MOL0     C 4287   6.354   2.054   6.671  0.0926 -0.9389 -0.6605
   33MOL0     C 4288   6.463   2.091   6.624  0.3954  0.0039 -0.7933
   33MOL0     C 4289   5.982   1.573   6.670 -0.9515  0.1025 -0.2100
   33MOL0     C 4290   5.939   1.444   6.668 -0.0842  0.0154 -0.3674
   33MOL0     H 4291   5.737   1.052   6.484  1.4075 -1.1434  0.2874
   33MOL0     H 4292   5.580   0.847   6.419 -0.2236 -0.0087 -0.0487
   33MOL0     H 4293   5.284   0.921   6.333  0.5728  0.5010  0.7893
   33MOL0     H 4294   5.164   0.821   6.435  1.0523 -0.2054  1.1716
   33MOL0     H 4295   5.271   0.627   6.332  2.8548  1.3899  1.2703
   33MOL0     H 4296   5.384   0.723   6.252  0.8436  0.2379  1.3900
   33MOL0     H 4297   5.191   0.855   6.131  0.7091 -0.3459 -0.2204
   33MOL0     H 4298   5.074   0.731   6.197 -0.2355 -2.4317 -0.7200
   33MOL0     H 4299   5.313   0.665   6.027 -0.2345 -2.6949  0.3191
   33MOL0     H 4300   5.208   0.544   6.087 -2.9470 -0.4748 -0.2619
   33MOL0     H 4301   5.177   0.649   5.840  1.4133  0.2558  0.2395
   33MOL0     H 4302   5.131   0.803   5.915  2.5029 -1.4954 -2.4214
   33MOL0     H 4303   4.921   0.696   5.993  0.7051  1.6401 -1.2426
   33MOL0     H 4304   4.987   0.538   5.948  2.0496  0.4556  1.7282
   33MOL0     H 4305   4.947   0.763   5.755 -0.9706  0.4261 -2.2591
   33MOL0     H 4306   4.973   0.581   5.727  1.0953  0.7437 -1.5364
   33MOL0     H 4307   4.722   0.672   5.878 -2.1697 -2.4290  0.3031
   33MOL0     H 4308   4.737   0.547   5.770 -1.0164  0.7816  0.1724
   33MOL0     H 4309   4.751   0.600   5.513  0.3661  0.3760  1.0827
   33MOL0     H 4310   4.538   0.839   5.327  1.2222  1.7025  0.5142
   33MOL0     H 4311   4.660   0.726   5.269  2.1825  0.5851 -1.2597
   33MOL0     H 4312   4.673   1.018   5.348 -3.5590 -3.4118  1.5822
   33MOL0     H 4313   4.708   0.966   5.176  0.3623  2.7166  0.0692
   33MOL0     H 4314   4.890   0.931   5.407 -1.5735  1.9218  0.7327
   33MOL0     H 4315   4.911   0.858   5.252 -0.8070  0.0501  0.1814
   33MOL0     H 4316   4.852   1.164   5.284 -0.3076  0.0556 -0.3211
   33MOL0     H 4317   4.920   1.062   5.160 -4.3023  0.4525  0.2167
   33MOL0     H 4318   4.843   1.196   5.525 -1.2437  0.9110 -0.8573
   33MOL0     H 4319   4.886   1.355   5.684 -2.1234  2.4963 -0.6844
   33MOL0     H 4320   5.418   1.682   5.693  0.8532  0.5494 -0.8669
   33MOL0     H 4321   5.485   1.908   5.801  3.3992 -2.1862  4.1337
   33MOL0     H 4322   5.528   2.088   5.941 -2.5224  0.8044  1.3276
   33MOL0     H 4323   5.591   1.947   6.039 -0.2250 -0.5072  0.8105
   33MOL0     H 4324   5.512   2.122   6.246 -1.4312  1.8260 -0.0083
   33MOL0     H 4325   5.479   2.226   6.121  1.2471  1.2274  1.3982
   33MOL0     H 4326   5.711   2.249   6.064 -0.5167  1.1479  0.1711
   33MOL0     H 4327   5.764   2.110   6.141  1.0468  1.4440 -1.6750
   33MOL0     H 4328   5.629   2.346   6.278 -0.1010  0.1134 -2.5054
   33MOL0     H 4329   5.693   2.218   6.372 -1.2283 -0.2348 -0.6168
   33MOL0     H 4330   5.826   2.419   6.182  3.5918  0.9552 -0.6597
   33MOL0     H 4331   5.920   2.281   6.219  0.0032 -1.5277  2.3716
   33MOL0     H 4332   5.929   2.340   6.457 -1.1997  0.8982  1.6953
   33MOL0     H 4333   5.799   2.449   6.452 -1.6114 -1.5166 -0.3072
   33MOL0     H 4334   6.068   2.498   6.447 -0.3431 -1.4034 -1.5048
   33MOL0     H 4335   6.039   2.525   6.275 -2.2291 -0.9220 -0.3436
   33MOL0     H 4336   5.824   2.666   6.387  0.7000 -3.8020 -1.8451
   33MOL0     H 4337   5.979   2.746   6.362  0.6289 -0.6578 -0.9250
   33MOL0     H 4338   5.189   1.863   6.094  2.1727 -1.2705  1.0707
   33MOL0     H 4339   5.109   1.655   5.991  0.6590 -0.8608 -1.4988
   33MOL0     H 4340   5.289   1.422   5.532 -1.1080  1.5156 -4.5602
   33MOL0     H 4341   5.249   1.254   5.363 -1.9914  1.1153 -1.5759
   33MOL0     H 4342   5.261   1.018   6.635  0.9936 -1.9347  2.3046
   33MOL0     H 4343   5.403   1.213   6.695 -0.3437  0.8670 -0.2795
   33MOL0     H 4344   5.627   1.512   6.788 -0.9755 -0.8077 -0.3873
   33MOL0     H 4345   5.702   1.734   6.778 -3.1763 -0.0367 -5.4868
   33MOL0     H 4346   5.796   1.915   6.709  0.3812  0.6653  2.2973
   33MOL0     H 4347   5.898   1.921   6.555 -0.4683  0.2835  0.1482
   33MOL0     H 4348   5.898   2.113   6.756  1.0191  0.0027  2.2655
   33MOL0     H 4349   5.982   2.001   6.835 -0.2144 -0.7012 -0.3202
   33MOL0     H 4350   6.109   2.187   6.662  4.2075  0.2610 -0.9211
   33MOL0     H 4351   6.102   2.051   6.548 -0.1792  0.2169 -0.1195
   33MOL0     H 4352   6.222   2.037   6.832  0.4332 -0.1834  0.3233
   33MOL0     H 4353   6.222   1.902   6.723  2.4495 -0.3019  2.0863
   33MOL0     H 4354   6.555   2.132   6.586 -1.1170  3.4883 -1.0377
   33MOL0     H 4355   6.087   1.594   6.653 -0.4274  0.1369  2.5864
   33MOL0     H 4356   6.012   1.370   6.639  0.5005  0.5975 -0.4050
   34MOL0     O 4357   2.691   3.536   7.773 -0.0675 -0.0707 -0.3006
   34MOL0     C 4358   2.776   3.618   7.725  0.0479  0.9208 -0.4777
   34MOL0     O 4359   2.760   3.755   7.704 -0.2373 -0.3507 -0.6464
   34MOL0     C 4360   2.640   3.825   7.724 -0.5258  0.7168 -1.0289
   34MOL0     C 4361   2.636   3.950   7.670 -0.5290  0.9271  0.5451
   34MOL0     C 4362   2.513   4.019   7.656 -0.1176 -0.6114  0.1674
   34MOL0     C 4363   2.397   3.963   7.721 -0.3254  0.4373  0.3579
   34MOL0     O 4364   2.272   4.009   7.731  1.0344  0.0127  0.0240
   34MOL0     C 4365   2.259   4.127   7.633 -0.1615 -0.6024 -1.4170
   34MOL0     C 4366   2.114   4.169   7.627  0.0332 -0.3618 -0.7943
   34MOL0     C 4367   2.106   4.278   7.516  0.6929 -0.8089 -0.5251
   34MOL0     C 4368   1.957   4.306   7.492 -0.4596  0.8452 -0.2423
   34MOL0     C 4369   1.937   4.420   7.397  0.3402  0.3453  0.3315
   34MOL0     C 4370   1.975   4.386   7.244 -0.3191  0.1215 -0.5807
   34MOL0     C 4371   1.894   4.276   7.173 -0.2982  0.4657  0.4079
   34MOL0     C 4372   1.740   4.288   7.183 -1.1050 -0.3925 -0.3829
   34MOL0     N 4373   1.675   4.163   7.143 -0.2205  0.5077 -0.2775
   34MOL0     C 4374   1.669   4.037   7.212 -0.0190  0.7072  0.5050
   34MOL0     C 4375   1.597   3.958   7.128 -0.0922  0.4997  1.5966
   34MOL0     C 4376   1.561   3.816   7.172  0.2234  0.1257  0.5601
   34MOL0     C 4377   1.446   3.769   7.082  0.2223  0.2195 -0.3046
   34MOL0     C 4378   1.405   3.627   7.130  0.1655 -0.7889 -0.2827
   34MOL0     C 4379   1.294   3.566   7.051  0.2442 -0.3154 -0.1008
   34MOL0     O 4380   1.176   3.652   7.041  0.8547  0.2870  0.4488
   34MOL0     C 4381   1.126   3.695   7.163 -0.3829  0.1961 -0.3837
   34MOL0     C 4382   1.090   3.830   7.181 -0.4312  1.0644  0.5770
   34MOL0     C 4383   1.043   3.879   7.296 -0.4637 -0.1320 -0.3005
   34MOL0     C 4384   1.024   3.804   7.412 -0.1962 -0.0937  0.8284
   34MOL0     C 4385   1.007   3.880   7.547  0.2418  0.2582  0.2165
   34MOL0     O 4386   0.941   3.803   7.638 -0.4930  0.4831  1.1219
   34MOL0     C 4387   0.883   3.856   7.745 -0.1509  0.2162 -0.4881
   34MOL0     C 4388   0.909   3.793   7.873  0.0997  0.0788  1.0908
   34MOL0     C 4389   0.861   3.851   7.993  0.7210  0.0690  0.3629
   34MOL0     C 4390   0.795   3.975   7.980  0.5151  0.4518  0.5645
   34MOL0     O 4391   0.729   4.040   8.079  0.5486  0.5140 -0.3541
   34MOL0     C 4392   0.755   4.021   8.222  0.0679  0.6152  0.5447
   34MOL0     C 4393   0.629   4.018   8.318 -0.1261 -0.9547 -1.2085
   34MOL0     C 4394   0.507   4.109   8.280 -0.4909  0.1308 -0.1218
   34MOL0     C 4395   0.396   4.084   8.385 -0.0028 -0.7689 -0.1960
   34MOL0     C 4396   0.285   4.187   8.377  0.4343  0.2272 -0.3219
   34MOL0     C 4397   0.171   4.142   8.461 -0.0033 -1.1044 -1.0546
   34MOL0     C 4398   0.043   4.116   8.381 -0.4832 -0.1908  0.1120
   34MOL0     C 4399   0.039   3.990   8.295  0.5059 -0.0187 -0.2289
   34MOL0    Cl 4400   0.036   3.844   8.399 -0.1710  0.1376  0.5581
   34MOL0     C 4401   0.775   4.039   7.860  0.7710  0.4328  0.0787
   34MOL0     C 4402   0.824   3.985   7.742  0.2014 -0.0326  0.6079
   34MOL0     O 4403   1.056   3.987   7.561 -0.0237  0.2275 -0.3353
   34MOL0     C 4404   1.046   3.664   7.397 -0.8124  0.6212  0.9423
   34MOL0     C 4405   1.091   3.608   7.270 -1.2385 -1.6277  0.6522
   34MOL0     N 4406   1.573   4.027   7.010 -0.1868 -0.0299 -0.5152
   34MOL0     N 4407   1.618   4.142   7.019 -0.2474  0.0999  0.1687
   34MOL0     C 4408   2.401   3.842   7.787 -0.9550 -0.1102 -0.0047
   34MOL0     C 4409   2.522   3.770   7.782 -0.6161  0.7239  0.6605
   34MOL0     C 4410   2.894   3.538   7.678 -0.3761 -0.5597 -0.0779
   34MOL0     C 4411   2.897   3.395   7.660 -0.1364  0.1925  0.1869
   34MOL0     C 4412   3.007   3.331   7.612 -0.5939 -1.2657  0.3819
   34MOL0     C 4413   3.119   3.404   7.573  0.0383 -1.2061  0.4411
   34MOL0     O 4414   3.213   3.330   7.507 -0.0673 -0.2652  0.3896
   34MOL0     C 4415   3.318   3.392   7.435 -0.0783  0.0172  0.9477
   34MOL0     C 4416   3.437   3.438   7.532 -0.6815  0.6067 -0.0519
   34MOL0     C 4417   3.576   3.418   7.460 -0.0646 -0.5660 -1.0865
   34MOL0     C 4418   3.694   3.469   7.535 -0.2950  0.0512 -0.1111
   34MOL0     C 4419   3.675   3.605   7.588 -0.9108 -1.0932  0.4856
   34MOL0     C 4420   3.672   3.710   7.650  0.8464  0.3683  0.6446
   34MOL0     C 4421   3.125   3.546   7.592 -0.4909  0.2802  0.2756
   34MOL0     C 4422   3.010   3.607   7.639  0.7071  0.3479  0.2937
   34MOL0     H 4423   2.716   3.995   7.612 -1.1358 -1.4494 -2.3735
   34MOL0     H 4424   2.520   4.116   7.607  1.9636 -0.5092  0.6026
   34MOL0     H 4425   2.285   4.083   7.536 -1.2102  0.1984 -2.0860
   34MOL0     H 4426   2.330   4.207   7.654 -0.4185 -0.9615  1.0919
   34MOL0     H 4427   2.074   4.200   7.724 -2.2406 -3.1440 -0.7078
   34MOL0     H 4428   2.051   4.080   7.613 -3.5639  1.5188  1.8422
   34MOL0     H 4429   2.156   4.257   7.421  0.0777 -0.7626 -0.8659
   34MOL0     H 4430   2.152   4.372   7.547 -2.7209  1.8901 -2.7755
   34MOL0     H 4431   1.904   4.225   7.442 -0.3000 -1.6043  3.2282
   34MOL0     H 4432   1.903   4.319   7.587  0.5671 -3.7443  1.2006
   34MOL0     H 4433   2.003   4.503   7.421 -0.8096  1.5921 -0.6758
   34MOL0     H 4434   1.832   4.451   7.403 -0.3885 -2.0304  1.1270
   34MOL0     H 4435   2.083   4.366   7.251 -0.1837  0.9609 -0.1045
   34MOL0     H 4436   1.968   4.481   7.189 -0.1177  1.0644  0.9580
   34MOL0     H 4437   1.925   4.255   7.070  4.1934  0.0418  1.6415
   34MOL0     H 4438   1.909   4.182   7.228 -4.1691 -0.9526 -0.6331
   34MOL0     H 4439   1.721   4.364   7.107  0.2930  0.7741  0.3954
   34MOL0     H 4440   1.698   4.331   7.274 -1.4345  0.3891 -0.8944
   34MOL0     H 4441   1.704   4.019   7.313  0.7517 -2.1000 -0.1794
   34MOL0     H 4442   1.544   3.806   7.280 -2.1760  0.1134  0.2311
   34MOL0     H 4443   1.651   3.757   7.153 -0.9121 -1.0037 -1.5450
   34MOL0     H 4444   1.478   3.770   6.977  2.5430 -2.0692  0.2733
   34MOL0     H 4445   1.358   3.834   7.088 -1.3154 -1.8216  0.5259
   34MOL0     H 4446   1.489   3.560   7.113 -0.0826 -1.3497  0.6607
   34MOL0     H 4447   1.394   3.627   7.239  2.0365 -0.4411 -0.0558
   34MOL0     H 4448   1.258   3.475   7.099 -2.7273  1.1664  0.7428
   34MOL0     H 4449   1.333   3.541   6.952  3.8533  0.0159  1.0858
   34MOL0     H 4450   1.106   3.897   7.096  2.1721 -2.9502 -2.4787
   34MOL0     H 4451   1.004   3.980   7.301  0.4873  0.1932  2.2966
   34MOL0     H 4452   0.982   3.717   7.900  0.8525  0.0394 -0.8980
   34MOL0     H 4453   0.875   3.798   8.087 -3.9474 -1.5064  0.4132
   34MOL0     H 4454   0.822   4.105   8.242  0.6462 -0.1920  2.1494
   34MOL0     H 4455   0.820   3.934   8.235  3.2520  2.6238 -0.9966
   34MOL0     H 4456   0.665   4.068   8.409 -1.6981 -1.0870 -0.4790
   34MOL0     H 4457   0.600   3.914   8.334  2.4832 -1.2979  2.8072
   34MOL0     H 4458   0.470   4.068   8.185 -1.1203  0.0273  0.1616
   34MOL0     H 4459   0.538   4.211   8.259 -0.0659 -0.2336 -1.3734
   34MOL0     H 4460   0.347   3.987   8.370  0.6011 -0.8427 -1.9545
   34MOL0     H 4461   0.448   4.093   8.480  0.5806 -0.1705 -0.5618
   34MOL0     H 4462   0.252   4.182   8.273 -2.0184  0.1929  0.4028
   34MOL0     H 4463   0.332   4.284   8.396  4.9284 -1.0011 -3.3869
   34MOL0     H 4464   0.149   4.229   8.524  0.8982  0.7940 -3.2211
   34MOL0     H 4465   0.182   4.055   8.525 -1.0461 -0.9587 -0.6515
   34MOL0     H 4466  -0.049   4.109   8.440  1.5958 -1.7827  3.4784
   34MOL0     H 4467   0.027   4.205   8.320  0.5292  1.4355  2.0514
   34MOL0     H 4468   0.116   3.978   8.218  5.5111 -0.1056  4.2036
   34MOL0     H 4469  -0.054   3.998   8.239 -0.1183 -0.5410  0.7138
   34MOL0     H 4470   0.727   4.136   7.871 -0.0314 -0.2622  4.5152
   34MOL0     H 4471   0.803   4.039   7.650  1.0109  1.1340  1.0838
   34MOL0     H 4472   1.044   3.601   7.486 -0.5866 -2.5847 -1.1493
   34MOL0     H 4473   1.110   3.506   7.241  3.9280 -0.6726 -0.3926
   34MOL0     H 4474   2.319   3.794   7.840  1.0044 -4.0444 -0.1986
   34MOL0     H 4475   2.524   3.677   7.838  0.1880 -0.1171 -0.6967
   34MOL0     H 4476   2.810   3.348   7.705  1.3508 -3.0959  0.0050
   34MOL0     H 4477   3.008   3.223   7.611 -5.2735 -1.5172  0.3056
   34MOL0     H 4478   3.288   3.473   7.368  1.8556 -0.2315 -0.2964
   34MOL0     H 4479   3.350   3.306   7.376 -0.1956 -2.1797  3.8500
   34MOL0     H 4480   3.425   3.543   7.561 -2.7697 -0.0485  1.6934
   34MOL0     H 4481   3.449   3.383   7.626 -1.0355  0.9138  0.1776
   34MOL0     H 4482   3.573   3.452   7.356  1.7429  1.3199 -0.5919
   34MOL0     H 4483   3.584   3.309   7.467  1.7217 -0.3786  1.7193
   34MOL0     H 4484   3.703   3.393   7.613 -1.4784  0.4567  0.4390
   34MOL0     H 4485   3.777   3.463   7.464 -0.4928 -0.4133 -0.3097
   34MOL0     H 4486   3.672   3.808   7.694  0.0293  0.7704 -0.2213
   34MOL0     H 4487   3.206   3.601   7.545 -1.4306  0.3827 -1.3107
   34MOL0     H 4488   3.009   3.716   7.635 -2.0851  0.4828  1.8686
   35MOL0     O 4489   6.741   5.300   5.617  0.0023 -0.2756 -0.3913
   35MOL0     C 4490   6.726   5.407   5.565 -0.4092  0.2008  0.0635
   35MOL0     O 4491   6.733   5.529   5.626 -0.0764 -0.5881 -0.2621
   35MOL0     C 4492   6.684   5.552   5.753 -0.5297 -0.1616 -1.0451
   35MOL0     C 4493   6.583   5.476   5.819 -0.0250 -0.2624 -0.1919
   35MOL0     C 4494   6.545   5.499   5.957 -0.1472  0.5494  0.3487
   35MOL0     C 4495   6.606   5.596   6.025  0.4426  0.1258  0.0039
   35MOL0     O 4496   6.553   5.613   6.156  0.6613  0.2432 -0.6907
   35MOL0     C 4497   6.635   5.694   6.241  0.0821  0.3351  0.2678
   35MOL0     C 4498   6.583   5.692   6.389 -0.2756 -0.2630 -0.0940
   35MOL0     C 4499   6.497   5.823   6.383 -0.1100 -0.0283 -0.2635
   35MOL0     C 4500   6.420   5.852   6.504  0.2098  0.2185  0.5297
   35MOL0     C 4501   6.493   5.917   6.618 -0.2580  0.0099 -0.1973
   35MOL0     C 4502   6.604   5.833   6.697  0.0838 -0.1763  0.1074
   35MOL0     C 4503   6.666   5.911   6.817  1.5049 -0.5256 -0.5876
   35MOL0     C 4504   6.615   5.859   6.948 -0.1898 -0.2343 -0.7292
   35MOL0     N 4505   6.652   5.945   7.067  0.2029  1.0638 -0.3053
   35MOL0     C 4506   6.631   6.079   7.083  1.0455 -0.6918  0.2436
   35MOL0     C 4507   6.716   6.116   7.196  0.4385  0.2738 -0.3666
   35MOL0     C 4508   6.727   6.249   7.260  0.7319 -0.6046  0.4057
   35MOL0     C 4509   6.817   6.346   7.181 -0.2837 -0.4024 -0.3301
   35MOL0     C 4510   6.800   6.496   7.225 -0.5477  0.0774 -0.7460
   35MOL0     C 4511   6.900   6.531   7.351  0.0211  0.3588 -0.1079
   35MOL0     O 4512   7.039   6.538   7.292 -0.2824  0.3843 -0.4967
   35MOL0     C 4513   7.068   6.652   7.232 -0.0333  0.7308  0.2102
   35MOL0     C 4514   7.176   6.644   7.150 -0.4608  0.3110 -0.6287
   35MOL0     C 4515   7.230   6.756   7.084  0.4812  0.2109  0.1418
   35MOL0     C 4516   7.161   6.880   7.092 -0.5090  0.4345 -0.1997
   35MOL0     C 4517   7.215   6.999   7.020  0.2936  0.4438 -1.0935
   35MOL0     O 4518   7.340   6.986   6.964  0.0620  0.0251  0.2480
   35MOL0     C 4519   7.412   7.084   6.898  1.8470  0.1635  0.4859
   35MOL0     C 4520   7.355   7.185   6.813  0.0236  0.8968 -0.7381
   35MOL0     C 4521   7.429   7.279   6.743  0.5867 -0.3451 -0.3206
   35MOL0     C 4522   7.570   7.274   6.761 -0.2049 -0.2514 -0.6180
   35MOL0     O 4523   7.659   7.358   6.701 -0.1370  0.5377  0.3206
   35MOL0     C 4524   7.621   7.434   6.584 -0.8299 -0.3299  0.0838
   35MOL0     C 4525   7.754   7.530   6.568  0.0841  0.1873 -0.2566
   35MOL0     C 4526   7.872   7.442   6.524  0.2394  0.7472  0.3657
   35MOL0     C 4527   7.869   7.421   6.373  0.2923 -0.3973  0.4666
   35MOL0     C 4528   7.998   7.350   6.331 -0.2264  0.7666  1.4872
   35MOL0     C 4529   7.994   7.304   6.181  0.0030  0.8351  0.9779
   35MOL0     C 4530   8.127   7.245   6.114 -1.0417 -0.2185 -0.6336
   35MOL0     C 4531   8.144   7.094   6.118  0.2558  0.3154  0.1013
   35MOL0    Cl 4532   8.129   7.061   6.297 -0.5508  0.0322 -0.2059
   35MOL0     C 4533   7.624   7.181   6.845 -0.4424  0.4714  0.3731
   35MOL0     C 4534   7.547   7.088   6.912  0.8340  0.0864  0.1526
   35MOL0     O 4535   7.139   7.091   7.019  0.0760 -0.5395 -0.3136
   35MOL0     C 4536   7.041   6.887   7.168  0.7885  0.6367 -0.2830
   35MOL0     C 4537   6.998   6.774   7.234  0.0070 -0.4795 -1.7687
   35MOL0     N 4538   6.777   6.002   7.239 -0.2811 -0.3160  0.8336
   35MOL0     N 4539   6.740   5.907   7.161  0.7344  0.5420 -0.3076
   35MOL0     C 4540   6.708   5.675   5.962 -0.3212  0.7322 -0.0339
   35MOL0     C 4541   6.740   5.654   5.826  0.0405 -0.3833 -0.6563
   35MOL0     C 4542   6.706   5.414   5.417 -0.6365  0.5445  0.4156
   35MOL0     C 4543   6.631   5.325   5.350 -0.2980 -0.3674  0.7723
   35MOL0     C 4544   6.616   5.336   5.215 -0.3645 -1.4676  0.9377
   35MOL0     C 4545   6.671   5.448   5.144 -0.0612 -0.2475  0.0944
   35MOL0     O 4546   6.673   5.461   5.005 -0.6981 -0.2469 -0.3146
   35MOL0     C 4547   6.556   5.527   4.947  0.0147 -0.5049  0.0029
   35MOL0     C 4548   6.429   5.437   4.956 -0.0908  0.1497  0.6846
   35MOL0     C 4549   6.441   5.320   4.863 -0.5710 -0.6344 -0.3625
   35MOL0     C 4550   6.441   5.346   4.716  0.3941  0.7473 -0.3081
   35MOL0     C 4551   6.476   5.223   4.646 -0.0892  0.1919 -0.5610
   35MOL0     C 4552   6.497   5.124   4.584 -0.3075  0.6095  0.9026
   35MOL0     C 4553   6.739   5.547   5.208  0.4181  0.5412  0.6866
   35MOL0     C 4554   6.758   5.528   5.346 -0.1394  0.0580  0.7204
   35MOL0     H 4555   6.535   5.399   5.760 -2.7657  0.4065  1.0054
   35MOL0     H 4556   6.467   5.442   6.008 -0.6142 -1.1550 -2.0706
   35MOL0     H 4557   6.647   5.798   6.208  0.6008  2.0332  5.0230
   35MOL0     H 4558   6.734   5.648   6.235 -0.0622  0.1043 -0.4318
   35MOL0     H 4559   6.666   5.703   6.460 -1.9911 -2.7338  2.5084
   35MOL0     H 4560   6.531   5.602   6.422 -0.9358  0.3301  0.4988
   35MOL0     H 4561   6.427   5.815   6.299 -0.6360  3.3329 -0.2753
   35MOL0     H 4562   6.563   5.909   6.369  0.2512 -0.4697 -1.4159
   35MOL0     H 4563   6.337   5.921   6.486 -0.0140 -0.0482  0.5324
   35MOL0     H 4564   6.371   5.759   6.536  1.9422 -0.6225  0.8588
   35MOL0     H 4565   6.417   5.946   6.691 -0.0255  1.5729 -0.5379
   35MOL0     H 4566   6.533   6.012   6.580 -0.2508  0.1190  0.0802
   35MOL0     H 4567   6.680   5.807   6.624  1.3806  0.7521  1.0825
   35MOL0     H 4568   6.540   5.748   6.724 -1.6156  1.4588  1.5633
   35MOL0     H 4569   6.774   5.921   6.803  1.8673 -0.6291  1.8020
   35MOL0     H 4570   6.625   6.011   6.803 -1.1447 -1.3715  0.3965
   35MOL0     H 4571   6.651   5.762   6.981 -2.2751 -0.2824  1.7626
   35MOL0     H 4572   6.507   5.839   6.948 -0.0030 -1.5219  1.4399
   35MOL0     H 4573   6.557   6.143   7.037  0.9338 -0.0345  1.2992
   35MOL0     H 4574   6.771   6.246   7.360  0.0790  3.3652  0.9831
   35MOL0     H 4575   6.630   6.298   7.275  2.8151  3.9979  0.4579
   35MOL0     H 4576   6.814   6.328   7.073  1.8126 -0.8564 -0.3536
   35MOL0     H 4577   6.915   6.323   7.222 -1.0754 -0.2342  1.7824
   35MOL0     H 4578   6.812   6.569   7.144  3.6198  1.5375  0.9206
   35MOL0     H 4579   6.708   6.513   7.281 -0.8461  0.7258 -1.4069
   35MOL0     H 4580   6.891   6.461   7.434 -2.7406  2.5372  1.5811
   35MOL0     H 4581   6.865   6.622   7.401 -0.3137  0.6612 -0.8788
   35MOL0     H 4582   7.231   6.554   7.124  3.4170  3.3248 -4.3606
   35MOL0     H 4583   7.330   6.762   7.043  1.4200  0.3157  2.3570
   35MOL0     H 4584   7.246   7.187   6.804 -0.1613  2.4679  1.1417
   35MOL0     H 4585   7.383   7.344   6.669  0.6642 -1.8529 -1.7498
   35MOL0     H 4586   7.530   7.493   6.599 -0.7922 -0.2346 -0.0597
   35MOL0     H 4587   7.602   7.361   6.505 -1.3115  0.9792 -1.0465
   35MOL0     H 4588   7.785   7.564   6.667  0.7621  2.5713 -1.1963
   35MOL0     H 4589   7.737   7.616   6.503 -1.6329 -0.3765 -0.5997
   35MOL0     H 4590   7.871   7.344   6.572 -0.2903 -0.5658 -2.1199
   35MOL0     H 4591   7.964   7.488   6.560  0.0895  1.6277 -0.3413
   35MOL0     H 4592   7.787   7.355   6.342 -2.9818  3.4869 -0.0586
   35MOL0     H 4593   7.847   7.511   6.314  0.1333 -1.1375 -0.6135
   35MOL0     H 4594   8.004   7.268   6.402 -1.6549 -1.4712 -0.7911
   35MOL0     H 4595   8.081   7.420   6.347  0.6684  0.4690 -1.2301
   35MOL0     H 4596   7.970   7.398   6.130  0.1792  0.1250 -0.4814
   35MOL0     H 4597   7.918   7.230   6.155  1.8889 -0.4221 -1.3901
   35MOL0     H 4598   8.123   7.265   6.006  1.7885  0.6557 -0.6669
   35MOL0     H 4599   8.212   7.305   6.149 -1.4382  0.6787 -1.1949
   35MOL0     H 4600   8.242   7.059   6.085 -0.9191 -1.4122 -1.8578
   35MOL0     H 4601   8.054   7.053   6.070 -1.2907 -0.3169  3.2547
   35MOL0     H 4602   7.730   7.182   6.869 -0.1177  0.2396 -0.9979
   35MOL0     H 4603   7.588   7.011   6.977 -0.4263 -0.1052  0.7536
   35MOL0     H 4604   6.988   6.979   7.188 -1.4201 -0.9113  1.3810
   35MOL0     H 4605   6.926   6.786   7.314  1.6821 -2.9481  0.2985
   35MOL0     H 4606   6.769   5.753   6.009  1.0854 -1.0687  1.3138
   35MOL0     H 4607   6.811   5.711   5.766 -0.4657  0.4799 -0.4541
   35MOL0     H 4608   6.578   5.241   5.393  1.5682 -1.4057  1.1599
   35MOL0     H 4609   6.569   5.259   5.155 -1.7527 -0.0864  0.1855
   35MOL0     H 4610   6.575   5.563   4.846  1.5328  2.2045  1.1824
   35MOL0     H 4611   6.525   5.613   5.006 -1.3673 -2.3915  2.1927
   35MOL0     H 4612   6.424   5.392   5.056  0.8902 -1.2135  0.1626
   35MOL0     H 4613   6.337   5.493   4.939 -3.1101 -4.5767 -0.7368
   35MOL0     H 4614   6.358   5.251   4.881 -2.1590  1.2300 -0.2105
   35MOL0     H 4615   6.532   5.273   4.899 -1.6693 -1.4695  1.4483
   35MOL0     H 4616   6.340   5.369   4.680 -0.8765 -1.0269  1.8780
   35MOL0     H 4617   6.513   5.426   4.695 -1.2701  1.4458 -4.3270
   35MOL0     H 4618   6.508   5.038   4.521  3.7651  3.4971 -2.9455
   35MOL0     H 4619   6.790   5.633   5.166  0.5511 -0.2483 -0.8473
   35MOL0     H 4620   6.824   5.599   5.394 -1.5253  1.6630  0.3421
   36MOL0     O 4621   2.600   3.502   4.141  0.8225  1.3304  0.1410
   36MOL0     C 4622   2.635   3.525   4.254  0.4084 -0.4436  0.3137
   36MOL0     O 4623   2.575   3.479   4.366 -0.0447  0.1744  0.1483
   36MOL0     C 4624   2.464   3.397   4.370 -0.1523 -0.7750 -1.0518
   36MOL0     C 4625   2.456   3.280   4.301  0.9908  0.7390  0.0318
   36MOL0     C 4626   2.330   3.209   4.292 -0.1922 -0.3178 -0.0987
   36MOL0     C 4627   2.231   3.244   4.388  0.7179 -1.0913  0.0878
   36MOL0     O 4628   2.112   3.181   4.413 -0.2797  0.6790 -0.3587
   36MOL0     C 4629   2.009   3.200   4.327 -0.0978 -0.4809  0.3233
   36MOL0     C 4630   1.880   3.151   4.400  0.1341 -0.1078 -0.5553
   36MOL0     C 4631   1.789   3.274   4.410  0.7868 -1.1685  1.0024
   36MOL0     C 4632   1.844   3.393   4.504 -0.5620 -0.1372  0.1846
   36MOL0     C 4633   1.846   3.528   4.430  0.0796  0.1199  0.7329
   36MOL0     C 4634   1.914   3.622   4.536 -0.6742 -0.3844 -0.4374
   36MOL0     C 4635   1.924   3.766   4.479 -0.4712  0.0667  0.5895
   36MOL0     C 4636   1.806   3.862   4.505 -0.0848  1.0358  0.1333
   36MOL0     N 4637   1.773   3.862   4.655 -0.8435  0.0167 -0.6565
   36MOL0     C 4638   1.651   3.851   4.715 -0.4701 -0.1818 -0.2642
   36MOL0     C 4639   1.671   3.862   4.847  0.1349 -0.0152  0.3349
   36MOL0     C 4640   1.569   3.843   4.956  0.4523 -0.0570 -0.1602
   36MOL0     C 4641   1.581   3.720   5.055  0.0956 -0.8639  1.1066
   36MOL0     C 4642   1.643   3.597   5.002 -0.0623  0.1645 -0.1109
   36MOL0     C 4643   1.600   3.555   4.859  0.6248  0.5922  0.0570
   36MOL0     O 4644   1.455   3.574   4.851  0.3316 -0.1315  0.5540
   36MOL0     C 4645   1.382   3.491   4.763  0.3343  0.2546  0.0684
   36MOL0     C 4646   1.432   3.425   4.649 -0.4428  0.7003 -1.0492
   36MOL0     C 4647   1.343   3.350   4.563  0.0211 -0.6392  0.7042
   36MOL0     C 4648   1.200   3.347   4.587 -0.1553  0.3755 -0.0383
   36MOL0     C 4649   1.109   3.274   4.495 -0.0777  0.1804 -0.4756
   36MOL0     O 4650   0.978   3.302   4.510 -0.1583 -0.3190  0.4436
   36MOL0     C 4651   0.890   3.235   4.427 -0.1090  0.2128 -0.3884
   36MOL0     C 4652   0.815   3.297   4.336  0.7404 -1.5062  0.4294
   36MOL0     C 4653   0.743   3.232   4.231  0.6800 -0.0920  0.2404
   36MOL0     C 4654   0.724   3.091   4.238 -0.0228  0.5528  0.2645
   36MOL0     O 4655   0.647   3.054   4.137 -0.8339 -1.1997  0.4277
   36MOL0     C 4656   0.626   2.911   4.133  0.3352  0.1343 -0.1879
   36MOL0     C 4657   0.507   2.882   4.033  0.5045 -0.0800  0.8361
   36MOL0     C 4658   0.491   2.740   3.991  0.4883 -0.2460  0.8957
   36MOL0     C 4659   0.376   2.726   3.891  0.0656  0.0188 -0.3363
   36MOL0     C 4660   0.356   2.582   3.824  0.8934  0.7505 -0.0814
   36MOL0     C 4661   0.444   2.553   3.696  0.4025 -0.9613  0.3053
   36MOL0     C 4662   0.428   2.419   3.627  0.2323 -0.4034  0.1138
   36MOL0     C 4663   0.503   2.412   3.493 -0.0734  0.0867  0.1026
   36MOL0    Cl 4664   0.673   2.455   3.515 -0.3235 -0.4525 -0.1783
   36MOL0     C 4665   0.791   3.021   4.349  0.5199  0.6186 -0.6659
   36MOL0     C 4666   0.876   3.093   4.440 -0.0703  0.1165  0.4879
   36MOL0     O 4667   1.161   3.192   4.421 -0.1922 -0.4463  0.5267
   36MOL0     C 4668   1.154   3.403   4.704 -0.9069 -0.9413  0.1451
   36MOL0     C 4669   1.241   3.473   4.786  0.1608 -0.6802 -0.1638
   36MOL0     N 4670   1.805   3.885   4.870 -0.0550 -0.5170 -0.8533
   36MOL0     N 4671   1.861   3.883   4.753 -0.8528 -1.0693 -0.3845
   36MOL0     C 4672   2.254   3.347   4.475 -0.6146 -0.4067 -0.1343
   36MOL0     C 4673   2.364   3.431   4.460 -0.0839 -0.7292 -0.7566
   36MOL0     C 4674   2.757   3.593   4.264 -0.1316 -0.2899  0.3893
   36MOL0     C 4675   2.848   3.566   4.377 -0.8629  0.3380  0.4036
   36MOL0     C 4676   2.968   3.633   4.397 -0.2160 -0.7243 -0.2395
   36MOL0     C 4677   2.999   3.734   4.311  0.0433 -0.2201  0.2716
   36MOL0     O 4678   3.130   3.788   4.337  0.2986  0.2155  0.3703
   36MOL0     C 4679   3.151   3.941   4.315  0.5022  0.1268 -0.3233
   36MOL0     C 4680   3.249   3.974   4.203  0.9861  0.4251 -0.2326
   36MOL0     C 4681   3.387   3.925   4.238  0.9934 -0.0005  0.0177
   36MOL0     C 4682   3.496   3.993   4.159 -0.3898 -0.5358 -0.6033
   36MOL0     C 4683   3.629   3.955   4.197  0.1674  0.1608 -1.0145
   36MOL0     C 4684   3.740   3.920   4.246  0.2051 -1.2104 -0.4953
   36MOL0     C 4685   2.918   3.763   4.195 -0.1005  0.5811 -0.3534
   36MOL0     C 4686   2.790   3.699   4.181 -0.1171 -0.6164  0.1498
   36MOL0     H 4687   2.542   3.253   4.241  0.4057  2.2464 -1.5805
   36MOL0     H 4688   2.305   3.127   4.225  0.2623 -0.1372 -0.4941
   36MOL0     H 4689   2.025   3.142   4.236  2.0965  1.2313 -0.4670
   36MOL0     H 4690   2.014   3.306   4.302  0.7591  0.1741  2.8922
   36MOL0     H 4691   1.886   3.122   4.505  1.6727 -0.3279 -0.6867
   36MOL0     H 4692   1.828   3.072   4.345  1.4565 -2.3604  1.2409
   36MOL0     H 4693   1.685   3.258   4.438  1.3139  0.0149  4.0191
   36MOL0     H 4694   1.773   3.305   4.306 -2.7554 -3.5199  0.6699
   36MOL0     H 4695   1.785   3.394   4.596 -3.0303 -1.7399 -1.2567
   36MOL0     H 4696   1.944   3.360   4.533  0.0733  1.9053  0.4875
   36MOL0     H 4697   1.748   3.564   4.400  1.0633  0.1544 -2.8858
   36MOL0     H 4698   1.906   3.528   4.338 -0.6810 -3.1906  0.1119
   36MOL0     H 4699   2.015   3.581   4.549 -0.4516  0.5750  1.0944
   36MOL0     H 4700   1.854   3.635   4.626  0.9329  3.6054  0.2546
   36MOL0     H 4701   2.011   3.815   4.525 -1.5543  1.5322  1.1467
   36MOL0     H 4702   1.934   3.766   4.370  0.4461 -0.3068  0.6610
   36MOL0     H 4703   1.716   3.821   4.459 -2.2590  3.1486  2.2112
   36MOL0     H 4704   1.836   3.961   4.470 -0.6052  1.8302  1.8391
   36MOL0     H 4705   1.552   3.834   4.674  0.1756 -0.4531 -1.8045
   36MOL0     H 4706   1.475   3.819   4.904 -0.9727  0.6593  1.9354
   36MOL0     H 4707   1.522   3.934   4.994 -3.9882 -0.3407 -3.9563
   36MOL0     H 4708   1.481   3.699   5.095 -1.0361  1.0221 -0.4945
   36MOL0     H 4709   1.641   3.756   5.138  0.3289  0.9153  0.2056
   36MOL0     H 4710   1.752   3.606   5.012  0.1330 -0.2562 -1.6007
   36MOL0     H 4711   1.613   3.521   5.074 -2.7682  1.6366  0.4348
   36MOL0     H 4712   1.636   3.452   4.846 -0.0840  0.4152 -0.5640
   36MOL0     H 4713   1.649   3.619   4.786 -0.1301 -0.1194 -1.1170
   36MOL0     H 4714   1.534   3.435   4.614 -0.4936  3.7294 -0.5869
   36MOL0     H 4715   1.363   3.319   4.461 -1.6632 -1.7780  0.6797
   36MOL0     H 4716   0.832   3.404   4.329  2.0862 -1.7713 -0.9186
   36MOL0     H 4717   0.692   3.290   4.155  1.6402 -2.0405 -2.0495
   36MOL0     H 4718   0.587   2.882   4.231  1.3501 -2.3597 -0.4702
   36MOL0     H 4719   0.715   2.853   4.109 -1.7776 -2.8025 -1.5428
   36MOL0     H 4720   0.517   2.949   3.947  1.1818 -2.8813 -1.4181
   36MOL0     H 4721   0.414   2.902   4.088  0.2910 -0.1943  0.5199
   36MOL0     H 4722   0.472   2.683   4.083  0.9498  0.9044  1.7257
   36MOL0     H 4723   0.586   2.717   3.942  1.0329  3.6055 -0.2177
   36MOL0     H 4724   0.284   2.752   3.943  0.4272  0.4204  0.1122
   36MOL0     H 4725   0.391   2.794   3.807 -0.2299 -1.3049 -1.4996
   36MOL0     H 4726   0.253   2.569   3.790  0.3061  0.5696  1.6728
   36MOL0     H 4727   0.367   2.512   3.907 -3.2239 -0.2886 -0.1552
   36MOL0     H 4728   0.550   2.555   3.723  0.3762  0.6137  0.3956
   36MOL0     H 4729   0.420   2.633   3.625  0.6301 -0.8393  0.3642
   36MOL0     H 4730   0.455   2.337   3.694  0.0931 -0.0250  0.6374
   36MOL0     H 4731   0.323   2.400   3.601  0.7044 -1.1242 -1.4120
   36MOL0     H 4732   0.474   2.490   3.421 -0.6597  0.0105  0.2502
   36MOL0     H 4733   0.491   2.313   3.449 -1.7092  0.3252 -0.0310
   36MOL0     H 4734   0.777   2.914   4.358 -0.5488  0.8520  0.8478
   36MOL0     H 4735   0.929   3.040   4.519 -0.1516 -1.3395 -0.4009
   36MOL0     H 4736   1.048   3.391   4.721 -1.4599 -2.7089 -3.4697
   36MOL0     H 4737   1.202   3.517   4.878  0.4658 -2.1160  0.6878
   36MOL0     H 4738   2.173   3.366   4.544  1.1781 -1.6875  2.5066
   36MOL0     H 4739   2.368   3.524   4.517  0.0479 -2.0778  1.5636
   36MOL0     H 4740   2.826   3.493   4.455  3.1318  1.5524  2.9515
   36MOL0     H 4741   3.034   3.608   4.480  1.5833 -1.2645 -1.7521
   36MOL0     H 4742   3.178   3.987   4.411 -1.8770  0.5710  0.2011
   36MOL0     H 4743   3.058   3.995   4.293  0.9379  1.4432  0.8822
   36MOL0     H 4744   3.218   3.925   4.110  1.1570 -3.2740  1.4908
   36MOL0     H 4745   3.242   4.082   4.182  0.6992  0.9455  2.1914
   36MOL0     H 4746   3.386   3.818   4.216 -2.3853 -0.3075  1.1573
   36MOL0     H 4747   3.400   3.941   4.345 -1.5091 -0.4288  0.4518
   36MOL0     H 4748   3.471   3.975   4.053  0.3340 -2.5789 -0.4663
   36MOL0     H 4749   3.502   4.097   4.193  2.8395 -0.3328 -1.4585
   36MOL0     H 4750   3.833   3.898   4.294  0.0250 -1.5354 -0.2920
   36MOL0     H 4751   2.950   3.841   4.128 -0.4009  0.1260 -1.0395
   36MOL0     H 4752   2.734   3.735   4.095 -2.5124 -2.3631  0.8787
   37MOL0     O 4753  11.262   9.240  10.746  0.8802 -0.5242  0.3668
   37MOL0     C 4754  11.165   9.302  10.791  0.2397 -0.5620  0.1970
   37MOL0     O 4755  11.114   9.286  10.923 -0.0020 -0.1110  0.2454
   37MOL0     C 4756  11.194   9.236  11.026 -1.0132  0.3665  0.0927
   37MOL0     C 4757  11.339   9.224  11.028 -0.0618  0.7233  0.2949
   37MOL0     C 4758  11.403   9.182  11.145  0.4904  1.5541 -0.0485
   37MOL0     C 4759  11.339   9.150  11.274 -0.3129  0.2821  0.5925
   37MOL0     O 4760  11.397   9.112  11.390 -0.5368  0.6945  0.2515
   37MOL0     C 4761  11.540   9.110  11.400 -0.1158  0.0437 -0.4443
   37MOL0     C 4762  11.599   9.091  11.536 -0.4250 -0.4074  0.6689
   37MOL0     C 4763  11.745   9.043  11.551  0.1972 -0.3454 -0.2623
   37MOL0     C 4764  11.811   9.085  11.683 -0.6510 -0.1802  0.4815
   37MOL0     C 4765  11.961   9.056  11.683  0.0118 -0.1247 -0.5175
   37MOL0     C 4766  12.021   9.086  11.822 -0.3961 -0.7285  0.2202
   37MOL0     C 4767  12.161   9.046  11.833  0.3382 -0.6152  0.1546
   37MOL0     C 4768  12.176   8.901  11.844 -0.5274  0.3309  0.3941
   37MOL0     N 4769  12.315   8.869  11.902 -0.4278 -0.6448 -0.1821
   37MOL0     C 4770  12.357   8.879  12.035 -0.3063  0.3831  0.4046
   37MOL0     C 4771  12.488   8.848  12.030  0.5465  0.0827 -0.2059
   37MOL0     C 4772  12.585   8.850  12.147 -0.2288 -0.5598 -0.8355
   37MOL0     C 4773  12.632   8.997  12.150 -0.4518  0.6736  0.5066
   37MOL0     C 4774  12.528   9.096  12.202 -0.1770  0.7627  0.3536
   37MOL0     C 4775  12.572   9.245  12.217 -0.3968 -0.0104 -0.3775
   37MOL0     O 4776  12.589   9.303  12.087 -0.4085  0.4839  0.9875
   37MOL0     C 4777  12.483   9.343  12.010  0.5005 -0.6633  0.5831
   37MOL0     C 4778  12.352   9.351  12.045 -0.4571 -0.3555  0.1580
   37MOL0     C 4779  12.259   9.405  11.955  1.4057 -0.4549  0.3616
   37MOL0     C 4780  12.289   9.427  11.823 -0.5779 -0.5899  0.7923
   37MOL0     C 4781  12.196   9.467  11.715  0.3997 -0.6910 -0.9657
   37MOL0     O 4782  12.059   9.440  11.741 -0.0254  0.1008 -0.1837
   37MOL0     C 4783  11.965   9.480  11.655  0.8305  0.1419 -0.4034
   37MOL0     C 4784  11.959   9.448  11.517 -1.1131 -0.2449 -0.0238
   37MOL0     C 4785  11.844   9.481  11.454  0.4958 -0.4544  1.0414
   37MOL0     C 4786  11.742   9.561  11.519 -0.3198 -0.8059 -0.1554
   37MOL0     O 4787  11.632   9.603  11.444 -0.1234 -0.2690  0.2177
   37MOL0     C 4788  11.521   9.507  11.437 -0.1804  0.6253 -0.5515
   37MOL0     C 4789  11.453   9.511  11.302 -0.0095  0.6882  0.0564
   37MOL0     C 4790  11.430   9.654  11.262 -0.1422  0.6041  0.1064
   37MOL0     C 4791  11.330   9.662  11.150  0.5042  0.4646 -0.3326
   37MOL0     C 4792  11.349   9.804  11.085 -0.6827  0.3482 -0.0682
   37MOL0     C 4793  11.307   9.923  11.174 -1.0227 -0.6248 -0.2018
   37MOL0     C 4794  11.162   9.934  11.201  0.5692 -0.8996  0.1798
   37MOL0     C 4795  11.132  10.057  11.294 -0.4110  0.8030 -0.3006
   37MOL0    Cl 4796  11.202  10.208  11.239 -0.0018 -0.0382 -0.6911
   37MOL0     C 4797  11.754   9.604  11.648 -0.0701 -0.4135 -0.2105
   37MOL0     C 4798  11.869   9.566  11.708  0.1605 -0.6495  0.3154
   37MOL0     O 4799  12.234   9.533  11.620  0.1865 -0.0756  0.6260
   37MOL0     C 4800  12.424   9.423  11.786 -1.0162  0.0274 -0.0426
   37MOL0     C 4801  12.517   9.362  11.874  0.5713  0.7401  0.1325
   37MOL0     N 4802  12.528   8.813  11.905 -0.5028  0.4703 -0.7564
   37MOL0     N 4803  12.426   8.833  11.829 -0.0179 -0.5952  0.6520
   37MOL0     C 4804  11.199   9.155  11.254  0.0786  0.5911 -0.4247
   37MOL0     C 4805  11.129   9.202  11.139  0.2026  0.0563  0.2274
   37MOL0     C 4806  11.119   9.424  10.709 -1.1551 -0.8060 -0.4326
   37MOL0     C 4807  11.190   9.471  10.599 -0.0815  0.0793  0.2482
   37MOL0     C 4808  11.153   9.584  10.528  0.0049  0.2210 -0.1159
   37MOL0     C 4809  11.037   9.655  10.575 -0.8958  0.8732  0.6963
   37MOL0     O 4810  10.994   9.766  10.506  0.1530  0.0028 -0.1278
   37MOL0     C 4811  10.946   9.880  10.577 -0.3719  0.1727 -0.3220
   37MOL0     C 4812  11.042   9.986  10.548 -0.5107 -0.5735  0.4189
   37MOL0     C 4813  11.183   9.960  10.605  0.0919 -0.1905  1.0208
   37MOL0     C 4814  11.252  10.096  10.646 -0.1697 -0.3808 -0.9128
   37MOL0     C 4815  11.389  10.060  10.673  0.2843 -0.8879  0.6238
   37MOL0     C 4816  11.502  10.023  10.701  0.1480 -0.3210  0.4265
   37MOL0     C 4817  10.968   9.607  10.683  0.3226  0.1685  0.6444
   37MOL0     C 4818  11.003   9.495  10.749 -1.6905  1.1024 -0.4980
   37MOL0     H 4819  11.400   9.258  10.945  1.0119 -1.7072 -0.0092
   37MOL0     H 4820  11.511   9.169  11.140  0.1848 -1.2486 -1.3055
   37MOL0     H 4821  11.581   9.202  11.357 -3.4284  0.9405 -2.0999
   37MOL0     H 4822  11.561   9.025  11.335  0.1570 -1.6616  1.7740
   37MOL0     H 4823  11.528   9.025  11.586 -1.5136  1.2539  1.4368
   37MOL0     H 4824  11.591   9.192  11.578  2.5607  0.7453 -1.2266
   37MOL0     H 4825  11.810   9.067  11.467  1.4910  0.4970  0.9439
   37MOL0     H 4826  11.743   8.937  11.523  3.8559 -0.0973 -2.0210
   37MOL0     H 4827  11.785   9.191  11.696  0.1538 -0.2538  3.1885
   37MOL0     H 4828  11.762   9.043  11.771 -0.1503  0.0787  0.8889
   37MOL0     H 4829  11.999   9.130  11.611  1.2284 -0.6722 -0.4428
   37MOL0     H 4830  11.986   8.955  11.650  4.0114 -0.1455  1.9877
   37MOL0     H 4831  11.965   9.036  11.903 -3.2554  2.3339  0.3757
   37MOL0     H 4832  12.018   9.191  11.853 -3.3278 -0.3550 -0.9399
   37MOL0     H 4833  12.224   9.090  11.756 -0.7770  1.0335  0.1281
   37MOL0     H 4834  12.194   9.083  11.931 -0.5682 -1.1174  0.6667
   37MOL0     H 4835  12.167   8.843  11.752  2.1706 -1.4637  1.1478
   37MOL0     H 4836  12.106   8.861  11.918 -0.5616 -1.9946 -0.7832
   37MOL0     H 4837  12.295   8.898  12.122 -4.5540 -5.2751 -0.7985
   37MOL0     H 4838  12.673   8.786  12.145  1.2015  1.3140 -0.1373
   37MOL0     H 4839  12.533   8.832  12.242 -0.5649  1.5882 -0.5590
   37MOL0     H 4840  12.664   9.016  12.047  0.7154  3.4001  1.2802
   37MOL0     H 4841  12.723   9.007  12.209  0.7249 -0.7294 -0.9708
   37MOL0     H 4842  12.442   9.094  12.136 -0.6583 -0.1529  0.9848
   37MOL0     H 4843  12.501   9.038  12.291 -1.7559 -0.6229 -0.9698
   37MOL0     H 4844  12.663   9.247  12.278  2.1940 -1.6950 -3.8243
   37MOL0     H 4845  12.492   9.297  12.271 -1.2825  1.0849 -2.6090
   37MOL0     H 4846  12.312   9.326  12.143 -0.5207 -1.9798 -0.2559
   37MOL0     H 4847  12.154   9.412  11.982  0.9224 -0.2766 -1.4436
   37MOL0     H 4848  12.047   9.400  11.476 -0.5907  1.1504 -0.6084
   37MOL0     H 4849  11.826   9.462  11.349 -0.6841  3.7974  0.2684
   37MOL0     H 4850  11.450   9.542  11.512  0.3087 -0.5756  0.5132
   37MOL0     H 4851  11.568   9.411  11.463 -2.5976 -0.1631  1.1866
   37MOL0     H 4852  11.365   9.446  11.295  1.4632 -1.2950 -1.7685
   37MOL0     H 4853  11.514   9.467  11.222  1.2374  2.5653 -0.0690
   37MOL0     H 4854  11.523   9.707  11.238 -0.9972  2.9113  1.5756
   37MOL0     H 4855  11.394   9.711  11.349  1.3185  1.2298  0.3362
   37MOL0     H 4856  11.347   9.578  11.081  0.0764  0.5118 -0.4976
   37MOL0     H 4857  11.228   9.644  11.186  1.2528 -3.2607  0.3383
   37MOL0     H 4858  11.293   9.800  10.991  1.6130  1.3662 -1.5559
   37MOL0     H 4859  11.450   9.824  11.050 -0.2718 -3.1432 -1.2751
   37MOL0     H 4860  11.333  10.011  11.115 -2.6154 -0.5107 -0.7765
   37MOL0     H 4861  11.366   9.913  11.266  1.1993 -1.5422 -1.6623
   37MOL0     H 4862  11.107   9.955  11.110 -0.8306  0.7823  1.3473
   37MOL0     H 4863  11.131   9.841  11.250 -1.3296 -0.7233 -0.6379
   37MOL0     H 4864  11.157  10.028  11.396 -2.2069  0.1673 -0.0054
   37MOL0     H 4865  11.025  10.073  11.277 -0.1222 -0.1859 -3.8373
   37MOL0     H 4866  11.683   9.667  11.701 -0.2981  0.2314 -1.2464
   37MOL0     H 4867  11.892   9.611  11.804  2.4867  0.8113 -0.8429
   37MOL0     H 4868  12.466   9.448  11.689  0.4046  1.0573  0.8089
   37MOL0     H 4869  12.612   9.322  11.841  0.5102 -0.5859  1.4539
   37MOL0     H 4870  11.131   9.134  11.336  1.9059  0.5751  1.1534
   37MOL0     H 4871  11.023   9.221  11.152 -0.8688 -4.6796  0.2268
   37MOL0     H 4872  11.275   9.416  10.558  2.0508  1.5165  2.4639
   37MOL0     H 4873  11.200   9.614  10.435 -1.1487  1.3390 -0.3774
   37MOL0     H 4874  10.939   9.854  10.683 -0.4318  2.2559  0.2162
   37MOL0     H 4875  10.844   9.905  10.546  0.3089  0.3219 -2.6784
   37MOL0     H 4876  11.043  10.008  10.441  1.7362 -0.3957  0.4423
   37MOL0     H 4877  11.017  10.080  10.599 -0.6547 -0.6455  0.4831
   37MOL0     H 4878  11.241   9.902  10.531 -2.5710 -0.8167 -0.7205
   37MOL0     H 4879  11.169   9.912  10.702  0.6710  0.3662  1.3839
   37MOL0     H 4880  11.247  10.165  10.562  2.4399 -2.0930 -2.6441
   37MOL0     H 4881  11.212  10.141  10.737  0.3644 -0.6469 -0.5409
   37MOL0     H 4882  11.603   9.991  10.714  1.3489  0.5399 -4.7467
   37MOL0     H 4883  10.889   9.667  10.727  0.0024 -0.0846  0.4207
   37MOL0     H 4884  10.969   9.475  10.850  2.9490 -2.0640  0.7570
   38MOL0     O 4885   8.331   9.366  11.039 -0.2501  0.5110 -0.6388
   38MOL0     C 4886   8.230   9.350  11.105 -0.4899 -0.1842 -0.5521
   38MOL0     O 4887   8.219   9.364  11.240 -0.4121  0.6665 -0.0869
   38MOL0     C 4888   8.324   9.433  11.300  1.3677 -0.1079 -0.0720
   38MOL0     C 4889   8.314   9.571  11.303 -0.5655 -0.3392 -0.1414
   38MOL0     C 4890   8.424   9.638  11.358 -0.9976 -0.8144  0.1797
   38MOL0     C 4891   8.541   9.572  11.408 -0.2927 -0.1895  0.8253
   38MOL0     O 4892   8.647   9.648  11.445 -0.9819 -0.2833  0.3256
   38MOL0     C 4893   8.713   9.589  11.554  0.7109 -0.2406  0.4435
   38MOL0     C 4894   8.814   9.684  11.618  0.7340  0.5472 -1.0734
   38MOL0     C 4895   8.960   9.669  11.557  0.0361 -0.8753 -0.2298
   38MOL0     C 4896   8.950   9.651  11.406 -0.1123 -0.3973 -0.4384
   38MOL0     C 4897   8.927   9.792  11.338 -0.2734 -0.1339  0.2136
   38MOL0     C 4898   9.034   9.818  11.232 -0.6670  0.1057  0.2211
   38MOL0     C 4899   9.191   9.822  11.270  0.6767  0.7159 -0.2727
   38MOL0     C 4900   9.278   9.887  11.172  0.7865 -0.3538 -1.3302
   38MOL0     N 4901   9.421   9.872  11.212  0.2767 -0.9148  0.2785
   38MOL0     C 4902   9.471   9.915  11.329 -0.2343 -0.8392  0.2005
   38MOL0     C 4903   9.586   9.846  11.346  0.4779 -0.5659 -0.6694
   38MOL0     C 4904   9.687   9.872  11.453  0.0855  0.1464  0.1420
   38MOL0     C 4905   9.632   9.887  11.598 -0.9967  0.2798 -0.2157
   38MOL0     C 4906   9.510   9.807  11.645 -0.1014  0.1670  0.1748
   38MOL0     C 4907   9.461   9.833  11.787 -0.7273  0.0505  0.5710
   38MOL0     O 4908   9.326   9.783  11.821 -0.5224  0.3023  0.1350
   38MOL0     C 4909   9.259   9.837  11.922  0.0819  0.1048  0.3979
   38MOL0     C 4910   9.323   9.915  12.022  0.2646 -0.6992 -0.3701
   38MOL0     C 4911   9.246   9.985  12.116 -0.3356  0.0671 -0.0304
   38MOL0     C 4912   9.108   9.988  12.114 -0.2054  0.3719  0.7612
   38MOL0     C 4913   9.029  10.063  12.205 -0.1150 -0.0318  0.7118
   38MOL0     O 4914   9.089  10.069  12.324 -0.4664  0.1940 -0.4165
   38MOL0     C 4915   9.028  10.146  12.423 -1.0792 -0.1913 -0.4430
   38MOL0     C 4916   8.968  10.271  12.421 -0.0769  0.4563 -0.6989
   38MOL0     C 4917   8.909  10.330  12.532  0.1951  0.2564  0.1695
   38MOL0     C 4918   8.898  10.262  12.651 -0.2924  0.6158 -0.8579
   38MOL0     O 4919   8.840  10.319  12.760 -0.7676  0.4234 -0.1491
   38MOL0     C 4920   8.774  10.446  12.753  0.0656  0.3385  0.8785
   38MOL0     C 4921   8.755  10.491  12.894  0.6678  0.1611  0.3956
   38MOL0     C 4922   8.663  10.607  12.916 -0.2853 -1.0347  0.9835
   38MOL0     C 4923   8.731  10.739  12.887 -0.0056 -0.2466  0.9173
   38MOL0     C 4924   8.635  10.858  12.888 -0.1291 -0.1244  0.1259
   38MOL0     C 4925   8.691  10.991  12.840 -0.1617 -0.1012  0.1161
   38MOL0     C 4926   8.595  11.113  12.855  0.7123 -0.0332 -0.1154
   38MOL0     C 4927   8.680  11.233  12.810  0.2411 -0.1446  0.0582
   38MOL0    Cl 4928   8.612  11.391  12.847  0.1347 -0.0828 -0.0689
   38MOL0     C 4929   8.947  10.130  12.653 -0.2465 -0.5216 -0.7518
   38MOL0     C 4930   9.013  10.075  12.547 -0.4392 -0.4467 -0.3855
   38MOL0     O 4931   8.914  10.088  12.177  0.0615  0.5961 -0.3196
   38MOL0     C 4932   9.051   9.912  12.011 -0.2494  0.4911 -0.1119
   38MOL0     C 4933   9.122   9.844  11.914  0.0940 -0.4204 -0.8532
   38MOL0     N 4934   9.608   9.753  11.245 -0.3867  0.0353 -0.2208
   38MOL0     N 4935   9.505   9.772  11.166 -0.1387  0.1290 -0.1313
   38MOL0     C 4936   8.545   9.432  11.383  0.0308  0.4711 -0.7565
   38MOL0     C 4937   8.439   9.360  11.332 -0.8984  0.3706 -0.2310
   38MOL0     C 4938   8.099   9.311  11.051 -0.2088  0.3581 -0.2183
   38MOL0     C 4939   7.977   9.364  11.103 -0.7083 -0.0410  0.2520
   38MOL0     C 4940   7.853   9.323  11.043 -0.5665  0.0353  0.5865
   38MOL0     C 4941   7.856   9.220  10.951  1.0772 -1.3201  0.0042
   38MOL0     O 4942   7.744   9.166  10.899  0.6641 -0.1960  0.2439
   38MOL0     C 4943   7.696   9.237  10.781  0.1968 -0.0957  0.3029
   38MOL0     C 4944   7.590   9.328  10.815  0.0929 -0.0945  0.1478
   38MOL0     C 4945   7.476   9.273  10.914  0.0196  0.2185 -0.8931
   38MOL0     C 4946   7.434   9.134  10.899 -0.0652 -0.2095 -0.3111
   38MOL0     C 4947   7.314   9.120  10.977 -0.1978 -0.1015 -0.6493
   38MOL0     C 4948   7.216   9.109  11.040 -0.6786  0.0159  1.2738
   38MOL0     C 4949   7.970   9.178  10.893  0.1206  0.8177  0.3278
   38MOL0     C 4950   8.091   9.229  10.942  0.0796  0.7601  0.9426
   38MOL0     H 4951   8.226   9.625  11.270  0.4369  0.9482 -0.7683
   38MOL0     H 4952   8.428   9.746  11.345  1.6696 -0.9679 -0.9396
   38MOL0     H 4953   8.778   9.508  11.519  2.9496  2.6243 -2.6162
   38MOL0     H 4954   8.639   9.553  11.627 -1.4609 -0.4256 -1.7415
   38MOL0     H 4955   8.823   9.675  11.727  0.1386  0.2380 -1.0438
   38MOL0     H 4956   8.774   9.785  11.603 -0.2641  0.6526  1.6146
   38MOL0     H 4957   9.010   9.583  11.603  2.7561  0.5148 -0.4150
   38MOL0     H 4958   9.016   9.760  11.579 -2.2429  0.8996 -1.3126
   38MOL0     H 4959   9.045   9.609  11.372  1.5000  1.4270  1.5452
   38MOL0     H 4960   8.882   9.580  11.358  0.6180 -1.6604  0.3522
   38MOL0     H 4961   8.922   9.872  11.412  0.0897 -0.4040  0.5365
   38MOL0     H 4962   8.831   9.801  11.287  0.4971  2.6108 -0.8936
   38MOL0     H 4963   9.005   9.915  11.190 -3.0192  0.3469  2.1981
   38MOL0     H 4964   9.020   9.741  11.156  1.2461  0.0621 -0.1393
   38MOL0     H 4965   9.194   9.870  11.369 -2.0690 -0.0263  0.2801
   38MOL0     H 4966   9.223   9.721  11.295 -1.3403 -0.3871 -1.7865
   38MOL0     H 4967   9.246   9.989  11.150  0.6829  0.1439  0.9326
   38MOL0     H 4968   9.255   9.827  11.083 -0.8111  0.9930 -1.8654
   38MOL0     H 4969   9.421   9.995  11.382 -1.1654  0.5519 -2.5596
   38MOL0     H 4970   9.736   9.969  11.436 -2.2162  1.0934 -1.6976
   38MOL0     H 4971   9.758   9.790  11.460 -0.2351 -0.0212  1.7219
   38MOL0     H 4972   9.611   9.993  11.614 -0.7915  0.3605 -0.4700
   38MOL0     H 4973   9.719   9.861  11.661 -1.8174  1.3762  1.4410
   38MOL0     H 4974   9.439   9.837  11.568  2.3547 -0.2582 -2.4222
   38MOL0     H 4975   9.544   9.703  11.641  0.9707  0.5385 -1.9318
   38MOL0     H 4976   9.464   9.940  11.807 -0.4570  0.0709  0.4279
   38MOL0     H 4977   9.513   9.783  11.870 -1.2267 -0.8680  0.3498
   38MOL0     H 4978   9.428   9.933  12.037  0.4949 -0.0487 -2.4235
   38MOL0     H 4979   9.300  10.046  12.188 -0.3777  0.1250 -0.0481
   38MOL0     H 4980   8.974  10.318  12.323  2.2818 -1.3259 -1.5066
   38MOL0     H 4981   8.864  10.428  12.522 -1.3151 -0.5225 -1.1850
   38MOL0     H 4982   8.677  10.437  12.703 -0.5471  0.6790  1.9545
   38MOL0     H 4983   8.830  10.530  12.711  3.8811 -1.1501  2.4911
   38MOL0     H 4984   8.842  10.497  12.959  0.4141 -1.1722  0.8952
   38MOL0     H 4985   8.700  10.403  12.931  0.4688 -0.6081 -1.6276
   38MOL0     H 4986   8.618  10.605  13.015 -0.6998 -1.0715  0.7952
   38MOL0     H 4987   8.590  10.601  12.835 -2.0104  1.7245  2.1864
   38MOL0     H 4988   8.804  10.758  12.966 -0.4838  2.1698  0.8730
   38MOL0     H 4989   8.780  10.736  12.789  2.9440  1.2476  2.2316
   38MOL0     H 4990   8.604  10.881  12.990 -2.3552 -1.9617 -0.0538
   38MOL0     H 4991   8.544  10.828  12.835 -0.5204 -0.2928  0.8831
   38MOL0     H 4992   8.712  10.973  12.734 -0.3097 -3.7625  0.5934
   38MOL0     H 4993   8.792  11.007  12.881  0.2817 -1.6865 -0.2777
   38MOL0     H 4994   8.503  11.091  12.800  0.1856 -2.9067  1.7089
   38MOL0     H 4995   8.570  11.128  12.961 -2.5472  1.5158 -0.9607
   38MOL0     H 4996   8.704  11.224  12.704 -1.3405  1.5569 -0.4862
   38MOL0     H 4997   8.778  11.223  12.860  1.1015  0.8989 -1.3580
   38MOL0     H 4998   8.947  10.064  12.740 -0.0533 -0.8178 -0.9750
   38MOL0     H 4999   9.061   9.978  12.554 -0.1129 -0.1713  1.7800
   38MOL0     H 5000   8.943   9.918  12.002 -0.4138 -2.3542 -1.1485
   38MOL0     H 5001   9.066   9.818  11.824 -1.2213  3.6421 -1.4293
   38MOL0     H 5002   8.635   9.372  11.396 -0.0817  0.7227  1.4909
   38MOL0     H 5003   8.457   9.254  11.312  1.7806  0.7794 -0.3821
   38MOL0     H 5004   7.975   9.434  11.186  1.7313  3.5998 -2.4562
   38MOL0     H 5005   7.760   9.364  11.082 -1.1002 -3.3942  3.3514
   38MOL0     H 5006   7.643   9.164  10.719  1.6616 -1.0161  0.0848
   38MOL0     H 5007   7.762   9.295  10.717 -2.3719 -0.4142 -2.9079
   38MOL0     H 5008   7.638   9.418  10.852 -0.2584 -1.4588  4.4285
   38MOL0     H 5009   7.545   9.350  10.718  0.5762 -0.8828 -0.2671
   38MOL0     H 5010   7.384   9.331  10.905 -1.2628 -0.2200  5.0771
   38MOL0     H 5011   7.504   9.302  11.016 -0.5117  2.4227 -1.3312
   38MOL0     H 5012   7.403   9.111  10.797 -1.2919 -5.2210  0.9215
   38MOL0     H 5013   7.512   9.064  10.931 -0.3126 -0.1407  0.4715
   38MOL0     H 5014   7.125   9.106  11.096 -1.2140 -0.6206  0.3871
   38MOL0     H 5015   7.961   9.099  10.819 -0.5769 -1.2912  2.5092
   38MOL0     H 5016   8.177   9.183  10.894  0.6083  2.3416  0.2850
   39MOL0     O 5017   2.053   3.766  11.209  0.3546 -0.1199  0.4530
   39MOL0     C 5018   2.013   3.745  11.091  1.1041  0.9108 -1.1216
   39MOL0     O 5019   1.911   3.651  11.064  0.1005 -0.1485  0.1664
   39MOL0     C 5020   1.849   3.582  11.164  0.2126 -0.0766  0.8239
   39MOL0     C 5021   1.916   3.488  11.244 -0.1645 -0.0484 -0.3224
   39MOL0     C 5022   1.835   3.420  11.339 -0.3678  0.5184  0.9851
   39MOL0     C 5023   1.700   3.448  11.358  0.7579 -0.3086  1.1321
   39MOL0     O 5024   1.612   3.380  11.444 -0.4671 -0.1688 -0.0585
   39MOL0     C 5025   1.632   3.240  11.467 -0.0004  0.4038 -0.1393
   39MOL0     C 5026   1.489   3.180  11.491 -0.7936 -0.3683  0.4714
   39MOL0     C 5027   1.396   3.244  11.584  0.2877  0.1249  0.3829
   39MOL0     C 5028   1.265   3.151  11.587  0.9663  0.7601 -0.4973
   39MOL0     C 5029   1.146   3.256  11.610 -0.0665  0.7613  1.7607
   39MOL0     C 5030   0.994   3.203  11.605  0.3287  0.8518  0.1424
   39MOL0     C 5031   0.970   3.127  11.476 -0.7118  0.2856  0.4336
   39MOL0     C 5032   0.823   3.085  11.467 -1.1264 -0.5239 -0.0204
   39MOL0     N 5033   0.818   2.978  11.361  0.0478 -0.1339 -0.1412
   39MOL0     C 5034   0.813   2.996  11.228 -0.7261  1.3320 -0.2011
   39MOL0     C 5035   0.801   2.869  11.165  0.3804 -0.2554 -0.1588
   39MOL0     C 5036   0.784   2.828  11.018 -0.5340 -1.2317 -0.8360
   39MOL0     C 5037   0.638   2.828  10.975 -0.2716  1.2307  0.3680
   39MOL0     C 5038   0.574   2.693  10.995 -0.6925  0.4855 -0.0945
   39MOL0     C 5039   0.427   2.694  10.963  0.5333  0.1953 -0.2286
   39MOL0     O 5040   0.401   2.766  10.842  0.1872 -0.4116 -0.1478
   39MOL0     C 5041   0.274   2.768  10.781  0.0471  0.5347 -0.5357
   39MOL0     C 5042   0.273   2.810  10.646 -0.3832 -0.0317  0.0062
   39MOL0     C 5043   0.166   2.810  10.564 -0.5831  0.8304 -0.5089
   39MOL0     C 5044   0.042   2.766  10.613  0.1838  0.3471 -0.1750
   39MOL0     C 5045  -0.075   2.760  10.535  0.2867 -0.5909  0.9976
   39MOL0     O 5046  -0.075   2.831  10.409 -0.5795 -0.2457 -0.4198
   39MOL0     C 5047  -0.171   2.797  10.313 -0.6313 -0.1657  0.1126
   39MOL0     C 5048  -0.199   2.893  10.213 -0.4391 -0.5568  0.1410
   39MOL0     C 5049  -0.282   2.863  10.099  0.2802  0.9777  0.2693
   39MOL0     C 5050  -0.336   2.732  10.082 -0.2927  0.5527  0.8562
   39MOL0     O 5051  -0.434   2.688   9.990 -0.6850 -0.0877 -0.4069
   39MOL0     C 5052  -0.427   2.722   9.853  0.2257 -0.6936  0.5518
   39MOL0     C 5053  -0.570   2.705   9.786  0.7712  0.3906 -0.3792
   39MOL0     C 5054  -0.566   2.760   9.651 -0.3046 -0.4509  0.1204
   39MOL0     C 5055  -0.705   2.739   9.574  0.6740  1.0349  0.0847
   39MOL0     C 5056  -0.688   2.754   9.418  0.2647  0.0063 -0.3072
   39MOL0     C 5057  -0.829   2.760   9.349 -0.0986  0.3082 -0.3266
   39MOL0     C 5058  -0.814   2.746   9.205  0.3443  1.0121  0.3110
   39MOL0     C 5059  -0.937   2.682   9.138  0.7199  0.0184  0.9537
   39MOL0    Cl 5060  -1.057   2.804   9.069  0.0522 -0.2872 -0.0820
   39MOL0     C 5061  -0.304   2.643  10.185  0.0868  0.4951 -0.1027
   39MOL0     C 5062  -0.231   2.674  10.293  0.0490 -0.3174  0.3687
   39MOL0     O 5063  -0.173   2.707  10.587  0.1562 -0.1207  0.2589
   39MOL0     C 5064   0.034   2.727  10.755 -0.6983 -0.0609  0.4181
   39MOL0     C 5065   0.148   2.740  10.835 -0.0244 -0.3001 -1.3747
   39MOL0     N 5066   0.782   2.778  11.280  0.3744 -0.6059  0.6633
   39MOL0     N 5067   0.809   2.839  11.395  0.6986 -0.6900  1.0504
   39MOL0     C 5068   1.638   3.547  11.285  0.0441 -0.0666 -0.0950
   39MOL0     C 5069   1.710   3.597  11.174 -0.0229 -1.0794 -0.5819
   39MOL0     C 5070   2.053   3.836  10.988  0.3331  0.2309  0.4338
   39MOL0     C 5071   2.005   3.814  10.854  0.1741 -0.3839 -0.0703
   39MOL0     C 5072   2.049   3.904  10.756 -0.6348  0.1560  0.7390
   39MOL0     C 5073   2.156   4.004  10.783  0.1560  0.0102  0.5499
   39MOL0     O 5074   2.221   4.084  10.697  0.6442 -0.6147 -0.2930
   39MOL0     C 5075   2.204   4.060  10.558 -0.5667  0.6084 -0.3501
   39MOL0     C 5076   2.285   4.155  10.473  0.3528 -0.0258 -0.9011
   39MOL0     C 5077   2.216   4.296  10.461 -0.4032  0.4312  0.6897
   39MOL0     C 5078   2.152   4.326  10.327 -0.5186  0.4534  0.5787
   39MOL0     C 5079   2.030   4.246  10.293  0.2041 -0.6053  0.5624
   39MOL0     C 5080   1.940   4.177  10.268 -0.6252  1.1161  0.0605
   39MOL0     C 5081   2.203   4.024  10.906 -0.2921  0.3785  0.2123
   39MOL0     C 5082   2.149   3.940  11.012 -0.3634 -0.5894  0.8080
   39MOL0     H 5083   2.022   3.466  11.245  0.2602  1.7194  2.1354
   39MOL0     H 5084   1.879   3.333  11.388 -1.3275 -2.0082 -2.2275
   39MOL0     H 5085   1.715   3.224  11.537  2.4642  2.3616 -2.3930
   39MOL0     H 5086   1.661   3.202  11.368 -2.7448 -2.9701  0.1794
   39MOL0     H 5087   1.498   3.071  11.505 -0.0307 -0.0380  2.9643
   39MOL0     H 5088   1.433   3.197  11.398 -1.7445  0.6195  1.2038
   39MOL0     H 5089   1.373   3.350  11.570  0.0889  0.1268  0.7201
   39MOL0     H 5090   1.441   3.248  11.684  0.9583  0.8892  0.0664
   39MOL0     H 5091   1.242   3.099  11.493 -1.4279  2.0949 -0.7408
   39MOL0     H 5092   1.278   3.080  11.669  1.8963  0.6308 -0.7461
   39MOL0     H 5093   1.138   3.330  11.530 -1.4822 -1.6986 -0.5674
   39MOL0     H 5094   1.161   3.308  11.705  1.3607  2.5258  0.6223
   39MOL0     H 5095   0.923   3.285  11.617 -0.0950  0.4616  0.3131
   39MOL0     H 5096   0.980   3.128  11.684  0.1998 -0.5305 -1.1512
   39MOL0     H 5097   1.010   3.191  11.397  1.4484  0.1434  1.3159
   39MOL0     H 5098   1.019   3.029  11.481 -2.1186 -0.4261  0.5057
   39MOL0     H 5099   0.771   3.178  11.445  2.3114  2.7697  3.9985
   39MOL0     H 5100   0.791   3.057  11.568 -2.0272  1.6942  0.3624
   39MOL0     H 5101   0.824   3.093  11.180 -0.0765  0.8193 -1.1192
   39MOL0     H 5102   0.834   2.734  10.995  2.1318  0.2495 -1.4695
   39MOL0     H 5103   0.837   2.909  10.967 -1.5209 -0.0424 -0.0681
   39MOL0     H 5104   0.628   2.846  10.867 -0.9813  0.1343  0.2360
   39MOL0     H 5105   0.593   2.911  11.031  1.1708  2.5431 -0.3293
   39MOL0     H 5106   0.626   2.624  10.928  1.8106  1.1428  1.0897
   39MOL0     H 5107   0.587   2.662  11.098  1.0417 -0.7730 -0.6553
   39MOL0     H 5108   0.385   2.746  11.049 -1.0790 -4.6840  2.2630
   39MOL0     H 5109   0.377   2.597  10.961 -1.2254  1.0459 -2.5032
   39MOL0     H 5110   0.367   2.811  10.592 -1.2332 -4.1797 -1.9327
   39MOL0     H 5111   0.170   2.836  10.459  1.4230  1.2649 -0.3759
   39MOL0     H 5112  -0.156   2.992  10.227  1.9981 -1.5606  0.3114
   39MOL0     H 5113  -0.302   2.936  10.021 -0.6842  0.5116  0.0747
   39MOL0     H 5114  -0.351   2.667   9.798  1.2573  2.3476 -1.3465
   39MOL0     H 5115  -0.394   2.825   9.838 -0.8140 -0.5463 -0.9268
   39MOL0     H 5116  -0.655   2.751   9.836  1.8436  0.8468  1.0812
   39MOL0     H 5117  -0.585   2.597   9.779  2.1674  0.0803  0.8694
   39MOL0     H 5118  -0.495   2.715   9.582 -0.7043  0.0050 -0.5988
   39MOL0     H 5119  -0.543   2.867   9.649  1.8097 -0.8551 -2.3286
   39MOL0     H 5120  -0.744   2.639   9.592  1.1853  0.1497 -3.1952
   39MOL0     H 5121  -0.785   2.810   9.601 -3.0501 -1.4913 -3.0965
   39MOL0     H 5122  -0.639   2.658   9.399 -2.1335 -1.1970 -0.7595
   39MOL0     H 5123  -0.613   2.831   9.400  0.4401  0.7003  2.7439
   39MOL0     H 5124  -0.878   2.857   9.358 -1.0529 -0.2373  0.6764
   39MOL0     H 5125  -0.886   2.677   9.394  1.3914  0.1911  1.4838
   39MOL0     H 5126  -0.798   2.846   9.163  1.1583  1.2804  1.2283
   39MOL0     H 5127  -0.736   2.671   9.191 -1.3260 -1.0938  1.8029
   39MOL0     H 5128  -0.987   2.616   9.209  3.1109 -0.9213  1.8490
   39MOL0     H 5129  -0.906   2.628   9.049  2.0043 -1.8234  2.4508
   39MOL0     H 5130  -0.357   2.548  10.181 -0.1976  0.6842 -1.5227
   39MOL0     H 5131  -0.210   2.598  10.367  0.6151  0.3541  0.9113
   39MOL0     H 5132  -0.061   2.694  10.794 -0.1372 -3.2275 -0.5722
   39MOL0     H 5133   0.143   2.723  10.942  2.1494  1.9108 -0.8099
   39MOL0     H 5134   1.531   3.563  11.289 -0.3808 -1.9276 -1.9779
   39MOL0     H 5135   1.657   3.667  11.110  2.4633  3.7104  2.0958
   39MOL0     H 5136   1.924   3.746  10.830  0.2155  0.0172 -1.4504
   39MOL0     H 5137   2.014   3.890  10.655  1.7230 -0.8885 -0.0023
   39MOL0     H 5138   2.100   4.085  10.533 -0.0092  2.5261 -0.9180
   39MOL0     H 5139   2.221   3.957  10.527  0.3081  1.2529 -2.1449
   39MOL0     H 5140   2.383   4.161  10.519  0.5144  2.3490 -1.4535
   39MOL0     H 5141   2.288   4.107  10.374 -2.5871  1.5519 -1.8730
   39MOL0     H 5142   2.299   4.364  10.478  2.1369 -1.6597 -2.2242
   39MOL0     H 5143   2.135   4.327  10.528 -2.0405  2.9639 -2.2203
   39MOL0     H 5144   2.108   4.426  10.324 -3.4165 -0.6141  2.5458
   39MOL0     H 5145   2.226   4.327  10.247  2.9148 -3.7373  3.1802
   39MOL0     H 5146   1.871   4.111  10.219  1.3411 -2.5758  1.8383
   39MOL0     H 5147   2.273   4.104  10.924  0.6174 -0.1605 -0.8463
   39MOL0     H 5148   2.182   3.957  11.114  2.4609 -0.6591  0.0108
   40MOL0     O 5149   9.710   4.622   5.624 -0.4947  0.4274 -0.4878
   40MOL0     C 5150   9.717   4.666   5.504 -0.3032  0.0545 -0.0935
   40MOL0     O 5151   9.706   4.595   5.396 -0.5293  0.0538  1.1123
   40MOL0     C 5152   9.698   4.454   5.393  0.0243 -0.4070  0.8974
   40MOL0     C 5153   9.769   4.387   5.290  0.5116 -0.6572  0.6133
   40MOL0     C 5154   9.750   4.251   5.275  0.0274  0.5462  0.5776
   40MOL0     C 5155   9.660   4.180   5.356  0.6607 -0.2107  1.0623
   40MOL0     O 5156   9.664   4.044   5.351  0.8377 -0.4845 -0.4576
   40MOL0     C 5157   9.567   3.981   5.264 -0.9273 -0.8789  0.3320
   40MOL0     C 5158   9.448   3.932   5.343 -0.4439 -0.1210 -0.0498
   40MOL0     C 5159   9.493   3.831   5.456 -0.2886  0.1218  0.2399
   40MOL0     C 5160   9.361   3.773   5.515 -1.0406  0.6061 -0.4493
   40MOL0     C 5161   9.385   3.695   5.652  0.2282  0.6208 -0.2770
   40MOL0     C 5162   9.252   3.674   5.738  0.2422  0.4153  0.5582
   40MOL0     C 5163   9.146   3.582   5.663 -0.2172 -0.1001 -0.6010
   40MOL0     C 5164   9.033   3.550   5.771 -0.3256 -0.2209  0.6564
   40MOL0     N 5165   8.908   3.483   5.710 -0.6999  0.8700 -0.2005
   40MOL0     C 5166   8.890   3.346   5.726 -0.7330 -0.2213  0.2854
   40MOL0     C 5167   8.793   3.315   5.631  0.1329  0.7757 -0.2684
   40MOL0     C 5168   8.718   3.184   5.618 -0.1861  0.5969 -0.8572
   40MOL0     C 5169   8.820   3.076   5.568  0.1286 -0.7834 -1.4516
   40MOL0     C 5170   8.890   3.096   5.430  0.6302 -0.7828 -0.0342
   40MOL0     C 5171   9.029   3.161   5.438  0.3217 -0.0679 -0.5320
   40MOL0     O 5172   9.099   3.173   5.311 -0.2895 -0.0020  0.1056
   40MOL0     C 5173   9.196   3.264   5.279 -0.2255  0.2530 -0.1040
   40MOL0     C 5174   9.244   3.239   5.153  0.0517  0.4321 -0.4176
   40MOL0     C 5175   9.345   3.315   5.101 -1.6935  0.7538 -0.4993
   40MOL0     C 5176   9.401   3.416   5.178  1.0633 -0.2030 -0.5773
   40MOL0     C 5177   9.496   3.507   5.113 -0.3041  0.0917 -0.7156
   40MOL0     O 5178   9.557   3.454   4.995  0.7436  0.3666  0.2874
   40MOL0     C 5179   9.624   3.538   4.912  0.5627  0.7963 -0.1350
   40MOL0     C 5180   9.568   3.632   4.832  0.5846  0.4648 -0.3708
   40MOL0     C 5181   9.650   3.733   4.781  1.2377  0.7491 -0.7184
   40MOL0     C 5182   9.792   3.718   4.778 -0.0013  0.2896  1.2142
   40MOL0     O 5183   9.846   3.799   4.679 -0.4483  0.3216 -0.6924
   40MOL0     C 5184   9.979   3.755   4.641 -0.3861 -0.1601 -0.5402
   40MOL0     C 5185  10.021   3.867   4.551  0.2453  0.5120 -0.5446
   40MOL0     C 5186  10.168   3.848   4.511  0.0265  0.7258 -0.5668
   40MOL0     C 5187  10.203   3.953   4.406  0.8480  0.6125  0.3371
   40MOL0     C 5188  10.224   4.091   4.476 -0.4051 -0.8291 -0.1261
   40MOL0     C 5189  10.282   4.218   4.410  0.9287 -0.2223  0.0466
   40MOL0     C 5190  10.295   4.323   4.525 -0.7915 -0.7006 -0.0139
   40MOL0     C 5191  10.185   4.426   4.504  0.6335 -0.0412 -0.2501
   40MOL0    Cl 5192  10.184   4.532   4.355  0.4026 -0.2018  0.1142
   40MOL0     C 5193   9.850   3.614   4.857  0.5016  0.1118  0.6689
   40MOL0     C 5194   9.759   3.525   4.920 -0.4377  0.6128 -0.5161
   40MOL0     O 5195   9.512   3.625   5.144  0.4721 -0.0126 -0.6593
   40MOL0     C 5196   9.357   3.448   5.307  0.1787  0.6444 -0.3045
   40MOL0     C 5197   9.252   3.363   5.360 -0.4561 -0.9911  0.8810
   40MOL0     N 5198   8.756   3.438   5.567 -0.2763  0.4589  0.0843
   40MOL0     N 5199   8.833   3.526   5.605  0.0936 -0.6132  0.2559
   40MOL0     C 5200   9.591   4.248   5.458  0.0484  0.3605  0.4656
   40MOL0     C 5201   9.598   4.392   5.461  0.5511 -0.0133 -0.0375
   40MOL0     C 5202   9.739   4.815   5.497  0.0059 -0.0495  0.6818
   40MOL0     C 5203   9.771   4.873   5.376  0.8507  0.3148  0.5311
   40MOL0     C 5204   9.799   5.015   5.365 -0.2836  0.5432 -0.6878
   40MOL0     C 5205   9.796   5.103   5.476 -0.0565  0.0554 -1.9814
   40MOL0     O 5206   9.845   5.233   5.479  0.3813 -0.1624  0.1779
   40MOL0     C 5207   9.850   5.290   5.348  0.4594 -1.1054 -0.7290
   40MOL0     C 5208   9.897   5.429   5.365  0.4215 -0.2031  0.4387
   40MOL0     C 5209  10.048   5.438   5.393 -0.2054 -0.3753  0.1364
   40MOL0     C 5210  10.087   5.584   5.379 -0.8627  0.3717  0.4475
   40MOL0     C 5211  10.224   5.604   5.429  0.5406  0.1339 -0.6579
   40MOL0     C 5212  10.334   5.630   5.460 -0.7027 -0.4494  0.6053
   40MOL0     C 5213   9.762   5.041   5.597 -0.1146 -0.1801 -0.4618
   40MOL0     C 5214   9.736   4.902   5.610 -0.1904 -0.0961 -0.0333
   40MOL0     H 5215   9.836   4.462   5.248  0.4797  0.2386  2.0924
   40MOL0     H 5216   9.809   4.186   5.210 -0.9603  0.0860  0.1220
   40MOL0     H 5217   9.615   3.888   5.233 -1.1080 -1.1263  0.7800
   40MOL0     H 5218   9.547   4.031   5.169  0.7545  0.4753  0.6384
   40MOL0     H 5219   9.394   3.876   5.266  0.2595  2.6861 -2.7758
   40MOL0     H 5220   9.380   4.013   5.371 -0.0343 -0.7789  3.2586
   40MOL0     H 5221   9.561   3.874   5.531  1.0144 -0.9325 -0.3018
   40MOL0     H 5222   9.544   3.747   5.409 -1.7944 -0.7442  0.0741
   40MOL0     H 5223   9.296   3.859   5.540 -0.3310  1.5077 -1.6037
   40MOL0     H 5224   9.312   3.711   5.440 -1.1348 -0.1158  0.1992
   40MOL0     H 5225   9.461   3.745   5.713 -1.8704  2.4932  0.9654
   40MOL0     H 5226   9.417   3.596   5.618  1.9554  1.2287 -0.5430
   40MOL0     H 5227   9.204   3.770   5.759  0.6502  0.1043  3.1814
   40MOL0     H 5228   9.281   3.638   5.836  0.8240  0.7222  0.5028
   40MOL0     H 5229   9.099   3.612   5.569  2.0319  3.2312 -0.8214
   40MOL0     H 5230   9.195   3.486   5.644 -0.8503 -0.0708 -2.5797
   40MOL0     H 5231   9.017   3.643   5.827  2.1405  2.1657 -2.2593
   40MOL0     H 5232   9.069   3.483   5.849 -0.8143 -1.1057  0.1363
   40MOL0     H 5233   8.955   3.288   5.791  0.2386  1.7185  1.1074
   40MOL0     H 5234   8.647   3.204   5.537 -3.5003 -3.3994  0.6917
   40MOL0     H 5235   8.669   3.153   5.711  1.8323 -1.0348 -0.2822
   40MOL0     H 5236   8.771   2.978   5.568  0.0214 -0.7413 -2.7042
   40MOL0     H 5237   8.900   3.069   5.641 -2.5174  1.9106  2.0637
   40MOL0     H 5238   8.893   2.996   5.386  1.0465 -0.3514 -1.0057
   40MOL0     H 5239   8.830   3.157   5.363  0.6804  0.8687  1.3559
   40MOL0     H 5240   9.082   3.091   5.504  0.1805  0.9748  0.7085
   40MOL0     H 5241   9.014   3.256   5.489 -1.9135  0.1088 -1.3958
   40MOL0     H 5242   9.204   3.152   5.101 -1.2862 -0.9900  2.7326
   40MOL0     H 5243   9.367   3.295   4.997 -1.1843 -0.8003 -0.1172
   40MOL0     H 5244   9.460   3.642   4.833  0.5030  0.8709  3.8087
   40MOL0     H 5245   9.593   3.818   4.746 -1.5405 -0.0170  1.5633
   40MOL0     H 5246   9.978   3.655   4.597  0.6716 -0.8568  0.9501
   40MOL0     H 5247  10.049   3.762   4.724  0.6114  1.7226 -1.4774
   40MOL0     H 5248   9.999   3.960   4.604  0.3870 -1.1945  2.7665
   40MOL0     H 5249   9.966   3.857   4.457 -0.9159 -2.3291  0.3607
   40MOL0     H 5250  10.194   3.749   4.474  0.3248  0.0513  1.3368
   40MOL0     H 5251  10.232   3.868   4.598  1.2237  0.1844 -1.2922
   40MOL0     H 5252  10.294   3.912   4.362  0.8786 -2.6153  2.9280
   40MOL0     H 5253  10.132   3.985   4.330 -0.5218  1.5659  1.9423
   40MOL0     H 5254  10.291   4.073   4.561 -1.0964  3.6263  1.6380
   40MOL0     H 5255  10.135   4.125   4.531  0.1039  1.9659 -0.8883
   40MOL0     H 5256  10.215   4.249   4.329 -3.0573  0.7408  3.3555
   40MOL0     H 5257  10.383   4.197   4.374  1.9929  2.8267  0.8675
   40MOL0     H 5258  10.290   4.289   4.628  1.7699  4.7353  2.3476
   40MOL0     H 5259  10.394   4.371   4.520 -0.9031 -0.4697  0.0090
   40MOL0     H 5260  10.179   4.477   4.600 -1.4797 -2.9876  1.3350
   40MOL0     H 5261  10.104   4.352   4.507  1.6802 -1.1615  1.2340
   40MOL0     H 5262   9.957   3.597   4.854  0.4724  0.0555 -1.2679
   40MOL0     H 5263   9.805   3.450   4.983  0.4287  1.3915 -0.2016
   40MOL0     H 5264   9.412   3.530   5.354  2.4761  0.6422 -2.7367
   40MOL0     H 5265   9.216   3.383   5.461 -1.8611 -0.6356  0.3285
   40MOL0     H 5266   9.524   4.185   5.516  0.0352 -2.1496 -2.0506
   40MOL0     H 5267   9.544   4.448   5.536  1.2630 -0.0811  0.5369
   40MOL0     H 5268   9.771   4.818   5.283  1.6149 -0.1208  0.7779
   40MOL0     H 5269   9.826   5.042   5.264 -0.2156 -0.8773 -1.0703
   40MOL0     H 5270   9.751   5.286   5.300 -0.7202 -0.6513  1.4970
   40MOL0     H 5271   9.922   5.231   5.292  2.7295 -0.1621  1.0450
   40MOL0     H 5272   9.880   5.482   5.272  0.7814  0.0376  0.5052
   40MOL0     H 5273   9.837   5.487   5.436 -1.1724  2.3683 -2.7739
   40MOL0     H 5274  10.109   5.379   5.324 -2.0369 -2.7488  0.4218
   40MOL0     H 5275  10.071   5.407   5.495  3.2220  1.7400  0.1658
   40MOL0     H 5276  10.095   5.619   5.276  3.6002  2.8562  1.3588
   40MOL0     H 5277  10.023   5.651   5.437  0.8538  1.1398  1.5328
   40MOL0     H 5278  10.436   5.657   5.480 -1.3965  2.3734  0.7928
   40MOL0     H 5279   9.759   5.105   5.685  1.6169 -1.5907  0.6972
   40MOL0     H 5280   9.706   4.857   5.704  0.3432 -3.5154 -1.3705
   41MOL0     O 5281  11.151   3.820   1.132 -0.3779 -0.3086 -0.2591
   41MOL0     C 5282  11.123   3.880   1.029  0.0109  0.3453  0.1467
   41MOL0     O 5283  11.011   3.861   0.946 -0.2087  0.6512 -0.5011
   41MOL0     C 5284  10.931   3.752   0.955  0.2596  1.4089 -0.3736
   41MOL0     C 5285  10.809   3.770   0.891 -0.5815  0.5165 -1.2462
   41MOL0     C 5286  10.725   3.661   0.865 -1.1756 -0.4202  0.6204
   41MOL0     C 5287  10.762   3.522   0.891 -0.1095  0.0138 -0.7940
   41MOL0     O 5288  10.673   3.422   0.861  0.5588  0.2710 -1.1320
   41MOL0     C 5289  10.726   3.285   0.853  0.3312 -0.9578  0.6357
   41MOL0     C 5290  10.627   3.202   0.764  0.4447 -0.0092 -0.3520
   41MOL0     C 5291  10.472   3.208   0.800 -0.0811 -0.0311 -0.7927
   41MOL0     C 5292  10.404   3.113   0.694  0.5762  0.0312 -0.0764
   41MOL0     C 5293  10.257   3.091   0.728 -0.8974  0.1485  0.3144
   41MOL0     C 5294  10.216   2.968   0.637  0.1670  0.8721  0.9100
   41MOL0     C 5295  10.076   2.930   0.674  0.2595 -0.7666 -0.0993
   41MOL0     C 5296   9.982   3.046   0.642 -1.1023  0.5075 -0.5809
   41MOL0     N 5297   9.849   2.989   0.628  0.2746 -0.7701 -0.3308
   41MOL0     C 5298   9.738   3.021   0.689 -0.1388 -0.6689  0.6850
   41MOL0     C 5299   9.640   2.954   0.619  0.0993 -0.3190  0.0526
   41MOL0     C 5300   9.506   2.957   0.686 -0.8802  0.0467 -0.0124
   41MOL0     C 5301   9.463   2.804   0.706 -0.4846 -0.3231 -0.4527
   41MOL0     C 5302   9.568   2.744   0.808 -0.5305  0.1933  0.1688
   41MOL0     C 5303   9.524   2.611   0.860 -0.7973  0.7001  0.1992
   41MOL0     O 5304   9.427   2.609   0.968  0.9856  1.0989  0.0519
   41MOL0     C 5305   9.303   2.576   0.921  0.3634 -0.4191  0.9828
   41MOL0     C 5306   9.268   2.443   0.883 -0.3506  0.0268  0.8293
   41MOL0     C 5307   9.134   2.412   0.871 -1.0179  0.0593 -0.1490
   41MOL0     C 5308   9.034   2.504   0.884 -0.0063  0.1219 -0.1737
   41MOL0     C 5309   8.891   2.460   0.883 -1.1426 -1.0644 -0.4278
   41MOL0     O 5310   8.811   2.542   0.962 -0.0326 -0.5458 -0.1033
   41MOL0     C 5311   8.669   2.513   0.971 -0.4579 -0.0557 -0.3342
   41MOL0     C 5312   8.603   2.511   1.092 -0.2120 -0.4371 -0.3124
   41MOL0     C 5313   8.464   2.510   1.101  0.2809  0.0923  0.1254
   41MOL0     C 5314   8.392   2.503   0.989  0.3003  0.4669 -0.1425
   41MOL0     O 5315   8.256   2.500   1.011 -0.6244 -0.2570  1.3118
   41MOL0     C 5316   8.162   2.471   0.904 -0.0646 -0.9161 -0.2916
   41MOL0     C 5317   8.124   2.327   0.907 -0.4413 -1.1007  0.6738
   41MOL0     C 5318   8.224   2.243   0.834  0.4673 -0.8403  0.3761
   41MOL0     C 5319   8.174   2.099   0.823 -0.0519  0.5184  0.3627
   41MOL0     C 5320   8.279   2.019   0.751 -0.4116  0.3093  0.1714
   41MOL0     C 5321   8.249   1.869   0.765 -0.3646 -0.1627  0.2624
   41MOL0     C 5322   8.110   1.824   0.696  0.9301  1.1093 -0.2639
   41MOL0     C 5323   8.118   1.841   0.547 -0.1430 -0.1683  0.6063
   41MOL0    Cl 5324   8.223   1.719   0.459 -0.2521 -0.2164  0.1847
   41MOL0     C 5325   8.455   2.486   0.868 -0.6799 -0.2468  0.8874
   41MOL0     C 5326   8.592   2.499   0.849  0.0989  0.1592  0.2150
   41MOL0     O 5327   8.856   2.363   0.815  0.5487 -0.1074  0.0087
   41MOL0     C 5328   9.068   2.635   0.908 -0.1678 -1.3848  0.3607
   41MOL0     C 5329   9.201   2.675   0.928  0.4247 -0.2443 -0.3075
   41MOL0     N 5330   9.689   2.892   0.512  0.8122 -0.1386  0.0224
   41MOL0     N 5331   9.812   2.920   0.517 -0.6974 -0.3412 -0.2711
   41MOL0     C 5332  10.887   3.509   0.954  0.3469 -0.3110  0.8627
   41MOL0     C 5333  10.970   3.618   0.986 -0.4054  0.7623  0.4828
   41MOL0     C 5334  11.229   3.957   0.970  1.0201 -0.6821 -0.2167
   41MOL0     C 5335  11.314   4.025   1.051  0.3213 -0.3891  0.0412
   41MOL0     C 5336  11.412   4.094   0.994  0.2282  0.3895  1.0191
   41MOL0     C 5337  11.428   4.103   0.852 -0.1673  1.8058 -0.2859
   41MOL0     O 5338  11.533   4.181   0.806  0.4216 -0.6477 -0.1417
   41MOL0     C 5339  11.550   4.210   0.671 -1.2475  0.9254  0.5886
   41MOL0     C 5340  11.485   4.344   0.634  0.4320 -1.0848 -0.1290
   41MOL0     C 5341  11.561   4.450   0.711 -0.1398 -0.1171  0.3010
   41MOL0     C 5342  11.512   4.600   0.689  0.1977  0.1420  0.3504
   41MOL0     C 5343  11.384   4.635   0.750 -0.3720 -1.0661 -0.2289
   41MOL0     C 5344  11.287   4.703   0.786 -0.7667  0.0607 -0.1502
   41MOL0     C 5345  11.345   4.028   0.776  0.2430  0.1880 -0.7013
   41MOL0     C 5346  11.236   3.971   0.826  0.4065  0.2617 -0.9461
   41MOL0     H 5347  10.762   3.866   0.873 -2.5652 -0.1596  0.0311
   41MOL0     H 5348  10.623   3.672   0.829 -0.3424 -0.3113 -1.9765
   41MOL0     H 5349  10.756   3.246   0.951  2.7241 -2.1140 -0.4876
   41MOL0     H 5350  10.819   3.278   0.797  1.8485  1.6411  2.5949
   41MOL0     H 5351  10.660   3.098   0.771 -1.5584 -0.6686 -0.0944
   41MOL0     H 5352  10.638   3.238   0.661 -1.2236  1.1956 -0.1569
   41MOL0     H 5353  10.429   3.308   0.806 -1.8811 -0.8505  2.7320
   41MOL0     H 5354  10.464   3.170   0.903  1.7989  3.0492  0.6428
   41MOL0     H 5355  10.406   3.163   0.597 -0.8803 -0.8792 -0.6206
   41MOL0     H 5356  10.458   3.021   0.669  3.2491  1.1769  1.1123
   41MOL0     H 5357  10.203   3.186   0.719  1.3986  1.8028  2.6403
   41MOL0     H 5358  10.244   3.063   0.833  1.6918  6.0616  2.6198
   41MOL0     H 5359  10.273   2.879   0.662 -2.6988 -1.9362 -1.7096
   41MOL0     H 5360  10.234   2.984   0.530  0.9187  3.2775  1.3324
   41MOL0     H 5361  10.052   2.836   0.625  2.0457 -1.2207 -0.1843
   41MOL0     H 5362  10.065   2.909   0.781  0.5232 -2.1197 -0.3314
   41MOL0     H 5363  10.005   3.081   0.541  1.1382  1.4325  0.1901
   41MOL0     H 5364   9.995   3.130   0.710  5.4531 -1.3290  1.1746
   41MOL0     H 5365   9.732   3.087   0.775 -2.5883  1.4579 -0.9653
   41MOL0     H 5366   9.436   3.011   0.622  0.4545  1.3144 -0.4638
   41MOL0     H 5367   9.509   3.005   0.784  2.1291 -2.1904  1.1537
   41MOL0     H 5368   9.468   2.748   0.612 -0.2100 -0.6225 -0.2632
   41MOL0     H 5369   9.363   2.806   0.750 -1.8196  2.2732 -3.2015
   41MOL0     H 5370   9.667   2.724   0.767 -0.5440 -1.0821  0.7136
   41MOL0     H 5371   9.579   2.804   0.899  1.4688 -0.7927  0.6191
   41MOL0     H 5372   9.614   2.556   0.890 -0.7649  1.2981  1.2363
   41MOL0     H 5373   9.490   2.550   0.776  0.6689 -1.0001  0.7556
   41MOL0     H 5374   9.353   2.376   0.887 -0.0347  0.4877  2.8439
   41MOL0     H 5375   9.104   2.310   0.854 -0.4305  0.2812 -2.8995
   41MOL0     H 5376   8.661   2.533   1.181 -0.6732  0.9407 -0.3226
   41MOL0     H 5377   8.425   2.513   1.202 -0.5074 -1.0936 -0.1156
   41MOL0     H 5378   8.201   2.496   0.805 -0.9173 -4.0076 -1.5057
   41MOL0     H 5379   8.074   2.530   0.931 -1.0323 -2.8801  1.0888
   41MOL0     H 5380   8.026   2.318   0.859 -0.3634 -1.1284  0.5196
   41MOL0     H 5381   8.122   2.292   1.010  2.1208 -2.4943  0.3382
   41MOL0     H 5382   8.314   2.244   0.898  1.4096 -0.3352 -0.9244
   41MOL0     H 5383   8.259   2.273   0.735  3.6487 -1.7185  1.0964
   41MOL0     H 5384   8.156   2.054   0.921 -0.1496 -0.3931 -0.0612
   41MOL0     H 5385   8.083   2.104   0.762 -0.8780 -1.5048  1.3454
   41MOL0     H 5386   8.383   2.038   0.779  0.2575  2.0433 -3.0146
   41MOL0     H 5387   8.285   2.058   0.649  1.5270 -0.7539 -0.1773
   41MOL0     H 5388   8.253   1.842   0.871 -0.8121 -2.2039 -0.2066
   41MOL0     H 5389   8.329   1.825   0.706  0.1578 -0.2182  0.9997
   41MOL0     H 5390   8.061   1.732   0.732  0.3297  0.6026 -2.2115
   41MOL0     H 5391   8.036   1.894   0.736  1.0772 -0.0013  2.1496
   41MOL0     H 5392   8.158   1.939   0.523 -1.7205  1.2169  3.2229
   41MOL0     H 5393   8.019   1.829   0.503  0.6258  1.6242 -1.7932
   41MOL0     H 5394   8.388   2.447   0.791 -3.3490 -0.0254  2.9336
   41MOL0     H 5395   8.632   2.495   0.749 -2.4237 -0.8742 -0.8299
   41MOL0     H 5396   9.009   2.726   0.916  3.1270  0.9774  0.1737
   41MOL0     H 5397   9.235   2.778   0.935  2.8422 -0.9127 -1.3901
   41MOL0     H 5398  10.931   3.410   0.961  2.3190  0.5810  1.7878
   41MOL0     H 5399  11.073   3.604   1.017  0.1699 -1.1510 -1.9137
   41MOL0     H 5400  11.298   4.014   1.157 -0.6418  0.3868 -0.0019
   41MOL0     H 5401  11.471   4.153   1.063  0.7552  2.0342 -0.7297
   41MOL0     H 5402  11.504   4.138   0.604 -0.7508  1.5913 -0.4917
   41MOL0     H 5403  11.656   4.208   0.647 -1.6064 -0.5275 -1.0823
   41MOL0     H 5404  11.487   4.370   0.528  1.3459 -0.8092 -0.0605
   41MOL0     H 5405  11.383   4.339   0.672 -0.8050  2.8395 -2.3891
   41MOL0     H 5406  11.667   4.441   0.686 -0.0425  2.9988 -0.8641
   41MOL0     H 5407  11.564   4.423   0.817  3.2110 -2.7769 -0.2868
   41MOL0     H 5408  11.579   4.669   0.741  1.8967 -1.8497  0.9655
   41MOL0     H 5409  11.518   4.628   0.584  1.6584 -2.5534 -0.3836
   41MOL0     H 5410  11.205   4.764   0.818 -0.9189 -0.5837  0.7342
   41MOL0     H 5411  11.354   4.016   0.669 -0.4832 -0.9476 -0.6543
   41MOL0     H 5412  11.169   3.910   0.766  0.4233  0.3209 -1.0248
   42MOL0     O 5413   6.678   5.507   7.033 -0.5650 -0.1103  0.4867
   42MOL0     C 5414   6.559   5.476   7.058 -0.3231  0.4572 -0.1685
   42MOL0     O 5415   6.499   5.479   7.180  0.3987  0.5961 -0.1617
   42MOL0     C 5416   6.587   5.486   7.278  0.2823  0.7197  0.2518
   42MOL0     C 5417   6.644   5.608   7.322  0.1169 -0.4427  0.2625
   42MOL0     C 5418   6.729   5.620   7.436 -0.1595  0.4656 -0.0173
   42MOL0     C 5419   6.759   5.496   7.505 -0.4296 -0.6579  0.6544
   42MOL0     O 5420   6.836   5.508   7.617 -0.8901  0.2816 -0.3106
   42MOL0     C 5421   6.965   5.445   7.607 -0.0828 -0.1243  0.4936
   42MOL0     C 5422   6.999   5.369   7.737 -0.1320  0.0704  0.4115
   42MOL0     C 5423   7.033   5.472   7.851 -0.1715 -0.3176 -0.4487
   42MOL0     C 5424   7.155   5.563   7.822  0.6091  0.3323 -0.4299
   42MOL0     C 5425   7.223   5.598   7.955  0.4515 -1.0284  0.5158
   42MOL0     C 5426   7.308   5.726   7.921  0.0110  0.6836 -0.3795
   42MOL0     C 5427   7.421   5.704   7.822 -0.2411  0.3384 -1.3278
   42MOL0     C 5428   7.490   5.827   7.767  0.1190  0.2777 -0.7052
   42MOL0     N 5429   7.437   5.872   7.641 -0.0562 -0.2923  0.0422
   42MOL0     C 5430   7.420   5.798   7.524  0.3798  0.3468  0.1681
   42MOL0     C 5431   7.332   5.876   7.452 -0.2883  0.2771 -0.7608
   42MOL0     C 5432   7.284   5.864   7.310  1.0343  0.5893  0.2728
   42MOL0     C 5433   7.191   5.734   7.311  0.1218 -0.1651 -1.3603
   42MOL0     C 5434   7.065   5.737   7.227 -0.5128  0.5970 -0.1479
   42MOL0     C 5435   7.094   5.794   7.085 -0.7170  0.5797 -0.3153
   42MOL0     O 5436   7.150   5.688   7.002 -0.0376 -0.4991 -0.1545
   42MOL0     C 5437   7.083   5.652   6.890  0.1207 -0.1689  0.0888
   42MOL0     C 5438   7.102   5.519   6.856 -0.2587  0.0646  0.2428
   42MOL0     C 5439   7.051   5.461   6.740 -0.8712  0.1925  0.0718
   42MOL0     C 5440   6.998   5.546   6.650  0.5701 -0.9856  0.3512
   42MOL0     C 5441   6.960   5.499   6.516  0.5795 -0.6168 -0.6425
   42MOL0     O 5442   6.999   5.377   6.475 -0.9991 -0.1725 -0.4640
   42MOL0     C 5443   6.984   5.319   6.344  0.3198  0.2518 -0.3903
   42MOL0     C 5444   7.009   5.182   6.342  0.2327 -0.8115  0.5365
   42MOL0     C 5445   6.968   5.106   6.225 -0.1904 -0.1979 -0.8222
   42MOL0     C 5446   6.908   5.158   6.113 -0.3631 -0.5557 -0.2457
   42MOL0     O 5447   6.882   5.083   6.005 -0.9463  0.4178  0.2756
   42MOL0     C 5448   6.775   5.120   5.915  0.2211 -0.9395 -0.3832
   42MOL0     C 5449   6.740   5.016   5.804  0.2116  0.8281  0.8164
   42MOL0     C 5450   6.731   4.876   5.860  0.1356 -0.1496  1.5295
   42MOL0     C 5451   6.615   4.849   5.964 -0.0770  0.4659  0.3402
   42MOL0     C 5452   6.636   4.706   6.028  1.0315 -0.1012  1.5062
   42MOL0     C 5453   6.528   4.686   6.146 -0.7942  0.1987  0.2735
   42MOL0     C 5454   6.380   4.663   6.094  0.1695 -0.3700 -0.3382
   42MOL0     C 5455   6.274   4.713   6.194  0.6665  0.6773 -0.7449
   42MOL0    Cl 5456   6.095   4.685   6.183  0.0722  0.1089 -0.1522
   42MOL0     C 5457   6.885   5.303   6.124  0.0657  0.3134  0.8501
   42MOL0     C 5458   6.918   5.378   6.233 -0.2856 -0.1960  0.6732
   42MOL0     O 5459   6.896   5.582   6.449  0.2289 -0.2891 -1.3216
   42MOL0     C 5460   6.978   5.686   6.688  0.0647  0.3033  0.1612
   42MOL0     C 5461   7.020   5.742   6.811 -0.2971 -0.5085  0.1971
   42MOL0     N 5462   7.331   6.002   7.508 -0.1015 -0.5072 -0.8418
   42MOL0     N 5463   7.375   5.996   7.627 -0.4019 -0.1605 -1.1327
   42MOL0     C 5464   6.703   5.376   7.467 -0.6282  0.4344 -0.1931
   42MOL0     C 5465   6.620   5.371   7.351  0.0095 -0.2032  0.2328
   42MOL0     C 5466   6.470   5.442   6.950  1.0751  0.0450  0.3635
   42MOL0     C 5467   6.509   5.477   6.817  0.8628 -0.9946  0.0067
   42MOL0     C 5468   6.419   5.448   6.711  0.3306 -0.3983  0.6489
   42MOL0     C 5469   6.286   5.433   6.734  1.0509  0.6256 -0.4140
   42MOL0     O 5470   6.215   5.443   6.619  0.3320 -0.1175  0.4932
   42MOL0     C 5471   6.079   5.481   6.642  0.7944 -0.1167 -0.0210
   42MOL0     C 5472   6.019   5.508   6.500 -0.5858  0.2691  0.2139
   42MOL0     C 5473   5.870   5.517   6.492 -0.8596 -0.0677 -0.9271
   42MOL0     C 5474   5.818   5.564   6.350 -0.3059 -0.1598  0.3115
   42MOL0     C 5475   5.682   5.512   6.330  0.0848  0.5203 -0.5596
   42MOL0     C 5476   5.572   5.485   6.301  0.2379 -0.2646  0.8126
   42MOL0     C 5477   6.241   5.422   6.869  0.9084  0.9876 -0.5885
   42MOL0     C 5478   6.334   5.413   6.973 -0.1240  0.4719 -0.0357
   42MOL0     H 5479   6.632   5.693   7.255  2.2565 -0.3726 -0.1058
   42MOL0     H 5480   6.761   5.722   7.458  0.2145  0.1210  1.0600
   42MOL0     H 5481   7.040   5.522   7.586 -0.3210  0.1368  0.5960
   42MOL0     H 5482   6.965   5.372   7.526 -4.4422 -2.2738  2.1266
   42MOL0     H 5483   7.083   5.302   7.718  0.6035  0.1999  2.9520
   42MOL0     H 5484   6.913   5.314   7.775 -0.2948 -1.1758 -1.6077
   42MOL0     H 5485   7.058   5.408   7.935  2.9117 -0.4408 -1.3307
   42MOL0     H 5486   6.949   5.538   7.875 -0.5892 -1.6895  2.0944
   42MOL0     H 5487   7.215   5.512   7.746 -2.3630  0.9683 -3.4677
   42MOL0     H 5488   7.114   5.656   7.781 -0.8370 -0.3974 -0.6915
   42MOL0     H 5489   7.282   5.517   7.999  0.5644  0.0257  2.4487
   42MOL0     H 5490   7.136   5.617   8.019  0.0853 -0.6238 -0.0928
   42MOL0     H 5491   7.359   5.771   8.007 -4.2659  1.6815  1.9049
   42MOL0     H 5492   7.248   5.813   7.893 -2.5278 -0.3464  1.4479
   42MOL0     H 5493   7.498   5.662   7.888 -1.6415 -1.0357 -0.5182
   42MOL0     H 5494   7.419   5.633   7.738  1.6122 -1.6746  0.2045
   42MOL0     H 5495   7.599   5.822   7.756  0.2215  0.8685 -0.0284
   42MOL0     H 5496   7.463   5.900   7.844 -0.7639 -0.1464 -0.6001
   42MOL0     H 5497   7.443   5.694   7.501 -2.2691 -0.0374 -1.1967
   42MOL0     H 5498   7.369   5.844   7.244  0.6966  1.6045 -0.4881
   42MOL0     H 5499   7.221   5.946   7.275  3.9930  3.3009  0.7621
   42MOL0     H 5500   7.144   5.717   7.408 -1.1884 -0.3080 -2.0071
   42MOL0     H 5501   7.255   5.647   7.292  1.5371 -0.4325  3.3968
   42MOL0     H 5502   7.020   5.637   7.225  5.7471 -2.8202  1.9669
   42MOL0     H 5503   6.990   5.804   7.270 -2.7696 -0.5772 -2.0071
   42MOL0     H 5504   7.167   5.875   7.092 -0.3444  0.5497 -2.8214
   42MOL0     H 5505   7.002   5.844   7.054 -0.5991  0.8917 -0.1622
   42MOL0     H 5506   7.159   5.471   6.934 -0.2984  1.7837  1.3944
   42MOL0     H 5507   7.076   5.356   6.726  1.1980  0.4727  1.2279
   42MOL0     H 5508   7.052   5.132   6.429  2.1517 -3.6843 -1.8306
   42MOL0     H 5509   6.990   5.000   6.229  4.4848  0.6292  2.0864
   42MOL0     H 5510   6.790   5.219   5.871 -1.2067  0.9491  2.9479
   42MOL0     H 5511   6.691   5.126   5.985  0.7853  1.3037  0.2021
   42MOL0     H 5512   6.821   5.024   5.731  0.6537 -0.4676  1.1440
   42MOL0     H 5513   6.641   5.033   5.761 -0.1041  2.4407  2.0886
   42MOL0     H 5514   6.831   4.844   5.890 -0.0576 -0.7480  1.5686
   42MOL0     H 5515   6.704   4.807   5.779 -2.7609 -0.6574  2.7766
   42MOL0     H 5516   6.620   4.925   6.042 -0.6228  0.4399  0.4040
   42MOL0     H 5517   6.517   4.853   5.916  1.1154  0.0109 -2.3898
   42MOL0     H 5518   6.735   4.690   6.070  0.7836  0.3705  2.3002
   42MOL0     H 5519   6.622   4.618   5.964  1.3310  0.1147  1.1345
   42MOL0     H 5520   6.531   4.777   6.206 -1.2499  0.1050  0.4356
   42MOL0     H 5521   6.546   4.594   6.202  0.9298 -1.1973 -2.3575
   42MOL0     H 5522   6.364   4.710   5.997  3.3415 -2.1777 -1.8829
   42MOL0     H 5523   6.369   4.554   6.092 -0.0715 -0.3677  0.4336
   42MOL0     H 5524   6.283   4.822   6.203  0.1140  0.5697  2.1082
   42MOL0     H 5525   6.293   4.675   6.295  0.9242 -1.4417 -1.5565
   42MOL0     H 5526   6.829   5.351   6.044  1.6499 -0.0633 -0.5368
   42MOL0     H 5527   6.892   5.482   6.224  0.9700 -0.0226 -1.4374
   42MOL0     H 5528   6.944   5.757   6.614 -3.0377 -1.4220 -0.2540
   42MOL0     H 5529   7.007   5.850   6.821 -0.8630 -0.3461 -1.8208
   42MOL0     H 5530   6.713   5.291   7.534 -0.4192 -0.4597 -1.3339
   42MOL0     H 5531   6.589   5.276   7.310  1.6421 -0.6352 -0.0771
   42MOL0     H 5532   6.609   5.513   6.794  0.5152  0.8477  1.2058
   42MOL0     H 5533   6.469   5.469   6.616  0.1531 -0.2612  0.5839
   42MOL0     H 5534   6.082   5.575   6.698  5.4099  0.1601 -0.3658
   42MOL0     H 5535   6.017   5.410   6.697 -1.2513  0.4427 -1.4784
   42MOL0     H 5536   6.068   5.602   6.475  1.8455 -0.5239  1.6318
   42MOL0     H 5537   6.046   5.425   6.434 -0.6867  0.6127 -0.2642
   42MOL0     H 5538   5.845   5.597   6.563 -3.9037 -1.2252 -0.5496
   42MOL0     H 5539   5.813   5.431   6.527 -0.4420  0.9009  2.4675
   42MOL0     H 5540   5.819   5.673   6.343  2.2688  0.0588  2.4766
   42MOL0     H 5541   5.885   5.523   6.274  0.8474  1.0787  0.6264
   42MOL0     H 5542   5.478   5.467   6.252  0.3497  0.3142  0.3782
   42MOL0     H 5543   6.138   5.396   6.889  1.5527 -0.0069  1.7487
   42MOL0     H 5544   6.293   5.386   7.070 -2.4369  2.7318 -0.2895
   43MOL0     O 5545  11.268   2.280   1.318  0.2806  0.6842  0.3874
   43MOL0     C 5546  11.159   2.308   1.379 -0.3150  0.3040  0.3575
   43MOL0     O 5547  11.132   2.276   1.515 -0.1085 -0.2827 -0.3918
   43MOL0     C 5548  11.235   2.234   1.590 -0.5464  0.1521  0.1423
   43MOL0     C 5549  11.254   2.100   1.626  0.6780 -0.2054 -0.5279
   43MOL0     C 5550  11.369   2.058   1.688  0.4979 -0.6894 -0.0085
   43MOL0     C 5551  11.461   2.149   1.746  0.4273 -0.4639 -0.1244
   43MOL0     O 5552  11.570   2.112   1.824 -0.3587  0.5052  0.0951
   43MOL0     C 5553  11.701   2.166   1.785  0.0138  0.4694  0.3130
   43MOL0     C 5554  11.811   2.087   1.853  0.0137 -0.4385  0.3597
   43MOL0     C 5555  11.954   2.123   1.807 -0.1693  0.2487 -0.1336
   43MOL0     C 5556  12.051   2.022   1.861  0.4352 -0.1615 -0.8144
   43MOL0     C 5557  12.193   2.031   1.803  0.2716 -0.3364  0.4178
   43MOL0     C 5558  12.302   1.929   1.854 -0.8270 -0.1720 -0.6418
   43MOL0     C 5559  12.439   1.993   1.849 -0.1448  0.2522  0.1612
   43MOL0     C 5560  12.485   1.968   1.707  0.6417 -0.1021  0.8180
   43MOL0     N 5561  12.625   2.000   1.675 -0.6895  0.2656  1.0254
   43MOL0     C 5562  12.729   1.925   1.697  0.1204 -0.0288 -0.0164
   43MOL0     C 5563  12.833   1.993   1.662 -0.1559 -1.5743  0.0621
   43MOL0     C 5564  12.967   1.941   1.670 -0.5414 -1.1047 -0.6475
   43MOL0     C 5565  13.074   2.036   1.592 -0.5270  0.9988 -0.2177
   43MOL0     C 5566  13.209   1.966   1.605 -0.2361 -0.5552  0.2941
   43MOL0     C 5567  13.303   2.031   1.502  0.1446  0.0450 -0.4540
   43MOL0     O 5568  13.278   1.997   1.370  0.6018  0.0320  0.2379
   43MOL0     C 5569  13.371   1.909   1.309 -0.0167  0.1719 -1.3832
   43MOL0     C 5570  13.417   1.795   1.386 -0.1619 -0.5442  0.1849
   43MOL0     C 5571  13.501   1.712   1.317  0.8007  0.1209 -1.1499
   43MOL0     C 5572  13.541   1.738   1.182 -0.2527  0.3017  0.8798
   43MOL0     C 5573  13.617   1.629   1.114  0.1830  0.9032 -0.2140
   43MOL0     O 5574  13.718   1.566   1.179  0.6814 -0.4310 -0.2779
   43MOL0     C 5575  13.792   1.468   1.117  0.2042  0.2220  0.0959
   43MOL0     C 5576  13.895   1.494   1.044 -1.1709 -0.6113 -0.1308
   43MOL0     C 5577  13.954   1.399   0.966  0.6647  0.3606  0.3000
   43MOL0     C 5578  13.914   1.263   0.970 -0.3204 -0.4163 -0.3575
   43MOL0     O 5579  13.960   1.173   0.881 -0.2295  0.0434  0.1476
   43MOL0     C 5580  14.071   1.090   0.918 -0.7162  0.6966 -0.1348
   43MOL0     C 5581  14.099   0.976   0.820  1.0335 -0.0920  0.3052
   43MOL0     C 5582  13.969   0.894   0.787  0.3411 -0.1675  1.1217
   43MOL0     C 5583  13.912   0.823   0.895  0.1204  0.3774  0.6722
   43MOL0     C 5584  13.807   0.723   0.854  0.4557  0.5878 -0.6373
   43MOL0     C 5585  13.684   0.789   0.789  0.8029  0.7809  0.2608
   43MOL0     C 5586  13.582   0.676   0.743 -0.0731  0.1686 -0.7858
   43MOL0     C 5587  13.486   0.716   0.628 -0.0307 -0.0897  0.3805
   43MOL0    Cl 5588  13.591   0.796   0.505 -0.9194  0.0267  0.0910
   43MOL0     C 5589  13.804   1.238   1.049  0.6085 -0.0215  0.3643
   43MOL0     C 5590  13.741   1.337   1.124 -0.9887 -0.3735  0.8373
   43MOL0     O 5591  13.586   1.612   0.998  0.0677 -0.9448 -0.1045
   43MOL0     C 5592  13.496   1.859   1.116 -0.8134  0.9144  0.2654
   43MOL0     C 5593  13.408   1.936   1.180  0.0432  1.4756  0.5352
   43MOL0     N 5594  12.786   2.122   1.627 -0.2498 -0.1021  0.4506
   43MOL0     N 5595  12.663   2.127   1.643  0.0147 -0.4309 -0.2803
   43MOL0     C 5596  11.439   2.289   1.717 -0.8298  0.1656 -0.0991
   43MOL0     C 5597  11.333   2.329   1.638 -0.2951  0.0688 -0.5119
   43MOL0     C 5598  11.047   2.362   1.303 -1.3290  0.9261 -0.1800
   43MOL0     C 5599  11.063   2.410   1.171 -0.2541 -0.2267  0.1748
   43MOL0     C 5600  10.945   2.442   1.102  0.1913 -0.1581  0.3315
   43MOL0     C 5601  10.817   2.429   1.164 -0.2086  1.1531 -0.4186
   43MOL0     O 5602  10.708   2.450   1.083  0.3749 -0.0741 -0.1745
   43MOL0     C 5603  10.575   2.404   1.107  0.0512 -0.4257 -0.1927
   43MOL0     C 5604  10.525   2.404   0.961  0.7775  0.4227  0.8595
   43MOL0     C 5605  10.373   2.363   0.946 -0.0239 -0.3197 -0.3327
   43MOL0     C 5606  10.347   2.224   1.009 -0.3130 -0.7154 -1.2546
   43MOL0     C 5607  10.225   2.156   0.952  1.3790  0.0621 -0.2438
   43MOL0     C 5608  10.124   2.086   0.926 -0.2406 -1.2966  0.4231
   43MOL0     C 5609  10.805   2.390   1.299  0.4681  0.6092  0.4892
   43MOL0     C 5610  10.924   2.355   1.367 -0.5574 -0.4682 -0.2696
   43MOL0     H 5611  11.176   2.029   1.602 -0.6093  0.5046  1.3056
   43MOL0     H 5612  11.389   1.952   1.690 -0.3020 -0.8771 -1.0971
   43MOL0     H 5613  11.707   2.270   1.818  0.1131  0.1826  1.2472
   43MOL0     H 5614  11.725   2.169   1.679 -0.9368  1.3882  0.1032
   43MOL0     H 5615  11.800   1.980   1.837  0.5138 -0.5453  0.7047
   43MOL0     H 5616  11.800   2.104   1.961 -3.1032 -1.3968  0.2937
   43MOL0     H 5617  11.982   2.224   1.838 -0.3820  1.0099 -2.2386
   43MOL0     H 5618  11.952   2.111   1.698 -2.2607 -0.6354 -0.0385
   43MOL0     H 5619  12.045   2.031   1.970  0.6374 -1.3735 -0.6859
   43MOL0     H 5620  12.011   1.921   1.847  3.4709 -1.7929  1.0489
   43MOL0     H 5621  12.231   2.132   1.813  4.4404 -1.3698 -2.5732
   43MOL0     H 5622  12.187   2.014   1.695 -0.8839  0.7648  0.2856
   43MOL0     H 5623  12.305   1.827   1.815 -2.1457 -0.6644  0.4565
   43MOL0     H 5624  12.283   1.911   1.961  0.2245  0.4581 -0.3332
   43MOL0     H 5625  12.440   2.098   1.878 -4.7580  0.5203  0.1373
   43MOL0     H 5626  12.498   1.933   1.920  1.2412  1.5094  0.1112
   43MOL0     H 5627  12.416   2.020   1.639 -0.9157 -1.4362  1.3065
   43MOL0     H 5628  12.482   1.859   1.701 -0.0779 -0.2129  2.7112
   43MOL0     H 5629  12.732   1.823   1.733 -0.2304 -0.7146 -1.8507
   43MOL0     H 5630  12.973   1.842   1.624 -0.8902 -0.5593 -1.9082
   43MOL0     H 5631  13.004   1.950   1.773  0.0385 -3.1564 -0.6237
   43MOL0     H 5632  13.080   2.132   1.644 -1.4418  1.7412 -1.4181
   43MOL0     H 5633  13.040   2.056   1.490 -0.7863  0.1329 -0.3035
   43MOL0     H 5634  13.239   1.984   1.708 -3.3894  1.3497  1.0299
   43MOL0     H 5635  13.202   1.858   1.592 -0.0282 -0.5287 -0.0406
   43MOL0     H 5636  13.404   1.991   1.513 -0.4060 -2.2023 -2.6843
   43MOL0     H 5637  13.316   2.138   1.521  1.7313 -0.3084  0.6845
   43MOL0     H 5638  13.390   1.771   1.488 -0.8145 -0.5211  0.0176
   43MOL0     H 5639  13.551   1.632   1.370  1.5063  1.7693  0.8130
   43MOL0     H 5640  13.931   1.596   1.039 -1.2785 -0.6296 -3.1520
   43MOL0     H 5641  14.041   1.424   0.905  1.4718 -0.2452  1.1855
   43MOL0     H 5642  14.040   1.043   1.012 -2.6865 -1.3958 -1.7044
   43MOL0     H 5643  14.165   1.145   0.925  0.6062 -1.5814  1.4053
   43MOL0     H 5644  14.171   0.905   0.861 -1.9486 -2.6301  1.5903
   43MOL0     H 5645  14.153   1.026   0.739  3.8265  0.0754  2.1533
   43MOL0     H 5646  13.997   0.828   0.704 -2.8152 -0.7471  0.3861
   43MOL0     H 5647  13.896   0.958   0.737 -3.3264 -0.1647  5.8032
   43MOL0     H 5648  13.991   0.774   0.953 -2.5686 -0.2511  4.0950
   43MOL0     H 5649  13.852   0.888   0.959 -0.0350  0.0400  0.8695
   43MOL0     H 5650  13.782   0.661   0.940 -1.8289  2.2622 -0.0155
   43MOL0     H 5651  13.840   0.655   0.775 -0.7125  1.9443 -2.3605
   43MOL0     H 5652  13.698   0.850   0.700 -1.1510 -2.1134 -2.2115
   43MOL0     H 5653  13.636   0.852   0.865  4.3944  3.9835  0.1897
   43MOL0     H 5654  13.643   0.588   0.720 -1.2220 -1.7099  2.5823
   43MOL0     H 5655  13.521   0.653   0.831  0.7667 -1.4645 -0.5807
   43MOL0     H 5656  13.406   0.781   0.664  2.5188  3.8598 -0.4129
   43MOL0     H 5657  13.438   0.629   0.582 -3.1583  0.0816  3.0110
   43MOL0     H 5658  13.766   1.136   1.043  2.7441 -0.8980  0.9719
   43MOL0     H 5659  13.649   1.317   1.177 -0.9164 -0.8087  0.8061
   43MOL0     H 5660  13.513   1.875   1.010  0.6009 -1.6419  0.0348
   43MOL0     H 5661  13.354   2.017   1.132 -0.7099 -0.5210 -2.2523
   43MOL0     H 5662  11.513   2.359   1.754 -2.9668  1.9393  1.0359
   43MOL0     H 5663  11.306   2.434   1.635 -0.9623 -0.1173 -1.3836
   43MOL0     H 5664  11.157   2.415   1.117 -1.0172  4.2703 -1.1949
   43MOL0     H 5665  10.952   2.477   1.000 -2.0486 -1.8991 -0.5094
   43MOL0     H 5666  10.521   2.479   1.166  0.6736 -1.3592  1.6732
   43MOL0     H 5667  10.562   2.303   1.148  2.0512 -0.2604  0.9822
   43MOL0     H 5668  10.539   2.503   0.917  0.0137  1.4576  2.8157
   43MOL0     H 5669  10.589   2.328   0.915 -1.3576 -1.8185  1.3482
   43MOL0     H 5670  10.351   2.349   0.840  1.8433  0.7577 -0.9162
   43MOL0     H 5671  10.310   2.442   0.988 -1.7454 -0.4399 -2.4894
   43MOL0     H 5672  10.427   2.153   0.984 -0.9229 -2.6572  1.6611
   43MOL0     H 5673  10.344   2.235   1.118 -0.7021  1.2604 -1.4381
   43MOL0     H 5674  10.037   2.032   0.895  0.3164 -1.3828 -1.0663
   43MOL0     H 5675  10.711   2.377   1.352 -0.4343  0.2549 -1.1521
   43MOL0     H 5676  10.917   2.320   1.470  2.3611 -2.5170 -0.6573
   44MOL0     O 5677   4.334   6.006   0.274  0.0838  0.0649 -0.4969
   44MOL0     C 5678   4.326   5.888   0.245 -0.1204 -0.1407  0.1476
   44MOL0     O 5679   4.233   5.803   0.290  0.9821  0.3932 -0.0516
   44MOL0     C 5680   4.155   5.854   0.393  1.3178  0.4823 -0.4674
   44MOL0     C 5681   4.210   5.878   0.519 -0.1291  0.3909 -0.0799
   44MOL0     C 5682   4.140   5.922   0.628 -0.2156 -0.9329 -0.1708
   44MOL0     C 5683   4.000   5.948   0.615  0.4475  0.0751 -0.6402
   44MOL0     O 5684   3.944   6.000   0.725  0.0048 -0.2268 -0.3748
   44MOL0     C 5685   3.805   5.979   0.749  0.2465  0.4392 -0.7200
   44MOL0     C 5686   3.783   5.828   0.775 -0.1691 -0.0808  0.2984
   44MOL0     C 5687   3.646   5.785   0.810  0.1189  0.3222 -0.1516
   44MOL0     C 5688   3.627   5.789   0.969 -1.1212 -0.1927  1.7553
   44MOL0     C 5689   3.480   5.790   1.003  0.1236 -0.6441 -0.1527
   44MOL0     C 5690   3.444   5.861   1.128 -0.5198 -0.1690 -0.5781
   44MOL0     C 5691   3.500   5.797   1.258  0.1929  0.0133  0.6110
   44MOL0     C 5692   3.418   5.671   1.322  0.2966  0.2844  0.1127
   44MOL0     N 5693   3.480   5.544   1.275 -0.7404 -0.1500 -0.0125
   44MOL0     C 5694   3.611   5.496   1.288  0.2970  0.6013  0.1776
   44MOL0     C 5695   3.622   5.386   1.215  0.5688 -0.3715  0.0016
   44MOL0     C 5696   3.732   5.285   1.206  0.9612  0.0037 -0.3725
   44MOL0     C 5697   3.811   5.297   1.087  0.2427 -0.1432  0.0278
   44MOL0     C 5698   3.908   5.176   1.083  0.1929  0.8099  0.4750
   44MOL0     C 5699   4.010   5.178   1.197 -0.9559  0.0925  0.0291
   44MOL0     O 5700   4.121   5.258   1.159 -0.7728  0.1958 -0.0786
   44MOL0     C 5701   4.234   5.252   1.241 -0.4016 -0.5157  0.1954
   44MOL0     C 5702   4.356   5.279   1.177 -1.0474  0.9357 -0.4704
   44MOL0     C 5703   4.473   5.289   1.248 -0.9342  0.4007  0.0974
   44MOL0     C 5704   4.467   5.281   1.390 -1.0474  0.0493  0.8374
   44MOL0     C 5705   4.583   5.316   1.475 -0.6428  0.1802 -0.9603
   44MOL0     O 5706   4.578   5.284   1.609  0.4679 -0.6443 -0.4008
   44MOL0     C 5707   4.673   5.310   1.691 -0.8607 -0.1225  0.7577
   44MOL0     C 5708   4.692   5.213   1.783  1.1335 -0.4293 -0.0601
   44MOL0     C 5709   4.784   5.230   1.892  0.0896 -0.0789  0.2954
   44MOL0     C 5710   4.860   5.348   1.891  0.9677  0.4794  0.2272
   44MOL0     O 5711   4.949   5.376   1.994  0.5523  0.6531 -0.5437
   44MOL0     C 5712   5.013   5.273   2.079 -0.1748  0.1537  0.5116
   44MOL0     C 5713   5.047   5.315   2.219  0.6535 -0.4327 -0.5972
   44MOL0     C 5714   5.189   5.274   2.261  0.7799 -0.8219  0.1383
   44MOL0     C 5715   5.305   5.360   2.196  0.4841 -0.7721  0.0660
   44MOL0     C 5716   5.440   5.343   2.285 -0.3767  0.4994  0.9475
   44MOL0     C 5717   5.543   5.453   2.252  1.0089  0.5707  0.6926
   44MOL0     C 5718   5.529   5.579   2.341  0.0763  0.0879 -0.6078
   44MOL0     C 5719   5.640   5.680   2.323 -0.2177  0.4117 -0.6776
   44MOL0    Cl 5720   5.768   5.622   2.440 -0.0818 -0.3873  0.3158
   44MOL0     C 5721   4.847   5.445   1.787 -0.2407  0.2003  0.0677
   44MOL0     C 5722   4.748   5.422   1.692 -0.4150 -0.1767  0.5460
   44MOL0     O 5723   4.678   5.360   1.420  0.2377 -0.2861  1.0843
   44MOL0     C 5724   4.345   5.239   1.456  0.5032 -0.8853 -0.2023
   44MOL0     C 5725   4.228   5.224   1.382  0.2527  0.8219 -0.3740
   44MOL0     N 5726   3.496   5.358   1.161  0.3597 -0.5412  0.4228
   44MOL0     N 5727   3.415   5.456   1.193 -0.1149  0.2509  0.5446
   44MOL0     C 5728   3.942   5.916   0.490 -0.1054 -0.2809 -0.2340
   44MOL0     C 5729   4.020   5.857   0.386 -0.6606  0.0993  0.2053
   44MOL0     C 5730   4.426   5.826   0.156  0.3398 -0.3116  0.0839
   44MOL0     C 5731   4.531   5.907   0.092  0.4089 -0.4448  0.2710
   44MOL0     C 5732   4.622   5.854   0.008  0.2710 -0.2277  0.7045
   44MOL0     C 5733   4.629   5.719  -0.009 -0.3794  0.1752  0.8325
   44MOL0     O 5734   4.707   5.661  -0.109 -0.6764  0.2192  0.4026
   44MOL0     C 5735   4.830   5.607  -0.071  0.2006 -0.3549 -1.0060
   44MOL0     C 5736   4.824   5.453  -0.074 -0.5855 -0.7067 -0.4399
   44MOL0     C 5737   4.809   5.424  -0.227 -0.0260  0.1788 -0.4695
   44MOL0     C 5738   4.773   5.277  -0.247 -0.0061 -0.0607  0.7170
   44MOL0     C 5739   4.891   5.188  -0.250  0.2770 -0.3092 -0.6264
   44MOL0     C 5740   4.992   5.128  -0.250  0.4070 -0.3325 -0.4231
   44MOL0     C 5741   4.543   5.632   0.059 -0.0375 -0.0533  0.3387
   44MOL0     C 5742   4.440   5.688   0.134 -0.4166  0.1290  0.5357
   44MOL0     H 5743   4.315   5.866   0.543 -0.8225 -1.3173  2.3536
   44MOL0     H 5744   4.185   5.935   0.726  3.9074  1.8291 -2.1069
   44MOL0     H 5745   3.745   6.032   0.674 -0.2708  0.6541 -0.1618
   44MOL0     H 5746   3.774   6.021   0.845  2.4444 -1.0089  0.7272
   44MOL0     H 5747   3.855   5.779   0.841 -2.1131 -4.7089 -0.5736
   44MOL0     H 5748   3.811   5.782   0.680  1.5816 -1.9419  1.6415
   44MOL0     H 5749   3.621   5.686   0.770  0.1978 -0.5716  1.9233
   44MOL0     H 5750   3.573   5.850   0.760  1.0665  0.8537 -0.8760
   44MOL0     H 5751   3.659   5.687   0.995 -0.4353 -1.1985 -2.3103
   44MOL0     H 5752   3.703   5.859   1.004  0.6668 -1.2514  0.2004
   44MOL0     H 5753   3.450   5.686   1.020 -1.1105 -0.2840 -0.0384
   44MOL0     H 5754   3.423   5.814   0.913 -1.2672 -0.2280  0.8128
   44MOL0     H 5755   3.335   5.864   1.138 -0.2799  2.0660  4.9843
   44MOL0     H 5756   3.483   5.963   1.122  0.8129 -0.4847  1.5123
   44MOL0     H 5757   3.607   5.775   1.260 -0.1972 -2.2476  0.1400
   44MOL0     H 5758   3.485   5.884   1.323 -1.2922  0.0879  0.2011
   44MOL0     H 5759   3.313   5.667   1.292 -0.1602  0.9676  1.5279
   44MOL0     H 5760   3.416   5.682   1.431 -4.4706  1.3108  0.1428
   44MOL0     H 5761   3.689   5.535   1.353 -0.9100  1.8509  0.9528
   44MOL0     H 5762   3.671   5.194   1.210  0.7317  0.1625 -0.2163
   44MOL0     H 5763   3.789   5.296   1.299  3.1782  1.1079 -1.7927
   44MOL0     H 5764   3.875   5.383   1.110  1.0627 -1.0290  1.1849
   44MOL0     H 5765   3.751   5.300   0.996 -1.3038 -2.0111  0.9395
   44MOL0     H 5766   3.858   5.079   1.073  1.1236  0.5679 -4.4874
   44MOL0     H 5767   3.961   5.163   0.988  0.3952 -4.4193  1.0093
   44MOL0     H 5768   4.065   5.085   1.214  0.0871  0.8422  0.8724
   44MOL0     H 5769   3.967   5.205   1.294 -0.7039 -0.5173  0.3128
   44MOL0     H 5770   4.362   5.280   1.069  0.6661  1.1544 -0.3953
   44MOL0     H 5771   4.562   5.318   1.192 -0.8817  0.0703  0.0060
   44MOL0     H 5772   4.622   5.130   1.778  0.2995  0.2739 -0.3726
   44MOL0     H 5773   4.780   5.157   1.972 -2.8944  1.8624  2.0989
   44MOL0     H 5774   5.114   5.247   2.046 -0.0251 -1.6683  2.2015
   44MOL0     H 5775   4.959   5.178   2.079 -1.3986  0.8213  0.5769
   44MOL0     H 5776   4.968   5.279   2.285  1.0472  0.8947  0.6375
   44MOL0     H 5777   5.046   5.424   2.212 -0.7187 -0.4670 -1.2697
   44MOL0     H 5778   5.195   5.169   2.231 -2.4307 -0.8261 -0.9235
   44MOL0     H 5779   5.197   5.273   2.370 -0.5287 -1.2981  0.2446
   44MOL0     H 5780   5.322   5.339   2.090 -0.2253  0.7826 -0.3964
   44MOL0     H 5781   5.292   5.469   2.202 -0.2168 -0.7862 -0.9340
   44MOL0     H 5782   5.480   5.245   2.257 -0.5638  1.2191 -2.2188
   44MOL0     H 5783   5.424   5.330   2.392  1.3717 -0.5597  1.1200
   44MOL0     H 5784   5.515   5.489   2.153 -2.6373  2.2749  2.1957
   44MOL0     H 5785   5.642   5.406   2.255  0.3363 -1.2257 -1.6641
   44MOL0     H 5786   5.441   5.630   2.300 -2.6705 -4.3117 -0.7900
   44MOL0     H 5787   5.522   5.562   2.448  1.8411  0.0966 -0.4622
   44MOL0     H 5788   5.616   5.780   2.361  0.5645  1.1498 -2.0875
   44MOL0     H 5789   5.680   5.698   2.223  2.0494  2.9430  0.5740
   44MOL0     H 5790   4.896   5.542   1.797 -0.0170  0.0901  0.0430
   44MOL0     H 5791   4.727   5.506   1.627  0.3310 -0.5298 -0.1684
   44MOL0     H 5792   4.344   5.223   1.563 -0.3761 -5.0334 -0.6646
   44MOL0     H 5793   4.135   5.192   1.429  0.4726 -1.5151 -1.3756
   44MOL0     H 5794   3.835   5.919   0.474 -0.1373 -2.0842 -0.5706
   44MOL0     H 5795   3.961   5.843   0.296  0.5342 -0.9328 -0.4328
   44MOL0     H 5796   4.515   6.013   0.112 -1.1158 -0.3857 -1.0713
   44MOL0     H 5797   4.661   5.936  -0.051 -1.0175 -0.5380 -0.6384
   44MOL0     H 5798   4.855   5.646   0.028 -1.4117  1.5615 -1.2945
   44MOL0     H 5799   4.913   5.658  -0.121  1.9338  1.6494  3.3897
   44MOL0     H 5800   4.921   5.409  -0.048 -0.8662 -2.4626 -2.2172
   44MOL0     H 5801   4.749   5.415  -0.004 -0.9763  0.0299 -0.4417
   44MOL0     H 5802   4.898   5.446  -0.287  0.6350 -4.7209 -1.6819
   44MOL0     H 5803   4.726   5.482  -0.266  0.7466  3.6255  2.4757
   44MOL0     H 5804   4.710   5.240  -0.166 -0.0624  1.1242  1.2325
   44MOL0     H 5805   4.716   5.267  -0.340 -0.8966  4.7093  0.4745
   44MOL0     H 5806   5.090   5.084  -0.259  3.0207  5.1326 -4.0576
   44MOL0     H 5807   4.530   5.529   0.029  1.1376 -1.2071  3.3677
   44MOL0     H 5808   4.366   5.619   0.174 -1.0433  0.0002 -0.8159
   45MOL0     O 5809   5.124   8.651   6.211 -0.3077  0.0616  0.4770
   45MOL0     C 5810   5.244   8.670   6.181 -0.0114  0.6997 -0.4980
   45MOL0     O 5811   5.336   8.568   6.189  0.0185 -0.4219  0.8173
   45MOL0     C 5812   5.299   8.440   6.228 -0.8059 -0.3489 -0.3438
   45MOL0     C 5813   5.177   8.379   6.193  0.7876  0.1409  0.4931
   45MOL0     C 5814   5.168   8.243   6.190 -1.2689  0.4277  0.0102
   45MOL0     C 5815   5.271   8.168   6.240  0.2553  0.2690  0.1396
   45MOL0     O 5816   5.247   8.027   6.228  0.2270 -0.5662  0.1691
   45MOL0     C 5817   5.358   7.948   6.184  1.1094  0.0843  0.6039
   45MOL0     C 5818   5.321   7.853   6.064  0.3921  0.3572 -0.6009
   45MOL0     C 5819   5.439   7.759   6.044  0.7708 -0.5389  0.4516
   45MOL0     C 5820   5.445   7.633   6.130  0.1482  0.1293 -0.2224
   45MOL0     C 5821   5.581   7.563   6.142 -0.0853  0.3142 -0.3870
   45MOL0     C 5822   5.604   7.480   6.010 -0.0188  0.1452 -0.3354
   45MOL0     C 5823   5.746   7.425   6.023 -0.0646 -0.4344 -0.7919
   45MOL0     C 5824   5.800   7.371   5.889  0.0557 -0.2629  0.6307
   45MOL0     N 5825   5.812   7.485   5.794 -0.0030 -0.5003 -0.3382
   45MOL0     C 5826   5.894   7.601   5.809  0.3864 -0.4829  0.6919
   45MOL0     C 5827   5.861   7.679   5.702 -0.6392 -0.2708 -0.3769
   45MOL0     C 5828   5.923   7.814   5.685 -0.7640  0.7423 -0.6780
   45MOL0     C 5829   5.845   7.927   5.625  0.0345  0.4314  0.6144
   45MOL0     C 5830   5.722   7.974   5.698 -0.4738 -1.0392  0.4004
   45MOL0     C 5831   5.757   8.044   5.830  0.6194  1.5421  1.3307
   45MOL0     O 5832   5.649   8.093   5.908 -0.0435  0.7306 -0.7914
   45MOL0     C 5833   5.594   8.214   5.875 -0.0898 -0.2923 -0.0897
   45MOL0     C 5834   5.480   8.248   5.944 -0.2086 -1.1422  0.2452
   45MOL0     C 5835   5.416   8.375   5.926 -0.1643  0.6218  0.3752
   45MOL0     C 5836   5.461   8.459   5.829 -0.2838  0.2881 -0.3098
   45MOL0     C 5837   5.409   8.597   5.824 -0.6412  0.0904  0.5864
   45MOL0     O 5838   5.482   8.688   5.741 -0.6368  0.7245 -0.5810
   45MOL0     C 5839   5.416   8.799   5.694  0.0794  0.1942  0.5073
   45MOL0     C 5840   5.285   8.802   5.640 -0.4214  0.0541  0.2490
   45MOL0     C 5841   5.215   8.913   5.594 -0.3144 -0.8091 -1.4788
   45MOL0     C 5842   5.288   9.032   5.598  0.9337  0.9371  0.1614
   45MOL0     O 5843   5.240   9.151   5.555  0.4267  0.6153  0.2252
   45MOL0     C 5844   5.106   9.173   5.511 -0.2446  0.2811 -0.0139
   45MOL0     C 5845   5.080   9.321   5.453 -0.2587  0.2463 -0.2472
   45MOL0     C 5846   4.935   9.336   5.406  0.3917  0.0713  0.2052
   45MOL0     C 5847   4.910   9.452   5.309 -0.2729  0.2990 -0.1952
   45MOL0     C 5848   4.757   9.455   5.270  0.3084  0.6142  1.5933
   45MOL0     C 5849   4.718   9.568   5.174  0.5186 -0.0770 -0.6277
   45MOL0     C 5850   4.572   9.572   5.127  0.0502 -0.2306 -0.8065
   45MOL0     C 5851   4.548   9.655   4.990 -0.4124 -0.2981 -0.6531
   45MOL0    Cl 5852   4.609   9.826   5.001  0.2592  0.4591  0.0466
   45MOL0     C 5853   5.410   9.039   5.661  0.7252 -0.9320  0.1936
   45MOL0     C 5854   5.480   8.922   5.697 -0.0949 -0.5075 -0.0087
   45MOL0     O 5855   5.300   8.629   5.873  0.2731  1.0132  1.2296
   45MOL0     C 5856   5.573   8.416   5.749  1.0632 -0.0159 -0.1517
   45MOL0     C 5857   5.635   8.293   5.768  0.8566 -0.3656  0.4632
   45MOL0     N 5858   5.772   7.611   5.620  0.4033  0.0038 -0.0649
   45MOL0     N 5859   5.741   7.499   5.677  0.1244 -0.1987 -0.0948
   45MOL0     C 5860   5.394   8.227   6.280 -0.0765 -0.3964 -0.4815
   45MOL0     C 5861   5.402   8.364   6.276 -0.3227  0.6967 -0.9798
   45MOL0     C 5862   5.279   8.808   6.143 -0.1173 -1.2201  0.8492
   45MOL0     C 5863   5.192   8.927   6.161  0.5566  0.6711  0.6075
   45MOL0     C 5864   5.236   9.058   6.132  0.0156  0.2110 -0.3155
   45MOL0     C 5865   5.370   9.083   6.092 -0.7827  0.5846  0.5794
   45MOL0     O 5866   5.415   9.215   6.066  0.2386 -0.1273 -0.2815
   45MOL0     C 5867   5.481   9.285   6.174  0.3180 -0.4885  0.1964
   45MOL0     C 5868   5.606   9.366   6.127  0.1259 -0.3273 -0.7229
   45MOL0     C 5869   5.717   9.317   6.220  0.3039  1.1568  0.0771
   45MOL0     C 5870   5.839   9.400   6.200 -0.8247  1.1121 -2.0357
   45MOL0     C 5871   5.931   9.337   6.097 -0.3118  1.1405  0.0369
   45MOL0     C 5872   5.989   9.280   6.004  1.3166 -0.7687 -0.5852
   45MOL0     C 5873   5.452   8.974   6.062 -0.1588 -0.1534 -0.0015
   45MOL0     C 5874   5.408   8.839   6.089 -0.2206  0.8327 -0.7733
   45MOL0     H 5875   5.090   8.432   6.156  2.7281  0.0982 -5.0907
   45MOL0     H 5876   5.079   8.187   6.163 -1.5966  0.1455  1.5732
   45MOL0     H 5877   5.383   7.889   6.272  3.0237 -1.1385 -0.6945
   45MOL0     H 5878   5.446   8.002   6.149 -0.3284  4.0399  2.4720
   45MOL0     H 5879   5.310   7.916   5.975 -1.8200  0.1977 -0.5168
   45MOL0     H 5880   5.231   7.790   6.061  1.2106 -0.8339 -0.9677
   45MOL0     H 5881   5.532   7.814   6.061 -0.0024  0.9211  0.1622
   45MOL0     H 5882   5.450   7.738   5.937  0.1226  0.5549  0.1437
   45MOL0     H 5883   5.430   7.669   6.232 -1.2902 -0.4390 -0.2031
   45MOL0     H 5884   5.367   7.560   6.104  0.2812 -0.8537  1.8920
   45MOL0     H 5885   5.561   7.499   6.228 -1.4861  0.8089 -0.3267
   45MOL0     H 5886   5.659   7.639   6.156 -1.4758  1.1260  5.8728
   45MOL0     H 5887   5.596   7.545   5.923 -1.7934  1.4656  0.7189
   45MOL0     H 5888   5.537   7.395   5.993  0.4067 -0.2834  0.0849
   45MOL0     H 5889   5.814   7.501   6.063  0.2315 -1.6975  1.2649
   45MOL0     H 5890   5.758   7.338   6.088  1.6675  0.8521  0.7237
   45MOL0     H 5891   5.746   7.283   5.852  1.1527 -0.2361 -1.1664
   45MOL0     H 5892   5.903   7.343   5.913  0.6468 -0.5177 -1.8668
   45MOL0     H 5893   5.949   7.631   5.898  0.1726 -0.5238  0.8386
   45MOL0     H 5894   6.012   7.795   5.625 -1.3689 -5.9888 -0.1928
   45MOL0     H 5895   5.964   7.860   5.775 -2.4386  0.5404  0.2484
   45MOL0     H 5896   5.817   7.913   5.521  0.5555  2.4512  0.1580
   45MOL0     H 5897   5.914   8.010   5.609 -0.6104  0.9248  0.3576
   45MOL0     H 5898   5.669   8.038   5.627 -0.2291 -1.9577 -0.6188
   45MOL0     H 5899   5.659   7.888   5.722 -1.4009 -0.3132  0.6157
   45MOL0     H 5900   5.832   8.123   5.823  3.3746 -0.8173  2.0651
   45MOL0     H 5901   5.795   7.963   5.894  1.0448  0.1054 -0.6347
   45MOL0     H 5902   5.441   8.188   6.025 -0.5983 -0.9585  0.1976
   45MOL0     H 5903   5.332   8.401   5.989 -0.7665 -1.4772  0.5225
   45MOL0     H 5904   5.249   8.700   5.626  0.1086  0.0946 -1.7241
   45MOL0     H 5905   5.112   8.903   5.563 -0.7655  4.6572 -2.7211
   45MOL0     H 5906   5.036   9.161   5.595 -0.3286  1.4516  0.1078
   45MOL0     H 5907   5.090   9.095   5.437  0.4882  2.1474 -2.2495
   45MOL0     H 5908   5.152   9.327   5.371  1.6244  3.5523  1.4564
   45MOL0     H 5909   5.114   9.395   5.527 -1.3944 -0.2388  0.7957
   45MOL0     H 5910   4.880   9.347   5.500 -0.5491 -2.0801 -0.0166
   45MOL0     H 5911   4.900   9.244   5.356  1.8867 -0.4487  0.0759
   45MOL0     H 5912   4.923   9.543   5.368  2.1118 -0.6907  0.9359
   45MOL0     H 5913   4.981   9.460   5.227  1.3283 -4.1459  0.4799
   45MOL0     H 5914   4.706   9.474   5.365  2.2980  0.6649  2.6917
   45MOL0     H 5915   4.724   9.358   5.232  2.4140 -1.2600  4.1957
   45MOL0     H 5916   4.781   9.556   5.085 -0.7035 -0.6430 -1.4503
   45MOL0     H 5917   4.750   9.664   5.216  1.3174  0.0044 -1.3978
   45MOL0     H 5918   4.541   9.467   5.114 -1.2661  0.0205  0.0547
   45MOL0     H 5919   4.511   9.619   5.205  3.3164  1.9245  0.6344
   45MOL0     H 5920   4.446   9.643   4.952 -0.9310  1.6091 -0.0118
   45MOL0     H 5921   4.601   9.602   4.911 -1.4169  0.6387 -2.0043
   45MOL0     H 5922   5.451   9.135   5.691  0.5101 -0.6359 -0.4465
   45MOL0     H 5923   5.584   8.929   5.727  0.5763 -0.6322 -2.1229
   45MOL0     H 5924   5.614   8.484   5.675  4.6612  2.0355  3.3479
   45MOL0     H 5925   5.728   8.291   5.713  0.2154 -0.3225 -0.6564
   45MOL0     H 5926   5.471   8.168   6.328 -1.2828  0.5834  2.9826
   45MOL0     H 5927   5.485   8.424   6.311  0.1893 -0.2968 -0.4300
   45MOL0     H 5928   5.097   8.891   6.199  1.9282 -2.8949  1.0332
   45MOL0     H 5929   5.162   9.136   6.149  0.4822  0.2001  2.3264
   45MOL0     H 5930   5.507   9.216   6.256  0.5739  0.3704  0.8546
   45MOL0     H 5931   5.404   9.354   6.210  0.1391 -1.3432  1.5465
   45MOL0     H 5932   5.624   9.353   6.020 -1.2486  1.5900 -1.2459
   45MOL0     H 5933   5.580   9.472   6.138  0.2110 -0.3109 -0.6831
   45MOL0     H 5934   5.740   9.211   6.209 -0.4815  1.1298 -1.6950
   45MOL0     H 5935   5.696   9.320   6.327 -0.4870 -1.2875  0.0457
   45MOL0     H 5936   5.813   9.500   6.163  0.6216  1.3375 -2.4749
   45MOL0     H 5937   5.901   9.406   6.290  0.1003  0.5372 -2.6195
   45MOL0     H 5938   6.023   9.219   5.923  4.1988  1.8101 -1.4970
   45MOL0     H 5939   5.547   8.991   6.012 -1.3107 -0.4154 -2.3878
   45MOL0     H 5940   5.472   8.757   6.061 -1.7895 -0.8213  0.2536
   46MOL0     O 5941  10.454  10.526   8.236 -0.2418  0.5940 -0.0263
   46MOL0     C 5942  10.475  10.408   8.219  0.8535 -0.8994  0.4825
   46MOL0     O 5943  10.444  10.311   8.307  0.4523 -0.2859 -0.1105
   46MOL0     C 5944  10.407  10.337   8.432 -0.1169  0.2787  0.8616
   46MOL0     C 5945  10.495  10.331   8.535 -0.4879 -0.7301  0.2602
   46MOL0     C 5946  10.459  10.345   8.671 -0.0423 -0.1492 -0.2774
   46MOL0     C 5947  10.322  10.372   8.697  1.1443  0.0834  0.2357
   46MOL0     O 5948  10.282  10.400   8.831  0.6957  0.6258  0.2448
   46MOL0     C 5949  10.162  10.340   8.883 -0.3029 -0.0689 -0.5793
   46MOL0     C 5950  10.227  10.267   9.007  0.9498  0.3108 -0.0522
   46MOL0     C 5951  10.242  10.370   9.121 -0.3681 -0.0315 -0.6861
   46MOL0     C 5952  10.311  10.311   9.238 -0.7920 -0.8573 -0.6435
   46MOL0     C 5953  10.292  10.369   9.376 -0.2868 -0.2016  0.0707
   46MOL0     C 5954  10.310  10.266   9.490 -0.9493 -0.0947  0.2017
   46MOL0     C 5955  10.198  10.161   9.486 -0.2211  0.2760  0.3005
   46MOL0     C 5956  10.183  10.090   9.616  0.4895  1.2641 -0.6261
   46MOL0     N 5957  10.036  10.039   9.621 -0.0898  0.4981 -0.4946
   46MOL0     C 5958   9.983   9.920   9.563  0.3729  0.2236 -0.1998
   46MOL0     C 5959   9.850   9.912   9.600 -0.0358  0.0767  0.0261
   46MOL0     C 5960   9.750   9.799   9.566 -0.7852  0.5741  0.0511
   46MOL0     C 5961   9.663   9.833   9.451 -0.2746 -1.2085 -0.1871
   46MOL0     C 5962   9.566   9.956   9.471  1.0331  0.2855 -0.5765
   46MOL0     C 5963   9.524  10.022   9.340  0.0613 -0.4188  0.1473
   46MOL0     O 5964   9.382  10.002   9.321  0.4611 -0.5713  0.3486
   46MOL0     C 5965   9.345  10.037   9.197 -0.7600  0.6904  0.2348
   46MOL0     C 5966   9.339   9.930   9.109 -0.0418 -0.4486  0.1642
   46MOL0     C 5967   9.310   9.947   8.972  1.4145 -0.4321 -0.3310
   46MOL0     C 5968   9.286  10.081   8.922 -0.4371 -0.1353  0.1566
   46MOL0     C 5969   9.264  10.101   8.779  0.0950 -0.3549 -0.4646
   46MOL0     O 5970   9.203  10.008   8.708 -0.0753  0.0055 -0.2755
   46MOL0     C 5971   9.158  10.024   8.579  0.2040 -0.1589 -0.5758
   46MOL0     C 5972   9.043   9.950   8.554  0.0072  0.1157 -0.5354
   46MOL0     C 5973   8.966   9.962   8.432 -0.6203  0.2616  1.3780
   46MOL0     C 5974   9.000  10.055   8.331 -0.2432 -0.0146 -0.5306
   46MOL0     O 5975   8.932  10.058   8.219  0.1353 -0.1365  0.1881
   46MOL0     C 5976   8.960  10.151   8.114 -0.3112  0.0366 -0.7911
   46MOL0     C 5977   9.065  10.101   8.029 -0.0749 -0.0644 -0.6745
   46MOL0     C 5978   9.010  10.001   7.922 -0.3709 -0.4798  0.5824
   46MOL0     C 5979   8.937   9.880   7.961 -0.4349 -0.0867 -0.2529
   46MOL0     C 5980   9.030   9.771   8.025  0.6728  0.1451  0.9527
   46MOL0     C 5981   8.950   9.637   8.052 -1.2260  0.0223  0.2517
   46MOL0     C 5982   8.810   9.670   8.103  0.5412 -0.1351 -0.0374
   46MOL0     C 5983   8.739   9.539   8.149  0.2730  0.2353  0.0079
   46MOL0    Cl 5984   8.566   9.546   8.112 -0.1014 -0.1141 -0.5392
   46MOL0     C 5985   9.110  10.127   8.364  1.2638 -1.1163 -0.2522
   46MOL0     C 5986   9.190  10.116   8.479 -0.3327  0.1644 -0.4352
   46MOL0     O 5987   9.298  10.213   8.741 -0.2365 -0.1914  0.0874
   46MOL0     C 5988   9.284  10.186   9.019  0.8642 -0.1733  0.3865
   46MOL0     C 5989   9.314  10.165   9.152 -0.8186 -0.1160 -0.9641
   46MOL0     N 5990   9.823  10.024   9.671 -0.2845 -0.6183  0.6984
   46MOL0     N 5991   9.922  10.108   9.654 -0.3182  0.4473 -0.9000
   46MOL0     C 5992  10.229  10.378   8.590  0.2529 -0.1572 -0.2253
   46MOL0     C 5993  10.271  10.362   8.462 -0.6154  0.4901  0.3430
   46MOL0     C 5994  10.530  10.365   8.090 -0.4389  0.3357 -0.1451
   46MOL0     C 5995  10.546  10.450   7.978  0.3282  0.7804  0.0883
   46MOL0     C 5996  10.589  10.406   7.848 -0.5600  0.4948  0.1000
   46MOL0     C 5997  10.650  10.277   7.840  0.0081 -0.0274 -0.7627
   46MOL0     O 5998  10.703  10.239   7.720 -0.7625 -0.0374  0.1924
   46MOL0     C 5999  10.727  10.107   7.690 -0.3312  1.2363 -0.5932
   46MOL0     C 6000  10.753  10.105   7.539  0.8997 -1.2980 -0.2813
   46MOL0     C 6001  10.776   9.964   7.492 -0.5389 -0.8029 -0.4774
   46MOL0     C 6002  10.799   9.960   7.339  0.1383  0.4342 -0.1333
   46MOL0     C 6003  10.839   9.829   7.291  0.6017 -0.7124 -0.5273
   46MOL0     C 6004  10.862   9.711   7.259 -0.1709  0.6153 -1.5351
   46MOL0     C 6005  10.641  10.196   7.958 -0.2377  0.3600  0.6693
   46MOL0     C 6006  10.589  10.240   8.079  0.6257  1.3442  0.0159
   46MOL0     H 6007  10.602  10.318   8.524 -0.7622 -2.0664 -1.1151
   46MOL0     H 6008  10.531  10.350   8.752  0.5336  1.8408 -0.8606
   46MOL0     H 6009  10.108  10.265   8.824 -2.0551  0.0276  0.8191
   46MOL0     H 6010  10.087  10.414   8.910  1.0141  0.6528  1.2279
   46MOL0     H 6011  10.318  10.209   8.990 -0.0217 -1.4143  0.3692
   46MOL0     H 6012  10.155  10.194   9.045 -0.0975  1.8737  1.0985
   46MOL0     H 6013  10.147  10.409   9.158  1.7044  3.0322  1.9210
   46MOL0     H 6014  10.305  10.454   9.089 -0.4438  0.4323  0.3408
   46MOL0     H 6015  10.281  10.206   9.245 -0.3106 -0.8968  4.2292
   46MOL0     H 6016  10.420  10.315   9.227 -0.2151  1.0533  3.7877
   46MOL0     H 6017  10.194  10.414   9.395 -0.3299 -1.3126  2.8754
   46MOL0     H 6018  10.357  10.457   9.381  2.0093 -1.7951 -0.2878
   46MOL0     H 6019  10.301  10.320   9.585  2.9097  2.9669 -0.9297
   46MOL0     H 6020  10.413  10.228   9.483 -1.3417 -0.9457 -5.3525
   46MOL0     H 6021  10.106  10.213   9.455 -2.6542 -3.5572  0.3477
   46MOL0     H 6022  10.216  10.081   9.414 -1.6379  2.0559 -2.2003
   46MOL0     H 6023  10.221  10.133   9.710 -1.0700 -0.7682  1.0395
   46MOL0     H 6024  10.239   9.997   9.611  0.1359  1.0187 -0.0751
   46MOL0     H 6025  10.024   9.844   9.497 -1.6361 -0.9615 -0.1748
   46MOL0     H 6026   9.689   9.786   9.656  0.8407  1.6207  1.3703
   46MOL0     H 6027   9.808   9.707   9.550  1.0132  1.8243 -0.9501
   46MOL0     H 6028   9.603   9.746   9.423 -4.0581  1.6805 -1.9622
   46MOL0     H 6029   9.727   9.866   9.369 -1.7384  2.5201 -0.0147
   46MOL0     H 6030   9.483   9.904   9.521  0.7238  2.1464  0.9589
   46MOL0     H 6031   9.602  10.026   9.546 -1.3041  2.0512 -0.9815
   46MOL0     H 6032   9.577   9.990   9.249 -2.7044 -0.3453 -1.5926
   46MOL0     H 6033   9.521  10.129   9.363 -1.5033 -0.4562  0.1922
   46MOL0     H 6034   9.357   9.831   9.150 -0.8259 -0.3869  0.6879
   46MOL0     H 6035   9.313   9.874   8.892  0.8489  0.3258 -1.0668
   46MOL0     H 6036   9.007   9.884   8.632  0.7216 -0.8070 -0.9764
   46MOL0     H 6037   8.874   9.904   8.425 -0.4593  0.0222  1.2328
   46MOL0     H 6038   8.984  10.250   8.156  4.3686 -0.7500 -1.0849
   46MOL0     H 6039   8.870  10.154   8.052 -1.1890  0.2249  0.4334
   46MOL0     H 6040   9.148  10.048   8.078  0.5642 -0.6696 -2.3223
   46MOL0     H 6041   9.109  10.187   7.978 -1.7681 -0.2189 -2.5506
   46MOL0     H 6042   9.100   9.970   7.867  0.2655  0.3388  1.1432
   46MOL0     H 6043   8.935  10.049   7.860  0.4074 -1.4241 -1.1702
   46MOL0     H 6044   8.850   9.902   8.024  0.4357 -1.1044  1.3538
   46MOL0     H 6045   8.909   9.844   7.862  1.1461  1.1635 -1.1993
   46MOL0     H 6046   9.070   9.818   8.115  1.9810 -1.7635  1.4345
   46MOL0     H 6047   9.113   9.756   7.955  0.3880 -0.0999  0.6623
   46MOL0     H 6048   9.001   9.578   8.128 -1.4266 -0.6151 -0.0962
   46MOL0     H 6049   8.930   9.579   7.961  1.8860 -0.1531 -0.4377
   46MOL0     H 6050   8.800   9.729   8.194 -1.9612 -1.1822  0.4525
   46MOL0     H 6051   8.748   9.721   8.028 -2.1172 -0.3085  1.8850
   46MOL0     H 6052   8.747   9.520   8.257 -2.3818 -1.8427 -0.0398
   46MOL0     H 6053   8.787   9.452   8.103  0.1538  0.1778 -0.0095
   46MOL0     H 6054   9.144  10.199   8.290  1.0510  0.8059  1.4265
   46MOL0     H 6055   9.273  10.184   8.489 -0.7474  0.3789  2.0848
   46MOL0     H 6056   9.258  10.290   8.999 -0.7080 -0.9879 -2.3407
   46MOL0     H 6057   9.310  10.254   9.214 -0.5625  0.6715 -2.0570
   46MOL0     H 6058  10.128  10.406   8.619  0.4722 -1.3440  1.9439
   46MOL0     H 6059  10.206  10.350   8.376  1.8422 -1.0409 -1.4552
   46MOL0     H 6060  10.521  10.555   7.990  2.1462  1.0219  2.8832
   46MOL0     H 6061  10.588  10.477   7.766 -0.9636 -1.8575 -2.0500
   46MOL0     H 6062  10.645  10.037   7.710 -4.9329  5.6868 -1.7826
   46MOL0     H 6063  10.811  10.070   7.749 -1.1032 -1.3457 -0.9848
   46MOL0     H 6064  10.671  10.150   7.483  0.9352 -0.2177  0.4959
   46MOL0     H 6065  10.838  10.173   7.526 -0.2512  0.2774  0.1752
   46MOL0     H 6066  10.694   9.900   7.527 -1.4770  0.1339 -0.9261
   46MOL0     H 6067  10.861   9.923   7.548 -0.5579 -1.2074 -0.7351
   46MOL0     H 6068  10.699   9.978   7.298  0.8187 -0.2246 -2.2206
   46MOL0     H 6069  10.870  10.041   7.316  1.2525 -0.1671  1.0704
   46MOL0     H 6070  10.867   9.612   7.220  3.3596 -0.3460  0.8846
   46MOL0     H 6071  10.684  10.097   7.962  0.8749  0.7967  0.1586
   46MOL0     H 6072  10.582  10.174   8.165 -0.9305  2.5789  0.8954
   47MOL0     O 6073   5.010   0.332   7.166 -0.4166 -0.3078  0.0371
   47MOL0     C 6074   4.969   0.415   7.245  0.6247 -0.3132  0.1570
   47MOL0     O 6075   4.868   0.399   7.328 -0.5821 -0.1020 -0.5571
   47MOL0     C 6076   4.809   0.277   7.327  1.0268 -1.2623  0.6514
   47MOL0     C 6077   4.795   0.229   7.453  0.2395 -0.5552  0.3291
   47MOL0     C 6078   4.738   0.103   7.466 -0.1323 -0.1213  0.2156
   47MOL0     C 6079   4.699   0.028   7.362  0.2064 -0.4156 -0.4042
   47MOL0     O 6080   4.636  -0.086   7.406  0.4250  0.1968 -0.2589
   47MOL0     C 6081   4.646  -0.190   7.306 -0.1679 -0.1522 -0.8133
   47MOL0     C 6082   4.576  -0.319   7.352 -0.1370 -0.4874 -0.3652
   47MOL0     C 6083   4.615  -0.372   7.494 -0.1978  0.2157  0.8185
   47MOL0     C 6084   4.737  -0.470   7.494 -0.4132  0.1694 -0.4846
   47MOL0     C 6085   4.675  -0.603   7.466 -0.6083 -0.0404 -0.0366
   47MOL0     C 6086   4.769  -0.702   7.402 -0.5100  0.1261  0.5663
   47MOL0     C 6087   4.900  -0.726   7.482  0.2351  0.3068 -0.9433
   47MOL0     C 6088   5.012  -0.806   7.407  0.0501  1.0743  0.4115
   47MOL0     N 6089   5.084  -0.728   7.311 -0.1030  0.4333 -0.0032
   47MOL0     C 6090   5.176  -0.792   7.223  0.0058 -1.0821 -0.9680
   47MOL0     C 6091   5.265  -0.693   7.193 -0.0209  0.4747  0.1537
   47MOL0     C 6092   5.387  -0.727   7.098 -0.1724 -0.7983  0.2130
   47MOL0     C 6093   5.429  -0.586   7.026  0.6585 -0.2271  0.5234
   47MOL0     C 6094   5.545  -0.595   6.924  0.0480 -0.3808 -0.5347
   47MOL0     C 6095   5.491  -0.678   6.805  0.6426  0.0994 -0.1421
   47MOL0     O 6096   5.373  -0.621   6.747  0.4328 -0.3522  0.2518
   47MOL0     C 6097   5.306  -0.694   6.655  1.0137  0.1648  0.0467
   47MOL0     C 6098   5.178  -0.642   6.617  0.3745 -0.4110  0.3117
   47MOL0     C 6099   5.113  -0.705   6.515  1.1502  0.7108  0.1542
   47MOL0     C 6100   5.160  -0.822   6.448 -0.8336  0.9227  0.0162
   47MOL0     C 6101   5.080  -0.894   6.341  0.4366 -0.1349 -0.0534
   47MOL0     O 6102   4.944  -0.891   6.360  0.2417  0.0613 -0.0289
   47MOL0     C 6103   4.865  -0.968   6.271 -0.2098 -0.3923 -0.7683
   47MOL0     C 6104   4.844  -1.110   6.279 -0.4881 -0.0100  0.1631
   47MOL0     C 6105   4.767  -1.183   6.192  0.3089 -1.0942  0.6379
   47MOL0     C 6106   4.715  -1.125   6.078 -1.0007 -0.4728  0.2933
   47MOL0     O 6107   4.642  -1.208   5.995 -0.0827 -0.5458  0.4697
   47MOL0     C 6108   4.542  -1.137   5.924  0.2563  0.5822  0.4095
   47MOL0     C 6109   4.436  -1.230   5.862  0.2150  0.0728 -0.0976
   47MOL0     C 6110   4.493  -1.310   5.746 -0.3086 -0.1571  0.1920
   47MOL0     C 6111   4.553  -1.227   5.627 -0.4062  0.0305  0.3312
   47MOL0     C 6112   4.607  -1.324   5.526 -0.3950  1.2260  0.8459
   47MOL0     C 6113   4.642  -1.264   5.389  0.2083  0.3043  0.0414
   47MOL0     C 6114   4.742  -1.162   5.396  0.6151  0.3169 -0.3445
   47MOL0     C 6115   4.666  -1.020   5.405 -0.7858 -0.4205 -0.3537
   47MOL0    Cl 6116   4.775  -0.885   5.355  0.6113  0.1361 -0.2222
   47MOL0     C 6117   4.756  -0.995   6.053  0.1960  0.5856 -0.7466
   47MOL0     C 6118   4.824  -0.918   6.149  0.1482 -1.0662 -0.5928
   47MOL0     O 6119   5.134  -0.952   6.247 -0.3508 -0.1965  0.3166
   47MOL0     C 6120   5.269  -0.883   6.499  0.1308 -0.7438 -0.2274
   47MOL0     C 6121   5.347  -0.811   6.587  0.0905 -0.1492 -0.7287
   47MOL0     N 6122   5.228  -0.573   7.246  0.8300 -0.1352 -0.7349
   47MOL0     N 6123   5.117  -0.590   7.314 -0.1201 -0.1027  0.6637
   47MOL0     C 6124   4.695   0.087   7.236 -0.2110  0.2770  0.4182
   47MOL0     C 6125   4.755   0.207   7.218 -0.9496  0.3060 -0.3780
   47MOL0     C 6126   5.026   0.561   7.226 -0.4825  0.1250 -0.0248
   47MOL0     C 6127   5.126   0.581   7.123  1.0428  0.0488  0.1615
   47MOL0     C 6128   5.169   0.712   7.096  0.6674 -0.9371 -0.3467
   47MOL0     C 6129   5.137   0.816   7.181  0.4896 -0.5700  1.0171
   47MOL0     O 6130   5.174   0.955   7.162 -0.5169  0.5124  0.1936
   47MOL0     C 6131   5.281   0.982   7.074 -0.2359 -0.2449  0.2668
   47MOL0     C 6132   5.347   1.106   7.126 -0.0263  0.0763  0.1947
   47MOL0     C 6133   5.475   1.126   7.048 -0.5223 -0.4234  0.3001
   47MOL0     C 6134   5.563   1.228   7.103  0.5232 -0.3680 -0.8805
   47MOL0     C 6135   5.509   1.367   7.076 -1.4263 -1.1865  1.1829
   47MOL0     C 6136   5.459   1.473   7.020 -0.6947  0.0602 -0.2566
   47MOL0     C 6137   5.038   0.794   7.274  0.1257 -0.2550 -0.8266
   47MOL0     C 6138   4.983   0.672   7.296  0.0483  0.1431  0.0779
   47MOL0     H 6139   4.835   0.295   7.530 -1.5552 -1.3234  2.0156
   47MOL0     H 6140   4.721   0.050   7.559 -0.0667 -0.2417  0.1585
   47MOL0     H 6141   4.752  -0.201   7.281  0.3496  0.9920  0.7092
   47MOL0     H 6142   4.609  -0.164   7.207 -0.8040 -0.4201 -0.6467
   47MOL0     H 6143   4.584  -0.399   7.278 -0.0164  1.0112 -2.0393
   47MOL0     H 6144   4.467  -0.307   7.356 -0.6701 -4.0940 -0.8165
   47MOL0     H 6145   4.532  -0.424   7.542  2.0378 -0.2210  4.5283
   47MOL0     H 6146   4.635  -0.277   7.545  0.0920  1.1748 -0.9831
   47MOL0     H 6147   4.809  -0.455   7.413 -0.6190 -1.3954 -0.9904
   47MOL0     H 6148   4.776  -0.468   7.596 -0.0584 -0.1195 -0.6134
   47MOL0     H 6149   4.588  -0.579   7.404  0.2170  5.7817  0.5112
   47MOL0     H 6150   4.636  -0.638   7.563 -2.3249 -1.2537 -1.1157
   47MOL0     H 6151   4.784  -0.650   7.306 -3.5727  0.1614  0.0095
   47MOL0     H 6152   4.705  -0.787   7.377  1.1336 -0.9245 -0.1828
   47MOL0     H 6153   4.931  -0.636   7.536  1.2261 -2.1204  2.9234
   47MOL0     H 6154   4.867  -0.790   7.564  0.4693  0.4004 -0.7747
   47MOL0     H 6155   4.960  -0.885   7.350  1.8298 -1.5763  2.2385
   47MOL0     H 6156   5.079  -0.858   7.476  0.8834  1.6617  0.0667
   47MOL0     H 6157   5.175  -0.893   7.185  1.0495 -2.3889  2.1311
   47MOL0     H 6158   5.376  -0.810   7.027 -1.5237 -0.4785  0.0253
   47MOL0     H 6159   5.461  -0.769   7.167 -1.5160 -0.1999  2.0900
   47MOL0     H 6160   5.457  -0.511   7.101  1.3969  0.3067 -0.2648
   47MOL0     H 6161   5.350  -0.535   6.971  2.5973  0.2327 -2.0332
   47MOL0     H 6162   5.575  -0.496   6.889 -1.3750  0.7557  1.3414
   47MOL0     H 6163   5.633  -0.640   6.971 -0.3417 -1.6782 -0.9975
   47MOL0     H 6164   5.472  -0.781   6.835  0.9017  0.4377  1.2752
   47MOL0     H 6165   5.570  -0.691   6.731  0.4837  1.3602 -0.5564
   47MOL0     H 6166   5.141  -0.551   6.663  0.0863  0.2394 -1.1571
   47MOL0     H 6167   5.020  -0.662   6.478 -0.3927 -1.4215  1.3303
   47MOL0     H 6168   4.893  -1.176   6.349  1.2068  1.2196  0.1921
   47MOL0     H 6169   4.735  -1.283   6.220 -3.2730 -0.0696  0.5683
   47MOL0     H 6170   4.583  -1.069   5.848  1.2514  1.5075  1.7079
   47MOL0     H 6171   4.486  -1.083   6.001  1.2775  1.8240  0.3158
   47MOL0     H 6172   4.347  -1.177   5.825 -1.2299 -1.5120  0.9360
   47MOL0     H 6173   4.404  -1.309   5.931  3.5908 -0.6680  0.7595
   47MOL0     H 6174   4.414  -1.373   5.703 -0.5191 -0.0946  0.4900
   47MOL0     H 6175   4.573  -1.375   5.782 -0.3658 -0.9715 -1.0829
   47MOL0     H 6176   4.482  -1.161   5.577  0.5331 -0.0834 -1.2292
   47MOL0     H 6177   4.640  -1.168   5.657 -1.0202  0.8722  0.4679
   47MOL0     H 6178   4.533  -1.403   5.511  0.1253  0.6713  1.1443
   47MOL0     H 6179   4.694  -1.378   5.566 -0.8361  1.4324  2.1331
   47MOL0     H 6180   4.549  -1.236   5.338 -0.3094 -0.2768  0.6536
   47MOL0     H 6181   4.688  -1.341   5.327 -1.8191 -3.2690  2.6721
   47MOL0     H 6182   4.805  -1.178   5.484 -2.0322 -3.1766  1.2183
   47MOL0     H 6183   4.819  -1.171   5.320  0.3803 -0.9426 -0.4559
   47MOL0     H 6184   4.625  -1.003   5.505 -1.2254 -0.9125 -0.4495
   47MOL0     H 6185   4.576  -1.019   5.343 -0.6510  0.2176 -0.5493
   47MOL0     H 6186   4.717  -0.938   5.970 -0.7074  0.2646 -0.5471
   47MOL0     H 6187   4.845  -0.813   6.128  0.1396 -0.5373  1.6864
   47MOL0     H 6188   5.295  -0.982   6.462 -0.6625 -0.9393 -0.2795
   47MOL0     H 6189   5.444  -0.859   6.601 -0.2697 -1.4287 -2.2689
   47MOL0     H 6190   4.655   0.033   7.151 -1.0137  0.0381  0.9438
   47MOL0     H 6191   4.781   0.254   7.123  4.5610  1.4050  1.3459
   47MOL0     H 6192   5.154   0.496   7.062 -4.8658 -0.2258 -2.9236
   47MOL0     H 6193   5.221   0.725   7.002 -2.9764  3.3097 -2.1312
   47MOL0     H 6194   5.250   0.996   6.970  1.5175 -1.1047 -0.4197
   47MOL0     H 6195   5.363   0.909   7.068  1.4210  1.4455  1.1110
   47MOL0     H 6196   5.293   1.199   7.107  0.9479  0.2523 -1.9635
   47MOL0     H 6197   5.367   1.101   7.234 -0.4256  0.0002  0.2678
   47MOL0     H 6198   5.458   1.153   6.943  2.6151  0.7476 -0.0298
   47MOL0     H 6199   5.536   1.035   7.047 -1.1207 -0.8257 -0.0961
   47MOL0     H 6200   5.578   1.202   7.208 -1.0871 -2.1839 -1.0434
   47MOL0     H 6201   5.659   1.216   7.051  0.7217 -1.4970 -0.2869
   47MOL0     H 6202   5.410   1.553   6.968 -0.3779  0.5353  0.1701
   47MOL0     H 6203   5.005   0.878   7.334  0.0448  0.8258 -2.3246
   47MOL0     H 6204   4.900   0.658   7.365 -1.3757  0.1650 -1.5743
   48MOL0     O 6205   5.713   8.158   5.024 -0.1311  0.4398 -1.1818
   48MOL0     C 6206   5.692   8.277   5.054 -0.0854 -0.4247  0.1013
   48MOL0     O 6207   5.791   8.364   5.113  0.0813 -0.4149 -0.5073
   48MOL0     C 6208   5.922   8.302   5.124  0.1573 -0.9011 -0.8301
   48MOL0     C 6209   6.035   8.355   5.062  0.2897 -0.0863  0.3057
   48MOL0     C 6210   6.166   8.299   5.071  0.4275  0.0160 -0.3979
   48MOL0     C 6211   6.178   8.185   5.148 -0.7771 -0.6222  0.3493
   48MOL0     O 6212   6.299   8.133   5.175  0.9558  0.6551 -1.2461
   48MOL0     C 6213   6.424   8.175   5.112  0.6716  0.8193  0.0259
   48MOL0     C 6214   6.543   8.078   5.119 -1.3144  0.3483 -0.4312
   48MOL0     C 6215   6.511   7.943   5.054  0.2916 -0.1037 -0.6179
   48MOL0     C 6216   6.639   7.851   5.048 -0.4684 -0.5722 -0.4720
   48MOL0     C 6217   6.602   7.717   5.103 -0.0970 -0.0661  0.3834
   48MOL0     C 6218   6.494   7.653   5.007 -0.0078 -0.0929  0.0134
   48MOL0     C 6219   6.473   7.505   5.047  0.1548  0.5413  0.3079
   48MOL0     C 6220   6.429   7.419   4.930 -1.0509 -0.5118  0.5372
   48MOL0     N 6221   6.421   7.279   4.965  0.1856  0.6023 -0.5484
   48MOL0     C 6222   6.305   7.215   4.985  0.8839 -0.2789  0.2728
   48MOL0     C 6223   6.351   7.095   5.035  0.1738 -0.0113  0.4284
   48MOL0     C 6224   6.268   6.972   5.066 -0.4293  0.3931  0.8732
   48MOL0     C 6225   6.257   6.948   5.217  2.9049 -0.2787 -0.2080
   48MOL0     C 6226   6.364   6.861   5.284  0.4091  0.4777  1.0461
   48MOL0     C 6227   6.334   6.854   5.426  0.2609 -0.1482  0.3527
   48MOL0     O 6228   6.190   6.833   5.446  0.7580 -0.4640  0.6333
   48MOL0     C 6229   6.129   6.848   5.561  0.1336 -0.5785 -0.3450
   48MOL0     C 6230   6.195   6.887   5.683  0.3163 -0.9417 -0.1329
   48MOL0     C 6231   6.127   6.900   5.804  0.5214 -0.3095  0.2807
   48MOL0     C 6232   5.982   6.883   5.799 -0.1753  0.2996  0.0650
   48MOL0     C 6233   5.899   6.916   5.915 -1.0416  0.6765 -0.4256
   48MOL0     O 6234   5.774   6.859   5.919  0.7124  0.0466 -0.3245
   48MOL0     C 6235   5.673   6.919   5.994  0.2710  0.7657 -0.8141
   48MOL0     C 6236   5.636   6.865   6.118 -0.4740  0.4670  0.0530
   48MOL0     C 6237   5.530   6.921   6.194  0.1147 -0.2897 -0.0339
   48MOL0     C 6238   5.454   7.027   6.146 -0.7686 -0.2728  0.2457
   48MOL0     O 6239   5.352   7.062   6.240  0.4008 -0.0529  0.6504
   48MOL0     C 6240   5.246   7.142   6.190  1.0650 -0.9867  0.5662
   48MOL0     C 6241   5.275   7.294   6.224  0.9890  0.5185  0.1102
   48MOL0     C 6242   5.255   7.356   6.367 -0.0182 -1.0143 -0.7186
   48MOL0     C 6243   5.111   7.334   6.420 -0.2634 -0.2358  0.6377
   48MOL0     C 6244   5.122   7.351   6.567  0.5164  0.3728 -0.4176
   48MOL0     C 6245   4.986   7.356   6.641  0.1244 -0.4963 -0.4736
   48MOL0     C 6246   5.003   7.397   6.779 -1.0584  0.0689 -0.2222
   48MOL0     C 6247   4.884   7.343   6.858 -0.4931  0.5632 -0.3242
   48MOL0    Cl 6248   4.939   7.273   7.014 -0.1463  0.1145  0.3130
   48MOL0     C 6249   5.492   7.082   6.030  0.0456 -0.7178  0.1943
   48MOL0     C 6250   5.605   7.029   5.952 -0.4666 -1.3238 -0.5102
   48MOL0     O 6251   5.942   6.992   5.997 -0.0451 -0.0102 -0.0561
   48MOL0     C 6252   5.922   6.842   5.692  0.2830 -0.3801  0.0486
   48MOL0     C 6253   5.991   6.822   5.570  0.8746  0.5423  0.7021
   48MOL0     N 6254   6.488   7.088   5.019  0.1953  1.3008 -0.5817
   48MOL0     N 6255   6.529   7.206   4.994 -0.1522  0.3185  1.0637
   48MOL0     C 6256   6.074   8.134   5.219  0.0064  0.7579  0.6215
   48MOL0     C 6257   5.944   8.193   5.213 -0.1943  0.1071 -0.3501
   48MOL0     C 6258   5.558   8.319   5.022  0.2478 -0.5978  0.7144
   48MOL0     C 6259   5.521   8.456   5.044 -0.2160  1.3655  0.1464
   48MOL0     C 6260   5.390   8.500   5.011  0.3118 -0.4919 -0.2143
   48MOL0     C 6261   5.291   8.421   4.956  0.9350  0.1634  0.4605
   48MOL0     O 6262   5.166   8.485   4.937 -0.7042  0.2830 -0.8060
   48MOL0     C 6263   5.075   8.433   4.842  0.1253 -0.9097 -0.6788
   48MOL0     C 6264   4.938   8.500   4.877  0.1901 -0.7222 -0.4258
   48MOL0     C 6265   4.850   8.494   4.753 -0.1631 -0.3224 -0.1873
   48MOL0     C 6266   4.893   8.594   4.634 -0.6124  0.7540 -0.2987
   48MOL0     C 6267   4.782   8.608   4.534  0.0249  0.2320  0.8198
   48MOL0     C 6268   4.712   8.592   4.435  0.5485  0.0509  0.8481
   48MOL0     C 6269   5.319   8.295   4.941  0.3590  1.3204 -0.0677
   48MOL0     C 6270   5.450   8.240   4.976  1.0705 -0.2431  0.6224
   48MOL0     H 6271   6.015   8.451   5.016  1.8285  1.3433  2.3909
   48MOL0     H 6272   6.248   8.364   5.042 -0.1847 -0.2331 -2.8937
   48MOL0     H 6273   6.460   8.265   5.163  2.7769  0.4914 -0.7790
   48MOL0     H 6274   6.403   8.180   5.005  0.7068 -0.1085 -0.0244
   48MOL0     H 6275   6.571   8.047   5.220  0.2219 -0.1803 -0.9902
   48MOL0     H 6276   6.631   8.125   5.073 -2.6051  2.3428 -1.0022
   48MOL0     H 6277   6.453   7.959   4.962 -5.1300 -2.2309  1.9929
   48MOL0     H 6278   6.438   7.898   5.122 -0.6082 -2.4961 -2.9887
   48MOL0     H 6279   6.682   7.854   4.947  0.6467  1.4032 -0.0046
   48MOL0     H 6280   6.711   7.889   5.121  1.2485 -1.9337 -1.3956
   48MOL0     H 6281   6.574   7.729   5.208  2.6909 -1.1331  1.3281
   48MOL0     H 6282   6.693   7.659   5.087 -1.1034 -1.1814 -1.8373
   48MOL0     H 6283   6.541   7.658   4.909  1.3554 -2.6486  0.4495
   48MOL0     H 6284   6.396   7.700   5.002  0.4041  0.7079 -0.8588
   48MOL0     H 6285   6.569   7.472   5.087 -1.3161 -2.9522  1.3492
   48MOL0     H 6286   6.404   7.500   5.132  2.5737  0.4345  2.4059
   48MOL0     H 6287   6.507   7.420   4.854 -1.0285 -1.2313  0.5495
   48MOL0     H 6288   6.332   7.456   4.894  0.1335 -0.0420 -2.4219
   48MOL0     H 6289   6.208   7.256   4.960  1.0623  1.2167  1.8159
   48MOL0     H 6290   6.297   6.883   5.009 -0.5608  0.1589  1.1622
   48MOL0     H 6291   6.164   6.990   5.035 -0.6071 -2.5530 -0.6122
   48MOL0     H 6292   6.165   6.889   5.221  2.8534 -0.2816 -1.1852
   48MOL0     H 6293   6.257   7.052   5.252  0.7321  0.3090 -1.7230
   48MOL0     H 6294   6.365   6.760   5.242  2.3674 -0.2949  2.7729
   48MOL0     H 6295   6.462   6.908   5.266 -0.8953  3.4698  1.2482
   48MOL0     H 6296   6.356   6.954   5.467 -5.6941  0.8834  2.0124
   48MOL0     H 6297   6.392   6.779   5.480  1.7721 -0.7724 -1.9891
   48MOL0     H 6298   6.302   6.904   5.675  0.5454 -2.7882 -1.3915
   48MOL0     H 6299   6.178   6.929   5.895 -0.6980  0.3337  0.7860
   48MOL0     H 6300   5.698   6.780   6.142  0.4829  0.9950 -0.4993
   48MOL0     H 6301   5.499   6.872   6.285  0.2560  1.6880  1.1173
   48MOL0     H 6302   5.148   7.131   6.236 -0.2648  1.5435 -1.3514
   48MOL0     H 6303   5.232   7.129   6.082  1.7507 -0.2893  0.3793
   48MOL0     H 6304   5.220   7.354   6.151  0.4309 -0.0784  0.0225
   48MOL0     H 6305   5.383   7.300   6.214  1.1216 -0.0563  1.0289
   48MOL0     H 6306   5.282   7.461   6.359  1.0998 -1.3036 -0.8296
   48MOL0     H 6307   5.324   7.305   6.435 -0.9557 -1.8834 -0.3768
   48MOL0     H 6308   5.044   7.412   6.383 -0.1590 -0.9840 -1.2534
   48MOL0     H 6309   5.064   7.238   6.394 -2.0939  0.1331  2.3068
   48MOL0     H 6310   5.182   7.439   6.591 -0.7468  1.1501  0.0545
   48MOL0     H 6311   5.181   7.271   6.612 -0.1124 -0.4311 -0.9967
   48MOL0     H 6312   4.958   7.251   6.654  2.1704 -0.9943  0.3234
   48MOL0     H 6313   4.907   7.406   6.585  0.9601  1.4973  0.0620
   48MOL0     H 6314   5.089   7.352   6.829 -3.0264 -0.5300  2.9647
   48MOL0     H 6315   5.015   7.506   6.786 -0.2016  0.1687 -2.4402
   48MOL0     H 6316   4.814   7.278   6.804 -1.1979  1.8376 -0.9840
   48MOL0     H 6317   4.820   7.428   6.886  0.4104  0.5900  1.8131
   48MOL0     H 6318   5.450   7.178   6.000 -0.7833  0.5360  4.6436
   48MOL0     H 6319   5.646   7.084   5.868  0.2430 -0.2760  0.5074
   48MOL0     H 6320   5.813   6.847   5.696  0.3484  1.8274  0.3804
   48MOL0     H 6321   5.931   6.799   5.482 -1.2133  2.9143  1.4063
   48MOL0     H 6322   6.096   8.062   5.298  1.6787  3.3495  2.6988
   48MOL0     H 6323   5.867   8.149   5.276  1.1221 -3.2226 -0.8495
   48MOL0     H 6324   5.588   8.538   5.069 -1.0538  1.9702  0.4208
   48MOL0     H 6325   5.353   8.602   5.018  0.5635 -0.2214 -2.2106
   48MOL0     H 6326   5.064   8.324   4.850  1.1861 -1.0709 -1.1755
   48MOL0     H 6327   5.116   8.475   4.750 -0.3921  2.7823  0.6320
   48MOL0     H 6328   4.898   8.435   4.956 -2.5236 -0.0652 -1.1722
   48MOL0     H 6329   4.956   8.594   4.929  1.0805 -1.9832  1.6899
   48MOL0     H 6330   4.751   8.522   4.791  0.5738 -0.2422  1.7762
   48MOL0     H 6331   4.832   8.390   4.723 -0.6076 -0.0128 -1.0098
   48MOL0     H 6332   4.934   8.689   4.670 -1.9659  1.6061 -0.9389
   48MOL0     H 6333   4.978   8.545   4.585  1.4801  0.9474  2.8436
   48MOL0     H 6334   4.649   8.576   4.351  0.0332 -0.0843  1.2582
   48MOL0     H 6335   5.238   8.229   4.913 -0.9764  2.1559  1.6498
   48MOL0     H 6336   5.479   8.135   4.970 -1.2293 -1.0970  2.7928
   49MOL0     O 6337   0.363   8.633   6.681 -0.6332  0.3538 -0.4478
   49MOL0     C 6338   0.257   8.620   6.632  0.6251 -0.7541  0.0814
   49MOL0     O 6339   0.221   8.648   6.499 -0.6190 -0.0700  0.6666
   49MOL0     C 6340   0.309   8.693   6.408  0.8144  0.4202 -0.2741
   49MOL0     C 6341   0.276   8.805   6.334 -0.0399 -0.2487  0.1991
   49MOL0     C 6342   0.369   8.852   6.243  0.8265  0.0590  0.0539
   49MOL0     C 6343   0.497   8.790   6.220  0.1787  0.1586  0.4257
   49MOL0     O 6344   0.590   8.845   6.140  0.6291  0.7113 -0.0416
   49MOL0     C 6345   0.553   8.912   6.012 -0.0015  0.0552  0.0957
   49MOL0     C 6346   0.682   8.952   5.936  0.1407  0.1992 -0.4620
   49MOL0     C 6347   0.647   9.034   5.820  0.2245 -0.9118 -0.0849
   49MOL0     C 6348   0.781   9.066   5.740 -0.1966  0.0595 -0.5605
   49MOL0     C 6349   0.736   9.141   5.616 -0.3698 -0.2079 -0.1137
   49MOL0     C 6350   0.812   9.259   5.565  0.3641  0.5486  0.1025
   49MOL0     C 6351   0.799   9.390   5.650 -0.6543  0.3579 -0.3969
   49MOL0     C 6352   0.878   9.519   5.611  0.0652 -0.1498  0.0686
   49MOL0     N 6353   1.013   9.520   5.663 -0.3192 -0.5532  0.0095
   49MOL0     C 6354   1.117   9.463   5.605 -0.2838 -0.8021 -0.2996
   49MOL0     C 6355   1.221   9.480   5.692 -0.2518 -0.2887 -0.4706
   49MOL0     C 6356   1.361   9.418   5.682  0.1196 -0.1931 -0.5888
   49MOL0     C 6357   1.480   9.479   5.751  0.6032 -0.8099 -0.7072
   49MOL0     C 6358   1.609   9.408   5.701 -0.7558 -0.4568  0.1096
   49MOL0     C 6359   1.709   9.517   5.673 -0.7586  0.6324  0.6242
   49MOL0     O 6360   1.835   9.462   5.716 -0.3522  0.8668  0.2689
   49MOL0     C 6361   1.953   9.530   5.707 -0.9428  0.0572  0.7106
   49MOL0     C 6362   2.063   9.458   5.755  0.2012  0.3379 -0.4087
   49MOL0     C 6363   2.186   9.508   5.763  0.1889 -0.1642 -0.1565
   49MOL0     C 6364   2.210   9.649   5.732  0.8317 -0.0656  0.2507
   49MOL0     C 6365   2.341   9.707   5.752 -0.7678 -0.4451 -0.5986
   49MOL0     O 6366   2.426   9.636   5.823  0.1189 -0.5825 -0.5312
   49MOL0     C 6367   2.563   9.653   5.819 -0.6095 -0.2038  0.3436
   49MOL0     C 6368   2.635   9.605   5.934 -1.0366  0.6181 -0.4355
   49MOL0     C 6369   2.779   9.594   5.937  0.2635  1.1718  0.0004
   49MOL0     C 6370   2.856   9.640   5.839  0.7466 -0.1787  0.7001
   49MOL0     O 6371   2.995   9.636   5.832  0.3899  0.8785 -0.4560
   49MOL0     C 6372   3.033   9.541   5.733 -1.0747 -0.3823  0.3788
   49MOL0     C 6373   3.171   9.596   5.677  0.0573 -0.5108  0.2661
   49MOL0     C 6374   3.286   9.601   5.784 -1.2073 -0.4338 -1.1022
   49MOL0     C 6375   3.426   9.628   5.728 -0.2068 -0.0324  0.0573
   49MOL0     C 6376   3.420   9.752   5.629  1.0291 -0.7103  0.2068
   49MOL0     C 6377   3.564   9.820   5.622  0.1030  0.2947 -0.3874
   49MOL0     C 6378   3.562   9.938   5.535 -0.7677  0.8593 -1.1630
   49MOL0     C 6379   3.699   9.987   5.490  0.1002  0.0783 -0.2795
   49MOL0    Cl 6380   3.697  10.138   5.393 -0.0689 -0.2016  0.0524
   49MOL0     C 6381   2.786   9.692   5.727  0.0706 -0.1730  0.0956
   49MOL0     C 6382   2.647   9.700   5.714  0.2182  0.3740 -0.6743
   49MOL0     O 6383   2.363   9.822   5.708 -0.3711  0.6093 -0.3900
   49MOL0     C 6384   2.105   9.719   5.670  0.7060 -0.0833 -0.3515
   49MOL0     C 6385   1.980   9.661   5.648  0.2929  0.0229 -0.7728
   49MOL0     N 6386   1.172   9.549   5.803  0.1420 -0.2750 -0.2037
   49MOL0     N 6387   1.045   9.575   5.775 -0.3642 -0.0772  0.6551
   49MOL0     C 6388   0.525   8.675   6.300 -0.8385 -0.3964  0.2115
   49MOL0     C 6389   0.423   8.626   6.385 -0.5122  0.7595  0.4509
   49MOL0     C 6390   0.146   8.569   6.719  0.0504 -0.3533 -0.2699
   49MOL0     C 6391   0.015   8.579   6.672  0.3522 -0.4779  0.2902
   49MOL0     C 6392  -0.088   8.526   6.753  0.2269 -0.3684  0.4253
   49MOL0     C 6393  -0.064   8.455   6.869 -0.4637 -0.2120  0.4363
   49MOL0     O 6394  -0.170   8.385   6.933 -0.3806 -0.0628 -0.1079
   49MOL0     C 6395  -0.272   8.325   6.843 -0.1695 -0.2939 -0.3660
   49MOL0     C 6396  -0.366   8.250   6.950 -0.5082  0.4270  0.1366
   49MOL0     C 6397  -0.431   8.351   7.047  0.3844  0.2834 -0.1290
   49MOL0     C 6398  -0.542   8.291   7.142  0.5608  0.1801  1.0826
   49MOL0     C 6399  -0.594   8.403   7.228 -0.6338  0.4441 -0.2958
   49MOL0     C 6400  -0.633   8.491   7.303  0.8271 -0.3603 -0.6348
   49MOL0     C 6401   0.064   8.460   6.920  0.5716 -0.4440  0.2207
   49MOL0     C 6402   0.173   8.500   6.842 -0.2386 -0.3389  0.3773
   49MOL0     H 6403   0.184   8.856   6.360  0.8370  1.4528  0.1317
   49MOL0     H 6404   0.340   8.940   6.187  2.1409 -0.0404 -0.8258
   49MOL0     H 6405   0.481   8.994   6.017 -0.0311  0.2108 -1.9906
   49MOL0     H 6406   0.503   8.832   5.957 -1.8473 -0.7178  2.6920
   49MOL0     H 6407   0.722   8.859   5.894  0.8071  0.3738 -0.2173
   49MOL0     H 6408   0.762   8.995   5.996  3.3749 -1.1389 -3.4361
   49MOL0     H 6409   0.595   9.126   5.847  0.7378 -0.9010  0.9267
   49MOL0     H 6410   0.584   8.972   5.754  1.6644 -1.7752 -0.6878
   49MOL0     H 6411   0.850   9.127   5.800 -1.1572  0.8871 -0.2663
   49MOL0     H 6412   0.833   8.972   5.719 -1.1665 -1.6703  3.6460
   49MOL0     H 6413   0.637   9.177   5.645  0.4620  1.8422  0.3590
   49MOL0     H 6414   0.733   9.072   5.531  0.6508 -0.7020  0.2425
   49MOL0     H 6415   0.789   9.269   5.459  0.9542  0.4288 -0.0343
   49MOL0     H 6416   0.918   9.240   5.549 -0.0127 -0.3920 -1.4428
   49MOL0     H 6417   0.692   9.413   5.646 -1.1290 -1.5286  0.2123
   49MOL0     H 6418   0.817   9.359   5.753 -0.2304  2.3592  0.1637
   49MOL0     H 6419   0.826   9.608   5.649  2.3640  0.8130  1.1668
   49MOL0     H 6420   0.883   9.524   5.502 -0.2548 -1.3922 -0.0208
   49MOL0     H 6421   1.102   9.401   5.517 -1.1155 -3.7898  1.7636
   49MOL0     H 6422   1.380   9.406   5.575 -3.7187  0.4257 -1.4889
   49MOL0     H 6423   1.360   9.317   5.723 -0.3588  0.0912  0.1030
   49MOL0     H 6424   1.470   9.469   5.860  0.1511 -0.4819 -0.7177
   49MOL0     H 6425   1.481   9.587   5.734  1.1898 -0.8685 -1.0637
   49MOL0     H 6426   1.645   9.348   5.785  1.5746 -2.8921 -2.4245
   49MOL0     H 6427   1.589   9.349   5.612  2.3965 -1.3345 -0.1456
   49MOL0     H 6428   1.698   9.612   5.725  3.4916  0.9202  1.3529
   49MOL0     H 6429   1.720   9.540   5.567 -1.6720 -0.4336  0.2703
   49MOL0     H 6430   2.054   9.353   5.781  2.3716  0.3615  0.6626
   49MOL0     H 6431   2.268   9.442   5.790  0.5409 -0.6960 -2.3230
   49MOL0     H 6432   2.581   9.566   6.019  1.4199 -0.8334  0.5637
   49MOL0     H 6433   2.808   9.538   6.026 -2.4783  1.4113  1.1554
   49MOL0     H 6434   2.954   9.527   5.659 -2.8094 -0.2814  2.1282
   49MOL0     H 6435   3.056   9.445   5.778  0.0983 -1.9362 -3.1529
   49MOL0     H 6436   3.165   9.686   5.615  1.1884 -0.5363  0.0972
   49MOL0     H 6437   3.199   9.521   5.603 -3.1536 -0.5104 -1.1210
   49MOL0     H 6438   3.289   9.513   5.848  1.5121 -0.6984 -1.4893
   49MOL0     H 6439   3.262   9.684   5.851  1.0004 -1.4833  1.1537
   49MOL0     H 6440   3.490   9.651   5.814  0.6579  0.4736 -0.7090
   49MOL0     H 6441   3.476   9.543   5.682  1.3876  1.3319 -0.8254
   49MOL0     H 6442   3.352   9.828   5.669  1.9900  2.1296 -2.9693
   49MOL0     H 6443   3.382   9.723   5.530  0.1833 -1.8717  0.8603
   49MOL0     H 6444   3.641   9.747   5.597  3.1015  2.8186  0.8598
   49MOL0     H 6445   3.593   9.850   5.723  0.8569  0.6297 -0.6984
   49MOL0     H 6446   3.509   9.902   5.446 -2.2375 -1.6491  0.6198
   49MOL0     H 6447   3.508  10.023   5.578 -1.5377  0.1006 -0.5978
   49MOL0     H 6448   3.748   9.910   5.430  2.0892 -0.6626  2.1264
   49MOL0     H 6449   3.760  10.003   5.580 -1.1299  1.4945  0.3476
   49MOL0     H 6450   2.842   9.725   5.641 -0.5180  1.8749  0.4434
   49MOL0     H 6451   2.598   9.713   5.617 -1.0675 -4.7973 -0.9995
   49MOL0     H 6452   2.113   9.816   5.621 -3.0054 -0.4614 -2.0775
   49MOL0     H 6453   1.897   9.720   5.612 -2.7241 -1.3248  3.2355
   49MOL0     H 6454   0.625   8.633   6.306 -0.7784 -0.0882  1.5937
   49MOL0     H 6455   0.450   8.533   6.436 -0.7129 -0.9732 -2.3983
   49MOL0     H 6456  -0.016   8.627   6.580 -0.2953  1.4178  1.4628
   49MOL0     H 6457  -0.187   8.544   6.712 -0.4103  0.8009  2.3369
   49MOL0     H 6458  -0.224   8.250   6.780  3.7953  1.1549  0.6115
   49MOL0     H 6459  -0.330   8.403   6.793  0.9456 -0.3044 -1.7350
   49MOL0     H 6460  -0.450   8.213   6.889 -0.7116  1.7824 -0.4507
   49MOL0     H 6461  -0.316   8.177   7.014  0.8775  0.7772 -0.5014
   49MOL0     H 6462  -0.473   8.434   6.990  0.0175  0.2100  0.0347
   49MOL0     H 6463  -0.344   8.382   7.105 -0.7283  1.5474  0.9094
   49MOL0     H 6464  -0.617   8.234   7.086  2.4535  1.0673 -2.6974
   49MOL0     H 6465  -0.493   8.222   7.211 -0.6978 -1.5493  0.3387
   49MOL0     H 6466  -0.671   8.565   7.371  0.1910  0.1025 -1.4762
   49MOL0     H 6467   0.072   8.399   7.010  1.8080 -1.4050 -0.5232
   49MOL0     H 6468   0.273   8.483   6.880  0.0787 -1.8506 -0.9961
   50MOL0     O 6469   1.719   7.969   6.906  0.1598  0.7306  0.1045
   50MOL0     C 6470   1.795   7.923   6.823 -0.3858  0.2469  1.1395
   50MOL0     O 6471   1.860   7.813   6.834  0.2716 -0.2491  0.2780
   50MOL0     C 6472   1.873   7.745   6.949  0.4170 -0.0182 -0.4812
   50MOL0     C 6473   2.007   7.714   6.985 -0.7683 -0.3406 -0.2911
   50MOL0     C 6474   2.029   7.616   7.088 -0.7541  0.0382  0.1238
   50MOL0     C 6475   1.927   7.569   7.174 -0.2978 -0.3165  0.8682
   50MOL0     O 6476   1.932   7.482   7.276 -0.3087 -0.8884  0.1980
   50MOL0     C 6477   2.067   7.470   7.333  0.9485 -0.1147 -0.5869
   50MOL0     C 6478   2.065   7.372   7.450  0.8045  0.9766 -0.5312
   50MOL0     C 6479   2.065   7.234   7.380 -0.5708  0.8342  1.1123
   50MOL0     C 6480   2.124   7.115   7.465  1.1951  0.2137 -0.1439
   50MOL0     C 6481   2.036   6.997   7.446 -0.4769 -0.7386  0.1105
   50MOL0     C 6482   2.042   6.892   7.556 -0.6535 -0.0417  0.2792
   50MOL0     C 6483   2.002   6.749   7.509 -0.8700  0.3907  0.6218
   50MOL0     C 6484   1.868   6.741   7.434  0.1309  0.5617  0.6975
   50MOL0     N 6485   1.817   6.604   7.422  0.4163  0.4306 -0.3136
   50MOL0     C 6486   1.796   6.546   7.303 -0.1750 -0.8110 -0.4356
   50MOL0     C 6487   1.734   6.432   7.337 -0.3344 -0.0717 -0.5069
   50MOL0     C 6488   1.677   6.308   7.265 -0.7986  0.0704  0.1432
   50MOL0     C 6489   1.538   6.329   7.224  1.0332 -0.0069 -0.8174
   50MOL0     C 6490   1.494   6.217   7.136  0.9076  0.6169  0.2765
   50MOL0     C 6491   1.338   6.216   7.120  0.6592 -1.0233  0.4111
   50MOL0     O 6492   1.290   6.354   7.103 -0.7902  0.2111  0.5997
   50MOL0     C 6493   1.151   6.374   7.090  0.0331 -0.3185 -0.2444
   50MOL0     C 6494   1.122   6.503   7.053 -0.1424  0.6755 -0.8513
   50MOL0     C 6495   0.995   6.556   7.041 -0.1414 -0.4016  0.5895
   50MOL0     C 6496   0.886   6.466   7.057  0.0573 -0.2656 -1.5929
   50MOL0     C 6497   0.751   6.511   7.021  0.3961  0.3565 -0.3823
   50MOL0     O 6498   0.650   6.425   7.040  0.4352  0.2894 -0.4087
   50MOL0     C 6499   0.517   6.444   6.994  0.6917 -0.2108  0.7382
   50MOL0     C 6500   0.420   6.350   7.034  0.1344 -0.0268  0.2016
   50MOL0     C 6501   0.290   6.349   6.993 -0.5782  0.6520 -0.4792
   50MOL0     C 6502   0.249   6.444   6.897  0.7233  0.1273  0.1678
   50MOL0     O 6503   0.119   6.482   6.857 -0.4544  0.1901 -0.3329
   50MOL0     C 6504   0.012   6.389   6.898 -0.0644 -0.9349  0.2842
   50MOL0     C 6505  -0.013   6.276   6.793  0.2278  0.0320 -0.6713
   50MOL0     C 6506  -0.151   6.209   6.829  0.0683  0.0278 -1.1161
   50MOL0     C 6507  -0.161   6.061   6.782  0.1257  0.4584  0.6696
   50MOL0     C 6508  -0.087   5.962   6.875 -0.1879  1.0589  0.3100
   50MOL0     C 6509  -0.113   5.824   6.823  0.8370  0.1791 -0.3285
   50MOL0     C 6510  -0.062   5.709   6.904  0.0608 -0.2160 -0.4407
   50MOL0     C 6511  -0.050   5.585   6.825  0.0139  1.0818  0.1231
   50MOL0    Cl 6512  -0.207   5.507   6.802  0.0547  0.5313 -0.1042
   50MOL0     C 6513   0.342   6.525   6.843 -0.4736  0.7841 -0.5128
   50MOL0     C 6514   0.470   6.533   6.895  0.7515 -0.2750 -0.3618
   50MOL0     O 6515   0.745   6.619   6.962  0.1083 -0.9274 -0.5671
   50MOL0     C 6516   0.915   6.337   7.105  0.6989 -0.1738  0.4858
   50MOL0     C 6517   1.049   6.293   7.122  0.9342 -1.0288  0.4118
   50MOL0     N 6518   1.733   6.424   7.476  0.1069  0.3198 -0.1939
   50MOL0     N 6519   1.793   6.528   7.526 -0.9306  0.2108  1.0425
   50MOL0     C 6520   1.801   7.608   7.143 -0.0390 -0.7861 -0.2293
   50MOL0     C 6521   1.767   7.698   7.027 -0.0990  0.7886 -0.6221
   50MOL0     C 6522   1.816   7.993   6.696 -0.9962  0.0636 -0.4414
   50MOL0     C 6523   1.754   8.115   6.661 -0.5022  0.4344  0.3741
   50MOL0     C 6524   1.769   8.174   6.538 -0.8551  0.2872 -0.6264
   50MOL0     C 6525   1.849   8.114   6.441 -0.1870  0.5724 -0.2825
   50MOL0     O 6526   1.854   8.172   6.314  0.5366  0.4860 -0.5578
   50MOL0     C 6527   1.983   8.163   6.246  0.0097 -0.1970  0.1132
   50MOL0     C 6528   2.001   8.290   6.163  0.0439 -0.2661  0.3384
   50MOL0     C 6529   1.927   8.274   6.030 -1.1728  0.3606  0.3898
   50MOL0     C 6530   1.951   8.394   5.944  0.0156 -0.1903  0.4834
   50MOL0     C 6531   1.852   8.414   5.837 -0.2182  0.5479 -0.1317
   50MOL0     C 6532   1.768   8.432   5.750 -0.0272  0.0324 -0.7476
   50MOL0     C 6533   1.918   7.995   6.475 -0.0604 -0.4392  0.0372
   50MOL0     C 6534   1.899   7.933   6.601  0.7850  0.5572  0.4894
   50MOL0     H 6535   2.087   7.759   6.928 -1.7974  0.0236 -1.4944
   50MOL0     H 6536   2.133   7.591   7.102 -0.3131  1.8692  0.3584
   50MOL0     H 6537   2.110   7.568   7.353 -2.9794  2.4540 -3.3113
   50MOL0     H 6538   2.128   7.434   7.250  0.3689 -1.0668 -0.6144
   50MOL0     H 6539   1.979   7.380   7.518  1.2367  3.4493 -0.1971
   50MOL0     H 6540   2.159   7.394   7.502  1.3060  2.0528 -1.8466
   50MOL0     H 6541   2.125   7.237   7.288 -2.4619  3.6213 -0.1885
   50MOL0     H 6542   1.970   7.210   7.332 -0.0416  0.0356  0.4165
   50MOL0     H 6543   2.231   7.102   7.449  1.1628 -1.0637  0.5909
   50MOL0     H 6544   2.115   7.141   7.571  1.0421  0.6156 -0.2517
   50MOL0     H 6545   2.071   6.945   7.357  0.6652  1.7298 -0.9701
   50MOL0     H 6546   1.930   7.016   7.429 -1.2639  0.1958  4.6313
   50MOL0     H 6547   1.972   6.925   7.633 -1.7034 -0.3407 -0.5177
   50MOL0     H 6548   2.141   6.883   7.600 -0.5938  2.1239  0.6868
   50MOL0     H 6549   2.080   6.701   7.448 -1.8666 -2.0548  1.1249
   50MOL0     H 6550   2.004   6.697   7.605 -0.5742 -0.4841  0.1584
   50MOL0     H 6551   1.885   6.778   7.333 -1.0293  1.7958  0.9265
   50MOL0     H 6552   1.788   6.795   7.484 -3.2689 -2.2535 -1.2942
   50MOL0     H 6553   1.807   6.595   7.207 -3.6744  0.4985 -0.3132
   50MOL0     H 6554   1.697   6.217   7.323 -1.9301  0.2391  0.8080
   50MOL0     H 6555   1.737   6.297   7.173  0.0533 -1.2993  0.8256
   50MOL0     H 6556   1.534   6.427   7.174 -3.2879  0.6443  0.3952
   50MOL0     H 6557   1.472   6.329   7.311 -1.6922  1.3686 -2.7199
   50MOL0     H 6558   1.550   6.219   7.042  2.7315 -3.0713  1.1051
   50MOL0     H 6559   1.514   6.124   7.189  1.4272  1.1495  1.0340
   50MOL0     H 6560   1.291   6.184   7.213 -0.6093 -1.3263 -0.3063
   50MOL0     H 6561   1.299   6.157   7.036 -3.4209  1.2304  0.4412
   50MOL0     H 6562   1.208   6.564   7.025  0.2727 -0.1797 -1.4796
   50MOL0     H 6563   0.976   6.661   7.018 -5.9235 -1.3793 -0.6749
   50MOL0     H 6564   0.451   6.270   7.101  0.1890  1.4445  2.0112
   50MOL0     H 6565   0.220   6.269   7.013 -0.6439  1.0393  0.9858
   50MOL0     H 6566  -0.080   6.446   6.917 -1.9085 -2.4055 -3.2645
   50MOL0     H 6567   0.026   6.334   6.991  0.7676 -2.2678 -0.5992
   50MOL0     H 6568   0.070   6.206   6.780 -0.4417 -0.9697  0.2790
   50MOL0     H 6569  -0.020   6.327   6.696  0.0102 -0.2900 -0.8252
   50MOL0     H 6570  -0.219   6.277   6.778 -0.2714  0.0717 -0.6186
   50MOL0     H 6571  -0.173   6.216   6.936  0.0253 -1.0828 -1.0410
   50MOL0     H 6572  -0.267   6.036   6.767  0.3841 -1.4938  1.7916
   50MOL0     H 6573  -0.111   6.047   6.686  0.8911 -1.0115  1.2573
   50MOL0     H 6574  -0.117   5.975   6.980  2.2743 -1.0546  1.3615
   50MOL0     H 6575   0.018   5.989   6.865  0.4896 -1.1749  0.9318
   50MOL0     H 6576  -0.053   5.825   6.731  1.6362  1.3867  0.1896
   50MOL0     H 6577  -0.219   5.798   6.810  0.5560  0.4206  1.3307
   50MOL0     H 6578   0.042   5.730   6.932 -0.0730 -2.6011  2.4006
   50MOL0     H 6579  -0.124   5.687   6.991  0.8499  3.3520  1.1983
   50MOL0     H 6580   0.018   5.516   6.875  1.0102  1.5545 -0.5503
   50MOL0     H 6581  -0.003   5.592   6.726  0.7710  0.1170  0.3955
   50MOL0     H 6582   0.306   6.570   6.751  1.4486  0.8907 -1.2629
   50MOL0     H 6583   0.535   6.602   6.842  1.1631  0.6560  1.3013
   50MOL0     H 6584   0.834   6.269   7.131 -2.9752  3.9024  0.8471
   50MOL0     H 6585   1.069   6.197   7.170  3.9473 -0.8869 -0.3385
   50MOL0     H 6586   1.722   7.587   7.215  0.8487 -0.0882  0.9795
   50MOL0     H 6587   1.662   7.725   7.020  0.0089  1.7999  1.2021
   50MOL0     H 6588   1.686   8.159   6.734 -3.8253  0.9157 -2.7335
   50MOL0     H 6589   1.729   8.271   6.511 -2.0124  0.3294  1.0838
   50MOL0     H 6590   1.977   8.080   6.175  0.8725  0.2448 -0.4928
   50MOL0     H 6591   2.062   8.143   6.319 -1.3555 -2.5713  1.0736
   50MOL0     H 6592   1.964   8.380   6.213 -1.8384 -0.5489 -0.4830
   50MOL0     H 6593   2.108   8.314   6.153 -0.0070  0.4096  1.2466
   50MOL0     H 6594   1.821   8.259   6.050 -0.7732 -3.5745  0.4463
   50MOL0     H 6595   1.960   8.188   5.970 -0.2679  1.5449 -0.8743
   50MOL0     H 6596   1.952   8.479   6.012  1.9546  0.9049 -0.8136
   50MOL0     H 6597   2.056   8.380   5.915  0.0075 -3.4791  1.6501
   50MOL0     H 6598   1.688   8.452   5.681 -0.1344 -1.7743 -1.1882
   50MOL0     H 6599   1.971   7.948   6.392 -1.6149  0.8734 -1.7968
   50MOL0     H 6600   1.954   7.840   6.617  1.8041  0.5632 -2.4312
   51MOL0     O 6601   7.998   9.728  11.314  0.3180  0.6049  0.1086
   51MOL0     C 6602   7.887   9.711  11.255  0.0027 -0.6074  0.3853
   51MOL0     O 6603   7.848   9.780  11.143  0.0152 -1.1289  0.0626
   51MOL0     C 6604   7.950   9.828  11.056  0.7934  0.2900 -0.9051
   51MOL0     C 6605   8.054   9.738  11.023 -0.1575 -1.0544 -0.9452
   51MOL0     C 6606   8.165   9.805  10.967 -0.0321  0.9927 -0.4636
   51MOL0     C 6607   8.174   9.933  10.916  0.6959 -0.6025 -0.2767
   51MOL0     O 6608   8.294   9.970  10.850 -0.5520 -0.0936 -0.4729
   51MOL0     C 6609   8.368  10.082  10.910  0.5599 -0.0843 -0.1939
   51MOL0     C 6610   8.500  10.102  10.851  0.4000  0.2769 -0.1862
   51MOL0     C 6611   8.595  10.179  10.947 -0.1878 -0.3503  1.0169
   51MOL0     C 6612   8.536  10.316  10.966 -0.3211 -1.1074 -1.0184
   51MOL0     C 6613   8.650  10.412  11.001 -0.0451  0.5152 -0.4811
   51MOL0     C 6614   8.602  10.558  10.988 -0.1045  0.7801  0.3661
   51MOL0     C 6615   8.704  10.665  11.015 -0.4078 -1.1763  0.6400
   51MOL0     C 6616   8.734  10.684  11.167  0.1251  0.1361  0.6768
   51MOL0     N 6617   8.787  10.815  11.197 -0.5213 -0.5707  0.2818
   51MOL0     C 6618   8.722  10.926  11.237 -1.1241 -0.1857 -0.6290
   51MOL0     C 6619   8.806  11.028  11.216 -0.5177 -0.7065  0.4275
   51MOL0     C 6620   8.778  11.169  11.264 -0.1167 -0.2389 -0.1109
   51MOL0     C 6621   8.767  11.190  11.413 -0.0707 -0.2651  0.1384
   51MOL0     C 6622   8.882  11.116  11.497  0.4402 -0.5654  0.0578
   51MOL0     C 6623   8.896  11.195  11.640  0.5846 -0.2109 -0.2871
   51MOL0     O 6624   8.949  11.118  11.748  0.4526 -0.6591  0.2259
   51MOL0     C 6625   9.085  11.140  11.772 -0.2313  0.1099  0.6062
   51MOL0     C 6626   9.130  11.116  11.895 -0.1400  0.1250 -0.6489
   51MOL0     C 6627   9.268  11.098  11.919 -0.0192 -1.2261  0.7136
   51MOL0     C 6628   9.361  11.139  11.819  0.4869  0.7968 -0.0919
   51MOL0     C 6629   9.511  11.136  11.852  0.2780  0.2421 -0.2490
   51MOL0     O 6630   9.552  11.099  11.974 -0.3829  0.8554 -0.3444
   51MOL0     C 6631   9.682  11.107  12.015  0.8463  0.4868 -0.1710
   51MOL0     C 6632   9.798  11.120  11.941  0.5305 -0.1717 -0.1895
   51MOL0     C 6633   9.922  11.132  11.993 -1.1212 -0.1169 -0.0722
   51MOL0     C 6634   9.939  11.132  12.129 -0.1382  0.5279  0.8104
   51MOL0     O 6635  10.066  11.157  12.170 -0.8968 -0.7351 -0.2582
   51MOL0     C 6636  10.103  11.120  12.310 -0.3241 -0.1651  0.4700
   51MOL0     C 6637  10.242  11.161  12.347 -0.6045 -0.0022 -0.9639
   51MOL0     C 6638  10.251  11.317  12.327 -1.2063  0.5873  0.0520
   51MOL0     C 6639  10.354  11.384  12.410 -0.5374  0.0963 -0.7345
   51MOL0     C 6640  10.358  11.531  12.382 -0.0144 -0.2167  0.2983
   51MOL0     C 6641  10.461  11.607  12.454 -0.8034  0.0945  0.1420
   51MOL0     C 6642  10.448  11.596  12.611 -1.1121  0.0604  0.5017
   51MOL0     C 6643  10.573  11.653  12.684 -1.0120 -0.6827 -0.7302
   51MOL0    Cl 6644  10.574  11.825  12.632  0.5195 -0.3011 -0.1414
   51MOL0     C 6645   9.825  11.125  12.212  0.2139 -0.7497  0.5502
   51MOL0     C 6646   9.699  11.098  12.156 -0.3177 -0.1992  0.3801
   51MOL0     O 6647   9.579  11.178  11.761 -0.2716  0.6015 -0.6197
   51MOL0     C 6648   9.313  11.163  11.686  0.4428  0.7100  0.9325
   51MOL0     C 6649   9.176  11.171  11.661 -0.4490 -0.2809 -0.0959
   51MOL0     N 6650   8.921  10.974  11.163  0.0807  0.7103  0.2633
   51MOL0     N 6651   8.904  10.848  11.151  0.2741 -0.1625 -0.5069
   51MOL0     C 6652   8.065  10.016  10.936  0.2879  0.2343 -0.2880
   51MOL0     C 6653   7.954   9.968  11.014 -0.3594  0.0674 -0.1841
   51MOL0     C 6654   7.775   9.636  11.306  0.5031 -0.3817 -0.5782
   51MOL0     C 6655   7.673   9.581  11.225 -0.4405 -0.4079  0.5218
   51MOL0     C 6656   7.567   9.514  11.282  0.3704 -0.1346 -0.5475
   51MOL0     C 6657   7.562   9.503  11.425 -0.0297 -0.0835  0.3729
   51MOL0     O 6658   7.465   9.437  11.486  0.0264  0.3694 -0.3294
   51MOL0     C 6659   7.378   9.526  11.554  0.2231  0.2274  0.0159
   51MOL0     C 6660   7.248   9.527  11.479 -0.6470  0.9440 -0.3018
   51MOL0     C 6661   7.131   9.459  11.548 -0.1336  1.0486 -0.2312
   51MOL0     C 6662   7.124   9.304  11.591 -0.0290 -0.8075  0.7901
   51MOL0     C 6663   7.144   9.211  11.473  0.1843 -0.2021 -0.8310
   51MOL0     C 6664   7.165   9.141  11.376 -0.0157 -0.1607  0.0505
   51MOL0     C 6665   7.662   9.556  11.503  0.9428  0.0960  0.2390
   51MOL0     C 6666   7.769   9.618  11.448 -0.7348  0.2081  0.0106
   51MOL0     H 6667   8.052   9.634  11.052 -1.8660 -1.0238 -0.8637
   51MOL0     H 6668   8.251   9.739  10.958 -0.5993 -0.0168  1.1779
   51MOL0     H 6669   8.386  10.049  11.012  4.3298  0.6751 -0.4682
   51MOL0     H 6670   8.311  10.176  10.900 -1.7366 -1.3794 -0.0291
   51MOL0     H 6671   8.498  10.142  10.749  0.5198  0.1191 -0.2522
   51MOL0     H 6672   8.549  10.005  10.835  1.2461  0.4858  0.9927
   51MOL0     H 6673   8.697  10.194  10.909 -0.5802  2.1111  0.7699
   51MOL0     H 6674   8.604  10.118  11.037  1.9050 -3.0104 -0.8412
   51MOL0     H 6675   8.474  10.356  10.885 -0.1235 -0.3358 -0.7889
   51MOL0     H 6676   8.461  10.312  11.045  0.3380 -0.2106 -0.3362
   51MOL0     H 6677   8.738  10.409  10.936  0.8899  3.1089  0.5403
   51MOL0     H 6678   8.687  10.377  11.098 -0.7568  1.6076  0.1912
   51MOL0     H 6679   8.515  10.572  11.054 -1.4179  2.9337 -1.6894
   51MOL0     H 6680   8.563  10.559  10.886 -4.3231 -1.2798  1.6841
   51MOL0     H 6681   8.791  10.632  10.959  0.7868  4.6198 -1.6213
   51MOL0     H 6682   8.682  10.765  10.978  1.0979 -0.7777  0.7517
   51MOL0     H 6683   8.792  10.598  11.202 -2.1912 -1.1372  1.6610
   51MOL0     H 6684   8.643  10.667  11.226 -1.9115  0.9422 -2.0311
   51MOL0     H 6685   8.634  10.933  11.300  0.0610 -3.9401  1.7515
   51MOL0     H 6686   8.683  11.201  11.221 -1.0884 -1.1397  1.2687
   51MOL0     H 6687   8.858  11.234  11.229 -1.6466  2.1809  0.6171
   51MOL0     H 6688   8.673  11.139  11.436 -0.6303  0.9195  0.5568
   51MOL0     H 6689   8.763  11.298  11.433  0.4233 -0.0643 -0.8020
   51MOL0     H 6690   8.842  11.015  11.513 -3.1656  0.6990  0.0529
   51MOL0     H 6691   8.980  11.107  11.451 -0.2722 -2.9275 -1.1662
   51MOL0     H 6692   8.796  11.221  11.674  1.4149  2.7306  0.1473
   51MOL0     H 6693   8.952  11.289  11.640  4.6177 -2.3530  1.2314
   51MOL0     H 6694   9.062  11.081  11.972  2.6492 -3.5579  0.4616
   51MOL0     H 6695   9.292  11.071  12.021  1.2797 -3.1634 -0.0445
   51MOL0     H 6696   9.785  11.121  11.833 -1.2174  2.2286 -0.0231
   51MOL0     H 6697  10.006  11.154  11.929 -1.2386  0.9257  0.1077
   51MOL0     H 6698  10.078  11.015  12.330  0.9167 -0.3990  0.8844
   51MOL0     H 6699  10.044  11.185  12.375 -1.6563 -0.3607 -0.5099
   51MOL0     H 6700  10.311  11.103  12.286 -2.3625 -1.8381 -1.3313
   51MOL0     H 6701  10.263  11.141  12.453  1.0263 -1.2636 -1.4901
   51MOL0     H 6702  10.155  11.363  12.355 -0.7351  1.8101 -0.3038
   51MOL0     H 6703  10.265  11.350  12.224 -0.1345  2.5595  0.7838
   51MOL0     H 6704  10.342  11.371  12.518 -2.4611  1.4879 -0.7394
   51MOL0     H 6705  10.450  11.335  12.388 -0.7296 -0.9592  0.6092
   51MOL0     H 6706  10.264  11.582  12.408 -1.0574 -0.8198 -1.9898
   51MOL0     H 6707  10.381  11.546  12.276 -1.2888 -2.4818 -0.3794
   51MOL0     H 6708  10.457  11.715  12.441 -1.6934  0.1214  0.5806
   51MOL0     H 6709  10.563  11.576  12.429 -0.2681  3.4265 -2.5372
   51MOL0     H 6710  10.359  11.650  12.647 -3.2253 -1.0456 -2.5836
   51MOL0     H 6711  10.441  11.492  12.644 -0.9506 -0.0419  0.2096
   51MOL0     H 6712  10.658  11.600  12.642 -1.9724 -2.6845 -0.2528
   51MOL0     H 6713  10.571  11.642  12.793 -2.2523  3.2859 -0.1985
   51MOL0     H 6714   9.826  11.135  12.320 -1.4450  2.2686  0.3955
   51MOL0     H 6715   9.622  11.067  12.225  1.8304  0.1413  3.0755
   51MOL0     H 6716   9.386  11.182  11.608 -0.3088  1.1215  0.3105
   51MOL0     H 6717   9.154  11.197  11.558  0.5838 -1.5551 -0.6586
   51MOL0     H 6718   8.072  10.119  10.905  0.2713 -0.2511 -2.0125
   51MOL0     H 6719   7.867  10.026  11.042  0.0832  0.7254 -0.1695
   51MOL0     H 6720   7.673   9.593  11.117 -0.2936 -3.4125  0.1082
   51MOL0     H 6721   7.483   9.465  11.235 -1.7444  2.1562  0.6038
   51MOL0     H 6722   7.419   9.627  11.553  0.6694  0.0918  1.7834
   51MOL0     H 6723   7.363   9.494  11.657 -0.3016 -0.9362 -0.3992
   51MOL0     H 6724   7.228   9.635  11.469  3.4513  2.0610  1.4182
   51MOL0     H 6725   7.262   9.482  11.380 -2.3355 -0.6835  0.1564
   51MOL0     H 6726   7.041   9.455  11.486 -0.4274 -1.4244  0.2491
   51MOL0     H 6727   7.101   9.522  11.631 -3.2864  0.9469 -1.1663
   51MOL0     H 6728   7.208   9.282  11.658  1.1578 -1.0266 -0.7279
   51MOL0     H 6729   7.031   9.286  11.645 -0.5706 -1.8166 -0.4413
   51MOL0     H 6730   7.194   9.066  11.304  1.3092  0.3595  0.0202
   51MOL0     H 6731   7.654   9.547  11.611 -4.2145  1.5080  0.2287
   51MOL0     H 6732   7.835   9.652  11.528 -4.7068  2.4139  2.6902
   52MOL0     O 6733   0.802   6.016   9.053 -0.4670 -0.9000  0.0833
   52MOL0     C 6734   0.698   6.056   9.105  0.1456 -0.2933 -1.3117
   52MOL0     O 6735   0.673   6.051   9.244 -0.7401 -0.0525 -0.3125
   52MOL0     C 6736   0.749   5.984   9.332 -0.2133  0.1548 -1.5890
   52MOL0     C 6737   0.878   5.923   9.307  0.5062  0.1914 -0.8327
   52MOL0     C 6738   0.947   5.870   9.421  0.2179 -0.1230  0.2768
   52MOL0     C 6739   0.890   5.847   9.548 -0.5605 -0.7602  1.1588
   52MOL0     O 6740   0.947   5.787   9.654  1.0940 -0.3036 -0.7598
   52MOL0     C 6741   1.055   5.703   9.629 -1.0868 -0.2251 -0.5269
   52MOL0     C 6742   1.095   5.625   9.756  0.3551  1.0097  0.1198
   52MOL0     C 6743   1.225   5.547   9.737 -0.4609  0.0869  0.4190
   52MOL0     C 6744   1.267   5.451   9.849 -0.1670 -0.0721  0.6244
   52MOL0     C 6745   1.326   5.527   9.971 -0.0702 -0.0080  0.3235
   52MOL0     C 6746   1.331   5.457  10.104 -0.2807 -0.4317 -0.3127
   52MOL0     C 6747   1.424   5.530  10.200  0.1288 -1.3064  0.3258
   52MOL0     C 6748   1.398   5.475  10.337 -0.4683  1.0175 -1.2020
   52MOL0     N 6749   1.465   5.544  10.444  0.0597 -0.6834 -0.2777
   52MOL0     C 6750   1.594   5.537  10.476 -1.1455 -0.0824 -0.1463
   52MOL0     C 6751   1.616   5.645  10.558  0.0287 -0.6812  0.4396
   52MOL0     C 6752   1.739   5.683  10.631  0.2926  0.1511  0.3797
   52MOL0     C 6753   1.709   5.697  10.783  0.6751 -0.1981  0.3581
   52MOL0     C 6754   1.722   5.555  10.847  0.2152 -0.0036 -0.8173
   52MOL0     C 6755   1.693   5.554  11.001  0.0778  0.0212  0.0471
   52MOL0     O 6756   1.785   5.633  11.074 -0.6595 -0.4890 -0.0090
   52MOL0     C 6757   1.769   5.655  11.208  0.1752  0.1478 -1.2993
   52MOL0     C 6758   1.845   5.752  11.273 -0.4438 -0.0372  0.1505
   52MOL0     C 6759   1.832   5.787  11.407  0.1099  0.0478  0.6883
   52MOL0     C 6760   1.726   5.720  11.481 -0.1076 -0.0699  0.2767
   52MOL0     C 6761   1.711   5.735  11.626 -0.5671  0.3622  0.4438
   52MOL0     O 6762   1.795   5.829  11.682  0.0809  0.1747  0.5919
   52MOL0     C 6763   1.796   5.838  11.820  0.4706 -0.3019  0.8369
   52MOL0     C 6764   1.838   5.722  11.891  0.2418  0.0132 -0.9325
   52MOL0     C 6765   1.864   5.731  12.028  0.5563  0.8456 -0.3952
   52MOL0     C 6766   1.841   5.850  12.104  0.7366  0.4734  0.1873
   52MOL0     O 6767   1.877   5.850  12.235 -0.2018  0.6974  0.1566
   52MOL0     C 6768   1.888   5.972  12.307 -0.4481 -0.0457  0.5923
   52MOL0     C 6769   1.870   5.957  12.457 -0.0805 -0.8007 -1.1589
   52MOL0     C 6770   1.983   6.037  12.545  0.9473  0.2287 -0.0805
   52MOL0     C 6771   1.928   6.070  12.689 -0.4566 -0.5161  0.2841
   52MOL0     C 6772   2.027   6.122  12.781 -0.5173 -0.4183 -0.5465
   52MOL0     C 6773   2.099   6.253  12.738  0.0370  0.7409 -0.5149
   52MOL0     C 6774   2.021   6.387  12.723  0.1028 -0.2538  0.5050
   52MOL0     C 6775   1.927   6.415  12.842  0.4783 -0.4863  0.6224
   52MOL0    Cl 6776   2.030   6.480  12.972  0.5932  0.2091  0.0313
   52MOL0     C 6777   1.785   5.957  12.029 -0.0340  0.3404 -0.8499
   52MOL0     C 6778   1.760   5.954  11.888  0.4511  0.4892 -0.1376
   52MOL0     O 6779   1.624   5.678  11.693 -0.3046  0.2605  0.0736
   52MOL0     C 6780   1.646   5.626  11.414 -0.1141  0.0221  0.8977
   52MOL0     C 6781   1.668   5.593  11.281 -0.0980  0.0355 -0.4117
   52MOL0     N 6782   1.503   5.727  10.553 -0.4455  0.1863  0.1098
   52MOL0     N 6783   1.415   5.655  10.494  0.0008 -0.0646 -0.5215
   52MOL0     C 6784   0.759   5.904   9.568  0.1952  0.0802 -0.0945
   52MOL0     C 6785   0.693   5.976   9.465 -0.2802 -0.4056  0.0116
   52MOL0     C 6786   0.594   6.114   9.011  0.2009 -0.4416  0.1045
   52MOL0     C 6787   0.490   6.196   9.054  0.5522 -0.0413  0.2945
   52MOL0     C 6788   0.388   6.238   8.962 -0.9038 -0.5539 -0.4680
   52MOL0     C 6789   0.401   6.212   8.830 -0.6403 -0.1567  0.6892
   52MOL0     O 6790   0.305   6.243   8.742 -0.0319  0.4054  0.8689
   52MOL0     C 6791   0.196   6.330   8.768 -0.4995 -0.0360  0.6403
   52MOL0     C 6792   0.238   6.481   8.745  0.5906  0.0528 -0.7409
   52MOL0     C 6793   0.306   6.502   8.609  0.3544  0.1514  0.4624
   52MOL0     C 6794   0.339   6.649   8.589  0.0330  0.8871 -0.2211
   52MOL0     C 6795   0.372   6.690   8.447  0.9711  1.0464  0.0365
   52MOL0     C 6796   0.403   6.728   8.336  0.0609 -0.1968 -0.1208
   52MOL0     C 6797   0.516   6.146   8.780  0.2772  0.4631  0.8117
   52MOL0     C 6798   0.606   6.090   8.869 -0.1477  0.0929 -0.1531
   52MOL0     H 6799   0.923   5.914   9.209  0.6679  0.8737 -0.8282
   52MOL0     H 6800   1.033   5.809   9.397 -1.9258 -2.3261 -2.5675
   52MOL0     H 6801   1.140   5.765   9.600 -1.8314 -0.0030 -2.3709
   52MOL0     H 6802   1.034   5.629   9.551 -1.4506 -2.5179  1.6098
   52MOL0     H 6803   1.019   5.551   9.781  1.8187 -1.3406 -1.8871
   52MOL0     H 6804   1.108   5.691   9.843  0.9222 -1.3407  1.9165
   52MOL0     H 6805   1.306   5.621   9.727  0.2188 -0.7457 -0.4135
   52MOL0     H 6806   1.215   5.495   9.641 -1.1266  2.0371 -0.6338
   52MOL0     H 6807   1.186   5.389   9.887  1.0415  0.2954  4.2497
   52MOL0     H 6808   1.346   5.388   9.807 -1.1528 -1.6475  1.0350
   52MOL0     H 6809   1.267   5.618   9.980  0.0906  0.0317  1.0056
   52MOL0     H 6810   1.426   5.564   9.946  0.4886 -2.1976 -1.0332
   52MOL0     H 6811   1.358   5.351  10.094  1.0231 -0.2085  0.4837
   52MOL0     H 6812   1.232   5.469  10.148  0.6409  3.0937  1.1428
   52MOL0     H 6813   1.528   5.517  10.168 -0.0637  0.1838 -1.0316
   52MOL0     H 6814   1.393   5.634  10.196 -0.6274 -1.4882 -3.9605
   52MOL0     H 6815   1.436   5.373  10.340 -0.4346  1.0598  0.3444
   52MOL0     H 6816   1.291   5.480  10.360 -0.7288 -1.3666 -1.6591
   52MOL0     H 6817   1.677   5.472  10.448 -1.4660  0.4960 -2.7535
   52MOL0     H 6818   1.770   5.783  10.599 -1.8235  1.5294  2.3649
   52MOL0     H 6819   1.814   5.604  10.617 -0.7986 -0.8415 -0.0281
   52MOL0     H 6820   1.615   5.747  10.805  0.6328 -1.7693  4.5062
   52MOL0     H 6821   1.791   5.757  10.823  1.9679 -2.5846  1.5025
   52MOL0     H 6822   1.664   5.476  10.799  0.7119 -1.1386  0.3847
   52MOL0     H 6823   1.828   5.528  10.838  0.1698  0.4123 -3.7680
   52MOL0     H 6824   1.701   5.447  11.026 -0.1795 -0.1406 -0.5355
   52MOL0     H 6825   1.595   5.601  11.016  1.0898  2.6736 -1.2240
   52MOL0     H 6826   1.899   5.820  11.208 -2.8076  2.0717  0.2892
   52MOL0     H 6827   1.909   5.860  11.430  1.2382 -0.3895 -1.4066
   52MOL0     H 6828   1.844   5.624  11.844 -0.2676 -0.5896  0.2240
   52MOL0     H 6829   1.891   5.654  12.098 -1.3973  1.1645  0.7753
   52MOL0     H 6830   1.808   6.042  12.280  0.6055  0.6920 -0.7411
   52MOL0     H 6831   1.986   6.008  12.277 -0.0770 -1.8045 -0.4444
   52MOL0     H 6832   1.892   5.853  12.480  2.1248  0.2882  2.6423
   52MOL0     H 6833   1.770   5.985  12.491 -1.2996 -2.0284 -3.4797
   52MOL0     H 6834   2.001   6.135  12.499 -1.4090  0.1410 -1.3583
   52MOL0     H 6835   2.081   5.989  12.553 -0.6076 -2.8170  3.2454
   52MOL0     H 6836   1.848   6.143  12.673  1.7340  2.1285  0.4584
   52MOL0     H 6837   1.886   5.976  12.724  0.4413 -0.1303  2.5884
   52MOL0     H 6838   2.115   6.058  12.792 -0.3653  0.2031  3.5182
   52MOL0     H 6839   1.992   6.136  12.884 -2.8872 -1.1696 -1.1898
   52MOL0     H 6840   2.147   6.228  12.643 -2.3245 -0.3733 -1.5031
   52MOL0     H 6841   2.183   6.261  12.808  1.0781 -3.2707 -1.0713
   52MOL0     H 6842   2.105   6.453  12.701  0.6192 -0.7834  0.8587
   52MOL0     H 6843   1.960   6.390  12.632 -1.3923  1.0522  1.5082
   52MOL0     H 6844   1.867   6.327  12.866 -0.1525 -0.2695 -0.1049
   52MOL0     H 6845   1.854   6.490  12.809  0.4796 -0.7062  0.1126
   52MOL0     H 6846   1.766   6.048  12.086 -2.4280 -0.5938 -0.0504
   52MOL0     H 6847   1.725   6.027  11.816 -2.8470 -0.1319  0.6874
   52MOL0     H 6848   1.574   5.575  11.477 -1.4259  1.6403  0.7705
   52MOL0     H 6849   1.608   5.510  11.247  2.5907 -2.7321  1.1183
   52MOL0     H 6850   0.702   5.909   9.661 -1.5667 -2.8793 -0.8933
   52MOL0     H 6851   0.605   6.038   9.476  0.4290  0.6945 -0.3760
   52MOL0     H 6852   0.476   6.215   9.160  2.2797  2.7539  0.1177
   52MOL0     H 6853   0.301   6.290   9.001  0.6208  1.9820 -0.2438
   52MOL0     H 6854   0.154   6.316   8.868 -5.8562  1.0868 -1.1209
   52MOL0     H 6855   0.117   6.301   8.699  0.3580 -1.5789  0.2784
   52MOL0     H 6856   0.145   6.538   8.753 -1.3743 -2.1707 -4.8137
   52MOL0     H 6857   0.305   6.519   8.823 -0.4487 -3.1276  1.9087
   52MOL0     H 6858   0.234   6.469   8.533  1.0100 -0.9765  0.3079
   52MOL0     H 6859   0.396   6.440   8.612 -2.3968 -4.2119  2.4526
   52MOL0     H 6860   0.245   6.700   8.612  0.1859  1.5928 -1.0561
   52MOL0     H 6861   0.426   6.687   8.645  1.1235  0.5904 -1.6340
   52MOL0     H 6862   0.402   6.773   8.239  2.2880  3.5557  1.3683
   52MOL0     H 6863   0.520   6.149   8.672 -1.0828 -0.4865  0.7010
   52MOL0     H 6864   0.686   6.025   8.835 -1.8120 -1.6359 -0.9696
   53MOL0     O 6865  10.630   9.732   5.115 -0.0355  0.3666 -0.3620
   53MOL0     C 6866  10.581   9.671   5.216 -0.7341 -0.0680  0.5808
   53MOL0     O 6867  10.657   9.569   5.289  0.0625 -0.0125  0.5865
   53MOL0     C 6868  10.778   9.537   5.226  0.0633 -0.1472 -0.0157
   53MOL0     C 6869  10.901   9.563   5.292 -0.0312 -0.1294 -0.8188
   53MOL0     C 6870  11.028   9.513   5.248 -0.5261  0.1289  0.6937
   53MOL0     C 6871  11.028   9.436   5.131  1.0295 -0.1608  0.1866
   53MOL0     O 6872  11.156   9.405   5.097 -0.2020  0.6612 -0.3355
   53MOL0     C 6873  11.185   9.379   4.955  0.6678 -0.3348 -0.3507
   53MOL0     C 6874  11.336   9.386   4.943 -0.9266 -0.7227 -0.3275
   53MOL0     C 6875  11.401   9.320   4.818  0.9462  0.9325 -0.0816
   53MOL0     C 6876  11.551   9.330   4.826 -0.3647 -0.5334  0.0803
   53MOL0     C 6877  11.614   9.270   4.705  0.1781  0.5508  0.0790
   53MOL0     C 6878  11.589   9.330   4.561  0.6591  0.5988  0.0294
   53MOL0     C 6879  11.598   9.470   4.546  0.3593  0.8257  0.2330
   53MOL0     C 6880  11.505   9.523   4.436 -0.2066 -0.6267 -0.1138
   53MOL0     N 6881  11.525   9.673   4.423  0.3847 -0.7039  0.6224
   53MOL0     C 6882  11.642   9.743   4.413  0.8243 -0.4250 -0.0623
   53MOL0     C 6883  11.604   9.873   4.444 -0.9979 -0.3864  0.0682
   53MOL0     C 6884  11.702   9.982   4.437 -0.5699 -0.3645  0.1416
   53MOL0     C 6885  11.770  10.006   4.303 -0.5141  0.0997 -0.2161
   53MOL0     C 6886  11.817  10.152   4.304 -0.5901  0.3593 -0.7232
   53MOL0     C 6887  11.924  10.191   4.405 -0.0407  0.0038  0.0599
   53MOL0     O 6888  12.038  10.099   4.392 -0.2425  0.0504  0.0621
   53MOL0     C 6889  12.151  10.121   4.460 -0.2524 -0.6533  0.7745
   53MOL0     C 6890  12.161  10.228   4.553  0.3565 -0.5495  0.4517
   53MOL0     C 6891  12.281  10.255   4.618  0.1425 -1.3388 -0.4251
   53MOL0     C 6892  12.402  10.179   4.592  0.6152 -1.1049  0.6813
   53MOL0     C 6893  12.534  10.218   4.645 -0.5544 -0.6690  0.0286
   53MOL0     O 6894  12.628  10.134   4.608  1.6688  0.0901  0.8251
   53MOL0     C 6895  12.754  10.159   4.626 -0.9838  0.0169 -0.4861
   53MOL0     C 6896  12.816  10.264   4.697  0.4453 -1.0867 -0.8181
   53MOL0     C 6897  12.954  10.263   4.711  0.0202  0.2517 -0.1709
   53MOL0     C 6898  13.031  10.153   4.668  0.2968  0.0600 -0.4074
   53MOL0     O 6899  13.169  10.163   4.685  0.2339  0.3854  0.8262
   53MOL0     C 6900  13.245  10.076   4.603 -0.3067  0.2930 -0.1984
   53MOL0     C 6901  13.380  10.149   4.577  0.1933 -0.4271  1.2560
   53MOL0     C 6902  13.483  10.165   4.685  0.0358 -0.2482 -0.4535
   53MOL0     C 6903  13.628  10.197   4.621 -0.4666 -0.4500 -0.6503
   53MOL0     C 6904  13.736  10.198   4.722  0.2205 -0.1131  0.7448
   53MOL0     C 6905  13.854  10.252   4.647 -0.2445 -0.7019 -0.6502
   53MOL0     C 6906  13.990  10.227   4.711  0.0286 -0.6287  0.0208
   53MOL0     C 6907  14.028  10.081   4.687 -0.1261 -0.0258 -0.3110
   53MOL0    Cl 6908  14.188  10.042   4.767 -0.1974  0.0223 -0.3192
   53MOL0     C 6909  12.971  10.044   4.617  0.2812  1.4877  0.9237
   53MOL0     C 6910  12.833  10.049   4.592 -0.1761 -0.2147  0.2162
   53MOL0     O 6911  12.548  10.325   4.710  0.8571  0.3272  0.4978
   53MOL0     C 6912  12.382  10.074   4.501  0.0401  0.3537  0.9787
   53MOL0     C 6913  12.264  10.042   4.430 -0.7255 -1.2227 -0.1987
   53MOL0     N 6914  11.469   9.873   4.476 -0.6499 -0.5955 -0.4598
   53MOL0     N 6915  11.417   9.756   4.444 -0.2143 -0.1627 -0.2245
   53MOL0     C 6916  10.913   9.411   5.053 -0.1406  0.2204 -0.8850
   53MOL0     C 6917  10.786   9.458   5.108 -0.4991 -0.5400 -0.4273
   53MOL0     C 6918  10.456   9.715   5.288  0.5705 -0.2177  0.1192
   53MOL0     C 6919  10.434   9.687   5.425 -0.2025  0.6421  0.7000
   53MOL0     C 6920  10.341   9.765   5.492  0.4755 -0.5884 -0.2271
   53MOL0     C 6921  10.262   9.866   5.438 -0.8497 -0.0113 -0.4125
   53MOL0     O 6922  10.165   9.927   5.513  0.0022  0.1928 -0.5508
   53MOL0     C 6923  10.061  10.009   5.456  0.5999  0.1620  1.3355
   53MOL0     C 6924   9.941  10.016   5.547 -0.9798 -0.0976 -0.7225
   53MOL0     C 6925   9.962  10.095   5.674 -0.3403 -0.1692 -0.3759
   53MOL0     C 6926  10.066  10.042   5.784  1.3892 -0.1667  1.6207
   53MOL0     C 6927  10.063  10.115   5.914 -0.1010  0.2072 -0.0792
   53MOL0     C 6928  10.077  10.164   6.029  0.9642  0.7992 -0.0730
   53MOL0     C 6929  10.282   9.887   5.298 -1.3118  0.0260 -0.0127
   53MOL0     C 6930  10.388   9.819   5.222  0.2099  0.2753 -0.0656
   53MOL0     H 6931  10.888   9.620   5.383  1.5015 -0.8963 -0.0859
   53MOL0     H 6932  11.120   9.521   5.304  0.2666 -2.2009 -0.1606
   53MOL0     H 6933  11.134   9.441   4.881 -2.7335  0.1614  2.1563
   53MOL0     H 6934  11.171   9.271   4.938  0.7877 -0.4618  0.2975
   53MOL0     H 6935  11.378   9.319   5.018  0.3570 -1.2712 -1.5048
   53MOL0     H 6936  11.360   9.491   4.963 -0.5476 -0.2972 -2.6879
   53MOL0     H 6937  11.362   9.374   4.731 -2.2458 -0.9268  0.0230
   53MOL0     H 6938  11.363   9.218   4.804 -0.3830  1.4677 -0.5667
   53MOL0     H 6939  11.583   9.434   4.837 -0.3497 -0.3181 -1.8407
   53MOL0     H 6940  11.582   9.275   4.916 -1.2564  0.9786  1.3618
   53MOL0     H 6941  11.603   9.161   4.708  3.4225  0.0808 -1.1601
   53MOL0     H 6942  11.722   9.273   4.715  0.0699  2.2776  1.0356
   53MOL0     H 6943  11.484   9.307   4.542 -0.1991  1.6411  2.9772
   53MOL0     H 6944  11.657   9.278   4.494 -2.1974 -1.4924 -1.4468
   53MOL0     H 6945  11.564   9.529   4.632 -1.4848  1.2359 -0.7251
   53MOL0     H 6946  11.703   9.480   4.517  0.2477  1.8773  0.1223
   53MOL0     H 6947  11.402   9.512   4.472 -0.1141 -0.9782  0.0577
   53MOL0     H 6948  11.518   9.448   4.357  0.0489 -1.6585  0.8723
   53MOL0     H 6949  11.734   9.692   4.388  0.9987 -0.6785  1.0452
   53MOL0     H 6950  11.784   9.956   4.505 -0.9699 -1.0947  0.3493
   53MOL0     H 6951  11.664  10.077   4.474  0.7502  1.9303 -3.8024
   53MOL0     H 6952  11.697   9.985   4.224 -0.7278 -0.4600  0.1208
   53MOL0     H 6953  11.854   9.939   4.282 -0.4103  0.6997 -1.8953
   53MOL0     H 6954  11.860  10.171   4.206  0.7306  3.1823  0.3000
   53MOL0     H 6955  11.727  10.212   4.321 -0.8650  0.0093 -0.9242
   53MOL0     H 6956  11.883  10.181   4.506  1.1286  0.6204  0.6166
   53MOL0     H 6957  11.952  10.296   4.389  1.7699 -0.5099 -0.4372
   53MOL0     H 6958  12.080  10.298   4.574 -0.3264 -1.2258  0.1015
   53MOL0     H 6959  12.292  10.337   4.689 -0.5715 -4.0156  3.0540
   53MOL0     H 6960  12.766  10.357   4.720  1.8233 -0.0219 -1.9631
   53MOL0     H 6961  13.011  10.347   4.751 -2.1981  1.8882 -0.2785
   53MOL0     H 6962  13.206  10.040   4.508  0.2266  0.2478 -0.3982
   53MOL0     H 6963  13.269   9.985   4.658 -2.4822  0.0366  0.4451
   53MOL0     H 6964  13.353  10.246   4.534 -2.2803 -1.8424 -0.6073
   53MOL0     H 6965  13.423  10.090   4.496  1.1770  1.6712  0.1657
   53MOL0     H 6966  13.503  10.067   4.729 -0.1243 -0.5582 -1.0622
   53MOL0     H 6967  13.459  10.236   4.764  2.6727  0.2296  0.0121
   53MOL0     H 6968  13.654  10.118   4.550 -1.0346 -2.2622  1.0677
   53MOL0     H 6969  13.633  10.285   4.556 -1.0916 -1.3698 -2.0183
   53MOL0     H 6970  13.750  10.094   4.754 -3.7780 -0.1643  2.9645
   53MOL0     H 6971  13.704  10.251   4.812  0.2955  1.5428 -0.1669
   53MOL0     H 6972  13.843  10.361   4.648  1.9479 -0.3413  3.3804
   53MOL0     H 6973  13.856  10.224   4.541  1.1031  1.5253 -1.2873
   53MOL0     H 6974  14.069  10.294   4.674  0.4982 -0.7090  0.8545
   53MOL0     H 6975  13.976  10.248   4.817  3.5135  1.0806  0.2804
   53MOL0     H 6976  14.042  10.077   4.579 -0.8142  0.9703 -0.4471
   53MOL0     H 6977  13.949  10.017   4.727  0.6086 -2.1288 -2.0372
   53MOL0     H 6978  13.017   9.947   4.602  0.3424  1.7845 -1.1040
   53MOL0     H 6979  12.783   9.969   4.538 -1.1597  0.1805  0.5218
   53MOL0     H 6980  12.463  10.005   4.476 -2.4695 -1.2233 -4.1475
   53MOL0     H 6981  12.277   9.973   4.347 -2.8901 -1.0944 -0.6994
   53MOL0     H 6982  10.912   9.354   4.960 -1.5206  1.0853 -1.4398
   53MOL0     H 6983  10.695   9.443   5.050  0.1203  2.9624 -2.6212
   53MOL0     H 6984  10.485   9.626   5.499  0.4272 -0.1529 -0.3707
   53MOL0     H 6985  10.312   9.745   5.595 -1.7276 -1.5860 -0.9734
   53MOL0     H 6986  10.028   9.962   5.364  4.1590 -2.7276  1.3088
   53MOL0     H 6987  10.101  10.111   5.444 -0.4874  0.4298 -0.3018
   53MOL0     H 6988   9.863  10.068   5.490 -1.2124 -2.1684 -2.4431
   53MOL0     H 6989   9.903   9.914   5.561 -0.5335 -0.3528 -1.3317
   53MOL0     H 6990   9.864  10.102   5.720  0.7598 -0.7816  2.2114
   53MOL0     H 6991   9.982  10.198   5.642 -0.6412 -0.0466 -0.1660
   53MOL0     H 6992  10.036   9.939   5.807 -1.5310  0.3954  0.6667
   53MOL0     H 6993  10.166  10.045   5.737  0.6991 -0.1913  0.0714
   53MOL0     H 6994  10.065  10.212   6.123 -1.4626  2.9995 -1.3871
   53MOL0     H 6995  10.223   9.967   5.254  0.3694  1.4208  0.1518
   53MOL0     H 6996  10.407   9.859   5.123 -0.9511 -0.7467 -0.7386
   54MOL0     O 6997   3.523   7.918   6.761 -1.3666  0.6778  0.5189
   54MOL0     C 6998   3.577   7.895   6.869  0.5115 -0.4310  0.9954
   54MOL0     O 6999   3.539   7.945   6.989 -0.3451  0.3344  0.5363
   54MOL0     C 7000   3.424   8.023   6.996 -0.3406 -0.4507  0.0848
   54MOL0     C 7001   3.301   7.970   7.023 -0.3797 -0.1510 -0.2721
   54MOL0     C 7002   3.186   8.047   7.011  0.4660 -0.6737  0.4911
   54MOL0     C 7003   3.185   8.189   6.994  0.6772  0.9648  0.3261
   54MOL0     O 7004   3.080   8.284   6.979 -0.1224  1.2941 -0.7941
   54MOL0     C 7005   2.949   8.228   7.016  0.5349 -0.0808 -0.6672
   54MOL0     C 7006   2.840   8.330   7.019 -1.0210 -0.1060  0.3095
   54MOL0     C 7007   2.803   8.356   6.875 -0.5170  0.1482 -0.6593
   54MOL0     C 7008   2.745   8.492   6.865  0.3556  0.2537  0.1383
   54MOL0     C 7009   2.652   8.514   6.742 -0.0355 -0.2181  0.4535
   54MOL0     C 7010   2.564   8.641   6.764 -0.2138  0.1221  0.5750
   54MOL0     C 7011   2.516   8.704   6.635 -1.0152 -0.2399  0.6940
   54MOL0     C 7012   2.443   8.608   6.541 -0.3493 -0.4704 -1.4172
   54MOL0     N 7013   2.505   8.574   6.420  0.3034  0.6988 -0.2957
   54MOL0     C 7014   2.428   8.572   6.304 -0.0667  0.6237 -0.4967
   54MOL0     C 7015   2.503   8.501   6.217  0.6103  0.8548  0.2296
   54MOL0     C 7016   2.466   8.469   6.072 -0.2219  0.8135 -0.6431
   54MOL0     C 7017   2.581   8.407   5.984 -0.1355 -0.0310 -0.2875
   54MOL0     C 7018   2.556   8.423   5.837 -1.2129  0.0678 -0.1679
   54MOL0     C 7019   2.649   8.318   5.776 -0.2070  0.8118  0.8028
   54MOL0     O 7020   2.605   8.190   5.813  0.5457  0.4851 -0.0793
   54MOL0     C 7021   2.692   8.081   5.790 -0.3096  0.3168  0.1936
   54MOL0     C 7022   2.773   8.075   5.668  1.0319  0.0924 -0.3597
   54MOL0     C 7023   2.854   7.962   5.661 -0.0530  1.2832 -0.3867
   54MOL0     C 7024   2.880   7.865   5.767  0.0474  0.0172 -0.1943
   54MOL0     C 7025   2.978   7.763   5.747 -0.6037  0.0174  0.2600
   54MOL0     O 7026   3.007   7.675   5.855  0.2185  0.1168  0.1408
   54MOL0     C 7027   3.095   7.570   5.848 -0.4208 -0.2891 -0.3867
   54MOL0     C 7028   3.189   7.555   5.939 -1.0226  0.2797 -0.4704
   54MOL0     C 7029   3.271   7.442   5.951 -0.3919  0.3170 -0.3655
   54MOL0     C 7030   3.250   7.343   5.852  0.3776  0.4433 -1.3362
   54MOL0     O 7031   3.337   7.237   5.855 -0.4485  0.7556  0.1696
   54MOL0     C 7032   3.297   7.119   5.785  0.7557  0.1697 -0.3415
   54MOL0     C 7033   3.376   6.997   5.844  0.2231 -0.1449  0.1009
   54MOL0     C 7034   3.532   7.003   5.826  0.1018 -0.1625  0.3485
   54MOL0     C 7035   3.605   6.883   5.888 -0.4013  0.3155 -0.2591
   54MOL0     C 7036   3.755   6.906   5.902 -0.3147  0.6191 -0.3590
   54MOL0     C 7037   3.829   6.782   5.954  0.1076  0.4998  0.5935
   54MOL0     C 7038   3.968   6.815   6.007 -0.2804  0.5012 -0.3690
   54MOL0     C 7039   4.029   6.705   6.084  0.8845 -0.6727 -1.0906
   54MOL0    Cl 7040   3.948   6.657   6.237 -0.1030  0.2313 -0.0259
   54MOL0     C 7041   3.137   7.345   5.775  0.5186  0.2437 -0.2250
   54MOL0     C 7042   3.061   7.466   5.763 -0.1512  0.7024 -1.3820
   54MOL0     O 7043   3.033   7.766   5.640 -0.6439  0.1262  0.3908
   54MOL0     C 7044   2.807   7.883   5.877 -0.4740 -0.1979 -0.0767
   54MOL0     C 7045   2.707   7.985   5.889  0.6589  0.7566 -0.8839
   54MOL0     N 7046   2.620   8.463   6.277  0.8293 -0.2166  0.5923
   54MOL0     N 7047   2.614   8.504   6.400  0.3313 -0.1343  0.3543
   54MOL0     C 7048   3.311   8.242   6.965  0.0887 -0.6362  0.1206
   54MOL0     C 7049   3.427   8.163   6.961  0.4433 -0.5139 -0.4780
   54MOL0     C 7050   3.707   7.821   6.873 -0.3515  0.0228  0.2826
   54MOL0     C 7051   3.744   7.744   6.762  1.1236 -0.1267 -0.4192
   54MOL0     C 7052   3.863   7.679   6.752  0.0993 -0.0638 -0.3611
   54MOL0     C 7053   3.949   7.684   6.863  0.5900  0.2569  0.0651
   54MOL0     O 7054   4.059   7.604   6.880 -0.3313 -0.4459  0.6422
   54MOL0     C 7055   4.085   7.492   6.796 -0.4403 -0.4302 -0.5849
   54MOL0     C 7056   4.170   7.405   6.884  0.3691 -0.1196 -0.6750
   54MOL0     C 7057   4.306   7.478   6.911  0.2289  0.3092 -0.5952
   54MOL0     C 7058   4.361   7.444   7.053  0.0998  0.9459 -0.2447
   54MOL0     C 7059   4.470   7.541   7.077 -0.0952 -0.6257 -0.1573
   54MOL0     C 7060   4.577   7.601   7.083 -0.1059  0.0838  0.2216
   54MOL0     C 7061   3.921   7.764   6.977  0.9614 -0.5865  0.0992
   54MOL0     C 7062   3.801   7.837   6.979 -0.0294 -0.1331  0.1735
   54MOL0     H 7063   3.291   7.862   7.028  0.1069 -0.2209 -0.7390
   54MOL0     H 7064   3.092   7.994   7.022  0.3642 -0.5364  0.2887
   54MOL0     H 7065   2.955   8.190   7.119  0.2027 -1.7115 -1.2313
   54MOL0     H 7066   2.921   8.140   6.958  0.4660 -2.3986  2.5906
   54MOL0     H 7067   2.889   8.416   7.065  1.3017 -2.6012  2.8767
   54MOL0     H 7068   2.752   8.299   7.076 -0.3019  0.5907  1.8702
   54MOL0     H 7069   2.733   8.276   6.849 -0.6141 -0.6697  1.8899
   54MOL0     H 7070   2.884   8.334   6.804  0.7423 -2.7888  1.4955
   54MOL0     H 7071   2.687   8.515   6.955  0.8674  0.4449  0.4214
   54MOL0     H 7072   2.817   8.574   6.854  0.0717  0.1495 -5.3723
   54MOL0     H 7073   2.585   8.429   6.731 -1.4278  1.0563 -1.7715
   54MOL0     H 7074   2.708   8.515   6.648 -4.0395 -1.5194 -2.1921
   54MOL0     H 7075   2.621   8.715   6.821  3.3522 -0.7719 -1.5338
   54MOL0     H 7076   2.479   8.628   6.832 -2.0623  1.6315 -1.2965
   54MOL0     H 7077   2.461   8.791   6.669  1.7915  1.2918  1.6817
   54MOL0     H 7078   2.610   8.732   6.585 -2.3925  1.1012 -1.2670
   54MOL0     H 7079   2.352   8.668   6.530  1.6164  3.0137 -0.0949
   54MOL0     H 7080   2.415   8.519   6.599 -1.2345  1.6490  1.6631
   54MOL0     H 7081   2.329   8.611   6.282 -1.6703 -1.3446  2.4598
   54MOL0     H 7082   2.421   8.562   6.035  0.4520  1.7519  0.7914
   54MOL0     H 7083   2.389   8.392   6.067  1.3455 -0.7573 -1.3264
   54MOL0     H 7084   2.594   8.303   6.018  0.9777 -0.3616 -1.6106
   54MOL0     H 7085   2.668   8.462   6.019 -1.5217  2.1740 -0.1209
   54MOL0     H 7086   2.450   8.406   5.816 -1.5482 -0.6233  1.9146
   54MOL0     H 7087   2.596   8.520   5.807 -0.4428 -0.1406  0.1527
   54MOL0     H 7088   2.758   8.330   5.786 -0.1337  2.3827 -1.1854
   54MOL0     H 7089   2.649   8.315   5.667  0.5013  1.2214  0.7817
   54MOL0     H 7090   2.749   8.144   5.588 -0.9131  0.0997  0.1822
   54MOL0     H 7091   2.901   7.950   5.564  1.1006 -0.9012  0.3779
   54MOL0     H 7092   3.199   7.645   5.999  3.0961  0.6674 -1.4225
   54MOL0     H 7093   3.337   7.431   6.037 -2.4411  1.3069  1.4425
   54MOL0     H 7094   3.313   7.136   5.679 -0.9799  0.2667 -0.6225
   54MOL0     H 7095   3.191   7.095   5.800  0.4850  1.6751  0.3191
   54MOL0     H 7096   3.343   6.912   5.784  0.0984  1.1823 -1.8184
   54MOL0     H 7097   3.347   6.974   5.946  2.9275  0.6820  1.1412
   54MOL0     H 7098   3.576   7.095   5.867  2.9207 -1.8551  1.3905
   54MOL0     H 7099   3.540   6.999   5.717 -0.3920  2.5427  0.1368
   54MOL0     H 7100   3.564   6.872   5.989 -0.1371  2.1699  0.0878
   54MOL0     H 7101   3.580   6.789   5.837 -0.4146  1.3272 -2.2055
   54MOL0     H 7102   3.770   6.993   5.965  0.6338 -0.3405  0.7848
   54MOL0     H 7103   3.800   6.932   5.805  1.7043 -1.8583 -0.2086
   54MOL0     H 7104   3.825   6.699   5.883 -1.4664  1.0376 -0.0074
   54MOL0     H 7105   3.758   6.751   6.032 -0.5434  1.1890  0.2918
   54MOL0     H 7106   4.036   6.830   5.923  0.9452 -1.8113  0.1311
   54MOL0     H 7107   3.958   6.900   6.075  0.1552 -0.6550  1.2222
   54MOL0     H 7108   4.137   6.718   6.097  1.0921 -2.1165 -1.2216
   54MOL0     H 7109   4.006   6.620   6.019  1.4453 -0.5730 -1.4200
   54MOL0     H 7110   3.103   7.266   5.708 -1.6051 -0.9603  2.0948
   54MOL0     H 7111   2.973   7.478   5.700 -0.3054 -0.3241 -1.3829
   54MOL0     H 7112   2.817   7.820   5.964  3.7464 -2.3700 -1.8435
   54MOL0     H 7113   2.640   7.993   5.974 -0.0337  0.0642 -1.3469
   54MOL0     H 7114   3.313   8.344   6.927  2.2916 -1.3855 -2.0627
   54MOL0     H 7115   3.518   8.211   6.929 -0.9217  2.3659 -0.3895
   54MOL0     H 7116   3.677   7.727   6.678 -1.1282 -3.7869  1.8422
   54MOL0     H 7117   3.884   7.626   6.660 -1.0969  0.0641 -0.7165
   54MOL0     H 7118   4.133   7.529   6.705 -1.3593  0.6038 -0.6754
   54MOL0     H 7119   3.997   7.441   6.757 -0.3362  0.9989 -2.8668
   54MOL0     H 7120   4.129   7.390   6.984  0.3663  2.9199 -0.1071
   54MOL0     H 7121   4.169   7.301   6.852 -0.7766 -0.0560 -0.8694
   54MOL0     H 7122   4.308   7.586   6.896  4.5533  0.7666  1.6439
   54MOL0     H 7123   4.370   7.432   6.834  0.0062 -0.6353 -0.2279
   54MOL0     H 7124   4.289   7.458   7.134 -0.0591  2.3704 -0.5986
   54MOL0     H 7125   4.399   7.341   7.054 -0.2663  0.7881 -1.1931
   54MOL0     H 7126   4.677   7.639   7.090  0.6271 -2.0092  2.5269
   54MOL0     H 7127   3.981   7.784   7.065 -2.1565  0.4330  2.1613
   54MOL0     H 7128   3.791   7.891   7.072  1.1123  1.6133 -0.6701
   55MOL0     O 7129   1.922   4.390   5.399 -0.3913  0.6351 -0.4418
   55MOL0     C 7130   1.915   4.262   5.414 -0.7346 -0.4323 -0.9292
   55MOL0     O 7131   1.858   4.175   5.334 -0.9256 -0.1707  0.2250
   55MOL0     C 7132   1.791   4.224   5.223  0.7577 -0.7219  0.0987
   55MOL0     C 7133   1.821   4.154   5.107  0.6015 -0.5337  0.3944
   55MOL0     C 7134   1.774   4.192   4.980 -0.9518  0.4101  0.4946
   55MOL0     C 7135   1.682   4.297   4.972 -0.5032  0.0057  0.4994
   55MOL0     O 7136   1.638   4.332   4.842 -0.2309  1.3662  0.5304
   55MOL0     C 7137   1.590   4.464   4.831 -0.5173 -0.3459 -0.2355
   55MOL0     C 7138   1.588   4.506   4.681 -1.1976  1.6909 -1.5210
   55MOL0     C 7139   1.546   4.652   4.663  0.4419 -0.4807 -0.0702
   55MOL0     C 7140   1.656   4.756   4.666 -0.2454 -0.2107 -0.5305
   55MOL0     C 7141   1.606   4.884   4.590  0.5175  0.4349  0.1835
   55MOL0     C 7142   1.463   4.934   4.621 -0.0214 -0.6130 -0.8842
   55MOL0     C 7143   1.448   5.086   4.599  0.0061  0.1838  0.9995
   55MOL0     C 7144   1.477   5.107   4.447  0.6376  0.0321 -0.1185
   55MOL0     N 7145   1.469   5.257   4.421 -0.0408  0.7543  0.4497
   55MOL0     C 7146   1.419   5.309   4.295 -0.3248 -0.3961 -0.8961
   55MOL0     C 7147   1.465   5.430   4.286 -0.3477  0.2683  0.4965
   55MOL0     C 7148   1.450   5.517   4.163  0.0675  0.3628  0.0118
   55MOL0     C 7149   1.569   5.594   4.110  0.1221  0.5167  0.3186
   55MOL0     C 7150   1.517   5.695   4.002  0.6376  0.0360 -0.2383
   55MOL0     C 7151   1.620   5.740   3.904  0.0884 -0.9534 -0.5953
   55MOL0     O 7152   1.627   5.628   3.819 -0.9517 -0.0037  0.0997
   55MOL0     C 7153   1.695   5.640   3.698  0.2383 -0.0453 -0.1481
   55MOL0     C 7154   1.778   5.739   3.661 -0.1541 -0.3757  0.1643
   55MOL0     C 7155   1.821   5.748   3.526 -0.5198 -0.3434 -0.0372
   55MOL0     C 7156   1.777   5.665   3.428  0.2001  0.7862 -0.2430
   55MOL0     C 7157   1.803   5.682   3.285  0.0878  0.6336  0.8015
   55MOL0     O 7158   1.861   5.805   3.241 -0.1699 -0.2878  0.0186
   55MOL0     C 7159   1.933   5.824   3.126 -0.0105  0.6665  0.2150
   55MOL0     C 7160   1.964   5.954   3.098  0.2978 -1.3257  0.2889
   55MOL0     C 7161   2.043   5.975   2.985 -0.1601  0.1823 -0.3237
   55MOL0     C 7162   2.116   5.867   2.916  0.5498  0.1814  0.0369
   55MOL0     O 7163   2.189   5.895   2.807 -0.4089  0.8350  0.6173
   55MOL0     C 7164   2.297   5.801   2.759  0.1560 -0.5452 -1.6308
   55MOL0     C 7165   2.432   5.858   2.772  0.2996 -0.6581  0.1274
   55MOL0     C 7166   2.544   5.745   2.742 -0.3754 -0.3327  0.6346
   55MOL0     C 7167   2.693   5.797   2.749 -0.1375 -0.7690  0.4541
   55MOL0     C 7168   2.798   5.690   2.726  0.4119  0.4695  1.2586
   55MOL0     C 7169   2.776   5.624   2.589  0.8318  0.3841 -0.3364
   55MOL0     C 7170   2.876   5.522   2.531  0.2484 -0.8279 -0.3066
   55MOL0     C 7171   2.844   5.377   2.581  0.0900 -0.1857  0.8908
   55MOL0    Cl 7172   2.875   5.361   2.760 -0.2694 -0.1639 -0.1786
   55MOL0     C 7173   2.079   5.738   2.945 -0.0702 -0.3594  0.1453
   55MOL0     C 7174   1.985   5.716   3.047 -0.3629 -0.6531 -0.2055
   55MOL0     O 7175   1.768   5.588   3.214 -0.4271 -0.2010 -0.7408
   55MOL0     C 7176   1.699   5.553   3.467 -0.2335 -0.1863 -0.1542
   55MOL0     C 7177   1.670   5.536   3.605 -0.8864 -0.1795 -0.3641
   55MOL0     N 7178   1.550   5.460   4.385 -0.2906  0.4605  0.1934
   55MOL0     N 7179   1.543   5.366   4.472  0.4613 -0.1236 -0.4189
   55MOL0     C 7180   1.648   4.368   5.090 -0.1021  0.0780  1.2402
   55MOL0     C 7181   1.693   4.330   5.220 -0.2877  0.4569  0.2986
   55MOL0     C 7182   1.969   4.209   5.546  1.5297 -0.0597  0.5904
   55MOL0     C 7183   1.937   4.079   5.586 -0.1991 -0.6218 -1.3346
   55MOL0     C 7184   1.965   4.031   5.713  0.3263  0.4315  0.4435
   55MOL0     C 7185   2.005   4.119   5.814 -1.0576 -0.5685  0.3538
   55MOL0     O 7186   2.010   4.077   5.946 -0.0464  0.6793  0.0813
   55MOL0     C 7187   2.063   4.169   6.045 -0.1846 -1.0063 -0.5423
   55MOL0     C 7188   2.162   4.073   6.123  0.1379 -0.4254  0.3534
   55MOL0     C 7189   2.198   4.132   6.261 -0.2682  0.7030 -0.4122
   55MOL0     C 7190   2.330   4.058   6.311  0.3606  0.8914  0.2617
   55MOL0     C 7191   2.320   3.909   6.300  0.8852 -0.6345  0.1683
   55MOL0     C 7192   2.298   3.798   6.286  0.4599 -0.0016  0.4367
   55MOL0     C 7193   2.040   4.252   5.775 -0.4016 -0.9366 -0.3187
   55MOL0     C 7194   2.032   4.295   5.646 -0.5278 -0.2447  0.1347
   55MOL0     H 7195   1.881   4.065   5.121 -0.6045 -0.9335  4.1001
   55MOL0     H 7196   1.790   4.141   4.886  0.6227  0.1820  0.8688
   55MOL0     H 7197   1.659   4.535   4.877  1.0651  0.2523 -3.2868
   55MOL0     H 7198   1.495   4.480   4.883 -1.2458 -0.6559 -1.4335
   55MOL0     H 7199   1.524   4.437   4.625 -1.8175  0.4949  0.5546
   55MOL0     H 7200   1.689   4.488   4.643 -0.8334 -0.5837  0.2628
   55MOL0     H 7201   1.472   4.682   4.737 -0.2293  3.6259 -2.1316
   55MOL0     H 7202   1.497   4.659   4.565 -0.8658  2.9568  0.7050
   55MOL0     H 7203   1.684   4.782   4.769  0.5731  0.3822 -0.8851
   55MOL0     H 7204   1.746   4.720   4.615  0.1480  0.7854 -0.5604
   55MOL0     H 7205   1.609   4.870   4.482 -2.7252  2.9343 -0.3558
   55MOL0     H 7206   1.676   4.962   4.623  3.0137 -1.1471 -1.0792
   55MOL0     H 7207   1.442   4.930   4.728  0.1214 -5.3555 -0.8406
   55MOL0     H 7208   1.385   4.881   4.566 -1.5298 -0.4573  0.9942
   55MOL0     H 7209   1.345   5.114   4.620  0.1634  0.8162  0.9603
   55MOL0     H 7210   1.520   5.140   4.661  0.9389  0.6540 -0.4334
   55MOL0     H 7211   1.398   5.060   4.388  0.5120 -1.0990  0.9120
   55MOL0     H 7212   1.579   5.071   4.428  0.7188  0.5414 -0.6853
   55MOL0     H 7213   1.373   5.253   4.215  1.6626  2.1623 -4.0759
   55MOL0     H 7214   1.379   5.593   4.195  0.5983  1.3837 -1.1556
   55MOL0     H 7215   1.416   5.449   4.084  1.8696 -3.4840  2.2210
   55MOL0     H 7216   1.636   5.524   4.059 -0.8817 -0.6598  0.5712
   55MOL0     H 7217   1.613   5.655   4.189 -1.1517 -0.6882  2.0259
   55MOL0     H 7218   1.429   5.653   3.952 -1.4858  2.9764  0.7563
   55MOL0     H 7219   1.481   5.780   4.060 -0.9731 -2.0138  1.9819
   55MOL0     H 7220   1.719   5.756   3.948  0.5589 -4.0122 -0.3073
   55MOL0     H 7221   1.577   5.826   3.852 -1.4385 -1.5186 -0.3230
   55MOL0     H 7222   1.813   5.803   3.741 -0.9977 -1.4674  1.4625
   55MOL0     H 7223   1.888   5.829   3.499  2.3364 -2.7462 -0.7977
   55MOL0     H 7224   1.919   6.036   3.154  1.3161 -0.3498 -0.2644
   55MOL0     H 7225   2.049   6.080   2.958  0.6827  0.2887  0.2425
   55MOL0     H 7226   2.284   5.768   2.656  0.8779 -0.9011 -1.6166
   55MOL0     H 7227   2.296   5.715   2.827  2.5037  2.0650  2.0595
   55MOL0     H 7228   2.450   5.879   2.878  0.1840  1.2473 -0.1940
   55MOL0     H 7229   2.444   5.946   2.708  3.0133  0.0517  1.4338
   55MOL0     H 7230   2.533   5.709   2.640  2.3440  0.0926  0.1278
   55MOL0     H 7231   2.531   5.660   2.810 -0.1453  0.9511  2.3549
   55MOL0     H 7232   2.697   5.878   2.676  0.7633 -0.1493  1.1691
   55MOL0     H 7233   2.713   5.847   2.844 -2.0420 -2.7348  1.9807
   55MOL0     H 7234   2.784   5.610   2.799 -1.2499 -0.6890 -0.2397
   55MOL0     H 7235   2.899   5.732   2.722  1.3913 -1.8145  0.9376
   55MOL0     H 7236   2.770   5.712   2.524  1.5181  1.3887  0.9235
   55MOL0     H 7237   2.677   5.578   2.604 -0.1211  2.1643 -0.8272
   55MOL0     H 7238   2.874   5.529   2.422  0.4373 -0.8584 -0.3124
   55MOL0     H 7239   2.972   5.557   2.570 -0.3105 -1.1119  1.4313
   55MOL0     H 7240   2.905   5.299   2.534  0.0747  0.1754  0.2568
   55MOL0     H 7241   2.742   5.341   2.563  1.2645 -3.6348  0.3833
   55MOL0     H 7242   2.108   5.645   2.896 -2.0851 -0.9367 -0.0494
   55MOL0     H 7243   1.965   5.610   3.057 -0.7813 -0.3884  2.4866
   55MOL0     H 7244   1.648   5.481   3.405  0.5235 -1.2867  0.4502
   55MOL0     H 7245   1.617   5.454   3.653 -0.3733  1.2699  2.9631
   55MOL0     H 7246   1.584   4.454   5.079  0.1831  0.1102 -0.4754
   55MOL0     H 7247   1.655   4.392   5.301 -4.5969 -0.4959 -0.7200
   55MOL0     H 7248   1.877   4.015   5.522 -3.5369  1.6382 -0.7403
   55MOL0     H 7249   1.927   3.930   5.726 -0.3726  0.5004 -0.9085
   55MOL0     H 7250   1.985   4.210   6.110 -0.8306 -0.6664 -1.5053
   55MOL0     H 7251   2.133   4.245   6.010 -1.4656  0.9248  0.9044
   55MOL0     H 7252   2.118   3.974   6.140  0.4769 -0.2455  2.5576
   55MOL0     H 7253   2.247   4.071   6.055 -1.1096 -2.1193 -1.2549
   55MOL0     H 7254   2.117   4.105   6.329  0.3627 -0.0556  0.0653
   55MOL0     H 7255   2.203   4.241   6.254 -0.5952  0.5970 -2.9339
   55MOL0     H 7256   2.411   4.101   6.253  2.4997 -3.6585 -0.5503
   55MOL0     H 7257   2.358   4.067   6.416 -1.5441 -1.8175  1.1195
   55MOL0     H 7258   2.265   3.698   6.262 -1.7760  0.3107  1.9714
   55MOL0     H 7259   2.056   4.334   5.845 -2.6096 -0.6608 -0.0562
   55MOL0     H 7260   2.057   4.398   5.623 -1.7087 -0.1618 -0.8930
   56MOL0     O 7261   6.668   7.393   9.707 -0.7988  0.0519 -0.1971
   56MOL0     C 7262   6.671   7.499   9.769  0.3764 -0.0708  0.3367
   56MOL0     O 7263   6.605   7.526   9.890  0.8668  1.0318  0.7094
   56MOL0     C 7264   6.507   7.430   9.922  0.2900 -0.1161  0.5907
   56MOL0     C 7265   6.504   7.399  10.059 -0.1576  0.5586  1.0469
   56MOL0     C 7266   6.417   7.311  10.119  0.7920  0.6150 -0.1081
   56MOL0     C 7267   6.313   7.269  10.037 -0.1211  0.4673 -0.1197
   56MOL0     O 7268   6.228   7.185  10.103  0.0114  0.2525 -0.2606
   56MOL0     C 7269   6.091   7.224  10.103 -0.1991  0.4035  0.0179
   56MOL0     C 7270   6.054   7.349  10.179  0.3020  0.3886 -0.5226
   56MOL0     C 7271   6.097   7.346  10.330  0.4760 -0.3098 -0.2276
   56MOL0     C 7272   6.023   7.244  10.417  0.2122  0.3759  0.3307
   56MOL0     C 7273   6.044   7.274  10.565  0.4935 -0.1861  0.1151
   56MOL0     C 7274   5.943   7.375  10.613 -1.2387 -0.4516 -0.9804
   56MOL0     C 7275   5.821   7.305  10.655 -0.4438 -1.1173  0.2884
   56MOL0     C 7276   5.697   7.393  10.669  0.0583 -0.2844  0.1213
   56MOL0     N 7277   5.652   7.456  10.541  0.4314  0.1000  0.2566
   56MOL0     C 7278   5.639   7.588  10.510 -0.6335 -0.2541  0.2149
   56MOL0     C 7279   5.556   7.600  10.400 -0.0832  0.3284 -0.2357
   56MOL0     C 7280   5.510   7.729  10.335 -1.1142 -0.0862 -0.7003
   56MOL0     C 7281   5.554   7.743  10.187  0.4571 -0.0248 -0.3448
   56MOL0     C 7282   5.702   7.782  10.171  0.4082 -0.5082  0.2228
   56MOL0     C 7283   5.734   7.921  10.207  0.8800 -0.5361  0.4197
   56MOL0     O 7284   5.759   7.949  10.350 -0.8566  0.2670  0.0123
   56MOL0     C 7285   5.881   7.914  10.401 -0.5795 -0.8638  0.1197
   56MOL0     C 7286   5.902   7.953  10.539  0.2471  0.9445 -0.5220
   56MOL0     C 7287   6.026   7.948  10.592  0.4242 -0.5259  0.2439
   56MOL0     C 7288   6.133   7.897  10.513 -0.0367 -0.4288 -0.3344
   56MOL0     C 7289   6.271   7.874  10.575 -0.4142 -1.0010  1.2057
   56MOL0     O 7290   6.295   7.906  10.706  0.0771  0.3676  0.2181
   56MOL0     C 7291   6.409   7.857  10.776  0.0719  0.3655  0.2637
   56MOL0     C 7292   6.486   7.742  10.757  0.6863  0.0656  0.3126
   56MOL0     C 7293   6.571   7.695  10.857  0.3851 -0.6037  0.2735
   56MOL0     C 7294   6.604   7.770  10.967 -0.7568 -0.2146 -0.0014
   56MOL0     O 7295   6.702   7.726  11.050  0.1455 -1.1157 -0.1454
   56MOL0     C 7296   6.773   7.825  11.127  0.8588 -0.3106 -0.0558
   56MOL0     C 7297   6.924   7.788  11.149  0.9457 -0.4995  0.8224
   56MOL0     C 7298   6.952   7.653  11.212 -0.1329 -0.5382  0.7780
   56MOL0     C 7299   6.865   7.629  11.341 -1.0277 -0.3550  1.2810
   56MOL0     C 7300   6.865   7.498  11.414  0.2161 -0.6790 -0.3545
   56MOL0     C 7301   6.795   7.497  11.553  0.5868 -0.9991 -0.4167
   56MOL0     C 7302   6.648   7.509  11.553  0.7154 -0.5251  0.2188
   56MOL0     C 7303   6.584   7.399  11.626 -0.4944  0.3145  1.1057
   56MOL0    Cl 7304   6.630   7.396  11.803  0.1773 -0.1976 -0.1187
   56MOL0     C 7305   6.529   7.888  10.993 -0.8748  0.0257 -0.0527
   56MOL0     C 7306   6.436   7.930  10.895  0.1611  0.3035  0.4458
   56MOL0     O 7307   6.353   7.836  10.496 -0.6312 -0.0664  0.5783
   56MOL0     C 7308   6.108   7.857  10.377  0.7848 -0.1448  0.0910
   56MOL0     C 7309   5.985   7.875  10.324  0.1133  0.2264 -0.0672
   56MOL0     N 7310   5.506   7.470  10.384 -0.6005  0.3727  0.1134
   56MOL0     N 7311   5.565   7.388  10.467 -0.6800  0.7255  0.2496
   56MOL0     C 7312   6.306   7.302   9.900 -0.1888  0.1860  1.3998
   56MOL0     C 7313   6.400   7.382   9.841 -0.3255 -1.1473  0.2399
   56MOL0     C 7314   6.741   7.620   9.714 -0.5235 -0.2470 -0.4902
   56MOL0     C 7315   6.784   7.626   9.577 -0.2648  0.6535  0.4807
   56MOL0     C 7316   6.834   7.741   9.519 -0.7840 -0.0909  0.7220
   56MOL0     C 7317   6.849   7.856   9.600  0.3878  0.1453  0.6131
   56MOL0     O 7318   6.917   7.968   9.558  0.6948 -0.1738  0.1605
   56MOL0     C 7319   6.917   8.001   9.420 -0.2159  0.6152  0.0860
   56MOL0     C 7320   6.777   8.043   9.382  0.0322 -0.0532 -0.2609
   56MOL0     C 7321   6.761   8.113   9.238  0.3831  0.6482  0.1927
   56MOL0     C 7322   6.809   8.022   9.119  0.7815  0.4301 -0.5368
   56MOL0     C 7323   6.706   7.924   9.085 -0.8030 -0.4224  0.4758
   56MOL0     C 7324   6.605   7.852   9.068  0.0473 -0.9144  0.2779
   56MOL0     C 7325   6.803   7.850   9.739 -0.5758 -0.0485  0.7170
   56MOL0     C 7326   6.751   7.731   9.794 -0.6630  0.0819 -0.7276
   56MOL0     H 7327   6.567   7.458  10.126  1.7096  1.5646 -1.4235
   56MOL0     H 7328   6.408   7.281  10.223 -0.8734 -0.9227 -0.6466
   56MOL0     H 7329   6.016   7.147  10.121 -0.9039  0.4640 -2.2908
   56MOL0     H 7330   6.058   7.241  10.000 -0.9534 -1.7530 -0.1366
   56MOL0     H 7331   5.952   7.389  10.171 -0.3714 -1.4088 -1.5753
   56MOL0     H 7332   6.120   7.427  10.140  1.5356 -0.0908  0.5618
   56MOL0     H 7333   6.093   7.448  10.369  1.4594 -0.1206 -0.5864
   56MOL0     H 7334   6.202   7.318  10.342  0.2168 -1.3008 -0.1420
   56MOL0     H 7335   5.916   7.252  10.392  0.4635  1.1700 -0.5151
   56MOL0     H 7336   6.057   7.144  10.389  2.9016  1.7316 -1.6217
   56MOL0     H 7337   6.148   7.306  10.578  1.6316 -3.0610 -1.1969
   56MOL0     H 7338   6.031   7.183  10.623  0.7922 -0.9362 -0.9770
   56MOL0     H 7339   5.909   7.452  10.543  0.5733  1.1889 -0.1486
   56MOL0     H 7340   5.984   7.428  10.699 -2.4826 -2.0885  0.6911
   56MOL0     H 7341   5.795   7.233  10.577  0.5759 -0.0388 -1.0869
   56MOL0     H 7342   5.836   7.237  10.740  3.4136  1.9249  2.3999
   56MOL0     H 7343   5.731   7.462  10.745 -0.3757 -0.8912  0.8847
   56MOL0     H 7344   5.609   7.336  10.701  0.3588 -3.4711 -3.8273
   56MOL0     H 7345   5.697   7.667  10.556 -0.1401 -0.2982 -0.3207
   56MOL0     H 7346   5.556   7.801  10.403 -0.3931 -0.2863 -0.9724
   56MOL0     H 7347   5.402   7.745  10.344 -1.6490 -3.1414 -0.5970
   56MOL0     H 7348   5.487   7.819  10.145  1.2846  1.5643  1.0924
   56MOL0     H 7349   5.529   7.648  10.138 -3.3687  1.1248 -1.0016
   56MOL0     H 7350   5.766   7.716  10.230  2.6862  1.9489  0.6876
   56MOL0     H 7351   5.732   7.764  10.068 -1.7486 -0.1846 -0.5234
   56MOL0     H 7352   5.650   7.984  10.174  1.0695 -0.5252 -0.0396
   56MOL0     H 7353   5.812   7.961  10.141 -0.0386 -2.0672 -1.7087
   56MOL0     H 7354   5.822   8.003  10.592  1.0148  0.7625  0.8562
   56MOL0     H 7355   6.055   7.978  10.693  0.9636 -0.2722  0.0171
   56MOL0     H 7356   6.458   7.683  10.670 -0.4357 -1.2129  1.5038
   56MOL0     H 7357   6.619   7.598  10.847 -0.4817 -0.8993 -1.4828
   56MOL0     H 7358   6.728   7.842  11.225 -1.8909  0.3402 -1.3608
   56MOL0     H 7359   6.767   7.921  11.075  1.0085 -0.2506  0.0353
   56MOL0     H 7360   6.965   7.857  11.223 -0.7406  1.3013  0.1798
   56MOL0     H 7361   6.989   7.800  11.062 -0.6102  2.6868 -0.0685
   56MOL0     H 7362   7.058   7.633  11.234  0.0604 -3.0888 -1.8543
   56MOL0     H 7363   6.922   7.584  11.132 -1.7786  0.4837  0.4783
   56MOL0     H 7364   6.903   7.709  11.405 -1.2263  0.4240  0.4313
   56MOL0     H 7365   6.759   7.649  11.323 -1.8723 -2.6963  3.0315
   56MOL0     H 7366   6.970   7.469  11.425 -0.0050 -0.7572  2.1126
   56MOL0     H 7367   6.817   7.425  11.347  0.3596  1.2887 -2.7565
   56MOL0     H 7368   6.839   7.583  11.604  1.4537 -0.9523 -1.2138
   56MOL0     H 7369   6.827   7.411  11.613 -2.3586 -0.8208  1.5875
   56MOL0     H 7370   6.626   7.612  11.582  2.5805  0.0769 -0.3300
   56MOL0     H 7371   6.608   7.507  11.451  0.7048  1.3392  0.1484
   56MOL0     H 7372   6.610   7.303  11.581 -4.7030 -1.1791  1.4277
   56MOL0     H 7373   6.477   7.408  11.603 -0.3025 -1.1091 -0.4907
   56MOL0     H 7374   6.529   7.943  11.086  1.2410  0.9305 -0.5258
   56MOL0     H 7375   6.370   8.015  10.910  2.8105  2.4337  0.9988
   56MOL0     H 7376   6.184   7.806  10.319  2.1345 -0.9449  2.3952
   56MOL0     H 7377   5.973   7.863  10.217 -1.9445 -2.1089  0.3326
   56MOL0     H 7378   6.224   7.278   9.834  0.2740  3.5836 -0.6795
   56MOL0     H 7379   6.397   7.424   9.741 -3.6460 -0.6405  0.4340
   56MOL0     H 7380   6.781   7.538   9.513  1.9375  0.8141  0.0972
   56MOL0     H 7381   6.888   7.732   9.425 -0.1137  2.5397  0.7723
   56MOL0     H 7382   6.961   7.920   9.361  0.6102  0.9228  0.2764
   56MOL0     H 7383   6.981   8.084   9.390 -0.1425  0.4063 -0.3545
   56MOL0     H 7384   6.705   7.961   9.387  1.5414 -1.4133 -0.2561
   56MOL0     H 7385   6.747   8.119   9.454  1.4665  1.1368 -0.8681
   56MOL0     H 7386   6.826   8.201   9.232  0.4280  0.5845 -0.3066
   56MOL0     H 7387   6.656   8.138   9.223  0.2118 -1.2668 -2.4860
   56MOL0     H 7388   6.818   8.095   9.038  1.2941  1.5206  0.4519
   56MOL0     H 7389   6.900   7.968   9.148 -0.3822 -0.2679  2.1161
   56MOL0     H 7390   6.521   7.787   9.054 -1.3243  1.0524 -1.1854
   56MOL0     H 7391   6.821   7.941   9.794  3.1217  1.6007 -2.7041
   56MOL0     H 7392   6.718   7.733   9.897 -0.4244  0.1070 -0.6531
   57MOL0     O 7393   9.087   9.024   1.287  0.3297  1.1384 -0.1607
   57MOL0     C 7394   9.151   9.013   1.393  0.3550 -0.0334  0.9962
   57MOL0     O 7395   9.200   8.892   1.450  0.0708  0.5542  0.2813
   57MOL0     C 7396   9.147   8.768   1.399  0.4023 -0.8919  0.1716
   57MOL0     C 7397   9.093   8.670   1.490 -0.1601  0.6268 -0.4208
   57MOL0     C 7398   9.041   8.543   1.452  0.6964  1.1490 -0.4931
   57MOL0     C 7399   9.026   8.515   1.314  0.0331 -0.0041 -0.6439
   57MOL0     O 7400   8.958   8.395   1.290 -0.1165  0.7908 -0.4777
   57MOL0     C 7401   8.929   8.364   1.149 -0.5973 -0.8653  0.6993
   57MOL0     C 7402   8.897   8.227   1.099  0.9681 -0.5084 -0.9075
   57MOL0     C 7403   8.759   8.183   1.154 -1.0384  0.0432 -0.6086
   57MOL0     C 7404   8.654   8.163   1.053 -0.2461  0.4690  0.2581
   57MOL0     C 7405   8.521   8.117   1.113 -0.0875  0.0929 -0.4468
   57MOL0     C 7406   8.408   8.150   1.005  0.0546  0.2292 -0.8285
   57MOL0     C 7407   8.272   8.081   1.031 -0.0649 -0.9251 -0.1726
   57MOL0     C 7408   8.164   8.142   0.928  0.6407  0.2753  0.8781
   57MOL0     N 7409   8.037   8.075   0.970  0.0608  0.6483  0.1790
   57MOL0     C 7410   7.932   8.111   1.054 -0.1705  0.6779  0.3722
   57MOL0     C 7411   7.844   8.012   1.047 -0.0308  0.5061  0.2532
   57MOL0     C 7412   7.716   8.013   1.135  1.2354 -0.0062  0.1932
   57MOL0     C 7413   7.602   7.931   1.078 -0.1259  0.0727 -0.3181
   57MOL0     C 7414   7.470   7.943   1.153 -0.7236 -0.0726 -0.9020
   57MOL0     C 7415   7.465   7.896   1.296 -0.3399  0.2052  0.3046
   57MOL0     O 7416   7.340   7.899   1.369  0.3891 -0.1908 -0.4184
   57MOL0     C 7417   7.223   7.855   1.319  0.1927  0.0171  0.4966
   57MOL0     C 7418   7.115   7.934   1.316 -0.0174  0.4885  1.0930
   57MOL0     C 7419   6.990   7.876   1.272 -0.4421  0.5828  0.5579
   57MOL0     C 7420   6.986   7.755   1.214  1.0486  0.5490 -0.5482
   57MOL0     C 7421   6.859   7.721   1.150  0.0337 -0.1866 -0.8227
   57MOL0     O 7422   6.754   7.800   1.188  0.5823 -0.0550  0.7890
   57MOL0     C 7423   6.636   7.755   1.136 -0.2180 -0.0852  0.5334
   57MOL0     C 7424   6.595   7.785   1.000  0.3581 -0.0012  0.2134
   57MOL0     C 7425   6.471   7.739   0.960  0.7454 -0.3638 -0.6746
   57MOL0     C 7426   6.381   7.682   1.052  0.4162  2.0217  0.4621
   57MOL0     O 7427   6.253   7.650   1.011 -0.4400  0.3578 -0.0068
   57MOL0     C 7428   6.154   7.624   1.111 -0.4467  0.3454 -0.0929
   57MOL0     C 7429   6.033   7.593   1.030  0.4860 -0.3137 -1.0264
   57MOL0     C 7430   6.026   7.445   0.989  0.5489  0.1177 -0.1938
   57MOL0     C 7431   5.884   7.405   0.943 -0.3945 -0.7967 -0.4574
   57MOL0     C 7432   5.861   7.263   0.905 -0.8063  1.0389 -0.7759
   57MOL0     C 7433   5.956   7.165   0.972 -0.8401 -0.4721 -0.7858
   57MOL0     C 7434   5.932   7.015   0.931 -0.1687  0.2742  0.4782
   57MOL0     C 7435   5.795   6.945   0.931  0.5952 -1.1476 -0.9515
   57MOL0    Cl 7436   5.703   6.967   1.086 -0.4409 -0.6749 -0.3024
   57MOL0     C 7437   6.415   7.662   1.186  0.8111  0.2513  0.7861
   57MOL0     C 7438   6.545   7.700   1.223  0.2210  0.2280  0.7053
   57MOL0     O 7439   6.860   7.624   1.067  0.1887  0.2178 -1.0846
   57MOL0     C 7440   7.103   7.685   1.208 -0.1368  0.5102 -0.9427
   57MOL0     C 7441   7.223   7.731   1.261 -0.1510  0.0261 -0.3931
   57MOL0     N 7442   7.881   7.917   0.952  0.2488  0.0418  0.1603
   57MOL0     N 7443   7.997   7.952   0.911  0.5558  0.3837  0.1685
   57MOL0     C 7444   9.052   8.622   1.222 -0.2549  0.0938  0.6010
   57MOL0     C 7445   9.102   8.745   1.262  0.3259 -0.0685 -0.6310
   57MOL0     C 7446   9.170   9.143   1.464  1.0675  0.1836  0.0386
   57MOL0     C 7447   9.266   9.145   1.572  0.5752 -0.9366  0.7747
   57MOL0     C 7448   9.278   9.267   1.634 -0.6487 -0.2087 -0.3235
   57MOL0     C 7449   9.202   9.382   1.617 -0.0278  0.1904  0.1336
   57MOL0     O 7450   9.228   9.488   1.699 -0.2867 -0.1381  0.2587
   57MOL0     C 7451   9.188   9.616   1.655  0.2300 -0.3915 -0.0019
   57MOL0     C 7452   9.066   9.669   1.747  0.2333 -0.0950  1.5340
   57MOL0     C 7453   9.105   9.674   1.897  0.0811  0.2409 -0.3866
   57MOL0     C 7454   9.203   9.793   1.930 -0.8021 -0.0851 -0.1768
   57MOL0     C 7455   9.137   9.919   1.961  0.3631 -0.8531 -0.1808
   57MOL0     C 7456   9.106  10.038   1.980 -0.4424 -0.2164  0.3003
   57MOL0     C 7457   9.101   9.374   1.515 -0.2416  0.0792  0.2444
   57MOL0     C 7458   9.079   9.261   1.450  0.6073  0.8708 -0.0514
   57MOL0     H 7459   9.123   8.711   1.586 -2.2887 -0.6074  0.8295
   57MOL0     H 7460   9.023   8.469   1.529  0.7976  0.7419 -0.8613
   57MOL0     H 7461   9.026   8.381   1.102 -1.5093 -2.5005 -1.9909
   57MOL0     H 7462   8.849   8.433   1.121 -1.2366 -0.6857  2.7931
   57MOL0     H 7463   8.971   8.150   1.121  1.1253  0.3932  2.1386
   57MOL0     H 7464   8.890   8.233   0.990  0.1214  0.3312 -0.8262
   57MOL0     H 7465   8.723   8.253   1.230 -0.4557 -0.2968 -0.0061
   57MOL0     H 7466   8.771   8.082   1.195 -0.1441 -0.7897 -2.7665
   57MOL0     H 7467   8.637   8.254   0.995 -1.0384  1.3770  1.8375
   57MOL0     H 7468   8.694   8.080   0.994 -1.0551  0.7133 -0.6602
   57MOL0     H 7469   8.495   8.169   1.206 -0.9292 -1.8410  0.4437
   57MOL0     H 7470   8.519   8.008   1.121  1.1269  0.0521 -0.4209
   57MOL0     H 7471   8.437   8.121   0.904  0.7608  1.5362 -1.0108
   57MOL0     H 7472   8.397   8.258   1.008  3.1942  0.6379  1.9224
   57MOL0     H 7473   8.264   7.972   1.020  1.4642 -1.2143  1.3016
   57MOL0     H 7474   8.236   8.114   1.129 -1.5323  0.8244 -1.2345
   57MOL0     H 7475   8.183   8.112   0.825  3.3125 -1.3492  1.7111
   57MOL0     H 7476   8.164   8.251   0.930 -0.5804  0.4589 -2.6114
   57MOL0     H 7477   7.921   8.189   1.129 -2.5351 -1.9946  3.0674
   57MOL0     H 7478   7.671   8.112   1.128 -1.8052 -1.3463 -5.0444
   57MOL0     H 7479   7.730   7.994   1.241 -1.7478  1.1119  0.8964
   57MOL0     H 7480   7.635   7.828   1.064 -0.7946 -0.4587  1.6934
   57MOL0     H 7481   7.577   7.972   0.979 -1.5350 -0.6086 -0.2763
   57MOL0     H 7482   7.441   8.048   1.146  0.1928  0.1518 -1.3745
   57MOL0     H 7483   7.390   7.883   1.109 -4.3633  0.3001  4.1860
   57MOL0     H 7484   7.537   7.961   1.348  1.5391  1.8550 -3.8679
   57MOL0     H 7485   7.504   7.794   1.298 -0.1677  0.2544 -0.4080
   57MOL0     H 7486   7.124   8.036   1.352  3.2537  0.3973  0.7934
   57MOL0     H 7487   6.910   7.950   1.266  2.1790  3.5015 -0.9950
   57MOL0     H 7488   6.664   7.827   0.927 -0.2008  1.8824  0.7153
   57MOL0     H 7489   6.444   7.735   0.855 -3.6696 -1.6807  0.3004
   57MOL0     H 7490   6.138   7.717   1.167  1.0009  0.5416  0.0205
   57MOL0     H 7491   6.176   7.540   1.177  0.2345 -1.3094 -2.3352
   57MOL0     H 7492   6.025   7.664   0.948 -0.0635  1.4863  0.4973
   57MOL0     H 7493   5.945   7.624   1.088  0.7804 -0.0302 -0.7239
   57MOL0     H 7494   6.044   7.370   1.067 -0.4615 -0.6235 -0.6373
   57MOL0     H 7495   6.091   7.428   0.902 -1.4720 -0.2830 -1.7137
   57MOL0     H 7496   5.832   7.432   1.036  0.8275  0.0234  0.0194
   57MOL0     H 7497   5.833   7.466   0.868 -0.3446 -1.1554 -0.7848
   57MOL0     H 7498   5.881   7.248   0.798 -1.5695  1.7391 -1.0248
   57MOL0     H 7499   5.756   7.235   0.918 -0.3273 -0.7873 -0.6112
   57MOL0     H 7500   5.931   7.178   1.078 -0.5433 -1.1325 -0.6248
   57MOL0     H 7501   6.060   7.188   0.949 -0.6425  0.0750  0.5633
   57MOL0     H 7502   5.956   7.017   0.824 -0.0642  1.2964  0.5082
   57MOL0     H 7503   6.008   6.958   0.984 -0.9257  1.2628  2.7770
   57MOL0     H 7504   5.818   6.841   0.906  0.3293 -0.7632 -2.9158
   57MOL0     H 7505   5.735   6.984   0.849 -0.1400  3.6655  1.5328
   57MOL0     H 7506   6.349   7.624   1.263 -0.9135  1.5133  0.0002
   57MOL0     H 7507   6.571   7.673   1.324 -1.6899 -4.9487  0.1302
   57MOL0     H 7508   7.121   7.585   1.169  0.5624  0.0292  0.4985
   57MOL0     H 7509   7.312   7.668   1.262 -1.3815 -1.8927 -2.3951
   57MOL0     H 7510   9.021   8.595   1.122 -0.7928 -1.5429  1.1697
   57MOL0     H 7511   9.124   8.818   1.185  0.0767  0.5050 -0.1659
   57MOL0     H 7512   9.337   9.063   1.583 -0.2690 -1.3714  4.6332
   57MOL0     H 7513   9.350   9.273   1.715 -1.5827 -0.9928  0.5786
   57MOL0     H 7514   9.168   9.636   1.549  2.6424  1.6018 -0.1723
   57MOL0     H 7515   9.276   9.679   1.669  0.7896 -1.1781  0.0947
   57MOL0     H 7516   9.018   9.756   1.703  0.7051 -1.3996 -1.8982
   57MOL0     H 7517   8.985   9.597   1.735  0.7535 -0.4501 -0.1950
   57MOL0     H 7518   9.141   9.576   1.928  1.6375  0.4046 -1.5585
   57MOL0     H 7519   9.019   9.689   1.963 -1.3762  0.2945 -2.2023
   57MOL0     H 7520   9.254   9.769   2.024 -0.4319  1.1450 -0.0432
   57MOL0     H 7521   9.279   9.808   1.852 -1.4830 -1.8614 -1.2380
   57MOL0     H 7522   9.083  10.141   1.997  0.6046  0.0869 -0.0538
   57MOL0     H 7523   9.029   9.451   1.492 -0.6517 -0.2807  0.3114
   57MOL0     H 7524   8.997   9.269   1.379  0.9680  2.6865 -0.3167
   58MOL0     O 7525   5.240   8.518   5.462 -0.1136  0.4183 -0.2043
   58MOL0     C 7526   5.204   8.414   5.416 -0.0023  0.3580  0.6226
   58MOL0     O 7527   5.075   8.377   5.372  0.1983 -0.6624  0.2593
   58MOL0     C 7528   4.974   8.465   5.387 -0.5275 -0.6730 -0.4118
   58MOL0     C 7529   4.897   8.470   5.500  0.3142  0.0594 -0.4043
   58MOL0     C 7530   4.785   8.560   5.515 -0.2270 -0.4594 -0.7329
   58MOL0     C 7531   4.777   8.668   5.438 -1.5634  0.9154  0.2815
   58MOL0     O 7532   4.697   8.764   5.485 -0.2919 -0.3198 -0.3892
   58MOL0     C 7533   4.747   8.902   5.472  0.2808 -0.3341 -0.1615
   58MOL0     C 7534   4.661   9.005   5.547 -0.4868 -0.4137 -0.2898
   58MOL0     C 7535   4.511   9.013   5.514  0.8061  1.1262  0.2493
   58MOL0     C 7536   4.428   8.901   5.578  0.3669  0.4904 -0.3097
   58MOL0     C 7537   4.283   8.921   5.635 -0.8159 -0.2120 -0.2162
   58MOL0     C 7538   4.229   8.797   5.683  1.5046 -0.7463 -0.2053
   58MOL0     C 7539   4.227   8.798   5.842 -0.4596 -0.2160 -0.2514
   58MOL0     C 7540   4.362   8.779   5.905  0.7025  0.0498  0.2937
   58MOL0     N 7541   4.373   8.675   6.013 -0.5000 -0.4177 -0.9680
   58MOL0     C 7542   4.493   8.637   6.074 -0.1468  0.5897 -0.5605
   58MOL0     C 7543   4.449   8.591   6.192  0.0497  0.8416 -0.5327
   58MOL0     C 7544   4.529   8.524   6.308 -0.5602  1.3067  0.1861
   58MOL0     C 7545   4.619   8.647   6.356 -0.0475  0.5150 -0.3623
   58MOL0     C 7546   4.681   8.619   6.500 -0.2264  0.5411  0.6864
   58MOL0     C 7547   4.773   8.705   6.556 -0.2088 -1.6488 -0.3757
   58MOL0     O 7548   4.902   8.708   6.496 -0.9568  0.0928  0.9159
   58MOL0     C 7549   4.988   8.814   6.539  0.3785  1.0358  0.3378
   58MOL0     C 7550   5.118   8.797   6.505 -0.7519  0.4684 -0.5152
   58MOL0     C 7551   5.207   8.893   6.551 -0.0276 -1.6415 -0.2495
   58MOL0     C 7552   5.178   9.007   6.624  0.0250 -0.7301  0.2513
   58MOL0     C 7553   5.281   9.122   6.655 -0.0388  0.3424 -0.3205
   58MOL0     O 7554   5.411   9.108   6.615 -1.0991 -0.3561  0.0077
   58MOL0     C 7555   5.506   9.202   6.656  0.1650  0.1435 -0.7830
   58MOL0     C 7556   5.530   9.221   6.786  0.2804  0.9273 -0.2225
   58MOL0     C 7557   5.627   9.315   6.820  0.0665  0.0483  0.9149
   58MOL0     C 7558   5.696   9.386   6.719 -0.9331  0.2020 -0.4626
   58MOL0     O 7559   5.796   9.480   6.727  1.3456 -0.2960 -0.0114
   58MOL0     C 7560   5.866   9.510   6.847 -0.1477 -0.5133  0.0543
   58MOL0     C 7561   5.999   9.577   6.809  0.4336  0.2310 -0.2490
   58MOL0     C 7562   6.069   9.639   6.925  0.1917 -1.1331 -0.4822
   58MOL0     C 7563   6.125   9.531   7.026  0.3791 -0.6922  0.0837
   58MOL0     C 7564   6.203   9.611   7.136  0.9609  0.4082  0.7658
   58MOL0     C 7565   6.251   9.549   7.266 -0.4912  0.9204 -1.2867
   58MOL0     C 7566   6.141   9.478   7.342 -0.5689  0.0311 -0.4553
   58MOL0     C 7567   6.187   9.427   7.477 -0.0270 -0.1721 -0.2621
   58MOL0    Cl 7568   6.050   9.351   7.554  0.3153 -0.0890 -0.1418
   58MOL0     C 7569   5.670   9.355   6.582  0.5622 -0.0947 -0.0894
   58MOL0     C 7570   5.573   9.265   6.551  0.2625 -0.1116  0.4246
   58MOL0     O 7571   5.234   9.206   6.732  0.3243 -0.3112 -1.2395
   58MOL0     C 7572   5.042   9.021   6.653 -0.0254  0.1612 -0.5975
   58MOL0     C 7573   4.949   8.925   6.620 -1.4027 -0.0624  0.7962
   58MOL0     N 7574   4.315   8.599   6.209 -0.0862  0.9698  0.6453
   58MOL0     N 7575   4.272   8.640   6.097 -0.8620 -0.9266  0.0176
   58MOL0     C 7576   4.844   8.659   5.314  0.7691  1.0391 -0.1301
   58MOL0     C 7577   4.935   8.551   5.287 -0.7110  0.0105 -0.6684
   58MOL0     C 7578   5.304   8.310   5.402  0.5867  0.3865  0.2516
   58MOL0     C 7579   5.443   8.329   5.402  0.6986  1.2085  0.3110
   58MOL0     C 7580   5.549   8.236   5.372 -0.3039 -1.2385  0.1923
   58MOL0     C 7581   5.511   8.107   5.332 -0.6732 -0.0794  0.3450
   58MOL0     O 7582   5.616   8.018   5.302 -0.2190 -0.0236  0.1021
   58MOL0     C 7583   5.585   7.894   5.241  0.0207 -0.6074 -0.4626
   58MOL0     C 7584   5.720   7.815   5.245  0.5654  0.0220  0.0664
   58MOL0     C 7585   5.703   7.676   5.174 -0.3672 -0.3781 -0.4764
   58MOL0     C 7586   5.818   7.576   5.201 -0.3369  0.6212 -0.1295
   58MOL0     C 7587   5.952   7.629   5.145  1.1442 -0.1912 -0.9427
   58MOL0     C 7588   6.048   7.679   5.094 -0.0444 -0.3419 -0.1180
   58MOL0     C 7589   5.374   8.077   5.328 -0.5773  0.0535 -0.5686
   58MOL0     C 7590   5.272   8.171   5.375 -0.0157 -0.2789 -0.0364
   58MOL0     H 7591   4.914   8.396   5.577 -1.0741 -0.8152 -0.8870
   58MOL0     H 7592   4.730   8.544   5.607  1.0476  3.0461  0.8003
   58MOL0     H 7593   4.747   8.939   5.369  3.2178 -0.0619 -0.1499
   58MOL0     H 7594   4.838   8.907   5.532 -2.3316  0.8614  4.1160
   58MOL0     H 7595   4.685   9.109   5.527 -0.5332  0.0869  2.0282
   58MOL0     H 7596   4.676   8.992   5.654  0.5443 -2.0648 -0.5927
   58MOL0     H 7597   4.495   9.018   5.406 -0.0788 -0.3877  0.2845
   58MOL0     H 7598   4.472   9.109   5.549  3.0599  1.9546  0.6706
   58MOL0     H 7599   4.430   8.812   5.514 -1.3635 -0.3849  0.7820
   58MOL0     H 7600   4.487   8.888   5.669  3.0593 -2.0988 -2.2142
   58MOL0     H 7601   4.234   8.952   5.542  1.4947  0.3927 -1.3043
   58MOL0     H 7602   4.289   9.003   5.707 -2.0592  2.5247 -3.0011
   58MOL0     H 7603   4.274   8.704   5.647 -0.3164 -2.2428  1.1528
   58MOL0     H 7604   4.125   8.789   5.650 -0.0342  0.6771  3.7366
   58MOL0     H 7605   4.180   8.893   5.868 -0.3802 -0.1474 -0.3547
   58MOL0     H 7606   4.156   8.720   5.871 -3.6881  2.0789 -1.3917
   58MOL0     H 7607   4.402   8.879   5.927  0.0057  1.3697 -3.6940
   58MOL0     H 7608   4.434   8.738   5.833 -0.0088  0.8804 -0.9243
   58MOL0     H 7609   4.599   8.642   6.048  0.0733 -1.3577 -0.1767
   58MOL0     H 7610   4.594   8.445   6.267 -1.9146  0.9321 -1.3706
   58MOL0     H 7611   4.474   8.465   6.382 -0.6077 -1.4442 -1.8695
   58MOL0     H 7612   4.556   8.734   6.375  0.1978  0.8201 -0.9163
   58MOL0     H 7613   4.706   8.658   6.290  0.9347 -1.4595  0.5023
   58MOL0     H 7614   4.602   8.622   6.576  1.2967 -4.7380  2.9232
   58MOL0     H 7615   4.714   8.515   6.514  0.1591 -0.2601 -4.4081
   58MOL0     H 7616   4.774   8.696   6.665 -1.5966 -1.5517 -0.3331
   58MOL0     H 7617   4.734   8.806   6.537  1.7730 -0.6285  0.6813
   58MOL0     H 7618   5.143   8.702   6.458  2.2508  0.6447  0.4940
   58MOL0     H 7619   5.307   8.872   6.514  0.1277 -2.1230  0.4296
   58MOL0     H 7620   5.478   9.170   6.866  0.5172  0.2584 -0.4838
   58MOL0     H 7621   5.652   9.327   6.925 -1.6321 -1.9178  1.6191
   58MOL0     H 7622   5.889   9.424   6.911 -0.1126  0.1066  0.9016
   58MOL0     H 7623   5.814   9.587   6.905  1.7277  1.6935 -1.0247
   58MOL0     H 7624   5.992   9.654   6.732  1.5260  0.8872  0.2862
   58MOL0     H 7625   6.062   9.496   6.771 -1.4280 -1.3748 -0.0798
   58MOL0     H 7626   6.002   9.704   6.983  2.2955  2.0126 -1.3137
   58MOL0     H 7627   6.139   9.715   6.890 -0.5496 -0.7545 -1.1595
   58MOL0     H 7628   6.039   9.479   7.069 -1.1637  1.9637  0.4412
   58MOL0     H 7629   6.193   9.467   6.969  2.2807  1.8242 -0.6946
   58MOL0     H 7630   6.137   9.698   7.148 -5.9765 -3.7101 -1.4128
   58MOL0     H 7631   6.293   9.650   7.088  0.4828  2.8258  1.7128
   58MOL0     H 7632   6.293   9.635   7.318  0.6830  0.3497 -1.2643
   58MOL0     H 7633   6.325   9.470   7.253 -1.7495 -0.9106  1.6065
   58MOL0     H 7634   6.052   9.541   7.345  0.3586  1.3629  0.5130
   58MOL0     H 7635   6.099   9.389   7.296 -3.4327  0.7313  0.6099
   58MOL0     H 7636   6.229   9.507   7.538 -0.1092  0.2181 -0.7129
   58MOL0     H 7637   6.263   9.349   7.468  0.5999 -0.2365  3.6979
   58MOL0     H 7638   5.716   9.412   6.502  1.5135 -1.3029 -0.4274
   58MOL0     H 7639   5.551   9.242   6.447  2.6095  0.3818 -0.2365
   58MOL0     H 7640   4.997   9.099   6.714  0.2110  0.5425 -0.9020
   58MOL0     H 7641   4.850   8.943   6.662 -1.4846  1.1079  0.1311
   58MOL0     H 7642   4.823   8.728   5.233  1.1053  1.3980  0.0882
   58MOL0     H 7643   4.991   8.531   5.196 -0.4968 -1.8270 -0.1679
   58MOL0     H 7644   5.481   8.430   5.415 -1.6894  2.5712 -2.1951
   58MOL0     H 7645   5.655   8.261   5.370 -0.9237  2.1498  1.9375
   58MOL0     H 7646   5.537   7.912   5.144 -0.7118 -2.1459 -0.3980
   58MOL0     H 7647   5.502   7.839   5.285  0.1711 -1.4014 -1.1463
   58MOL0     H 7648   5.785   7.879   5.185 -1.5056  2.2976  0.1201
   58MOL0     H 7649   5.756   7.811   5.348 -0.5567  0.9000  0.5085
   58MOL0     H 7650   5.688   7.680   5.066  0.9678 -4.5191 -0.9598
   58MOL0     H 7651   5.602   7.643   5.200 -1.2926  2.3889 -0.2139
   58MOL0     H 7652   5.818   7.545   5.305  1.0352 -2.9697 -1.0646
   58MOL0     H 7653   5.811   7.480   5.149  0.0869  0.5992 -0.1561
   58MOL0     H 7654   6.122   7.728   5.034 -0.6159 -1.1850 -1.5626
   58MOL0     H 7655   5.345   7.976   5.303  0.4637 -0.3760 -0.1058
   58MOL0     H 7656   5.168   8.139   5.377 -0.1841  0.1861  3.0064
   59MOL0     O 7657   9.601  10.124   0.847 -0.3700 -0.1997  0.6681
   59MOL0     C 7658   9.625  10.241   0.853 -0.8091  0.0475 -0.1269
   59MOL0     O 7659   9.697  10.314   0.760  0.1938  0.1587 -0.2890
   59MOL0     C 7660   9.768  10.246   0.668 -0.1235 -0.2758  0.2939
   59MOL0     C 7661   9.873  10.167   0.691  1.0164  0.5191  0.3962
   59MOL0     C 7662   9.963  10.126   0.588  0.4366  0.2028  1.1594
   59MOL0     C 7663   9.921  10.153   0.453  0.4105 -0.1015 -0.6247
   59MOL0     O 7664  10.011  10.113   0.356  0.2517 -0.4467  0.5749
   59MOL0     C 7665  10.004  10.190   0.237  0.1501  0.0177 -0.7781
   59MOL0     C 7666  10.116  10.120   0.153  0.2377 -0.6153  0.8930
   59MOL0     C 7667  10.074  10.142   0.005  0.5906 -0.2604 -0.0564
   59MOL0     C 7668  10.189  10.102  -0.089  0.0963  0.1914  0.4719
   59MOL0     C 7669  10.180  10.165  -0.228 -0.3521  0.5861 -0.8170
   59MOL0     C 7670  10.288  10.109  -0.323 -0.4523 -0.3464  0.1465
   59MOL0     C 7671  10.293  10.166  -0.469  0.8424  0.4091 -0.4707
   59MOL0     C 7672  10.406  10.086  -0.540  1.1732  0.2276  0.4105
   59MOL0     N 7673  10.448  10.124  -0.677  0.1501  0.5287 -0.3446
   59MOL0     C 7674  10.471  10.250  -0.716  0.6795 -0.0855  0.8329
   59MOL0     C 7675  10.503  10.248  -0.848 -1.6848 -0.1477  0.2192
   59MOL0     C 7676  10.535  10.381  -0.924  1.0887 -0.0014 -0.6958
   59MOL0     C 7677  10.687  10.416  -0.912 -0.9511 -0.0141  0.7076
   59MOL0     C 7678  10.764  10.323  -1.003 -0.3316  0.3802  0.0256
   59MOL0     C 7679  10.906  10.369  -1.010 -0.3556  0.3603  0.2734
   59MOL0     O 7680  10.983  10.334  -1.128  0.2322  0.3495  0.3574
   59MOL0     C 7681  11.118  10.377  -1.136  0.0417  0.1368  0.4235
   59MOL0     C 7682  11.192  10.444  -1.033  1.4064 -0.7778  0.4725
   59MOL0     C 7683  11.323  10.487  -1.065  0.7182 -0.3999 -0.4536
   59MOL0     C 7684  11.395  10.442  -1.181 -0.5823 -0.0055 -0.6948
   59MOL0     C 7685  11.534  10.494  -1.199  0.5396  0.2820  0.1018
   59MOL0     O 7686  11.602  10.540  -1.087 -0.4395 -0.5126 -0.1520
   59MOL0     C 7687  11.733  10.578  -1.100 -1.2765  0.8933  0.1743
   59MOL0     C 7688  11.823  10.498  -1.020 -0.2310 -0.6653  0.3721
   59MOL0     C 7689  11.960  10.513  -1.037 -0.0519 -0.3595  0.9031
   59MOL0     C 7690  12.010  10.601  -1.143 -0.7921 -0.5995  0.8508
   59MOL0     O 7691  12.145  10.617  -1.180  0.4067  0.3838  0.1432
   59MOL0     C 7692  12.243  10.550  -1.109 -0.5292 -0.4101  0.3970
   59MOL0     C 7693  12.257  10.605  -0.968  0.3354 -0.0184  0.0065
   59MOL0     C 7694  12.364  10.551  -0.880 -0.9200  0.6880  0.3162
   59MOL0     C 7695  12.324  10.419  -0.801  0.3665 -0.3870  0.4819
   59MOL0     C 7696  12.444  10.344  -0.733  0.0431  0.1673 -0.1728
   59MOL0     C 7697  12.529  10.424  -0.632 -0.1398 -0.0599  0.6869
   59MOL0     C 7698  12.655  10.352  -0.600  0.0105  0.3992  0.9296
   59MOL0     C 7699  12.720  10.392  -0.470  0.0559 -0.9115 -0.7915
   59MOL0    Cl 7700  12.641  10.310  -0.327 -0.0702 -0.0389 -0.2489
   59MOL0     C 7701  11.917  10.683  -1.217  0.7932  0.6150 -0.2124
   59MOL0     C 7702  11.780  10.669  -1.195  0.3500  0.2816  0.1883
   59MOL0     O 7703  11.583  10.479  -1.309 -0.5037  0.0716  0.8337
   59MOL0     C 7704  11.312  10.387  -1.282 -0.3840 -0.8285 -0.1017
   59MOL0     C 7705  11.185  10.348  -1.254 -0.2964 -0.0979  0.1851
   59MOL0     N 7706  10.532  10.121  -0.879 -0.0602  0.3245  0.3649
   59MOL0     N 7707  10.497  10.041  -0.775 -0.8056 -0.3017 -0.1787
   59MOL0     C 7708   9.806  10.229   0.425  0.4450  0.5433  0.9491
   59MOL0     C 7709   9.732  10.276   0.535  0.2264 -0.5587  0.5267
   59MOL0     C 7710   9.572  10.303   0.974  0.1835 -0.4821  0.0793
   59MOL0     C 7711   9.639  10.411   1.014  1.5393  0.5195 -0.4392
   59MOL0     C 7712   9.603  10.467   1.141  0.0203 -0.6878 -0.6953
   59MOL0     C 7713   9.516  10.404   1.222 -0.3657 -1.6554  0.0458
   59MOL0     O 7714   9.499  10.433   1.359 -0.3669  0.5258  0.0854
   59MOL0     C 7715   9.603  10.496   1.441  0.0293 -0.6830  1.1330
   59MOL0     C 7716   9.590  10.646   1.438 -0.2898  0.8143  0.0916
   59MOL0     C 7717   9.708  10.705   1.519  0.1180 -0.4057 -0.3617
   59MOL0     C 7718   9.678  10.840   1.579  0.2195  0.4754  0.2983
   59MOL0     C 7719   9.793  10.921   1.619  0.4014  0.3528 -0.2011
   59MOL0     C 7720   9.890  10.995   1.643  0.2407 -0.9246 -0.4759
   59MOL0     C 7721   9.442  10.305   1.174  0.1854  0.7501  0.3894
   59MOL0     C 7722   9.468  10.252   1.052  0.2015 -0.8441  0.2907
   59MOL0     H 7723   9.913  10.147   0.790  1.9821  0.9177  0.0946
   59MOL0     H 7724  10.054  10.071   0.609  1.4751  0.4355 -2.1179
   59MOL0     H 7725  10.025  10.293   0.269 -2.8714 -0.2462  2.7556
   59MOL0     H 7726   9.909  10.185   0.185 -0.8557  0.0465  0.9699
   59MOL0     H 7727  10.116  10.014   0.177  3.4134 -0.4212  2.1059
   59MOL0     H 7728  10.219  10.154   0.167  0.2953 -1.1831  1.9010
   59MOL0     H 7729  10.047  10.248  -0.004 -1.2712 -0.2340  3.6328
   59MOL0     H 7730   9.982  10.087  -0.018 -0.1045  0.9301 -0.2096
   59MOL0     H 7731  10.290  10.115  -0.048  0.9578 -0.5593 -1.3085
   59MOL0     H 7732  10.193   9.993  -0.094 -1.1263  0.1945 -2.2866
   59MOL0     H 7733  10.196  10.273  -0.224  2.2452  0.2441  2.6203
   59MOL0     H 7734  10.078  10.133  -0.251 -0.6010 -0.7354  1.7321
   59MOL0     H 7735  10.279  10.001  -0.310  0.8314 -0.1292  4.3637
   59MOL0     H 7736  10.383  10.132  -0.273 -1.1028  0.0558  1.2464
   59MOL0     H 7737  10.201  10.154  -0.527 -0.2469 -2.2579  1.6480
   59MOL0     H 7738  10.322  10.272  -0.463  0.3066  0.7614 -2.8823
   59MOL0     H 7739  10.396   9.977  -0.529  0.6488  0.2709  0.3575
   59MOL0     H 7740  10.499  10.112  -0.488  0.6894  0.3712  1.2093
   59MOL0     H 7741  10.456  10.334  -0.650 -0.5303 -1.1987  2.0268
   59MOL0     H 7742  10.473  10.462  -0.885 -2.0934 -2.6453  0.1374
   59MOL0     H 7743  10.496  10.378  -1.026 -0.2572  2.2244 -0.2991
   59MOL0     H 7744  10.726  10.420  -0.810 -3.1319 -0.1530  1.5998
   59MOL0     H 7745  10.704  10.513  -0.960 -1.5336 -0.6261 -0.7806
   59MOL0     H 7746  10.758  10.216  -0.981  2.7563  0.1209  0.0725
   59MOL0     H 7747  10.723  10.325  -1.104  1.1860 -0.9275 -0.6469
   59MOL0     H 7748  10.947  10.319  -0.923 -0.5755  1.2677  0.9149
   59MOL0     H 7749  10.906  10.478  -0.996 -1.4392  0.1691  1.9825
   59MOL0     H 7750  11.147  10.469  -0.938 -0.5374  0.0175 -0.5833
   59MOL0     H 7751  11.388  10.533  -0.991  0.4075  2.1682 -1.6988
   59MOL0     H 7752  11.775  10.423  -0.959 -3.9244  1.2912  0.1674
   59MOL0     H 7753  12.010  10.438  -0.976  0.1817  0.7686  2.1430
   59MOL0     H 7754  12.339  10.555  -1.162  0.8383  1.2711  2.8502
   59MOL0     H 7755  12.209  10.447  -1.099 -0.0434 -0.3609  3.4769
   59MOL0     H 7756  12.163  10.595  -0.913 -2.2845  2.3560 -3.5233
   59MOL0     H 7757  12.267  10.714  -0.975 -0.8600  0.0740 -0.4051
   59MOL0     H 7758  12.396  10.621  -0.803 -0.9276 -1.9513  2.9389
   59MOL0     H 7759  12.449  10.536  -0.946 -1.0779 -1.2790  0.4879
   59MOL0     H 7760  12.237  10.445  -0.740 -0.2870  3.0449 -1.5801
   59MOL0     H 7761  12.276  10.362  -0.881 -1.3227 -0.0797  1.2168
   59MOL0     H 7762  12.514  10.311  -0.809 -1.5579  1.1210 -2.1427
   59MOL0     H 7763  12.412  10.255  -0.679  2.1556 -0.4614  0.1249
   59MOL0     H 7764  12.463  10.430  -0.545  1.4448 -1.4534  2.0667
   59MOL0     H 7765  12.555  10.524  -0.668  3.4040 -0.9668  0.2818
   59MOL0     H 7766  12.639  10.243  -0.598 -0.2442  0.4048 -0.3187
   59MOL0     H 7767  12.734  10.359  -0.675 -0.4313  0.0387  0.4206
   59MOL0     H 7768  12.716  10.500  -0.451 -1.8915 -1.4020  2.4819
   59MOL0     H 7769  12.823  10.357  -0.458 -0.1969 -0.7995  3.3943
   59MOL0     H 7770  11.955  10.764  -1.278  0.4367 -0.2654 -1.6520
   59MOL0     H 7771  11.706  10.735  -1.238 -1.2449 -0.0184  2.2922
   59MOL0     H 7772  11.346  10.371  -1.384 -1.5893 -1.9826 -0.3543
   59MOL0     H 7773  11.130  10.293  -1.329 -1.6628  2.8831 -1.1927
   59MOL0     H 7774   9.771  10.258   0.327 -1.1828 -0.7764  1.0853
   59MOL0     H 7775   9.645  10.339   0.520  1.2820  0.6103 -1.1486
   59MOL0     H 7776   9.717  10.463   0.959 -0.6316  1.0679 -3.2489
   59MOL0     H 7777   9.667  10.547   1.177 -0.3595  0.7793 -3.0825
   59MOL0     H 7778   9.697  10.473   1.390 -1.4696 -0.4414 -2.0028
   59MOL0     H 7779   9.603  10.459   1.543  2.9914 -0.3215  1.3543
   59MOL0     H 7780   9.614  10.699   1.346  1.6233 -0.3740 -0.1340
   59MOL0     H 7781   9.489  10.670   1.474  0.2145  1.6109  1.0041
   59MOL0     H 7782   9.791  10.706   1.447  1.3133 -0.2059  0.9823
   59MOL0     H 7783   9.738  10.636   1.598  0.7496  0.5698  0.2668
   59MOL0     H 7784   9.619  10.895   1.504 -2.2998  0.2355  1.9886
   59MOL0     H 7785   9.612  10.829   1.666 -0.2719  2.4038  0.2118
   59MOL0     H 7786   9.983  11.030   1.683  1.0916 -1.8675 -1.5731
   59MOL0     H 7787   9.362  10.268   1.238 -1.3295  3.7130  0.3556
   59MOL0     H 7788   9.406  10.168   1.021 -1.1075  1.7181 -5.3886
   60MOL0     O 7789   8.441  10.744   8.625 -0.4157 -0.2041  0.0674
   60MOL0     C 7790   8.347  10.664   8.606 -0.8653  0.9794 -0.4302
   60MOL0     O 7791   8.263  10.662   8.505 -0.2675  0.2392  0.1594
   60MOL0     C 7792   8.279  10.744   8.400  0.1456 -0.2612 -0.6604
   60MOL0     C 7793   8.396  10.791   8.355 -0.6626 -0.1144 -0.4527
   60MOL0     C 7794   8.401  10.866   8.238 -0.6122 -0.3602  0.8530
   60MOL0     C 7795   8.290  10.908   8.172 -0.4821  0.0004 -0.0588
   60MOL0     O 7796   8.316  10.988   8.066 -0.3555  0.1100 -0.1157
   60MOL0     C 7797   8.235  11.111   8.059 -0.4205  0.0567  1.1329
   60MOL0     C 7798   8.239  11.203   8.184  0.3634  0.8292  0.0275
   60MOL0     C 7799   8.131  11.320   8.164  0.8058 -0.5320 -0.0768
   60MOL0     C 7800   8.152  11.417   8.044 -0.1494  0.1389 -0.6027
   60MOL0     C 7801   8.072  11.548   8.046 -1.1883  0.3588  0.0581
   60MOL0     C 7802   8.147  11.673   8.103 -0.3493 -0.3057 -0.0327
   60MOL0     C 7803   8.089  11.801   8.050  0.0250 -0.3003  0.3329
   60MOL0     C 7804   7.975  11.834   8.143 -0.0274  0.4383  0.3251
   60MOL0     N 7805   7.939  11.971   8.140 -0.5523 -0.8657  0.6363
   60MOL0     C 7806   8.024  12.071   8.165 -0.3602  0.6769  1.2673
   60MOL0     C 7807   7.958  12.189   8.160  0.0573 -0.1598  1.7617
   60MOL0     C 7808   8.020  12.321   8.182 -0.7167 -0.1517  0.1815
   60MOL0     C 7809   7.935  12.365   8.308 -0.0008  0.3724 -0.1452
   60MOL0     C 7810   8.006  12.478   8.379 -1.1283 -0.1899 -0.6178
   60MOL0     C 7811   7.934  12.522   8.507  0.2566  0.0785  0.9351
   60MOL0     O 7812   8.045  12.565   8.585  0.0824  0.6071  0.0004
   60MOL0     C 7813   8.110  12.478   8.666 -0.1868 -0.0108 -0.5290
   60MOL0     C 7814   8.231  12.527   8.713 -0.8259  0.1183  0.7602
   60MOL0     C 7815   8.314  12.463   8.800 -0.7250 -0.4735  0.4251
   60MOL0     C 7816   8.285  12.334   8.843  0.8571  0.4171 -0.1781
   60MOL0     C 7817   8.372  12.251   8.935 -0.7133 -1.1958 -0.1371
   60MOL0     O 7818   8.510  12.254   8.899 -0.6049  0.0486 -0.3021
   60MOL0     C 7819   8.609  12.167   8.939  0.1100  0.2087 -0.3737
   60MOL0     C 7820   8.720  12.175   8.853  0.8231  0.9737  0.6185
   60MOL0     C 7821   8.831  12.094   8.886 -0.5108  1.1714 -0.7689
   60MOL0     C 7822   8.820  11.990   8.989  1.1971  0.7116 -0.7632
   60MOL0     O 7823   8.923  11.903   8.999 -0.7062  0.0014 -0.4634
   60MOL0     C 7824   8.933  11.805   9.091 -0.5173  0.0100 -0.0326
   60MOL0     C 7825   9.074  11.745   9.073 -0.5991 -0.5378 -0.4355
   60MOL0     C 7826   9.102  11.607   9.136  0.2021  0.0482  0.7253
   60MOL0     C 7827   9.042  11.497   9.050 -0.3614 -0.2787 -0.6806
   60MOL0     C 7828   9.113  11.368   9.091  0.2633 -0.7423  0.1637
   60MOL0     C 7829   9.057  11.242   9.013 -0.9789  0.1463 -0.1386
   60MOL0     C 7830   9.149  11.117   9.019  0.4853  0.4976 -0.2119
   60MOL0     C 7831   9.203  11.074   9.160 -0.5228  0.9601 -0.6094
   60MOL0    Cl 7832   9.066  11.107   9.270 -0.2129  0.4994 -0.2092
   60MOL0     C 7833   8.697  11.991   9.068  0.2933 -0.0509 -0.2698
   60MOL0     C 7834   8.607  12.094   9.054 -0.6383  1.0929  0.0167
   60MOL0     O 7835   8.326  12.172   9.019 -0.0210  0.3090  0.6951
   60MOL0     C 7836   8.155  12.283   8.801  0.6916  0.3096 -1.1181
   60MOL0     C 7837   8.074  12.355   8.714  0.8031 -0.0498  0.4188
   60MOL0     N 7838   7.829  12.146   8.129  0.7128 -0.8180  1.1437
   60MOL0     N 7839   7.814  12.015   8.121 -1.3387  0.1386  1.0134
   60MOL0     C 7840   8.165  10.860   8.210 -0.2005 -0.8280  0.1510
   60MOL0     C 7841   8.158  10.774   8.322  0.6109 -0.1749  0.1712
   60MOL0     C 7842   8.347  10.555   8.705 -0.4128 -0.2531 -0.2017
   60MOL0     C 7843   8.366  10.590   8.835  0.1523  0.3570 -0.2723
   60MOL0     C 7844   8.360  10.486   8.933  0.1751  0.4620 -0.0238
   60MOL0     C 7845   8.320  10.358   8.899  0.6651  1.0709  0.1907
   60MOL0     O 7846   8.323  10.262   9.001  0.8218 -0.4064  0.1529
   60MOL0     C 7847   8.311  10.125   8.985  0.5000 -0.6192  0.3255
   60MOL0     C 7848   8.408  10.054   9.077 -0.3928  0.4409  0.5127
   60MOL0     C 7849   8.423   9.910   9.029  0.0478 -0.4550  0.2033
   60MOL0     C 7850   8.508   9.828   9.126 -0.1030  0.7506  0.1496
   60MOL0     C 7851   8.441   9.801   9.258 -0.4623 -0.9388  0.8203
   60MOL0     C 7852   8.391   9.784   9.368 -0.2567  0.4302  1.1431
   60MOL0     C 7853   8.300  10.321   8.762 -0.5632  0.0953 -0.2540
   60MOL0     C 7854   8.320  10.424   8.666  0.1010  0.7980  0.3371
   60MOL0     H 7855   8.488  10.763   8.406 -0.7912 -0.4282 -0.3854
   60MOL0     H 7856   8.494  10.893   8.190  0.4505 -0.1328  2.9255
   60MOL0     H 7857   8.129  11.086   8.046 -1.0052  2.7758 -0.2307
   60MOL0     H 7858   8.269  11.171   7.974 -1.6620 -0.0925  0.5083
   60MOL0     H 7859   8.340  11.239   8.204  0.8184  0.4677 -1.5330
   60MOL0     H 7860   8.205  11.150   8.274  3.9545 -0.9445  0.5409
   60MOL0     H 7861   8.108  11.376   8.255 -1.2828 -1.2435 -0.1123
   60MOL0     H 7862   8.042  11.259   8.145 -0.8572  1.6503  0.3866
   60MOL0     H 7863   8.259  11.440   8.046  1.0149 -4.2955  0.7569
   60MOL0     H 7864   8.129  11.375   7.945 -1.7063 -0.9404  0.1682
   60MOL0     H 7865   7.975  11.526   8.093 -1.1137 -1.5150 -0.5929
   60MOL0     H 7866   8.043  11.567   7.942 -1.3388 -2.3880 -0.4957
   60MOL0     H 7867   8.249  11.652   8.069 -1.1128 -4.8271 -0.1191
   60MOL0     H 7868   8.170  11.674   8.210 -0.6226  1.9853  0.0610
   60MOL0     H 7869   8.160  11.884   8.048 -1.1567  0.7422  0.1018
   60MOL0     H 7870   8.047  11.801   7.949 -1.1030  0.7022  0.7703
   60MOL0     H 7871   8.005  11.824   8.248 -1.8550  0.3450  0.8720
   60MOL0     H 7872   7.891  11.766   8.129  2.3703 -2.5760 -0.7813
   60MOL0     H 7873   8.129  12.068   8.193  1.1190  0.0703 -3.5311
   60MOL0     H 7874   8.007  12.395   8.102 -1.8232  0.3682  0.8198
   60MOL0     H 7875   8.127  12.312   8.202 -0.9227 -1.2020  0.8565
   60MOL0     H 7876   7.916  12.284   8.378 -3.0189  2.7789  2.1313
   60MOL0     H 7877   7.837  12.401   8.276 -2.3592 -4.5124  0.7489
   60MOL0     H 7878   8.112  12.457   8.398 -1.2252 -0.5851 -0.5029
   60MOL0     H 7879   8.015  12.569   8.320  1.6256 -1.7603 -2.8647
   60MOL0     H 7880   7.875  12.441   8.551 -0.3210 -0.1568 -0.2524
   60MOL0     H 7881   7.860  12.601   8.489  1.7022  0.9682 -1.5720
   60MOL0     H 7882   8.261  12.628   8.687  3.5127 -1.6025 -1.9743
   60MOL0     H 7883   8.400  12.517   8.840  0.2717 -1.2255 -0.6257
   60MOL0     H 7884   8.730  12.234   8.763 -0.3391 -2.1493 -1.7406
   60MOL0     H 7885   8.922  12.091   8.827  1.3360 -2.9212  1.8672
   60MOL0     H 7886   8.860  11.725   9.071  1.7251 -1.6519 -2.1286
   60MOL0     H 7887   8.920  11.838   9.194  0.4315 -0.5275  0.2656
   60MOL0     H 7888   9.130  11.817   9.133  3.2995 -2.6530 -1.2500
   60MOL0     H 7889   9.115  11.759   8.973  1.2997  2.1677  0.6177
   60MOL0     H 7890   9.057  11.593   9.235 -1.1065  0.4529  0.2209
   60MOL0     H 7891   9.208  11.585   9.148  0.7272 -0.5573 -3.3864
   60MOL0     H 7892   8.939  11.485   9.086  0.3438  2.4531  2.7404
   60MOL0     H 7893   9.050  11.509   8.942  1.6439  0.0624 -0.5269
   60MOL0     H 7894   9.098  11.352   9.198  0.7290 -3.9002 -0.1437
   60MOL0     H 7895   9.218  11.385   9.064 -0.1614  2.5441  0.1949
   60MOL0     H 7896   9.037  11.263   8.908  0.0713 -0.1494 -0.4114
   60MOL0     H 7897   8.961  11.222   9.061 -1.5162  0.1168 -1.2001
   60MOL0     H 7898   9.101  11.027   8.980  1.7249 -2.0392  3.5243
   60MOL0     H 7899   9.237  11.120   8.954  0.7852  2.0480  0.2199
   60MOL0     H 7900   9.299  11.119   9.189  0.7903 -1.4613 -0.9573
   60MOL0     H 7901   9.229  10.968   9.162  0.1551  1.1257  1.1558
   60MOL0     H 7902   8.692  11.921   9.151 -2.6203  2.0063  1.4842
   60MOL0     H 7903   8.524  12.105   9.123  0.8325  0.8366  1.8872
   60MOL0     H 7904   8.112  12.198   8.852 -1.7459  1.2748 -1.4411
   60MOL0     H 7905   7.975  12.318   8.688  1.8864 -2.3567 -0.7030
   60MOL0     H 7906   8.080  10.878   8.146  0.8253 -0.2670 -1.0833
   60MOL0     H 7907   8.057  10.739   8.342  0.1893 -0.5192 -2.3219
   60MOL0     H 7908   8.384  10.692   8.867  0.8275  0.1328  0.0993
   60MOL0     H 7909   8.384  10.499   9.038 -2.0698  0.7011  0.5091
   60MOL0     H 7910   8.326  10.077   8.889  0.1526  1.0588 -0.6121
   60MOL0     H 7911   8.210  10.105   9.023  0.3412 -0.5971 -0.0771
   60MOL0     H 7912   8.505  10.104   9.081 -0.2405  0.0700  2.8486
   60MOL0     H 7913   8.362  10.058   9.176  0.1947  3.2117  0.7479
   60MOL0     H 7914   8.461   9.906   8.926  0.2186  0.0742  0.2440
   60MOL0     H 7915   8.321   9.869   9.030 -0.5027  0.8173 -0.6004
   60MOL0     H 7916   8.543   9.739   9.072  2.4088  2.5694 -1.4525
   60MOL0     H 7917   8.602   9.879   9.150  0.5586 -1.4321  2.6065
   60MOL0     H 7918   8.347   9.768   9.464 -0.4256 -1.9143  0.7401
   60MOL0     H 7919   8.276  10.219   8.733  0.4862  0.7508 -3.9854
   60MOL0     H 7920   8.300  10.405   8.562 -2.9209 -1.9075  1.2521
   61MOL0     O 7921   5.894   0.039   9.194  0.5000 -0.4016  0.7329
   61MOL0     C 7922   6.009   0.029   9.151  0.2625 -0.0958  0.7087
   61MOL0     O 7923   6.043  -0.015   9.023 -0.2013 -1.1629 -0.6493
   61MOL0     C 7924   5.946  -0.034   8.926  0.4655 -0.3801 -0.0146
   61MOL0     C 7925   5.801  -0.026   8.944 -0.3952 -0.0803  0.8639
   61MOL0     C 7926   5.717  -0.024   8.828 -0.3021  0.1791  0.0356
   61MOL0     C 7927   5.774  -0.039   8.693 -0.1989 -0.5586 -0.4358
   61MOL0     O 7928   5.703  -0.051   8.578  0.2042  1.3844  0.6794
   61MOL0     C 7929   5.555  -0.051   8.577  0.4271  1.1827  0.5643
   61MOL0     C 7930   5.498  -0.016   8.436 -1.2220 -0.4123  0.1852
   61MOL0     C 7931   5.353  -0.034   8.438  0.2232 -0.5747 -0.4698
   61MOL0     C 7932   5.288   0.006   8.312  0.4493  0.1056 -0.3993
   61MOL0     C 7933   5.311   0.147   8.262  0.2376 -0.8811  0.1869
   61MOL0     C 7934   5.198   0.206   8.165  1.1129  0.6115  1.0668
   61MOL0     C 7935   5.245   0.311   8.071 -0.7799  0.1693 -0.4915
   61MOL0     C 7936   5.377   0.280   8.000  0.3708  0.0258  0.2855
   61MOL0     N 7937   5.384   0.347   7.874 -0.3388  0.4835 -0.0182
   61MOL0     C 7938   5.333   0.304   7.752  0.3550 -0.0842 -0.8242
   61MOL0     C 7939   5.343   0.405   7.658 -0.2773  0.2732 -0.9459
   61MOL0     C 7940   5.294   0.401   7.511 -0.2789  0.7890 -0.1743
   61MOL0     C 7941   5.391   0.463   7.411  0.4997  0.3909 -0.2330
   61MOL0     C 7942   5.413   0.620   7.422 -0.7871  0.1957 -0.6992
   61MOL0     C 7943   5.457   0.689   7.290 -0.4217 -0.3475 -0.4439
   61MOL0     O 7944   5.589   0.644   7.259 -0.4775 -0.1417 -0.1874
   61MOL0     C 7945   5.695   0.681   7.341 -0.0892  0.0073  0.7897
   61MOL0     C 7946   5.701   0.796   7.419  0.4579 -0.7425  0.5741
   61MOL0     C 7947   5.824   0.842   7.467  0.9046 -0.3442  0.1664
   61MOL0     C 7948   5.943   0.780   7.435  0.2654  1.5984 -0.9673
   61MOL0     C 7949   6.075   0.825   7.476  1.2539  0.3377  0.6339
   61MOL0     O 7950   6.178   0.739   7.452 -0.3540  0.5731  0.2456
   61MOL0     C 7951   6.309   0.775   7.471 -0.2453 -0.5191  0.0518
   61MOL0     C 7952   6.399   0.672   7.519  0.0513  0.6331  0.3060
   61MOL0     C 7953   6.533   0.705   7.532 -0.2853 -0.5812  0.4291
   61MOL0     C 7954   6.584   0.843   7.507 -0.1910  0.4565  0.0846
   61MOL0     O 7955   6.713   0.891   7.516 -0.2166 -0.0739 -0.9542
   61MOL0     C 7956   6.805   0.794   7.483 -1.0387 -0.0306  0.0737
   61MOL0     C 7957   6.955   0.835   7.464 -0.5668 -0.1997 -0.2409
   61MOL0     C 7958   7.011   0.821   7.320 -0.5247 -0.7841 -0.3371
   61MOL0     C 7959   7.031   0.678   7.270  0.3650 -0.2324 -0.5386
   61MOL0     C 7960   7.118   0.592   7.366 -0.7211 -0.2755 -0.1664
   61MOL0     C 7961   7.155   0.470   7.283 -0.1544 -0.2380 -0.3475
   61MOL0     C 7962   7.221   0.377   7.385  0.2171  0.0316  1.1303
   61MOL0     C 7963   7.285   0.249   7.323  0.3152 -0.2001  0.1580
   61MOL0    Cl 7964   7.381   0.294   7.176 -0.3145 -0.0493  0.4626
   61MOL0     C 7965   6.488   0.939   7.474  0.8162  0.5894 -0.4009
   61MOL0     C 7966   6.357   0.908   7.465  0.6218 -0.0185  0.1430
   61MOL0     O 7967   6.082   0.929   7.534  0.4165  0.5292 -0.7548
   61MOL0     C 7968   5.941   0.655   7.373  0.9334 -0.1017  0.1188
   61MOL0     C 7969   5.817   0.609   7.324  0.0129  0.7674  0.2385
   61MOL0     N 7970   5.420   0.508   7.716 -0.8527  0.2879  0.3329
   61MOL0     N 7971   5.447   0.465   7.844 -0.4186  1.2176  0.0038
   61MOL0     C 7972   5.911  -0.042   8.683 -0.6559 -0.9286 -0.3179
   61MOL0     C 7973   6.000  -0.051   8.796  0.0191  0.1089 -0.2494
   61MOL0     C 7974   6.120   0.062   9.244 -0.7299  0.1922 -0.1850
   61MOL0     C 7975   6.088   0.099   9.372 -0.3591  0.0263  0.1026
   61MOL0     C 7976   6.197   0.115   9.464  0.2173 -0.7279 -0.7771
   61MOL0     C 7977   6.332   0.123   9.433 -0.0738  0.1895  0.2992
   61MOL0     O 7978   6.445   0.143   9.502  0.2294 -0.3859 -0.4410
   61MOL0     C 7979   6.436   0.173   9.647  0.6032 -0.2708  0.0436
   61MOL0     C 7980   6.402   0.051   9.737 -0.7916 -0.4796 -0.7268
   61MOL0     C 7981   6.479  -0.073   9.686  0.4880 -0.6363 -0.4530
   61MOL0     C 7982   6.447  -0.196   9.759  0.9528  0.3376 -0.3115
   61MOL0     C 7983   6.511  -0.201   9.897  0.2730 -0.5366 -0.2155
   61MOL0     C 7984   6.565  -0.208  10.002 -0.1087 -0.0724  0.3050
   61MOL0     C 7985   6.357   0.100   9.296 -0.4718  0.0615  0.4180
   61MOL0     C 7986   6.257   0.068   9.204 -0.4302 -0.1584 -0.0108
   61MOL0     H 7987   5.752  -0.008   9.038 -1.7392 -1.9554  0.5671
   61MOL0     H 7988   5.612  -0.030   8.855 -0.7468 -0.3147 -1.6536
   61MOL0     H 7989   5.518   0.022   8.650 -1.3293  0.9684 -0.0757
   61MOL0     H 7990   5.516  -0.149   8.606 -2.3824  1.7809 -0.8743
   61MOL0     H 7991   5.537  -0.085   8.360 -3.6729 -1.5318 -0.1528
   61MOL0     H 7992   5.525   0.087   8.411  2.0140 -0.8037  1.5228
   61MOL0     H 7993   5.300   0.021   8.517 -0.3474  0.2432 -1.3970
   61MOL0     H 7994   5.333  -0.136   8.472 -1.6580  0.7698  2.9488
   61MOL0     H 7995   5.308  -0.069   8.235  0.6818 -3.5200  2.8789
   61MOL0     H 7996   5.180  -0.002   8.326  0.3579  0.6920 -0.7415
   61MOL0     H 7997   5.413   0.151   8.222  0.4160  0.1817  0.7219
   61MOL0     H 7998   5.301   0.213   8.348  0.7728 -0.3065 -0.1799
   61MOL0     H 7999   5.115   0.240   8.227 -1.4984 -2.1902 -0.5716
   61MOL0     H 8000   5.153   0.126   8.105 -1.3005  1.9840  0.9167
   61MOL0     H 8001   5.174   0.323   7.989 -1.6076  0.0229  0.1882
   61MOL0     H 8002   5.255   0.405   8.126 -0.7686  0.9844 -1.8488
   61MOL0     H 8003   5.392   0.174   7.978 -0.1699  0.2250 -1.1456
   61MOL0     H 8004   5.459   0.313   8.064  0.6381 -0.9661  0.4699
   61MOL0     H 8005   5.293   0.213   7.709  2.4733 -0.2234 -2.7088
   61MOL0     H 8006   5.196   0.449   7.506 -1.3937 -1.2152  1.1410
   61MOL0     H 8007   5.276   0.297   7.486 -6.1005  1.9550 -2.3616
   61MOL0     H 8008   5.345   0.449   7.312 -0.4567 -1.0541  0.3916
   61MOL0     H 8009   5.489   0.414   7.412  0.4539  0.2693  1.4846
   61MOL0     H 8010   5.322   0.673   7.452 -0.1776  1.1282 -0.4412
   61MOL0     H 8011   5.486   0.637   7.502  2.6859  0.5428 -3.6840
   61MOL0     H 8012   5.439   0.794   7.311 -3.9768 -0.6326 -1.3317
   61MOL0     H 8013   5.389   0.661   7.209 -0.5326 -0.1674 -0.4130
   61MOL0     H 8014   5.605   0.845   7.430  2.2506  3.3216 -0.2689
   61MOL0     H 8015   5.830   0.931   7.529  1.3419 -2.1914  2.9817
   61MOL0     H 8016   6.367   0.569   7.521 -1.1362  0.9817 -0.1283
   61MOL0     H 8017   6.611   0.631   7.545  1.3275 -0.0495 -4.2531
   61MOL0     H 8018   6.776   0.744   7.390 -1.2314  0.5889 -0.2029
   61MOL0     H 8019   6.793   0.724   7.566 -0.3307  0.3718  0.5226
   61MOL0     H 8020   7.008   0.776   7.539  1.2529  3.7123  1.8954
   61MOL0     H 8021   6.974   0.930   7.514 -2.9243  0.4370 -0.3953
   61MOL0     H 8022   7.106   0.874   7.318 -2.1508  2.4124 -2.4135
   61MOL0     H 8023   6.946   0.883   7.257  0.6836  2.3995  1.3214
   61MOL0     H 8024   6.931   0.634   7.266 -0.3801  1.3661 -0.4913
   61MOL0     H 8025   7.065   0.679   7.166 -0.7817  2.4652 -0.9887
   61MOL0     H 8026   7.053   0.563   7.449  0.4748 -2.7843 -0.0129
   61MOL0     H 8027   7.215   0.636   7.391  0.5108 -1.8722 -1.9289
   61MOL0     H 8028   7.229   0.493   7.206 -0.8828  1.2622 -0.6269
   61MOL0     H 8029   7.066   0.426   7.236  0.7327 -2.3974 -0.1520
   61MOL0     H 8030   7.301   0.438   7.428 -0.0685  3.0532 -2.1497
   61MOL0     H 8031   7.149   0.349   7.463  0.5210  1.1657  1.8384
   61MOL0     H 8032   7.213   0.169   7.301 -1.4513  0.7300  2.2430
   61MOL0     H 8033   7.368   0.209   7.381 -1.7525 -0.9162  2.7929
   61MOL0     H 8034   6.527   1.039   7.458  0.9899  0.9425  1.8740
   61MOL0     H 8035   6.296   0.994   7.438 -0.4699 -1.0675 -0.8443
   61MOL0     H 8036   6.022   0.592   7.338  0.5791  0.3280 -1.5445
   61MOL0     H 8037   5.815   0.517   7.266  0.6421 -1.6241  3.6400
   61MOL0     H 8038   5.958  -0.046   8.585 -1.5074 -1.9400 -0.7057
   61MOL0     H 8039   6.108  -0.038   8.786 -0.0135  2.0528  1.3166
   61MOL0     H 8040   5.985   0.107   9.407 -0.0641 -0.4416  1.1140
   61MOL0     H 8041   6.169   0.126   9.569  0.1355 -0.8601 -0.7843
   61MOL0     H 8042   6.365   0.254   9.661 -0.0343  0.1925 -4.4382
   61MOL0     H 8043   6.536   0.203   9.680 -0.6653  5.3651 -0.2599
   61MOL0     H 8044   6.432   0.067   9.841 -0.3700 -1.8148 -0.6163
   61MOL0     H 8045   6.295   0.031   9.722 -0.6453 -0.1587 -2.3351
   61MOL0     H 8046   6.587  -0.059   9.678  0.8471 -1.0519  2.4513
   61MOL0     H 8047   6.440  -0.090   9.585 -4.1904  0.8622  0.8381
   61MOL0     H 8048   6.342  -0.226   9.751  0.8683  0.6090 -0.2379
   61MOL0     H 8049   6.488  -0.283   9.706 -1.8321 -0.1687 -1.8709
   61MOL0     H 8050   6.616  -0.210  10.096  0.3753  2.3696  0.1607
   61MOL0     H 8051   6.460   0.092   9.264 -0.2152  0.5869  1.0804
   61MOL0     H 8052   6.279   0.054   9.099  1.1104 -0.1472  0.2896
   62MOL0     O 8053   1.956   0.311   6.880  0.0151  0.0906  0.5529
   62MOL0     C 8054   1.895   0.213   6.859  0.5414 -0.3966  0.2175
   62MOL0     O 8055   1.909   0.138   6.746  0.0790 -0.1853 -0.3535
   62MOL0     C 8056   2.011   0.171   6.660 -0.3390  0.1428  0.4470
   62MOL0     C 8057   1.996   0.264   6.556  0.0157 -0.1561  0.1681
   62MOL0     C 8058   2.108   0.304   6.477  0.0648  0.5763 -0.2245
   62MOL0     C 8059   2.233   0.249   6.494  0.3065  0.2581 -0.2310
   62MOL0     O 8060   2.335   0.278   6.406  1.0655  0.2483 -0.7611
   62MOL0     C 8061   2.459   0.321   6.466 -0.0622  0.8861 -0.2320
   62MOL0     C 8062   2.558   0.345   6.342 -0.3154 -0.2743 -0.6657
   62MOL0     C 8063   2.523   0.467   6.264  0.5821 -0.7277 -0.2255
   62MOL0     C 8064   2.534   0.598   6.346 -0.7008 -0.6961 -0.5498
   62MOL0     C 8065   2.476   0.703   6.264  0.1949 -0.8716  0.9185
   62MOL0     C 8066   2.454   0.838   6.341 -1.6191 -0.0752  0.2160
   62MOL0     C 8067   2.430   0.949   6.243  0.2537  1.0850 -0.1308
   62MOL0     C 8068   2.281   1.009   6.246 -0.2803  0.8637 -0.2861
   62MOL0     N 8069   2.240   1.089   6.367  0.3595  0.0497  0.2170
   62MOL0     C 8070   2.176   1.038   6.472  0.4971  0.3603  0.5991
   62MOL0     C 8071   2.159   1.140   6.559 -0.1721  0.2956  0.2102
   62MOL0     C 8072   2.113   1.108   6.701  0.1556 -0.1291  0.0882
   62MOL0     C 8073   2.224   1.029   6.767  0.6209  0.6019 -0.7759
   62MOL0     C 8074   2.203   1.033   6.920 -0.0450  0.0041 -0.2444
   62MOL0     C 8075   2.075   0.964   6.972  0.3169 -0.3099  0.3199
   62MOL0     O 8076   2.008   1.069   7.029  0.6592 -0.4271  0.1507
   62MOL0     C 8077   1.875   1.059   7.044 -0.1863  0.5815 -0.4005
   62MOL0     C 8078   1.824   1.101   7.168 -0.3721  0.0637  0.4053
   62MOL0     C 8079   1.694   1.096   7.201  0.1602  0.0190  0.5771
   62MOL0     C 8080   1.595   1.062   7.108  0.3607  1.6512 -0.0357
   62MOL0     C 8081   1.451   1.068   7.132 -0.1869 -0.2222 -0.0832
   62MOL0     O 8082   1.418   1.143   7.246  0.1121  0.6662 -0.6440
   62MOL0     C 8083   1.286   1.175   7.275 -0.1576  0.4274 -0.8128
   62MOL0     C 8084   1.262   1.265   7.388  0.8322  0.3012  0.0454
   62MOL0     C 8085   1.129   1.305   7.414 -0.6384 -0.3874  0.4344
   62MOL0     C 8086   1.023   1.259   7.334  0.3638  0.3718  0.2892
   62MOL0     O 8087   0.901   1.310   7.362  0.2036 -0.3403 -0.1722
   62MOL0     C 8088   0.810   1.198   7.396  0.2660 -1.4073 -0.7894
   62MOL0     C 8089   0.722   1.232   7.513  0.3582  0.3871 -1.0766
   62MOL0     C 8090   0.591   1.307   7.473 -0.3006  0.2514 -0.1696
   62MOL0     C 8091   0.505   1.360   7.583  0.0011  0.2918  0.1569
   62MOL0     C 8092   0.395   1.454   7.537 -0.1276  0.8251  0.1621
   62MOL0     C 8093   0.437   1.581   7.456  0.6855  0.5185 -0.1176
   62MOL0     C 8094   0.365   1.713   7.485 -0.6985 -0.1959  0.6370
   62MOL0     C 8095   0.398   1.793   7.360 -0.9516 -0.3840  0.4297
   62MOL0    Cl 8096   0.289   1.739   7.236 -0.0427 -0.5144  0.3886
   62MOL0     C 8097   1.046   1.175   7.223  0.7612  0.5209  0.1086
   62MOL0     C 8098   1.176   1.138   7.203 -0.4606 -0.5830  0.1253
   62MOL0     O 8099   1.386   1.029   7.040  0.7760  0.4978  0.6560
   62MOL0     C 8100   1.643   1.001   6.987 -0.2010  0.3708 -0.8143
   62MOL0     C 8101   1.779   1.002   6.955 -0.2825 -0.1928  0.7095
   62MOL0     N 8102   2.224   1.251   6.511  1.0290  0.4373 -0.4037
   62MOL0     N 8103   2.253   1.220   6.388 -0.7404 -0.2214  0.4418
   62MOL0     C 8104   2.251   0.156   6.590 -0.1954  0.3311 -0.3506
   62MOL0     C 8105   2.141   0.115   6.670 -0.1368 -0.5146 -0.6688
   62MOL0     C 8106   1.790   0.176   6.956 -0.8376  1.3183 -0.9618
   62MOL0     C 8107   1.727   0.053   6.930  0.2399 -0.1176  1.0875
   62MOL0     C 8108   1.624   0.008   7.014 -0.4900 -0.0174  0.4118
   62MOL0     C 8109   1.578   0.082   7.121 -0.1072 -0.7926  0.8327
   62MOL0     O 8110   1.484   0.027   7.195  0.2352 -0.2547 -0.2498
   62MOL0     C 8111   1.398   0.112   7.271 -0.1589  0.2437  0.1453
   62MOL0     C 8112   1.267   0.057   7.247  0.5150  1.0795 -0.0348
   62MOL0     C 8113   1.162   0.133   7.318 -0.0599 -0.3205  0.0639
   62MOL0     C 8114   1.172   0.122   7.469 -0.4575 -0.2920  0.2291
   62MOL0     C 8115   1.080   0.206   7.537  0.7603  0.8692 -0.2807
   62MOL0     C 8116   0.994   0.268   7.593  0.0176 -0.7398 -0.3697
   62MOL0     C 8117   1.647   0.203   7.151  1.4246  0.3599 -0.5284
   62MOL0     C 8118   1.753   0.245   7.079  0.6308  0.0145 -0.0060
   62MOL0     H 8119   1.907   0.325   6.546  0.0542 -0.1466 -0.1195
   62MOL0     H 8120   2.098   0.384   6.404  0.5104  0.8359 -0.0046
   62MOL0     H 8121   2.498   0.244   6.534 -1.3518 -2.2341 -2.7490
   62MOL0     H 8122   2.455   0.411   6.526  2.1567  1.6606 -1.1130
   62MOL0     H 8123   2.548   0.263   6.270  1.7233  1.0179 -2.5471
   62MOL0     H 8124   2.663   0.347   6.372 -0.1418 -0.2895 -1.2558
   62MOL0     H 8125   2.418   0.455   6.234 -0.4032  1.2441  2.1061
   62MOL0     H 8126   2.592   0.484   6.182  1.9154  2.0980  1.3363
   62MOL0     H 8127   2.486   0.581   6.443 -1.9693 -0.3820 -1.0933
   62MOL0     H 8128   2.640   0.619   6.362 -1.1051  1.0971  0.0412
   62MOL0     H 8129   2.376   0.672   6.234  0.5842 -0.4795 -0.9635
   62MOL0     H 8130   2.541   0.714   6.177  1.4177 -0.5369  1.8456
   62MOL0     H 8131   2.548   0.861   6.391 -0.7298  0.4567 -1.6065
   62MOL0     H 8132   2.382   0.828   6.422 -0.5815  0.7107  1.2661
   62MOL0     H 8133   2.495   1.034   6.265 -0.0612  1.1699  0.4827
   62MOL0     H 8134   2.446   0.912   6.141 -2.6494 -1.8652  0.3230
   62MOL0     H 8135   2.213   0.924   6.234 -1.0363  1.0011  2.3759
   62MOL0     H 8136   2.273   1.064   6.152 -1.8570  0.5321 -0.3630
   62MOL0     H 8137   2.155   0.932   6.481 -0.7000  0.1996 -2.7330
   62MOL0     H 8138   2.020   1.053   6.714 -0.8485  1.6009  0.5905
   62MOL0     H 8139   2.100   1.211   6.736 -1.0810  1.3362 -4.0701
   62MOL0     H 8140   2.321   1.076   6.749  0.5125  0.3783 -2.0090
   62MOL0     H 8141   2.222   0.924   6.737 -2.3667 -0.1216  1.5426
   62MOL0     H 8142   2.289   0.982   6.963 -0.7575 -2.7682 -1.8101
   62MOL0     H 8143   2.216   1.132   6.963 -1.3987  0.4188 -0.7135
   62MOL0     H 8144   2.100   0.906   7.061  3.2868  0.0932 -0.1244
   62MOL0     H 8145   2.030   0.908   6.890  1.6558  1.0845 -1.4497
   62MOL0     H 8146   1.898   1.123   7.244  1.2547 -2.7001 -0.2254
   62MOL0     H 8147   1.674   1.121   7.304  2.5652 -1.8714  1.6064
   62MOL0     H 8148   1.345   1.290   7.453  2.2146 -2.3971 -0.5333
   62MOL0     H 8149   1.103   1.384   7.483 -0.2797  0.5113 -0.4404
   62MOL0     H 8150   0.868   1.107   7.416  1.1592 -0.8323 -0.6960
   62MOL0     H 8151   0.742   1.183   7.312 -0.7643 -1.0393 -0.0462
   62MOL0     H 8152   0.778   1.282   7.592  0.4997 -1.9161  0.3606
   62MOL0     H 8153   0.685   1.140   7.560 -1.3555  0.4881 -2.1525
   62MOL0     H 8154   0.528   1.237   7.418 -0.4586 -1.2916  1.8709
   62MOL0     H 8155   0.628   1.397   7.424  3.3167  0.4964  2.6185
   62MOL0     H 8156   0.463   1.271   7.630 -0.5840  0.5771  0.1786
   62MOL0     H 8157   0.562   1.416   7.658 -1.7195 -0.4209  2.0955
   62MOL0     H 8158   0.329   1.495   7.614 -0.3397 -2.0825  1.6672
   62MOL0     H 8159   0.329   1.395   7.472 -2.1348  0.0975  2.6568
   62MOL0     H 8160   0.438   1.565   7.348  2.2120  0.8574 -0.1761
   62MOL0     H 8161   0.540   1.593   7.492  0.5445  0.2923  0.3603
   62MOL0     H 8162   0.258   1.701   7.507 -1.1094  1.6504 -0.1333
   62MOL0     H 8163   0.410   1.760   7.572  0.4147 -0.8067  0.4042
   62MOL0     H 8164   0.501   1.790   7.323 -1.1486  5.2038 -1.5132
   62MOL0     H 8165   0.380   1.901   7.371  1.0037  0.2651 -1.8347
   62MOL0     H 8166   0.960   1.150   7.162  1.7058  0.3632 -1.2081
   62MOL0     H 8167   1.190   1.074   7.116 -0.7757 -0.0602 -0.3181
   62MOL0     H 8168   1.575   0.948   6.921  0.7537  0.4591 -1.9032
   62MOL0     H 8169   1.811   0.971   6.856 -1.2242  2.3045 -0.4546
   62MOL0     H 8170   2.348   0.108   6.597  0.2179  1.0330 -1.0796
   62MOL0     H 8171   2.153   0.055   6.760 -1.1017  0.7626  0.3594
   62MOL0     H 8172   1.732  -0.006   6.839 -1.0298  0.6995  0.4616
   62MOL0     H 8173   1.573  -0.085   6.993 -2.0745  0.7803  0.5963
   62MOL0     H 8174   1.388   0.216   7.241 -3.2224  0.7629  2.4180
   62MOL0     H 8175   1.417   0.123   7.378  0.8304 -2.2959  0.3080
   62MOL0     H 8176   1.250   0.058   7.139  0.7004  1.2514 -0.0629
   62MOL0     H 8177   1.268  -0.050   7.272  1.0785  0.6616 -1.7007
   62MOL0     H 8178   1.060   0.106   7.287 -0.3200 -1.1127  1.5051
   62MOL0     H 8179   1.183   0.236   7.290  1.7726 -0.3902  1.0373
   62MOL0     H 8180   1.161   0.019   7.503 -0.2346 -0.9460 -1.5614
   62MOL0     H 8181   1.269   0.164   7.497 -0.2542 -0.1418 -0.6767
   62MOL0     H 8182   0.930   0.333   7.649  0.9694 -0.2826  0.2252
   62MOL0     H 8183   1.613   0.257   7.239  0.9123 -1.4789  0.4541
   62MOL0     H 8184   1.794   0.343   7.098  3.0781 -1.4841  3.7253
   63MOL0     O 8185   6.538   0.916   5.448  0.4344  0.0342 -0.0233
   63MOL0     C 8186   6.423   0.945   5.462  0.9060 -0.1687 -0.7689
   63MOL0     O 8187   6.351   1.019   5.369  1.2482  0.8752 -0.3596
   63MOL0     C 8188   6.412   1.033   5.250 -0.3717 -0.3287  0.3266
   63MOL0     C 8189   6.456   0.924   5.172 -1.1083 -0.3666  1.2443
   63MOL0     C 8190   6.491   0.943   5.033  0.2525 -0.3841  0.1071
   63MOL0     C 8191   6.511   1.071   4.982  0.5359  0.0312 -0.2887
   63MOL0     O 8192   6.568   1.108   4.858 -0.4514  0.3802  0.5228
   63MOL0     C 8193   6.589   1.000   4.768  0.6857 -0.4465 -0.4837
   63MOL0     C 8194   6.450   0.963   4.709  0.2197  0.1876  0.2825
   63MOL0     C 8195   6.432   0.838   4.629  0.4897  0.1931  0.3239
   63MOL0     C 8196   6.433   0.712   4.724  0.1533 -0.1673 -1.1828
   63MOL0     C 8197   6.400   0.577   4.654  0.2474 -0.3285 -0.2897
   63MOL0     C 8198   6.513   0.540   4.565 -0.7405 -0.9162 -0.4757
   63MOL0     C 8199   6.478   0.554   4.419  0.4047 -0.5576 -0.2491
   63MOL0     C 8200   6.610   0.560   4.341  1.1728  0.6493  0.0519
   63MOL0     N 8201   6.668   0.697   4.346 -0.0395  0.1620  0.3677
   63MOL0     C 8202   6.764   0.745   4.431 -0.3509  0.4722 -0.4911
   63MOL0     C 8203   6.800   0.867   4.388 -0.5290  0.3311 -0.7594
   63MOL0     C 8204   6.895   0.965   4.447 -1.6811 -0.5722 -0.6406
   63MOL0     C 8205   7.037   0.957   4.388 -0.3474  0.5885 -1.0129
   63MOL0     C 8206   7.089   0.810   4.393 -0.1998 -0.1720 -0.3694
   63MOL0     C 8207   7.249   0.803   4.377  0.8128  0.0495 -0.1306
   63MOL0     O 8208   7.309   0.680   4.441 -0.4585 -0.1837  0.8012
   63MOL0     C 8209   7.333   0.678   4.581  0.6805 -0.6160 -0.0671
   63MOL0     C 8210   7.383   0.554   4.641 -0.4194  0.2549  0.7979
   63MOL0     C 8211   7.399   0.532   4.775 -0.2484  0.7983  0.2662
   63MOL0     C 8212   7.368   0.639   4.868  0.0026 -0.1425  1.0801
   63MOL0     C 8213   7.379   0.632   5.016 -0.4067  0.0412  0.4691
   63MOL0     O 8214   7.260   0.585   5.084  0.0433 -0.5335 -0.2888
   63MOL0     C 8215   7.265   0.550   5.219  0.3241 -0.4441  0.3815
   63MOL0     C 8216   7.389   0.542   5.286 -0.6743  0.2678  0.6391
   63MOL0     C 8217   7.402   0.505   5.423 -0.4347  0.9898  1.8356
   63MOL0     C 8218   7.284   0.466   5.493  0.4335 -0.0646  0.9594
   63MOL0     O 8219   7.293   0.411   5.611 -0.2977 -0.6204  0.2096
   63MOL0     C 8220   7.415   0.438   5.688  0.6808 -0.7668  0.7917
   63MOL0     C 8221   7.393   0.379   5.828 -0.7094 -0.5081  0.2445
   63MOL0     C 8222   7.351   0.233   5.826  0.0097 -0.4789  0.0800
   63MOL0     C 8223   7.367   0.167   5.959 -0.3698 -0.6340 -0.0517
   63MOL0     C 8224   7.250   0.177   6.054 -1.4346 -0.0665 -0.1471
   63MOL0     C 8225   7.255   0.074   6.167 -0.1204  0.2461 -0.2592
   63MOL0     C 8226   7.198  -0.063   6.137  0.4779  0.5164  0.0746
   63MOL0     C 8227   7.162  -0.156   6.256 -0.2775  0.2112 -0.1544
   63MOL0    Cl 8228   7.295  -0.180   6.377  0.1292  0.5941  0.1800
   63MOL0     C 8229   7.155   0.475   5.428 -0.7788  0.8981 -1.0555
   63MOL0     C 8230   7.147   0.511   5.289 -1.0136 -0.3797  0.3311
   63MOL0     O 8231   7.462   0.704   5.068 -0.4406  0.5401 -0.8343
   63MOL0     C 8232   7.337   0.761   4.805  0.8926 -0.2227  0.8169
   63MOL0     C 8233   7.308   0.782   4.672 -0.4305  1.4519  0.6955
   63MOL0     N 8234   6.744   0.890   4.267 -0.1358  0.8880  0.0796
   63MOL0     N 8235   6.655   0.786   4.243 -0.1825 -0.3986  0.0633
   63MOL0     C 8236   6.452   1.175   5.057 -1.0578 -0.1185  0.7364
   63MOL0     C 8237   6.397   1.158   5.184  0.0721  0.4074  0.3811
   63MOL0     C 8238   6.363   0.919   5.600 -0.0315  0.7482 -0.1527
   63MOL0     C 8239   6.433   0.868   5.714  0.3493  0.2592 -0.1485
   63MOL0     C 8240   6.360   0.860   5.838 -0.8051 -0.0345 -0.2547
   63MOL0     C 8241   6.220   0.868   5.846 -0.8078 -0.2440  0.2366
   63MOL0     O 8242   6.149   0.854   5.970  0.1283  0.0233  0.4336
   63MOL0     C 8243   6.186   0.949   6.068  0.2087  0.2089 -0.3942
   63MOL0     C 8244   6.145   1.092   6.030 -0.8683 -0.9606 -0.3820
   63MOL0     C 8245   6.232   1.189   6.113 -0.0758 -0.9726  0.0626
   63MOL0     C 8246   6.149   1.269   6.213 -0.3501 -0.3177  0.8165
   63MOL0     C 8247   6.088   1.187   6.314 -0.0885  0.0487  0.5232
   63MOL0     C 8248   6.039   1.098   6.393 -0.7437  0.0882 -0.1990
   63MOL0     C 8249   6.156   0.897   5.727  0.0591  0.4625 -0.4008
   63MOL0     C 8250   6.221   0.935   5.610 -0.2982 -0.8409  0.4014
   63MOL0     H 8251   6.466   0.822   5.209 -0.5411  0.4446  3.4898
   63MOL0     H 8252   6.515   0.850   4.983  0.9677 -1.3079  2.0470
   63MOL0     H 8253   6.646   0.920   4.816 -1.3945 -3.1553 -2.2457
   63MOL0     H 8254   6.640   1.036   4.679  1.2321  0.9690  0.3712
   63MOL0     H 8255   6.436   1.048   4.642  3.0565  0.1153 -0.5311
   63MOL0     H 8256   6.374   0.964   4.788  1.6598  2.8932  1.7900
   63MOL0     H 8257   6.517   0.829   4.560  2.9523 -0.6845  3.2599
   63MOL0     H 8258   6.334   0.832   4.580 -0.1132 -0.1910  1.5484
   63MOL0     H 8259   6.524   0.702   4.785 -0.4155  2.5579  0.2629
   63MOL0     H 8260   6.351   0.742   4.790  0.8320  3.3719 -1.7326
   63MOL0     H 8261   6.303   0.568   4.605 -1.0829  2.2872  1.6322
   63MOL0     H 8262   6.404   0.501   4.733  1.3973 -0.2052 -0.2067
   63MOL0     H 8263   6.543   0.436   4.578  0.2669 -1.4310 -5.1975
   63MOL0     H 8264   6.603   0.594   4.595 -0.7151 -0.6840 -0.9548
   63MOL0     H 8265   6.416   0.471   4.382  0.1800 -1.0621  1.1783
   63MOL0     H 8266   6.417   0.645   4.417  0.1099 -0.7595 -2.5305
   63MOL0     H 8267   6.574   0.530   4.242  0.2825 -0.3512  0.6529
   63MOL0     H 8268   6.664   0.474   4.379 -1.0597 -0.8946 -0.0661
   63MOL0     H 8269   6.800   0.710   4.527 -2.4845  0.9265  0.5099
   63MOL0     H 8270   6.908   0.943   4.554  0.6639 -0.1759 -0.7876
   63MOL0     H 8271   6.872   1.070   4.425 -2.5846  0.0152  2.6102
   63MOL0     H 8272   7.104   1.007   4.460  1.3277 -1.4489 -1.0673
   63MOL0     H 8273   7.039   1.003   4.289 -0.1756 -0.8890 -1.7186
   63MOL0     H 8274   7.071   0.763   4.490 -0.0808 -2.6687 -1.4642
   63MOL0     H 8275   7.034   0.743   4.326 -1.6458  0.5167  0.0812
   63MOL0     H 8276   7.292   0.891   4.425  2.0050 -0.3942 -0.3502
   63MOL0     H 8277   7.281   0.809   4.273  1.5013  3.2175  0.1562
   63MOL0     H 8278   7.374   0.477   4.566 -1.1316  2.7470 -1.8742
   63MOL0     H 8279   7.432   0.433   4.804  0.5896 -0.3499 -3.9737
   63MOL0     H 8280   7.484   0.572   5.243  0.7558 -1.0346  2.6878
   63MOL0     H 8281   7.501   0.511   5.468 -1.6191 -0.9633  5.0941
   63MOL0     H 8282   7.452   0.540   5.701  2.7175 -1.3282 -0.2676
   63MOL0     H 8283   7.495   0.382   5.639  0.7899 -0.6392  0.8220
   63MOL0     H 8284   7.327   0.442   5.889  1.4093 -0.3864  2.5944
   63MOL0     H 8285   7.488   0.384   5.882 -0.7825 -3.3513  0.8287
   63MOL0     H 8286   7.415   0.169   5.764  1.4874 -0.1991  1.2475
   63MOL0     H 8287   7.249   0.220   5.789  0.2472 -0.0041 -0.7800
   63MOL0     H 8288   7.377   0.058   5.948 -3.1720 -0.8670 -1.1184
   63MOL0     H 8289   7.454   0.206   6.013  1.2652 -2.4200 -1.2338
   63MOL0     H 8290   7.158   0.157   5.999 -3.7786  1.0380  3.0418
   63MOL0     H 8291   7.251   0.280   6.091  3.2113  0.8354 -2.0980
   63MOL0     H 8292   7.202   0.119   6.252 -0.3360  0.9257 -0.7467
   63MOL0     H 8293   7.356   0.060   6.207  0.1880 -0.1482 -1.1529
   63MOL0     H 8294   7.103  -0.050   6.085  2.3591 -0.2170 -4.0186
   63MOL0     H 8295   7.260  -0.119   6.065 -0.2122 -0.2627  0.0706
   63MOL0     H 8296   7.128  -0.252   6.216 -0.6380  0.0163  0.5975
   63MOL0     H 8297   7.074  -0.112   6.305  0.5715  2.4473 -0.5471
   63MOL0     H 8298   7.082   0.437   5.498  0.8755  2.1440  1.5011
   63MOL0     H 8299   7.058   0.527   5.230 -0.7841  0.0720  0.0960
   63MOL0     H 8300   7.329   0.854   4.861  0.4863  2.1474 -2.8207
   63MOL0     H 8301   7.281   0.885   4.652  2.7105  1.9310 -2.0715
   63MOL0     H 8302   6.466   1.278   5.026 -2.3020 -0.3474 -0.6814
   63MOL0     H 8303   6.368   1.247   5.239 -1.4055 -0.6389  1.3775
   63MOL0     H 8304   6.538   0.843   5.707 -0.5342 -3.7396 -2.6384
   63MOL0     H 8305   6.404   0.834   5.934 -0.6690 -2.3530 -0.8811
   63MOL0     H 8306   6.295   0.955   6.074  0.0910  0.9790  2.9024
   63MOL0     H 8307   6.139   0.929   6.165 -1.0957 -0.7897 -1.1858
   63MOL0     H 8308   6.167   1.114   5.925  0.5748 -1.5909 -0.2275
   63MOL0     H 8309   6.042   1.116   6.057  0.3195  3.5334  1.0992
   63MOL0     H 8310   6.288   1.257   6.048  2.8459 -2.5638  0.7398
   63MOL0     H 8311   6.324   1.149   6.157  1.1178  2.8175  1.4358
   63MOL0     H 8312   6.217   1.339   6.263 -0.0038  1.2008 -1.6078
   63MOL0     H 8313   6.071   1.331   6.168  0.9532  0.2510 -0.7803
   63MOL0     H 8314   5.981   1.028   6.451 -1.3809  3.3361  3.5262
   63MOL0     H 8315   6.048   0.899   5.721 -0.1376  0.6444  2.0556
   63MOL0     H 8316   6.153   0.968   5.532  1.3752  1.2508 -0.2643
   64MOL0     O 8317   2.731   2.952   5.563  0.3152 -0.4101 -0.3611
   64MOL0     C 8318   2.634   3.021   5.570  0.5638  0.3182  0.5018
   64MOL0     O 8319   2.612   3.134   5.491 -0.8156 -0.0038 -0.2462
   64MOL0     C 8320   2.702   3.150   5.388 -0.0899  0.4883  0.4735
   64MOL0     C 8321   2.839   3.174   5.405 -0.3395 -0.5159 -0.8945
   64MOL0     C 8322   2.914   3.217   5.291  0.7514  0.3043  0.3577
   64MOL0     C 8323   2.857   3.221   5.165 -0.2418  0.7795 -0.3182
   64MOL0     O 8324   2.917   3.260   5.044  0.2163 -0.3185 -0.7246
   64MOL0     C 8325   3.056   3.283   5.034 -0.2757  0.1319  1.2391
   64MOL0     C 8326   3.149   3.166   5.047 -1.4164  0.1524  1.3354
   64MOL0     C 8327   3.286   3.227   5.036  0.3081  0.0142  0.4053
   64MOL0     C 8328   3.369   3.116   4.956 -0.3775 -0.2646 -0.1469
   64MOL0     C 8329   3.524   3.141   4.962  0.3359 -0.6070 -1.1000
   64MOL0     C 8330   3.620   3.069   4.870 -0.7314 -0.2044  0.0852
   64MOL0     C 8331   3.771   3.109   4.901 -1.0450 -0.5092  0.1522
   64MOL0     C 8332   3.870   3.010   4.831 -0.5402 -0.1177 -0.5993
   64MOL0     N 8333   3.870   3.012   4.685 -0.0679 -0.1039 -0.7867
   64MOL0     C 8334   3.799   2.934   4.597 -0.2885  0.2561  0.1582
   64MOL0     C 8335   3.866   2.939   4.473  0.4131  0.4096  0.0891
   64MOL0     C 8336   3.796   2.864   4.352  0.1004 -0.8586  0.6516
   64MOL0     C 8337   3.876   2.742   4.290 -0.9023 -0.1795 -0.7598
   64MOL0     C 8338   3.997   2.773   4.193  0.2830  0.6810 -1.3781
   64MOL0     C 8339   4.101   2.880   4.235 -0.3548 -0.1633  0.0269
   64MOL0     O 8340   4.208   2.887   4.132 -0.7053  0.4783  0.1883
   64MOL0     C 8341   4.204   2.955   4.014  0.7923  0.6939 -0.8969
   64MOL0     C 8342   4.309   2.925   3.929  1.1737 -0.3891 -1.2703
   64MOL0     C 8343   4.315   2.988   3.806  0.8799 -0.4927 -0.3531
   64MOL0     C 8344   4.221   3.090   3.772  0.9769 -0.0319  0.1844
   64MOL0     C 8345   4.226   3.148   3.638  0.7303 -0.2562 -0.3633
   64MOL0     O 8346   4.318   3.082   3.555  0.9247  0.2600 -0.1873
   64MOL0     C 8347   4.358   3.109   3.431 -0.1244  0.2018 -0.2587
   64MOL0     C 8348   4.475   3.040   3.381 -0.0060 -0.0665 -0.4934
   64MOL0     C 8349   4.530   3.081   3.261 -0.2490  0.2506  0.4999
   64MOL0     C 8350   4.462   3.167   3.179  0.8761  0.5590 -0.5103
   64MOL0     O 8351   4.518   3.209   3.062 -1.1503 -0.9901  0.6282
   64MOL0     C 8352   4.472   3.147   2.942  0.2437  0.4089 -0.2776
   64MOL0     C 8353   4.558   3.022   2.906 -0.1498 -0.4687  0.4796
   64MOL0     C 8354   4.547   2.995   2.755 -0.6420 -0.2606  0.3178
   64MOL0     C 8355   4.402   2.967   2.701  0.3464  0.1799 -0.3658
   64MOL0     C 8356   4.399   2.960   2.545 -0.7219  0.5503 -0.6020
   64MOL0     C 8357   4.260   2.929   2.497 -0.8203 -0.4405 -0.7953
   64MOL0     C 8358   4.264   2.909   2.341  0.0451  0.3991  0.3940
   64MOL0     C 8359   4.227   2.763   2.308 -0.0636  0.7082  1.1504
   64MOL0    Cl 8360   4.366   2.647   2.334  0.3013 -0.2588  0.4168
   64MOL0     C 8361   4.336   3.220   3.215  0.2814 -0.8010  0.6743
   64MOL0     C 8362   4.298   3.201   3.347  1.3210  0.2197  0.2870
   64MOL0     O 8363   4.152   3.247   3.612 -0.1873 -0.7477 -0.0218
   64MOL0     C 8364   4.115   3.124   3.858  0.3154  0.6914  0.2008
   64MOL0     C 8365   4.100   3.042   3.979 -0.5849  0.3780  0.3698
   64MOL0     N 8366   3.975   3.022   4.494  0.0748  1.1482  0.8284
   64MOL0     N 8367   3.984   3.054   4.620  0.8368  0.0313  0.7802
   64MOL0     C 8368   2.714   3.195   5.145 -0.6841  0.0419  0.3103
   64MOL0     C 8369   2.645   3.144   5.255  0.3487 -0.6374 -1.2190
   64MOL0     C 8370   2.520   2.986   5.655 -0.6590 -0.1370  0.2235
   64MOL0     C 8371   2.416   3.080   5.683 -0.1515 -0.2783 -0.6663
   64MOL0     C 8372   2.303   3.052   5.761 -0.2294  0.0723 -0.2284
   64MOL0     C 8373   2.279   2.923   5.806  0.3683  0.1265 -0.4796
   64MOL0     O 8374   2.168   2.891   5.880 -0.0728  0.8739 -0.3753
   64MOL0     C 8375   2.200   2.835   6.022 -0.0877  0.1750 -0.1470
   64MOL0     C 8376   2.062   2.833   6.098 -0.2067  0.3811 -1.3168
   64MOL0     C 8377   2.049   2.949   6.200  0.6705 -0.2451 -0.1734
   64MOL0     C 8378   2.019   3.080   6.121 -0.5870 -0.0807  0.2127
   64MOL0     C 8379   1.971   3.185   6.213 -1.2653  0.0371 -0.0011
   64MOL0     C 8380   1.917   3.272   6.273 -0.3951  0.5143  0.0118
   64MOL0     C 8381   2.380   2.826   5.764 -0.0997  0.2593  0.7385
   64MOL0     C 8382   2.499   2.856   5.686  0.5075  0.7593 -0.3113
   64MOL0     H 8383   2.882   3.183   5.505 -1.8696 -1.1839 -0.1567
   64MOL0     H 8384   3.020   3.235   5.306  0.7689  0.0122  0.6236
   64MOL0     H 8385   3.077   3.360   5.108  1.4424  1.0783 -0.1811
   64MOL0     H 8386   3.062   3.330   4.936 -0.0103  0.5151  1.4363
   64MOL0     H 8387   3.130   3.094   4.967  3.7295 -1.9249  1.5991
   64MOL0     H 8388   3.143   3.108   5.140 -0.6447 -0.1351  1.2152
   64MOL0     H 8389   3.313   3.256   5.138  1.8961  2.4654 -0.6052
   64MOL0     H 8390   3.293   3.316   4.973  0.4129 -1.4508 -1.7985
   64MOL0     H 8391   3.352   3.015   4.994 -2.0935 -0.0731 -0.3028
   64MOL0     H 8392   3.349   3.116   4.849  2.3883  1.7365 -0.7745
   64MOL0     H 8393   3.550   3.117   5.065 -0.5322  0.6217 -0.5667
   64MOL0     H 8394   3.554   3.246   4.954 -0.1250 -0.3046  0.7765
   64MOL0     H 8395   3.594   3.097   4.768 -0.0371  2.2039  0.4960
   64MOL0     H 8396   3.601   2.962   4.884 -2.8960 -0.2760 -2.5237
   64MOL0     H 8397   3.793   3.214   4.880 -1.8073 -1.0798 -4.6131
   64MOL0     H 8398   3.787   3.103   5.009  1.4317 -1.7120 -0.1954
   64MOL0     H 8399   3.847   2.910   4.869 -2.4492  0.4890 -0.0209
   64MOL0     H 8400   3.965   3.038   4.877 -0.8068  1.5974 -1.0403
   64MOL0     H 8401   3.716   2.866   4.610  0.1312 -0.6318 -1.5347
   64MOL0     H 8402   3.794   2.940   4.273  0.3778 -2.2757 -0.7837
   64MOL0     H 8403   3.689   2.847   4.366 -1.3570  4.2254 -1.8123
   64MOL0     H 8404   3.803   2.688   4.228 -0.4290 -0.6444 -0.9189
   64MOL0     H 8405   3.910   2.686   4.377  1.6550 -2.1111 -2.8397
   64MOL0     H 8406   4.054   2.681   4.174 -4.2004 -2.0828 -3.0301
   64MOL0     H 8407   3.943   2.809   4.105 -0.3791  4.8070  0.4582
   64MOL0     H 8408   4.154   2.861   4.329  2.1395  3.5541 -0.4179
   64MOL0     H 8409   4.048   2.975   4.250 -2.4223 -1.0701 -1.1452
   64MOL0     H 8410   4.380   2.848   3.958 -0.0339 -1.0377  0.0381
   64MOL0     H 8411   4.392   2.946   3.742 -0.9934 -0.8318 -2.4983
   64MOL0     H 8412   4.520   2.970   3.450  2.0848  1.7669  0.1254
   64MOL0     H 8413   4.632   3.063   3.228 -0.0850  1.6261  0.1700
   64MOL0     H 8414   4.482   3.213   2.856  1.0034 -1.3411 -1.5900
   64MOL0     H 8415   4.366   3.119   2.949  0.5661 -1.4866 -2.2352
   64MOL0     H 8416   4.530   2.925   2.947 -2.6426 -1.3168 -2.7349
   64MOL0     H 8417   4.661   3.050   2.929 -0.2903  2.9767 -2.2410
   64MOL0     H 8418   4.612   2.913   2.725  0.7579  0.8710  0.1098
   64MOL0     H 8419   4.587   3.084   2.706  1.6678 -0.4441  1.6926
   64MOL0     H 8420   4.369   2.869   2.738 -0.2490  0.0951 -1.0987
   64MOL0     H 8421   4.334   3.050   2.725  1.4711  0.9571  0.2494
   64MOL0     H 8422   4.473   2.890   2.505 -1.9069 -2.0183  1.4171
   64MOL0     H 8423   4.419   3.059   2.503 -0.2465 -0.5315 -3.0623
   64MOL0     H 8424   4.192   3.014   2.505 -0.1987  0.7869 -5.4191
   64MOL0     H 8425   4.212   2.840   2.538 -0.0915 -1.6581 -2.4585
   64MOL0     H 8426   4.190   2.978   2.300  1.5988  1.0546 -1.4350
   64MOL0     H 8427   4.358   2.935   2.291  0.5517 -1.5738  0.2346
   64MOL0     H 8428   4.188   2.755   2.206 -1.4901  2.0048  1.5565
   64MOL0     H 8429   4.145   2.729   2.371  0.0811 -4.6527 -0.9832
   64MOL0     H 8430   4.291   3.286   3.141 -0.7048 -3.0918 -0.9196
   64MOL0     H 8431   4.208   3.253   3.378  2.5354  2.5338  0.1443
   64MOL0     H 8432   4.026   3.184   3.840 -0.4603  0.1445  2.0056
   64MOL0     H 8433   4.020   3.074   4.046  1.4197  0.7582  2.7308
   64MOL0     H 8434   2.663   3.222   5.053 -1.9525 -0.2268  0.9120
   64MOL0     H 8435   2.536   3.141   5.259  0.0997  2.5254  3.8983
   64MOL0     H 8436   2.432   3.182   5.648  3.0353  0.0450  1.3218
   64MOL0     H 8437   2.227   3.119   5.798  0.6138  1.8184 -1.5264
   64MOL0     H 8438   2.252   2.910   6.082 -3.6875  2.1801  0.7299
   64MOL0     H 8439   2.249   2.738   6.038  0.5338  1.0637  5.7115
   64MOL0     H 8440   1.980   2.821   6.026 -1.0155  2.9340 -0.8956
   64MOL0     H 8441   2.067   2.736   6.149 -2.0412  1.1444  0.4584
   64MOL0     H 8442   2.141   2.968   6.257 -0.6263  0.9425  1.6478
   64MOL0     H 8443   1.973   2.920   6.272 -0.4957  4.1616  0.6839
   64MOL0     H 8444   2.105   3.113   6.063  0.9034 -1.1666  1.6761
   64MOL0     H 8445   1.933   3.060   6.057 -0.0475 -1.6251 -0.0991
   64MOL0     H 8446   1.857   3.339   6.330 -1.0643  0.9808 -1.2124
   64MOL0     H 8447   2.362   2.720   5.775 -0.2134 -0.2743 -3.2250
   64MOL0     H 8448   2.570   2.779   5.656 -0.7429 -0.9824  0.9889
   65MOL0     O 8449  10.347   7.174   4.627 -0.3853  0.4305 -0.1683
   65MOL0     C 8450  10.285   7.217   4.724 -0.4026 -0.3399 -0.3770
   65MOL0     O 8451  10.335   7.257   4.841  0.3576 -0.5901  1.4342
   65MOL0     C 8452  10.462   7.247   4.871 -0.0977 -0.3065  0.3183
   65MOL0     C 8453  10.517   7.122   4.921 -0.5930  0.1647 -0.5429
   65MOL0     C 8454  10.656   7.115   4.954 -0.0295 -0.7181 -0.1243
   65MOL0     C 8455  10.740   7.230   4.930 -0.0148 -0.0289  0.1689
   65MOL0     O 8456  10.877   7.229   4.956  0.2099 -0.3639  0.3491
   65MOL0     C 8457  10.949   7.208   4.840  0.3786 -0.5173 -0.3277
   65MOL0     C 8458  11.097   7.186   4.884 -0.1196  0.1564  0.1088
   65MOL0     C 8459  11.148   7.060   4.962  0.7434 -0.3278 -0.3740
   65MOL0     C 8460  11.298   7.033   4.924  0.7578 -0.7274  0.7518
   65MOL0     C 8461  11.374   6.995   5.050 -0.3120 -0.0325 -0.6721
   65MOL0     C 8462  11.372   7.100   5.166 -0.4197  0.4744  0.9082
   65MOL0     C 8463  11.418   7.028   5.302 -0.6565 -0.2966  0.3776
   65MOL0     C 8464  11.318   6.926   5.361  0.4715  0.5113  0.1350
   65MOL0     N 8465  11.178   6.962   5.359 -0.0779 -0.1313  0.1091
   65MOL0     C 8466  11.116   7.074   5.410 -0.0752  0.0624  0.8105
   65MOL0     C 8467  10.988   7.063   5.368  0.1718 -1.0994 -0.1523
   65MOL0     C 8468  10.884   7.170   5.399  0.0037 -0.9278 -0.7471
   65MOL0     C 8469  10.821   7.236   5.282 -1.5273  0.1091  0.3314
   65MOL0     C 8470  10.723   7.337   5.336  0.1228 -0.5544 -0.2260
   65MOL0     C 8471  10.620   7.380   5.238 -0.3239  0.3680  0.9244
   65MOL0     O 8472  10.502   7.403   5.312 -0.2965 -0.3128 -0.0759
   65MOL0     C 8473  10.409   7.489   5.251  0.9772  0.0257 -0.9854
   65MOL0     C 8474  10.363   7.606   5.307 -0.5733  0.1487  1.2642
   65MOL0     C 8475  10.253   7.681   5.244 -0.9375  0.4036 -0.0315
   65MOL0     C 8476  10.211   7.638   5.114 -0.3286 -0.9735  0.5308
   65MOL0     C 8477  10.102   7.708   5.051  0.1972 -0.2805 -0.2687
   65MOL0     O 8478  10.039   7.794   5.133 -0.5246 -0.0869 -0.6632
   65MOL0     C 8479   9.942   7.870   5.078 -0.6301 -0.1204  0.3088
   65MOL0     C 8480   9.967   7.987   5.013  0.0274  0.2564 -0.5416
   65MOL0     C 8481   9.861   8.075   4.973 -0.8699  0.5820  0.4900
   65MOL0     C 8482   9.728   8.047   4.973 -0.9853 -0.2494  0.6632
   65MOL0     O 8483   9.640   8.135   4.923  1.6320  0.4731 -0.3628
   65MOL0     C 8484   9.498   8.089   4.911 -0.3155 -0.1426  0.0620
   65MOL0     C 8485   9.487   8.055   4.762  0.6170  0.5097  0.5623
   65MOL0     C 8486   9.330   8.044   4.725 -0.4864 -0.4210 -0.5311
   65MOL0     C 8487   9.296   7.978   4.600 -0.4427 -0.3078  0.4616
   65MOL0     C 8488   9.149   7.998   4.538  0.9053 -0.2969  0.1180
   65MOL0     C 8489   9.117   8.121   4.460 -0.5906 -0.2608  0.9646
   65MOL0     C 8490   8.983   8.108   4.392  0.4111  0.9833  0.3571
   65MOL0     C 8491   8.933   8.243   4.335 -0.1346  0.6160 -0.8272
   65MOL0    Cl 8492   8.890   8.333   4.477  0.0274 -0.0874 -0.1619
   65MOL0     C 8493   9.705   7.922   5.031  0.3521  0.8337  0.7113
   65MOL0     C 8494   9.804   7.839   5.092 -0.7043 -0.4966 -0.2605
   65MOL0     O 8495  10.067   7.688   4.936 -0.1089  0.5638 -0.5738
   65MOL0     C 8496  10.264   7.517   5.057 -0.5400 -0.0914  0.1441
   65MOL0     C 8497  10.352   7.440   5.137  0.2893 -0.1910 -0.1383
   65MOL0     N 8498  10.963   6.949   5.302 -0.7414 -0.3307  0.3571
   65MOL0     N 8499  11.083   6.885   5.289  0.6876 -0.3684 -0.3705
   65MOL0     C 8500  10.681   7.343   4.884 -0.3119 -0.0279  0.3103
   65MOL0     C 8501  10.547   7.353   4.848 -0.7912 -0.2143 -0.2654
   65MOL0     C 8502  10.139   7.236   4.707 -0.1615 -0.2137 -0.2499
   65MOL0     C 8503  10.086   7.245   4.581  0.2869 -0.1884  0.0215
   65MOL0     C 8504   9.946   7.255   4.561  0.1936  0.0035 -0.5242
   65MOL0     C 8505   9.861   7.258   4.678 -0.2643  0.4548  0.2318
   65MOL0     O 8506   9.728   7.284   4.661 -0.6983 -0.4687  0.3495
   65MOL0     C 8507   9.621   7.232   4.732  0.1647  0.4907  1.3171
   65MOL0     C 8508   9.495   7.311   4.704  0.6304  0.8932  1.4578
   65MOL0     C 8509   9.456   7.303   4.558  0.7074 -0.7409  0.0136
   65MOL0     C 8510   9.308   7.331   4.529 -1.1038  0.3221 -0.0195
   65MOL0     C 8511   9.266   7.469   4.550  1.0029 -0.1393  1.3125
   65MOL0     C 8512   9.229   7.578   4.582 -1.1364 -0.2674  0.1319
   65MOL0     C 8513   9.925   7.253   4.803 -0.1936 -0.5265  0.0119
   65MOL0     C 8514  10.056   7.222   4.821  0.3994 -0.3291  1.3244
   65MOL0     H 8515  10.449   7.039   4.939 -0.0769  0.2833  2.3559
   65MOL0     H 8516  10.707   7.023   4.981 -0.3057 -1.8653 -3.1156
   65MOL0     H 8517  10.946   7.293   4.771  3.6395 -0.7288 -0.8986
   65MOL0     H 8518  10.923   7.117   4.785 -0.6619 -1.2444  1.3035
   65MOL0     H 8519  11.127   7.268   4.950 -1.3481  0.3556  0.4461
   65MOL0     H 8520  11.153   7.196   4.790 -1.2614  1.0677 -0.5046
   65MOL0     H 8521  11.092   6.985   4.906 -0.3763  1.9894 -2.5882
   65MOL0     H 8522  11.128   7.059   5.069  1.0332 -0.6376 -0.3195
   65MOL0     H 8523  11.309   6.963   4.841  0.7127 -0.3918  0.4644
   65MOL0     H 8524  11.343   7.123   4.882  0.6056 -1.1229 -0.2709
   65MOL0     H 8525  11.480   6.974   5.038 -0.6392 -1.5712 -1.0186
   65MOL0     H 8526  11.330   6.896   5.067  0.0038 -0.2188 -0.9351
   65MOL0     H 8527  11.283   7.163   5.178  1.7584  3.9580  0.2232
   65MOL0     H 8528  11.459   7.163   5.146  0.5738 -0.0191  3.3364
   65MOL0     H 8529  11.507   6.969   5.279  0.4145  1.3357  0.1057
   65MOL0     H 8530  11.441   7.106   5.375  1.5885  1.8107 -2.3326
   65MOL0     H 8531  11.345   6.917   5.466  1.1175 -0.1012 -0.0736
   65MOL0     H 8532  11.332   6.823   5.329  0.5947  0.3986  0.5477
   65MOL0     H 8533  11.147   7.155   5.475  0.1983 -0.0626  0.8335
   65MOL0     H 8534  10.931   7.252   5.453 -1.0712  0.2463 -1.5372
   65MOL0     H 8535  10.799   7.131   5.457 -0.1278 -1.0793 -1.0345
   65MOL0     H 8536  10.765   7.160   5.226  2.1412 -1.6355 -1.2932
   65MOL0     H 8537  10.891   7.290   5.218 -0.0188 -0.7069  1.2408
   65MOL0     H 8538  10.672   7.283   5.416  0.9202 -0.2391  0.5076
   65MOL0     H 8539  10.775   7.422   5.380  1.9458 -0.9629 -1.4610
   65MOL0     H 8540  10.604   7.293   5.172  1.9721 -0.8016  1.7936
   65MOL0     H 8541  10.648   7.471   5.184  2.2730 -0.0278  1.4714
   65MOL0     H 8542  10.417   7.646   5.392  0.5362  1.0746  0.1560
   65MOL0     H 8543  10.216   7.769   5.296 -0.4125 -0.6906  2.3257
   65MOL0     H 8544  10.070   8.014   4.994 -0.3221  1.1286 -1.2501
   65MOL0     H 8545   9.890   8.176   4.943  1.0653 -0.2118 -0.5163
   65MOL0     H 8546   9.427   8.170   4.930 -0.1454  0.4093 -1.4680
   65MOL0     H 8547   9.469   7.996   4.960 -0.2719  0.4414  1.2191
   65MOL0     H 8548   9.531   7.960   4.730  1.2830  1.9314 -3.2328
   65MOL0     H 8549   9.529   8.129   4.693  1.4144 -2.2625 -2.1832
   65MOL0     H 8550   9.281   8.142   4.730 -1.2846 -0.8178 -0.3673
   65MOL0     H 8551   9.285   7.987   4.807 -0.1886 -0.3276 -0.3001
   65MOL0     H 8552   9.362   8.013   4.519 -0.5976 -0.2064  0.3776
   65MOL0     H 8553   9.306   7.870   4.608 -3.0627 -0.5052  2.6740
   65MOL0     H 8554   9.075   7.998   4.618  0.8192 -1.2247  0.0525
   65MOL0     H 8555   9.123   7.911   4.477  2.4400 -2.2026  2.0032
   65MOL0     H 8556   9.198   8.143   4.390  0.5571  0.1731  2.3720
   65MOL0     H 8557   9.121   8.205   4.530 -0.2281  2.6346 -2.2466
   65MOL0     H 8558   8.993   8.034   4.312  1.0233  1.3027  0.1329
   65MOL0     H 8559   8.907   8.080   4.465 -0.5142  4.1277  0.7717
   65MOL0     H 8560   8.845   8.228   4.272 -0.0547  0.3253 -0.8704
   65MOL0     H 8561   9.017   8.286   4.279  3.2567 -3.7177  0.3772
   65MOL0     H 8562   9.605   7.879   5.025 -0.0941  1.8515  0.6152
   65MOL0     H 8563   9.778   7.755   5.155  0.1635 -0.8310 -0.3339
   65MOL0     H 8564  10.242   7.485   4.955  2.8631 -0.3708 -0.6012
   65MOL0     H 8565  10.390   7.346   5.099  0.5607  0.4902 -1.6248
   65MOL0     H 8566  10.729   7.431   4.841 -2.8399 -0.7034 -4.6483
   65MOL0     H 8567  10.501   7.436   4.796  2.5866  0.5925 -2.2961
   65MOL0     H 8568  10.149   7.245   4.493  2.5726 -0.9272  1.5565
   65MOL0     H 8569   9.907   7.245   4.461  2.7857 -0.3935 -1.5611
   65MOL0     H 8570   9.643   7.220   4.839  2.7892  1.8278  1.0218
   65MOL0     H 8571   9.607   7.132   4.691 -1.6606  1.8969 -1.8638
   65MOL0     H 8572   9.415   7.265   4.762  0.6048  0.2008  0.8937
   65MOL0     H 8573   9.500   7.414   4.742 -1.9799  1.8605 -0.5822
   65MOL0     H 8574   9.475   7.205   4.514 -2.6417 -1.5051  0.0091
   65MOL0     H 8575   9.517   7.375   4.503 -2.1975  0.1971 -2.2233
   65MOL0     H 8576   9.285   7.302   4.426  1.7334  2.4079 -1.3914
   65MOL0     H 8577   9.246   7.267   4.591 -0.8329 -0.0410 -0.1186
   65MOL0     H 8578   9.194   7.676   4.605  4.3604  2.2946 -0.8501
   65MOL0     H 8579   9.854   7.263   4.884  2.8404  0.8228  2.6983
   65MOL0     H 8580  10.093   7.214   4.923 -0.1338  3.5281  1.9913
   66MOL0     O 8581   5.184   7.006   1.774  0.6971  0.2955 -0.0079
   66MOL0     C 8582   5.108   6.936   1.839 -0.4314 -0.2163  0.0551
   66MOL0     O 8583   4.975   6.974   1.872  0.1971  0.6072 -0.1241
   66MOL0     C 8584   4.915   7.068   1.803 -0.3911 -0.7668  0.4702
   66MOL0     C 8585   4.797   7.128   1.856 -1.0631  0.3608  0.7222
   66MOL0     C 8586   4.735   7.232   1.789  0.1269 -1.0957 -0.7093
   66MOL0     C 8587   4.767   7.266   1.662  0.0016  0.2125 -0.6872
   66MOL0     O 8588   4.704   7.373   1.606  1.0315 -0.0338 -0.5909
   66MOL0     C 8589   4.750   7.435   1.479 -0.5244  0.4724 -0.6612
   66MOL0     C 8590   4.635   7.506   1.414  0.7479  0.5001 -0.0031
   66MOL0     C 8591   4.595   7.622   1.506  0.2568  0.4644 -0.3043
   66MOL0     C 8592   4.478   7.706   1.444 -0.6484  0.0208 -0.0373
   66MOL0     C 8593   4.504   7.845   1.474  0.3346  1.3521 -0.2188
   66MOL0     C 8594   4.377   7.921   1.480 -1.0970 -0.2361  0.4793
   66MOL0     C 8595   4.305   7.918   1.345  0.2041  0.0023  1.1868
   66MOL0     C 8596   4.158   7.964   1.351  0.1677  0.0960  0.5862
   66MOL0     N 8597   4.135   8.109   1.370 -0.9916 -0.0258 -0.7691
   66MOL0     C 8598   4.195   8.210   1.297  0.2412 -1.1119 -0.1544
   66MOL0     C 8599   4.158   8.325   1.349  0.1959  0.8214  0.4606
   66MOL0     C 8600   4.233   8.461   1.307 -0.2481 -0.1839 -0.0057
   66MOL0     C 8601   4.374   8.478   1.360 -0.7071 -0.3922 -0.2850
   66MOL0     C 8602   4.379   8.498   1.507  0.7869 -0.0739  0.3601
   66MOL0     C 8603   4.420   8.378   1.600  0.2937 -1.5703 -0.0781
   66MOL0     O 8604   4.504   8.283   1.536  0.4567 -0.6485  0.2507
   66MOL0     C 8605   4.639   8.275   1.579  0.2986  0.2080  0.5999
   66MOL0     C 8606   4.718   8.387   1.593 -0.0192 -0.3444  1.2924
   66MOL0     C 8607   4.852   8.370   1.626 -0.4205 -0.4705  0.3083
   66MOL0     C 8608   4.906   8.244   1.655  0.2479 -0.3529  0.7740
   66MOL0     C 8609   5.054   8.235   1.691  0.0710 -0.8243 -0.0281
   66MOL0     O 8610   5.096   8.102   1.719  0.0968 -0.4620  0.8114
   66MOL0     C 8611   5.226   8.087   1.748 -0.3130  0.6935  0.6318
   66MOL0     C 8612   5.340   8.134   1.685 -0.5779  0.0627 -0.5040
   66MOL0     C 8613   5.469   8.079   1.726  0.5605 -0.0256  0.3095
   66MOL0     C 8614   5.480   7.983   1.828 -0.3163  0.1354 -0.4308
   66MOL0     O 8615   5.595   7.947   1.896 -0.4081 -0.9078 -0.4330
   66MOL0     C 8616   5.727   7.956   1.831  0.2880 -0.4134 -0.3593
   66MOL0     C 8617   5.736   7.849   1.723  0.3113  0.3048 -0.2323
   66MOL0     C 8618   5.880   7.849   1.670  1.0132 -0.6484  0.9497
   66MOL0     C 8619   5.936   7.969   1.603  0.6062 -0.2914 -0.9693
   66MOL0     C 8620   6.084   7.937   1.577  0.4871  0.5479 -0.4093
   66MOL0     C 8621   6.122   8.004   1.439  0.5097 -0.1315 -0.5487
   66MOL0     C 8622   6.266   7.965   1.401 -0.2932 -0.8108  0.7262
   66MOL0     C 8623   6.294   7.996   1.255 -0.6953 -0.4927  0.2769
   66MOL0    Cl 8624   6.276   8.160   1.210  0.0068 -0.3404 -1.1174
   66MOL0     C 8625   5.367   7.946   1.898  1.6452 -0.2973 -0.4624
   66MOL0     C 8626   5.244   8.004   1.854  0.1526  0.0605 -0.8938
   66MOL0     O 8627   5.116   8.337   1.717 -0.1894 -0.0362  0.1734
   66MOL0     C 8628   4.827   8.131   1.641  0.8536 -0.6766 -0.2510
   66MOL0     C 8629   4.692   8.145   1.607  0.5722  0.8526 -0.0956
   66MOL0     N 8630   4.073   8.296   1.462 -0.1390 -1.0476  0.6782
   66MOL0     N 8631   4.061   8.167   1.468  0.1961 -0.4565  0.8551
   66MOL0     C 8632   4.875   7.198   1.594 -0.3242  0.4439 -0.0523
   66MOL0     C 8633   4.948   7.097   1.666  0.4919  0.8233 -0.1700
   66MOL0     C 8634   5.144   6.800   1.872  0.4267  0.1361 -1.2371
   66MOL0     C 8635   5.109   6.757   2.011 -0.5890  0.7708 -1.2251
   66MOL0     C 8636   5.154   6.625   2.046 -0.5418 -0.1324  0.4204
   66MOL0     C 8637   5.228   6.545   1.958  1.2863  0.0909  0.2513
   66MOL0     O 8638   5.263   6.427   2.010 -0.0092 -0.0586 -0.3775
   66MOL0     C 8639   5.333   6.328   1.928 -0.0432 -0.2467 -0.6133
   66MOL0     C 8640   5.352   6.198   2.009 -0.0329  0.7203 -0.0599
   66MOL0     C 8641   5.452   6.204   2.127  0.9001  0.5219 -0.6082
   66MOL0     C 8642   5.588   6.138   2.106 -0.9421  0.2180 -0.7449
   66MOL0     C 8643   5.661   6.115   2.239  0.5011  0.2013  0.0951
   66MOL0     C 8644   5.705   6.074   2.343  0.5560 -0.6291 -0.8202
   66MOL0     C 8645   5.263   6.598   1.837  0.6672 -0.7167 -0.2120
   66MOL0     C 8646   5.229   6.731   1.791 -0.4067 -1.2182  0.0018
   66MOL0     H 8647   4.767   7.100   1.957 -0.0378  0.9813  1.2190
   66MOL0     H 8648   4.658   7.291   1.838 -1.6050 -4.2937  0.6945
   66MOL0     H 8649   4.796   7.363   1.412  0.1656  2.5391 -2.5440
   66MOL0     H 8650   4.831   7.499   1.514  0.3297 -1.4028  0.9646
   66MOL0     H 8651   4.552   7.436   1.395  1.8422 -1.4663  1.9959
   66MOL0     H 8652   4.665   7.534   1.313  0.1043 -1.3510 -0.7588
   66MOL0     H 8653   4.685   7.679   1.531  0.1685 -0.4478  2.3558
   66MOL0     H 8654   4.556   7.578   1.598 -3.3277  0.1819 -1.7634
   66MOL0     H 8655   4.470   7.696   1.335  0.4244 -1.3027 -0.0128
   66MOL0     H 8656   4.379   7.679   1.482 -0.9533  1.5213  0.3159
   66MOL0     H 8657   4.575   7.886   1.402  0.8510  0.0297 -0.4940
   66MOL0     H 8658   4.557   7.853   1.569  0.2336 -0.6008  0.0531
   66MOL0     H 8659   4.400   8.022   1.516 -2.4672  0.0738  0.5616
   66MOL0     H 8660   4.314   7.887   1.563 -1.2546  1.5285  1.1371
   66MOL0     H 8661   4.361   7.991   1.287  1.7121  0.5338  3.2008
   66MOL0     H 8662   4.305   7.827   1.284 -1.3923  0.6441  0.1471
   66MOL0     H 8663   4.104   7.916   1.433 -1.4174  2.7552  1.2558
   66MOL0     H 8664   4.111   7.937   1.257 -0.7763  1.0881  0.7529
   66MOL0     H 8665   4.265   8.214   1.213  1.6993 -0.4818  1.0440
   66MOL0     H 8666   4.166   8.544   1.330 -2.5317 -1.8875 -0.1841
   66MOL0     H 8667   4.231   8.471   1.198  2.8170  1.2304 -0.0286
   66MOL0     H 8668   4.414   8.572   1.320 -4.2983  1.1836 -0.5478
   66MOL0     H 8669   4.423   8.390   1.320 -0.0831  0.1117 -0.6449
   66MOL0     H 8670   4.456   8.574   1.521  1.8290 -0.5464 -2.2442
   66MOL0     H 8671   4.291   8.551   1.544  1.5029  0.5749  1.1647
   66MOL0     H 8672   4.328   8.327   1.632 -0.9371  0.1475 -0.6958
   66MOL0     H 8673   4.464   8.426   1.688  0.4115  2.6893 -2.1896
   66MOL0     H 8674   4.677   8.479   1.553  2.3311  0.1232 -0.2603
   66MOL0     H 8675   4.917   8.457   1.615  0.7178 -1.5770 -2.8837
   66MOL0     H 8676   5.330   8.203   1.602 -0.4144  1.7142  0.8010
   66MOL0     H 8677   5.556   8.122   1.677  0.5301  0.3159  0.5493
   66MOL0     H 8678   5.806   7.940   1.905  1.5165  1.4659 -1.1791
   66MOL0     H 8679   5.748   8.059   1.801 -0.4031 -1.0873 -3.5117
   66MOL0     H 8680   5.668   7.868   1.639  1.8562  3.6807 -0.8799
   66MOL0     H 8681   5.720   7.748   1.762  0.5545  0.1546 -0.5125
   66MOL0     H 8682   5.879   7.771   1.593 -2.7974 -2.0534  2.1726
   66MOL0     H 8683   5.943   7.805   1.749 -1.0995  0.3147  3.3352
   66MOL0     H 8684   5.878   7.987   1.512 -0.5615  1.0991 -0.0014
   66MOL0     H 8685   5.915   8.062   1.657  3.5885  0.8416 -1.5427
   66MOL0     H 8686   6.104   7.830   1.572 -0.2879  0.4621 -2.8900
   66MOL0     H 8687   6.149   7.976   1.656 -0.9469 -2.7104  2.6100
   66MOL0     H 8688   6.107   8.112   1.450 -4.4506 -0.7087  0.5878
   66MOL0     H 8689   6.044   7.979   1.367  0.5492  1.0268 -1.0300
   66MOL0     H 8690   6.333   8.027   1.461 -0.7974 -0.1585  0.6202
   66MOL0     H 8691   6.269   7.856   1.413  0.9203 -0.8906 -0.0508
   66MOL0     H 8692   6.211   7.949   1.202  0.6768 -0.5588 -1.9243
   66MOL0     H 8693   6.389   7.949   1.225  0.2114  1.4732 -0.0903
   66MOL0     H 8694   5.381   7.888   1.988  2.1217  0.3987 -0.0754
   66MOL0     H 8695   5.155   7.960   1.896  1.9167 -2.5330  0.4053
   66MOL0     H 8696   4.871   8.034   1.659  1.2806 -0.4232  0.0954
   66MOL0     H 8697   4.636   8.053   1.595  0.4152  0.9021  0.2247
   66MOL0     H 8698   4.907   7.221   1.493  1.1954 -2.1132 -0.2444
   66MOL0     H 8699   5.031   7.052   1.612 -0.1321  0.6724 -1.0204
   66MOL0     H 8700   5.053   6.833   2.064  0.0033  1.9344 -2.2057
   66MOL0     H 8701   5.123   6.588   2.143 -3.1984  0.0526 -0.2997
   66MOL0     H 8702   5.432   6.361   1.893  0.8769 -2.1240  0.0274
   66MOL0     H 8703   5.287   6.314   1.830  1.5225  2.7591 -1.9385
   66MOL0     H 8704   5.252   6.173   2.046  1.1687 -1.7609  1.7674
   66MOL0     H 8705   5.378   6.118   1.939 -2.0667 -0.7481  0.7662
   66MOL0     H 8706   5.396   6.158   2.210  0.2829  1.9750 -0.1868
   66MOL0     H 8707   5.469   6.311   2.141  0.0545  1.2576 -4.2687
   66MOL0     H 8708   5.581   6.045   2.049  0.3147 -0.0709 -0.4427
   66MOL0     H 8709   5.646   6.206   2.043  2.1251 -2.1838 -0.7501
   66MOL0     H 8710   5.768   6.051   2.427  2.4283  0.2551 -1.9337
   66MOL0     H 8711   5.304   6.536   1.758 -0.0222 -1.1813 -0.2090
   66MOL0     H 8712   5.266   6.771   1.697 -0.2817 -0.2421  0.4599
   67MOL0     O 8713  10.760  10.866   7.011 -0.5119  0.2284 -0.0862
   67MOL0     C 8714  10.818  10.950   6.944 -1.1747  0.0285  0.1651
   67MOL0     O 8715  10.920  11.031   6.986  0.1805  0.8259 -0.7044
   67MOL0     C 8716  10.919  11.033   7.126 -0.5402 -0.3192  0.1348
   67MOL0     C 8717  10.824  11.121   7.186  0.4760 -0.4411 -0.1505
   67MOL0     C 8718  10.845  11.158   7.320 -0.2018  0.2694  0.1285
   67MOL0     C 8719  10.945  11.101   7.402 -0.2207 -0.6751  0.2752
   67MOL0     O 8720  10.984  11.136   7.529 -0.1980 -0.9476  0.0043
   67MOL0     C 8721  10.945  11.267   7.577 -0.6786  0.8495  0.0803
   67MOL0     C 8722  10.959  11.275   7.730  0.4588  0.1911  0.8144
   67MOL0     C 8723  10.988  11.416   7.778 -0.1412  0.1658 -0.3432
   67MOL0     C 8724  10.878  11.526   7.763  0.8105  0.3294  0.5267
   67MOL0     C 8725  10.759  11.497   7.857 -0.5661 -0.5113 -0.2177
   67MOL0     C 8726  10.793  11.552   8.004 -0.0994 -0.6811 -0.1946
   67MOL0     C 8727  10.667  11.562   8.082  0.2817  0.1598  0.5233
   67MOL0     C 8728  10.674  11.570   8.240 -0.3769  0.5555  0.7222
   67MOL0     N 8729  10.704  11.704   8.275 -1.1203  0.3282 -0.5602
   67MOL0     C 8730  10.610  11.798   8.296 -0.4174 -0.3566 -0.2325
   67MOL0     C 8731  10.681  11.901   8.337 -0.4400 -0.1118 -0.0800
   67MOL0     C 8732  10.619  12.030   8.398 -0.6645 -0.0288 -0.9899
   67MOL0     C 8733  10.700  12.153   8.355 -0.2719 -0.3064  0.2189
   67MOL0     C 8734  10.666  12.279   8.418 -0.3276 -0.3904  0.6178
   67MOL0     C 8735  10.750  12.405   8.382 -0.7104  0.1427 -0.9886
   67MOL0     O 8736  10.741  12.437   8.240 -0.7875  0.8680 -0.4839
   67MOL0     C 8737  10.663  12.548   8.209 -0.3353  0.1939 -0.2134
   67MOL0     C 8738  10.684  12.607   8.092  1.1786  0.1050 -0.1546
   67MOL0     C 8739  10.602  12.710   8.048  0.1846  1.3594 -0.4817
   67MOL0     C 8740  10.497  12.759   8.126  0.5586  0.1307 -0.7120
   67MOL0     C 8741  10.400  12.851   8.083 -0.1472 -0.7531  1.3194
   67MOL0     O 8742  10.285  12.847   8.142  0.1297 -0.7199 -0.1275
   67MOL0     C 8743  10.178  12.943   8.141 -0.0879  0.5270 -0.3003
   67MOL0     C 8744  10.184  13.077   8.080 -0.3675 -0.6959  0.2206
   67MOL0     C 8745  10.076  13.165   8.102 -0.1098 -0.3148 -0.0103
   67MOL0     C 8746   9.962  13.125   8.171 -0.4276  0.4304 -0.3479
   67MOL0     O 8747   9.860  13.214   8.195 -0.5234 -0.2040  0.8405
   67MOL0     C 8748   9.776  13.191   8.301 -0.0728  0.6664 -0.3792
   67MOL0     C 8749   9.687  13.319   8.310 -0.3899  0.1225 -0.2726
   67MOL0     C 8750   9.767  13.443   8.351  0.0050 -1.3678  1.6068
   67MOL0     C 8751   9.681  13.569   8.358  0.4275 -0.0233  0.3581
   67MOL0     C 8752   9.760  13.699   8.357 -0.0954  0.0513  0.8251
   67MOL0     C 8753   9.678  13.820   8.393  0.4816 -0.2183 -0.3488
   67MOL0     C 8754   9.699  13.858   8.537 -0.7484 -0.3449 -0.7658
   67MOL0     C 8755   9.622  13.987   8.564  0.2304  0.4020  0.0616
   67MOL0    Cl 8756   9.447  13.934   8.591  0.2855 -0.1889 -0.0866
   67MOL0     C 8757   9.960  12.997   8.230  0.7495  0.4537 -0.2359
   67MOL0     C 8758  10.066  12.908   8.217 -0.5863  0.3796 -0.1531
   67MOL0     O 8759  10.442  12.937   7.995  0.5243 -0.0114 -0.2570
   67MOL0     C 8760  10.482  12.708   8.255  0.3204 -0.6836 -0.8269
   67MOL0     C 8761  10.571  12.610   8.294  0.6793 -0.5164  0.6296
   67MOL0     N 8762  10.820  11.872   8.328  0.1232  0.3952 -0.0857
   67MOL0     N 8763  10.824  11.746   8.298 -0.5879  0.2937 -0.1765
   67MOL0     C 8764  11.036  11.014   7.341  0.0089 -0.2690 -0.5269
   67MOL0     C 8765  11.020  10.981   7.206  0.3377  1.0412  0.7381
   67MOL0     C 8766  10.778  10.969   6.801  0.3238  0.4179 -0.6075
   67MOL0     C 8767  10.676  10.890   6.761 -0.4347  1.2711  0.5756
   67MOL0     C 8768  10.625  10.903   6.639  0.1103 -0.8622  0.8821
   67MOL0     C 8769  10.689  10.990   6.545 -0.0655  0.2686  0.6384
   67MOL0     O 8770  10.655  11.006   6.411  0.2663  0.0391  0.5784
   67MOL0     C 8771  10.529  10.942   6.368  0.0934  0.4912  0.3598
   67MOL0     C 8772  10.505  11.000   6.225  0.6720  0.6368  0.4797
   67MOL0     C 8773  10.493  11.162   6.234 -0.1720 -0.0593 -0.5711
   67MOL0     C 8774  10.499  11.213   6.092  0.2733  0.2689  0.3552
   67MOL0     C 8775  10.364  11.239   6.034  0.6624 -0.5366 -0.0320
   67MOL0     C 8776  10.258  11.276   5.995  0.4590 -0.8624 -0.4398
   67MOL0     C 8777  10.791  11.065   6.583  0.1040 -0.4131 -0.1589
   67MOL0     C 8778  10.836  11.059   6.714 -0.4295  0.6629  0.3135
   67MOL0     H 8779  10.741  11.155   7.125  0.3191 -1.9887 -0.8311
   67MOL0     H 8780  10.790  11.247   7.348  1.8503  1.5507  0.3222
   67MOL0     H 8781  10.841  11.290   7.554 -0.1628  1.4700 -1.8291
   67MOL0     H 8782  11.014  11.340   7.532  0.2336  0.4499  0.7985
   67MOL0     H 8783  11.039  11.208   7.763 -0.0952  0.3538  2.5692
   67MOL0     H 8784  10.866  11.249   7.782 -0.7579  2.0611 -0.2968
   67MOL0     H 8785  11.077  11.450   7.725  1.3232 -1.1484  1.1607
   67MOL0     H 8786  11.003  11.402   7.885  1.9376  0.3949 -0.5710
   67MOL0     H 8787  10.921  11.627   7.770  0.5507  0.4186  0.8057
   67MOL0     H 8788  10.846  11.514   7.659  1.4255  2.6314  0.0036
   67MOL0     H 8789  10.732  11.391   7.862 -1.1058 -0.3297  1.8589
   67MOL0     H 8790  10.691  11.560   7.800 -1.4960 -0.4946  0.8685
   67MOL0     H 8791  10.835  11.653   8.010 -1.7301  0.0339 -0.5235
   67MOL0     H 8792  10.870  11.488   8.050  0.2041 -0.9552 -1.0638
   67MOL0     H 8793  10.610  11.644   8.036  3.3981  1.9169 -0.5322
   67MOL0     H 8794  10.600  11.478   8.061  0.7926  0.2653 -1.8062
   67MOL0     H 8795  10.746  11.499   8.280 -1.3793 -1.2006 -0.4529
   67MOL0     H 8796  10.572  11.558   8.280 -0.3584 -0.5295  0.4684
   67MOL0     H 8797  10.503  11.784   8.288 -0.3793 -1.5044  0.8237
   67MOL0     H 8798  10.624  12.022   8.507 -0.8609 -0.6517 -1.0210
   67MOL0     H 8799  10.514  12.038   8.369 -1.5124 -0.0585  1.7840
   67MOL0     H 8800  10.702  12.162   8.246  0.4543 -2.2821  0.0286
   67MOL0     H 8801  10.798  12.125   8.395  0.7233  2.5111 -0.0643
   67MOL0     H 8802  10.561  12.287   8.387 -0.3123 -1.2904  0.3251
   67MOL0     H 8803  10.670  12.269   8.527  5.6002 -1.9691  0.5741
   67MOL0     H 8804  10.856  12.381   8.383 -0.6315 -0.3389 -4.9892
   67MOL0     H 8805  10.723  12.490   8.447  1.2712 -0.3978  0.6282
   67MOL0     H 8806  10.746  12.564   8.014  1.9878  1.7005 -0.4428
   67MOL0     H 8807  10.611  12.754   7.949 -0.4861  1.7333 -0.3810
   67MOL0     H 8808  10.267  13.096   8.012  0.7926 -6.9746 -0.7616
   67MOL0     H 8809  10.062  13.263   8.058 -2.5234 -0.5629  0.0655
   67MOL0     H 8810   9.817  13.178   8.401 -1.4614 -0.9285  0.0403
   67MOL0     H 8811   9.703  13.112   8.277 -2.5661  2.6995  0.0476
   67MOL0     H 8812   9.620  13.292   8.392  0.4991  0.1580  0.4793
   67MOL0     H 8813   9.640  13.329   8.211 -1.1087 -1.8015 -0.1620
   67MOL0     H 8814   9.854  13.458   8.287 -0.1091  2.1952  2.0799
   67MOL0     H 8815   9.813  13.435   8.450  1.4063 -2.9810  0.8584
   67MOL0     H 8816   9.613  13.564   8.272  2.1901 -0.9621 -1.0633
   67MOL0     H 8817   9.620  13.575   8.448  2.4678  3.1247  1.6891
   67MOL0     H 8818   9.800  13.689   8.256 -1.4898  0.4903  0.2149
   67MOL0     H 8819   9.844  13.676   8.424  0.3348 -1.9883 -0.3214
   67MOL0     H 8820   9.577  13.809   8.354  0.7636  1.1211 -1.5454
   67MOL0     H 8821   9.730  13.903   8.344  0.7807  0.5701  1.2215
   67MOL0     H 8822   9.661  13.785   8.610 -1.4246  3.3374  2.9521
   67MOL0     H 8823   9.805  13.883   8.548  0.6460 -5.0785 -1.0093
   67MOL0     H 8824   9.625  14.047   8.473 -2.3159  1.4186  0.5442
   67MOL0     H 8825   9.662  14.054   8.641 -1.8925 -0.3509  1.9460
   67MOL0     H 8826   9.878  12.975   8.298  0.0224  2.6800 -0.3070
   67MOL0     H 8827  10.084  12.814   8.268 -0.8248  0.0219 -0.7252
   67MOL0     H 8828  10.401  12.737   8.320 -0.5907 -1.5125 -1.5700
   67MOL0     H 8829  10.544  12.569   8.391 -0.0289  4.2145  2.7032
   67MOL0     H 8830  11.122  10.976   7.395  0.2187  1.3778  0.3635
   67MOL0     H 8831  11.085  10.911   7.155 -1.4370  0.3959 -0.7637
   67MOL0     H 8832  10.645  10.804   6.820  2.7803 -1.9003 -1.9094
   67MOL0     H 8833  10.546  10.839   6.601  1.5952 -1.8945 -0.5893
   67MOL0     H 8834  10.444  10.961   6.434 -0.3721 -2.9325  0.9080
   67MOL0     H 8835  10.537  10.834   6.361  0.2422  0.4697  0.8318
   67MOL0     H 8836  10.574  10.969   6.147 -0.3742 -0.7088  0.0477
   67MOL0     H 8837  10.404  10.974   6.192  0.3187  1.0895  1.1792
   67MOL0     H 8838  10.582  11.198   6.286 -0.7417  1.5663 -0.6821
   67MOL0     H 8839  10.407  11.206   6.286  0.4912  1.0487 -0.3896
   67MOL0     H 8840  10.563  11.301   6.081 -1.9753  2.1955  1.6656
   67MOL0     H 8841  10.542  11.142   6.022  0.4006  1.8874 -1.2964
   67MOL0     H 8842  10.177  11.311   5.935  0.8889 -3.1112 -2.5120
   67MOL0     H 8843  10.829  11.136   6.510 -2.8914 -1.3689 -2.9061
   67MOL0     H 8844  10.906  11.131   6.754  1.3927 -1.5517  1.3545
   68MOL0     O 8845   5.463   4.706   1.526  0.1424  0.2518  0.2589
   68MOL0     C 8846   5.575   4.701   1.478 -0.9472 -0.4695 -0.9627
   68MOL0     O 8847   5.609   4.696   1.346  0.0903  0.2242  0.0628
   68MOL0     C 8848   5.515   4.661   1.243 -0.2398 -0.2317 -0.1603
   68MOL0     C 8849   5.535   4.750   1.137 -0.3692  0.3917  0.6642
   68MOL0     C 8850   5.459   4.737   1.020  0.0986  0.0326 -0.0604
   68MOL0     C 8851   5.367   4.634   1.006 -0.3550 -0.7252  0.1666
   68MOL0     O 8852   5.299   4.642   0.890 -0.1530 -0.2672  0.0414
   68MOL0     C 8853   5.197   4.551   0.860  0.3556  0.4672  0.3419
   68MOL0     C 8854   5.084   4.608   0.792 -0.7163 -0.6605  0.0401
   68MOL0     C 8855   4.972   4.509   0.755 -0.5740 -0.3726  0.5068
   68MOL0     C 8856   5.027   4.412   0.653 -0.9536  0.1409 -0.7258
   68MOL0     C 8857   4.900   4.341   0.598  0.6354 -0.0052  0.0936
   68MOL0     C 8858   4.814   4.411   0.478 -0.2709  0.7185 -0.5878
   68MOL0     C 8859   4.698   4.320   0.431  0.2291 -0.1837 -0.0879
   68MOL0     C 8860   4.594   4.280   0.541  0.4085  0.1927  0.4892
   68MOL0     N 8861   4.515   4.398   0.583  0.4643  0.2600  0.3054
   68MOL0     C 8862   4.401   4.462   0.528 -0.2298  0.0773  0.3502
   68MOL0     C 8863   4.379   4.575   0.609 -0.3658  0.7406  0.3646
   68MOL0     C 8864   4.267   4.684   0.584  0.1680 -0.1817  0.8091
   68MOL0     C 8865   4.332   4.798   0.504  0.8657  0.1072 -0.6775
   68MOL0     C 8866   4.216   4.867   0.432 -0.4153 -0.5466  0.8168
   68MOL0     C 8867   4.258   5.010   0.394 -0.0381 -0.6072  0.3130
   68MOL0     O 8868   4.157   5.073   0.313 -0.6806  0.1956  0.2338
   68MOL0     C 8869   4.096   5.185   0.346  0.1079 -0.1296 -0.1634
   68MOL0     C 8870   4.068   5.278   0.239 -0.1968 -0.6134  0.3544
   68MOL0     C 8871   3.993   5.395   0.278  0.4163 -0.4481  0.3439
   68MOL0     C 8872   3.946   5.411   0.413  0.4274  0.4072 -0.1549
   68MOL0     C 8873   3.862   5.533   0.441 -0.2885 -0.6165 -0.5286
   68MOL0     O 8874   3.807   5.601   0.344 -0.2461 -0.5067  0.1380
   68MOL0     C 8875   3.698   5.687   0.360 -0.0520  0.1098 -1.1262
   68MOL0     C 8876   3.705   5.804   0.282 -0.1549  1.0200  0.3977
   68MOL0     C 8877   3.636   5.918   0.307  0.3902 -0.3959  0.5634
   68MOL0     C 8878   3.537   5.913   0.407  0.1426 -0.9465  0.2659
   68MOL0     O 8879   3.458   6.020   0.441 -0.1250  0.2642  0.7707
   68MOL0     C 8880   3.509   6.155   0.414 -0.2858  0.7973  0.1301
   68MOL0     C 8881   3.420   6.243   0.490  0.5866  0.2929  0.0930
   68MOL0     C 8882   3.268   6.221   0.449 -0.7208 -0.4708 -0.3224
   68MOL0     C 8883   3.173   6.302   0.536  0.3607  0.4217  0.1398
   68MOL0     C 8884   3.018   6.290   0.517 -0.0075  0.2166  0.1004
   68MOL0     C 8885   2.985   6.266   0.367  0.5966  0.6162 -0.0770
   68MOL0     C 8886   3.028   6.383   0.274 -0.2937 -0.0433 -0.2171
   68MOL0     C 8887   2.926   6.489   0.276  0.0319 -0.2987  0.3865
   68MOL0    Cl 8888   2.756   6.439   0.271  0.0802 -0.7524  0.1871
   68MOL0     C 8889   3.519   5.800   0.487  0.4180  0.7456  0.8939
   68MOL0     C 8890   3.601   5.691   0.469  0.3615 -0.0638 -0.5963
   68MOL0     O 8891   3.846   5.550   0.564  0.3739  1.0423 -0.6518
   68MOL0     C 8892   3.974   5.317   0.512  0.2948 -0.2711  0.5788
   68MOL0     C 8893   4.053   5.214   0.478 -0.0231  0.1712 -0.0436
   68MOL0     N 8894   4.478   4.581   0.705 -0.5618  0.1990  0.2172
   68MOL0     N 8895   4.555   4.468   0.688 -0.4336 -0.8651 -0.0329
   68MOL0     C 8896   5.359   4.536   1.117 -0.7666  0.0706  0.5262
   68MOL0     C 8897   5.429   4.551   1.239 -0.9192 -0.2226 -0.6697
   68MOL0     C 8898   5.699   4.696   1.568  0.0349  0.2281 -1.0481
   68MOL0     C 8899   5.698   4.645   1.696  0.1144  0.7604  0.0655
   68MOL0     C 8900   5.811   4.646   1.774  0.7286 -0.7474 -0.4312
   68MOL0     C 8901   5.933   4.691   1.736 -0.0935 -0.5042 -0.0268
   68MOL0     O 8902   6.042   4.686   1.817 -0.6053 -0.6285 -0.3076
   68MOL0     C 8903   6.018   4.665   1.961  1.0034 -1.0200  0.2607
   68MOL0     C 8904   6.151   4.692   2.030  0.7379 -0.5529 -1.1624
   68MOL0     C 8905   6.127   4.690   2.184  0.0039  1.2449 -0.2843
   68MOL0     C 8906   6.199   4.564   2.243 -0.1244 -0.0398 -0.5033
   68MOL0     C 8907   6.142   4.545   2.381  0.2846 -0.2544 -0.4936
   68MOL0     C 8908   6.075   4.541   2.481 -0.0157  0.2218 -0.2957
   68MOL0     C 8909   5.938   4.742   1.602  0.9124  0.5535  0.3128
   68MOL0     C 8910   5.822   4.746   1.520  0.9444 -0.9567  0.7042
   68MOL0     H 8911   5.618   4.820   1.129  1.2387 -1.5825 -0.7549
   68MOL0     H 8912   5.485   4.807   0.942  1.1358 -0.9953 -0.6683
   68MOL0     H 8913   5.146   4.521   0.952 -1.6415  3.3324  0.3038
   68MOL0     H 8914   5.241   4.465   0.808  4.3913  2.0225  0.8794
   68MOL0     H 8915   5.116   4.671   0.709 -2.2123  1.9145  1.2944
   68MOL0     H 8916   5.041   4.667   0.873  0.0729  1.5095 -1.0497
   68MOL0     H 8917   4.876   4.551   0.723 -0.0205 -1.0103 -2.3444
   68MOL0     H 8918   4.969   4.454   0.849  0.1633  1.6129  1.7339
   68MOL0     H 8919   5.075   4.452   0.563 -1.3550  0.5924 -0.7411
   68MOL0     H 8920   5.093   4.336   0.695 -3.0383 -0.3444  1.9062
   68MOL0     H 8921   4.831   4.307   0.676  0.1747  3.0195  1.1616
   68MOL0     H 8922   4.923   4.243   0.557 -1.1481 -0.6904  0.6619
   68MOL0     H 8923   4.884   4.430   0.396 -1.0039  1.9620 -0.9400
   68MOL0     H 8924   4.780   4.508   0.515 -2.1042 -0.0390 -0.1799
   68MOL0     H 8925   4.653   4.382   0.354 -1.4043 -0.7193  0.3830
   68MOL0     H 8926   4.751   4.235   0.388  1.2863  0.3992  0.0319
   68MOL0     H 8927   4.641   4.227   0.625 -1.0990  1.8620  2.4934
   68MOL0     H 8928   4.529   4.203   0.499  0.9982 -2.5394  4.1062
   68MOL0     H 8929   4.349   4.434   0.437 -0.4825 -1.0250  0.8233
   68MOL0     H 8930   4.221   4.728   0.673 -0.9395 -1.2494  0.7896
   68MOL0     H 8931   4.193   4.637   0.519  0.9562 -2.2254  1.2962
   68MOL0     H 8932   4.410   4.760   0.438  1.2092 -1.5416  0.6008
   68MOL0     H 8933   4.375   4.868   0.577  0.5323 -0.0766 -0.3012
   68MOL0     H 8934   4.189   4.816   0.340 -1.9049  0.2154  0.7963
   68MOL0     H 8935   4.127   4.868   0.496 -0.5392  4.1854  0.9415
   68MOL0     H 8936   4.357   5.006   0.347  1.4036 -1.5003  3.1990
   68MOL0     H 8937   4.266   5.074   0.482 -3.9792 -0.0202  0.4050
   68MOL0     H 8938   4.095   5.260   0.135 -0.6996 -2.6495  0.5350
   68MOL0     H 8939   3.998   5.479   0.209 -2.5721  1.2746  2.0126
   68MOL0     H 8940   3.773   5.821   0.199  0.3681  0.6843  0.7454
   68MOL0     H 8941   3.646   6.007   0.246  0.6404 -2.4116 -2.6057
   68MOL0     H 8942   3.504   6.187   0.310 -3.3849  0.1084 -0.0356
   68MOL0     H 8943   3.613   6.165   0.447 -0.7378  0.7750  1.6492
   68MOL0     H 8944   3.435   6.349   0.473 -0.1569 -0.0531 -3.4768
   68MOL0     H 8945   3.424   6.223   0.598 -1.0028 -1.0863 -0.0461
   68MOL0     H 8946   3.238   6.116   0.450  0.1321 -0.7774 -2.0293
   68MOL0     H 8947   3.266   6.243   0.341  0.3481  0.2619 -0.2078
   68MOL0     H 8948   3.202   6.278   0.638 -0.9288 -1.9235  0.0260
   68MOL0     H 8949   3.205   6.405   0.518 -0.2367  0.1596 -3.1322
   68MOL0     H 8950   2.969   6.382   0.553  1.8929  1.2081  0.2549
   68MOL0     H 8951   2.973   6.203   0.567  0.2222 -1.3368 -2.2541
   68MOL0     H 8952   2.877   6.250   0.371  0.4445  1.6557  2.2151
   68MOL0     H 8953   3.034   6.177   0.328 -0.8278  0.2702 -1.1606
   68MOL0     H 8954   3.134   6.409   0.282 -0.1210 -0.8678  0.2181
   68MOL0     H 8955   3.021   6.330   0.179  0.5355  0.4741 -0.5839
   68MOL0     H 8956   2.936   6.545   0.182 -1.5472 -1.3967 -0.4613
   68MOL0     H 8957   2.950   6.556   0.359  0.2326  0.8055 -0.5268
   68MOL0     H 8958   3.439   5.791   0.560  0.4400 -2.0885  0.6712
   68MOL0     H 8959   3.585   5.610   0.541 -0.0179  0.6165  0.0937
   68MOL0     H 8960   3.941   5.333   0.614  3.2833 -2.3804  2.0239
   68MOL0     H 8961   4.066   5.151   0.566 -3.4627  0.8403  1.0966
   68MOL0     H 8962   5.299   4.447   1.102  2.3598 -2.3948  1.6129
   68MOL0     H 8963   5.422   4.483   1.324 -2.0719  0.3733 -0.2629
   68MOL0     H 8964   5.604   4.597   1.722  1.2943 -2.0033 -0.4081
   68MOL0     H 8965   5.787   4.605   1.872  2.2206  1.9864  1.2005
   68MOL0     H 8966   5.982   4.562   1.974  0.5153 -1.3153 -2.6022
   68MOL0     H 8967   5.947   4.737   2.002  4.2853  1.3496  2.2762
   68MOL0     H 8968   6.225   4.615   2.005 -1.0319 -1.6387 -3.5781
   68MOL0     H 8969   6.180   4.795   2.011 -2.2134  1.0394  1.9599
   68MOL0     H 8970   6.020   4.702   2.200 -0.5424 -0.8774 -1.8601
   68MOL0     H 8971   6.172   4.778   2.231 -2.5303  2.1234  0.6107
   68MOL0     H 8972   6.175   4.482   2.175  0.0595 -0.5681  0.0729
   68MOL0     H 8973   6.303   4.586   2.270 -0.3506 -1.4200  1.6837
   68MOL0     H 8974   6.007   4.540   2.564 -1.9057 -1.7479 -1.7453
   68MOL0     H 8975   6.034   4.772   1.560 -0.1744  2.1126 -1.2085
   68MOL0     H 8976   5.824   4.783   1.418 -3.7158 -1.7307  0.0757
   69MOL0     O 8977   7.933  10.116  11.402  0.5548  0.1730  0.3252
   69MOL0     C 8978   7.857  10.070  11.483  0.1243  1.1939  0.1240
   69MOL0     O 8979   7.894  10.045  11.615 -0.1154  0.1470 -0.1243
   69MOL0     C 8980   8.025  10.043  11.643  0.2413 -0.3553 -0.6499
   69MOL0     C 8981   8.088  10.155  11.700  0.9182  0.5775 -0.3313
   69MOL0     C 8982   8.213  10.151  11.764  0.0072  0.2599 -0.2411
   69MOL0     C 8983   8.282  10.027  11.771 -0.0877  0.6417  0.2316
   69MOL0     O 8984   8.403  10.015  11.838 -0.1228  0.1730 -0.9216
   69MOL0     C 8985   8.508   9.948  11.775  0.1035 -0.0726  0.2654
   69MOL0     C 8986   8.646   9.954  11.831  0.0690  0.2509  0.0736
   69MOL0     C 8987   8.726  10.082  11.791  0.3615 -0.0241  0.4257
   69MOL0     C 8988   8.780  10.058  11.647  0.2574  0.2883 -0.9413
   69MOL0     C 8989   8.821  10.182  11.571 -1.1725 -1.1136 -0.1513
   69MOL0     C 8990   8.898  10.143  11.436 -0.2301  0.0702 -0.4973
   69MOL0     C 8991   8.908  10.271  11.346  0.5212  0.5765  0.1447
   69MOL0     C 8992   8.996  10.233  11.219 -0.1793 -1.1451  0.0047
   69MOL0     N 8993   9.138  10.271  11.246  0.2001  0.7835  0.2360
   69MOL0     C 8994   9.234  10.268  11.151 -1.8286 -0.4622  0.0230
   69MOL0     C 8995   9.349  10.302  11.215  0.6851 -0.3284 -0.5726
   69MOL0     C 8996   9.487  10.316  11.170 -0.6080  0.2734  0.2723
   69MOL0     C 8997   9.561  10.181  11.179  0.7324  0.0801  1.1756
   69MOL0     C 8998   9.673  10.173  11.074 -0.5358 -0.0829  0.1765
   69MOL0     C 8999   9.773  10.074  11.117  1.0275 -0.5525 -0.4415
   69MOL0     O 9000   9.869  10.056  11.020 -0.3963  0.1534  0.6172
   69MOL0     C 9001   9.960   9.950  11.035  0.1190 -0.7254 -0.0747
   69MOL0     C 9002   9.995   9.890  11.159 -0.3472 -0.5355  0.1692
   69MOL0     C 9003  10.087   9.790  11.154  0.3185 -0.2224  0.4403
   69MOL0     C 9004  10.162   9.751  11.042 -0.7385 -0.1390 -0.6957
   69MOL0     C 9005  10.263   9.632  11.046 -0.4910 -1.0777  0.6537
   69MOL0     O 9006  10.263   9.541  11.151  0.7505  0.6334 -0.6039
   69MOL0     C 9007  10.366   9.446  11.152  0.0607 -0.2535 -0.0541
   69MOL0     C 9008  10.496   9.451  11.102 -0.5673  1.1151 -0.4461
   69MOL0     C 9009  10.589   9.352  11.093 -1.2190  0.6727 -0.2405
   69MOL0     C 9010  10.551   9.232  11.144 -0.1443 -0.7415  0.7242
   69MOL0     O 9011  10.632   9.122  11.138  0.3779 -0.2993 -0.4605
   69MOL0     C 9012  10.740   9.099  11.054 -0.5395  0.5760 -0.0826
   69MOL0     C 9013  10.771   8.956  11.078 -0.8749  0.1506 -0.6093
   69MOL0     C 9014  10.668   8.851  11.055  0.8507  0.2861 -0.7612
   69MOL0     C 9015  10.725   8.715  11.101  0.0574 -0.7675  0.0170
   69MOL0     C 9016  10.659   8.595  11.048  0.2640 -0.2455  0.2087
   69MOL0     C 9017  10.708   8.546  10.914 -0.2634  1.2423 -0.7517
   69MOL0     C 9018  10.625   8.424  10.875  0.2910  0.5839 -1.0076
   69MOL0     C 9019  10.640   8.379  10.733  0.6545 -0.0399 -0.7459
   69MOL0    Cl 9020  10.542   8.480  10.616  0.1741  0.4002 -0.1176
   69MOL0     C 9021  10.430   9.222  11.211  0.6584  0.2274 -0.0155
   69MOL0     C 9022  10.340   9.327  11.209  0.2947  0.2064 -0.5573
   69MOL0     O 9023  10.335   9.629  10.945  0.2224 -0.0289 -0.0308
   69MOL0     C 9024  10.130   9.815  10.919 -0.4863  0.3507 -0.0765
   69MOL0     C 9025  10.033   9.913  10.922 -0.5526 -0.2446  1.0372
   69MOL0     N 9026   9.320  10.325  11.343  0.2960 -0.4708  0.3609
   69MOL0     N 9027   9.186  10.324  11.365 -0.4364  1.4325  0.5752
   69MOL0     C 9028   8.222   9.916  11.698 -0.7189 -0.3485  0.7071
   69MOL0     C 9029   8.098   9.931  11.632 -0.1705  0.3579 -0.2685
   69MOL0     C 9030   7.710  10.066  11.449 -0.4715 -0.7507 -0.0378
   69MOL0     C 9031   7.646   9.934  11.460  0.1181 -0.9088  0.1666
   69MOL0     C 9032   7.517   9.926  11.409  0.8018  0.4005  1.2546
   69MOL0     C 9033   7.463  10.029  11.330 -0.3359  0.7683 -0.2558
   69MOL0     O 9034   7.343   9.993  11.271  0.7046 -0.3052  1.0716
   69MOL0     C 9035   7.253  10.081  11.197 -0.3471 -0.3377 -0.0536
   69MOL0     C 9036   7.111  10.117  11.257  0.1138  0.2356  1.3382
   69MOL0     C 9037   7.136  10.221  11.359  0.1042 -0.1682 -1.5035
   69MOL0     C 9038   6.997  10.276  11.416 -0.3034 -0.0758  0.3508
   69MOL0     C 9039   6.923  10.165  11.483  0.0475 -0.4503  0.3971
   69MOL0     C 9040   6.839  10.090  11.530 -0.1660  0.3893 -0.2496
   69MOL0     C 9041   7.530  10.152  11.310 -0.0297  1.0938  0.7701
   69MOL0     C 9042   7.657  10.170  11.377  0.5441 -0.2594 -0.1330
   69MOL0     H 9043   8.042  10.252  11.715  0.5660  0.1984  1.2874
   69MOL0     H 9044   8.249  10.246  11.801 -1.2116  1.1207 -1.1880
   69MOL0     H 9045   8.511   9.991  11.674 -0.8223  1.1189  0.7215
   69MOL0     H 9046   8.477   9.843  11.775 -1.0627  0.2487  1.5831
   69MOL0     H 9047   8.694   9.860  11.802 -0.5792 -0.0403 -0.0655
   69MOL0     H 9048   8.648   9.946  11.941 -0.8006 -1.9306 -0.0201
   69MOL0     H 9049   8.806  10.103  11.863 -0.3218  0.6294  1.0056
   69MOL0     H 9050   8.666  10.172  11.800 -0.9356 -0.6771 -1.2450
   69MOL0     H 9051   8.865   9.988  11.643 -0.7996 -1.0642 -0.4836
   69MOL0     H 9052   8.701  10.011  11.588 -0.8236  4.0149 -2.7849
   69MOL0     H 9053   8.881  10.252  11.630 -1.3973  0.0554 -1.2763
   69MOL0     H 9054   8.735  10.240  11.539  0.3643  2.2461  1.3046
   69MOL0     H 9055   8.828  10.072  11.389 -0.7919  1.8641 -2.5081
   69MOL0     H 9056   8.992  10.092  11.455 -1.0848 -1.5966 -0.5079
   69MOL0     H 9057   8.809  10.305  11.317  1.4707  0.5668 -3.6928
   69MOL0     H 9058   8.953  10.353  11.403 -1.3294  1.2303  0.7044
   69MOL0     H 9059   8.969  10.301  11.138  0.0496 -1.3702 -0.2613
   69MOL0     H 9060   8.981  10.134  11.173 -0.9582  0.6574 -4.0536
   69MOL0     H 9061   9.236  10.236  11.047 -0.7585 -0.3854  0.0058
   69MOL0     H 9062   9.546  10.381  11.236  1.5483  0.8919 -2.0925
   69MOL0     H 9063   9.486  10.368  11.073 -1.1145  1.9492  1.1316
   69MOL0     H 9064   9.486  10.108  11.148  1.3772  1.0452 -3.2557
   69MOL0     H 9065   9.592  10.160  11.282  0.8920 -0.4459  1.0251
   69MOL0     H 9066   9.634  10.153  10.974  1.5846 -0.6012 -0.5819
   69MOL0     H 9067   9.730  10.266  11.072  1.6637 -1.3376  0.9353
   69MOL0     H 9068   9.719   9.984  11.147  0.7785  0.8062  4.0016
   69MOL0     H 9069   9.817  10.112  11.210  0.3491 -2.4579  0.7033
   69MOL0     H 9070   9.944   9.934  11.244 -1.8450 -2.4378  0.3211
   69MOL0     H 9071  10.112   9.743  11.249  0.9682  1.2251  1.0176
   69MOL0     H 9072  10.527   9.543  11.053 -1.8834  1.8113 -0.0400
   69MOL0     H 9073  10.688   9.363  11.050 -0.5056 -0.6740  1.0005
   69MOL0     H 9074  10.825   9.167  11.061 -0.0019 -0.0235 -0.6114
   69MOL0     H 9075  10.694   9.102  10.955  1.2292 -2.8654 -1.1781
   69MOL0     H 9076  10.798   8.948  11.184  1.4089 -1.9718 -1.2411
   69MOL0     H 9077  10.860   8.932  11.020  0.4029 -2.1790  2.0408
   69MOL0     H 9078  10.643   8.846  10.949 -0.9381  0.2039 -0.3691
   69MOL0     H 9079  10.572   8.865  11.106  0.3828 -2.1738 -0.8440
   69MOL0     H 9080  10.829   8.704  11.067 -0.7699 -1.0321 -2.6683
   69MOL0     H 9081  10.725   8.709  11.210 -0.8835 -4.2156 -0.0268
   69MOL0     H 9082  10.552   8.616  11.037  0.7661  3.5416  1.0663
   69MOL0     H 9083  10.663   8.510  11.117  3.4729 -0.8824 -0.6069
   69MOL0     H 9084  10.810   8.515  10.937 -0.7691 -0.0008 -0.0561
   69MOL0     H 9085  10.712   8.630  10.844 -2.3642  4.2012  2.3506
   69MOL0     H 9086  10.656   8.341  10.939 -1.1951 -1.3506 -2.6621
   69MOL0     H 9087  10.522   8.442  10.906  0.7396  2.6883 -0.5469
   69MOL0     H 9088  10.611   8.275  10.721  1.7435 -0.5003  0.4388
   69MOL0     H 9089  10.744   8.381  10.702  0.4840 -2.6264 -1.6666
   69MOL0     H 9090  10.413   9.124  11.253  0.6054  0.7582  1.2181
   69MOL0     H 9091  10.240   9.323  11.251  0.5083  2.5033  0.3327
   69MOL0     H 9092  10.175   9.796  10.822  0.5824  1.1291  0.2404
   69MOL0     H 9093  10.003   9.956  10.827  1.8801 -1.4521 -0.3780
   69MOL0     H 9094   8.270   9.818  11.697  1.3370  0.4561  3.8710
   69MOL0     H 9095   8.052   9.842  11.590  0.8565 -2.1087  3.3976
   69MOL0     H 9096   7.699   9.860  11.519  1.3561 -0.1417  0.0588
   69MOL0     H 9097   7.464   9.836  11.439 -2.7158  2.1877  0.9519
   69MOL0     H 9098   7.237  10.038  11.098 -1.9270  3.8670 -1.8741
   69MOL0     H 9099   7.295  10.181  11.179 -3.7448  1.3032  0.4970
   69MOL0     H 9100   7.047  10.152  11.176 -3.1307 -3.0740  2.2166
   69MOL0     H 9101   7.063  10.028  11.300 -1.2071  0.2922  0.0458
   69MOL0     H 9102   7.207  10.301  11.335  0.5598 -0.1203 -0.0544
   69MOL0     H 9103   7.183  10.180  11.448 -0.9316  2.7974  0.5841
   69MOL0     H 9104   7.021  10.362  11.480 -0.3865 -1.8782  2.9135
   69MOL0     H 9105   6.933  10.323  11.341  0.1922  2.4670  1.4077
   69MOL0     H 9106   6.773  10.007  11.543  0.4874 -0.6438 -2.7555
   69MOL0     H 9107   7.507  10.241  11.251  1.0725 -0.0485 -1.5484
   69MOL0     H 9108   7.709  10.263  11.361 -1.3949  0.7018 -1.1733
   70MOL0     O 9109   3.345   7.003   1.890 -0.2171  0.5784  0.1846
   70MOL0     C 9110   3.399   7.027   1.999  0.5318 -1.1511  0.0741
   70MOL0     O 9111   3.532   7.044   2.011  0.3403 -0.2078  0.5278
   70MOL0     C 9112   3.595   7.057   1.893  0.1872  0.5542 -0.0725
   70MOL0     C 9113   3.689   6.953   1.861  0.7533 -0.7776 -0.4707
   70MOL0     C 9114   3.774   6.965   1.748  0.4080  0.1174 -0.5896
   70MOL0     C 9115   3.762   7.077   1.667 -0.7353 -0.7647 -0.8707
   70MOL0     O 9116   3.820   7.093   1.539 -0.2293  0.5256 -0.3648
   70MOL0     C 9117   3.768   7.006   1.437  0.2765 -1.1831  0.2900
   70MOL0     C 9118   3.637   7.060   1.383  0.2853 -0.5377 -0.0869
   70MOL0     C 9119   3.589   6.987   1.257 -1.1862 -0.2434 -0.0065
   70MOL0     C 9120   3.467   7.060   1.202 -0.2806  0.2995  0.8881
   70MOL0     C 9121   3.398   6.990   1.076  0.0633  0.2956 -1.0831
   70MOL0     C 9122   3.486   6.921   0.967  0.2760 -0.4062  0.0554
   70MOL0     C 9123   3.409   6.827   0.880 -0.5603 -0.1357  0.6450
   70MOL0     C 9124   3.435   6.838   0.720  0.6796 -0.2649 -0.5299
   70MOL0     N 9125   3.409   6.968   0.671 -0.1826  0.2649  0.6091
   70MOL0     C 9126   3.297   7.049   0.694 -0.1260  0.1449 -0.1366
   70MOL0     C 9127   3.300   7.160   0.610 -0.0104  0.1987  0.4469
   70MOL0     C 9128   3.212   7.285   0.602 -0.3155  0.6444 -0.0119
   70MOL0     C 9129   3.128   7.304   0.725  0.5854  0.6770 -0.4360
   70MOL0     C 9130   3.091   7.449   0.751  0.5748  0.8064 -0.1895
   70MOL0     C 9131   2.977   7.495   0.651  0.8501 -0.4802  0.4424
   70MOL0     O 9132   2.881   7.580   0.722 -0.1037  0.6220  0.0936
   70MOL0     C 9133   2.917   7.716   0.710  0.5785  0.4717  0.0630
   70MOL0     C 9134   2.950   7.793   0.817 -0.0079  0.2897 -0.2458
   70MOL0     C 9135   2.975   7.929   0.799 -0.6517 -0.5104 -1.0791
   70MOL0     C 9136   2.961   7.991   0.677 -0.0364 -0.0545  0.3893
   70MOL0     C 9137   2.976   8.132   0.663  0.6941  0.1987  0.5228
   70MOL0     O 9138   2.921   8.183   0.546 -0.0916 -0.6207  0.5744
   70MOL0     C 9139   2.960   8.311   0.503 -0.2043  0.0329  0.0618
   70MOL0     C 9140   2.879   8.366   0.405 -1.1545  0.0940  0.2852
   70MOL0     C 9141   2.911   8.500   0.369  0.7041  0.2027 -0.4991
   70MOL0     C 9142   3.021   8.570   0.417 -0.2842  0.1420  0.2941
   70MOL0     O 9143   3.031   8.693   0.369 -0.2856 -0.1734  0.3073
   70MOL0     C 9144   3.164   8.745   0.332 -0.2910 -1.0743 -0.8586
   70MOL0     C 9145   3.168   8.872   0.248 -0.2466 -0.2373  0.8773
   70MOL0     C 9146   3.302   8.906   0.195 -0.6920  0.0436  0.3715
   70MOL0     C 9147   3.410   8.936   0.297  0.5390 -1.1058  0.1476
   70MOL0     C 9148   3.520   9.007   0.216  0.3804 -0.0128 -0.8864
   70MOL0     C 9149   3.657   9.002   0.296 -0.1483  0.1680  0.1777
   70MOL0     C 9150   3.768   9.059   0.212  0.5357  0.7463 -0.6877
   70MOL0     C 9151   3.903   9.022   0.282 -0.2173  0.0149  0.4067
   70MOL0    Cl 9152   4.039   9.113   0.203  0.1346  0.1190  0.2376
   70MOL0     C 9153   3.110   8.504   0.507  0.4215 -0.1335 -0.3520
   70MOL0     C 9154   3.084   8.371   0.537  0.2122  0.6787  1.3896
   70MOL0     O 9155   3.042   8.187   0.756  0.5617  0.0805 -0.9007
   70MOL0     C 9156   2.914   7.916   0.564  0.9701  0.8111  0.2054
   70MOL0     C 9157   2.897   7.777   0.585 -0.2749 -0.1474 -0.4930
   70MOL0     N 9158   3.407   7.135   0.533 -0.9112 -0.6194 -0.8649
   70MOL0     N 9159   3.464   7.028   0.559  0.2089  0.6156 -0.0296
   70MOL0     C 9160   3.664   7.167   1.692 -0.2645  0.5731 -0.3833
   70MOL0     C 9161   3.576   7.157   1.800 -0.2332 -0.5156  0.0482
   70MOL0     C 9162   3.318   7.029   2.127  0.0485  0.8856  0.3815
   70MOL0     C 9163   3.182   7.037   2.116  0.1353  0.8987 -0.6331
   70MOL0     C 9164   3.097   7.030   2.225  0.6359 -0.3446  0.8213
   70MOL0     C 9165   3.156   7.025   2.350  0.1109 -0.1373  0.2172
   70MOL0     O 9166   3.072   7.052   2.451  0.0894  0.1969 -0.7926
   70MOL0     C 9167   3.113   7.054   2.593 -0.1633 -0.5066 -0.8328
   70MOL0     C 9168   2.996   7.025   2.686 -1.1496 -0.2188 -0.3243
   70MOL0     C 9169   2.877   7.122   2.682  0.1962 -0.3454  0.7505
   70MOL0     C 9170   2.783   7.098   2.793 -0.4088 -1.0103  0.1551
   70MOL0     C 9171   2.680   7.205   2.802 -0.8607 -0.3971 -0.7259
   70MOL0     C 9172   2.599   7.293   2.803 -0.1890  0.3115 -0.8345
   70MOL0     C 9173   3.294   7.041   2.360  0.1069 -0.5078  0.4664
   70MOL0     C 9174   3.380   7.041   2.248  0.6460 -0.0830 -0.6747
   70MOL0     H 9175   3.697   6.868   1.929  0.4758 -1.7220 -1.5747
   70MOL0     H 9176   3.849   6.888   1.737 -0.9596 -1.3229 -0.2639
   70MOL0     H 9177   3.735   6.907   1.470  2.3895 -1.9452  0.2389
   70MOL0     H 9178   3.850   6.996   1.365  1.0287  2.3039  0.4931
   70MOL0     H 9179   3.644   7.168   1.367  1.7299 -0.4746  0.8704
   70MOL0     H 9180   3.560   7.045   1.459 -1.0596  1.5847 -0.9211
   70MOL0     H 9181   3.565   6.885   1.289  2.1528 -0.8014  1.0730
   70MOL0     H 9182   3.669   6.967   1.185  0.0481 -0.9195  1.5035
   70MOL0     H 9183   3.392   7.064   1.281 -1.7233  0.6908 -0.4448
   70MOL0     H 9184   3.503   7.159   1.169  6.1296 -2.3271 -1.7246
   70MOL0     H 9185   3.340   7.073   1.035  2.1505  2.8459  0.8286
   70MOL0     H 9186   3.332   6.913   1.118 -0.7946  0.7710 -1.5484
   70MOL0     H 9187   3.571   6.872   1.015  1.0640  2.3735  1.6857
   70MOL0     H 9188   3.537   6.992   0.902  0.5666 -1.5070 -0.9622
   70MOL0     H 9189   3.431   6.726   0.917  3.7985  0.7433  0.9253
   70MOL0     H 9190   3.304   6.854   0.894 -0.2163  3.6824 -2.4268
   70MOL0     H 9191   3.373   6.764   0.669  1.2980 -0.2024 -1.3948
   70MOL0     H 9192   3.539   6.820   0.694  0.4099 -0.9409 -1.1568
   70MOL0     H 9193   3.229   7.039   0.778 -0.2232  1.3489 -0.0474
   70MOL0     H 9194   3.153   7.292   0.509 -0.1384 -1.3477 -0.3139
   70MOL0     H 9195   3.285   7.367   0.598  0.6421 -0.1912 -0.0334
   70MOL0     H 9196   3.168   7.255   0.814  0.9595 -2.2230 -2.0738
   70MOL0     H 9197   3.037   7.244   0.713  1.0899  0.1333 -1.7736
   70MOL0     H 9198   3.051   7.459   0.852 -1.6341 -1.1288 -0.7803
   70MOL0     H 9199   3.181   7.511   0.753  1.0784  0.3301 -3.0285
   70MOL0     H 9200   2.912   7.409   0.631  0.1916 -0.2484  1.5400
   70MOL0     H 9201   3.020   7.544   0.563  0.2654  1.8503  1.3853
   70MOL0     H 9202   2.948   7.754   0.919 -2.5496  1.1679  0.0960
   70MOL0     H 9203   3.011   7.979   0.889  1.8804 -1.3280 -1.5526
   70MOL0     H 9204   2.800   8.310   0.356 -1.0590  0.9327 -0.8897
   70MOL0     H 9205   2.847   8.554   0.300 -1.3637 -2.2263 -0.5802
   70MOL0     H 9206   3.222   8.668   0.280  0.0066 -0.2044 -1.8370
   70MOL0     H 9207   3.202   8.777   0.430  1.4586  0.0339 -1.8508
   70MOL0     H 9208   3.134   8.956   0.308 -0.1713  0.6155 -0.2466
   70MOL0     H 9209   3.103   8.874   0.160  1.2396  1.6709 -0.2793
   70MOL0     H 9210   3.283   8.998   0.139 -1.0366 -1.2776 -1.7757
   70MOL0     H 9211   3.343   8.833   0.125  0.5045  0.5023  0.5632
   70MOL0     H 9212   3.375   9.001   0.377  0.3900 -2.1160  0.9341
   70MOL0     H 9213   3.444   8.843   0.345 -1.5031 -2.4087 -0.7801
   70MOL0     H 9214   3.494   9.111   0.196  1.3999  0.4348 -0.0282
   70MOL0     H 9215   3.526   8.955   0.120 -1.7970 -5.1376  1.3699
   70MOL0     H 9216   3.670   8.896   0.318  1.8346  0.4737  0.7283
   70MOL0     H 9217   3.630   9.058   0.387 -1.9024 -3.1285  1.8477
   70MOL0     H 9218   3.760   9.007   0.117  1.2295 -0.4701 -0.1072
   70MOL0     H 9219   3.749   9.166   0.204 -2.6034  0.3902  0.2909
   70MOL0     H 9220   3.925   8.916   0.266  0.7583  0.4022 -1.0467
   70MOL0     H 9221   3.906   9.056   0.386 -1.6611  1.9222 -0.1244
   70MOL0     H 9222   3.200   8.557   0.536  0.3284 -1.1204  1.9418
   70MOL0     H 9223   3.161   8.309   0.584 -1.7199 -3.3263 -0.2657
   70MOL0     H 9224   2.914   7.957   0.463  3.6466  0.8583  0.1502
   70MOL0     H 9225   2.868   7.705   0.509  1.3730  0.9892 -2.2882
   70MOL0     H 9226   3.650   7.258   1.635 -3.3170 -0.3809 -1.3372
   70MOL0     H 9227   3.512   7.243   1.818  2.6131  1.3630  2.1255
   70MOL0     H 9228   3.134   7.035   2.018  3.7006  1.8345 -2.5847
   70MOL0     H 9229   2.989   7.022   2.214  0.7197 -4.5403  1.1711
   70MOL0     H 9230   3.154   7.152   2.622 -1.8131 -0.7100  2.8547
   70MOL0     H 9231   3.189   6.977   2.607 -0.9309 -1.0377  0.6448
   70MOL0     H 9232   2.959   6.924   2.664 -1.3113  0.5277 -4.1488
   70MOL0     H 9233   3.030   7.011   2.789 -2.5354 -0.6897  0.0890
   70MOL0     H 9234   2.843   7.121   2.578  1.2844  3.8408  0.1723
   70MOL0     H 9235   2.922   7.220   2.702 -0.9655  1.3308 -3.6581
   70MOL0     H 9236   2.731   7.007   2.763  0.7312 -1.4131 -0.7041
   70MOL0     H 9237   2.822   7.071   2.892  0.0217  3.4128  1.3993
   70MOL0     H 9238   2.515   7.359   2.797  1.0341  1.8536 -1.6059
   70MOL0     H 9239   3.356   7.058   2.448  2.3248  1.4053 -1.3363
   70MOL0     H 9240   3.482   7.049   2.284 -0.0703  0.4047  1.3816
   71MOL0     O 9241   5.991   1.671   6.276 -0.1629 -0.3026  0.3917
   71MOL0     C 9242   6.049   1.658   6.170  0.3791 -0.6709  0.2197
   71MOL0     O 9243   6.182   1.621   6.155  0.4419 -0.0162  0.1527
   71MOL0     C 9244   6.268   1.642   6.257  0.6367 -0.5142 -0.5399
   71MOL0     C 9245   6.269   1.741   6.357  0.0640 -0.1133  0.1846
   71MOL0     C 9246   6.370   1.739   6.458 -0.0003  0.3573 -0.4807
   71MOL0     C 9247   6.460   1.634   6.468 -0.4411  0.4484  0.0838
   71MOL0     O 9248   6.542   1.611   6.584  0.3323 -0.9471  0.0635
   71MOL0     C 9249   6.582   1.735   6.657  0.1758  0.7232  0.0595
   71MOL0     C 9250   6.672   1.693   6.769 -0.1334  0.6672  0.8109
   71MOL0     C 9251   6.755   1.807   6.821 -0.5127  0.0805  0.9373
   71MOL0     C 9252   6.677   1.935   6.851 -0.2215  0.2681  0.5620
   71MOL0     C 9253   6.560   1.909   6.942  0.4778  0.3130 -0.6161
   71MOL0     C 9254   6.597   1.853   7.076  0.1609  0.7688  0.7498
   71MOL0     C 9255   6.480   1.869   7.169 -0.1570  0.6041  0.4558
   71MOL0     C 9256   6.489   1.792   7.298  0.1397 -0.0753  0.3761
   71MOL0     N 9257   6.614   1.827   7.375 -0.1420 -0.7536 -0.6462
   71MOL0     C 9258   6.714   1.741   7.415  0.7268  0.0530 -0.4315
   71MOL0     C 9259   6.808   1.808   7.490  0.8048 -0.1105  0.5887
   71MOL0     C 9260   6.935   1.747   7.562  0.3424  0.3228 -0.2575
   71MOL0     C 9261   7.050   1.737   7.467  0.8029 -0.6154 -0.0630
   71MOL0     C 9262   7.167   1.652   7.526  0.0810 -0.8484 -0.5019
   71MOL0     C 9263   7.257   1.616   7.410 -0.3887  0.1328  0.0181
   71MOL0     O 9264   7.312   1.739   7.370 -0.2699  0.1863  0.6797
   71MOL0     C 9265   7.385   1.743   7.253 -0.3150  0.6471 -0.0916
   71MOL0     C 9266   7.443   1.636   7.187  0.1673  0.0210  0.4576
   71MOL0     C 9267   7.501   1.649   7.060 -0.4725 -0.2156  1.1616
   71MOL0     C 9268   7.500   1.769   6.992 -0.4469 -0.3732  0.1087
   71MOL0     C 9269   7.568   1.779   6.860  0.3269  0.3340 -0.3995
   71MOL0     O 9270   7.682   1.705   6.847 -1.2800 -0.0298 -0.0804
   71MOL0     C 9271   7.762   1.735   6.741 -0.5639  0.3930 -0.2643
   71MOL0     C 9272   7.846   1.849   6.770  0.4830  0.1356  0.1783
   71MOL0     C 9273   7.942   1.881   6.677 -0.0047 -0.6007 -0.3604
   71MOL0     C 9274   7.980   1.791   6.579  0.6473 -0.7991 -0.3253
   71MOL0     O 9275   8.073   1.819   6.477 -0.5861  1.0609  0.1439
   71MOL0     C 9276   8.105   1.952   6.463 -0.7559 -0.1537  0.5507
   71MOL0     C 9277   8.144   1.982   6.316  0.0848  0.3472  0.4077
   71MOL0     C 9278   8.288   1.944   6.292  0.7260  0.3903 -0.1194
   71MOL0     C 9279   8.327   1.968   6.149 -1.2223 -0.7937 -0.6160
   71MOL0     C 9280   8.477   1.966   6.140 -0.4663 -0.4553 -0.4381
   71MOL0     C 9281   8.525   1.943   5.990  1.7141 -0.4767 -0.9764
   71MOL0     C 9282   8.476   2.051   5.889  0.4359 -0.3235 -0.1230
   71MOL0     C 9283   8.506   2.008   5.745  0.0539 -0.4626  0.4576
   71MOL0    Cl 9284   8.678   2.046   5.707  0.2992  0.5138 -0.3458
   71MOL0     C 9285   7.904   1.669   6.560  0.0070  0.2592 -0.3489
   71MOL0     C 9286   7.803   1.642   6.646 -0.8061  0.8738 -0.6404
   71MOL0     O 9287   7.508   1.850   6.774  0.3476 -0.7751  0.4920
   71MOL0     C 9288   7.460   1.883   7.059 -0.1215  0.4411  0.2327
   71MOL0     C 9289   7.400   1.866   7.187 -0.0751  0.2873 -0.5706
   71MOL0     N 9290   6.763   1.938   7.466 -0.3072 -0.1956  0.5049
   71MOL0     N 9291   6.646   1.957   7.414  0.5139  0.6241  0.4236
   71MOL0     C 9292   6.458   1.539   6.368  0.0617  1.0798  0.7481
   71MOL0     C 9293   6.375   1.549   6.254 -0.8967 -0.3304  0.1333
   71MOL0     C 9294   5.956   1.656   6.052  0.2450 -0.5656  0.2247
   71MOL0     C 9295   5.825   1.730   6.059 -0.4998  1.1840  0.1730
   71MOL0     C 9296   5.722   1.695   5.971 -0.6270  0.0295  0.4228
   71MOL0     C 9297   5.748   1.608   5.861 -0.6971  0.6192 -0.0546
   71MOL0     O 9298   5.662   1.598   5.760  0.6278  0.4990 -0.9090
   71MOL0     C 9299   5.585   1.477   5.777  0.6418  0.1089  0.1127
   71MOL0     C 9300   5.532   1.434   5.645  0.2025 -0.5877  0.1757
   71MOL0     C 9301   5.640   1.398   5.539  0.2141  0.4413 -0.1528
   71MOL0     C 9302   5.594   1.360   5.392 -1.2831  0.6210 -0.5198
   71MOL0     C 9303   5.531   1.227   5.402  0.3385  0.7484 -0.4894
   71MOL0     C 9304   5.500   1.113   5.397  0.1919  0.4859 -0.6335
   71MOL0     C 9305   5.871   1.548   5.858  0.0144 -0.0037  0.0497
   71MOL0     C 9306   5.977   1.568   5.953  0.4699 -0.2260 -0.4996
   71MOL0     H 9307   6.202   1.825   6.372  0.8745  0.0374  3.7642
   71MOL0     H 9308   6.360   1.816   6.534  0.3378  1.9665 -1.9977
   71MOL0     H 9309   6.499   1.789   6.703 -1.5040 -1.3640 -0.4123
   71MOL0     H 9310   6.642   1.803   6.595  0.2240  1.3128  0.7348
   71MOL0     H 9311   6.738   1.620   6.720  0.3960  1.0321  0.9686
   71MOL0     H 9312   6.618   1.654   6.856 -2.8822  1.5421 -0.4012
   71MOL0     H 9313   6.835   1.830   6.750  0.1938 -3.4000  0.4232
   71MOL0     H 9314   6.811   1.782   6.912  0.8897 -0.1401  0.0407
   71MOL0     H 9315   6.746   2.003   6.901 -0.9167  0.4233  1.3238
   71MOL0     H 9316   6.654   1.984   6.756 -0.6774 -0.0368  0.5126
   71MOL0     H 9317   6.476   1.859   6.894  0.8213 -1.3423  0.4071
   71MOL0     H 9318   6.525   2.008   6.974  1.3590  0.1423  1.0172
   71MOL0     H 9319   6.681   1.910   7.117 -1.4565  3.9269  0.0756
   71MOL0     H 9320   6.627   1.749   7.063 -1.2638  0.6596 -2.6205
   71MOL0     H 9321   6.485   1.976   7.190 -0.0516  0.8722 -0.8194
   71MOL0     H 9322   6.384   1.850   7.121  0.1338  1.6219 -0.5871
   71MOL0     H 9323   6.475   1.684   7.287  1.4943 -1.1397  5.7702
   71MOL0     H 9324   6.409   1.819   7.368  0.1101 -1.5772  0.9658
   71MOL0     H 9325   6.699   1.636   7.395  0.6489  0.2447 -1.4086
   71MOL0     H 9326   6.906   1.654   7.612 -1.8526  1.2963  0.4133
   71MOL0     H 9327   6.968   1.814   7.642 -2.6108 -0.1244  1.4825
   71MOL0     H 9328   7.082   1.839   7.444 -2.1148 -0.0373 -2.0300
   71MOL0     H 9329   7.014   1.695   7.373 -0.9581 -0.6996  0.6020
   71MOL0     H 9330   7.224   1.708   7.600 -3.0960  3.7096 -1.0284
   71MOL0     H 9331   7.121   1.560   7.562 -1.6642 -0.9328 -2.6940
   71MOL0     H 9332   7.201   1.577   7.325  1.3503 -0.0667 -1.0983
   71MOL0     H 9333   7.326   1.536   7.440 -0.7481 -0.8408 -1.6257
   71MOL0     H 9334   7.462   1.558   7.260  0.6229  1.6860  2.2374
   71MOL0     H 9335   7.553   1.563   7.019 -0.3642  0.3952 -0.0179
   71MOL0     H 9336   7.842   1.906   6.863  0.7925  3.1725 -1.5317
   71MOL0     H 9337   7.991   1.977   6.687 -1.4307 -0.0349  1.7395
   71MOL0     H 9338   8.196   1.969   6.520  0.5816 -4.6727  0.1762
   71MOL0     H 9339   8.018   2.015   6.482 -1.3915 -1.3359  1.6979
   71MOL0     H 9340   8.133   2.088   6.289  2.4901  0.5612  0.0197
   71MOL0     H 9341   8.070   1.916   6.272  0.2083 -0.7416  1.7592
   71MOL0     H 9342   8.303   1.838   6.315  0.5911  0.0104 -1.6273
   71MOL0     H 9343   8.361   1.985   6.362  0.5143 -0.6982  0.7750
   71MOL0     H 9344   8.275   1.889   6.095  2.0760 -3.1913 -0.5817
   71MOL0     H 9345   8.290   2.067   6.120  1.1630  0.2359 -0.3779
   71MOL0     H 9346   8.517   1.884   6.201 -2.6623 -1.6799 -0.5595
   71MOL0     H 9347   8.511   2.066   6.170 -2.0739 -0.2152  0.6898
   71MOL0     H 9348   8.476   1.855   5.947  0.7275 -3.4031  4.9768
   71MOL0     H 9349   8.634   1.934   5.984  1.7960  0.4803 -1.0432
   71MOL0     H 9350   8.369   2.067   5.906  0.1931 -0.5266 -1.3764
   71MOL0     H 9351   8.533   2.142   5.912 -0.6241  0.2012  0.4927
   71MOL0     H 9352   8.447   2.069   5.676  3.8600  0.0752 -2.7324
   71MOL0     H 9353   8.489   1.901   5.733 -1.2682 -0.1486 -0.7048
   71MOL0     H 9354   7.924   1.611   6.470 -1.7304  1.4806 -1.5868
   71MOL0     H 9355   7.760   1.542   6.647  1.4904 -0.1668  0.5628
   71MOL0     H 9356   7.456   1.987   7.028 -2.8644  1.4551  3.3631
   71MOL0     H 9357   7.374   1.956   7.242 -0.9033 -0.2214 -0.1101
   71MOL0     H 9358   6.525   1.454   6.371 -0.7241  0.3134 -1.3563
   71MOL0     H 9359   6.382   1.464   6.188 -1.5848 -0.7287  0.5590
   71MOL0     H 9360   5.809   1.807   6.134  0.6844  1.3658  0.2636
   71MOL0     H 9361   5.625   1.743   5.972 -0.1905  0.9366  0.5862
   71MOL0     H 9362   5.512   1.483   5.858  1.0141  1.8653  0.3429
   71MOL0     H 9363   5.656   1.400   5.808  2.1698  1.5628  0.2964
   71MOL0     H 9364   5.475   1.342   5.657 -0.0566 -0.2809  1.4012
   71MOL0     H 9365   5.481   1.520   5.599  1.0322  0.4257  1.0811
   71MOL0     H 9366   5.687   1.311   5.586 -0.1469  1.0220  1.3589
   71MOL0     H 9367   5.717   1.474   5.522  1.1252 -0.3638  0.2396
   71MOL0     H 9368   5.523   1.435   5.356  0.2791  1.3560 -2.2739
   71MOL0     H 9369   5.682   1.346   5.328  1.5679 -2.7761  3.5167
   71MOL0     H 9370   5.459   1.015   5.383  1.1773  0.0134 -0.2770
   71MOL0     H 9371   5.889   1.482   5.773  1.5215  0.2480  0.1428
   71MOL0     H 9372   6.066   1.506   5.955 -0.3216 -1.4058  1.2124
   72MOL0     O 9373   9.075   1.419  11.465  0.2397  0.4481 -0.1538
   72MOL0     C 9374   9.055   1.521  11.399  0.0668  0.8537  0.3348
   72MOL0     O 9375   8.932   1.579  11.370 -0.3345 -0.1897  0.1254
   72MOL0     C 9376   8.810   1.520  11.371  0.2363 -0.2280  0.3705
   72MOL0     C 9377   8.798   1.383  11.387  0.7554  0.1385 -1.0278
   72MOL0     C 9378   8.667   1.326  11.395  0.9187 -1.3515 -0.4188
   72MOL0     C 9379   8.554   1.410  11.387 -0.2182  0.0095  0.3661
   72MOL0     O 9380   8.432   1.351  11.383 -0.0113 -1.2364  0.7651
   72MOL0     C 9381   8.424   1.273  11.262 -0.5723 -0.4531 -0.2717
   72MOL0     C 9382   8.281   1.207  11.252  0.0879  0.2152 -0.3259
   72MOL0     C 9383   8.274   1.117  11.131 -0.0287  0.4511 -0.5665
   72MOL0     C 9384   8.137   1.053  11.109 -0.3437 -0.4120 -0.2059
   72MOL0     C 9385   8.044   1.014  11.232 -0.4451  0.0061 -0.5908
   72MOL0     C 9386   7.907   0.961  11.171  0.5243  0.8342 -0.3456
   72MOL0     C 9387   7.816   0.919  11.288 -0.2744  0.0054 -0.3319
   72MOL0     C 9388   7.698   0.858  11.236  0.6419  1.0483 -0.4045
   72MOL0     N 9389   7.603   0.845  11.355 -0.1607 -0.2191  0.4493
   72MOL0     C 9390   7.528   0.949  11.398  0.8240  0.3208 -0.0271
   72MOL0     C 9391   7.424   0.894  11.479 -0.2690 -0.5566  0.4470
   72MOL0     C 9392   7.330   0.963  11.564  1.1388 -0.5026 -0.5335
   72MOL0     C 9393   7.337   0.922  11.720  0.5500  0.8390 -0.2973
   72MOL0     C 9394   7.471   0.970  11.796 -0.0409  0.6283 -0.2232
   72MOL0     C 9395   7.598   0.962  11.729  0.5906 -0.9703 -0.4993
   72MOL0     O 9396   7.702   1.011  11.814 -0.0279 -0.7168  0.1020
   72MOL0     C 9397   7.827   0.996  11.764  0.1758 -0.2508 -0.4834
   72MOL0     C 9398   7.929   1.036  11.846  0.4448 -0.0331 -0.9427
   72MOL0     C 9399   8.060   1.035  11.811 -0.3288  0.6733  0.5135
   72MOL0     C 9400   8.102   0.984  11.683 -0.0970 -0.3539 -0.4158
   72MOL0     C 9401   8.247   0.971  11.654  0.3328  0.4520  0.2242
   72MOL0     O 9402   8.337   0.978  11.759 -0.4617 -0.3520 -0.2086
   72MOL0     C 9403   8.464   0.945  11.734  0.7620 -1.1406 -0.0803
   72MOL0     C 9404   8.552   1.021  11.655 -0.0739  0.2102 -0.5272
   72MOL0     C 9405   8.692   0.993  11.646  0.9673 -0.4873 -0.6926
   72MOL0     C 9406   8.742   0.880  11.713  0.2923  0.2716 -0.6118
   72MOL0     O 9407   8.872   0.851  11.700  0.1388 -1.0915  0.5889
   72MOL0     C 9408   8.940   0.757  11.778  0.1308  0.8901  0.1336
   72MOL0     C 9409   9.091   0.743  11.744 -0.0031 -0.7415 -0.4111
   72MOL0     C 9410   9.180   0.870  11.781 -0.6544 -0.6009  0.3556
   72MOL0     C 9411   9.315   0.850  11.698  0.1567 -0.2589 -1.6841
   72MOL0     C 9412   9.417   0.973  11.709  0.2672 -0.5881 -1.0330
   72MOL0     C 9413   9.339   1.116  11.696 -0.9378  0.5080  1.1241
   72MOL0     C 9414   9.283   1.151  11.563  1.0395  0.0275  0.6473
   72MOL0     C 9415   9.386   1.156  11.451  0.5094  0.3959  1.0462
   72MOL0    Cl 9416   9.522   1.281  11.485 -0.0924  0.3697  0.0381
   72MOL0     C 9417   8.654   0.808  11.797 -0.2754 -0.1503 -0.8191
   72MOL0     C 9418   8.515   0.844  11.815  0.3877 -0.8333 -0.6756
   72MOL0     O 9419   8.273   0.927  11.543  0.7498  0.5319  0.3186
   72MOL0     C 9420   7.996   0.954  11.596 -0.4628 -0.2187 -0.2326
   72MOL0     C 9421   7.860   0.956  11.634 -1.0637 -0.0524  0.7383
   72MOL0     N 9422   7.443   0.751  11.480 -0.0706 -0.8152  0.4556
   72MOL0     N 9423   7.549   0.727  11.411 -0.5925 -0.2475  0.0249
   72MOL0     C 9424   8.568   1.545  11.379  0.5026  0.2353 -0.2279
   72MOL0     C 9425   8.694   1.609  11.369 -0.0687  0.0811 -0.0191
   72MOL0     C 9426   9.176   1.600  11.364 -0.2619 -0.8438 -0.2890
   72MOL0     C 9427   9.161   1.740  11.323  0.0947 -0.2508  0.1706
   72MOL0     C 9428   9.273   1.823  11.304 -0.4139 -0.4374  0.1502
   72MOL0     C 9429   9.401   1.772  11.300 -0.4479 -0.2349 -0.6122
   72MOL0     O 9430   9.528   1.831  11.283 -0.2199 -0.1440  0.1972
   72MOL0     C 9431   9.540   1.969  11.317  0.3841 -0.5691 -0.6747
   72MOL0     C 9432   9.683   2.004  11.303 -0.6279 -0.1674 -0.1104
   72MOL0     C 9433   9.702   2.149  11.334  0.1164 -0.3553 -0.1087
   72MOL0     C 9434   9.854   2.176  11.291  0.2594 -0.4821 -0.2868
   72MOL0     C 9435   9.906   2.297  11.345  0.8744  0.7748 -1.2639
   72MOL0     C 9436   9.939   2.404  11.397 -0.3908  1.4216  0.0631
   72MOL0     C 9437   9.409   1.633  11.328 -0.0327 -0.8483 -0.3918
   72MOL0     C 9438   9.309   1.546  11.363 -0.1327  0.2820 -0.2622
   72MOL0     H 9439   8.878   1.313  11.411 -0.8084 -1.8046 -1.2763
   72MOL0     H 9440   8.662   1.218  11.404  1.8892 -1.5160 -1.5974
   72MOL0     H 9441   8.492   1.188  11.264  0.9431  0.7162  0.2902
   72MOL0     H 9442   8.450   1.322  11.167 -1.6553  1.9950  0.5940
   72MOL0     H 9443   8.204   1.285  11.246  0.2650  0.3582 -0.8138
   72MOL0     H 9444   8.266   1.155  11.347  1.5060  0.2303 -0.0723
   72MOL0     H 9445   8.352   1.045  11.159  2.5875  4.0287  2.4134
   72MOL0     H 9446   8.302   1.161  11.035 -1.2599  1.9413 -0.2723
   72MOL0     H 9447   8.077   1.121  11.049 -2.6224 -1.6710  0.4835
   72MOL0     H 9448   8.145   0.959  11.054  2.1633 -1.3797  1.6292
   72MOL0     H 9449   8.043   1.102  11.297 -1.7434 -1.0807  0.9385
   72MOL0     H 9450   8.095   0.940  11.295 -1.1620  0.9959  1.2218
   72MOL0     H 9451   7.914   0.879  11.100 -0.9001 -0.4520  0.9201
   72MOL0     H 9452   7.866   1.045  11.113 -0.7525 -1.5611 -3.1533
   72MOL0     H 9453   7.873   0.844  11.343  1.8119  2.3872  0.9747
   72MOL0     H 9454   7.798   1.016  11.336  1.4790  0.7630 -1.1335
   72MOL0     H 9455   7.716   0.758  11.198  0.1162  1.9558 -3.2879
   72MOL0     H 9456   7.656   0.928  11.163  0.1399  1.9934  0.7415
   72MOL0     H 9457   7.544   1.046  11.352  1.5918 -2.3210 -6.3475
   72MOL0     H 9458   7.226   0.955  11.532  1.0536 -0.8583 -0.1763
   72MOL0     H 9459   7.359   1.069  11.562 -0.2695 -0.0166  1.4117
   72MOL0     H 9460   7.318   0.814  11.725 -1.5424  1.2127  3.2858
   72MOL0     H 9461   7.252   0.963  11.776 -0.2356 -2.0367  0.7969
   72MOL0     H 9462   7.456   1.074  11.826  1.3523  0.6287  0.5748
   72MOL0     H 9463   7.462   0.909  11.887 -2.8439 -2.6640 -2.4452
   72MOL0     H 9464   7.591   1.024  11.639 -0.5945 -0.7205 -0.2513
   72MOL0     H 9465   7.616   0.860  11.695 -0.7645 -1.2812 -0.3384
   72MOL0     H 9466   7.899   1.072  11.944  0.1890  0.4487 -1.1922
   72MOL0     H 9467   8.145   1.053  11.877  2.2317  1.8517 -2.8027
   72MOL0     H 9468   8.514   1.120  11.631 -0.6803  1.1524  3.6630
   72MOL0     H 9469   8.758   1.069  11.605  1.5375 -0.0104  1.0160
   72MOL0     H 9470   8.900   0.656  11.762  0.3783  0.6937  0.7282
   72MOL0     H 9471   8.929   0.785  11.883  1.2271 -1.2420  0.8691
   72MOL0     H 9472   9.104   0.713  11.639  3.3468  1.0573 -0.6760
   72MOL0     H 9473   9.124   0.658  11.804 -1.5046 -0.0335  1.5347
   72MOL0     H 9474   9.200   0.878  11.888  0.5924  2.7711 -0.0133
   72MOL0     H 9475   9.131   0.957  11.738 -1.7351 -1.7311 -0.7981
   72MOL0     H 9476   9.366   0.754  11.712 -1.7762 -1.1006  0.2802
   72MOL0     H 9477   9.295   0.859  11.591  0.7041  1.2869 -1.6807
   72MOL0     H 9478   9.492   0.952  11.632  0.9761 -3.1694  0.2584
   72MOL0     H 9479   9.463   0.979  11.808 -0.4737  2.2111 -0.7610
   72MOL0     H 9480   9.422   1.185  11.713 -0.1041 -0.0820 -0.3873
   72MOL0     H 9481   9.262   1.141  11.770 -1.3728 -0.9379  1.1865
   72MOL0     H 9482   9.189   1.100  11.540  1.5352  0.8460 -4.0695
   72MOL0     H 9483   9.258   1.257  11.576 -2.9952 -1.0531  4.0344
   72MOL0     H 9484   9.337   1.172  11.355  0.7738  0.3258  0.9010
   72MOL0     H 9485   9.434   1.058  11.453 -0.4997 -0.1107  1.1308
   72MOL0     H 9486   8.691   0.730  11.863 -1.3029  1.1021  1.3598
   72MOL0     H 9487   8.450   0.797  11.887  0.0708  1.5203  0.6611
   72MOL0     H 9488   8.025   0.918  11.498 -1.6558  2.9955 -1.8919
   72MOL0     H 9489   7.790   0.926  11.557 -0.2186 -2.8894  0.9758
   72MOL0     H 9490   8.481   1.608  11.368 -0.1628 -0.3361  1.4670
   72MOL0     H 9491   8.711   1.714  11.349 -2.1890  1.5768  4.6240
   72MOL0     H 9492   9.065   1.790  11.322 -0.3283 -1.0267 -1.4036
   72MOL0     H 9493   9.259   1.930  11.304  2.8336  0.1940 -3.0000
   72MOL0     H 9494   9.493   2.003  11.409  3.3342  3.9758 -0.5277
   72MOL0     H 9495   9.499   2.024  11.232  0.4218 -1.9885 -1.6480
   72MOL0     H 9496   9.739   1.954  11.382 -0.6745  1.7641  1.2035
   72MOL0     H 9497   9.715   1.985  11.200  0.1177 -1.7477  0.3827
   72MOL0     H 9498   9.668   2.178  11.433 -2.2228 -1.3747 -0.5618
   72MOL0     H 9499   9.644   2.210  11.264  0.6764  2.0664  1.4315
   72MOL0     H 9500   9.920   2.096  11.325 -1.7250 -1.1868  2.2514
   72MOL0     H 9501   9.851   2.187  11.183 -1.3443  2.6304 -0.0453
   72MOL0     H 9502   9.973   2.499  11.433  1.8595  0.8846 -0.4999
   72MOL0     H 9503   9.508   1.590  11.334 -1.3183 -4.3172 -1.4775
   72MOL0     H 9504   9.329   1.445  11.399 -2.8282 -0.4700 -0.6515
   73MOL0     O 9505   5.420   3.556   3.479  0.6382  0.4121  0.6643
   73MOL0     C 9506   5.508   3.494   3.414 -0.3428  1.0795  0.6452
   73MOL0     O 9507   5.641   3.482   3.448 -0.0465 -0.6497  0.3644
   73MOL0     C 9508   5.673   3.534   3.575 -0.0181 -0.1891 -1.2628
   73MOL0     C 9509   5.754   3.650   3.577  0.1191  0.2802  0.7267
   73MOL0     C 9510   5.785   3.721   3.694 -0.1762 -0.4414  0.8919
   73MOL0     C 9511   5.754   3.663   3.822 -0.3817 -0.6178  0.4228
   73MOL0     O 9512   5.820   3.709   3.931 -0.5412 -0.1602  0.9872
   73MOL0     C 9513   5.775   3.663   4.058  0.5605  0.1528  0.8761
   73MOL0     C 9514   5.788   3.762   4.175  1.0603 -0.1670  0.1686
   73MOL0     C 9515   5.926   3.828   4.177  0.4579  0.1541 -0.5480
   73MOL0     C 9516   5.954   3.933   4.289  1.5050  0.1354 -0.8882
   73MOL0     C 9517   6.088   4.015   4.279  0.5964  0.0440  1.0892
   73MOL0     C 9518   6.113   4.116   4.401 -0.6543 -0.3557 -0.0865
   73MOL0     C 9519   6.255   4.191   4.395  0.3165  0.1890  0.0764
   73MOL0     C 9520   6.309   4.219   4.257  1.0477 -0.0687 -0.0042
   73MOL0     N 9521   6.254   4.331   4.191 -0.3747 -0.7606  0.3316
   73MOL0     C 9522   6.277   4.464   4.216 -0.6841  0.3812  0.3208
   73MOL0     C 9523   6.213   4.530   4.116  0.3769  0.1639  0.0734
   73MOL0     C 9524   6.195   4.679   4.097  0.4637  0.5236  0.0866
   73MOL0     C 9525   6.058   4.751   4.086 -0.6389 -0.3963  0.8590
   73MOL0     C 9526   5.939   4.659   4.090 -0.8069  0.2853  0.5965
   73MOL0     C 9527   5.800   4.719   4.085  0.2759  0.6264  0.5657
   73MOL0     O 9528   5.718   4.605   4.065  0.1613  0.2874 -0.0392
   73MOL0     C 9529   5.585   4.613   4.096  0.0823  0.0268  0.4157
   73MOL0     C 9530   5.512   4.707   4.173  0.4228 -0.7763  0.1858
   73MOL0     C 9531   5.378   4.700   4.184 -0.4940 -0.2858 -0.4647
   73MOL0     C 9532   5.304   4.586   4.147  0.0685 -0.3990 -0.6853
   73MOL0     C 9533   5.157   4.578   4.174 -0.3584 -0.1748  0.1652
   73MOL0     O 9534   5.111   4.457   4.175 -0.0366  0.1282 -0.4199
   73MOL0     C 9535   4.980   4.440   4.211  0.1799  0.1396  1.1916
   73MOL0     C 9536   4.887   4.448   4.107  0.1921  0.4083 -0.3684
   73MOL0     C 9537   4.757   4.415   4.138 -0.1937 -0.3798  0.7838
   73MOL0     C 9538   4.714   4.386   4.259  0.4125  0.3873 -0.2005
   73MOL0     O 9539   4.581   4.366   4.292  0.1445  0.0158 -0.2008
   73MOL0     C 9540   4.500   4.309   4.198 -0.4655 -0.2096  0.0027
   73MOL0     C 9541   4.358   4.303   4.264 -0.4235  0.4169  0.7383
   73MOL0     C 9542   4.304   4.436   4.307  0.1128 -0.2224 -0.3265
   73MOL0     C 9543   4.151   4.432   4.352 -0.5463  0.8011  0.1943
   73MOL0     C 9544   4.117   4.571   4.398  0.6642  0.3404  1.7784
   73MOL0     C 9545   3.966   4.589   4.400  0.7912 -0.6274 -0.4211
   73MOL0     C 9546   3.921   4.736   4.441  0.1842  0.8965  0.0084
   73MOL0     C 9547   3.890   4.816   4.322 -0.4171 -0.2262 -0.2606
   73MOL0    Cl 9548   3.743   4.768   4.225 -0.4871 -0.3863  0.0981
   73MOL0     C 9549   4.810   4.382   4.364 -0.4422 -0.2086  0.1242
   73MOL0     C 9550   4.948   4.400   4.336  0.8019  0.1485 -0.8969
   73MOL0     O 9551   5.092   4.673   4.219 -0.0420 -0.2564 -0.1072
   73MOL0     C 9552   5.380   4.486   4.083  0.8962  0.2722 -0.1899
   73MOL0     C 9553   5.513   4.504   4.051  0.4033  0.0649  0.3389
   73MOL0     N 9554   6.149   4.432   4.043  0.4886  0.0561 -0.4907
   73MOL0     N 9555   6.179   4.321   4.086  0.4707  0.6398 -0.3955
   73MOL0     C 9556   5.678   3.545   3.817 -0.7873  0.4327 -0.9185
   73MOL0     C 9557   5.638   3.478   3.697 -1.3528 -0.1298  0.7871
   73MOL0     C 9558   5.466   3.436   3.284  0.9392 -1.5467 -0.2009
   73MOL0     C 9559   5.550   3.345   3.217  0.1606 -0.1727 -0.1153
   73MOL0     C 9560   5.510   3.300   3.090 -0.0799  1.5821  0.1960
   73MOL0     C 9561   5.381   3.320   3.042  0.1775  0.2381  0.4092
   73MOL0     O 9562   5.349   3.280   2.907  0.5596  0.3169  0.1876
   73MOL0     C 9563   5.303   3.390   2.821 -0.2856  0.6923  0.1140
   73MOL0     C 9564   5.279   3.320   2.684 -0.4196 -0.7880  0.3988
   73MOL0     C 9565   5.275   3.420   2.572  1.3120 -0.3852  0.2790
   73MOL0     C 9566   5.224   3.354   2.442  0.2116 -0.3639 -0.1350
   73MOL0     C 9567   5.167   3.451   2.351  0.6917 -0.0376  0.1771
   73MOL0     C 9568   5.122   3.523   2.262 -1.1064 -0.2024 -0.0791
   73MOL0     C 9569   5.293   3.403   3.118  0.3780  0.0718 -0.1354
   73MOL0     C 9570   5.339   3.463   3.241  0.1433 -0.7363  0.3070
   73MOL0     H 9571   5.780   3.701   3.484 -1.3252 -0.1290  0.0705
   73MOL0     H 9572   5.851   3.807   3.685  1.4365 -1.3394  3.1718
   73MOL0     H 9573   5.821   3.564   4.074  1.5907  0.6031  0.8112
   73MOL0     H 9574   5.668   3.644   4.054  0.8027 -1.6879  1.6949
   73MOL0     H 9575   5.760   3.720   4.272  0.6561  1.1037  0.6241
   73MOL0     H 9576   5.711   3.834   4.147 -0.1468 -1.5465 -0.1584
   73MOL0     H 9577   5.933   3.893   4.088 -1.5741  1.6683  0.3248
   73MOL0     H 9578   6.008   3.756   4.174  0.2189 -0.0937 -1.7162
   73MOL0     H 9579   5.863   3.995   4.291  0.7897 -0.8372 -2.0260
   73MOL0     H 9580   5.959   3.885   4.387  3.4336 -0.3143 -1.1689
   73MOL0     H 9581   6.099   4.054   4.178  0.5970 -1.2193  0.5843
   73MOL0     H 9582   6.168   3.943   4.300  1.0709  1.6331  6.4576
   73MOL0     H 9583   6.117   4.075   4.503  0.2594  1.6289  0.7349
   73MOL0     H 9584   6.041   4.197   4.417  0.7794  0.4267  3.2466
   73MOL0     H 9585   6.254   4.287   4.448  1.3580 -0.1980  0.8364
   73MOL0     H 9586   6.322   4.126   4.452  2.1536 -0.5406 -2.7460
   73MOL0     H 9587   6.296   4.130   4.195 -3.4527  1.2848 -1.3471
   73MOL0     H 9588   6.413   4.252   4.270  0.4558  0.6889  4.5479
   73MOL0     H 9589   6.346   4.499   4.292  1.0325 -1.0116 -0.5158
   73MOL0     H 9590   6.245   4.696   4.002  0.7308 -1.0749 -0.0854
   73MOL0     H 9591   6.250   4.731   4.176  1.5849  0.7279 -0.8072
   73MOL0     H 9592   6.052   4.811   3.995  0.3564 -1.4297  0.0792
   73MOL0     H 9593   6.051   4.826   4.164 -0.4551  2.4943 -1.7183
   73MOL0     H 9594   5.952   4.598   4.000 -1.5000 -1.0834  1.3875
   73MOL0     H 9595   5.953   4.591   4.173  2.8989  0.9599  0.7043
   73MOL0     H 9596   5.792   4.790   4.002 -3.9022 -0.2589 -0.0426
   73MOL0     H 9597   5.781   4.774   4.178 -1.9226 -0.6044  0.9268
   73MOL0     H 9598   5.549   4.808   4.188 -4.3116  2.0772 -4.1435
   73MOL0     H 9599   5.319   4.784   4.219 -0.1836 -0.6029  0.8562
   73MOL0     H 9600   4.913   4.480   4.007  0.0319  1.6486 -0.0235
   73MOL0     H 9601   4.692   4.437   4.054  2.0274  3.6127 -0.1371
   73MOL0     H 9602   4.534   4.206   4.187 -0.6523 -0.4359  1.3550
   73MOL0     H 9603   4.495   4.364   4.103  1.2396 -0.6531 -0.3773
   73MOL0     H 9604   4.362   4.235   4.350  1.1316 -0.9916 -0.3577
   73MOL0     H 9605   4.290   4.257   4.191 -1.7534  0.2167  2.0745
   73MOL0     H 9606   4.325   4.517   4.237 -4.8470  1.5720 -0.1063
   73MOL0     H 9607   4.363   4.460   4.396 -0.5905 -1.0236  0.3853
   73MOL0     H 9608   4.079   4.398   4.277 -0.1220 -0.8596  0.4847
   73MOL0     H 9609   4.134   4.355   4.428 -2.1436  0.4236 -0.5081
   73MOL0     H 9610   4.158   4.645   4.329  2.1455 -1.7488  0.3162
   73MOL0     H 9611   4.155   4.590   4.499  0.0176  0.0765  2.0766
   73MOL0     H 9612   3.922   4.515   4.467 -0.9079  0.3413 -0.4127
   73MOL0     H 9613   3.932   4.571   4.298  1.0913  0.8594 -0.8094
   73MOL0     H 9614   3.829   4.738   4.500  0.2899  1.9648  0.1537
   73MOL0     H 9615   3.996   4.785   4.503 -1.0935 -0.9406  3.2601
   73MOL0     H 9616   3.980   4.801   4.261 -0.9835  2.4050 -1.9014
   73MOL0     H 9617   3.895   4.922   4.350 -0.3661 -0.4587  0.6331
   73MOL0     H 9618   4.764   4.367   4.461  0.3217  0.2091  0.5556
   73MOL0     H 9619   5.011   4.370   4.419 -1.0153 -1.5355 -0.0447
   73MOL0     H 9620   5.338   4.389   4.061  1.3837  0.0132  0.0183
   73MOL0     H 9621   5.563   4.426   3.994 -1.2219 -1.2205  0.6084
   73MOL0     H 9622   5.633   3.503   3.906  2.7342 -3.6140 -0.6995
   73MOL0     H 9623   5.566   3.396   3.696 -2.5087  0.8128  2.3902
   73MOL0     H 9624   5.650   3.324   3.254 -0.5468 -1.2295  1.2847
   73MOL0     H 9625   5.587   3.238   3.045 -1.3125 -2.2565  2.8279
   73MOL0     H 9626   5.376   3.472   2.816  0.1349  0.3103 -0.0093
   73MOL0     H 9627   5.204   3.432   2.845 -1.6984 -0.9686 -2.4008
   73MOL0     H 9628   5.350   3.243   2.653 -1.5075 -0.8939 -2.0844
   73MOL0     H 9629   5.181   3.271   2.694 -1.9869  2.1618  0.6323
   73MOL0     H 9630   5.377   3.458   2.558  0.6448  1.7733  0.9347
   73MOL0     H 9631   5.217   3.505   2.608 -0.0777 -1.7024  1.2421
   73MOL0     H 9632   5.308   3.305   2.392  1.1705 -0.9001  1.9184
   73MOL0     H 9633   5.153   3.278   2.472  3.3408 -2.1404  3.7111
   73MOL0     H 9634   5.099   3.577   2.172  1.4480 -0.4872 -0.9904
   73MOL0     H 9635   5.192   3.431   3.091  0.9610  0.7694 -1.6706
   73MOL0     H 9636   5.273   3.524   3.303 -0.3017 -0.2692 -0.5998
   74MOL0     O 9637  10.258   0.962   3.082 -0.8777  0.3576 -0.7698
   74MOL0     C 9638  10.318   0.983   2.975 -0.0177  0.1825 -0.9770
   74MOL0     O 9639  10.378   0.885   2.909  0.0711  0.1503  0.2946
   74MOL0     C 9640  10.335   0.751   2.921 -0.1564 -0.0701 -0.0621
   74MOL0     C 9641  10.303   0.698   2.795 -0.1232 -0.0695 -0.1943
   74MOL0     C 9642  10.260   0.567   2.788 -0.7813 -0.9824 -0.4647
   74MOL0     C 9643  10.241   0.487   2.896 -0.8908  0.7333 -0.0480
   74MOL0     O 9644  10.178   0.363   2.884  0.8976 -0.3454  0.4065
   74MOL0     C 9645  10.198   0.288   2.765 -0.6190  0.5985  0.1202
   74MOL0     C 9646  10.067   0.287   2.682  0.1230  0.3703  1.1625
   74MOL0     C 9647   9.950   0.225   2.754 -0.3344  0.0576  0.2329
   74MOL0     C 9648   9.835   0.205   2.659  0.4370 -0.6920 -0.0599
   74MOL0     C 9649   9.723   0.129   2.728  0.5665  0.1220  0.1099
   74MOL0     C 9650   9.688   0.185   2.865  0.5510  0.5491  0.7905
   74MOL0     C 9651   9.573   0.118   2.940  0.2951 -1.1066  0.9071
   74MOL0     C 9652   9.440   0.142   2.870  0.6845  0.9288  0.1266
   74MOL0     N 9653   9.333   0.113   2.963  0.6953 -1.1530  0.2765
   74MOL0     C 9654   9.240   0.198   3.019 -0.5072  0.2254  0.8464
   74MOL0     C 9655   9.153   0.124   3.084  0.7465  0.2977  0.5533
   74MOL0     C 9656   9.031   0.181   3.144 -0.1260 -0.0676  0.6365
   74MOL0     C 9657   8.990   0.126   3.284 -0.6356 -0.1072  0.3903
   74MOL0     C 9658   8.866   0.207   3.328  0.3116 -0.2109  0.3610
   74MOL0     C 9659   8.826   0.192   3.468 -0.3267 -0.9241  0.3773
   74MOL0     O 9660   8.776   0.058   3.487  0.5096 -1.6623  0.4936
   74MOL0     C 9661   8.789  -0.006   3.605 -0.0539 -0.3991  0.0330
   74MOL0     C 9662   8.764  -0.144   3.602 -0.0451 -0.3321 -0.1119
   74MOL0     C 9663   8.777  -0.221   3.728 -0.2343  0.1114 -0.4245
   74MOL0     C 9664   8.804  -0.158   3.843  0.1763  1.0561 -0.0658
   74MOL0     C 9665   8.808  -0.245   3.967  1.0113 -1.2075 -1.0003
   74MOL0     O 9666   8.747  -0.364   3.959  0.1540 -0.4211  0.0602
   74MOL0     C 9667   8.689  -0.432   4.060 -0.2637 -0.1452 -0.2798
   74MOL0     C 9668   8.683  -0.569   4.045 -0.2083 -0.8175 -0.3226
   74MOL0     C 9669   8.624  -0.654   4.142 -1.1292 -0.3782  0.9049
   74MOL0     C 9670   8.577  -0.592   4.245 -0.3128 -0.7169 -0.3689
   74MOL0     O 9671   8.528  -0.678   4.342  0.6351 -0.4884  0.1526
   74MOL0     C 9672   8.457  -0.626   4.464  0.2001 -0.1212  0.5420
   74MOL0     C 9673   8.373  -0.739   4.513 -0.7534  0.1010 -0.6730
   74MOL0     C 9674   8.455  -0.855   4.560 -0.1697  0.1564 -0.2655
   74MOL0     C 9675   8.565  -0.844   4.657  0.4127 -0.4042  0.3834
   74MOL0     C 9676   8.537  -0.777   4.794 -0.3974 -0.3545 -0.2016
   74MOL0     C 9677   8.420  -0.818   4.884 -0.8676 -1.0646 -0.8723
   74MOL0     C 9678   8.432  -0.956   4.919 -0.4753  0.0837 -0.1197
   74MOL0     C 9679   8.299  -1.006   4.988 -0.2309 -0.4108 -0.8629
   74MOL0    Cl 9680   8.287  -1.169   4.954  0.1363 -0.3160  0.3616
   74MOL0     C 9681   8.573  -0.452   4.259 -0.2123 -0.3529 -0.9161
   74MOL0     C 9682   8.632  -0.372   4.166  0.0306  0.2577 -0.4288
   74MOL0     O 9683   8.841  -0.185   4.068  0.4773  0.1474 -0.0604
   74MOL0     C 9684   8.827  -0.024   3.841 -0.0136  0.1391  0.0845
   74MOL0     C 9685   8.828   0.050   3.727  0.0193  0.3401  0.1704
   74MOL0     N 9686   9.203  -0.011   3.084  1.1063  0.1967  0.3596
   74MOL0     N 9687   9.296  -0.015   2.983  0.3311  0.1705 -0.0203
   74MOL0     C 9688  10.278   0.537   3.020 -0.8280  0.7686 -0.1715
   74MOL0     C 9689  10.328   0.668   3.041 -0.0905 -0.6035  0.1583
   74MOL0     C 9690  10.335   1.118   2.920 -0.1734  0.2050 -0.7342
   74MOL0     C 9691  10.253   1.220   2.966  1.2154 -0.2985 -0.5163
   74MOL0     C 9692  10.268   1.345   2.923 -0.7027 -0.4083 -0.4773
   74MOL0     C 9693  10.365   1.377   2.832 -0.0930 -0.5077 -0.7070
   74MOL0     O 9694  10.372   1.513   2.801 -0.2406 -0.1243  0.7538
   74MOL0     C 9695  10.462   1.537   2.691  0.1208 -0.1565 -0.1512
   74MOL0     C 9696  10.496   1.686   2.663  1.2019 -0.2377  0.4057
   74MOL0     C 9697  10.636   1.703   2.592 -0.0165  0.4809 -1.2500
   74MOL0     C 9698  10.690   1.839   2.579  0.4599 -0.2150  0.7224
   74MOL0     C 9699  10.698   1.904   2.710  0.0403  0.4537  0.0355
   74MOL0     C 9700  10.699   1.942   2.821  0.3494 -0.2670  0.0550
   74MOL0     C 9701  10.451   1.278   2.786  0.3883  0.2294 -0.8358
   74MOL0     C 9702  10.430   1.143   2.825 -0.3265  1.0928  0.4901
   74MOL0     H 9703  10.303   0.765   2.710 -0.1319  1.9721  1.3395
   74MOL0     H 9704  10.199   0.540   2.702 -2.2377 -0.5924  0.3982
   74MOL0     H 9705  10.220   0.182   2.779 -1.8173  0.3030 -0.1211
   74MOL0     H 9706  10.274   0.331   2.699 -0.7124  2.3620  1.0781
   74MOL0     H 9707  10.079   0.238   2.584 -0.0480 -3.1298  2.7400
   74MOL0     H 9708  10.044   0.392   2.661 -1.2616 -0.3326 -1.3194
   74MOL0     H 9709   9.931   0.280   2.846 -1.2122  3.0375 -1.6050
   74MOL0     H 9710   9.988   0.128   2.787  3.1559  1.8405  1.9691
   74MOL0     H 9711   9.790   0.298   2.623  0.7113 -0.1801  0.8771
   74MOL0     H 9712   9.853   0.154   2.564 -1.1347  1.2902 -1.5007
   74MOL0     H 9713   9.759   0.026   2.737 -1.7417 -0.7901 -0.5103
   74MOL0     H 9714   9.636   0.149   2.666  2.4362  3.9264 -1.6116
   74MOL0     H 9715   9.674   0.293   2.859 -1.0628  0.2890 -1.6590
   74MOL0     H 9716   9.770   0.156   2.931  0.0248 -2.1021  0.4012
   74MOL0     H 9717   9.592   0.010   2.946  0.1753 -1.1923 -0.1428
   74MOL0     H 9718   9.586   0.168   3.037  1.8697  0.2202  0.0626
   74MOL0     H 9719   9.442   0.086   2.776 -0.5442  0.9994  0.0434
   74MOL0     H 9720   9.429   0.246   2.836  1.3492  0.2211 -2.4803
   74MOL0     H 9721   9.229   0.305   3.005 -1.5829 -0.3011 -3.8360
   74MOL0     H 9722   8.961   0.165   3.062  1.0531 -1.3220 -0.1725
   74MOL0     H 9723   9.052   0.287   3.161 -0.9186  0.4354 -1.3100
   74MOL0     H 9724   9.068   0.139   3.359 -2.1882  1.5783  1.7915
   74MOL0     H 9725   8.972   0.018   3.278 -0.0370 -0.3612  2.4593
   74MOL0     H 9726   8.882   0.315   3.319  0.5101 -0.2182  0.6373
   74MOL0     H 9727   8.789   0.178   3.255 -1.6732 -3.2890  3.3929
   74MOL0     H 9728   8.748   0.264   3.495 -2.1258 -2.1138 -1.3877
   74MOL0     H 9729   8.918   0.210   3.523 -1.6013  1.0320  2.0063
   74MOL0     H 9730   8.749  -0.187   3.504 -0.7951  0.4928 -0.3670
   74MOL0     H 9731   8.760  -0.326   3.710 -2.9728  1.0524 -5.1176
   74MOL0     H 9732   8.728  -0.618   3.959  2.4730 -0.1702  0.6333
   74MOL0     H 9733   8.629  -0.761   4.123  0.3474 -0.4892  1.7369
   74MOL0     H 9734   8.398  -0.535   4.447  0.1915 -0.0772  0.8058
   74MOL0     H 9735   8.522  -0.594   4.546 -0.9649  1.1810  0.9860
   74MOL0     H 9736   8.305  -0.766   4.432  0.6963  1.3787 -2.4081
   74MOL0     H 9737   8.316  -0.705   4.600 -1.8305 -3.5867  0.2130
   74MOL0     H 9738   8.502  -0.904   4.474  0.0354 -2.0321  1.0133
   74MOL0     H 9739   8.383  -0.930   4.594  3.1648 -2.2360  2.1188
   74MOL0     H 9740   8.607  -0.942   4.679 -2.3939 -2.2611 -1.8247
   74MOL0     H 9741   8.645  -0.782   4.615 -0.7958  0.9562  0.0160
   74MOL0     H 9742   8.518  -0.672   4.768 -1.9462 -0.4262  0.5305
   74MOL0     H 9743   8.630  -0.786   4.851 -0.4368  0.8399  0.0789
   74MOL0     H 9744   8.330  -0.793   4.826  0.2619  2.2884 -1.4054
   74MOL0     H 9745   8.427  -0.761   4.977  0.4845 -1.5200 -0.6724
   74MOL0     H 9746   8.438  -1.009   4.824  0.5300  1.3484 -0.7883
   74MOL0     H 9747   8.514  -0.997   4.979 -1.3336 -1.5765 -0.0326
   74MOL0     H 9748   8.217  -0.942   4.955  2.0471  1.8707 -2.4912
   74MOL0     H 9749   8.309  -0.986   5.095 -1.2105 -4.2914  0.1187
   74MOL0     H 9750   8.526  -0.401   4.342 -0.0318 -1.5022 -0.0838
   74MOL0     H 9751   8.630  -0.264   4.170  2.4489  0.3411 -0.1368
   74MOL0     H 9752   8.850   0.028   3.933  0.6271 -1.5378  0.9156
   74MOL0     H 9753   8.859   0.154   3.737  1.1787 -0.0849  1.3426
   74MOL0     H 9754  10.266   0.471   3.105 -6.8848  0.3007 -0.9059
   74MOL0     H 9755  10.356   0.711   3.136 -2.6055 -1.6512  1.4648
   74MOL0     H 9756  10.172   1.186   3.030  2.1580 -0.4529  0.6143
   74MOL0     H 9757  10.201   1.423   2.957  0.6809  0.4866  0.3406
   74MOL0     H 9758  10.430   1.481   2.603  0.3771  0.2003 -0.4748
   74MOL0     H 9759  10.560   1.502   2.725  0.7068  1.6924  0.1909
   74MOL0     H 9760  10.421   1.723   2.593 -1.7598 -1.8042  2.5745
   74MOL0     H 9761  10.492   1.752   2.750 -1.6264 -0.9313  0.8835
   74MOL0     H 9762  10.618   1.644   2.502  0.0410 -3.8593  1.2429
   74MOL0     H 9763  10.704   1.642   2.652 -2.7669 -0.3292  1.3174
   74MOL0     H 9764  10.788   1.838   2.531  0.6159 -1.9137  1.0280
   74MOL0     H 9765  10.620   1.902   2.523  0.1160 -0.3531  0.9922
   74MOL0     H 9766  10.687   1.982   2.920 -2.3984 -1.4638  0.2852
   74MOL0     H 9767  10.524   1.296   2.707  1.2893  1.6387  0.2543
   74MOL0     H 9768  10.487   1.057   2.793  0.3551  1.1700  1.4338
   75MOL0     O 9769   6.697   7.223   8.140 -0.3619  0.2824  0.2832
   75MOL0     C 9770   6.771   7.324   8.144  0.1414  0.5516  0.1773
   75MOL0     O 9771   6.799   7.405   8.037  0.0376 -0.4994 -0.0098
   75MOL0     C 9772   6.767   7.383   7.902 -1.7300 -0.1997 -0.3477
   75MOL0     C 9773   6.767   7.494   7.820  0.1505 -1.1186  0.5357
   75MOL0     C 9774   6.741   7.481   7.682 -0.7286  0.5153  0.7950
   75MOL0     C 9775   6.732   7.359   7.619 -0.1707 -0.1532  0.0918
   75MOL0     O 9776   6.706   7.346   7.488 -0.0245  0.9950  0.5163
   75MOL0     C 9777   6.664   7.219   7.424 -0.2883 -0.8005 -0.7359
   75MOL0     C 9778   6.667   7.223   7.272 -0.3153 -0.2007  0.9712
   75MOL0     C 9779   6.589   7.340   7.200  0.7078 -0.0567 -0.6512
   75MOL0     C 9780   6.640   7.370   7.054  0.4268 -0.2162  0.6067
   75MOL0     C 9781   6.543   7.454   6.976 -0.8029 -0.7101  0.6385
   75MOL0     C 9782   6.618   7.511   6.852 -0.1619  0.2412 -0.2468
   75MOL0     C 9783   6.510   7.552   6.753  0.3354 -0.0153  0.1209
   75MOL0     C 9784   6.539   7.679   6.670  0.1327 -0.4367  0.9615
   75MOL0     N 9785   6.657   7.678   6.579 -0.3413  0.2141 -1.1937
   75MOL0     C 9786   6.701   7.779   6.503  0.4913  0.6773  0.0070
   75MOL0     C 9787   6.792   7.728   6.424  0.6860 -0.2744 -1.2061
   75MOL0     C 9788   6.856   7.812   6.311  0.0350  0.5865 -0.3031
   75MOL0     C 9789   7.001   7.847   6.345 -0.4636  0.5040  0.1767
   75MOL0     C 9790   7.072   7.932   6.240 -0.3714 -0.1828 -0.9964
   75MOL0     C 9791   7.068   7.880   6.099 -0.7031  0.3133  0.8591
   75MOL0     O 9792   7.131   7.963   6.004  0.0691 -0.2681  0.0561
   75MOL0     C 9793   7.266   7.946   5.998 -0.2608  0.3950  0.8431
   75MOL0     C 9794   7.315   7.860   5.897 -0.3962  0.6147  0.0905
   75MOL0     C 9795   7.460   7.842   5.896 -0.5411  0.1004 -0.2464
   75MOL0     C 9796   7.542   7.913   5.982  0.4433 -0.8345 -0.5224
   75MOL0     C 9797   7.685   7.889   5.975 -0.0406 -0.7220 -0.7467
   75MOL0     O 9798   7.754   7.988   6.041  0.3954 -0.4248  0.1904
   75MOL0     C 9799   7.886   7.987   6.012 -0.7221 -0.3317  0.7135
   75MOL0     C 9800   7.948   8.016   5.896 -0.1924 -0.5465 -0.8109
   75MOL0     C 9801   8.085   8.040   5.888 -0.9242  0.3382 -1.0991
   75MOL0     C 9802   8.162   8.040   5.999 -0.7351  1.0311 -0.4300
   75MOL0     O 9803   8.293   8.074   5.996 -0.1106 -1.2980  0.3841
   75MOL0     C 9804   8.379   7.985   5.923 -0.2453  0.8061 -0.0568
   75MOL0     C 9805   8.527   8.024   5.956 -0.4310  0.2700  0.7888
   75MOL0     C 9806   8.584   8.161   5.900 -0.5974  0.2157  0.0384
   75MOL0     C 9807   8.720   8.185   5.960 -0.0561  0.1048  0.2785
   75MOL0     C 9808   8.773   8.320   5.907 -0.3043 -0.6112  0.1447
   75MOL0     C 9809   8.904   8.370   5.960 -0.3707  0.6109 -0.6646
   75MOL0     C 9810   8.921   8.516   5.923 -0.0103  0.6550 -0.4099
   75MOL0     C 9811   9.037   8.576   5.993 -0.8900  0.0098  0.3131
   75MOL0    Cl 9812   9.079   8.719   5.902 -0.2097 -0.3277 -0.2527
   75MOL0     C 9813   8.110   7.998   6.122 -0.1144  0.0420 -1.1109
   75MOL0     C 9814   7.972   7.967   6.121  0.1864  0.4295 -0.5765
   75MOL0     O 9815   7.737   7.791   5.915  0.1905 -0.6367 -0.0718
   75MOL0     C 9816   7.484   8.001   6.074 -0.0065 -0.1965 -0.1183
   75MOL0     C 9817   7.346   8.029   6.071  0.5942  0.3240 -1.0907
   75MOL0     N 9818   6.815   7.595   6.453 -0.2870 -0.1118  0.1104
   75MOL0     N 9819   6.721   7.564   6.537 -0.5618  0.7414 -0.9958
   75MOL0     C 9820   6.739   7.251   7.705  0.6494  0.4976 -0.1143
   75MOL0     C 9821   6.754   7.265   7.840 -0.3896 -0.1844 -0.1813
   75MOL0     C 9822   6.824   7.353   8.280  0.3190 -0.0451 -0.8814
   75MOL0     C 9823   6.806   7.271   8.389  0.7696  0.9956  0.1527
   75MOL0     C 9824   6.886   7.283   8.505 -0.0993 -0.1060  0.8513
   75MOL0     C 9825   6.954   7.395   8.523  0.4385 -0.3225  0.6417
   75MOL0     O 9826   7.017   7.438   8.638 -0.8362  0.6990  0.4271
   75MOL0     C 9827   7.036   7.344   8.748 -0.3817 -0.1620 -0.3180
   75MOL0     C 9828   7.114   7.419   8.846  0.1089 -0.5167  0.0088
   75MOL0     C 9829   7.160   7.322   8.955 -0.4158 -0.6173  0.2691
   75MOL0     C 9830   7.261   7.391   9.040 -0.8301  0.2408  0.6062
   75MOL0     C 9831   7.190   7.502   9.107  1.2028  0.0126 -0.8176
   75MOL0     C 9832   7.133   7.584   9.180  0.1079  0.4178 -0.5350
   75MOL0     C 9833   6.955   7.492   8.421 -0.4694  0.5362 -0.9085
   75MOL0     C 9834   6.892   7.468   8.301 -1.1573 -0.2046 -0.5476
   75MOL0     H 9835   6.770   7.597   7.854  3.6219 -0.8811 -0.1110
   75MOL0     H 9836   6.710   7.574   7.635  1.3874  0.7255 -0.2804
   75MOL0     H 9837   6.557   7.212   7.444 -0.4420  2.0499 -0.1831
   75MOL0     H 9838   6.721   7.133   7.461  1.4959  1.3846  2.0200
   75MOL0     H 9839   6.647   7.124   7.229  2.5734 -1.4873  2.3430
   75MOL0     H 9840   6.771   7.248   7.250 -1.2856  4.0309  0.2199
   75MOL0     H 9841   6.591   7.430   7.263 -1.6396 -1.0267  0.9134
   75MOL0     H 9842   6.484   7.311   7.188 -0.4973  2.0912  3.0839
   75MOL0     H 9843   6.731   7.431   7.058  0.5669 -0.4818  2.2828
   75MOL0     H 9844   6.671   7.277   7.007  0.6404 -1.7437  3.5423
   75MOL0     H 9845   6.505   7.532   7.042 -0.7813 -0.7745  0.7282
   75MOL0     H 9846   6.456   7.394   6.945 -0.1156 -0.2144 -2.6666
   75MOL0     H 9847   6.691   7.449   6.800  2.1471  3.2797 -0.9283
   75MOL0     H 9848   6.680   7.594   6.887 -0.3988 -0.1928  1.2919
   75MOL0     H 9849   6.503   7.459   6.695  1.8898 -0.6314  0.8953
   75MOL0     H 9850   6.410   7.563   6.798  0.8462 -2.7110  2.1502
   75MOL0     H 9851   6.552   7.756   6.747 -1.4277  0.0291  0.8035
   75MOL0     H 9852   6.449   7.697   6.610  0.2503 -2.8625 -0.0214
   75MOL0     H 9853   6.648   7.874   6.509 -1.3323 -0.1644 -1.5004
   75MOL0     H 9854   6.797   7.901   6.287 -1.9589 -0.8448 -0.8779
   75MOL0     H 9855   6.855   7.751   6.221 -0.3528 -0.1126  0.1593
   75MOL0     H 9856   7.045   7.746   6.347 -1.3840  0.0730 -0.5923
   75MOL0     H 9857   7.006   7.899   6.441 -0.4210  1.9263 -0.5717
   75MOL0     H 9858   7.031   8.034   6.247 -1.6595 -0.7763  0.4628
   75MOL0     H 9859   7.177   7.930   6.271  0.2182 -1.6399 -2.8803
   75MOL0     H 9860   6.968   7.851   6.064  0.5828 -4.5648  0.4197
   75MOL0     H 9861   7.119   7.783   6.098 -0.3124  0.4779 -2.1329
   75MOL0     H 9862   7.252   7.805   5.828 -0.2190 -1.1071  1.2367
   75MOL0     H 9863   7.492   7.772   5.819 -2.3892 -2.9385  1.5408
   75MOL0     H 9864   7.893   8.024   5.803 -0.0811 -3.3841 -1.1904
   75MOL0     H 9865   8.139   8.069   5.798  0.5652 -0.0769 -0.3749
   75MOL0     H 9866   8.364   7.995   5.815  2.3554  0.3256 -0.5246
   75MOL0     H 9867   8.361   7.880   5.947  0.3452  0.8831  0.7666
   75MOL0     H 9868   8.589   7.945   5.914 -1.8959 -0.0812 -0.8675
   75MOL0     H 9869   8.533   8.031   6.065  2.2503  3.2598  0.5989
   75MOL0     H 9870   8.510   8.240   5.917 -1.4052 -0.8590  1.7841
   75MOL0     H 9871   8.588   8.160   5.790  2.1024  2.3748  0.0076
   75MOL0     H 9872   8.715   8.182   6.070  0.6941  1.9994  0.4111
   75MOL0     H 9873   8.786   8.109   5.917  0.4548  0.0669  1.0991
   75MOL0     H 9874   8.698   8.399   5.919  0.0756  0.1638 -2.0788
   75MOL0     H 9875   8.772   8.311   5.798 -0.5197 -0.1709  0.1053
   75MOL0     H 9876   8.989   8.307   5.931 -0.3932  0.1611  0.2026
   75MOL0     H 9877   8.899   8.372   6.069  1.9750 -1.3387 -0.4310
   75MOL0     H 9878   8.929   8.501   5.815 -2.6039  0.5710 -0.6515
   75MOL0     H 9879   8.835   8.580   5.941 -0.7340  0.4747 -2.8200
   75MOL0     H 9880   9.114   8.502   6.015 -3.6033 -3.5316 -0.9817
   75MOL0     H 9881   8.992   8.607   6.088  1.8834  1.6134  1.2092
   75MOL0     H 9882   8.162   7.992   6.217 -2.6840 -2.6304  0.3082
   75MOL0     H 9883   7.921   7.939   6.213  1.3807 -0.1279 -0.0737
   75MOL0     H 9884   7.539   8.065   6.141 -0.8201  0.6214 -0.2045
   75MOL0     H 9885   7.308   8.087   6.154  1.1992 -0.1679 -0.4547
   75MOL0     H 9886   6.720   7.153   7.662 -0.6040 -0.6284  2.7645
   75MOL0     H 9887   6.773   7.179   7.903  3.4524  0.5624 -0.0692
   75MOL0     H 9888   6.737   7.187   8.385  3.3984 -1.2777 -0.9587
   75MOL0     H 9889   6.879   7.210   8.586 -0.1055 -1.2477 -0.1555
   75MOL0     H 9890   7.089   7.252   8.720 -0.0057  0.2886 -1.0989
   75MOL0     H 9891   6.944   7.303   8.792 -2.3033  2.8662 -1.2010
   75MOL0     H 9892   7.198   7.468   8.797 -0.5030  0.5751  0.0325
   75MOL0     H 9893   7.050   7.502   8.877  2.8090  1.5096  0.5240
   75MOL0     H 9894   7.212   7.240   8.906 -0.1944 -0.7232  0.6775
   75MOL0     H 9895   7.083   7.278   9.019 -1.9019  1.1465 -0.2395
   75MOL0     H 9896   7.299   7.313   9.106  1.5735 -0.2667 -1.2612
   75MOL0     H 9897   7.350   7.422   8.984 -0.8710 -1.1835 -0.2867
   75MOL0     H 9898   7.072   7.649   9.239 -1.7428  0.5301 -2.4375
   75MOL0     H 9899   7.005   7.588   8.427 -2.9308  1.9589 -1.5129
   75MOL0     H 9900   6.911   7.540   8.222  0.8266 -2.0948 -1.9053
   76MOL0     O 9901   3.510   6.601   5.056 -0.4638 -0.5845  0.4620
   76MOL0     C 9902   3.507   6.531   4.954  0.5660  0.9297 -0.4594
   76MOL0     O 9903   3.412   6.549   4.847 -0.4417  0.4447  0.4181
   76MOL0     C 9904   3.387   6.679   4.805  0.2355 -0.2403 -0.0121
   76MOL0     C 9905   3.271   6.684   4.724  0.7312 -0.0337  0.2180
   76MOL0     C 9906   3.223   6.806   4.685  0.4155  0.1705 -0.5844
   76MOL0     C 9907   3.289   6.917   4.724 -0.5711 -0.2395  0.8027
   76MOL0     O 9908   3.246   7.040   4.685 -0.6125 -0.2168 -0.0443
   76MOL0     C 9909   3.241   7.055   4.541  0.8785 -0.2903 -0.2797
   76MOL0     C 9910   3.207   7.212   4.521  1.4766  0.4961 -1.0879
   76MOL0     C 9911   3.183   7.242   4.373 -0.4717  0.4732 -1.3817
   76MOL0     C 9912   3.141   7.388   4.346  0.1426 -0.8233 -0.5245
   76MOL0     C 9913   3.112   7.395   4.193  0.2430  0.6127  0.0427
   76MOL0     C 9914   3.034   7.520   4.148  0.0874 -0.3283 -0.0478
   76MOL0     C 9915   3.020   7.518   3.997 -1.3939 -0.1330  0.3966
   76MOL0     C 9916   2.878   7.544   3.957  0.1792 -0.8303 -0.1194
   76MOL0     N 9917   2.849   7.581   3.817 -0.6066 -0.7510  0.3840
   76MOL0     C 9918   2.825   7.479   3.721 -0.8888 -0.8171 -0.5517
   76MOL0     C 9919   2.785   7.553   3.617 -0.0783  0.9905  0.1323
   76MOL0     C 9920   2.744   7.490   3.489  0.6582 -0.1866  0.6289
   76MOL0     C 9921   2.712   7.588   3.380 -0.4018 -0.4226  0.5617
   76MOL0     C 9922   2.703   7.545   3.239  0.2641 -0.5781  0.3448
   76MOL0     C 9923   2.841   7.488   3.178  0.6865 -0.1201  0.1390
   76MOL0     O 9924   2.841   7.342   3.176  0.6738 -0.3126  0.9032
   76MOL0     C 9925   2.954   7.272   3.118 -0.2723 -0.7385 -0.0947
   76MOL0     C 9926   3.017   7.306   2.994  0.2674  0.6584  0.5535
   76MOL0     C 9927   3.115   7.222   2.932 -0.6343 -0.3636 -0.1072
   76MOL0     C 9928   3.161   7.104   3.010 -0.2306  0.1384  1.0242
   76MOL0     C 9929   3.275   7.016   2.967  0.3936 -0.2763  0.4340
   76MOL0     O 9930   3.341   7.052   2.843  0.1663  0.6490 -0.3809
   76MOL0     C 9931   3.439   6.976   2.780 -1.1953  0.3423  0.9233
   76MOL0     C 9932   3.535   7.046   2.700 -0.0615  0.1034 -0.0722
   76MOL0     C 9933   3.634   6.968   2.632  0.2471 -0.2757 -0.1172
   76MOL0     C 9934   3.647   6.833   2.652 -0.6449  0.4309  0.0539
   76MOL0     O 9935   3.728   6.741   2.584 -0.9879 -0.4909  0.4265
   76MOL0     C 9936   3.800   6.778   2.464  0.6896 -0.4356  0.1323
   76MOL0     C 9937   3.864   6.654   2.406 -0.2023  1.2318  0.3806
   76MOL0     C 9938   3.961   6.675   2.287 -0.0060 -0.2466  0.5059
   76MOL0     C 9939   3.905   6.775   2.185 -0.2425  0.6219  0.0164
   76MOL0     C 9940   3.983   6.901   2.200 -0.9734  0.3319  0.4816
   76MOL0     C 9941   4.132   6.898   2.152 -0.0660 -0.5516 -0.9813
   76MOL0     C 9942   4.169   6.835   2.026  0.0261 -0.2504 -1.1153
   76MOL0     C 9943   4.313   6.870   1.984 -1.1144 -0.1633 -0.3784
   76MOL0    Cl 9944   4.337   7.037   1.921 -0.4117 -0.1010  0.1185
   76MOL0     C 9945   3.562   6.770   2.736 -0.1393 -0.2572 -0.2868
   76MOL0     C 9946   3.454   6.842   2.795 -0.0584  0.1197  0.4600
   76MOL0     O 9947   3.329   6.936   3.041 -0.1287 -0.6594  1.1600
   76MOL0     C 9948   3.084   7.059   3.119  0.3734 -0.5805 -0.3330
   76MOL0     C 9949   2.984   7.153   3.173 -0.6276  0.0362  0.0064
   76MOL0     N 9950   2.785   7.686   3.648 -0.4075 -0.7839  0.4731
   76MOL0     N 9951   2.833   7.709   3.760  0.4352  0.1449  0.0196
   76MOL0     C 9952   3.401   6.921   4.809 -0.7077 -0.0896  1.0447
   76MOL0     C 9953   3.456   6.794   4.841 -0.4727 -0.4487 -0.2964
   76MOL0     C 9954   3.622   6.443   4.936 -0.4456  0.4864  0.1155
   76MOL0     C 9955   3.648   6.366   4.823  0.5979  0.3360  0.3192
   76MOL0     C 9956   3.757   6.293   4.799 -0.8971 -0.0907  0.1286
   76MOL0     C 9957   3.857   6.281   4.892  1.5176  0.1492 -0.6573
   76MOL0     O 9958   3.956   6.194   4.862 -0.1420  0.1035 -0.2181
   76MOL0     C 9959   4.041   6.164   4.977  0.3646 -0.6101  0.1247
   76MOL0     C 9960   4.149   6.063   4.941  0.5857 -0.3201 -0.1456
   76MOL0     C 9961   4.227   6.123   4.826 -0.0449 -1.5671 -0.1250
   76MOL0     C 9962   4.265   6.271   4.848 -0.0830  0.4612  0.2298
   76MOL0     C 9963   4.351   6.300   4.968 -0.4234  0.2016 -0.6329
   76MOL0     C 9964   4.427   6.335   5.059  0.3823  0.3838  0.1781
   76MOL0     C 9965   3.843   6.356   5.009  1.2633  0.7779 -0.5394
   76MOL0     C 9966   3.726   6.433   5.034  0.2483  0.6390  1.0578
   76MOL0     H 9967   3.232   6.592   4.682 -0.9266 -0.7195  2.9740
   76MOL0     H 9968   3.129   6.819   4.632  2.1018  2.3371 -3.3268
   76MOL0     H 9969   3.164   6.992   4.495  0.5017 -0.9686  1.2292
   76MOL0     H 9970   3.336   7.029   4.494  0.8754  1.1877 -1.1728
   76MOL0     H 9971   3.288   7.270   4.565 -0.1740  1.2798  1.1148
   76MOL0     H 9972   3.111   7.237   4.568  1.9305  0.6837 -0.2428
   76MOL0     H 9973   3.095   7.185   4.342 -0.1542  1.1970 -3.8181
   76MOL0     H 9974   3.267   7.211   4.311  1.8107  1.6070  0.9192
   76MOL0     H 9975   3.045   7.402   4.397 -2.1352 -2.8073 -3.8859
   76MOL0     H 9976   3.215   7.459   4.385 -1.9587  1.0474  0.2226
   76MOL0     H 9977   3.047   7.311   4.168  3.9589 -1.9451 -1.8800
   76MOL0     H 9978   3.207   7.369   4.146  0.6712  0.0598  1.1671
   76MOL0     H 9979   3.096   7.606   4.174  2.3931 -1.6473 -0.7927
   76MOL0     H 9980   2.937   7.517   4.198 -0.4867  0.0119 -1.1257
   76MOL0     H 9981   3.090   7.593   3.958 -1.2449 -1.2836 -1.7137
   76MOL0     H 9982   3.059   7.425   3.953  0.4836  1.1581 -0.8128
   76MOL0     H 9983   2.840   7.631   4.010  1.7342 -1.9104  2.9867
   76MOL0     H 9984   2.807   7.465   3.984 -0.8270 -0.6753 -2.1200
   76MOL0     H 9985   2.850   7.374   3.723  1.6486 -0.3579  3.8712
   76MOL0     H 9986   2.661   7.421   3.507  0.5603 -0.8044 -1.8484
   76MOL0     H 9987   2.836   7.445   3.450 -0.1081  0.2695 -1.8859
   76MOL0     H 9988   2.793   7.660   3.396 -0.1467 -0.7855  0.9060
   76MOL0     H 9989   2.622   7.645   3.406 -0.7566 -1.1820  1.0213
   76MOL0     H 9990   2.621   7.474   3.222  0.9129 -1.2126 -0.1897
   76MOL0     H 9991   2.666   7.634   3.189 -0.4895  0.8799  3.3008
   76MOL0     H 9992   2.928   7.524   3.232  1.2318  1.3808 -1.6224
   76MOL0     H 9993   2.845   7.535   3.079 -0.2534  2.3722  1.2072
   76MOL0     H 9994   2.991   7.392   2.934  1.2093 -0.2472 -1.2516
   76MOL0     H 9995   3.162   7.252   2.839 -1.4672 -1.4627 -0.9052
   76MOL0     H 9996   3.531   7.153   2.686  2.2710  0.2082 -0.2483
   76MOL0     H 9997   3.711   7.023   2.578 -0.4960 -1.2071 -2.2363
   76MOL0     H 9998   3.883   6.845   2.487  0.4162  1.0257 -2.7093
   76MOL0     H 9999   3.731   6.836   2.402 -0.5958 -1.8516  0.1776
   76MOL0     H10000   3.795   6.582   2.361 -0.3087  1.5639  0.0054
   76MOL0     H10001   3.916   6.610   2.492  3.7035  1.8354 -1.4898
   76MOL0     H10002   3.990   6.579   2.244  0.8927  0.3267 -0.1972
   76MOL0     H10003   4.056   6.709   2.329 -1.6427  1.9003  2.8150
   76MOL0     H10004   3.911   6.738   2.082 -0.3329  2.4414 -0.6730
   76MOL0     H10005   3.802   6.799   2.211 -0.2717  0.2599  0.2414
   76MOL0     H10006   3.970   6.925   2.306 -0.8927  2.7946 -0.0042
   76MOL0     H10007   3.923   6.970   2.140 -2.3642 -0.4443  0.9431
   76MOL0     H10008   4.179   6.845   2.235  2.0984 -1.4868 -2.7092
   76MOL0     H10009   4.190   6.990   2.145  1.4610 -1.4834 -0.9287
   76MOL0     H10010   4.149   6.727   2.030  0.5736 -0.3380 -0.5914
   76MOL0     H10011   4.109   6.880   1.947  0.3944  0.6125 -0.9111
   76MOL0     H10012   4.334   6.798   1.904 -4.4150 -0.3051 -1.2471
   76MOL0     H10013   4.382   6.854   2.068  0.4347  2.1856 -1.1094
   76MOL0     H10014   3.585   6.668   2.764 -1.3109 -0.9850 -1.7909
   76MOL0     H10015   3.385   6.791   2.862  0.9670  0.9675  2.2236
   76MOL0     H10016   3.120   6.981   3.185 -0.8763 -0.4303  0.5669
   76MOL0     H10017   2.927   7.110   3.255 -2.2943 -0.9281 -1.5681
   76MOL0     H10018   3.456   7.010   4.835 -1.3062  0.3873  0.7121
   76MOL0     H10019   3.544   6.805   4.902 -1.3563  1.4837  0.7298
   76MOL0     H10020   3.563   6.363   4.755  1.4568 -2.5882 -0.7923
   76MOL0     H10021   3.763   6.239   4.705  2.7907  2.9956 -1.6188
   76MOL0     H10022   3.976   6.115   5.051  0.3862 -0.3923  0.2889
   76MOL0     H10023   4.085   6.253   5.023  1.3059 -0.9796 -0.0428
   76MOL0     H10024   4.219   6.044   5.023  1.0670 -0.2345 -0.5273
   76MOL0     H10025   4.104   5.965   4.920 -0.1769  0.2274 -1.1752
   76MOL0     H10026   4.169   6.101   4.736 -2.7615 -1.3493  1.4389
   76MOL0     H10027   4.316   6.060   4.823 -0.0922 -2.0181  3.2728
   76MOL0     H10028   4.323   6.299   4.760 -2.3756 -1.4203 -2.0614
   76MOL0     H10029   4.181   6.341   4.850  1.0387  1.8440  0.5566
   76MOL0     H10030   4.502   6.378   5.122  0.6718  0.2006 -0.0459
   76MOL0     H10031   3.921   6.353   5.084 -1.5531  0.7670  2.6161
   76MOL0     H10032   3.712   6.495   5.122  0.4922  6.4855 -2.5144
   77MOL0     O10033   1.458   5.125   6.662  1.0237 -0.8541 -0.5953
   77MOL0     C10034   1.458   5.120   6.540  0.3310 -0.0801 -0.4716
   77MOL0     O10035   1.527   5.199   6.462 -0.6180  0.0821 -0.2214
   77MOL0     C10036   1.606   5.294   6.517 -0.9596  0.0068 -0.7171
   77MOL0     C10037   1.564   5.427   6.545 -0.1867 -0.1807  0.6760
   77MOL0     C10038   1.655   5.517   6.594 -0.6228  0.5794 -0.7364
   77MOL0     C10039   1.784   5.473   6.633 -0.8430  0.8308  0.3643
   77MOL0     O10040   1.858   5.568   6.700  0.0618 -0.3059  0.0482
   77MOL0     C10041   1.954   5.531   6.801 -0.4694 -0.4333 -0.3585
   77MOL0     C10042   2.078   5.623   6.787  0.0257  0.5276  0.0888
   77MOL0     C10043   2.156   5.660   6.917  0.1683 -0.5099  0.3581
   77MOL0     C10044   2.271   5.756   6.876 -0.8773  0.0364  0.0585
   77MOL0     C10045   2.363   5.703   6.761  0.5136  1.2440 -0.4169
   77MOL0     C10046   2.500   5.779   6.766 -0.1508  0.5081 -0.2659
   77MOL0     C10047   2.579   5.765   6.644  0.0935 -0.0206  0.9510
   77MOL0     C10048   2.697   5.862   6.631 -0.3771  0.6043  0.2406
   77MOL0     N10049   2.779   5.821   6.513 -0.0157 -0.0509 -0.1141
   77MOL0     C10050   2.857   5.705   6.507  0.6204 -0.8301 -0.2475
   77MOL0     C10051   2.889   5.700   6.384 -0.0468  0.4663  0.7464
   77MOL0     C10052   2.962   5.582   6.327  0.0018 -0.1365 -0.2065
   77MOL0     C10053   3.107   5.622   6.297 -0.1186  0.7917  0.3772
   77MOL0     C10054   3.112   5.675   6.161 -0.9284 -0.1975 -0.4121
   77MOL0     C10055   3.113   5.572   6.050  0.8947  0.4082  0.8562
   77MOL0     O10056   3.120   5.631   5.917 -0.2162  0.6394  0.0599
   77MOL0     C10057   3.017   5.626   5.821  0.5407 -0.0721  0.0002
   77MOL0     C10058   3.056   5.640   5.695  0.8140 -0.1675  0.8731
   77MOL0     C10059   2.962   5.628   5.588  0.4385 -0.6064  0.5032
   77MOL0     C10060   2.831   5.623   5.610  0.5415  0.1168  0.4256
   77MOL0     C10061   2.736   5.646   5.507  0.3957  0.0775  0.4591
   77MOL0     O10062   2.796   5.677   5.381  0.1176 -0.5033  0.2995
   77MOL0     C10063   2.713   5.744   5.298 -0.2942 -0.1117  0.2260
   77MOL0     C10064   2.737   5.879   5.301  0.9107  0.3759  1.4343
   77MOL0     C10065   2.655   5.961   5.220  0.5144 -0.4386  0.8298
   77MOL0     C10066   2.559   5.912   5.134  0.3972 -0.0383  1.2525
   77MOL0     O10067   2.499   5.993   5.045  0.4374 -0.1717 -0.5234
   77MOL0     C10068   2.546   6.125   5.000  0.6623 -0.3542 -0.1300
   77MOL0     C10069   2.508   6.124   4.843 -0.7552 -0.3176 -0.7965
   77MOL0     C10070   2.580   6.235   4.780  0.2048  0.2752  0.4394
   77MOL0     C10071   2.562   6.252   4.630  0.3982  0.0874  0.0734
   77MOL0     C10072   2.407   6.295   4.606 -0.4891  0.2127 -0.0782
   77MOL0     C10073   2.374   6.425   4.683  0.3662  0.3527  0.4396
   77MOL0     C10074   2.252   6.486   4.601 -0.4815  0.0682  0.0639
   77MOL0     C10075   2.205   6.614   4.666 -0.2831 -0.2723 -0.1294
   77MOL0    Cl10076   2.327   6.743   4.663 -0.4617 -0.3707  0.0742
   77MOL0     C10077   2.544   5.779   5.126  0.6169 -0.2034 -0.3319
   77MOL0     C10078   2.615   5.689   5.206 -0.1047 -0.3317 -0.7451
   77MOL0     O10079   2.617   5.640   5.535  0.5332  0.3628  0.7651
   77MOL0     C10080   2.785   5.599   5.747  0.4659 -0.6451  0.2406
   77MOL0     C10081   2.884   5.602   5.853  1.6419  0.9521 -0.1828
   77MOL0     N10082   2.831   5.793   6.305 -0.3030 -0.2123  0.3639
   77MOL0     N10083   2.767   5.868   6.384 -0.1009 -0.7541 -0.3795
   77MOL0     C10084   1.822   5.342   6.605 -1.0085 -0.5575 -0.7213
   77MOL0     C10085   1.730   5.253   6.547 -0.5917 -0.3925  0.0916
   77MOL0     C10086   1.366   5.038   6.455  0.6695  0.3494 -0.9549
   77MOL0     C10087   1.377   5.016   6.316  0.4148 -0.2512  0.3597
   77MOL0     C10088   1.288   4.925   6.251 -0.1213  0.7315  0.4792
   77MOL0     C10089   1.189   4.855   6.321 -0.3597 -0.1980  0.7802
   77MOL0     O10090   1.110   4.763   6.249  0.4988 -0.5399 -0.2084
   77MOL0     C10091   0.990   4.711   6.307 -0.4664  0.1719 -0.7520
   77MOL0     C10092   0.860   4.799   6.288 -0.2176  0.3592 -0.3018
   77MOL0     C10093   0.854   4.917   6.371 -1.2576  0.4547  0.3899
   77MOL0     C10094   0.740   5.013   6.353  0.6028  0.4672  0.3380
   77MOL0     C10095   0.604   4.955   6.369  0.1391  0.2074 -1.1035
   77MOL0     C10096   0.492   4.909   6.383 -0.8218 -0.0840 -0.8071
   77MOL0     C10097   1.182   4.875   6.461  0.9501 -0.0247  1.9294
   77MOL0     C10098   1.269   4.970   6.529  0.3864  0.3322  0.1556
   77MOL0     H10099   1.464   5.455   6.514  0.2272  0.7903  0.1624
   77MOL0     H10100   1.625   5.617   6.623  0.4990  0.4993  0.8367
   77MOL0     H10101   1.991   5.429   6.788  1.3491  0.2499 -0.7887
   77MOL0     H10102   1.919   5.555   6.902 -0.4602 -0.1939 -0.4110
   77MOL0     H10103   2.038   5.718   6.753 -0.3424  1.6471  3.3164
   77MOL0     H10104   2.145   5.576   6.714  1.2262 -2.9898  3.0944
   77MOL0     H10105   2.188   5.569   6.969  0.6952 -0.9342 -0.6851
   77MOL0     H10106   2.098   5.731   6.977 -0.3255 -0.3316 -0.3261
   77MOL0     H10107   2.232   5.855   6.852 -2.9286  0.1955  3.3212
   77MOL0     H10108   2.344   5.752   6.957  0.6531 -0.6872 -1.2941
   77MOL0     H10109   2.319   5.733   6.665  0.5622  1.1324 -0.4743
   77MOL0     H10110   2.375   5.594   6.758 -0.0466  1.1088 -5.1649
   77MOL0     H10111   2.559   5.740   6.850  1.2247  1.3365 -0.8075
   77MOL0     H10112   2.483   5.886   6.783 -0.9874  0.1432  1.4119
   77MOL0     H10113   2.630   5.668   6.649  3.0237  1.0340 -2.9926
   77MOL0     H10114   2.508   5.786   6.563 -0.5951  0.8459  1.7552
   77MOL0     H10115   2.771   5.843   6.710 -1.2924 -3.4128  0.3357
   77MOL0     H10116   2.655   5.963   6.630 -6.2106 -1.4557 -0.7492
   77MOL0     H10117   2.882   5.633   6.584  0.0746 -1.8800 -1.0442
   77MOL0     H10118   2.908   5.547   6.238 -0.8123 -0.1870  0.2923
   77MOL0     H10119   2.955   5.500   6.400 -1.5376 -1.0498 -1.3172
   77MOL0     H10120   3.165   5.530   6.311 -1.9375 -0.4245  0.2978
   77MOL0     H10121   3.145   5.698   6.366  2.7378  0.3221 -0.5787
   77MOL0     H10122   3.053   5.764   6.136  1.3662  1.3818 -0.6269
   77MOL0     H10123   3.213   5.715   6.144 -1.2638  1.5445  1.4302
   77MOL0     H10124   3.021   5.513   6.058  0.9109  0.4243  1.1679
   77MOL0     H10125   3.199   5.505   6.055  1.3783  0.6515 -2.0167
   77MOL0     H10126   3.160   5.645   5.665  0.3915  2.9713 -0.5110
   77MOL0     H10127   3.000   5.642   5.487 -1.5857 -0.3194 -0.2641
   77MOL0     H10128   2.808   5.918   5.373  2.9544  1.7533 -1.1661
   77MOL0     H10129   2.660   6.069   5.227  0.4553  0.0465 -3.6318
   77MOL0     H10130   2.653   6.141   5.017  0.9802 -0.0978 -2.1770
   77MOL0     H10131   2.490   6.203   5.052  0.4619  0.8518 -2.0922
   77MOL0     H10132   2.401   6.133   4.824 -0.8457  0.8157  0.1408
   77MOL0     H10133   2.547   6.030   4.804  0.4596 -1.3197  2.4511
   77MOL0     H10134   2.686   6.217   4.800  0.0259 -0.2490  0.9421
   77MOL0     H10135   2.552   6.328   4.831  0.3292  1.2957 -1.2819
   77MOL0     H10136   2.634   6.327   4.595  0.8698  0.4046  1.6573
   77MOL0     H10137   2.579   6.162   4.570 -0.3418  1.0329 -1.6606
   77MOL0     H10138   2.339   6.210   4.617 -0.4065  0.3894  2.1559
   77MOL0     H10139   2.419   6.309   4.498 -2.5426 -0.7857 -0.4946
   77MOL0     H10140   2.464   6.485   4.694  0.7432 -0.1539  0.1863
   77MOL0     H10141   2.338   6.395   4.782  0.7113  0.1844  0.5187
   77MOL0     H10142   2.303   6.516   4.510  3.7079  0.7982  2.3868
   77MOL0     H10143   2.180   6.406   4.581  0.7558 -1.2305  0.6178
   77MOL0     H10144   2.149   6.610   4.760 -1.2018  2.5791 -0.4605
   77MOL0     H10145   2.126   6.649   4.600  0.2275  3.3870  0.9768
   77MOL0     H10146   2.463   5.749   5.060  0.9320  0.2202 -0.9139
   77MOL0     H10147   2.583   5.586   5.201 -0.1635 -0.3074 -0.8938
   77MOL0     H10148   2.687   5.577   5.788  0.7665  0.0317  1.3577
   77MOL0     H10149   2.850   5.583   5.954  0.6929 -2.9789 -1.0640
   77MOL0     H10150   1.923   5.308   6.624 -1.7430 -1.7933  1.3800
   77MOL0     H10151   1.753   5.148   6.532  0.2708 -0.9786  4.4155
   77MOL0     H10152   1.467   5.055   6.268  1.0509 -5.0126 -3.0732
   77MOL0     H10153   1.278   4.920   6.143 -2.5498 -1.6661  0.7050
   77MOL0     H10154   1.000   4.686   6.413  0.3930  1.9032 -0.3866
   77MOL0     H10155   0.975   4.614   6.257  0.9101 -0.9234  0.8594
   77MOL0     H10156   0.853   4.822   6.181 -1.6210  0.3602 -0.2347
   77MOL0     H10157   0.764   4.747   6.294 -1.2615  2.1574 -0.5324
   77MOL0     H10158   0.945   4.977   6.359 -2.0237  2.2757  2.9329
   77MOL0     H10159   0.846   4.878   6.473  0.9673 -0.4376  0.2880
   77MOL0     H10160   0.761   5.094   6.424  1.1644  3.5561 -3.0218
   77MOL0     H10161   0.746   5.065   6.257  3.0549  1.3726  0.9060
   77MOL0     H10162   0.392   4.876   6.396 -0.2231 -2.6024 -1.9112
   77MOL0     H10163   1.108   4.818   6.517  0.6215 -0.7746  0.7639
   77MOL0     H10164   1.268   4.986   6.637  1.8785  1.9596 -0.0252
   78MOL0     O10165   8.267   7.577   9.038 -0.2492  0.1234 -0.1987
   78MOL0     C10166   8.249   7.495   8.957 -0.1185 -0.3977 -0.0749
   78MOL0     O10167   8.269   7.363   8.981 -0.2879  0.3261 -0.4057
   78MOL0     C10168   8.299   7.311   9.097  0.2740 -0.5925  1.4366
   78MOL0     C10169   8.232   7.200   9.142 -0.0200 -0.1135 -1.4567
   78MOL0     C10170   8.261   7.150   9.267 -1.0042 -0.3797 -0.2950
   78MOL0     C10171   8.348   7.217   9.348 -0.1707  0.6500  0.4350
   78MOL0     O10172   8.345   7.190   9.481  0.3059 -0.3050 -0.2140
   78MOL0     C10173   8.247   7.272   9.550 -0.4838 -0.1589  0.4214
   78MOL0     C10174   8.259   7.206   9.686 -0.4872  0.2529  0.5602
   78MOL0     C10175   8.388   7.249   9.763  0.2384  0.5671  0.5390
   78MOL0     C10176   8.398   7.400   9.808  0.8618  0.6485 -0.4242
   78MOL0     C10177   8.504   7.416   9.927  0.9289  0.3083  1.7279
   78MOL0     C10178   8.492   7.546  10.005  0.3553  0.6177  0.6725
   78MOL0     C10179   8.599   7.582  10.105  0.8942 -1.2139 -0.3887
   78MOL0     C10180   8.746   7.595  10.044 -0.0510  0.9055  0.1994
   78MOL0     N10181   8.835   7.641  10.148  0.6822  0.4452 -0.9425
   78MOL0     C10182   8.841   7.770  10.199 -0.5576  0.4189 -0.1525
   78MOL0     C10183   8.966   7.781  10.246  0.4266 -0.4881  0.5640
   78MOL0     C10184   9.047   7.899  10.290  0.2643 -0.5207  0.0774
   78MOL0     C10185   9.123   7.959  10.176 -0.7347  1.6040  0.5455
   78MOL0     C10186   9.156   8.106  10.205  0.8380  0.4727  0.4274
   78MOL0     C10187   9.206   8.154  10.072 -0.0384 -0.8039 -0.2674
   78MOL0     O10188   9.190   8.295  10.066  0.0361  1.2313  0.3194
   78MOL0     C10189   9.198   8.357   9.936  0.7057 -0.2416  0.3233
   78MOL0     C10190   9.088   8.442   9.915 -0.7685  0.6858  0.0824
   78MOL0     C10191   9.077   8.490   9.786  0.3315  0.1533  0.5762
   78MOL0     C10192   9.174   8.469   9.680  1.5831  0.2027  1.5331
   78MOL0     C10193   9.148   8.522   9.541 -0.0554 -0.7051 -0.3594
   78MOL0     O10194   9.016   8.559   9.505 -0.4220  0.0760  0.3388
   78MOL0     C10195   9.009   8.641   9.398 -0.5061  0.7533  0.4931
   78MOL0     C10196   8.985   8.600   9.262 -0.0719 -0.2745 -0.6173
   78MOL0     C10197   8.952   8.701   9.166  0.6176 -0.4918  0.0800
   78MOL0     C10198   8.968   8.841   9.195  0.0563  0.3610  0.2987
   78MOL0     O10199   8.955   8.936   9.097 -0.3700 -0.0563 -0.7551
   78MOL0     C10200   8.856   9.032   9.130 -0.1928  0.2417 -0.0273
   78MOL0     C10201   8.906   9.158   9.073  0.2037  0.8326  0.3085
   78MOL0     C10202   8.984   9.234   9.186  0.3753  0.3247 -1.1014
   78MOL0     C10203   9.021   9.377   9.147 -0.3125  0.5021  0.4718
   78MOL0     C10204   9.050   9.452   9.278  0.2182  0.3171  0.8097
   78MOL0     C10205   9.167   9.551   9.237 -0.0289  0.1065 -0.9156
   78MOL0     C10206   9.209   9.642   9.357 -0.1827 -0.7114  0.6381
   78MOL0     C10207   9.277   9.573   9.477  0.6163  0.3255 -0.6382
   78MOL0    Cl10208   9.438   9.509   9.435 -0.2474  0.5922  0.0853
   78MOL0     C10209   9.009   8.873   9.320 -0.7964  0.3115  1.1476
   78MOL0     C10210   9.018   8.776   9.424 -1.0403 -0.3102  0.7393
   78MOL0     O10211   9.244   8.522   9.461 -0.0968  0.4465  0.0642
   78MOL0     C10212   9.274   8.388   9.711  1.0171  0.2151  0.7235
   78MOL0     C10213   9.288   8.323   9.836 -0.4985 -0.6262 -0.2657
   78MOL0     N10214   9.025   7.657  10.232 -0.3335  0.2560  0.2781
   78MOL0     N10215   8.951   7.570  10.175  0.6180 -0.3199 -0.1885
   78MOL0     C10216   8.432   7.312   9.294  0.5265  0.8797  0.2207
   78MOL0     C10217   8.404   7.357   9.167  0.0391 -0.3918  0.4914
   78MOL0     C10218   8.237   7.536   8.808  0.8702  0.1401  1.3712
   78MOL0     C10219   8.243   7.673   8.767  0.3520 -0.1093  0.4583
   78MOL0     C10220   8.226   7.707   8.636  0.4083  1.2116 -0.5943
   78MOL0     C10221   8.180   7.607   8.550  0.5208 -0.8844 -0.6898
   78MOL0     O10222   8.138   7.659   8.427 -0.4403 -0.3775 -0.0073
   78MOL0     C10223   8.115   7.576   8.319 -0.9212 -0.4518  0.4948
   78MOL0     C10224   8.102   7.659   8.191  0.1964 -0.2526 -0.3478
   78MOL0     C10225   8.083   7.576   8.060 -0.0100  0.2692  0.1245
   78MOL0     C10226   8.171   7.448   8.042 -0.0398  0.3539 -0.1978
   78MOL0     C10227   8.120   7.378   7.922 -1.2029  0.2952  0.8762
   78MOL0     C10228   8.099   7.339   7.809  0.7712 -0.6365  0.5985
   78MOL0     C10229   8.172   7.474   8.578  0.2445  0.6117 -0.2832
   78MOL0     C10230   8.214   7.440   8.706  0.5176  0.5697 -0.7098
   78MOL0     H10231   8.149   7.160   9.085 -2.0499 -0.2244  1.3401
   78MOL0     H10232   8.199   7.073   9.312 -2.1107  1.7107  2.0519
   78MOL0     H10233   8.146   7.273   9.508 -0.3087  3.6900 -0.2177
   78MOL0     H10234   8.282   7.375   9.546 -1.8373  0.3092  0.1306
   78MOL0     H10235   8.251   7.097   9.686 -1.3450  0.2992  2.0107
   78MOL0     H10236   8.172   7.241   9.742 -0.3295 -2.0287  2.3949
   78MOL0     H10237   8.480   7.213   9.717 -1.0685 -0.9054 -1.0557
   78MOL0     H10238   8.392   7.216   9.867  0.3614  5.1942  2.2387
   78MOL0     H10239   8.434   7.452   9.719 -1.0960  1.1972 -0.9476
   78MOL0     H10240   8.299   7.443   9.828  0.7294 -0.1424  0.7423
   78MOL0     H10241   8.607   7.414   9.890  0.2514  0.2004 -0.3035
   78MOL0     H10242   8.494   7.332   9.996  1.6841 -2.3352 -1.1436
   78MOL0     H10243   8.400   7.561  10.062  0.0042  1.1292 -0.0096
   78MOL0     H10244   8.489   7.629   9.934  1.4166  3.0456  3.2497
   78MOL0     H10245   8.565   7.673  10.157 -3.1549 -4.5566  3.6489
   78MOL0     H10246   8.594   7.510  10.187  3.0558  1.3110  2.1736
   78MOL0     H10247   8.744   7.670   9.964  0.9920 -1.0310 -1.7629
   78MOL0     H10248   8.772   7.496  10.007  1.9629  2.0117 -1.5743
   78MOL0     H10249   8.758   7.839  10.209 -0.2010  0.9126 -0.5327
   78MOL0     H10250   9.103   7.864  10.377  1.2820 -0.3112 -0.4822
   78MOL0     H10251   8.977   7.976  10.327 -1.1612 -1.3951 -0.7108
   78MOL0     H10252   9.065   7.945  10.084  2.1338 -1.1446 -1.0737
   78MOL0     H10253   9.217   7.905  10.158 -1.1016  0.7456  1.1026
   78MOL0     H10254   9.067   8.162  10.237 -0.9791 -1.6958 -0.4767
   78MOL0     H10255   9.230   8.120  10.284 -0.5566  0.9376  1.7194
   78MOL0     H10256   9.149   8.112   9.989  1.5623 -2.3601 -0.6294
   78MOL0     H10257   9.310   8.121  10.076  0.5283  0.8075  4.0884
   78MOL0     H10258   9.026   8.467  10.000  1.3044  1.2253  1.5153
   78MOL0     H10259   8.987   8.540   9.751  1.0316 -0.1200 -1.8428
   78MOL0     H10260   8.988   8.498   9.227 -2.8597 -0.0646 -1.7092
   78MOL0     H10261   8.929   8.670   9.065  0.9866 -0.9675  0.1386
   78MOL0     H10262   8.832   9.037   9.237 -0.1594 -1.3642  0.0878
   78MOL0     H10263   8.770   9.003   9.070  1.6256 -1.2791 -2.0712
   78MOL0     H10264   8.817   9.210   9.038 -0.0610  1.1592  1.4406
   78MOL0     H10265   8.969   9.158   8.984  2.9766 -1.7749  2.0298
   78MOL0     H10266   9.072   9.172   9.206 -1.6031 -2.1240  0.5373
   78MOL0     H10267   8.928   9.242   9.280  2.5829 -0.2419  0.3638
   78MOL0     H10268   9.099   9.378   9.070 -0.6900  3.7802 -0.0031
   78MOL0     H10269   8.932   9.418   9.099  1.1012  1.6184 -1.3191
   78MOL0     H10270   9.089   9.382   9.352  0.8925 -1.8390 -1.4477
   78MOL0     H10271   8.970   9.514   9.321  1.9442  2.0097  1.7540
   78MOL0     H10272   9.131   9.625   9.166  1.1791  0.3387 -1.3105
   78MOL0     H10273   9.255   9.497   9.201  0.9715 -0.3673  1.9089
   78MOL0     H10274   9.278   9.721   9.325 -1.4210 -0.6672 -2.2741
   78MOL0     H10275   9.118   9.687   9.397  0.7036  2.0689 -0.2217
   78MOL0     H10276   9.211   9.498   9.522  2.5242 -0.0216  1.8116
   78MOL0     H10277   9.288   9.642   9.561  0.3531 -1.7316  1.1964
   78MOL0     H10278   9.044   8.972   9.346  1.1769  0.0081 -0.1287
   78MOL0     H10279   9.025   8.794   9.531 -1.9639  2.5106  0.4306
   78MOL0     H10280   9.356   8.365   9.643 -0.4338 -1.7888 -0.4137
   78MOL0     H10281   9.376   8.265   9.861 -0.4346 -0.2595  0.3970
   78MOL0     H10282   8.500   7.356   9.366  0.1008  1.9561 -0.0207
   78MOL0     H10283   8.461   7.445   9.140  0.2269 -0.0704  1.8269
   78MOL0     H10284   8.246   7.747   8.847 -4.4544 -2.0127  2.8375
   78MOL0     H10285   8.222   7.812   8.610  0.9411  1.7077  1.1723
   78MOL0     H10286   8.029   7.512   8.343 -1.7139 -0.1570 -1.3509
   78MOL0     H10287   8.207   7.520   8.302  0.0468  1.3440 -0.5136
   78MOL0     H10288   8.026   7.736   8.208  0.3173 -0.4231  1.1084
   78MOL0     H10289   8.193   7.719   8.174  1.1552 -1.6040 -0.1205
   78MOL0     H10290   8.095   7.640   7.972  0.3703 -0.8229 -0.6496
   78MOL0     H10291   7.976   7.552   8.059 -0.2501  1.3485 -0.3115
   78MOL0     H10292   8.274   7.481   8.023  0.6772 -2.7407 -2.5070
   78MOL0     H10293   8.169   7.376   8.123 -2.8942 -1.6757 -1.8631
   78MOL0     H10294   8.082   7.301   7.711  0.4243 -0.8842  0.7533
   78MOL0     H10295   8.155   7.404   8.496  0.5742 -0.8775  0.8889
   78MOL0     H10296   8.207   7.332   8.716 -2.5571  0.3121 -3.7447
   79MOL0     O10297  10.645   7.771   5.246  0.1314  0.9905 -0.7857
   79MOL0     C10298  10.572   7.859   5.207  0.1865  0.7391 -0.6395
   79MOL0     O10299  10.529   7.962   5.280  0.3441  0.8862  0.5049
   79MOL0     C10300  10.585   8.004   5.400  0.2173  0.9134  1.1026
   79MOL0     C10301  10.684   7.938   5.473 -0.9401 -0.5551 -0.1053
   79MOL0     C10302  10.724   7.997   5.602 -0.8842 -0.0363  0.3637
   79MOL0     C10303  10.678   8.122   5.649 -0.0950  0.2527 -0.1986
   79MOL0     O10304  10.729   8.175   5.763 -0.7556  0.5791 -0.1007
   79MOL0     C10305  10.749   8.316   5.752 -0.2949 -0.5609 -0.6160
   79MOL0     C10306  10.801   8.383   5.874  0.1366  0.7829 -0.0397
   79MOL0     C10307  10.934   8.329   5.926 -0.3982 -0.1763 -0.1082
   79MOL0     C10308  10.967   8.379   6.069  0.3888  0.1290 -0.3006
   79MOL0     C10309  11.100   8.313   6.128  0.3631 -0.2734 -0.1314
   79MOL0     C10310  11.140   8.375   6.268 -0.2539  1.0154 -0.2421
   79MOL0     C10311  11.264   8.289   6.315  0.5489 -0.3109 -0.3953
   79MOL0     C10312  11.327   8.360   6.441  0.8796 -0.2700  0.6133
   79MOL0     N10313  11.440   8.285   6.504 -0.7257 -0.4461  0.1524
   79MOL0     C10314  11.565   8.279   6.437  0.2387  0.1373 -0.4746
   79MOL0     C10315  11.635   8.192   6.509  0.3335  1.2399 -0.0676
   79MOL0     C10316  11.776   8.156   6.488  0.1314 -0.8454 -0.0681
   79MOL0     C10317  11.868   8.279   6.516  0.0146 -1.2687  0.1019
   79MOL0     C10318  12.018   8.253   6.507 -0.7153 -0.3322 -1.3132
   79MOL0     C10319  12.061   8.181   6.370  0.5340  0.2156  0.1625
   79MOL0     O10320  12.024   8.264   6.266 -0.0032  0.3526  0.0414
   79MOL0     C10321  12.125   8.304   6.176 -0.0926 -0.5525 -0.8407
   79MOL0     C10322  12.101   8.424   6.106  0.3549  0.4855  0.3648
   79MOL0     C10323  12.190   8.452   6.005 -0.2809 -0.2495 -0.2108
   79MOL0     C10324  12.292   8.365   5.961  0.0249 -0.1381 -0.0663
   79MOL0     C10325  12.370   8.401   5.848 -0.7841 -0.5010  0.5328
   79MOL0     O10326  12.489   8.332   5.836  0.0672 -0.2083  0.4701
   79MOL0     C10327  12.582   8.374   5.740 -0.1890 -0.2222 -0.4383
   79MOL0     C10328  12.679   8.472   5.777  0.0467 -0.0604 -0.8836
   79MOL0     C10329  12.779   8.501   5.673  0.9039 -1.2197 -0.2967
   79MOL0     C10330  12.790   8.444   5.555  0.1587 -0.1956 -0.1423
   79MOL0     O10331  12.889   8.481   5.466  0.2081 -0.3080 -0.2433
   79MOL0     C10332  12.965   8.368   5.409 -0.2209  0.3521 -0.0168
   79MOL0     C10333  13.087   8.427   5.335  0.1607 -0.1537  0.7459
   79MOL0     C10334  13.209   8.335   5.321 -0.4534 -0.0438  0.7622
   79MOL0     C10335  13.335   8.407   5.271 -0.8019  0.2109  0.4588
   79MOL0     C10336  13.466   8.323   5.294  0.1403  1.0258 -1.0817
   79MOL0     C10337  13.584   8.413   5.251 -0.9131 -0.1537  0.6555
   79MOL0     C10338  13.708   8.326   5.221  0.0720  0.6319 -0.6301
   79MOL0     C10339  13.762   8.249   5.347  1.0706  0.4394  0.3992
   79MOL0    Cl10340  13.890   8.123   5.310  0.3176  0.0768 -0.3450
   79MOL0     C10341  12.697   8.338   5.533 -0.5056  0.9190 -0.7322
   79MOL0     C10342  12.586   8.308   5.617 -0.1955  0.4504 -0.0760
   79MOL0     O10343  12.339   8.501   5.781  0.0892 -0.2944  0.2618
   79MOL0     C10344  12.323   8.255   6.039 -0.2069  0.2009  0.4476
   79MOL0     C10345  12.239   8.226   6.152 -1.5536 -0.2400 -0.8026
   79MOL0     N10346  11.551   8.146   6.601 -0.3317 -0.2639 -0.1616
   79MOL0     N10347  11.433   8.196   6.607  0.0852 -0.1640 -0.1978
   79MOL0     C10348  10.575   8.177   5.577  0.4710 -0.3274 -0.1635
   79MOL0     C10349  10.533   8.117   5.455  0.7836 -1.0643  0.2830
   79MOL0     C10350  10.508   7.847   5.077 -0.4818 -0.0546 -0.1693
   79MOL0     C10351  10.563   7.760   4.978  0.6018 -0.2849  0.4038
   79MOL0     C10352  10.499   7.733   4.854 -0.4367  0.7851 -0.2203
   79MOL0     C10353  10.382   7.803   4.823  0.7325 -0.1832 -0.2850
   79MOL0     O10354  10.349   7.811   4.691 -0.0067 -0.0286  0.2135
   79MOL0     C10355  10.215   7.761   4.666  0.4688  0.2163  0.9570
   79MOL0     C10356  10.205   7.717   4.515  0.0532 -0.0123  0.2901
   79MOL0     C10357  10.291   7.590   4.505  0.6227 -0.5681  0.1810
   79MOL0     C10358  10.303   7.539   4.363 -0.3759  0.9003  0.5289
   79MOL0     C10359  10.177   7.480   4.324  0.8477  0.0948 -0.6291
   79MOL0     C10360  10.076   7.419   4.286 -0.5032  0.2032  0.0647
   79MOL0     C10361  10.339   7.907   4.909 -0.5935 -0.4754 -0.8062
   79MOL0     C10362  10.396   7.919   5.046  0.5360 -0.5545  0.9746
   79MOL0     H10363  10.734   7.844   5.450  0.7020  0.5265 -1.1606
   79MOL0     H10364  10.803   7.956   5.664  1.4177 -0.1446 -2.4536
   79MOL0     H10365  10.668   8.385   5.726  3.1043  4.9241  1.4218
   79MOL0     H10366  10.822   8.327   5.671  0.7967  0.9326  0.5289
   79MOL0     H10367  10.726   8.363   5.951  2.0828 -3.5111  1.0422
   79MOL0     H10368  10.797   8.492   5.862 -1.4798  0.5933 -1.7662
   79MOL0     H10369  11.015   8.356   5.858 -0.3559 -1.0041 -0.3866
   79MOL0     H10370  10.925   8.220   5.935  2.1235 -0.2737  3.5022
   79MOL0     H10371  10.964   8.489   6.072 -2.4697  0.1685 -1.3399
   79MOL0     H10372  10.890   8.340   6.136  2.3770 -2.4719  0.6393
   79MOL0     H10373  11.185   8.341   6.064  1.0121 -1.7742  0.0331
   79MOL0     H10374  11.090   8.204   6.134  0.7953 -0.2157  3.1772
   79MOL0     H10375  11.054   8.358   6.334 -0.0623 -0.7593 -0.3879
   79MOL0     H10376  11.160   8.482   6.259 -0.0587  1.0863  0.8708
   79MOL0     H10377  11.236   8.184   6.333 -0.6232 -0.1044 -0.8846
   79MOL0     H10378  11.341   8.282   6.238  3.8197  2.5092  2.3167
   79MOL0     H10379  11.247   8.381   6.512  0.8867 -1.2387  0.9225
   79MOL0     H10380  11.357   8.455   6.397 -2.0971 -0.6722 -2.7688
   79MOL0     H10381  11.614   8.342   6.363  2.2266  0.2122  0.8432
   79MOL0     H10382  11.785   8.125   6.384 -0.7857  0.2040 -0.4729
   79MOL0     H10383  11.826   8.082   6.552  1.4093 -1.7553 -2.0325
   79MOL0     H10384  11.833   8.320   6.611 -1.2860 -0.7288 -0.5820
   79MOL0     H10385  11.839   8.346   6.434  0.9148 -0.2808  0.5635
   79MOL0     H10386  12.077   8.342   6.528  1.0140 -1.5041 -0.9894
   79MOL0     H10387  12.042   8.187   6.590 -3.8207 -1.9557 -1.5603
   79MOL0     H10388  11.998   8.092   6.363  0.4703 -0.0169  2.6018
   79MOL0     H10389  12.167   8.157   6.384  1.1646  3.0463  0.7737
   79MOL0     H10390  12.015   8.490   6.107 -0.6070 -0.6674 -1.0882
   79MOL0     H10391  12.186   8.553   5.964  1.0009  0.3361  1.0487
   79MOL0     H10392  12.682   8.525   5.871  2.4853 -2.0396  0.2892
   79MOL0     H10393  12.833   8.593   5.696 -2.0213 -0.0771  2.7030
   79MOL0     H10394  12.910   8.309   5.335  1.6407 -1.3581 -0.1085
   79MOL0     H10395  12.988   8.301   5.492 -0.6135 -0.0775 -0.2545
   79MOL0     H10396  13.126   8.506   5.400  2.4369 -0.2441 -0.3918
   79MOL0     H10397  13.050   8.468   5.241 -0.0601  0.2550  1.0085
   79MOL0     H10398  13.189   8.242   5.268  0.3183 -2.0146  3.6934
   79MOL0     H10399  13.224   8.291   5.420 -1.8599  0.9419  1.4453
   79MOL0     H10400  13.319   8.411   5.163 -2.2854  5.2380  0.6106
   79MOL0     H10401  13.340   8.509   5.308  0.0774  0.5880 -0.6360
   79MOL0     H10402  13.467   8.231   5.235 -0.2677 -0.0044  0.4752
   79MOL0     H10403  13.467   8.311   5.402 -0.6499 -0.7761 -1.2437
   79MOL0     H10404  13.602   8.482   5.334  5.5912  0.3417 -0.6370
   79MOL0     H10405  13.553   8.469   5.163 -1.6710 -0.3092  0.8143
   79MOL0     H10406  13.676   8.259   5.140  1.3411 -2.2687  1.0981
   79MOL0     H10407  13.787   8.389   5.179 -0.0551  0.5484 -0.9944
   79MOL0     H10408  13.678   8.192   5.389  3.0779 -1.5089  1.9898
   79MOL0     H10409  13.814   8.310   5.422  2.9578 -1.3930  0.6740
   79MOL0     H10410  12.702   8.293   5.435 -1.0647 -4.9947  1.5775
   79MOL0     H10411  12.506   8.239   5.595  0.5182 -0.0151 -1.3316
   79MOL0     H10412  12.412   8.196   6.022 -0.6793 -0.4539  0.2127
   79MOL0     H10413  12.258   8.125   6.187 -0.2860  0.1515 -0.3218
   79MOL0     H10414  10.525   8.266   5.615 -2.1040 -1.8370  0.1825
   79MOL0     H10415  10.448   8.163   5.405 -1.5167 -2.1866  2.8857
   79MOL0     H10416  10.657   7.709   4.994  0.8974  0.1660  0.1217
   79MOL0     H10417  10.535   7.676   4.769 -0.1222 -1.0334  1.0749
   79MOL0     H10418  10.142   7.838   4.692  2.1179  1.7043  1.3808
   79MOL0     H10419  10.180   7.676   4.725  1.2810 -2.2029 -1.8226
   79MOL0     H10420  10.105   7.686   4.481  0.0906 -2.8097  2.3586
   79MOL0     H10421  10.253   7.785   4.444 -0.2243  0.2821  0.3815
   79MOL0     H10422  10.256   7.515   4.576  1.1819 -2.0503 -1.0569
   79MOL0     H10423  10.386   7.628   4.543 -1.6467  4.3507  1.7406
   79MOL0     H10424  10.323   7.618   4.290  0.6701 -0.2610 -0.5047
   79MOL0     H10425  10.385   7.466   4.370  0.8457  2.0679 -0.7586
   79MOL0     H10426   9.986   7.364   4.268 -1.7940  2.3771 -0.4500
   79MOL0     H10427  10.254   7.969   4.883  0.3088  0.6928 -1.0526
   79MOL0     H10428  10.347   7.987   5.114  3.3467  0.5960  2.0260
   80MOL0     O10429   7.643   5.551   5.310 -0.6778  0.1951  0.4382
   80MOL0     C10430   7.657   5.431   5.348  0.4014  0.5490 -0.1619
   80MOL0     O10431   7.668   5.316   5.264  0.0791 -0.4200 -0.2580
   80MOL0     C10432   7.658   5.334   5.132  0.6698  1.3170 -0.2010
   80MOL0     C10433   7.771   5.316   5.053 -0.5324  0.1923  0.5899
   80MOL0     C10434   7.766   5.346   4.916  0.1643  0.8649  0.1262
   80MOL0     C10435   7.658   5.410   4.859 -1.0529 -0.4828 -0.4926
   80MOL0     O10436   7.667   5.449   4.723 -0.1194 -0.2603 -0.4901
   80MOL0     C10437   7.599   5.564   4.662  0.1811  0.0890  0.2468
   80MOL0     C10438   7.672   5.703   4.683  0.7954  0.0472  0.0203
   80MOL0     C10439   7.667   5.744   4.832  0.5625 -0.0004  0.0829
   80MOL0     C10440   7.771   5.852   4.884  0.1941 -0.3568 -0.0448
   80MOL0     C10441   7.745   5.923   5.017 -0.5895 -0.4966 -0.4674
   80MOL0     C10442   7.672   5.835   5.121  0.3176 -0.2594 -0.2800
   80MOL0     C10443   7.671   5.906   5.272  0.0107  1.5779 -0.1348
   80MOL0     C10444   7.794   5.855   5.349  1.8537 -0.0636 -0.0266
   80MOL0     N10445   7.784   5.900   5.491 -0.6325 -0.0594  0.3937
   80MOL0     C10446   7.895   5.893   5.567  0.1271  0.0112  0.2894
   80MOL0     C10447   7.867   5.869   5.702  0.4392  0.1602  0.2805
   80MOL0     C10448   7.964   5.857   5.817 -0.0854 -0.5275  0.9459
   80MOL0     C10449   8.000   5.983   5.886  0.3767  0.4241 -0.6973
   80MOL0     C10450   8.107   5.944   6.002  0.6280  0.9713  0.2258
   80MOL0     C10451   8.238   5.879   5.957  0.0211  0.0643  0.7487
   80MOL0     O10452   8.328   5.877   6.064  0.0816 -0.8774  0.4470
   80MOL0     C10453   8.391   5.993   6.111 -0.1558  1.2775  0.1727
   80MOL0     C10454   8.349   6.036   6.233  0.3219  0.4394  0.1637
   80MOL0     C10455   8.407   6.148   6.293 -0.4562  1.2184 -1.3116
   80MOL0     C10456   8.518   6.207   6.238 -0.7455 -0.7834  0.2385
   80MOL0     C10457   8.586   6.319   6.310  0.1817  0.4476  0.3027
   80MOL0     O10458   8.710   6.368   6.261  0.2865  0.2998 -0.0004
   80MOL0     C10459   8.810   6.405   6.350  0.3214  0.0846 -0.9099
   80MOL0     C10460   8.791   6.526   6.412 -0.2276  0.3569  0.8875
   80MOL0     C10461   8.879   6.579   6.502 -0.0472 -0.4210 -0.0298
   80MOL0     C10462   9.003   6.516   6.522  0.4327  0.1920 -0.4366
   80MOL0     O10463   9.098   6.563   6.603 -0.9712 -0.2519  0.5770
   80MOL0     C10464   9.083   6.686   6.680  0.3708  0.6148  0.0703
   80MOL0     C10465   9.215   6.711   6.742 -0.6097 -0.6960 -0.5514
   80MOL0     C10466   9.200   6.802   6.862  0.0905 -0.5077 -1.4106
   80MOL0     C10467   9.140   6.745   6.994 -0.0949 -0.4674 -1.2122
   80MOL0     C10468   9.157   6.854   7.100  0.2655  0.0565 -0.7585
   80MOL0     C10469   9.088   6.824   7.232 -0.5561 -0.1829 -0.7033
   80MOL0     C10470   9.113   6.941   7.334  0.4726  0.2292  0.4292
   80MOL0     C10471   9.021   7.056   7.307 -0.3589 -0.2729 -0.9060
   80MOL0    Cl10472   8.849   7.012   7.348  0.0917  0.2056  0.6602
   80MOL0     C10473   9.027   6.390   6.459  0.3395 -0.0405  0.6155
   80MOL0     C10474   8.935   6.343   6.366  0.3469  0.6703 -0.0077
   80MOL0     O10475   8.545   6.346   6.421  0.3999  0.0230 -0.0146
   80MOL0     C10476   8.550   6.179   6.103  1.1890 -1.0793  0.4144
   80MOL0     C10477   8.491   6.068   6.042 -0.1704  0.6066 -0.6577
   80MOL0     N10478   7.724   5.853   5.704  0.0671  0.1508 -0.3397
   80MOL0     N10479   7.684   5.874   5.579  0.6762 -0.1775 -0.0669
   80MOL0     C10480   7.537   5.424   4.935  0.9627  0.2544 -0.5928
   80MOL0     C10481   7.541   5.382   5.074  0.0383 -0.0468 -0.0640
   80MOL0     C10482   7.643   5.400   5.490 -0.0645 -0.7053  0.0573
   80MOL0     C10483   7.649   5.507   5.574  0.0534  0.1717 -0.4131
   80MOL0     C10484   7.655   5.500   5.707 -0.7719  0.0270  0.2152
   80MOL0     C10485   7.656   5.376   5.772  0.7966 -0.2979 -0.1108
   80MOL0     O10486   7.665   5.371   5.905  0.4802  0.7470  0.8521
   80MOL0     C10487   7.597   5.260   5.970  0.4597  0.6485  0.5108
   80MOL0     C10488   7.608   5.287   6.113 -1.3474 -0.5940  1.0561
   80MOL0     C10489   7.540   5.185   6.204 -0.1052  0.4039  0.1641
   80MOL0     C10490   7.394   5.221   6.220 -0.2945 -0.4627 -1.0082
   80MOL0     C10491   7.365   5.335   6.313 -0.2465 -0.1988 -0.3437
   80MOL0     C10492   7.340   5.395   6.419 -0.3823 -0.1553 -0.5004
   80MOL0     C10493   7.644   5.261   5.693 -0.4646  0.1095 -0.2095
   80MOL0     C10494   7.651   5.278   5.552  0.2545  0.6552  0.2301
   80MOL0     H10495   7.868   5.290   5.095 -1.3960 -2.2994  1.2195
   80MOL0     H10496   7.847   5.323   4.847 -0.4116 -0.2143 -0.2059
   80MOL0     H10497   7.504   5.571   4.717  1.4042  2.8091  2.2662
   80MOL0     H10498   7.571   5.534   4.561 -0.1509 -0.8788  0.6083
   80MOL0     H10499   7.619   5.781   4.627 -0.4513  0.1200  1.2488
   80MOL0     H10500   7.776   5.700   4.650 -0.3083  0.4077 -3.9803
   80MOL0     H10501   7.670   5.650   4.889 -3.7362 -1.4314 -1.5719
   80MOL0     H10502   7.563   5.765   4.860  0.2188 -1.8357  0.3222
   80MOL0     H10503   7.864   5.795   4.894  1.0344  0.6152 -1.8227
   80MOL0     H10504   7.781   5.915   4.796 -1.1765  2.7173  1.8390
   80MOL0     H10505   7.681   6.013   5.013  1.7374  1.2162 -1.9319
   80MOL0     H10506   7.836   5.961   5.064  0.8064 -3.5336 -0.5408
   80MOL0     H10507   7.706   5.731   5.119  3.0843  0.5502 -1.5237
   80MOL0     H10508   7.568   5.840   5.088 -0.8387  3.0322  3.1299
   80MOL0     H10509   7.666   6.015   5.276 -0.9323  1.5143  0.4882
   80MOL0     H10510   7.582   5.880   5.329  0.0522  2.9051  0.5733
   80MOL0     H10511   7.887   5.902   5.316  2.3953 -0.8834  0.2998
   80MOL0     H10512   7.818   5.749   5.338 -0.6445 -0.8474  1.2398
   80MOL0     H10513   7.996   5.913   5.534  0.6348 -0.5946  1.4243
   80MOL0     H10514   8.058   5.824   5.773  0.0904  1.5822 -0.4131
   80MOL0     H10515   7.924   5.787   5.891 -1.3838 -1.0475 -0.1956
   80MOL0     H10516   7.913   6.032   5.930 -0.7652 -0.7603 -1.5803
   80MOL0     H10517   8.055   6.064   5.839  0.3246  1.9566  1.7243
   80MOL0     H10518   8.135   6.039   6.048 -1.1696  1.4120  0.4998
   80MOL0     H10519   8.066   5.880   6.080  2.0447  0.0798  0.2696
   80MOL0     H10520   8.279   5.933   5.871  1.6055 -1.1345  0.7056
   80MOL0     H10521   8.218   5.782   5.911 -2.5927  0.9689 -0.2149
   80MOL0     H10522   8.264   5.987   6.280 -0.3138  1.1362 -0.2238
   80MOL0     H10523   8.354   6.180   6.382  0.3872 -0.7472 -0.0244
   80MOL0     H10524   8.698   6.580   6.392 -0.3038 -0.8615 -2.7792
   80MOL0     H10525   8.854   6.666   6.561  1.5119  1.4902 -1.9775
   80MOL0     H10526   9.011   6.680   6.763  1.9476 -0.2677  1.4263
   80MOL0     H10527   9.044   6.764   6.613 -4.2943  1.6014  3.4168
   80MOL0     H10528   9.287   6.760   6.675 -1.1441  3.4480  1.6138
   80MOL0     H10529   9.265   6.616   6.768  0.9534 -0.0072 -0.8992
   80MOL0     H10530   9.141   6.892   6.842 -0.0518  0.8485  3.6479
   80MOL0     H10531   9.296   6.847   6.888 -2.0595  3.3817  0.7126
   80MOL0     H10532   9.032   6.732   6.989 -0.2465  0.9779 -2.3023
   80MOL0     H10533   9.197   6.658   7.029 -2.0287  0.0107  4.2117
   80MOL0     H10534   9.105   6.940   7.058  1.5891  1.5779  0.5678
   80MOL0     H10535   9.256   6.898   7.114  0.3034  0.5229 -2.3136
   80MOL0     H10536   9.148   6.744   7.276  0.0607  0.7414  0.1905
   80MOL0     H10537   8.981   6.806   7.217 -1.2035  2.6196  0.0212
   80MOL0     H10538   9.105   6.900   7.435  2.6097  2.2752  1.5169
   80MOL0     H10539   9.216   6.979   7.334  0.6836 -0.3244 -0.4334
   80MOL0     H10540   9.031   7.099   7.207 -1.2678  0.8144 -0.5521
   80MOL0     H10541   9.052   7.135   7.375 -4.8425  1.0703 -0.0670
   80MOL0     H10542   9.117   6.336   6.486 -1.2479 -2.0548  2.2045
   80MOL0     H10543   8.947   6.265   6.292 -2.3866  1.5722 -1.5477
   80MOL0     H10544   8.617   6.250   6.057  0.6720  0.7461  2.3044
   80MOL0     H10545   8.520   6.036   5.943 -0.8832 -0.4595 -0.5381
   80MOL0     H10546   7.447   5.473   4.900  2.7782  2.7655 -2.1337
   80MOL0     H10547   7.462   5.404   5.145  0.4616  1.9779 -0.1602
   80MOL0     H10548   7.650   5.607   5.531 -1.7320  0.3710 -0.0520
   80MOL0     H10549   7.670   5.591   5.766 -0.2373  1.0046 -1.3721
   80MOL0     H10550   7.654   5.169   5.953  2.3017  1.0482  3.6478
   80MOL0     H10551   7.494   5.253   5.933  1.7787  0.0788 -3.4022
   80MOL0     H10552   7.713   5.296   6.139 -1.1958  1.0743 -0.0379
   80MOL0     H10553   7.577   5.391   6.126  1.5186  0.7779 -1.7524
   80MOL0     H10554   7.582   5.179   6.305  0.7679  1.2817 -0.1366
   80MOL0     H10555   7.548   5.080   6.174  2.6998  0.0027  2.0117
   80MOL0     H10556   7.353   5.255   6.125 -2.6344 -0.6455 -0.1179
   80MOL0     H10557   7.337   5.130   6.240 -2.1071  0.5874 -1.1627
   80MOL0     H10558   7.315   5.446   6.510 -1.6136 -3.1015  0.9383
   80MOL0     H10559   7.632   5.162   5.736  0.2289 -0.6182 -1.6304
   80MOL0     H10560   7.650   5.192   5.486 -2.0289 -1.3079  2.6175
   81MOL0     O10561   8.728   7.747   5.258  0.7355 -0.2834 -0.3016
   81MOL0     C10562   8.701   7.846   5.325  0.1062 -0.6424 -0.4597
   81MOL0     O10563   8.581   7.910   5.325 -0.3909  0.4969 -0.9142
   81MOL0     C10564   8.501   7.884   5.220  0.7161 -0.3303 -0.5528
   81MOL0     C10565   8.361   7.898   5.242  0.0357 -0.2705 -0.2404
   81MOL0     C10566   8.265   7.903   5.139 -1.0334  1.0911 -0.2843
   81MOL0     C10567   8.295   7.873   5.009  0.4504  0.8558  0.6003
   81MOL0     O10568   8.188   7.875   4.923 -0.1677 -0.0518 -0.1626
   81MOL0     C10569   8.212   7.824   4.789 -0.7154 -0.0219  0.4639
   81MOL0     C10570   8.085   7.850   4.701 -1.7429 -0.7831 -0.8873
   81MOL0     C10571   7.963   7.763   4.730  0.2800  0.2734  0.9395
   81MOL0     C10572   7.850   7.780   4.612 -0.5131 -0.2582  0.2014
   81MOL0     C10573   7.882   7.684   4.496  0.7139  0.2667  0.0130
   81MOL0     C10574   7.801   7.704   4.370  0.1484 -0.7707  0.2998
   81MOL0     C10575   7.851   7.831   4.290  0.2954  1.2432  0.5359
   81MOL0     C10576   7.769   7.834   4.166  0.8031  0.1164 -0.1423
   81MOL0     N10577   7.830   7.944   4.077 -1.1288  0.2991 -0.9290
   81MOL0     C10578   7.963   7.939   4.034 -0.0725 -0.5663  0.6242
   81MOL0     C10579   7.977   8.056   3.975 -0.5672  0.1560  1.7377
   81MOL0     C10580   8.105   8.102   3.915  0.1734  0.8651 -0.7318
   81MOL0     C10581   8.152   8.027   3.793  0.2762  0.5770  0.9353
   81MOL0     C10582   8.251   8.093   3.690  0.5922  0.3738 -1.3885
   81MOL0     C10583   8.367   8.156   3.777  0.0976 -0.0088 -0.1889
   81MOL0     O10584   8.412   8.052   3.853 -0.2365  0.3756  0.1468
   81MOL0     C10585   8.525   7.990   3.812 -1.1469 -0.1619 -0.1398
   81MOL0     C10586   8.640   8.007   3.891 -1.7412  0.3789  0.0530
   81MOL0     C10587   8.755   7.947   3.850 -0.0645  0.7708  0.0414
   81MOL0     C10588   8.770   7.865   3.743  0.1271  0.9092 -1.8691
   81MOL0     C10589   8.909   7.825   3.704 -0.1301 -0.5473 -0.0429
   81MOL0     O10590   9.007   7.837   3.797 -0.5044 -0.6803 -0.2728
   81MOL0     C10591   9.141   7.798   3.786 -0.4373  0.1148 -0.1934
   81MOL0     C10592   9.217   7.859   3.883  0.5813 -0.2040 -0.0325
   81MOL0     C10593   9.353   7.823   3.897 -1.1757  0.2254  0.8779
   81MOL0     C10594   9.417   7.734   3.810  1.0641 -0.4719  0.7350
   81MOL0     O10595   9.544   7.700   3.833 -0.2877  0.0536 -0.0431
   81MOL0     C10596   9.642   7.705   3.728 -0.5455 -1.0252 -0.5641
   81MOL0     C10597   9.738   7.811   3.769  0.4035  0.7369  0.4669
   81MOL0     C10598   9.838   7.762   3.864 -0.2200  0.8403 -0.1086
   81MOL0     C10599   9.924   7.885   3.887  1.3510 -0.1703  0.4362
   81MOL0     C10600  10.014   7.854   4.011  0.0687 -0.2202 -0.0892
   81MOL0     C10601  10.089   7.983   4.058 -0.1442 -0.0138 -0.2751
   81MOL0     C10602  10.002   8.104   4.110 -0.3295  0.1271  0.4064
   81MOL0     C10603  10.081   8.232   4.134  0.4949  0.9445  0.8007
   81MOL0    Cl10604   9.981   8.353   4.227  0.8940  0.0506 -0.1311
   81MOL0     C10605   9.336   7.681   3.699  0.9173 -0.8890 -0.6688
   81MOL0     C10606   9.197   7.707   3.690  0.2219 -0.6763  0.8256
   81MOL0     O10607   8.914   7.779   3.592  0.0686 -0.0529  0.4943
   81MOL0     C10608   8.650   7.840   3.667 -0.0435  0.6163 -0.1281
   81MOL0     C10609   8.525   7.897   3.706  0.9077  0.8076  0.6146
   81MOL0     N10610   7.856   8.129   3.965  0.1156 -0.8825  0.8977
   81MOL0     N10611   7.769   8.053   4.025 -0.1625 -0.7962 -0.3128
   81MOL0     C10612   8.432   7.859   4.983  0.1605 -0.2480  0.5691
   81MOL0     C10613   8.540   7.872   5.086  0.4316 -0.7389  0.8593
   81MOL0     C10614   8.792   7.894   5.427  0.0375 -0.6219 -0.2638
   81MOL0     C10615   8.737   7.994   5.516 -0.0758 -1.0985 -0.2690
   81MOL0     C10616   8.822   8.035   5.623  1.6452  0.0499 -0.0797
   81MOL0     C10617   8.950   7.987   5.634  0.4305 -0.4366  0.6911
   81MOL0     O10618   9.027   8.026   5.743 -0.2082  0.6650  0.0346
   81MOL0     C10619   9.143   7.950   5.783 -0.0136  0.2512 -0.8764
   81MOL0     C10620   9.186   7.984   5.931  0.2973  0.0584 -0.4645
   81MOL0     C10621   9.088   7.968   6.042  0.4705  0.7623 -0.3112
   81MOL0     C10622   9.156   7.993   6.179 -0.5738  0.1309  0.6372
   81MOL0     C10623   9.220   8.124   6.193 -0.8435 -0.6466 -0.3028
   81MOL0     C10624   9.268   8.236   6.220 -0.2856 -0.9069  1.4608
   81MOL0     C10625   9.003   7.898   5.542  0.6916  0.0541 -0.7118
   81MOL0     C10626   8.926   7.855   5.439  0.9072  0.4852 -0.4877
   81MOL0     H10627   8.317   7.918   5.339 -3.5487 -1.7793 -1.3998
   81MOL0     H10628   8.160   7.929   5.153 -0.9059  0.9372  1.1848
   81MOL0     H10629   8.233   7.717   4.796  2.2828  0.5263  1.3711
   81MOL0     H10630   8.290   7.878   4.735  0.3269 -0.3526  1.5964
   81MOL0     H10631   8.095   7.830   4.594  0.6267  0.3874 -0.9451
   81MOL0     H10632   8.043   7.950   4.718  0.7165  0.5125 -1.9011
   81MOL0     H10633   7.910   7.793   4.821  0.7375  3.4135  0.2767
   81MOL0     H10634   7.989   7.657   4.730 -1.8300 -0.3593 -2.1376
   81MOL0     H10635   7.757   7.750   4.659  0.9691 -3.1004  1.5273
   81MOL0     H10636   7.841   7.888   4.598  1.6650  0.4342  3.2341
   81MOL0     H10637   7.861   7.581   4.524 -0.5591  0.9428  1.7768
   81MOL0     H10638   7.989   7.683   4.478  1.4686  0.9104  3.6982
   81MOL0     H10639   7.694   7.707   4.394 -0.0066 -0.8223 -0.3577
   81MOL0     H10640   7.805   7.609   4.316 -2.1324 -1.3578  1.0202
   81MOL0     H10641   7.839   7.922   4.350 -0.2780  0.7406  1.1971
   81MOL0     H10642   7.958   7.812   4.274  0.3926  1.5212  0.8486
   81MOL0     H10643   7.666   7.841   4.201 -0.2062 -3.5263 -1.8714
   81MOL0     H10644   7.772   7.741   4.109  0.5849 -0.5744  0.9464
   81MOL0     H10645   8.047   7.874   4.056 -1.0496 -2.9539 -2.1985
   81MOL0     H10646   8.184   8.088   3.990  0.1001  0.1568 -0.7754
   81MOL0     H10647   8.093   8.207   3.886 -0.9933  0.3722 -2.1296
   81MOL0     H10648   8.071   7.991   3.729  2.3793 -1.0603 -0.9609
   81MOL0     H10649   8.199   7.932   3.821  3.4170  1.0560 -2.0086
   81MOL0     H10650   8.287   8.009   3.630 -0.6910 -0.7521 -0.6250
   81MOL0     H10651   8.217   8.169   3.619 -0.3097 -2.7777 -4.6096
   81MOL0     H10652   8.340   8.232   3.850 -1.6704 -2.7141  2.2227
   81MOL0     H10653   8.430   8.200   3.700 -0.2733 -1.6414 -1.4930
   81MOL0     H10654   8.646   8.066   3.982 -1.0977  0.4991 -0.0648
   81MOL0     H10655   8.846   7.983   3.897  1.1588 -1.8607 -0.1158
   81MOL0     H10656   9.172   7.935   3.946  2.4053  3.3762 -2.7474
   81MOL0     H10657   9.421   7.876   3.963  1.1029 -0.5579 -0.7163
   81MOL0     H10658   9.591   7.736   3.636  1.8260 -3.5984 -2.9528
   81MOL0     H10659   9.691   7.608   3.716  1.6833  0.2515 -2.7405
   81MOL0     H10660   9.682   7.901   3.793 -0.0899  0.8472 -0.9521
   81MOL0     H10661   9.795   7.826   3.677 -2.2245  0.2007 -1.3873
   81MOL0     H10662   9.890   7.677   3.819 -0.6178  0.2520  0.5211
   81MOL0     H10663   9.789   7.723   3.953  1.6522  0.9801  1.0424
   81MOL0     H10664   9.986   7.912   3.802  1.7753 -0.5954  0.6123
   81MOL0     H10665   9.859   7.972   3.903 -1.6558 -2.6974  3.7800
   81MOL0     H10666  10.087   7.774   3.993  0.0632  0.1964 -2.2795
   81MOL0     H10667   9.960   7.829   4.102  1.8322 -0.3825  0.9526
   81MOL0     H10668  10.143   8.021   3.972 -1.3301  0.1146 -0.9923
   81MOL0     H10669  10.165   7.943   4.126  2.0083  0.8844 -2.0315
   81MOL0     H10670   9.930   8.124   4.029  0.1806 -3.6191 -1.1729
   81MOL0     H10671   9.958   8.069   4.203  2.6663  0.4991  2.0871
   81MOL0     H10672  10.120   8.265   4.038  2.0136 -2.9960 -0.1251
   81MOL0     H10673  10.172   8.201   4.187  0.9959 -1.9991 -1.5310
   81MOL0     H10674   9.376   7.609   3.628  2.3524 -0.7212 -0.0785
   81MOL0     H10675   9.122   7.658   3.630 -1.7735  1.1799  1.6518
   81MOL0     H10676   8.653   7.772   3.583 -2.0540  1.3088 -0.8354
   81MOL0     H10677   8.436   7.858   3.658 -0.5467  2.1159  2.1205
   81MOL0     H10678   8.456   7.846   4.878 -0.3216  0.4187  0.3701
   81MOL0     H10679   8.643   7.885   5.054  0.2549 -2.2948 -0.4906
   81MOL0     H10680   8.637   8.033   5.529  1.2231  2.0203  1.3914
   81MOL0     H10681   8.776   8.090   5.705 -0.1469  0.6262 -1.3982
   81MOL0     H10682   9.227   7.984   5.722  0.1060 -0.9223 -1.3953
   81MOL0     H10683   9.121   7.843   5.772 -1.6194  0.5777 -1.0662
   81MOL0     H10684   9.278   7.925   5.940 -0.3820 -1.4351 -2.3764
   81MOL0     H10685   9.213   8.090   5.938 -0.8447  0.4098 -1.0916
   81MOL0     H10686   9.050   7.865   6.043 -0.3435  0.9879  2.7666
   81MOL0     H10687   9.004   8.034   6.020 -0.1297  0.1586  0.1252
   81MOL0     H10688   9.085   7.986   6.261 -0.9075  1.2971  0.4699
   81MOL0     H10689   9.231   7.913   6.182 -0.8283 -0.1291  0.2429
   81MOL0     H10690   9.312   8.332   6.239 -0.6020 -1.2684  4.5688
   81MOL0     H10691   9.106   7.866   5.558 -0.0048 -1.2070  1.7670
   81MOL0     H10692   8.953   7.776   5.369 -3.0382  0.3705 -2.1450
   82MOL0     O10693   2.793  10.329   6.713 -0.1771 -0.0432 -0.0434
   82MOL0     C10694   2.719  10.286   6.627 -0.5603  0.8490 -0.9342
   82MOL0     O10695   2.729  10.154   6.575  0.0276  0.1510 -0.2095
   82MOL0     C10696   2.850  10.092   6.580  0.5366  0.0452  0.1904
   82MOL0     C10697   2.959  10.147   6.501  0.4646 -0.1771 -0.6087
   82MOL0     C10698   3.091  10.093   6.515  0.0398  0.1325  0.9395
   82MOL0     C10699   3.107   9.978   6.594  0.5696  0.3041 -0.2021
   82MOL0     O10700   3.221   9.912   6.594  0.2667  0.4730 -0.6083
   82MOL0     C10701   3.304   9.928   6.710 -0.8251 -1.0862 -0.0622
   82MOL0     C10702   3.452   9.938   6.675  0.1188  0.7062 -0.4806
   82MOL0     C10703   3.510   9.827   6.585  0.3504  0.1131  1.0684
   82MOL0     C10704   3.494   9.692   6.654  0.2116  0.3067 -0.2438
   82MOL0     C10705   3.395   9.609   6.578  0.6747  0.4231 -0.0971
   82MOL0     C10706   3.369   9.469   6.637 -0.2754 -0.3970 -0.4968
   82MOL0     C10707   3.293   9.364   6.554 -0.2893  0.6598 -0.1279
   82MOL0     C10708   3.155   9.404   6.528 -0.6251 -0.3964  0.3159
   82MOL0     N10709   3.082   9.415   6.654 -0.5085 -0.0372  0.4457
   82MOL0     C10710   3.026   9.314   6.724  0.4359  0.3507 -0.9207
   82MOL0     C10711   2.946   9.380   6.810 -0.0744  0.0833  0.1671
   82MOL0     C10712   2.867   9.300   6.910  0.6404 -0.3397  0.1691
   82MOL0     C10713   2.853   9.390   7.042 -0.2911  1.2258 -0.0166
   82MOL0     C10714   2.827   9.297   7.158  0.6170 -0.4799  0.4356
   82MOL0     C10715   2.832   9.362   7.294 -0.3399 -0.5603 -0.3843
   82MOL0     O10716   2.699   9.428   7.326 -0.3311  1.1184 -0.0893
   82MOL0     C10717   2.600   9.346   7.372  0.0883 -0.1548  0.1309
   82MOL0     C10718   2.614   9.215   7.429  0.3509 -0.6678 -0.3750
   82MOL0     C10719   2.495   9.152   7.470  0.0531  0.0911 -0.8714
   82MOL0     C10720   2.366   9.194   7.431  0.6717  0.0612  0.6513
   82MOL0     C10721   2.245   9.113   7.476  0.0962 -0.5692 -0.6770
   82MOL0     O10722   2.129   9.153   7.429 -0.4531 -0.6377  0.9246
   82MOL0     C10723   2.022   9.068   7.417  0.2450  0.2468 -0.0586
   82MOL0     C10724   1.907   9.122   7.364  0.1063 -0.1713 -0.5793
   82MOL0     C10725   1.790   9.050   7.372  1.1009  0.0306  0.1947
   82MOL0     C10726   1.780   8.913   7.408 -0.2223 -0.5566 -0.4359
   82MOL0     O10727   1.662   8.845   7.409  0.5389  0.1138 -0.7664
   82MOL0     C10728   1.600   8.858   7.535 -0.2693  0.7480  0.6783
   82MOL0     C10729   1.444   8.858   7.542 -0.7453  0.5600 -1.1156
   82MOL0     C10730   1.388   8.973   7.450 -0.1043  0.0434  0.0533
   82MOL0     C10731   1.232   8.967   7.422 -0.4917  1.0688 -0.6482
   82MOL0     C10732   1.136   8.967   7.553  0.1394  0.2809  0.5630
   82MOL0     C10733   1.001   9.003   7.504 -0.3003  1.2287  0.1787
   82MOL0     C10734   0.897   8.974   7.616  0.6215  0.5795  0.9884
   82MOL0     C10735   0.872   9.101   7.697  0.8105 -0.1123 -0.0772
   82MOL0    Cl10736   0.699   9.099   7.778 -0.0804  0.3102 -0.0158
   82MOL0     C10737   1.902   8.850   7.435 -0.1321 -0.4115 -0.1742
   82MOL0     C10738   2.019   8.930   7.454  0.0820  0.4134 -0.4397
   82MOL0     O10739   2.267   9.028   7.565  0.0113  0.1286  0.1462
   82MOL0     C10740   2.353   9.316   7.370 -0.1070  0.2886 -0.1051
   82MOL0     C10741   2.469   9.396   7.350 -0.7307  0.6399  0.6748
   82MOL0     N10742   2.968   9.517   6.802  0.3358 -0.1661 -0.1005
   82MOL0     N10743   3.047   9.536   6.702  0.4075  0.2881  0.0136
   82MOL0     C10744   3.004   9.925   6.670  0.0703 -0.5531 -0.5852
   82MOL0     C10745   2.877   9.978   6.657  0.0151  0.5930  1.0912
   82MOL0     C10746   2.619  10.374   6.561 -0.6849 -0.2766  0.2814
   82MOL0     C10747   2.535  10.316   6.472  0.2200 -0.3572  0.8143
   82MOL0     C10748   2.445  10.393   6.394 -0.3494  0.3822 -0.5266
   82MOL0     C10749   2.454  10.524   6.396  0.5821 -0.1968  0.6949
   82MOL0     O10750   2.388  10.607   6.310 -0.2236 -0.4644 -0.0448
   82MOL0     C10751   2.347  10.545   6.188 -0.4783  0.3224  0.0001
   82MOL0     C10752   2.312  10.661   6.092 -0.0739 -0.9108  0.0443
   82MOL0     C10753   2.179  10.731   6.134 -0.3513 -0.7379  1.4715
   82MOL0     C10754   2.148  10.847   6.034  0.4189  0.2828  1.0870
   82MOL0     C10755   2.232  10.960   6.062 -0.4298  0.4397  0.3216
   82MOL0     C10756   2.303  11.053   6.059  0.2857  0.8064 -0.2890
   82MOL0     C10757   2.538  10.586   6.489 -0.7875  0.2033  0.1116
   82MOL0     C10758   2.630  10.508   6.555  0.1066  0.2092  0.4645
   82MOL0     H10759   2.938  10.234   6.440  0.5217  1.4351  1.5543
   82MOL0     H10760   3.180  10.121   6.461 -1.1088  0.6730 -0.7502
   82MOL0     H10761   3.287   9.844   6.778  0.1656 -2.0430 -0.9747
   82MOL0     H10762   3.286  10.023   6.762 -0.3519 -0.6981 -0.6022
   82MOL0     H10763   3.499   9.948   6.773 -0.8701  2.3426 -0.1300
   82MOL0     H10764   3.464  10.032   6.620 -1.6963 -0.0518 -2.2724
   82MOL0     H10765   3.617   9.844   6.572  0.6891 -2.7460 -1.0439
   82MOL0     H10766   3.453   9.828   6.492 -1.1330 -1.9190  1.8783
   82MOL0     H10767   3.593   9.645   6.663  0.8889  1.1904 -2.3582
   82MOL0     H10768   3.450   9.698   6.753  2.4531  0.3094  0.8144
   82MOL0     H10769   3.438   9.578   6.482 -0.8087 -3.8528  0.4185
   82MOL0     H10770   3.303   9.661   6.550  0.1229  0.4269  1.6081
   82MOL0     H10771   3.312   9.490   6.728  0.7870  5.3625 -0.7512
   82MOL0     H10772   3.463   9.425   6.671 -1.1297 -1.5035  0.4953
   82MOL0     H10773   3.353   9.349   6.464 -3.7152 -0.7595 -2.3837
   82MOL0     H10774   3.282   9.266   6.601  1.8187  0.8888  0.9701
   82MOL0     H10775   3.099   9.325   6.476  1.1253 -0.4593 -1.6367
   82MOL0     H10776   3.151   9.498   6.472  3.5137 -0.1504  0.0964
   82MOL0     H10777   3.052   9.209   6.715  3.3914  0.9892 -0.6840
   82MOL0     H10778   2.913   9.202   6.926  2.2754 -0.3312 -3.5726
   82MOL0     H10779   2.769   9.300   6.861  1.6756  3.4828 -2.2950
   82MOL0     H10780   2.762   9.448   7.026  0.4972  2.6028  0.3133
   82MOL0     H10781   2.947   9.447   7.048  1.6906 -1.8470  0.6178
   82MOL0     H10782   2.736   9.240   7.138  0.9634 -0.9033  0.0151
   82MOL0     H10783   2.897   9.213   7.148  0.0407 -0.8817 -0.3357
   82MOL0     H10784   2.914   9.432   7.309 -0.9570  0.0278  0.3265
   82MOL0     H10785   2.847   9.287   7.372  0.4101 -1.0194 -0.9625
   82MOL0     H10786   2.703   9.164   7.463  1.7030  1.1878 -0.9685
   82MOL0     H10787   2.500   9.061   7.529  0.3673  0.7575  0.1408
   82MOL0     H10788   1.907   9.225   7.329 -1.4460  0.3810  0.9242
   82MOL0     H10789   1.699   9.106   7.353  1.0436 -0.5777 -1.4813
   82MOL0     H10790   1.632   8.949   7.587 -2.3491  1.2393  1.1900
   82MOL0     H10791   1.624   8.772   7.598 -1.7862 -1.4578 -1.5620
   82MOL0     H10792   1.427   8.869   7.649  1.3641 -1.4241 -0.4919
   82MOL0     H10793   1.407   8.759   7.511 -4.7249  1.1905  0.9291
   82MOL0     H10794   1.436   8.973   7.352  0.8695 -0.5555  0.5170
   82MOL0     H10795   1.407   9.071   7.496 -0.6209  0.2170 -0.0983
   82MOL0     H10796   1.210   9.051   7.357 -0.3351 -0.4906 -2.8213
   82MOL0     H10797   1.215   8.878   7.360  1.6213  0.4243 -0.3752
   82MOL0     H10798   1.178   9.034   7.629  1.3899 -0.1025  0.2308
   82MOL0     H10799   1.150   8.863   7.582  2.2782  0.1077 -0.8454
   82MOL0     H10800   0.980   8.946   7.413 -0.5561 -1.4530  1.8137
   82MOL0     H10801   0.989   9.110   7.482 -3.2595  2.0095  4.4332
   82MOL0     H10802   0.806   8.950   7.560 -0.4712  0.2056  2.8275
   82MOL0     H10803   0.910   8.885   7.678 -0.3438 -0.4619 -0.2670
   82MOL0     H10804   0.881   9.189   7.634  1.0574 -0.4537 -0.5216
   82MOL0     H10805   0.950   9.111   7.773  1.5664  1.1446 -0.9881
   82MOL0     H10806   1.914   8.747   7.467 -0.3275 -0.4147 -0.1102
   82MOL0     H10807   2.110   8.888   7.495  0.7014  0.2557 -1.8932
   82MOL0     H10808   2.256   9.363   7.352  1.1304  2.9042 -0.4575
   82MOL0     H10809   2.473   9.495   7.306 -4.4796 -0.5787 -3.1130
   82MOL0     H10810   3.026   9.847   6.742 -1.4883  1.3092  2.1017
   82MOL0     H10811   2.784   9.930   6.688 -2.9681  4.8350 -0.3174
   82MOL0     H10812   2.530  10.208   6.470  5.5521 -0.8458 -0.4581
   82MOL0     H10813   2.375  10.345   6.326  0.7736 -0.0209 -1.4203
   82MOL0     H10814   2.250  10.498   6.211 -1.5163  1.8642 -0.9989
   82MOL0     H10815   2.415  10.470   6.149 -1.1770 -0.7957  0.8706
   82MOL0     H10816   2.389  10.738   6.100  1.5488 -2.0810 -2.8602
   82MOL0     H10817   2.314  10.624   5.990 -2.3494 -1.4759  0.1500
   82MOL0     H10818   2.197  10.776   6.232  0.3242 -0.4772  1.2351
   82MOL0     H10819   2.101  10.654   6.125 -0.6010 -0.5420  1.9421
   82MOL0     H10820   2.171  10.809   5.934 -0.0310 -2.7861  2.0455
   82MOL0     H10821   2.042  10.874   6.030  0.1521 -0.8362 -1.3323
   82MOL0     H10822   2.371  11.132   6.035  1.6558 -0.1036  0.4907
   82MOL0     H10823   2.560  10.692   6.500  0.6166 -0.0056 -0.5731
   82MOL0     H10824   2.700  10.559   6.621 -1.1671 -2.0994  3.8987
   83MOL0     O10825   9.778   9.676  10.040 -0.1383  0.0212  1.4803
   83MOL0     C10826   9.835   9.587  10.103 -0.3979 -1.2108  1.7143
   83MOL0     O10827   9.964   9.554  10.080  0.5158  0.0939  0.0753
   83MOL0     C10828  10.037   9.654  10.012  0.4637 -0.0313  1.1049
   83MOL0     C10829  10.045   9.675   9.878  0.2405 -0.0669 -0.1479
   83MOL0     C10830  10.136   9.767   9.825  0.6912 -0.2293 -0.0216
   83MOL0     C10831  10.239   9.830   9.901  1.4363  0.8918  0.0898
   83MOL0     O10832  10.344   9.884   9.833  1.0125 -0.4509 -0.1401
   83MOL0     C10833  10.423   9.973   9.912  0.0884 -0.2016  0.0748
   83MOL0     C10834  10.559  10.011   9.828  0.7708  0.5140 -0.4514
   83MOL0     C10835  10.529  10.126   9.731  0.4475  0.5961 -1.2684
   83MOL0     C10836  10.658  10.201   9.704  0.4637  0.6990 -0.2619
   83MOL0     C10837  10.663  10.274   9.568 -0.1583 -0.0636  0.1892
   83MOL0     C10838  10.810  10.316   9.575  0.5640 -0.2284  0.2474
   83MOL0     C10839  10.840  10.401   9.453  0.6918  0.7115  0.0365
   83MOL0     C10840  10.773  10.551   9.451 -0.1604 -0.1389 -0.0356
   83MOL0     N10841  10.756  10.593   9.318 -0.1887 -0.0557  0.5822
   83MOL0     C10842  10.649  10.575   9.232 -0.6510  0.4410  0.6392
   83MOL0     C10843  10.687  10.624   9.109 -1.2212 -0.1924  0.3153
   83MOL0     C10844  10.592  10.628   8.986 -0.3975  0.0659  0.0670
   83MOL0     C10845  10.501  10.750   8.991  0.0107 -0.2763 -0.7300
   83MOL0     C10846  10.376  10.734   8.914 -0.1153 -0.1283  0.7346
   83MOL0     C10847  10.406  10.779   8.769 -0.1083 -0.2511  0.0577
   83MOL0     O10848  10.460  10.912   8.743  0.4100 -0.7110  0.1331
   83MOL0     C10849  10.476  10.956   8.614 -0.0448  0.5151 -0.5606
   83MOL0     C10850  10.451  10.878   8.498 -0.4188  0.4092 -0.7452
   83MOL0     C10851  10.461  10.933   8.372  0.0010  0.7268  0.1040
   83MOL0     C10852  10.503  11.068   8.352  0.5229  0.2852 -0.5689
   83MOL0     C10853  10.514  11.115   8.212 -0.2651  0.2834  0.0745
   83MOL0     O10854  10.500  11.034   8.097  0.4214  0.0244 -0.3921
   83MOL0     C10855  10.482  11.102   7.983  0.0656  1.2215 -0.5915
   83MOL0     C10856  10.571  11.080   7.879 -0.8564  0.0143 -1.2629
   83MOL0     C10857  10.549  11.128   7.753  0.3659 -0.3151  0.6266
   83MOL0     C10858  10.426  11.191   7.724 -0.8902  0.1341 -0.2304
   83MOL0     O10859  10.382  11.227   7.596  0.2081  0.5010 -0.1896
   83MOL0     C10860  10.468  11.202   7.482 -0.3415  0.3783  0.0369
   83MOL0     C10861  10.380  11.230   7.361  1.0621 -1.0864 -1.3931
   83MOL0     C10862  10.456  11.206   7.234 -0.8375 -0.2017  0.3766
   83MOL0     C10863  10.377  11.245   7.102 -0.4776 -1.0782 -1.4533
   83MOL0     C10864  10.461  11.235   6.977  0.8365 -0.3119  0.4664
   83MOL0     C10865  10.388  11.246   6.848 -0.2519 -0.1639  0.2326
   83MOL0     C10866  10.490  11.223   6.740 -0.8935 -1.1006 -0.7591
   83MOL0     C10867  10.424  11.215   6.604 -1.0812  0.1035 -0.2333
   83MOL0    Cl10868  10.337  11.363   6.563 -0.2204  0.0986  0.1534
   83MOL0     C10869  10.334  11.210   7.823  0.0765  0.7505  1.0993
   83MOL0     C10870  10.360  11.168   7.955  0.3215  0.4407  0.1631
   83MOL0     O10871  10.534  11.232   8.216 -0.0071  0.5932  0.7445
   83MOL0     C10872  10.523  11.150   8.466 -1.1846 -0.0842 -1.2129
   83MOL0     C10873  10.525  11.093   8.598  0.4524 -0.7903  0.9419
   83MOL0     N10874  10.818  10.660   9.114 -0.8408  0.3300  0.2353
   83MOL0     N10875  10.863  10.635   9.238  0.0542 -0.3624  0.2812
   83MOL0     C10876  10.214   9.819  10.040 -0.2174 -0.9429 -0.9028
   83MOL0     C10877  10.110   9.738  10.097  1.1866 -1.0960  0.6274
   83MOL0     C10878   9.755   9.499  10.182 -1.1915 -0.6043  0.0406
   83MOL0     C10879   9.618   9.490  10.155 -0.4335  0.5120  0.5155
   83MOL0     C10880   9.546   9.379  10.217  1.1234 -1.8988  0.6773
   83MOL0     C10881   9.605   9.305  10.319  0.1464  0.2409  0.0461
   83MOL0     O10882   9.537   9.192  10.370  0.4559 -0.3474 -0.4793
   83MOL0     C10883   9.606   9.085  10.435  0.9135  0.2943  0.9559
   83MOL0     C10884   9.593   9.098  10.588 -0.1014 -0.1783  0.5726
   83MOL0     C10885   9.457   9.146  10.637 -0.1661  1.4561  1.2972
   83MOL0     C10886   9.418   9.125  10.786 -0.9360 -0.3906  0.0141
   83MOL0     C10887   9.482   9.005  10.852 -0.1599  0.7346  0.0967
   83MOL0     C10888   9.545   8.913  10.907  0.1743  0.2158  0.3229
   83MOL0     C10889   9.737   9.331  10.359 -0.1335 -0.3061 -0.2971
   83MOL0     C10890   9.811   9.426  10.287  0.6550  0.0348 -0.5695
   83MOL0     H10891   9.974   9.625   9.813 -1.2881 -0.9901  2.0684
   83MOL0     H10892  10.132   9.767   9.717 -0.0734 -2.8340 -0.0554
   83MOL0     H10893  10.467   9.939  10.006  2.9683 -0.8789 -1.3942
   83MOL0     H10894  10.362  10.062   9.931 -1.1957 -0.7044 -1.4286
   83MOL0     H10895  10.588   9.923   9.770  0.2899  0.2189 -0.2489
   83MOL0     H10896  10.636  10.032   9.903 -1.2026  0.7242  1.6524
   83MOL0     H10897  10.451  10.197   9.760  0.0566  0.5158 -2.1128
   83MOL0     H10898  10.489  10.087   9.637 -1.0901  0.2874 -0.5206
   83MOL0     H10899  10.671  10.272   9.786 -0.5375  0.5939  0.0030
   83MOL0     H10900  10.744  10.136   9.723  1.2329  2.1262  1.4033
   83MOL0     H10901  10.585  10.350   9.560 -1.7148 -1.7607 -1.5152
   83MOL0     H10902  10.647  10.203   9.487 -0.9168  2.0579 -1.6241
   83MOL0     H10903  10.875  10.228   9.574  1.1907  0.2068  1.1154
   83MOL0     H10904  10.827  10.379   9.663 -1.3051  0.4144  0.1950
   83MOL0     H10905  10.948  10.414   9.437  0.7354  1.5104  0.8676
   83MOL0     H10906  10.796  10.345   9.371 -3.6536  0.5278  2.2197
   83MOL0     H10907  10.815  10.624   9.521  0.1987  0.4537 -0.8469
   83MOL0     H10908  10.670  10.541   9.487 -0.3660  0.6807 -0.3701
   83MOL0     H10909  10.557  10.527   9.264  1.2914 -2.8577  1.7566
   83MOL0     H10910  10.545  10.534   8.956  1.9107 -0.6870 -1.5010
   83MOL0     H10911  10.672  10.652   8.915  0.6958 -0.9671  0.8969
   83MOL0     H10912  10.550  10.842   8.961 -1.8060 -0.3626 -4.5926
   83MOL0     H10913  10.464  10.754   9.094 -0.7466  1.8661 -1.0356
   83MOL0     H10914  10.341  10.630   8.911 -0.9517  0.1386  0.8538
   83MOL0     H10915  10.301  10.798   8.962  0.1443 -0.8735  2.1914
   83MOL0     H10916  10.316  10.763   8.709 -2.4135  0.8791  2.9743
   83MOL0     H10917  10.467  10.703   8.718 -1.4929 -0.6087 -1.1382
   83MOL0     H10918  10.424  10.773   8.492  0.6586  0.1456 -1.1240
   83MOL0     H10919  10.460  10.873   8.282  0.5325 -0.2378  0.7219
   83MOL0     H10920  10.661  11.024   7.901 -0.8506 -0.0898 -1.5416
   83MOL0     H10921  10.617  11.110   7.670  1.3818  1.4627  1.0251
   83MOL0     H10922  10.501  11.098   7.472  2.0872  1.2121 -1.4633
   83MOL0     H10923  10.553  11.269   7.470  0.6955 -1.1503 -1.8568
   83MOL0     H10924  10.337  11.330   7.354  0.0664 -1.2422  1.4594
   83MOL0     H10925  10.291  11.167   7.370  2.1747 -2.4848  0.3988
   83MOL0     H10926  10.490  11.104   7.212 -3.4816 -1.0552 -0.1128
   83MOL0     H10927  10.546  11.265   7.251  1.2379 -3.3384  1.2580
   83MOL0     H10928  10.292  11.177   7.091 -0.6694 -1.0992  0.0323
   83MOL0     H10929  10.333  11.345   7.117  0.4746 -1.0760  2.4426
   83MOL0     H10930  10.503  11.135   6.986 -0.0167 -0.8294 -0.8831
   83MOL0     H10931  10.527  11.322   6.980 -3.0943  3.0160 -0.0183
   83MOL0     H10932  10.348  11.348   6.839 -3.5556 -1.4662 -1.5819
   83MOL0     H10933  10.308  11.173   6.837 -0.8378  0.7771 -2.8323
   83MOL0     H10934  10.558  11.309   6.738 -0.8263 -1.1450 -0.4358
   83MOL0     H10935  10.541  11.128   6.760  0.5012 -0.0675  0.8978
   83MOL0     H10936  10.361  11.126   6.599 -0.1442 -0.6672  0.9794
   83MOL0     H10937  10.499  11.204   6.526 -0.8672 -1.0230  0.1147
   83MOL0     H10938  10.243  11.249   7.779  1.3644  0.4623 -2.0986
   83MOL0     H10939  10.284  11.175   8.032  1.7204  0.4867  1.6055
   83MOL0     H10940  10.556  11.253   8.453 -0.9706 -0.2450 -2.0030
   83MOL0     H10941  10.560  11.153   8.681  1.3558  1.2978 -0.8528
   83MOL0     H10942  10.270   9.858  10.125 -1.2595 -1.7628  0.1977
   83MOL0     H10943  10.088   9.725  10.203  1.7267 -2.5473  0.5890
   83MOL0     H10944   9.562   9.558  10.092 -0.4580 -1.5373 -1.8236
   83MOL0     H10945   9.442   9.378  10.185  2.3870 -1.1025 -4.2428
   83MOL0     H10946   9.705   9.080  10.390 -0.7182 -0.7934 -2.9446
   83MOL0     H10947   9.557   8.991  10.405  0.9662  0.8684 -1.0762
   83MOL0     H10948   9.602   8.994  10.621 -0.3779 -0.8655 -1.3424
   83MOL0     H10949   9.676   9.140  10.645  0.9078  1.1587 -1.7432
   83MOL0     H10950   9.376   9.099  10.580  0.7129  2.7614 -1.1977
   83MOL0     H10951   9.437   9.252  10.618  0.1197  1.1933 -0.7354
   83MOL0     H10952   9.432   9.218  10.842 -4.7752 -0.2219  0.9352
   83MOL0     H10953   9.309   9.117  10.781 -1.4583  3.9243  0.6279
   83MOL0     H10954   9.587   8.837  10.970 -1.6486 -3.2303 -2.2442
   83MOL0     H10955   9.775   9.286  10.450 -1.2163 -0.0760  0.2840
   83MOL0     H10956   9.910   9.458  10.318  0.6355  1.9033 -2.2437
   84MOL0     O10957   9.151   6.815   4.570 -0.3551 -0.5607 -0.0314
   84MOL0     C10958   9.190   6.776   4.460 -0.5353  0.4184 -0.2344
   84MOL0     O10959   9.201   6.646   4.427 -0.8560 -0.2419 -0.0251
   84MOL0     C10960   9.243   6.562   4.528 -0.0530  0.1641 -0.0386
   84MOL0     C10961   9.318   6.590   4.645 -0.1561  0.4632 -0.8454
   84MOL0     C10962   9.355   6.487   4.731  0.7087 -1.0897  0.2295
   84MOL0     C10963   9.310   6.360   4.712 -0.4512  1.0029  0.1831
   84MOL0     O10964   9.363   6.253   4.773  0.3807  1.0594  0.0420
   84MOL0     C10965   9.367   6.259   4.919  1.2124  0.0796  0.4383
   84MOL0     C10966   9.234   6.316   4.977  0.1832 -0.1104  0.0159
   84MOL0     C10967   9.115   6.228   4.954  0.7557  0.5870 -0.8150
   84MOL0     C10968   9.123   6.091   5.011 -1.0907 -0.2196  0.0349
   84MOL0     C10969   9.118   6.080   5.159  0.2033 -0.6324  0.4088
   84MOL0     C10970   9.085   5.939   5.206 -0.2451 -0.5815  0.5224
   84MOL0     C10971   9.037   5.949   5.355  0.9498  0.3192 -0.2536
   84MOL0     C10972   9.138   5.992   5.460  0.4569  0.4478  0.3649
   84MOL0     N10973   9.072   5.982   5.590 -0.0277  0.1647  0.6709
   84MOL0     C10974   9.076   5.882   5.675 -0.3840  0.2151  0.9014
   84MOL0     C10975   8.983   5.913   5.775  0.5622 -0.0301 -1.2544
   84MOL0     C10976   8.936   5.826   5.894 -0.5549 -0.1096  0.2873
   84MOL0     C10977   8.870   5.698   5.852  0.1563 -0.9510  1.0214
   84MOL0     C10978   8.922   5.574   5.928 -0.0057 -0.4131 -0.5310
   84MOL0     C10979   8.865   5.449   5.877 -0.7747  0.5486 -0.2383
   84MOL0     O10980   8.729   5.468   5.850 -0.3820 -0.0536 -0.0648
   84MOL0     C10981   8.642   5.369   5.814  0.4409  0.2331 -0.2726
   84MOL0     C10982   8.511   5.409   5.810  0.1170 -0.4371  0.6974
   84MOL0     C10983   8.414   5.313   5.782  0.5721  0.9115 -0.2528
   84MOL0     C10984   8.442   5.177   5.765  0.5282 -0.3542 -0.2445
   84MOL0     C10985   8.338   5.079   5.742 -0.1192 -1.2594 -0.1608
   84MOL0     O10986   8.213   5.134   5.721 -0.1470 -0.3864  0.5879
   84MOL0     C10987   8.102   5.060   5.725 -0.0100  0.7096 -0.4050
   84MOL0     C10988   8.056   4.997   5.841 -0.1058 -0.6095  0.7581
   84MOL0     C10989   7.930   4.936   5.851 -0.1891 -0.8262  0.5529
   84MOL0     C10990   7.836   4.957   5.745 -0.8845  0.4853  0.5559
   84MOL0     O10991   7.703   4.921   5.761 -0.4165  0.8447 -0.2396
   84MOL0     C10992   7.622   4.899   5.643  0.1677 -0.2499  0.5434
   84MOL0     C10993   7.484   4.847   5.693  0.1492 -1.5485 -0.2093
   84MOL0     C10994   7.422   4.955   5.794 -0.2946 -0.2410 -0.7812
   84MOL0     C10995   7.284   4.919   5.845  0.2939 -0.9590  0.7642
   84MOL0     C10996   7.267   4.796   5.931 -0.1924 -0.5687 -0.7168
   84MOL0     C10997   7.117   4.777   5.962  0.3499 -0.2226 -0.6623
   84MOL0     C10998   7.103   4.657   6.059 -0.1260 -0.7266 -0.0031
   84MOL0     C10999   7.120   4.520   5.981 -0.4027 -0.3919 -0.7088
   84MOL0    Cl11000   6.980   4.501   5.874 -0.2577  0.2130 -0.1806
   84MOL0     C11001   7.889   5.016   5.626  0.2635 -0.1621  0.1741
   84MOL0     C11002   8.017   5.065   5.619  0.5667 -0.9624  0.5234
   84MOL0     O11003   8.360   4.959   5.758  0.8537  0.1754  0.3004
   84MOL0     C11004   8.582   5.146   5.766  0.2820 -0.5365  0.3572
   84MOL0     C11005   8.682   5.242   5.786  0.1594 -1.4159 -0.7273
   84MOL0     N11006   8.920   6.035   5.744 -0.8203 -0.5141 -0.2947
   84MOL0     N11007   8.981   6.076   5.631 -0.4636 -0.4308 -0.5166
   84MOL0     C11008   9.221   6.331   4.620  1.0266 -0.7202  0.0181
   84MOL0     C11009   9.190   6.430   4.521 -0.0883 -0.2193  0.5879
   84MOL0     C11010   9.211   6.878   4.354 -0.3752 -0.3753  0.6059
   84MOL0     C11011   9.307   6.855   4.257  1.0022 -0.3129  0.7907
   84MOL0     C11012   9.318   6.948   4.145  0.2407 -0.5301 -0.4417
   84MOL0     C11013   9.240   7.064   4.148 -0.5095  1.3117  0.3815
   84MOL0     O11014   9.251   7.147   4.040 -0.1262 -0.2020 -0.7541
   84MOL0     C11015   9.169   7.268   4.032 -1.0039 -0.5025  0.3785
   84MOL0     C11016   9.154   7.300   3.882  0.2644  0.0565  0.6574
   84MOL0     C11017   9.114   7.444   3.848  0.0801 -0.3500  0.7896
   84MOL0     C11018   8.964   7.463   3.877  0.9733  0.5969 -0.1311
   84MOL0     C11019   8.945   7.518   4.009  0.4460 -0.7454 -0.3662
   84MOL0     C11020   8.921   7.561   4.120 -0.5189 -0.3719 -0.1642
   84MOL0     C11021   9.149   7.085   4.254 -0.7559  0.1359 -0.0744
   84MOL0     C11022   9.138   6.993   4.357  0.2353 -0.0835  0.7039
   84MOL0     H11023   9.368   6.686   4.655  1.0696  0.1173 -3.1216
   84MOL0     H11024   9.425   6.523   4.806  1.2652  0.1428 -0.8496
   84MOL0     H11025   9.456   6.311   4.957  0.9861  0.4909  0.4157
   84MOL0     H11026   9.389   6.162   4.964  2.1640 -0.4087 -1.0274
   84MOL0     H11027   9.211   6.420   4.950 -1.3416 -0.7086 -1.1272
   84MOL0     H11028   9.250   6.326   5.085 -0.6437 -1.8017  0.3321
   84MOL0     H11029   9.082   6.233   4.850 -0.2155  0.4995 -0.5260
   84MOL0     H11030   9.041   6.278   5.017  1.2786 -2.5024  2.5493
   84MOL0     H11031   9.045   6.032   4.963 -2.1284  2.0013 -1.1798
   84MOL0     H11032   9.214   6.039   4.981 -0.3757 -0.5447  2.5107
   84MOL0     H11033   9.046   6.157   5.190 -2.1687 -1.5475 -2.3626
   84MOL0     H11034   9.213   6.109   5.206 -0.4848  0.5903  1.1042
   84MOL0     H11035   9.176   5.878   5.209  0.5467  0.4027 -1.5453
   84MOL0     H11036   9.005   5.897   5.146  1.7192  0.1978 -2.9056
   84MOL0     H11037   8.947   6.011   5.363  2.4764  2.6754 -0.3229
   84MOL0     H11038   9.010   5.849   5.391 -0.5145  1.4933  2.1978
   84MOL0     H11039   9.162   6.097   5.444 -0.3615  0.6346  0.3069
   84MOL0     H11040   9.221   5.921   5.463  0.6983  0.6811 -0.6772
   84MOL0     H11041   9.144   5.798   5.671  1.0622  1.3786 -0.4152
   84MOL0     H11042   8.872   5.879   5.965 -2.4995  2.0493 -2.8611
   84MOL0     H11043   9.033   5.800   5.938 -0.0303 -1.8475 -1.6824
   84MOL0     H11044   8.896   5.678   5.747 -1.6258  1.2922  0.0608
   84MOL0     H11045   8.765   5.726   5.852  0.4888  0.4304 -0.1004
   84MOL0     H11046   9.031   5.570   5.933 -0.0920 -1.4982  1.9597
   84MOL0     H11047   8.893   5.582   6.034 -1.4723 -1.7050 -0.8035
   84MOL0     H11048   8.885   5.374   5.955  0.2582 -2.7196 -3.3814
   84MOL0     H11049   8.905   5.416   5.781 -1.4440  0.4614 -0.4938
   84MOL0     H11050   8.485   5.510   5.837 -1.0070 -0.7467  0.8040
   84MOL0     H11051   8.310   5.342   5.786  0.3894  1.3444 -4.1332
   84MOL0     H11052   8.113   4.981   5.932  2.5901  0.7221 -0.5594
   84MOL0     H11053   7.891   4.887   5.939  0.0635 -1.4587  0.3136
   84MOL0     H11054   7.676   4.832   5.576  2.4680 -0.6870  2.6519
   84MOL0     H11055   7.603   4.988   5.582  2.7867 -0.2364 -0.3762
   84MOL0     H11056   7.484   4.754   5.751 -3.5005 -0.7877  1.2970
   84MOL0     H11057   7.406   4.837   5.617  2.1410 -2.2193 -2.2866
   84MOL0     H11058   7.422   5.051   5.741 -4.8506  0.5023  0.2123
   84MOL0     H11059   7.487   4.959   5.882 -1.5236 -4.2621  0.5512
   84MOL0     H11060   7.238   5.002   5.900 -0.3287 -0.7333 -0.0738
   84MOL0     H11061   7.215   4.905   5.761  0.8334  0.4505  0.0489
   84MOL0     H11062   7.332   4.796   6.018 -3.0388  0.1206  1.5601
   84MOL0     H11063   7.299   4.702   5.885  1.3092 -1.9490  2.8430
   84MOL0     H11064   7.057   4.747   5.876 -0.3285 -0.4864 -0.1083
   84MOL0     H11065   7.076   4.867   6.009  0.6043 -0.3036 -0.2822
   84MOL0     H11066   7.190   4.654   6.125  1.9494  0.2925 -2.5273
   84MOL0     H11067   7.015   4.661   6.124  1.4238  2.7592  2.1853
   84MOL0     H11068   7.122   4.434   6.049 -1.0830 -0.1503 -0.3744
   84MOL0     H11069   7.207   4.513   5.915  0.0845 -0.3233 -0.0841
   84MOL0     H11070   7.814   5.047   5.555  1.1943  2.9374  0.4107
   84MOL0     H11071   8.043   5.131   5.537  2.4193 -0.8455  1.1447
   84MOL0     H11072   8.597   5.039   5.766 -0.4851 -0.7797  4.2414
   84MOL0     H11073   8.787   5.214   5.782 -0.1858 -2.7988 -0.4938
   84MOL0     H11074   9.182   6.230   4.616 -0.1546 -0.3021  0.3209
   84MOL0     H11075   9.120   6.406   4.442 -1.1441  0.7178  1.2181
   84MOL0     H11076   9.386   6.781   4.258 -0.4056 -1.8825  0.7099
   84MOL0     H11077   9.400   6.936   4.075  1.7523 -2.6068  1.5296
   84MOL0     H11078   9.220   7.353   4.079 -1.1177 -0.5057  0.5075
   84MOL0     H11079   9.071   7.265   4.080 -1.1680 -0.0751  0.0767
   84MOL0     H11080   9.251   7.275   3.837  1.9351  0.7100  3.6031
   84MOL0     H11081   9.086   7.231   3.830 -1.0131  1.3848  0.5074
   84MOL0     H11082   9.126   7.460   3.741  0.8690 -1.7275  0.6412
   84MOL0     H11083   9.177   7.516   3.900 -0.3142  0.6182 -0.0468
   84MOL0     H11084   8.927   7.543   3.811  1.0796 -0.8675 -2.0811
   84MOL0     H11085   8.911   7.373   3.843  3.0184 -1.0166  0.7084
   84MOL0     H11086   8.884   7.573   4.220  1.8508 -0.0665  0.7458
   84MOL0     H11087   9.078   7.168   4.249  0.4381  1.1597 -0.4419
   84MOL0     H11088   9.063   7.008   4.433  0.1647 -0.5418  0.7291
   85MOL0     O11089   7.362  10.788   7.741 -0.9868 -0.0883  0.5600
   85MOL0     C11090   7.381  10.906   7.768  0.2848 -0.7515  0.8392
   85MOL0     O11091   7.330  11.016   7.703  0.0788  0.8470  0.5222
   85MOL0     C11092   7.273  11.002   7.584 -0.1139 -0.9492 -0.8455
   85MOL0     C11093   7.326  10.919   7.480 -0.6513  0.3300  0.3200
   85MOL0     C11094   7.260  10.914   7.359 -0.3097 -0.0388  0.2802
   85MOL0     C11095   7.134  10.963   7.342  0.1212  0.3345 -0.2244
   85MOL0     O11096   7.060  10.947   7.228 -0.2930  0.2880  0.1457
   85MOL0     C11097   7.032  10.818   7.193 -0.1950 -0.2243  0.6780
   85MOL0     C11098   7.076  10.794   7.046 -0.2003  0.1067 -1.0662
   85MOL0     C11099   7.213  10.867   7.017  0.1523 -0.2889 -0.6716
   85MOL0     C11100   7.254  10.858   6.873  0.1244  0.4412 -0.6023
   85MOL0     C11101   7.395  10.921   6.857 -0.8883  0.3136  0.7009
   85MOL0     C11102   7.445  10.913   6.710 -0.3261  0.0143 -0.2387
   85MOL0     C11103   7.559  11.017   6.691 -0.4521 -0.2560  0.4506
   85MOL0     C11104   7.631  10.981   6.552 -0.6191  0.3062  0.3177
   85MOL0     N11105   7.737  11.080   6.521 -0.4827 -0.0678 -0.0250
   85MOL0     C11106   7.857  11.053   6.468 -0.1072  0.3156 -0.6935
   85MOL0     C11107   7.909  11.177   6.430  0.6487 -0.2695 -0.7166
   85MOL0     C11108   8.048  11.209   6.376 -0.1751  0.2183 -0.3358
   85MOL0     C11109   8.136  11.289   6.485  0.7776  0.7956  0.8329
   85MOL0     C11110   8.074  11.419   6.549  0.3382 -0.5009 -0.4509
   85MOL0     C11111   8.171  11.486   6.656 -0.3907  0.0832  0.3054
   85MOL0     O11112   8.256  11.393   6.718 -1.2754  1.1461  0.0327
   85MOL0     C11113   8.222  11.336   6.839  0.6143 -0.8921  0.8376
   85MOL0     C11114   8.326  11.256   6.888  0.9026  0.1851 -0.0694
   85MOL0     C11115   8.303  11.178   7.002  0.5522  1.7648  0.0045
   85MOL0     C11116   8.185  11.202   7.083 -0.3546  0.8620  0.6516
   85MOL0     C11117   8.186  11.141   7.217  0.1440 -0.2875 -0.7034
   85MOL0     O11118   8.301  11.088   7.265  0.6337  0.2524  1.0383
   85MOL0     C11119   8.308  11.004   7.380 -0.4482  0.8730 -1.5855
   85MOL0     C11120   8.208  10.961   7.460  0.1136 -0.2678 -0.9340
   85MOL0     C11121   8.237  10.869   7.557  0.8392  0.3141  1.2223
   85MOL0     C11122   8.363  10.822   7.587 -0.7584  0.3047  0.6693
   85MOL0     O11123   8.373  10.753   7.694 -0.3082 -0.1101 -0.5411
   85MOL0     C11124   8.483  10.655   7.700 -0.1964 -0.0594 -0.4965
   85MOL0     C11125   8.464  10.570   7.829  0.5233  0.1962 -0.1219
   85MOL0     C11126   8.340  10.484   7.815  1.5304  0.3191 -0.1392
   85MOL0     C11127   8.357  10.365   7.729  0.1932 -0.2006  0.2433
   85MOL0     C11128   8.219  10.295   7.700  0.8889  1.0803  0.6244
   85MOL0     C11129   8.249  10.181   7.594 -0.2021  0.3158  0.2763
   85MOL0     C11130   8.136  10.090   7.561 -0.0037  0.0877 -0.6509
   85MOL0     C11131   8.023  10.151   7.494 -0.3673 -0.4258  0.3206
   85MOL0    Cl11132   7.927  10.034   7.420  0.4164  0.1834 -0.3011
   85MOL0     C11133   8.464  10.874   7.508 -0.2549 -0.5804 -0.1529
   85MOL0     C11134   8.443  10.969   7.405  0.5634 -0.1512  0.1017
   85MOL0     O11135   8.087  11.161   7.288 -0.5712 -0.1869  0.2290
   85MOL0     C11136   8.088  11.290   7.034  0.0528 -0.3996  0.4759
   85MOL0     C11137   8.105  11.364   6.915 -0.4534 -1.0245 -0.1838
   85MOL0     N11138   7.805  11.264   6.456 -0.1205  0.0349  1.1798
   85MOL0     N11139   7.707  11.212   6.524 -0.2280  0.8891 -0.3235
   85MOL0     C11140   7.081  11.038   7.452  0.1082 -0.1119  0.2288
   85MOL0     C11141   7.149  11.065   7.566  0.2837 -0.5396 -0.2636
   85MOL0     C11142   7.483  10.927   7.873 -0.0926  1.2940 -0.8440
   85MOL0     C11143   7.541  11.051   7.890 -1.0352  0.1049 -0.1440
   85MOL0     C11144   7.624  11.082   8.003  0.2069  0.2501  0.1642
   85MOL0     C11145   7.670  10.970   8.082 -1.3601  0.2365 -0.4145
   85MOL0     O11146   7.758  10.979   8.191  0.4188 -0.2880  0.7733
   85MOL0     C11147   7.804  11.114   8.212 -0.2276 -0.1826 -0.0388
   85MOL0     C11148   7.694  11.184   8.287  0.8484  0.7063 -0.0786
   85MOL0     C11149   7.737  11.263   8.402  0.9692 -1.1328 -0.4114
   85MOL0     C11150   7.778  11.403   8.367 -0.7329  0.3945  0.6395
   85MOL0     C11151   7.858  11.471   8.478 -1.2591 -0.3375  0.3628
   85MOL0     C11152   7.932  11.546   8.544  0.5981  0.9043  0.4127
   85MOL0     C11153   7.615  10.841   8.051 -0.6601 -0.9855 -0.9307
   85MOL0     C11154   7.517  10.821   7.956 -0.3952  0.6372  0.0138
   85MOL0     H11155   7.421  10.871   7.501  0.5978  1.9767 -1.2867
   85MOL0     H11156   7.312  10.880   7.270  1.4759  1.1347  0.8418
   85MOL0     H11157   6.926  10.791   7.193 -1.1960  2.6276 -3.7774
   85MOL0     H11158   7.083  10.741   7.253  0.6800 -1.7367 -1.8531
   85MOL0     H11159   7.000  10.815   6.970 -0.5509 -0.9198 -1.0114
   85MOL0     H11160   7.096  10.687   7.053 -0.3441  0.0660 -1.2735
   85MOL0     H11161   7.291  10.816   7.075  1.8746 -0.8040 -3.2676
   85MOL0     H11162   7.211  10.974   7.041  2.2618 -0.7843  2.3412
   85MOL0     H11163   7.256  10.752   6.844 -0.4755  0.0270  0.7789
   85MOL0     H11164   7.178  10.901   6.807 -0.6473 -1.2080 -0.8415
   85MOL0     H11165   7.465  10.869   6.923 -2.4443 -1.2740  1.1829
   85MOL0     H11166   7.385  11.023   6.895  0.1961  0.0563  1.7303
   85MOL0     H11167   7.355  10.936   6.653 -2.1666  2.6470  3.2997
   85MOL0     H11168   7.473  10.813   6.678 -3.1544 -0.0228 -3.0607
   85MOL0     H11169   7.525  11.121   6.684 -0.3266 -0.3334 -3.4488
   85MOL0     H11170   7.629  11.013   6.775 -1.0939 -1.2642  0.9579
   85MOL0     H11171   7.572  10.994   6.461  0.9566 -2.1004 -1.1734
   85MOL0     H11172   7.674  10.881   6.543  1.3829  1.3367 -4.1116
   85MOL0     H11173   7.899  10.953   6.469 -1.1371 -0.2136  2.9920
   85MOL0     H11174   8.043  11.262   6.281 -0.6335 -1.2476 -1.1581
   85MOL0     H11175   8.105  11.121   6.345  0.5334  0.9739 -1.2606
   85MOL0     H11176   8.226  11.323   6.433  0.8021  2.1479  1.7323
   85MOL0     H11177   8.172  11.220   6.562  0.5249 -0.9066 -0.4849
   85MOL0     H11178   8.049  11.490   6.470  1.5696  0.8467  0.3090
   85MOL0     H11179   7.981  11.386   6.596 -0.1812  0.1337 -1.0149
   85MOL0     H11180   8.125  11.557   6.725  2.7188  1.5328  1.0494
   85MOL0     H11181   8.236  11.550   6.597 -3.6837 -0.5870 -4.6598
   85MOL0     H11182   8.416  11.241   6.830  1.6356  1.2867  0.7366
   85MOL0     H11183   8.378  11.111   7.042 -0.8447 -0.4919 -0.9389
   85MOL0     H11184   8.105  10.994   7.459  0.5444  1.2433 -3.6900
   85MOL0     H11185   8.151  10.838   7.616  0.6138  1.0373  1.2901
   85MOL0     H11186   8.581  10.702   7.702 -0.4527  0.4689  0.3624
   85MOL0     H11187   8.487  10.592   7.611  3.2005 -0.4909 -0.1681
   85MOL0     H11188   8.446  10.640   7.911  1.4830  0.5543 -0.2046
   85MOL0     H11189   8.556  10.514   7.849 -0.0754 -1.0029 -0.6449
   85MOL0     H11190   8.259  10.535   7.762 -2.4830 -3.4715  1.6749
   85MOL0     H11191   8.311  10.449   7.915 -1.6952 -2.0685 -1.7485
   85MOL0     H11192   8.407  10.393   7.635 -0.2390 -0.3195 -0.0237
   85MOL0     H11193   8.416  10.291   7.783 -2.4441 -1.6008  1.3775
   85MOL0     H11194   8.150  10.373   7.666  2.1536  1.8511 -0.2626
   85MOL0     H11195   8.177  10.259   7.794  2.4657 -0.7395  0.6962
   85MOL0     H11196   8.312  10.113   7.651 -2.1863 -1.7222  0.2038
   85MOL0     H11197   8.285  10.222   7.499  0.9458  3.4723  1.9511
   85MOL0     H11198   8.170   9.999   7.512  1.9287 -0.3301  1.2907
   85MOL0     H11199   8.108  10.054   7.661  1.7804 -3.3791 -1.2744
   85MOL0     H11200   8.072  10.210   7.416  4.1028 -1.5524  1.9207
   85MOL0     H11201   7.965  10.218   7.558  3.2901  1.7061  1.7821
   85MOL0     H11202   8.567  10.847   7.530  1.1754  2.5339 -2.2496
   85MOL0     H11203   8.518  10.998   7.332  0.8376  0.1039  0.4808
   85MOL0     H11204   7.990  11.287   7.081 -0.6896  0.3099 -0.9836
   85MOL0     H11205   8.027  11.433   6.885 -0.1609  1.1716  3.4838
   85MOL0     H11206   6.984  11.081   7.429  0.1111 -0.8246 -1.2598
   85MOL0     H11207   7.100  11.118   7.648 -3.1122 -0.2668 -2.2934
   85MOL0     H11208   7.513  11.133   7.824 -0.3273 -0.4633 -1.1918
   85MOL0     H11209   7.674  11.178   8.014 -0.4892  0.5091  1.2363
   85MOL0     H11210   7.845  11.172   8.128 -2.0757  0.8307 -0.2831
   85MOL0     H11211   7.895  11.087   8.267  0.1266  0.0970 -0.4733
   85MOL0     H11212   7.642  11.249   8.215 -1.1619 -1.0157 -0.2597
   85MOL0     H11213   7.621  11.114   8.327 -1.1593  1.6240 -1.8891
   85MOL0     H11214   7.823  11.215   8.449  0.4276  1.0791  3.2484
   85MOL0     H11215   7.664  11.266   8.483 -1.5120 -2.7633 -2.4082
   85MOL0     H11216   7.843  11.390   8.280  2.8961 -3.2782  3.4688
   85MOL0     H11217   7.684  11.454   8.345 -0.2010  0.9558 -0.3868
   85MOL0     H11218   8.002  11.606   8.599  1.3683 -0.6958  1.2554
   85MOL0     H11219   7.647  10.766   8.122 -2.4290  0.1429  1.1977
   85MOL0     H11220   7.482  10.719   7.942  2.6961 -0.2321 -2.3610
   86MOL0     O11221   8.674  10.432   2.870 -0.3285 -0.4190  0.3974
   86MOL0     C11222   8.598  10.357   2.927  0.3761 -0.3522  0.4376
   86MOL0     O11223   8.634  10.290   3.037 -0.2749  0.2240  0.2330
   86MOL0     C11224   8.757  10.328   3.091 -1.7311 -0.9112  0.1612
   86MOL0     C11225   8.772  10.434   3.188  0.3686 -0.2382  0.1344
   86MOL0     C11226   8.897  10.466   3.235 -0.6441 -0.8572  0.1016
   86MOL0     C11227   9.006  10.391   3.197 -0.9773  0.5699  1.0820
   86MOL0     O11228   9.125  10.433   3.260 -0.1151 -0.4704  0.1663
   86MOL0     C11229   9.242  10.359   3.243 -0.9516  0.6967  0.6782
   86MOL0     C11230   9.318  10.409   3.367  1.1283 -0.6469  0.8917
   86MOL0     C11231   9.451  10.333   3.375  0.0026 -0.0600 -0.2581
   86MOL0     C11232   9.554  10.387   3.487 -0.1328 -0.0659  0.8173
   86MOL0     C11233   9.669  10.287   3.505 -0.9391 -0.2666  0.3105
   86MOL0     C11234   9.636  10.188   3.624  0.7381 -0.2177 -0.0862
   86MOL0     C11235   9.737  10.074   3.628  0.0339 -0.9329 -0.4204
   86MOL0     C11236   9.877  10.103   3.679  0.9622  0.8726 -0.8545
   86MOL0     N11237   9.957  10.172   3.588 -0.1044  0.3652 -0.0922
   86MOL0     C11238  10.000  10.304   3.607  0.0446  0.7607 -0.4795
   86MOL0     C11239  10.072  10.336   3.496  0.9893  0.0905  0.2539
   86MOL0     C11240  10.140  10.458   3.449 -0.2870  0.0935  0.2612
   86MOL0     C11241  10.048  10.547   3.366 -0.0718  0.3923  0.4624
   86MOL0     C11242  10.114  10.652   3.267  0.1506 -0.3090 -0.4137
   86MOL0     C11243  10.266  10.678   3.301  0.3595 -0.5273  0.6875
   86MOL0     O11244  10.322  10.774   3.207  0.2868 -0.3180  0.4184
   86MOL0     C11245  10.445  10.837   3.219  0.3325 -0.7335 -0.2486
   86MOL0     C11246  10.479  10.947   3.135  0.7904 -0.9428  0.7076
   86MOL0     C11247  10.587  11.025   3.166  0.1473  0.5816  0.1067
   86MOL0     C11248  10.673  10.996   3.278 -0.1263 -0.0710  0.9045
   86MOL0     C11249  10.799  11.081   3.298  0.2471  0.2230  0.6647
   86MOL0     O11250  10.788  11.209   3.257 -0.0329  0.4440  0.1437
   86MOL0     C11251  10.889  11.301   3.274  0.5872 -0.3470 -0.1862
   86MOL0     C11252  10.977  11.340   3.167  0.2682 -0.8540 -0.2705
   86MOL0     C11253  11.068  11.454   3.187  0.4217  1.5430  0.3681
   86MOL0     C11254  11.066  11.521   3.308  0.1602 -0.6690 -0.1512
   86MOL0     O11255  11.155  11.625   3.319  0.3242  0.1301 -0.5814
   86MOL0     C11256  11.259  11.596   3.413  0.1147  0.5424 -0.2886
   86MOL0     C11257  11.300  11.730   3.497 -1.4023 -0.7441  0.0103
   86MOL0     C11258  11.407  11.693   3.610  0.2472  0.4177  1.2254
   86MOL0     C11259  11.529  11.636   3.540 -0.0253  0.1736 -0.1945
   86MOL0     C11260  11.640  11.601   3.637 -0.0050  0.8353  0.2276
   86MOL0     C11261  11.625  11.465   3.722  0.0976  0.6434  0.0446
   86MOL0     C11262  11.604  11.325   3.650  0.0545 -0.4014 -0.0281
   86MOL0     C11263  11.717  11.230   3.679  0.1206 -0.1564  0.3967
   86MOL0    Cl11264  11.878  11.266   3.597  0.3604 -0.8158  0.0294
   86MOL0     C11265  10.985  11.481   3.413 -0.0932  0.2246 -0.3940
   86MOL0     C11266  10.897  11.374   3.390 -0.9582 -0.0538 -0.6016
   86MOL0     O11267  10.885  11.030   3.366 -0.0447  0.4125 -0.1245
   86MOL0     C11268  10.644  10.888   3.357  0.6332  0.3901  0.1877
   86MOL0     C11269  10.531  10.810   3.333  0.4808 -0.6782 -0.3385
   86MOL0     N11270  10.081  10.219   3.421  0.3166 -0.5630  0.7700
   86MOL0     N11271  10.011  10.129   3.469  0.0773  0.0181  0.1577
   86MOL0     C11272   9.001  10.290   3.108  0.6869  0.0734  0.2979
   86MOL0     C11273   8.871  10.256   3.060 -0.2007  0.7279 -1.0350
   86MOL0     C11274   8.460  10.336   2.865 -0.4737 -0.8871 -0.8955
   86MOL0     C11275   8.377  10.235   2.920  0.0220 -0.1009  1.1594
   86MOL0     C11276   8.256  10.197   2.854  0.5949  0.5642 -0.8879
   86MOL0     C11277   8.210  10.266   2.739 -0.5996 -0.8980 -1.0556
   86MOL0     O11278   8.092  10.224   2.686 -0.2757  0.4294  0.0149
   86MOL0     C11279   8.024  10.305   2.596 -0.6164 -0.4449  0.5914
   86MOL0     C11280   7.891  10.223   2.559  0.8401 -0.0215  0.1492
   86MOL0     C11281   7.915  10.106   2.461  0.2064 -0.4330 -0.4813
   86MOL0     C11282   7.781  10.042   2.456  0.2883 -0.7594  0.5123
   86MOL0     C11283   7.782   9.921   2.373 -0.3520  0.2336  0.1738
   86MOL0     C11284   7.800   9.814   2.310  0.5892 -0.4543  0.2411
   86MOL0     C11285   8.296  10.370   2.687  0.4769  0.2164  0.3946
   86MOL0     C11286   8.412  10.406   2.754  0.5391 -0.7947 -0.2047
   86MOL0     H11287   8.688  10.479   3.241  0.7425 -2.6362  3.0136
   86MOL0     H11288   8.908  10.540   3.315 -3.3238 -0.6728  0.3842
   86MOL0     H11289   9.299  10.382   3.154  1.3403 -1.6839  1.4036
   86MOL0     H11290   9.227  10.251   3.256  0.0725  0.8549  4.4087
   86MOL0     H11291   9.252  10.402   3.454  1.2289  1.4565  1.1891
   86MOL0     H11292   9.335  10.517   3.363 -0.5208 -0.3748  0.5400
   86MOL0     H11293   9.482  10.340   3.270 -1.4542  0.8163 -0.6586
   86MOL0     H11294   9.417  10.232   3.400  0.6638 -0.4177 -0.7605
   86MOL0     H11295   9.600  10.477   3.445  0.9089 -1.3140 -0.8276
   86MOL0     H11296   9.507  10.406   3.584 -0.0986 -0.1498  0.8507
   86MOL0     H11297   9.759  10.342   3.536 -3.3519  2.6566  2.7752
   86MOL0     H11298   9.705  10.233   3.417  4.2619  3.3351 -0.2543
   86MOL0     H11299   9.538  10.140   3.610 -0.0805  0.0723  3.7313
   86MOL0     H11300   9.626  10.248   3.715 -1.9695  1.3731 -1.2977
   86MOL0     H11301   9.695  10.000   3.697  0.9688 -2.0220 -0.9896
   86MOL0     H11302   9.746  10.022   3.533  3.9423 -0.8889 -0.2404
   86MOL0     H11303   9.929  10.011   3.708  2.1138  1.5793 -0.5905
   86MOL0     H11304   9.863  10.153   3.776 -2.6948 -1.1854 -0.1285
   86MOL0     H11305   9.980  10.369   3.692  2.1974  0.9646 -0.0583
   86MOL0     H11306  10.224  10.425   3.386  1.8466  0.1664  2.8578
   86MOL0     H11307  10.174  10.516   3.535 -3.2574  1.3006  0.7376
   86MOL0     H11308   9.986  10.583   3.448  0.3024  0.8151  0.5600
   86MOL0     H11309   9.982  10.489   3.300  2.0747  0.7621 -2.1714
   86MOL0     H11310  10.112  10.612   3.165 -1.8529 -2.9381  0.5261
   86MOL0     H11311  10.053  10.743   3.261  3.5497  2.0718 -1.8686
   86MOL0     H11312  10.325  10.586   3.288 -1.0384 -1.4305  0.5389
   86MOL0     H11313  10.274  10.708   3.406 -3.1011 -4.3459  2.3122
   86MOL0     H11314  10.417  10.966   3.048 -0.6946 -1.3925  1.6283
   86MOL0     H11315  10.623  11.104   3.100  1.5979  1.4741  1.8829
   86MOL0     H11316  10.964  11.285   3.074 -1.6900 -1.2752  0.2056
   86MOL0     H11317  11.137  11.491   3.112 -1.4286  3.2733 -0.5885
   86MOL0     H11318  11.353  11.566   3.366  2.1187 -0.1401  3.6860
   86MOL0     H11319  11.226  11.521   3.486  0.5579 -0.8316 -1.4554
   86MOL0     H11320  11.216  11.770   3.554 -0.5088  0.8947  0.2292
   86MOL0     H11321  11.326  11.810   3.427  1.7428 -2.7684 -1.3903
   86MOL0     H11322  11.366  11.613   3.672  2.1106 -0.2558  1.6451
   86MOL0     H11323  11.435  11.778   3.672  1.6880  0.3346  0.7199
   86MOL0     H11324  11.488  11.545   3.496 -0.5355  0.3330 -0.0554
   86MOL0     H11325  11.571  11.708   3.469  2.3518  0.9999  1.9056
   86MOL0     H11326  11.692  11.668   3.706  1.4186  1.2266 -1.1662
   86MOL0     H11327  11.712  11.566   3.563 -0.3424 -2.4140  1.2584
   86MOL0     H11328  11.547  11.487   3.796  0.6443  4.5816 -0.3140
   86MOL0     H11329  11.722  11.459   3.773  0.9702  1.2280 -1.4753
   86MOL0     H11330  11.517  11.294   3.707  0.6102  1.3481  1.8954
   86MOL0     H11331  11.594  11.324   3.541 -0.2615  1.5822 -0.0682
   86MOL0     H11332  11.671  11.137   3.644 -2.4040  0.9110  0.6756
   86MOL0     H11333  11.736  11.221   3.786  0.8477 -3.7984  0.1131
   86MOL0     H11334  10.978  11.527   3.511  1.2179 -1.1028  0.3596
   86MOL0     H11335  10.836  11.327   3.466 -1.1143  0.6048 -0.3224
   86MOL0     H11336  10.707  10.875   3.445 -0.9899  3.5355  1.9757
   86MOL0     H11337  10.499  10.743   3.412 -1.7103  0.4080 -0.2148
   86MOL0     H11338   9.089  10.232   3.082  0.7146 -0.2617  1.1102
   86MOL0     H11339   8.867  10.181   2.981  1.5266  0.4939 -0.9453
   86MOL0     H11340   8.401  10.180   3.010 -3.1350  0.8225  2.7182
   86MOL0     H11341   8.190  10.119   2.891 -0.3817  1.1941 -1.2456
   86MOL0     H11342   8.078  10.303   2.500 -0.8163 -5.9599  0.2656
   86MOL0     H11343   8.018  10.409   2.630  0.9679  0.0727 -0.5665
   86MOL0     H11344   7.847  10.177   2.647 -1.8474  2.2109  0.0772
   86MOL0     H11345   7.820  10.298   2.524  1.9291  0.8206 -0.3496
   86MOL0     H11346   7.990  10.038   2.503  0.1190  0.3901  1.1072
   86MOL0     H11347   7.943  10.128   2.358 -1.3007 -0.7443 -0.9742
   86MOL0     H11348   7.735  10.017   2.552 -0.4336 -3.2092 -0.3930
   86MOL0     H11349   7.726  10.124   2.409  0.4310 -0.5834  0.6529
   86MOL0     H11350   7.810   9.723   2.255 -0.0625 -0.1964 -0.3210
   86MOL0     H11351   8.280  10.416   2.590  4.9589  2.7491  0.5853
   86MOL0     H11352   8.477  10.479   2.707  3.9445 -3.7155 -0.3991
   87MOL0     O11353   3.901   2.269   9.512  0.3499  0.7775 -0.0036
   87MOL0     C11354   3.980   2.260   9.603  0.5297 -0.3175 -0.2311
   87MOL0     O11355   3.943   2.252   9.730 -0.6048 -0.1868  0.6821
   87MOL0     C11356   3.816   2.277   9.765  0.5221  1.6558  1.1108
   87MOL0     C11357   3.712   2.181   9.727 -0.2262 -0.2003 -0.6551
   87MOL0     C11358   3.588   2.201   9.792  0.5861  0.0127 -0.3174
   87MOL0     C11359   3.564   2.313   9.868 -0.1170  1.3148 -0.7903
   87MOL0     O11360   3.433   2.332   9.903 -0.3799 -0.7699 -0.4496
   87MOL0     C11361   3.361   2.463   9.897 -0.3506 -0.0957  0.1271
   87MOL0     C11362   3.221   2.459   9.961  1.3548 -0.1074  0.0535
   87MOL0     C11363   3.159   2.609   9.956 -0.1289  0.5120 -0.2213
   87MOL0     C11364   3.012   2.625  10.002 -0.4214 -0.3190  0.0778
   87MOL0     C11365   2.905   2.529   9.951 -0.3889 -0.0018 -0.2267
   87MOL0     C11366   2.906   2.510   9.799  0.4808  0.0109  0.2724
   87MOL0     C11367   2.772   2.475   9.745  0.9546 -0.4846 -0.4610
   87MOL0     C11368   2.774   2.445   9.596 -0.2408  0.0281  0.0844
   87MOL0     N11369   2.644   2.494   9.539 -1.1542 -0.1367 -0.3285
   87MOL0     C11370   2.537   2.420   9.510 -0.0261  1.8864 -0.5732
   87MOL0     C11371   2.454   2.505   9.444 -0.5361 -0.6066  0.0356
   87MOL0     C11372   2.316   2.468   9.385  0.3989  0.2101 -0.6552
   87MOL0     C11373   2.220   2.440   9.499 -0.0781  0.3164 -1.0537
   87MOL0     C11374   2.220   2.555   9.612 -0.3875  0.3316  0.1828
   87MOL0     C11375   2.117   2.532   9.723  0.0824  0.7370  0.7575
   87MOL0     O11376   2.115   2.642   9.818  0.1921 -0.6652  0.3026
   87MOL0     C11377   2.040   2.622   9.923  0.4179 -0.6143  0.5639
   87MOL0     C11378   1.973   2.502   9.956  0.5877 -0.0902 -0.3032
   87MOL0     C11379   1.915   2.496  10.085  0.3031  0.1420  0.1191
   87MOL0     C11380   1.927   2.602  10.185  0.2724  0.0190 -0.0299
   87MOL0     C11381   1.902   2.571  10.333  1.2277 -0.3907  0.9917
   87MOL0     O11382   1.962   2.649  10.427 -1.5540  0.0802  0.1528
   87MOL0     C11383   1.896   2.646  10.545  1.2650  0.9549 -0.2135
   87MOL0     C11384   1.944   2.571  10.648  0.3590 -2.0561 -0.7562
   87MOL0     C11385   1.868   2.561  10.768  0.1554  0.0837  0.0237
   87MOL0     C11386   1.758   2.649  10.787 -0.9226  0.0180 -0.4167
   87MOL0     O11387   1.686   2.649  10.902  0.1908  0.9231 -0.0706
   87MOL0     C11388   1.668   2.519  10.968 -0.2479 -0.0235 -0.6218
   87MOL0     C11389   1.533   2.520  11.042 -0.8905 -1.0693  0.4492
   87MOL0     C11390   1.465   2.387  11.041  0.3164  0.6551 -0.0152
   87MOL0     C11391   1.338   2.394  11.123  0.0924 -0.0995 -0.2320
   87MOL0     C11392   1.369   2.385  11.277 -0.1017 -1.0613  0.8948
   87MOL0     C11393   1.250   2.322  11.352  0.6339  0.4009 -0.1108
   87MOL0     C11394   1.273   2.314  11.491  0.5275 -0.7959 -0.6922
   87MOL0     C11395   1.144   2.276  11.565  1.1578  0.2698 -0.1921
   87MOL0    Cl11396   1.106   2.101  11.541  0.5490  0.0097  0.1146
   87MOL0     C11397   1.723   2.735  10.684  0.4934  0.3477 -0.4908
   87MOL0     C11398   1.788   2.733  10.563 -0.1647  1.2611  0.8311
   87MOL0     O11399   1.804   2.493  10.344  0.3599  0.2966  0.2860
   87MOL0     C11400   1.999   2.720  10.146  1.0320  0.7098 -0.0490
   87MOL0     C11401   2.043   2.732  10.016 -0.2119  0.5981  1.3976
   87MOL0     N11402   2.515   2.632   9.435 -0.2559  0.1169  0.0518
   87MOL0     N11403   2.629   2.622   9.497  0.2724 -0.5760 -0.0907
   87MOL0     C11404   3.664   2.407   9.902  0.3489  0.0780  0.0413
   87MOL0     C11405   3.789   2.391   9.841  0.2421  0.1093 -1.0399
   87MOL0     C11406   4.119   2.266   9.568  0.4265 -0.4892 -0.0762
   87MOL0     C11407   4.213   2.303   9.670  0.4966  0.0939 -0.0876
   87MOL0     C11408   4.339   2.329   9.640 -0.1024  0.6452 -0.8980
   87MOL0     C11409   4.384   2.304   9.508 -0.0720  0.1270  0.7256
   87MOL0     O11410   4.521   2.320   9.495 -0.4675 -0.6269  0.3948
   87MOL0     C11411   4.584   2.212   9.418  0.3164  0.3764  0.4257
   87MOL0     C11412   4.719   2.254   9.363 -0.1766 -0.0055 -0.6693
   87MOL0     C11413   4.783   2.153   9.265  1.0780  0.5415  0.3595
   87MOL0     C11414   4.709   2.156   9.129  0.2857 -1.1795  0.1896
   87MOL0     C11415   4.626   2.039   9.126  0.1436  0.1047 -0.8157
   87MOL0     C11416   4.546   1.954   9.135  0.3502  0.4171  0.0062
   87MOL0     C11417   4.292   2.268   9.404 -0.3054  0.4746  0.5896
   87MOL0     C11418   4.162   2.241   9.437 -0.0207 -0.2967 -0.3851
   87MOL0     H11419   3.741   2.095   9.668  4.1154 -0.8112  1.9684
   87MOL0     H11420   3.510   2.126   9.774  0.2119  0.0374  1.1257
   87MOL0     H11421   3.342   2.485   9.791 -0.9062  1.1415  0.4660
   87MOL0     H11422   3.417   2.547   9.940 -1.6636  1.3165 -0.7999
   87MOL0     H11423   3.222   2.438  10.068 -3.0499  3.2739  1.0680
   87MOL0     H11424   3.157   2.393   9.901  1.1694  1.4754 -1.5736
   87MOL0     H11425   3.172   2.637   9.851  1.8370 -0.8903 -0.4022
   87MOL0     H11426   3.220   2.670  10.023 -0.9378  0.6772  0.3820
   87MOL0     H11427   3.006   2.633  10.111 -1.8742 -0.2507  0.0076
   87MOL0     H11428   2.985   2.726   9.970  1.1703  0.2442  0.4035
   87MOL0     H11429   2.811   2.575   9.981 -0.0106 -0.3028  1.5839
   87MOL0     H11430   2.916   2.435  10.005 -0.5674 -0.0542 -0.2826
   87MOL0     H11431   2.967   2.423   9.773 -1.5416 -1.0375 -1.1773
   87MOL0     H11432   2.928   2.606   9.753 -1.3430  1.5218  2.3292
   87MOL0     H11433   2.753   2.375   9.784  0.6099 -0.4613 -0.5702
   87MOL0     H11434   2.690   2.546   9.760 -1.4076 -2.0906 -4.5000
   87MOL0     H11435   2.774   2.340   9.566  0.1603  0.3339 -1.0210
   87MOL0     H11436   2.866   2.487   9.554  0.7486 -2.8747 -0.8753
   87MOL0     H11437   2.519   2.316   9.537  0.5592  1.8792 -0.1769
   87MOL0     H11438   2.330   2.385   9.315 -1.4840  1.4159 -2.5780
   87MOL0     H11439   2.270   2.544   9.322 -0.0716  0.9931  0.5883
   87MOL0     H11440   2.240   2.339   9.536 -0.4285 -0.3671 -2.6168
   87MOL0     H11441   2.118   2.427   9.461  0.1204 -1.5693 -1.0229
   87MOL0     H11442   2.316   2.565   9.663  0.0771  0.6157 -0.7217
   87MOL0     H11443   2.188   2.641   9.553 -1.7704 -0.7592 -0.7185
   87MOL0     H11444   2.170   2.444   9.760 -1.7828 -1.5540 -1.6301
   87MOL0     H11445   2.017   2.502   9.692  1.9662 -2.3235 -3.3081
   87MOL0     H11446   1.958   2.429   9.877  1.6988 -0.1039 -0.5168
   87MOL0     H11447   1.853   2.410  10.111 -2.0093  1.3815 -0.9381
   87MOL0     H11448   2.038   2.517  10.648  3.4774  2.6578 -2.0991
   87MOL0     H11449   1.889   2.490  10.847 -1.4704 -2.3035 -1.5499
   87MOL0     H11450   1.746   2.503  11.043 -1.6440  3.3832  1.8557
   87MOL0     H11451   1.667   2.434  10.899  3.7061 -0.2312 -0.6726
   87MOL0     H11452   1.464   2.586  10.988  1.8143  1.0196 -0.6904
   87MOL0     H11453   1.546   2.545  11.148  1.4440  0.7827 -0.1841
   87MOL0     H11454   1.516   2.294  11.069 -2.1248 -0.2450  1.9211
   87MOL0     H11455   1.424   2.366  10.942  0.1106  3.7998 -0.6965
   87MOL0     H11456   1.282   2.488  11.119  1.7644  0.9175 -0.8462
   87MOL0     H11457   1.279   2.307  11.095  1.5323 -1.2805  0.2747
   87MOL0     H11458   1.397   2.483  11.317 -0.3130 -0.3513 -0.6255
   87MOL0     H11459   1.449   2.312  11.290  1.3693 -0.2504 -2.6445
   87MOL0     H11460   1.238   2.225  11.305  3.1924  1.5466 -3.5135
   87MOL0     H11461   1.167   2.392  11.335  1.8927  1.9844 -0.0054
   87MOL0     H11462   1.345   2.233  11.506 -1.1828 -2.3489 -0.5283
   87MOL0     H11463   1.309   2.410  11.529 -2.5600  0.6988 -1.2023
   87MOL0     H11464   1.056   2.329  11.526 -0.9113 -2.3348  0.6167
   87MOL0     H11465   1.151   2.307  11.669 -2.0497  0.2531  0.1393
   87MOL0     H11466   1.643   2.809  10.688  2.4252  2.5547 -0.8369
   87MOL0     H11467   1.752   2.799  10.485 -4.0291 -0.7379  0.6725
   87MOL0     H11468   2.017   2.803  10.214 -0.2478  1.8141 -1.0093
   87MOL0     H11469   2.093   2.824   9.987  0.2513  0.0325  0.3804
   87MOL0     H11470   3.625   2.502   9.939 -1.9680 -0.1040 -1.7014
   87MOL0     H11471   3.868   2.464   9.853  0.1664  0.2912 -1.6128
   87MOL0     H11472   4.183   2.314   9.774 -1.0324  0.2924 -0.5338
   87MOL0     H11473   4.397   2.356   9.728 -0.5135 -0.5423 -0.2325
   87MOL0     H11474   4.518   2.171   9.341 -0.6490 -2.3788  2.5381
   87MOL0     H11475   4.597   2.122   9.479 -4.8459 -1.5292 -0.7326
   87MOL0     H11476   4.710   2.357   9.328  1.4933  1.6798  3.2428
   87MOL0     H11477   4.792   2.270   9.444  1.2533 -3.0919 -1.2300
   87MOL0     H11478   4.777   2.054   9.310  1.2395 -0.9147 -2.5681
   87MOL0     H11479   4.890   2.167   9.246  0.9680  2.6157  1.0645
   87MOL0     H11480   4.642   2.241   9.111  0.7643 -0.8012  0.1892
   87MOL0     H11481   4.773   2.131   9.044 -0.5495  0.7500 -1.0602
   87MOL0     H11482   4.482   1.868   9.138  1.8568 -0.8268 -1.6883
   87MOL0     H11483   4.320   2.248   9.301  3.0112  0.8031  1.3155
   87MOL0     H11484   4.083   2.205   9.372  1.2760 -2.3523 -0.9196
   88MOL0     O11485   0.163   6.008  11.394  0.2713 -0.3787  1.0478
   88MOL0     C11486   0.077   6.065  11.322 -0.2151 -0.7735 -0.1556
   88MOL0     O11487   0.017   6.195  11.341 -0.1909  0.0110  0.0526
   88MOL0     C11488   0.040   6.266  11.455 -0.9726  0.5534 -0.0799
   88MOL0     C11489   0.038   6.405  11.440  0.5976  0.6433 -0.0962
   88MOL0     C11490   0.054   6.488  11.550  0.6115 -0.2362  0.2982
   88MOL0     C11491   0.086   6.436  11.673  0.1729 -0.6818 -0.2325
   88MOL0     O11492   0.099   6.529  11.781 -0.0046  0.5942  0.0230
   88MOL0     C11493   0.102   6.475  11.912 -0.1336 -0.0257 -0.7793
   88MOL0     C11494   0.054   6.592  11.993  0.5107 -0.7276  0.1070
   88MOL0     C11495   0.053   6.563  12.148  0.5612  0.4254 -0.0325
   88MOL0     C11496   0.172   6.614  12.210  0.5567  0.0966 -0.2798
   88MOL0     C11497   0.175   6.584  12.354  0.2503  0.8464  0.1896
   88MOL0     C11498   0.311   6.595  12.426  0.1353 -0.7328 -0.0708
   88MOL0     C11499   0.307   6.564  12.576 -0.0859 -0.1330 -0.9585
   88MOL0     C11500   0.187   6.635  12.652  0.1270  0.2790  0.5467
   88MOL0     N11501   0.208   6.591  12.796  0.3152 -0.6462 -0.2852
   88MOL0     C11502   0.257   6.688  12.889  0.7306  1.0997 -0.5415
   88MOL0     C11503   0.276   6.613  13.006  0.2791  0.1263  0.6636
   88MOL0     C11504   0.336   6.656  13.133  0.0951 -0.0931 -0.5615
   88MOL0     C11505   0.236   6.748  13.210  0.2120  0.2210  0.0412
   88MOL0     C11506   0.279   6.862  13.312 -0.1955  0.6090  0.3728
   88MOL0     C11507   0.396   6.933  13.252  0.1327  0.0550  0.0185
   88MOL0     O11508   0.433   7.044  13.330 -0.1656  0.0782 -0.2522
   88MOL0     C11509   0.535   7.120  13.276 -0.0857 -0.2672 -0.5161
   88MOL0     C11510   0.629   7.077  13.177 -0.2645  0.2439  0.0811
   88MOL0     C11511   0.730   7.166  13.134 -0.2435  0.1228  0.5176
   88MOL0     C11512   0.736   7.297  13.173 -0.4609  0.1609 -0.8570
   88MOL0     C11513   0.839   7.383  13.131 -0.7800  0.0012  0.4216
   88MOL0     O11514   0.826   7.523  13.147  0.0794  0.0333  0.1243
   88MOL0     C11515   0.914   7.621  13.096 -0.3472  0.0484 -1.0731
   88MOL0     C11516   1.041   7.596  13.043 -1.3101 -0.1582 -0.2559
   88MOL0     C11517   1.138   7.694  13.010  0.1654 -0.2225  0.5615
   88MOL0     C11518   1.096   7.825  13.016  0.1982  0.4311  0.0012
   88MOL0     O11519   1.191   7.919  13.003 -0.7201 -0.4429 -0.7372
   88MOL0     C11520   1.164   8.060  13.033  0.4528 -1.0207  0.6003
   88MOL0     C11521   1.085   8.138  12.924 -0.2753  0.2632  0.6148
   88MOL0     C11522   1.136   8.108  12.783  0.0544 -0.2232  0.2527
   88MOL0     C11523   1.080   8.201  12.673 -0.2011  0.1756  0.4554
   88MOL0     C11524   1.184   8.300  12.620 -0.2060 -0.2293  1.3294
   88MOL0     C11525   1.238   8.408  12.712  0.4040 -0.8590 -0.2580
   88MOL0     C11526   1.339   8.492  12.636  0.2801 -0.7481 -0.7659
   88MOL0     C11527   1.365   8.629  12.693 -0.0241  0.8538 -0.3151
   88MOL0    Cl11528   1.452   8.735  12.576 -0.0776  0.1817 -0.1468
   88MOL0     C11529   0.961   7.855  13.056 -0.3744  0.2540 -0.2898
   88MOL0     C11530   0.874   7.758  13.106  0.6886  0.3819  0.4143
   88MOL0     O11531   0.917   7.341  13.046  0.0050  0.2032 -0.1278
   88MOL0     C11532   0.654   7.332  13.282 -0.1545  0.1422 -0.7417
   88MOL0     C11533   0.555   7.250  13.333  0.8379  0.0517 -0.4863
   88MOL0     N11534   0.224   6.486  12.982 -0.7894 -0.9531 -0.4294
   88MOL0     N11535   0.199   6.470  12.855  1.0050 -0.2650  0.3233
   88MOL0     C11536   0.105   6.298  11.688 -0.0569  0.1801 -0.0313
   88MOL0     C11537   0.081   6.210  11.580  0.5419 -0.4827 -0.1394
   88MOL0     C11538   0.038   6.004  11.196  0.9186  0.0932 -0.4040
   88MOL0     C11539  -0.090   6.032  11.149  0.3071 -0.3281  1.2013
   88MOL0     C11540  -0.135   5.969  11.034 -0.2298  0.2799 -0.8758
   88MOL0     C11541  -0.052   5.879  10.963  0.4221 -0.0160  1.2106
   88MOL0     O11542  -0.091   5.816  10.847 -0.2259  0.4333  0.3398
   88MOL0     C11543  -0.197   5.857  10.761 -0.3410  0.4579 -0.3513
   88MOL0     C11544  -0.168   5.999  10.710  0.1806 -0.3622 -0.3701
   88MOL0     C11545  -0.294   6.083  10.718  0.0588 -0.6110 -0.3171
   88MOL0     C11546  -0.405   6.040  10.611 -0.7980 -0.4991  0.0655
   88MOL0     C11547  -0.343   6.040  10.479 -0.2796  0.0684 -0.1862
   88MOL0     C11548  -0.281   6.045  10.383  0.2398  0.8940 -0.5757
   88MOL0     C11549   0.060   5.838  11.018  0.0832  0.1063 -0.4745
   88MOL0     C11550   0.105   5.899  11.131 -1.6192 -0.0250  0.1574
   88MOL0     H11551   0.020   6.446  11.341  0.2947  0.3593 -0.1609
   88MOL0     H11552   0.064   6.595  11.540  2.5484 -0.0230  3.3516
   88MOL0     H11553   0.199   6.450  11.955  0.8304  3.0490 -0.9274
   88MOL0     H11554   0.022   6.404  11.933 -1.9689  2.2237  0.3034
   88MOL0     H11555  -0.046   6.615  11.954  1.3754  1.9138 -0.7861
   88MOL0     H11556   0.114   6.681  11.973 -2.7681  0.8604 -4.2338
   88MOL0     H11557   0.026   6.460  12.172  0.1737 -0.3976 -3.4885
   88MOL0     H11558  -0.031   6.620  12.187 -1.1420 -2.8431  1.4575
   88MOL0     H11559   0.256   6.557  12.169  0.0437 -0.4873 -0.5411
   88MOL0     H11560   0.190   6.720  12.193 -3.6629  1.0811  0.2875
   88MOL0     H11561   0.149   6.478  12.361  3.8319 -0.5763 -3.7501
   88MOL0     H11562   0.101   6.636  12.416  1.4773  1.1448  1.4769
   88MOL0     H11563   0.340   6.701  12.422 -2.1700  0.1681  2.7430
   88MOL0     H11564   0.394   6.534  12.391  1.1587 -0.4269  1.6780
   88MOL0     H11565   0.301   6.455  12.583  2.1895 -0.2441  0.1049
   88MOL0     H11566   0.398   6.591  12.632 -1.9807  2.7669  1.0120
   88MOL0     H11567   0.095   6.596  12.607  0.3985 -0.0204  0.2468
   88MOL0     H11568   0.187   6.743  12.635  2.0202  0.0452 -1.3492
   88MOL0     H11569   0.280   6.791  12.865 -1.5541  1.1277 -3.1691
   88MOL0     H11570   0.427   6.710  13.108 -0.0247  0.9766  1.0993
   88MOL0     H11571   0.361   6.561  13.182 -1.1083 -2.1230 -3.6026
   88MOL0     H11572   0.164   6.685  13.262  0.3565 -1.2506 -1.4581
   88MOL0     H11573   0.184   6.808  13.134 -1.1313  2.6693  2.7059
   88MOL0     H11574   0.196   6.933  13.315  1.0718  2.2305 -1.4666
   88MOL0     H11575   0.306   6.824  13.411  2.6218 -0.8330 -0.8389
   88MOL0     H11576   0.361   6.965  13.153  1.8500  0.6999 -0.4139
   88MOL0     H11577   0.475   6.859  13.239  0.3242  0.7024 -3.9123
   88MOL0     H11578   0.623   6.980  13.127  4.5393  0.4468 -1.4315
   88MOL0     H11579   0.808   7.130  13.067  0.6360 -0.0210  1.5937
   88MOL0     H11580   1.079   7.496  13.025  4.7562  1.2647  2.1462
   88MOL0     H11581   1.228   7.679  12.952  1.0918  2.7173  1.0601
   88MOL0     H11582   1.262   8.109  13.038 -1.1147  2.3127  1.7633
   88MOL0     H11583   1.117   8.058  13.131 -1.2809 -1.9955 -0.2031
   88MOL0     H11584   1.090   8.246  12.945 -0.0591  0.2824  0.4639
   88MOL0     H11585   0.979   8.115  12.938 -0.1510  0.3002  1.7075
   88MOL0     H11586   1.112   8.002  12.767  0.5860 -0.8226  2.9016
   88MOL0     H11587   1.243   8.128  12.798  0.0447 -1.8033  3.0619
   88MOL0     H11588   1.041   8.141  12.590  4.8401 -0.1908 -2.0196
   88MOL0     H11589   0.994   8.250  12.719 -0.8155 -0.2987 -0.1574
   88MOL0     H11590   1.138   8.337  12.528 -0.6437 -1.5169  0.9968
   88MOL0     H11591   1.275   8.243  12.598  0.8296  1.6791  0.4943
   88MOL0     H11592   1.285   8.378  12.806 -0.0143 -0.4984  0.0677
   88MOL0     H11593   1.152   8.466  12.744 -0.6629 -0.6503 -3.2399
   88MOL0     H11594   1.430   8.432  12.641  1.1018  0.5312  0.6545
   88MOL0     H11595   1.312   8.518  12.533 -1.0900 -0.1473 -0.2789
   88MOL0     H11596   1.421   8.620  12.787 -0.8765  1.4217  0.2718
   88MOL0     H11597   1.269   8.673  12.725 -0.9398 -1.5466  0.5043
   88MOL0     H11598   0.934   7.960  13.058  0.1453  0.3846 -0.0736
   88MOL0     H11599   0.775   7.792  13.138  1.9995  4.6694  0.5381
   88MOL0     H11600   0.662   7.436  13.314  2.4956 -0.0037 -0.6593
   88MOL0     H11601   0.501   7.277  13.423  1.8662  1.4949 -0.2622
   88MOL0     H11602   0.146   6.254  11.778 -1.8962 -1.4573  0.0605
   88MOL0     H11603   0.100   6.105  11.598  1.0787 -0.4342 -0.4093
   88MOL0     H11604  -0.150   6.107  11.201  1.3438  1.4475 -0.0272
   88MOL0     H11605  -0.224   6.000  10.980  0.6654  2.8457 -1.0187
   88MOL0     H11606  -0.288   5.853  10.822  0.1086  0.1199  0.3099
   88MOL0     H11607  -0.200   5.787  10.677 -2.5757  2.5327 -2.1227
   88MOL0     H11608  -0.085   6.049  10.760 -0.9488  0.8606  0.3346
   88MOL0     H11609  -0.121   5.994  10.612  0.0088 -2.0092 -0.3975
   88MOL0     H11610  -0.265   6.187  10.703 -1.5997 -0.3831 -2.5219
   88MOL0     H11611  -0.333   6.082  10.820  3.4122 -2.3879  1.1293
   88MOL0     H11612  -0.445   5.938  10.619 -1.0911 -0.4279 -0.4384
   88MOL0     H11613  -0.491   6.105  10.627 -0.9495 -1.4040  3.8531
   88MOL0     H11614  -0.228   6.045  10.290  0.7502  1.1724 -0.2897
   88MOL0     H11615   0.112   5.764  10.958  0.0224 -1.7467  1.6257
   88MOL0     H11616   0.196   5.861  11.175 -1.5181  1.2616  1.1266
   89MOL0     O11617   4.094   0.245   2.209  0.5303  0.0351  0.4530
   89MOL0     C11618   4.105   0.349   2.278 -1.1813 -0.1138  0.4453
   89MOL0     O11619   4.220   0.402   2.324  0.1920 -0.7766  0.5004
   89MOL0     C11620   4.344   0.350   2.294  0.1720  0.3576  0.2290
   89MOL0     C11621   4.382   0.227   2.354  1.0648 -0.4877 -0.3710
   89MOL0     C11622   4.507   0.166   2.319  0.8249 -1.2135 -0.6199
   89MOL0     C11623   4.587   0.227   2.222 -0.3641 -0.6260 -0.0084
   89MOL0     O11624   4.710   0.167   2.196 -0.6821 -0.0226  0.0396
   89MOL0     C11625   4.804   0.163   2.304  0.2266  1.5138 -0.2018
   89MOL0     C11626   4.906   0.281   2.289  0.8236  0.0490 -0.7486
   89MOL0     C11627   4.990   0.281   2.162 -0.2893 -0.5922  0.2679
   89MOL0     C11628   5.073   0.414   2.131  0.8181 -0.0860 -0.3836
   89MOL0     C11629   5.215   0.397   2.182 -0.0658 -0.3443 -0.1675
   89MOL0     C11630   5.224   0.441   2.335 -0.4438 -0.0259 -0.6396
   89MOL0     C11631   5.383   0.458   2.365  0.0319  0.6215  0.6474
   89MOL0     C11632   5.457   0.327   2.342  0.9592 -0.0494  0.5939
   89MOL0     N11633   5.591   0.333   2.402 -1.0451  0.1311 -0.2648
   89MOL0     C11634   5.697   0.370   2.328  0.4093 -0.7630  0.5398
   89MOL0     C11635   5.802   0.337   2.407  0.0968  0.3217  1.2415
   89MOL0     C11636   5.950   0.355   2.387  0.2921  0.1972  0.2842
   89MOL0     C11637   6.015   0.478   2.456  0.1656  0.5181  0.5960
   89MOL0     C11638   5.999   0.591   2.353  0.0979 -0.4217 -0.5605
   89MOL0     C11639   6.066   0.719   2.404  0.7280 -0.3165 -0.3982
   89MOL0     O11640   6.041   0.827   2.308  0.7830  0.2796  0.5031
   89MOL0     C11641   6.145   0.913   2.298  0.1346  0.7573  0.6798
   89MOL0     C11642   6.242   0.888   2.191 -0.2188  0.1333 -0.5844
   89MOL0     C11643   6.345   0.978   2.165 -0.4859  0.0748 -0.3439
   89MOL0     C11644   6.370   1.084   2.256 -0.3522  0.9149 -0.5750
   89MOL0     C11645   6.494   1.164   2.236 -0.5404  0.6888  0.3122
   89MOL0     O11646   6.527   1.273   2.322 -1.0486  0.6538  1.1797
   89MOL0     C11647   6.650   1.336   2.305  0.4831  0.4254 -0.6120
   89MOL0     C11648   6.652   1.472   2.266  0.0002  0.5299  0.8022
   89MOL0     C11649   6.767   1.558   2.273  0.3724 -0.2412 -1.1718
   89MOL0     C11650   6.889   1.498   2.312 -1.1174 -0.2851  0.9137
   89MOL0     O11651   7.003   1.583   2.309  0.0790 -1.5776 -0.5521
   89MOL0     C11652   7.087   1.575   2.421 -0.2873  0.9090 -0.0736
   89MOL0     C11653   7.167   1.694   2.439  0.5534 -0.1517  0.3472
   89MOL0     C11654   7.079   1.811   2.469  0.1737 -1.0173 -0.1867
   89MOL0     C11655   7.126   1.921   2.551 -0.0872 -0.3731 -0.4677
   89MOL0     C11656   7.019   2.026   2.603 -0.2639 -0.6025 -0.2010
   89MOL0     C11657   6.880   1.969   2.624 -0.3450  0.3644  0.6754
   89MOL0     C11658   6.788   2.063   2.705 -0.2236  0.0751  0.0081
   89MOL0     C11659   6.641   2.029   2.702  0.4502  0.1261  0.0762
   89MOL0    Cl11660   6.596   1.921   2.837 -0.3630 -0.4943  0.4466
   89MOL0     C11661   6.881   1.361   2.332 -0.1439  0.5931 -0.0146
   89MOL0     C11662   6.765   1.280   2.331 -0.7102  0.2462 -0.3688
   89MOL0     O11663   6.572   1.115   2.157 -0.0115 -0.8374 -0.2802
   89MOL0     C11664   6.283   1.097   2.364 -0.3037  0.4920  0.9435
   89MOL0     C11665   6.173   1.016   2.385 -0.8730  0.9921 -0.0293
   89MOL0     N11666   5.748   0.270   2.515  0.7125 -0.1947 -0.8607
   89MOL0     N11667   5.623   0.266   2.515 -0.2492 -0.6620 -0.6068
   89MOL0     C11668   4.553   0.346   2.156  0.6101 -0.4569 -0.9932
   89MOL0     C11669   4.436   0.411   2.201  1.2304 -0.0465  0.0930
   89MOL0     C11670   3.969   0.409   2.305  0.3528  0.9730 -0.2679
   89MOL0     C11671   3.850   0.336   2.276 -0.0276  0.1331  0.3583
   89MOL0     C11672   3.730   0.397   2.285 -0.3165 -0.7393 -0.0146
   89MOL0     C11673   3.714   0.526   2.332 -0.4226 -0.0257  0.2101
   89MOL0     O11674   3.592   0.576   2.361 -0.5009  0.1256  0.2928
   89MOL0     C11675   3.560   0.716   2.319 -0.8957 -0.5410  0.8741
   89MOL0     C11676   3.420   0.749   2.370 -0.2802 -0.5594  0.6549
   89MOL0     C11677   3.421   0.762   2.520  0.4608  0.0905  0.2139
   89MOL0     C11678   3.282   0.775   2.578  0.4984 -0.1586 -0.2774
   89MOL0     C11679   3.285   0.788   2.725 -0.0641  0.5743 -1.3070
   89MOL0     C11680   3.278   0.809   2.848 -0.0480  0.3038  0.4761
   89MOL0     C11681   3.834   0.590   2.372 -0.1325  0.9935  0.2650
   89MOL0     C11682   3.962   0.535   2.362 -0.2811  0.3419  0.7104
   89MOL0     H11683   4.317   0.176   2.424 -2.7636  1.0336 -2.5447
   89MOL0     H11684   4.533   0.070   2.362 -1.7759 -1.2759  1.0113
   89MOL0     H11685   4.862   0.076   2.270  1.3694  2.2075 -0.0687
   89MOL0     H11686   4.756   0.152   2.402 -1.5629  0.3121 -1.1571
   89MOL0     H11687   4.974   0.269   2.373 -0.6685 -3.9217  0.1358
   89MOL0     H11688   4.848   0.373   2.304  0.7040 -0.2394  0.7071
   89MOL0     H11689   4.923   0.264   2.077  0.8696 -0.9486 -0.5963
   89MOL0     H11690   5.066   0.202   2.163  2.3947  1.8283  2.3667
   89MOL0     H11691   5.079   0.438   2.025 -0.3283  1.2545 -0.1713
   89MOL0     H11692   5.011   0.498   2.164 -0.4060 -0.1685 -2.2769
   89MOL0     H11693   5.276   0.459   2.115 -0.7720  0.9792  0.3812
   89MOL0     H11694   5.252   0.294   2.186  0.0950 -0.2335  2.4949
   89MOL0     H11695   5.190   0.358   2.397  0.6081  0.3974  0.5590
   89MOL0     H11696   5.164   0.530   2.354  0.7012  0.0417  3.9131
   89MOL0     H11697   5.421   0.540   2.303 -1.1883 -2.4527 -4.7446
   89MOL0     H11698   5.386   0.494   2.469 -0.8536 -0.5303  1.0929
   89MOL0     H11699   5.452   0.311   2.234  0.0610  2.4281  0.2095
   89MOL0     H11700   5.411   0.237   2.382  3.0682 -1.0791  0.8690
   89MOL0     H11701   5.696   0.418   2.230 -0.2180 -1.4568  0.1968
   89MOL0     H11702   5.972   0.345   2.281 -0.1876 -2.1700  0.3695
   89MOL0     H11703   5.985   0.262   2.433 -2.5503 -3.1334 -3.6443
   89MOL0     H11704   6.121   0.455   2.469  0.5885  1.6865 -0.5592
   89MOL0     H11705   5.972   0.494   2.555 -0.2491 -4.6551  1.5472
   89MOL0     H11706   6.048   0.578   2.257  0.3640  1.3457 -0.7071
   89MOL0     H11707   5.890   0.604   2.352  0.0416 -0.7608  0.2675
   89MOL0     H11708   6.172   0.700   2.419  1.0351  0.7039 -1.2059
   89MOL0     H11709   6.029   0.729   2.507  2.5934 -2.1877  0.5493
   89MOL0     H11710   6.233   0.818   2.108  0.8095  1.1729 -1.6077
   89MOL0     H11711   6.404   0.971   2.074 -2.4659  3.2078 -2.0507
   89MOL0     H11712   6.554   1.512   2.241  0.0015 -0.1660 -0.4094
   89MOL0     H11713   6.784   1.665   2.264  3.4994 -0.4326  0.9079
   89MOL0     H11714   7.142   1.481   2.414 -0.1762  1.0767 -3.6753
   89MOL0     H11715   7.026   1.573   2.512 -2.0743  0.3726 -1.2306
   89MOL0     H11716   7.222   1.713   2.347  1.7174  1.3084  1.3003
   89MOL0     H11717   7.247   1.679   2.512  2.3787 -2.9936 -2.0142
   89MOL0     H11718   6.983   1.779   2.511  1.6010 -1.3790  3.1118
   89MOL0     H11719   7.053   1.845   2.368  1.5250 -2.0811 -0.9340
   89MOL0     H11720   7.157   1.875   2.646  2.3588  0.0797 -0.9865
   89MOL0     H11721   7.208   1.975   2.503 -0.0570  0.2388  0.2591
   89MOL0     H11722   7.011   2.112   2.535  0.8969  1.0650  1.6690
   89MOL0     H11723   7.061   2.060   2.698 -2.7865 -1.1574  1.1845
   89MOL0     H11724   6.885   1.874   2.678  1.7793  0.7394  1.2596
   89MOL0     H11725   6.839   1.934   2.529 -1.8557  1.0218  1.0576
   89MOL0     H11726   6.813   2.087   2.809 -2.4171 -0.0934  0.6110
   89MOL0     H11727   6.802   2.151   2.642  1.9647 -0.3144 -0.1460
   89MOL0     H11728   6.614   1.969   2.615  1.6484  1.9326 -1.6070
   89MOL0     H11729   6.578   2.119   2.700 -2.7056 -1.9109 -2.3164
   89MOL0     H11730   6.976   1.309   2.338  0.7159  2.2484  1.7083
   89MOL0     H11731   6.777   1.173   2.345  3.7661  0.9113  3.6046
   89MOL0     H11732   6.315   1.173   2.434  1.1538  0.7543  0.0302
   89MOL0     H11733   6.105   1.039   2.466 -0.0136  1.6986  0.5104
   89MOL0     H11734   4.608   0.397   2.077  0.7637 -2.0202 -1.9424
   89MOL0     H11735   4.407   0.506   2.156  0.5879 -0.7677 -1.0715
   89MOL0     H11736   3.854   0.232   2.244 -0.3580  0.4292 -0.6969
   89MOL0     H11737   3.639   0.340   2.268 -0.2471 -1.3665  1.5861
   89MOL0     H11738   3.557   0.715   2.210 -1.6702  0.4313  0.8678
   89MOL0     H11739   3.613   0.805   2.356 -2.0994  0.7493 -0.3767
   89MOL0     H11740   3.396   0.846   2.326 -0.5678 -0.2136  1.5521
   89MOL0     H11741   3.354   0.671   2.331  0.4985 -1.1682  0.5324
   89MOL0     H11742   3.468   0.857   2.547 -2.5439  1.9069 -0.4705
   89MOL0     H11743   3.482   0.678   2.554 -0.0970  0.6233  2.7305
   89MOL0     H11744   3.224   0.859   2.539  0.3682 -1.2803 -2.6681
   89MOL0     H11745   3.231   0.681   2.554  2.8158 -1.2843 -1.1332
   89MOL0     H11746   3.263   0.829   2.952 -2.5052 -0.1520  0.2656
   89MOL0     H11747   3.827   0.691   2.411 -1.3704  1.7515 -1.7485
   89MOL0     H11748   4.054   0.586   2.390 -1.0958  2.0106  0.4651
   90MOL0     O11749   5.233   5.917  11.185  0.1465  0.6653 -0.5033
   90MOL0     C11750   5.345   5.873  11.185 -0.3774  0.4871  0.0946
   90MOL0     O11751   5.461   5.944  11.203 -0.3761  0.0640  0.5339
   90MOL0     C11752   5.458   6.074  11.237  0.2430  0.9818 -0.4545
   90MOL0     C11753   5.426   6.110  11.368  0.0357 -1.4321 -0.6926
   90MOL0     C11754   5.416   6.247  11.399 -0.1604 -0.6495 -0.5030
   90MOL0     C11755   5.444   6.348  11.305  0.3886  0.4163  1.0987
   90MOL0     O11756   5.443   6.479  11.345  0.3346 -0.0185 -0.0651
   90MOL0     C11757   5.542   6.557  11.297  0.0072  0.1074 -0.0713
   90MOL0     C11758   5.623   6.587  11.423 -1.0208  0.0647  0.4680
   90MOL0     C11759   5.731   6.698  11.410 -0.0723  0.4485  1.0471
   90MOL0     C11760   5.802   6.684  11.269 -0.5074  0.0091  0.3272
   90MOL0     C11761   5.935   6.771  11.265  0.0972 -0.0061  0.2929
   90MOL0     C11762   6.059   6.696  11.318  0.0251  0.8134  0.4783
   90MOL0     C11763   6.154   6.785  11.392 -0.3589  0.3823 -0.1836
   90MOL0     C11764   6.095   6.851  11.510  0.1600  0.2703 -0.3235
   90MOL0     N11765   6.184   6.890  11.614  0.1895  0.5403 -0.0866
   90MOL0     C11766   6.261   7.000  11.634  0.6490 -0.6878 -0.2191
   90MOL0     C11767   6.339   6.976  11.739  0.0245  0.1916  0.1131
   90MOL0     C11768   6.446   7.058  11.813  0.3184  0.4214  0.6897
   90MOL0     C11769   6.590   7.035  11.773  0.2844  0.3915 -0.3047
   90MOL0     C11770   6.645   6.905  11.820  0.7819 -0.5305 -0.6578
   90MOL0     C11771   6.777   6.865  11.751  0.2876 -0.1088 -0.0881
   90MOL0     O11772   6.777   6.877  11.607  0.1508  0.0438  0.1942
   90MOL0     C11773   6.881   6.945  11.551  0.4966  0.8428 -0.3378
   90MOL0     C11774   7.002   6.885  11.506  0.8510  0.4628 -0.3542
   90MOL0     C11775   7.100   6.961  11.428 -0.5612  0.1636 -1.2050
   90MOL0     C11776   7.077   7.096  11.432 -1.3833  0.3474 -0.0513
   90MOL0     C11777   7.187   7.184  11.371  0.0860  0.2100 -0.0622
   90MOL0     O11778   7.323   7.152  11.391  0.9182 -0.6123 -0.1449
   90MOL0     C11779   7.414   7.253  11.391 -0.1697 -0.2505  0.1054
   90MOL0     C11780   7.409   7.363  11.463 -0.1839 -0.2400 -0.2520
   90MOL0     C11781   7.494   7.473  11.458  0.6362 -1.0411  0.1825
   90MOL0     C11782   7.618   7.468  11.389 -0.1676 -0.7857 -0.0067
   90MOL0     O11783   7.707   7.574  11.397 -0.2209  0.6133  0.0369
   90MOL0     C11784   7.829   7.558  11.316 -0.1284 -0.0217  0.3928
   90MOL0     C11785   7.888   7.692  11.330  0.4522  0.1871  0.6272
   90MOL0     C11786   7.940   7.729  11.469 -0.1722  0.3351  0.0183
   90MOL0     C11787   7.977   7.884  11.473  0.2106 -0.5621  0.5085
   90MOL0     C11788   8.027   7.920  11.610 -0.5199 -0.1225  0.2097
   90MOL0     C11789   8.086   8.059  11.617 -0.6040 -0.7747 -0.6574
   90MOL0     C11790   8.192   8.085  11.504  0.0976 -0.2454 -0.2202
   90MOL0     C11791   8.253   8.222  11.519 -0.5255 -0.1744  0.8034
   90MOL0    Cl11792   8.136   8.362  11.502 -0.0692  0.3000  0.0533
   90MOL0     C11793   7.638   7.352  11.313 -0.7186 -0.6964  0.7058
   90MOL0     C11794   7.538   7.244  11.309  1.0274 -0.8693  1.0833
   90MOL0     O11795   7.143   7.283  11.311  0.0750  0.1147  0.6120
   90MOL0     C11796   6.971   7.164  11.491  0.5494  0.0582  0.4259
   90MOL0     C11797   6.869   7.087  11.543  0.2967  0.0086  0.7533
   90MOL0     N11798   6.295   6.858  11.802  0.2759 -0.2001  0.1601
   90MOL0     N11799   6.209   6.807  11.715  0.8303 -0.2243  0.2245
   90MOL0     C11800   5.469   6.308  11.171  0.1496  0.6761 -1.0562
   90MOL0     C11801   5.479   6.171  11.140  0.0579 -0.9462 -0.3145
   90MOL0     C11802   5.379   5.732  11.155 -0.1519 -0.5479  0.2891
   90MOL0     C11803   5.514   5.680  11.180  0.6836 -0.0462 -0.2414
   90MOL0     C11804   5.535   5.543  11.164 -0.4743 -0.1431 -0.5738
   90MOL0     C11805   5.435   5.458  11.117  0.6993 -0.6366  1.7768
   90MOL0     O11806   5.467   5.326  11.103 -0.2294 -0.1435  0.1144
   90MOL0     C11807   5.366   5.246  11.041  0.1007  0.1414  0.5343
   90MOL0     C11808   5.407   5.100  11.045 -0.1434 -0.0674  0.8359
   90MOL0     C11809   5.526   5.063  10.946 -0.0503 -0.9721  0.7873
   90MOL0     C11810   5.555   4.908  10.932  0.4819  0.2485 -1.0977
   90MOL0     C11811   5.693   4.877  10.890  0.4797 -1.0590  0.1761
   90MOL0     C11812   5.802   4.832  10.851 -0.4999 -0.4859  0.6827
   90MOL0     C11813   5.309   5.512  11.088  0.0229  0.6883  0.1583
   90MOL0     C11814   5.274   5.649  11.111  0.0607  0.4438  0.7031
   90MOL0     H11815   5.409   6.034  11.443 -2.6006  0.8782  1.2607
   90MOL0     H11816   5.382   6.275  11.498  1.0434  2.9755 -0.9909
   90MOL0     H11817   5.492   6.649  11.266 -0.9754  0.4014  2.1613
   90MOL0     H11818   5.602   6.510  11.219 -0.4232 -2.2742  0.9498
   90MOL0     H11819   5.662   6.488  11.447 -1.5583  0.0202  1.2224
   90MOL0     H11820   5.563   6.625  11.506  0.1757  0.8583  0.9947
   90MOL0     H11821   5.803   6.687  11.492  1.5373  0.5930 -0.2979
   90MOL0     H11822   5.701   6.802  11.425  2.0812  1.1865  0.6353
   90MOL0     H11823   5.823   6.580  11.242  1.4222  0.2273  0.8461
   90MOL0     H11824   5.730   6.714  11.193 -0.3219  0.0938  0.1823
   90MOL0     H11825   5.906   6.861  11.320 -0.8065  2.0899 -3.2788
   90MOL0     H11826   5.953   6.806  11.163  0.4176  1.6666  0.8949
   90MOL0     H11827   6.118   6.651  11.237  1.5167  1.4099  1.2013
   90MOL0     H11828   6.027   6.610  11.378  1.4167 -0.3806 -0.4080
   90MOL0     H11829   6.237   6.722  11.425 -1.4257  0.4671  2.9524
   90MOL0     H11830   6.191   6.867  11.330  3.6634 -0.1527  1.1955
   90MOL0     H11831   6.057   6.763  11.562  0.7106  1.5478  2.4043
   90MOL0     H11832   6.017   6.927  11.497  1.0829  1.0458 -1.5910
   90MOL0     H11833   6.246   7.083  11.565  2.4974  1.7061  2.0826
   90MOL0     H11834   6.441   7.032  11.919 -0.1281  2.9424  1.3523
   90MOL0     H11835   6.424   7.164  11.799 -1.1647 -0.2519 -3.2679
   90MOL0     H11836   6.651   7.109  11.827 -0.7666 -0.6987  2.5219
   90MOL0     H11837   6.590   7.042  11.663 -0.1854 -1.5158 -0.4497
   90MOL0     H11838   6.664   6.927  11.926  0.4676  1.3714 -0.9589
   90MOL0     H11839   6.559   6.838  11.817 -2.6445  3.3209  1.4303
   90MOL0     H11840   6.781   6.757  11.768 -4.1701 -0.6697 -1.3212
   90MOL0     H11841   6.862   6.919  11.794  0.6052 -0.2581 -0.5104
   90MOL0     H11842   7.005   6.778  11.523  0.0124  0.6806  1.4159
   90MOL0     H11843   7.182   6.902  11.390  1.9801  0.5980  2.9603
   90MOL0     H11844   7.327   7.379  11.532  0.0792  1.3325 -0.2563
   90MOL0     H11845   7.467   7.561  11.515  1.2240 -0.4380 -0.4484
   90MOL0     H11846   7.790   7.538  11.216  1.7164 -0.9010 -0.1851
   90MOL0     H11847   7.895   7.482  11.359  1.8828  0.5533 -1.5055
   90MOL0     H11848   7.814   7.766  11.296 -0.6006 -1.0594  0.1338
   90MOL0     H11849   7.960   7.709  11.249  1.8473  0.1880  1.8374
   90MOL0     H11850   8.030   7.670  11.485 -0.1760  0.4763  0.5990
   90MOL0     H11851   7.869   7.701  11.547 -1.6265  3.0397 -0.2026
   90MOL0     H11852   8.051   7.898  11.394 -0.1843 -3.0548 -0.3973
   90MOL0     H11853   7.895   7.946  11.437  1.3010 -0.6304 -2.3536
   90MOL0     H11854   8.107   7.849  11.632 -2.2499 -2.8049 -1.6498
   90MOL0     H11855   7.959   7.918  11.695  0.3510 -2.2682  0.9346
   90MOL0     H11856   8.134   8.068  11.715 -1.0555 -0.1192 -0.4933
   90MOL0     H11857   8.016   8.142  11.613  0.7636  0.3894 -1.6090
   90MOL0     H11858   8.263   8.001  11.504  1.5515  0.9185  1.3632
   90MOL0     H11859   8.139   8.088  11.409 -0.4026 -0.7966  0.0355
   90MOL0     H11860   8.317   8.232  11.431 -0.3277  1.2779  1.0917
   90MOL0     H11861   8.304   8.221  11.615  0.6775 -5.2511  0.4390
   90MOL0     H11862   7.737   7.347  11.268 -0.3837  2.5661  0.8704
   90MOL0     H11863   7.556   7.159  11.245 -0.3456 -0.9993  0.8376
   90MOL0     H11864   6.966   7.272  11.483 -0.7354 -0.0916 -1.5987
   90MOL0     H11865   6.785   7.150  11.569  1.0960  2.1043 -1.3629
   90MOL0     H11866   5.491   6.379  11.092  0.4256  0.6429 -1.0108
   90MOL0     H11867   5.497   6.126  11.043 -1.2807 -1.3405 -0.4115
   90MOL0     H11868   5.590   5.748  11.216  0.7960 -0.1027 -0.3697
   90MOL0     H11869   5.637   5.523  11.196 -0.0057  0.8963 -1.3492
   90MOL0     H11870   5.331   5.286  10.945 -1.7458  0.6797  1.3917
   90MOL0     H11871   5.271   5.253  11.095 -1.0857 -0.2343 -1.3979
   90MOL0     H11872   5.437   5.070  11.146  2.9420 -0.1413  0.0176
   90MOL0     H11873   5.322   5.041  11.010 -1.4498  1.8845  0.5700
   90MOL0     H11874   5.615   5.121  10.975  0.4626  1.0275 -3.8759
   90MOL0     H11875   5.520   5.105  10.845 -0.7961  2.3512  2.0888
   90MOL0     H11876   5.536   4.853  11.024  1.0436 -1.3760 -1.9138
   90MOL0     H11877   5.490   4.881  10.848 -0.0955 -2.0989  0.0157
   90MOL0     H11878   5.900   4.793  10.835  1.6412  4.1059  0.9635
   90MOL0     H11879   5.233   5.467  11.026  0.6215  2.5366 -2.0517
   90MOL0     H11880   5.173   5.686  11.097 -0.8860 -1.7207  1.4415
   91MOL0     O11881   9.214   2.506   3.387  0.0293  0.4705 -0.7083
   91MOL0     C11882   9.277   2.440   3.302  0.7418 -0.5869  1.3432
   91MOL0     O11883   9.252   2.449   3.170  0.7851 -0.8257 -0.7659
   91MOL0     C11884   9.131   2.515   3.130 -0.7649  0.4352 -0.6480
   91MOL0     C11885   9.139   2.590   3.018  0.1729  0.8753 -0.8035
   91MOL0     C11886   9.019   2.653   2.966 -0.1314 -0.6414  0.5668
   91MOL0     C11887   8.897   2.630   3.025 -1.3886 -0.2504  0.0807
   91MOL0     O11888   8.783   2.705   3.005 -0.0846 -0.3286 -0.4802
   91MOL0     C11889   8.788   2.844   2.982 -0.3765  0.3192 -0.3637
   91MOL0     C11890   8.642   2.903   2.966  0.4449 -0.3510 -0.4473
   91MOL0     C11891   8.662   3.047   2.916 -1.3066  0.7102  0.6069
   91MOL0     C11892   8.534   3.127   2.907 -1.3689  0.1233  0.2867
   91MOL0     C11893   8.563   3.254   2.844 -0.3867 -0.4201  0.6752
   91MOL0     C11894   8.663   3.347   2.924  0.7805  1.3495 -0.6062
   91MOL0     C11895   8.786   3.394   2.841  0.3337 -0.7767  0.7458
   91MOL0     C11896   8.752   3.517   2.754  0.2615  1.1041 -0.6799
   91MOL0     N11897   8.725   3.633   2.836 -0.4974 -0.2212 -0.5524
   91MOL0     C11898   8.817   3.700   2.907 -1.0423 -0.2027 -0.2340
   91MOL0     C11899   8.766   3.822   2.942 -0.2555  0.4072 -0.8532
   91MOL0     C11900   8.842   3.920   3.031 -0.0533  0.1773 -0.0618
   91MOL0     C11901   8.892   4.035   2.940  0.5433 -0.1179  1.2098
   91MOL0     C11902   9.000   3.994   2.829  0.4146 -1.0793 -0.2611
   91MOL0     C11903   9.129   3.964   2.904 -0.5593 -0.1319  0.3679
   91MOL0     O11904   9.239   3.959   2.814  0.6602  0.0435 -0.2649
   91MOL0     C11905   9.369   3.942   2.852  0.0836 -0.6935 -0.1495
   91MOL0     C11906   9.465   3.934   2.751 -0.2888 -0.0130 -0.0997
   91MOL0     C11907   9.604   3.944   2.779  0.2949  0.2283  0.8162
   91MOL0     C11908   9.637   3.930   2.912  0.3018  0.1759  0.9366
   91MOL0     C11909   9.775   3.921   2.945 -0.4322  0.7833 -1.7583
   91MOL0     O11910   9.876   3.905   2.849  0.4606  0.6450  0.8066
   91MOL0     C11911  10.003   3.885   2.878 -0.0602  0.0490  0.0199
   91MOL0     C11912  10.068   3.770   2.830  1.4947  0.5196  0.3907
   91MOL0     C11913  10.200   3.735   2.865  0.2894  0.1124  0.6158
   91MOL0     C11914  10.271   3.835   2.931 -0.4448  0.1442 -0.0619
   91MOL0     O11915  10.407   3.813   2.952  0.6659  0.0612  0.1146
   91MOL0     C11916  10.450   3.817   3.089 -0.0817 -0.3946  0.6447
   91MOL0     C11917  10.567   3.722   3.096 -0.4156  0.1945  0.0297
   91MOL0     C11918  10.623   3.706   3.239  0.5673 -0.4697  0.2379
   91MOL0     C11919  10.763   3.637   3.243 -0.1188 -0.7664 -0.7400
   91MOL0     C11920  10.820   3.630   3.392  0.0170 -0.5706  0.0372
   91MOL0     C11921  10.754   3.507   3.470  0.2414  0.8260  0.4680
   91MOL0     C11922  10.799   3.471   3.611 -0.2769  0.4525  0.0402
   91MOL0     C11923  10.785   3.584   3.717  0.0496  0.2295  0.0436
   91MOL0    Cl11924  10.901   3.726   3.688  0.2861  0.0887 -0.1590
   91MOL0     C11925  10.216   3.957   2.964  1.0159 -0.2812  0.5112
   91MOL0     C11926  10.077   3.982   2.953 -0.5408 -0.3704 -0.4370
   91MOL0     O11927   9.800   3.919   3.067  0.3437  0.0173  0.3830
   91MOL0     C11928   9.543   3.933   3.016 -0.3359  0.1278 -0.6536
   91MOL0     C11929   9.408   3.942   2.985 -0.0589 -0.7377 -0.2548
   91MOL0     N11930   8.631   3.825   2.897  0.3645  0.1776 -1.0479
   91MOL0     N11931   8.614   3.712   2.833 -0.1530  0.4291  0.0348
   91MOL0     C11932   8.891   2.533   3.122 -0.5726  0.2632  0.1816
   91MOL0     C11933   9.005   2.473   3.179  0.3385  0.0901  0.7688
   91MOL0     C11934   9.378   2.341   3.350  1.1596 -0.7632  0.1531
   91MOL0     C11935   9.428   2.244   3.256  0.6811 -0.3091  0.2391
   91MOL0     C11936   9.535   2.154   3.287 -0.2480  0.2668  0.6970
   91MOL0     C11937   9.586   2.156   3.419 -0.2317  0.3248 -0.3616
   91MOL0     O11938   9.669   2.063   3.462  0.3664  0.6402 -0.1319
   91MOL0     C11939   9.806   2.108   3.473  0.2952 -0.6174  0.2290
   91MOL0     C11940   9.891   1.982   3.504 -0.4576 -0.2062 -0.1348
   91MOL0     C11941  10.030   2.025   3.541  0.6303 -0.3964 -1.0034
   91MOL0     C11942  10.127   1.962   3.437 -0.1198 -0.1994 -1.0129
   91MOL0     C11943  10.145   1.819   3.466  0.1275 -0.8892 -0.4388
   91MOL0     C11944  10.155   1.700   3.467 -0.5165 -0.3537 -0.2843
   91MOL0     C11945   9.532   2.257   3.510  0.3106  0.6653 -0.2258
   91MOL0     C11946   9.430   2.345   3.483  0.4671  0.6797 -0.6627
   91MOL0     H11947   9.235   2.616   2.974  0.3737  0.1555 -0.7919
   91MOL0     H11948   9.014   2.722   2.883 -0.9336 -0.5485  0.6804
   91MOL0     H11949   8.841   2.869   2.890 -1.9548  0.9217 -1.1342
   91MOL0     H11950   8.839   2.886   3.069  0.1322  0.3317 -0.6621
   91MOL0     H11951   8.602   2.901   3.068  1.2790  2.9804  0.0539
   91MOL0     H11952   8.583   2.849   2.891 -0.2430 -0.2003 -0.0259
   91MOL0     H11953   8.702   3.037   2.814  2.2955 -0.8612  1.9892
   91MOL0     H11954   8.743   3.105   2.962 -1.2894  0.3673  1.0127
   91MOL0     H11955   8.459   3.069   2.852 -0.7446 -0.8732  0.4480
   91MOL0     H11956   8.504   3.135   3.012  0.8862 -1.2123  1.0927
   91MOL0     H11957   8.470   3.292   2.800 -0.6130 -0.6564  0.9436
   91MOL0     H11958   8.622   3.218   2.759 -1.1847 -1.1110  0.4033
   91MOL0     H11959   8.682   3.287   3.014  0.3885  0.3502 -1.1737
   91MOL0     H11960   8.621   3.439   2.965  1.6013  1.3562  0.2706
   91MOL0     H11961   8.872   3.415   2.905  0.1429 -1.0677  1.0974
   91MOL0     H11962   8.817   3.321   2.766 -0.8540 -0.2585 -0.3078
   91MOL0     H11963   8.674   3.490   2.682  0.8031 -2.0043 -0.2493
   91MOL0     H11964   8.845   3.549   2.707  3.5007 -2.1487  2.7555
   91MOL0     H11965   8.914   3.664   2.937 -0.5286  1.0060 -0.3902
   91MOL0     H11966   8.922   3.860   3.076  0.6104  1.1864  0.1535
   91MOL0     H11967   8.779   3.961   3.110 -0.7446  1.0859 -1.0521
   91MOL0     H11968   8.927   4.116   3.004 -0.2500  0.9960  0.2763
   91MOL0     H11969   8.807   4.072   2.882  0.9502  0.2284  0.8324
   91MOL0     H11970   8.974   3.912   2.761 -2.9314 -0.4352  0.0690
   91MOL0     H11971   9.025   4.087   2.776  2.0147  0.8024  3.4331
   91MOL0     H11972   9.115   3.874   2.964 -0.9477  0.4394  1.1573
   91MOL0     H11973   9.143   4.050   2.971  0.3436  0.4721 -0.5663
   91MOL0     H11974   9.441   3.939   2.645 -1.9064 -0.8035  0.1920
   91MOL0     H11975   9.675   3.945   2.697 -1.0556 -0.2656 -0.3888
   91MOL0     H11976  10.007   3.701   2.773  0.4256  4.3442 -3.6712
   91MOL0     H11977  10.253   3.649   2.823 -0.9091  0.3906 -1.6004
   91MOL0     H11978  10.369   3.789   3.157 -0.9785  1.7521  0.5393
   91MOL0     H11979  10.492   3.913   3.121  3.8871 -1.2264 -1.4265
   91MOL0     H11980  10.642   3.782   3.043  1.2404 -1.0969  0.8096
   91MOL0     H11981  10.551   3.625   3.050  0.2299  0.3481 -0.5383
   91MOL0     H11982  10.553   3.656   3.306 -0.9670  0.5699 -0.5392
   91MOL0     H11983  10.622   3.804   3.289 -0.0876 -0.5870  0.4641
   91MOL0     H11984  10.741   3.533   3.216  1.6967 -1.2280 -0.5609
   91MOL0     H11985  10.841   3.687   3.184  2.0824 -0.2099  2.4071
   91MOL0     H11986  10.814   3.727   3.442  1.2632 -0.9247  0.9215
   91MOL0     H11987  10.925   3.600   3.390 -0.3394 -1.8318 -1.2592
   91MOL0     H11988  10.758   3.424   3.398  1.4309  2.4564 -1.4698
   91MOL0     H11989  10.653   3.548   3.479  0.3693  0.8305  2.2532
   91MOL0     H11990  10.734   3.392   3.648  1.3851  0.7169  4.0805
   91MOL0     H11991  10.897   3.423   3.616 -2.2936 -4.1138  0.2674
   91MOL0     H11992  10.807   3.546   3.817  0.2398 -0.0540 -0.1044
   91MOL0     H11993  10.681   3.620   3.714 -0.8534 -2.2847 -1.4553
   91MOL0     H11994  10.284   4.027   3.011 -0.3248 -0.3492  2.6893
   91MOL0     H11995  10.051   4.083   2.981  0.7077 -0.5433  1.5279
   91MOL0     H11996   9.575   3.936   3.120  2.3330 -0.4753 -1.3897
   91MOL0     H11997   9.337   3.964   3.064 -2.8058  4.5991 -3.5922
   91MOL0     H11998   8.791   2.500   3.147 -1.0636  0.2522 -1.6566
   91MOL0     H11999   9.000   2.398   3.257 -2.2540 -2.2047 -1.3525
   91MOL0     H12000   9.390   2.262   3.156 -0.2204  0.0969  0.6389
   91MOL0     H12001   9.580   2.083   3.219  0.9030  0.3712  1.3344
   91MOL0     H12002   9.800   2.184   3.551  0.0994 -1.9231  1.5440
   91MOL0     H12003   9.839   2.149   3.377 -1.0093 -1.3896 -0.5676
   91MOL0     H12004   9.849   1.933   3.592  4.7709  2.2523  4.2760
   91MOL0     H12005   9.890   1.907   3.424  1.4137 -0.9165  0.4578
   91MOL0     H12006  10.072   2.010   3.641  0.5722 -1.6302 -1.1500
   91MOL0     H12007  10.030   2.134   3.541 -0.0727 -0.3958 -1.1090
   91MOL0     H12008  10.100   1.987   3.334  1.7437  2.8200 -0.8901
   91MOL0     H12009  10.225   2.004   3.461  0.3633 -0.8726 -1.7492
   91MOL0     H12010  10.172   1.594   3.471 -0.9883 -0.6433 -3.4875
   91MOL0     H12011   9.576   2.262   3.609  1.8755  2.1352 -0.9447
   91MOL0     H12012   9.392   2.420   3.551 -1.4727 -1.8623  1.2606
   92MOL0     O12013  10.753   4.724   3.232 -0.7296  0.9671 -0.2543
   92MOL0     C12014  10.850   4.644   3.214 -0.0591 -0.3805 -0.9919
   92MOL0     O12015  10.972   4.662   3.282  0.5128 -0.1898  0.7335
   92MOL0     C12016  11.016   4.774   3.360 -0.1311 -0.6067 -0.5268
   92MOL0     C12017  10.936   4.879   3.423 -0.4503 -0.3192 -0.6942
   92MOL0     C12018  10.983   4.979   3.514  0.7106  0.9335 -0.1675
   92MOL0     C12019  11.120   4.984   3.522  0.6903  0.0416 -0.5009
   92MOL0     O12020  11.194   5.067   3.602 -1.2560  0.3024  0.0350
   92MOL0     C12021  11.135   5.196   3.646  0.6545  0.4806 -0.2786
   92MOL0     C12022  11.222   5.265   3.761  0.4321  0.1896  0.4360
   92MOL0     C12023  11.366   5.295   3.719 -0.4083  0.2848  1.5955
   92MOL0     C12024  11.422   5.404   3.813  1.5426 -0.2386  0.5706
   92MOL0     C12025  11.553   5.462   3.764  0.3022 -0.1519 -0.7889
   92MOL0     C12026  11.541   5.579   3.657 -0.6419  0.0578 -0.0984
   92MOL0     C12027  11.667   5.613   3.595  0.5837  0.6736  0.6886
   92MOL0     C12028  11.773   5.662   3.699 -0.6032  0.9499 -0.9602
   92MOL0     N12029  11.887   5.736   3.643 -0.5100 -0.0048  0.1436
   92MOL0     C12030  11.964   5.824   3.714 -0.1237  0.4120 -0.2425
   92MOL0     C12031  12.066   5.859   3.627 -0.3519 -0.8944  1.3507
   92MOL0     C12032  12.182   5.952   3.659  0.0584 -0.1190  0.9792
   92MOL0     C12033  12.312   5.877   3.677 -0.1927 -0.1770  0.5498
   92MOL0     C12034  12.332   5.802   3.806  0.1060 -0.9766  0.1960
   92MOL0     C12035  12.467   5.742   3.824  0.0840  0.2644  0.5083
   92MOL0     O12036  12.483   5.663   3.950  0.6749 -0.2408  0.5952
   92MOL0     C12037  12.458   5.525   3.955 -0.6114 -0.0909  1.1355
   92MOL0     C12038  12.399   5.452   3.860  0.6623  0.5470  0.7193
   92MOL0     C12039  12.377   5.307   3.876  0.1458 -0.9145 -0.5150
   92MOL0     C12040  12.436   5.249   3.983 -0.1002  0.0952 -0.3664
   92MOL0     C12041  12.423   5.107   4.013 -0.2972 -0.2073 -0.8692
   92MOL0     O12042  12.488   5.066   4.134 -0.1801  0.1622 -0.1048
   92MOL0     C12043  12.483   4.941   4.187  0.7272 -0.4999  0.8261
   92MOL0     C12044  12.598   4.859   4.198  0.5227  0.0113  0.4892
   92MOL0     C12045  12.586   4.741   4.262 -0.0158  0.1780  0.6267
   92MOL0     C12046  12.467   4.677   4.300  0.8453 -0.7785 -0.0167
   92MOL0     O12047  12.478   4.553   4.352 -0.9501 -0.1694 -0.0853
   92MOL0     C12048  12.372   4.483   4.411 -0.5537  0.1994  0.0199
   92MOL0     C12049  12.275   4.431   4.318 -0.3997  1.4765 -0.6137
   92MOL0     C12050  12.151   4.374   4.388  0.8086  0.6691 -0.2501
   92MOL0     C12051  12.157   4.230   4.444  0.7383  0.6644 -0.4377
   92MOL0     C12052  12.195   4.124   4.333 -0.0824  0.3660 -0.0413
   92MOL0     C12053  12.204   3.983   4.407 -0.4955  0.2531 -0.7425
   92MOL0     C12054  12.235   3.877   4.292 -0.7203 -0.2324 -0.1275
   92MOL0     C12055  12.231   3.730   4.329  0.9304 -0.5575 -0.6654
   92MOL0    Cl12056  12.325   3.682   4.475 -0.3301  0.4797  0.3692
   92MOL0     C12057  12.351   4.760   4.297  0.4574 -0.5291  0.5359
   92MOL0     C12058  12.357   4.887   4.237 -1.3361  0.5029 -0.2811
   92MOL0     O12059  12.371   5.033   3.928  0.0994  0.1212  0.4804
   92MOL0     C12060  12.495   5.328   4.082  0.2644  0.4636  0.1659
   92MOL0     C12061  12.506   5.464   4.069 -0.3458  0.3169 -0.6299
   92MOL0     N12062  12.048   5.797   3.501  0.8276 -0.1499  0.4283
   92MOL0     N12063  11.945   5.719   3.513  1.1270  0.2479 -0.0432
   92MOL0     C12064  11.205   4.887   3.450 -0.4605  0.0421 -1.0791
   92MOL0     C12065  11.155   4.784   3.375 -0.1401 -0.7954  0.4696
   92MOL0     C12066  10.827   4.525   3.124  0.3292 -0.3374 -0.3314
   92MOL0     C12067  10.698   4.499   3.069  0.5829 -1.0043 -0.4668
   92MOL0     C12068  10.670   4.383   2.992 -0.1416 -0.8773 -0.5111
   92MOL0     C12069  10.781   4.302   2.957  0.3326 -1.0556 -0.7611
   92MOL0     O12070  10.774   4.220   2.852 -0.7886  0.1669 -0.6342
   92MOL0     C12071  10.726   4.089   2.879 -1.5173 -1.1596  0.1306
   92MOL0     C12072  10.593   4.064   2.814  0.4083 -0.6083  0.2145
   92MOL0     C12073  10.587   4.087   2.662 -0.3225  0.0457 -0.1914
   92MOL0     C12074  10.468   4.015   2.596 -0.5065  0.4760 -0.2291
   92MOL0     C12075  10.343   4.097   2.626 -0.2706  0.4364 -0.2168
   92MOL0     C12076  10.252   4.172   2.640  0.2900 -0.4193  0.0455
   92MOL0     C12077  10.906   4.331   3.008  0.1434  0.6890 -0.2726
   92MOL0     C12078  10.926   4.432   3.102  0.9340  0.6842 -0.3405
   92MOL0     H12079  10.831   4.881   3.395 -0.3807  3.7054 -1.1463
   92MOL0     H12080  10.911   5.042   3.566 -1.4144  0.0850 -1.9349
   92MOL0     H12081  11.036   5.181   3.691  0.4304  1.1750 -0.5257
   92MOL0     H12082  11.125   5.260   3.558 -2.1499  1.0956  0.3882
   92MOL0     H12083  11.234   5.201   3.849  4.4017 -1.1494 -0.8598
   92MOL0     H12084  11.163   5.355   3.781 -0.0212  0.1990 -0.8459
   92MOL0     H12085  11.358   5.337   3.618  0.4639  1.3290  1.9413
   92MOL0     H12086  11.428   5.205   3.713  0.4928  0.9322  0.9171
   92MOL0     H12087  11.345   5.479   3.834 -1.1962 -3.2064  2.1335
   92MOL0     H12088  11.438   5.352   3.908  0.2209 -0.6008  0.6208
   92MOL0     H12089  11.614   5.376   3.735  1.5762  0.7043 -0.7084
   92MOL0     H12090  11.606   5.497   3.852 -0.2053  0.8060 -0.8481
   92MOL0     H12091  11.494   5.668   3.700  0.6095 -0.0616  1.5812
   92MOL0     H12092  11.477   5.532   3.582 -0.1521 -2.8656  1.2160
   92MOL0     H12093  11.699   5.523   3.542  0.8206  2.5922 -2.7837
   92MOL0     H12094  11.639   5.683   3.516 -0.7059  0.1921  0.6985
   92MOL0     H12095  11.808   5.588   3.771 -0.9549  0.6555 -1.0859
   92MOL0     H12096  11.703   5.729   3.749 -0.3799 -1.8241  3.6557
   92MOL0     H12097  11.942   5.867   3.811 -2.1743  2.6878 -1.6092
   92MOL0     H12098  12.145   6.012   3.743 -3.1681  0.3265 -0.5909
   92MOL0     H12099  12.189   6.018   3.572  2.9400 -1.4978  0.0630
   92MOL0     H12100  12.397   5.945   3.688  1.3339 -2.2819  2.5545
   92MOL0     H12101  12.335   5.806   3.598  1.1924 -3.0797  3.3155
   92MOL0     H12102  12.312   5.863   3.895 -0.3786  1.7949 -1.6580
   92MOL0     H12103  12.259   5.721   3.798 -1.1988  0.1274  0.5892
   92MOL0     H12104  12.539   5.824   3.829  0.1781  0.4100 -1.9545
   92MOL0     H12105  12.493   5.670   3.746 -2.3159 -1.8480  1.5000
   92MOL0     H12106  12.372   5.501   3.767  2.1031 -2.6430 -1.6017
   92MOL0     H12107  12.311   5.254   3.808  0.4919 -1.9274 -0.0806
   92MOL0     H12108  12.694   4.892   4.160  1.4917 -0.6748  2.2353
   92MOL0     H12109  12.676   4.680   4.258  0.4927  0.8444  1.5641
   92MOL0     H12110  12.312   4.549   4.474 -2.4954 -0.8382 -0.6276
   92MOL0     H12111  12.417   4.403   4.470  0.7091  0.4459 -0.5771
   92MOL0     H12112  12.317   4.346   4.264 -0.3295 -0.5712  2.4280
   92MOL0     H12113  12.245   4.499   4.237 -0.3332  3.5492  1.0395
   92MOL0     H12114  12.077   4.368   4.308  1.1346  0.4531 -0.5425
   92MOL0     H12115  12.110   4.439   4.466  1.3613  0.2047  0.4389
   92MOL0     H12116  12.237   4.240   4.518 -0.2104  2.0635  0.4231
   92MOL0     H12117  12.055   4.202   4.472 -0.7818  3.5924 -2.5158
   92MOL0     H12118  12.292   4.152   4.291 -0.6223 -1.6493 -2.9352
   92MOL0     H12119  12.122   4.115   4.251 -0.9623  0.4761  0.7180
   92MOL0     H12120  12.109   3.971   4.460 -0.7004 -1.2241 -1.3811
   92MOL0     H12121  12.279   3.983   4.487 -2.3813 -0.0599  1.1271
   92MOL0     H12122  12.175   3.901   4.204  1.4986  2.0002 -1.1560
   92MOL0     H12123  12.336   3.885   4.251 -0.1508 -0.6207  1.1585
   92MOL0     H12124  12.253   3.669   4.241 -0.3353  1.2525 -2.3289
   92MOL0     H12125  12.129   3.718   4.368  0.3529  1.1963 -1.4973
   92MOL0     H12126  12.255   4.720   4.329 -0.6353  2.5135  1.4140
   92MOL0     H12127  12.272   4.954   4.232 -2.7993 -1.2151  0.6168
   92MOL0     H12128  12.534   5.287   4.175 -0.3335 -1.1985 -0.2711
   92MOL0     H12129  12.546   5.530   4.145 -0.9335  2.0644 -1.7714
   92MOL0     H12130  11.313   4.901   3.450 -0.5389  1.1688 -3.5200
   92MOL0     H12131  11.220   4.715   3.323  1.1095  0.1681  0.6902
   92MOL0     H12132  10.618   4.569   3.092  1.3738  0.2013 -1.2215
   92MOL0     H12133  10.572   4.350   2.961  0.2410  0.4624 -3.4573
   92MOL0     H12134  10.704   4.064   2.983 -0.7166 -1.9637  0.1146
   92MOL0     H12135  10.795   4.015   2.839 -1.4267 -0.3049 -1.3981
   92MOL0     H12136  10.560   3.963   2.838 -0.9388 -0.1167  0.5236
   92MOL0     H12137  10.522   4.139   2.851  2.0195  0.4330  1.3037
   92MOL0     H12138  10.667   4.025   2.620 -1.3546 -1.7237  0.3897
   92MOL0     H12139  10.584   4.194   2.639 -5.0829  0.8597  2.8346
   92MOL0     H12140  10.483   3.999   2.489  5.3913  0.2477  0.2715
   92MOL0     H12141  10.473   3.912   2.632 -1.7113  1.1466  2.0558
   92MOL0     H12142  10.171   4.241   2.631 -1.0493 -2.0219 -0.5606
   92MOL0     H12143  10.985   4.257   2.999 -1.6054 -1.4336  0.5561
   92MOL0     H12144  11.023   4.450   3.147  0.9196 -1.4164  0.6771
   93MOL0     O12145   7.495   5.084   7.946 -0.7617 -0.7500  0.3181
   93MOL0     C12146   7.429   5.147   8.027 -0.7272 -0.3385  0.6040
   93MOL0     O12147   7.475   5.247   8.109 -0.6736 -0.0170  0.0294
   93MOL0     C12148   7.614   5.278   8.111  0.1137  0.8511 -0.1637
   93MOL0     C12149   7.665   5.374   8.024 -1.4133 -0.0483 -0.7323
   93MOL0     C12150   7.800   5.415   8.022 -0.5572 -0.1034  0.9677
   93MOL0     C12151   7.881   5.364   8.117 -0.7355  0.4803 -1.0596
   93MOL0     O12152   8.009   5.413   8.122  0.0527 -0.5921 -0.0905
   93MOL0     C12153   8.114   5.341   8.191  0.3526 -0.1067  0.5455
   93MOL0     C12154   8.265   5.384   8.160 -0.3839 -0.2771  0.1111
   93MOL0     C12155   8.298   5.512   8.235  0.0834 -0.0188  0.0218
   93MOL0     C12156   8.456   5.548   8.227 -0.2904 -0.2767  0.7623
   93MOL0     C12157   8.494   5.682   8.283 -0.1774 -0.9210  0.3597
   93MOL0     C12158   8.476   5.678   8.436 -0.3682 -0.0940  0.2595
   93MOL0     C12159   8.498   5.820   8.493 -0.5228  0.1580 -0.0929
   93MOL0     C12160   8.544   5.813   8.640  0.0922  0.1896 -0.0447
   93MOL0     N12161   8.437   5.747   8.706 -0.5299  0.2571  0.9270
   93MOL0     C12162   8.308   5.786   8.727  0.7587 -0.2196  0.5925
   93MOL0     C12163   8.250   5.697   8.802  0.0918 -0.2604 -1.1043
   93MOL0     C12164   8.106   5.697   8.847  0.6269 -0.0148  0.1583
   93MOL0     C12165   8.101   5.656   8.996 -0.8267 -0.0736  0.2674
   93MOL0     C12166   8.195   5.730   9.092  0.1688  0.8754  0.5609
   93MOL0     C12167   8.185   5.882   9.095 -0.0046 -0.1448  0.2885
   93MOL0     O12168   8.046   5.903   9.136 -0.4159  0.4634 -0.0991
   93MOL0     C12169   8.006   6.032   9.167 -0.7002 -1.0800 -0.3453
   93MOL0     C12170   8.081   6.154   9.158 -0.1853  0.4154 -1.0387
   93MOL0     C12171   8.031   6.274   9.206 -0.0312 -1.6239  0.6817
   93MOL0     C12172   7.903   6.286   9.258  1.0942 -0.0443 -0.0677
   93MOL0     C12173   7.833   6.420   9.290 -0.3714 -0.6594  0.3368
   93MOL0     O12174   7.710   6.421   9.340  0.0496 -0.1597 -0.5859
   93MOL0     C12175   7.636   6.535   9.332 -0.5351 -0.2337 -0.5407
   93MOL0     C12176   7.604   6.592   9.455  0.6326 -0.0547 -0.9405
   93MOL0     C12177   7.528   6.708   9.464 -0.1839  0.2071  0.1350
   93MOL0     C12178   7.489   6.775   9.344 -0.4930  0.3227 -0.2038
   93MOL0     O12179   7.432   6.902   9.332 -0.0710 -0.0722 -0.6416
   93MOL0     C12180   7.361   6.948   9.450 -1.3344  0.1239 -0.0070
   93MOL0     C12181   7.341   7.100   9.438 -0.7268 -0.5661  0.2836
   93MOL0     C12182   7.454   7.197   9.489 -0.0769 -0.2006  0.1555
   93MOL0     C12183   7.427   7.342   9.455 -0.1280  0.0975 -1.3663
   93MOL0     C12184   7.350   7.402   9.563 -0.0947  0.4222 -0.4072
   93MOL0     C12185   7.364   7.557   9.557  0.0553  0.6316 -0.1567
   93MOL0     C12186   7.255   7.639   9.623  0.9727  0.2891  0.0546
   93MOL0     C12187   7.285   7.798   9.608  0.4511 -0.3058  0.2758
   93MOL0    Cl12188   7.310   7.836   9.438  0.3247  0.1272 -0.3526
   93MOL0     C12189   7.517   6.722   9.224  0.0282  0.5590  0.7692
   93MOL0     C12190   7.589   6.601   9.209  0.6763  0.4356 -0.9674
   93MOL0     O12191   7.886   6.518   9.233  0.1524  1.1478  0.2366
   93MOL0     C12192   7.816   6.169   9.263 -0.2859 -0.1434  0.0930
   93MOL0     C12193   7.868   6.037   9.217  0.0258 -0.2783  0.7605
   93MOL0     N12194   8.346   5.597   8.820 -0.2000  0.8760 -0.1478
   93MOL0     N12195   8.457   5.630   8.765 -0.0534  0.1190  0.1275
   93MOL0     C12196   7.830   5.275   8.213  0.2628  0.9064 -0.2243
   93MOL0     C12197   7.696   5.239   8.217  1.1774 -0.2659  0.9368
   93MOL0     C12198   7.291   5.111   8.034  0.7665 -0.4989  0.3575
   93MOL0     C12199   7.182   5.196   8.087 -0.1848 -0.1506  0.2900
   93MOL0     C12200   7.051   5.157   8.080  0.5588 -1.5112  0.7995
   93MOL0     C12201   7.012   5.036   8.036  0.5630  0.2389  0.3455
   93MOL0     O12202   6.889   4.991   8.020  0.2237  0.0892  0.3471
   93MOL0     C12203   6.785   5.063   8.081 -0.4982  1.0225  0.4006
   93MOL0     C12204   6.658   4.985   8.077  0.6695  0.2675 -0.8729
   93MOL0     C12205   6.677   4.850   8.148 -0.1892  0.7309  0.7513
   93MOL0     C12206   6.551   4.762   8.155  0.4194 -0.0673  0.0978
   93MOL0     C12207   6.545   4.699   8.290 -0.0505 -1.3535  0.2208
   93MOL0     C12208   6.558   4.663   8.408 -0.0462  0.2268 -0.6717
   93MOL0     C12209   7.111   4.950   7.990 -0.6213  1.2814 -0.1815
   93MOL0     C12210   7.245   4.987   7.989 -0.0754  0.3098 -0.9952
   93MOL0     H12211   7.597   5.421   7.953 -2.6948  1.0236  1.0905
   93MOL0     H12212   7.844   5.483   7.950 -1.3152  0.5712  1.1295
   93MOL0     H12213   8.114   5.234   8.169 -2.0456  0.4592 -3.1612
   93MOL0     H12214   8.121   5.362   8.298  2.8548  4.3454 -0.2038
   93MOL0     H12215   8.282   5.388   8.052 -1.4644  4.2788 -0.1165
   93MOL0     H12216   8.335   5.310   8.199  2.4483  1.7223 -0.8785
   93MOL0     H12217   8.267   5.493   8.338  0.6525 -4.4741 -0.4140
   93MOL0     H12218   8.235   5.594   8.199 -1.9190 -0.4662  2.2863
   93MOL0     H12219   8.506   5.470   8.285  2.1799  0.0712 -0.7478
   93MOL0     H12220   8.487   5.537   8.122 -2.8066 -1.3963  0.0594
   93MOL0     H12221   8.426   5.755   8.239 -0.7953 -1.4945  0.3480
   93MOL0     H12222   8.600   5.707   8.273 -0.2835  1.7012  3.8554
   93MOL0     H12223   8.547   5.602   8.469  0.2443 -0.1953 -1.1993
   93MOL0     H12224   8.379   5.642   8.471 -0.0188  0.7008  2.1694
   93MOL0     H12225   8.570   5.875   8.433 -2.5465  2.4628 -0.5630
   93MOL0     H12226   8.413   5.886   8.473 -0.5788 -0.1883 -1.0281
   93MOL0     H12227   8.545   5.909   8.693 -0.1448  1.3556 -2.0447
   93MOL0     H12228   8.639   5.761   8.653  0.3134 -0.4200 -3.2295
   93MOL0     H12229   8.262   5.872   8.678 -1.0551 -2.1463 -1.2850
   93MOL0     H12230   8.056   5.611   8.801  0.4703  1.0019 -1.6490
   93MOL0     H12231   8.064   5.796   8.829  0.1037  0.4310  3.2858
   93MOL0     H12232   8.119   5.549   9.007 -1.1062 -0.4976 -2.5434
   93MOL0     H12233   7.999   5.680   9.027 -0.9315 -2.5613  2.0983
   93MOL0     H12234   8.173   5.693   9.193 -0.7885 -0.2471 -0.0373
   93MOL0     H12235   8.294   5.696   9.063 -0.6528 -0.0581 -1.3359
   93MOL0     H12236   8.220   5.927   9.001  1.1042  0.2606  0.8833
   93MOL0     H12237   8.258   5.927   9.163  1.0524  0.3115 -1.1012
   93MOL0     H12238   8.182   6.161   9.120  0.6365 -2.3670  0.3995
   93MOL0     H12239   8.089   6.366   9.200  1.1016 -2.4041 -1.4065
   93MOL0     H12240   7.633   6.551   9.551  0.7473  3.2616  0.5453
   93MOL0     H12241   7.515   6.748   9.564 -1.5654  0.6269 -0.1897
   93MOL0     H12242   7.419   6.922   9.539  1.0643  0.2132 -1.4438
   93MOL0     H12243   7.269   6.890   9.452 -0.6285 -1.0201  1.7018
   93MOL0     H12244   7.251   7.125   9.494  0.0803  3.0454  0.2693
   93MOL0     H12245   7.316   7.132   9.336  1.8596 -4.0888 -1.6885
   93MOL0     H12246   7.541   7.145   9.447 -0.5835 -1.5663  0.7176
   93MOL0     H12247   7.468   7.183   9.597  1.1285 -1.9857 -0.1845
   93MOL0     H12248   7.519   7.400   9.446 -0.1149  0.5777  1.1306
   93MOL0     H12249   7.374   7.354   9.360  1.2535  4.0314 -1.8355
   93MOL0     H12250   7.393   7.380   9.661 -1.4573  1.4748  0.4670
   93MOL0     H12251   7.248   7.363   9.553 -0.5561  1.3376  0.6058
   93MOL0     H12252   7.371   7.582   9.451  1.9934 -2.1976 -0.8237
   93MOL0     H12253   7.457   7.599   9.595 -0.2662  0.9919  0.2358
   93MOL0     H12254   7.161   7.618   9.571  1.3368 -5.8669  1.1225
   93MOL0     H12255   7.238   7.620   9.729  2.1974  0.0065  0.2121
   93MOL0     H12256   7.369   7.838   9.665 -0.0199 -0.7466  1.3257
   93MOL0     H12257   7.209   7.860   9.657  1.4453  2.6516 -1.6701
   93MOL0     H12258   7.489   6.779   9.135 -0.6716  2.3484  2.0744
   93MOL0     H12259   7.608   6.551   9.114 -0.3860 -4.2826  1.0307
   93MOL0     H12260   7.714   6.182   9.297  0.7203  1.3768  2.8283
   93MOL0     H12261   7.809   5.947   9.206 -2.3793  1.4785 -2.3289
   93MOL0     H12262   7.904   5.227   8.276 -0.3428 -0.8368 -0.7743
   93MOL0     H12263   7.647   5.165   8.279 -1.3996 -2.6942 -3.4517
   93MOL0     H12264   7.204   5.299   8.117  1.0468 -0.7134  1.4292
   93MOL0     H12265   6.985   5.238   8.110  1.6818 -0.7487  1.2813
   93MOL0     H12266   6.783   5.164   8.038 -0.2588 -0.0768 -2.3807
   93MOL0     H12267   6.821   5.081   8.183 -2.1451  0.3110  1.1442
   93MOL0     H12268   6.592   5.040   8.145 -0.5124 -1.6442 -0.3904
   93MOL0     H12269   6.613   4.987   7.978  3.1821  2.5621 -2.1101
   93MOL0     H12270   6.727   4.858   8.245  0.6612 -0.9307  0.4959
   93MOL0     H12271   6.741   4.790   8.083 -4.3659 -1.1993 -2.0636
   93MOL0     H12272   6.461   4.822   8.143 -2.5931 -3.6975  2.3622
   93MOL0     H12273   6.541   4.690   8.073 -1.9542  1.3772 -0.9693
   93MOL0     H12274   6.558   4.616   8.505 -2.7913 -1.3926 -1.3290
   93MOL0     H12275   7.083   4.856   7.943  2.2638  0.8134 -1.1365
   93MOL0     H12276   7.310   4.916   7.940 -1.1417 -1.8035  0.4793
   94MOL0     O12277   4.831   5.822   7.644  0.3894 -0.3853 -1.2995
   94MOL0     C12278   4.894   5.761   7.731  0.5478  0.0380 -0.1529
   94MOL0     O12279   4.982   5.652   7.712 -0.2897  0.0862 -0.2383
   94MOL0     C12280   5.020   5.614   7.587 -0.5042  0.8104  0.7067
   94MOL0     C12281   5.038   5.686   7.466 -0.2242 -0.2800 -0.5967
   94MOL0     C12282   5.078   5.623   7.352 -0.4723 -0.1364 -0.0003
   94MOL0     C12283   5.108   5.488   7.344 -0.9833  0.2572 -0.3907
   94MOL0     O12284   5.149   5.411   7.234  0.7402  0.4287  0.1776
   94MOL0     C12285   5.097   5.467   7.111  0.3826  0.1734 -0.0535
   94MOL0     C12286   5.078   5.363   6.996 -1.2963 -0.3254  0.2470
   94MOL0     C12287   4.964   5.266   7.027 -1.0196  0.6564  0.4386
   94MOL0     C12288   4.926   5.187   6.899  0.5816  0.4278  0.5950
   94MOL0     C12289   4.839   5.058   6.949 -0.2001 -0.0022 -0.4572
   94MOL0     C12290   4.777   4.976   6.850 -0.7160 -0.2446  0.4846
   94MOL0     C12291   4.638   5.032   6.823 -0.0540 -0.0993  0.6316
   94MOL0     C12292   4.572   4.954   6.712 -0.7602 -0.2658  0.2403
   94MOL0     N12293   4.430   4.950   6.704  0.2484  0.1506  0.1233
   94MOL0     C12294   4.357   4.917   6.587  0.6573 -0.0488 -1.5891
   94MOL0     C12295   4.230   4.936   6.633  0.3873  0.0193 -0.2249
   94MOL0     C12296   4.100   4.901   6.551 -0.7538 -0.6759  0.0088
   94MOL0     C12297   3.996   4.990   6.604 -0.4918 -0.4074 -0.0299
   94MOL0     C12298   3.866   4.983   6.518 -0.2809  0.8803 -0.6259
   94MOL0     C12299   3.762   5.071   6.574 -0.2077 -0.1310 -0.1011
   94MOL0     O12300   3.630   5.052   6.506 -0.4970  0.1996 -0.4468
   94MOL0     C12301   3.616   5.105   6.377 -0.3490 -0.4480  0.3534
   94MOL0     C12302   3.669   5.225   6.333  0.1531  0.0485  0.5519
   94MOL0     C12303   3.621   5.273   6.212 -0.3724  0.3416  0.1890
   94MOL0     C12304   3.541   5.200   6.127  0.4591 -0.4524 -1.0179
   94MOL0     C12305   3.512   5.255   5.991  0.8359  0.4168  0.4400
   94MOL0     O12306   3.431   5.178   5.914  0.1780  0.6475  0.2839
   94MOL0     C12307   3.402   5.226   5.788 -0.2873 -0.2767  0.6375
   94MOL0     C12308   3.286   5.295   5.764 -0.1578 -0.5651 -0.0320
   94MOL0     C12309   3.245   5.311   5.632  0.3113 -0.2408  1.0177
   94MOL0     C12310   3.324   5.271   5.521  0.3806  0.4814 -0.6517
   94MOL0     O12311   3.284   5.280   5.391 -0.4883  0.4145 -0.2679
   94MOL0     C12312   3.331   5.392   5.322 -0.1120  0.6160  0.8338
   94MOL0     C12313   3.241   5.509   5.340  1.0308  0.7598 -0.5419
   94MOL0     C12314   3.262   5.609   5.235  0.2377  0.7524  0.0150
   94MOL0     C12315   3.136   5.699   5.223  0.3680  0.4337  0.1347
   94MOL0     C12316   3.164   5.821   5.130  0.1515  0.2428 -0.1988
   94MOL0     C12317   3.049   5.909   5.111  0.1647  0.3810  0.2511
   94MOL0     C12318   3.090   6.028   5.028  0.0340 -0.5219  0.4458
   94MOL0     C12319   3.186   6.123   5.104 -0.2848 -0.0904  0.0515
   94MOL0    Cl12320   3.168   6.281   5.031  0.3600 -0.2548 -0.1474
   94MOL0     C12321   3.436   5.204   5.546 -0.2121  0.2596  0.0382
   94MOL0     C12322   3.480   5.186   5.684 -0.7564  0.9962  1.1125
   94MOL0     O12323   3.559   5.362   5.958 -0.6761 -0.2514 -0.8628
   94MOL0     C12324   3.494   5.076   6.166 -0.4695  0.3536 -1.3119
   94MOL0     C12325   3.531   5.032   6.292  0.5039 -0.6554  0.4503
   94MOL0     N12326   4.228   4.961   6.766  0.0672  0.1293 -0.4863
   94MOL0     N12327   4.344   4.976   6.809 -0.7759  0.0963  0.5735
   94MOL0     C12328   5.112   5.418   7.463  0.8174 -0.3870 -0.4935
   94MOL0     C12329   5.064   5.483   7.576 -0.0893  0.3428 -2.1648
   94MOL0     C12330   4.874   5.803   7.872  0.1714 -0.0127  0.9233
   94MOL0     C12331   4.749   5.864   7.901  0.4297 -0.0248 -0.4286
   94MOL0     C12332   4.725   5.920   8.029  0.0938 -0.8145  0.0040
   94MOL0     C12333   4.819   5.910   8.134 -1.2285  1.0345 -0.3118
   94MOL0     O12334   4.792   5.952   8.257  0.1492  0.4131  0.2127
   94MOL0     C12335   4.803   5.848   8.363 -0.5251 -0.9366 -0.1614
   94MOL0     C12336   4.826   5.917   8.497 -0.2023 -0.2407 -0.6849
   94MOL0     C12337   4.967   5.971   8.537  0.5502  0.4020  0.0411
   94MOL0     C12338   5.004   6.091   8.455  1.0956 -0.6434  0.0712
   94MOL0     C12339   5.139   6.144   8.488 -0.2323  0.6179 -0.9373
   94MOL0     C12340   5.246   6.202   8.474  0.7010 -0.4833  0.1450
   94MOL0     C12341   4.949   5.853   8.108  0.4577  1.1554  0.4739
   94MOL0     C12342   4.967   5.793   7.987  0.4659  0.2985  0.1826
   94MOL0     H12343   5.016   5.792   7.472 -3.7784 -0.8044 -2.1854
   94MOL0     H12344   5.087   5.686   7.264  0.4601 -0.4918 -0.1652
   94MOL0     H12345   5.165   5.547   7.079 -0.6625  1.2060  0.2669
   94MOL0     H12346   5.009   5.527   7.135  0.0331  0.1083 -1.1206
   94MOL0     H12347   5.165   5.300   6.978 -1.9989 -0.7676 -1.9049
   94MOL0     H12348   5.050   5.412   6.903 -0.4567  0.3170  0.3181
   94MOL0     H12349   4.878   5.328   7.055 -1.8476 -1.3020  2.5452
   94MOL0     H12350   4.992   5.201   7.110  0.6541  0.2354 -0.4101
   94MOL0     H12351   4.855   5.248   6.841  0.0560 -1.1755 -0.5266
   94MOL0     H12352   5.007   5.150   6.836 -1.7859 -4.0144 -0.2566
   94MOL0     H12353   4.761   5.080   7.022  0.3142  0.0163  0.0986
   94MOL0     H12354   4.915   4.992   6.992 -0.4374  0.4947  0.7876
   94MOL0     H12355   4.786   4.871   6.879  0.2152 -0.3193 -0.0211
   94MOL0     H12356   4.830   4.986   6.755 -0.9409 -1.1315  0.2525
   94MOL0     H12357   4.575   5.033   6.912  2.5867  1.0100  2.6212
   94MOL0     H12358   4.646   5.137   6.790  0.3764 -0.4200 -0.3382
   94MOL0     H12359   4.611   4.852   6.709 -0.2339 -0.0542 -0.3274
   94MOL0     H12360   4.600   5.008   6.621  1.1692 -0.7315  0.5260
   94MOL0     H12361   4.396   4.900   6.487 -1.0763 -1.3445 -2.1066
   94MOL0     H12362   4.070   4.797   6.568 -4.0907 -0.3291 -2.7002
   94MOL0     H12363   4.113   4.929   6.446 -0.0152 -1.6535 -0.1724
   94MOL0     H12364   4.033   5.093   6.605 -0.6241 -0.3249 -1.4590
   94MOL0     H12365   3.967   4.957   6.704  1.8640 -1.2037  0.4412
   94MOL0     H12366   3.891   5.022   6.419 -0.8176 -0.5622 -1.3613
   94MOL0     H12367   3.830   4.880   6.522  1.2658  0.3486  0.1102
   94MOL0     H12368   3.804   5.172   6.570  0.8103 -0.5508 -0.2629
   94MOL0     H12369   3.739   5.054   6.680  1.6754 -2.4004  0.0420
   94MOL0     H12370   3.731   5.300   6.382  0.7843 -0.1546  0.0690
   94MOL0     H12371   3.652   5.370   6.174  0.5381 -0.8559 -2.4017
   94MOL0     H12372   3.232   5.331   5.850  1.1769  3.6509 -0.7260
   94MOL0     H12373   3.150   5.361   5.617  1.7153  2.1316 -0.9156
   94MOL0     H12374   3.336   5.365   5.217 -0.1162 -0.0278  0.9935
   94MOL0     H12375   3.430   5.416   5.363 -0.1982  1.5604  0.5229
   94MOL0     H12376   3.246   5.547   5.442 -2.0148  0.0961 -0.0514
   94MOL0     H12377   3.136   5.481   5.337  0.2572  1.5501  5.8313
   94MOL0     H12378   3.281   5.561   5.138  0.1068  1.9950 -0.6478
   94MOL0     H12379   3.348   5.670   5.266  1.4741 -1.4445  1.1459
   94MOL0     H12380   3.059   5.635   5.179  1.0359  2.9166 -5.5096
   94MOL0     H12381   3.116   5.742   5.321  0.4264  3.4067 -1.0645
   94MOL0     H12382   3.185   5.777   5.033 -0.6213 -0.2330 -0.1577
   94MOL0     H12383   3.249   5.866   5.183  0.3693 -0.8335  0.4157
   94MOL0     H12384   3.000   5.948   5.200 -0.9583  2.3209 -1.1440
   94MOL0     H12385   2.978   5.842   5.060  3.7861 -0.8975 -3.7002
   94MOL0     H12386   3.157   5.999   4.946  0.8859  3.0793 -0.3114
   94MOL0     H12387   2.999   6.077   4.993 -1.7165 -1.4314  3.3558
   94MOL0     H12388   3.292   6.099   5.095 -0.1848  0.9421 -2.0225
   94MOL0     H12389   3.153   6.123   5.209  0.1352 -1.3236  0.2054
   94MOL0     H12390   3.480   5.153   5.461 -4.5389 -3.2482 -0.4110
   94MOL0     H12391   3.574   5.137   5.704 -0.9879  0.5486  1.1195
   94MOL0     H12392   3.433   5.019   6.097 -1.1191  0.6269 -0.9745
   94MOL0     H12393   3.486   4.940   6.325  1.7119 -1.1785  0.6784
   94MOL0     H12394   5.128   5.312   7.479 -0.5206 -0.7753 -1.5801
   94MOL0     H12395   5.049   5.418   7.662 -4.1604  0.4192 -2.6509
   94MOL0     H12396   4.676   5.875   7.821 -0.3795  2.4799  0.5685
   94MOL0     H12397   4.635   5.977   8.052  1.1918  0.3922  1.5513
   94MOL0     H12398   4.881   5.773   8.346 -0.7958 -1.2340 -0.0998
   94MOL0     H12399   4.707   5.796   8.364 -1.1939  0.0747 -3.0268
   94MOL0     H12400   4.761   6.004   8.508 -0.4914 -0.5471  0.1500
   94MOL0     H12401   4.800   5.843   8.574  1.9071 -1.1552 -0.7657
   94MOL0     H12402   5.033   5.889   8.506 -0.8175 -0.2108 -1.3655
   94MOL0     H12403   4.962   6.000   8.643 -0.7973  0.8475 -0.1223
   94MOL0     H12404   4.992   6.065   8.350 -0.0231  0.8236 -0.2113
   94MOL0     H12405   4.927   6.169   8.462 -0.4742 -2.0003 -1.1486
   94MOL0     H12406   5.343   6.243   8.454 -0.1830  0.5026 -2.7069
   94MOL0     H12407   5.027   5.864   8.182  1.0568  5.2791 -0.5146
   94MOL0     H12408   5.065   5.749   7.973  2.4378  3.2940  2.9631
   95MOL0     O12409   0.492  10.498   9.589 -0.5518  1.1330  0.1171
   95MOL0     C12410   0.387  10.508   9.641  0.2886 -0.3490  0.4241
   95MOL0     O12411   0.326  10.627   9.671 -0.5401  0.1790  0.3413
   95MOL0     C12412   0.378  10.751   9.660  0.0092  0.2508  0.2411
   95MOL0     C12413   0.371  10.825   9.548 -0.0816  0.5597 -0.1971
   95MOL0     C12414   0.389  10.965   9.547  0.1636  0.1482 -0.1257
   95MOL0     C12415   0.457  11.028   9.659  0.3548  0.2071 -0.2556
   95MOL0     O12416   0.467  11.171   9.656  0.4581  0.5010 -0.3687
   95MOL0     C12417   0.403  11.225   9.772 -0.1650  0.5683 -0.0337
   95MOL0     C12418   0.363  11.368   9.751 -0.1700 -0.1032  0.7226
   95MOL0     C12419   0.255  11.381   9.639  0.1089  0.4711  0.2075
   95MOL0     C12420   0.200  11.514   9.613  0.5675 -0.0671  1.3671
   95MOL0     C12421   0.280  11.592   9.506  0.0722  0.6015 -0.3681
   95MOL0     C12422   0.249  11.539   9.369 -1.2749  0.0141 -0.3260
   95MOL0     C12423   0.320  11.632   9.263  0.9982 -0.6800 -0.0447
   95MOL0     C12424   0.220  11.730   9.200 -0.6891 -1.2559  0.4243
   95MOL0     N12425   0.271  11.805   9.087  0.6101  0.4979  0.0754
   95MOL0     C12426   0.280  11.765   8.960  0.5330 -0.4680 -0.3323
   95MOL0     C12427   0.304  11.874   8.893 -0.9776  0.5819 -0.7584
   95MOL0     C12428   0.310  11.877   8.740  0.4595  0.1425 -0.4180
   95MOL0     C12429   0.172  11.866   8.679 -0.5062 -0.0940  0.4308
   95MOL0     C12430   0.112  12.010   8.682 -0.5803  0.7675  0.8849
   95MOL0     C12431  -0.019  12.021   8.621  0.5722 -0.2907 -0.2717
   95MOL0     O12432  -0.110  11.937   8.694 -0.8785 -0.0920  0.6886
   95MOL0     C12433  -0.180  11.979   8.807 -0.2589  0.8178  1.3645
   95MOL0     C12434  -0.277  11.888   8.844  0.2161 -0.0927  0.0649
   95MOL0     C12435  -0.368  11.909   8.953  0.5122 -0.0930  0.6938
   95MOL0     C12436  -0.361  12.029   9.022 -0.5681 -0.7739  0.2200
   95MOL0     C12437  -0.450  12.055   9.137 -0.4713  0.0948 -1.1694
   95MOL0     O12438  -0.411  12.158   9.223  0.6537 -0.5429  0.2498
   95MOL0     C12439  -0.464  12.167   9.351  0.2488 -0.5692  0.1590
   95MOL0     C12440  -0.372  12.187   9.452  0.2307 -1.0982 -1.1382
   95MOL0     C12441  -0.426  12.204   9.583  0.3850  1.1832 -0.6524
   95MOL0     C12442  -0.564  12.210   9.607  0.4826 -0.7087 -0.8071
   95MOL0     O12443  -0.599  12.244   9.736 -0.0791 -0.0344  0.0090
   95MOL0     C12444  -0.728  12.297   9.766  1.0366 -0.9669 -0.3282
   95MOL0     C12445  -0.719  12.399   9.887  0.1600 -0.7851  0.1747
   95MOL0     C12446  -0.863  12.456   9.903  0.1104  0.3566  0.1506
   95MOL0     C12447  -0.882  12.577   9.998 -0.3731  0.8754  0.0433
   95MOL0     C12448  -1.012  12.653   9.975 -0.0662 -0.1599  0.8216
   95MOL0     C12449  -1.056  12.686   9.830  0.3112  0.3861  0.2795
   95MOL0     C12450  -1.138  12.809   9.812 -0.4504  0.1551 -0.2075
   95MOL0     C12451  -1.220  12.802   9.685 -0.0055 -0.2381 -0.1683
   95MOL0    Cl12452  -1.126  12.832   9.528  0.1972  0.4118 -0.5805
   95MOL0     C12453  -0.655  12.183   9.505  0.2148 -0.0197 -0.0583
   95MOL0     C12454  -0.608  12.160   9.379  0.2859 -0.0910  0.4011
   95MOL0     O12455  -0.531  11.972   9.164  0.6238 -0.1905 -0.2511
   95MOL0     C12456  -0.258  12.124   8.978 -0.9915 -0.1070  0.6494
   95MOL0     C12457  -0.176  12.106   8.867  0.0494  0.0509 -0.2818
   95MOL0     N12458   0.308  11.981   8.972 -0.7852  1.0122 -0.0751
   95MOL0     N12459   0.293  11.940   9.093 -0.2202  0.5473  0.5914
   95MOL0     C12460   0.489  10.941   9.769  0.6218  0.1207  0.5600
   95MOL0     C12461   0.448  10.807   9.763  0.7527 -0.4321 -0.5080
   95MOL0     C12462   0.320  10.392   9.688 -0.0452  0.6450 -0.2150
   95MOL0     C12463   0.377  10.265   9.678  0.2623 -0.3644 -0.7959
   95MOL0     C12464   0.312  10.163   9.746 -0.4033 -0.4537 -0.7716
   95MOL0     C12465   0.200  10.172   9.827  0.9668 -0.2673 -0.7184
   95MOL0     O12466   0.143  10.071   9.912 -0.3683 -0.2148  0.2913
   95MOL0     C12467   0.174   9.929   9.887 -0.3304 -0.3365 -0.8791
   95MOL0     C12468   0.114   9.902   9.748 -0.8107  0.3525 -0.0603
   95MOL0     C12469   0.152   9.755   9.689  0.0661 -0.8829 -0.1740
   95MOL0     C12470   0.131   9.731   9.539  0.0509 -0.7131  0.1887
   95MOL0     C12471   0.189   9.828   9.446 -0.6250  0.1289  1.1155
   95MOL0     C12472   0.247   9.882   9.356  0.3349 -0.3753 -0.5343
   95MOL0     C12473   0.142  10.300   9.830  0.4742 -0.9711 -0.6588
   95MOL0     C12474   0.202  10.404   9.765  0.5220 -0.7210 -0.0310
   95MOL0     H12475   0.311  10.784   9.467  0.2741 -1.5825  0.5369
   95MOL0     H12476   0.357  11.026   9.463 -2.0786  1.4654  1.5775
   95MOL0     H12477   0.481  11.205   9.846  0.0677 -0.3856 -0.5225
   95MOL0     H12478   0.311  11.174   9.803  0.4770  0.5547  1.9984
   95MOL0     H12479   0.453  11.426   9.729  0.2103 -0.5632  1.0368
   95MOL0     H12480   0.316  11.420   9.835 -2.6899 -0.1245 -0.5853
   95MOL0     H12481   0.172  11.326   9.685 -0.2835 -0.0934 -1.1207
   95MOL0     H12482   0.280  11.332   9.545  0.3048  0.3574  0.3187
   95MOL0     H12483   0.098  11.497   9.576 -0.2585 -0.7002  3.7509
   95MOL0     H12484   0.191  11.582   9.698 -3.0283  2.8342 -0.9833
   95MOL0     H12485   0.389  11.597   9.515  0.1263  2.5150 -1.5134
   95MOL0     H12486   0.237  11.693   9.516 -2.3236 -0.3160 -0.6826
   95MOL0     H12487   0.143  11.526   9.347 -1.5279 -0.3756  1.0391
   95MOL0     H12488   0.297  11.441   9.381  1.1777  1.0799 -0.7458
   95MOL0     H12489   0.408  11.678   9.309  1.1674 -3.4267  2.7738
   95MOL0     H12490   0.351  11.564   9.184  0.4728 -0.6434 -0.2860
   95MOL0     H12491   0.201  11.802   9.280  1.1262 -0.4119  0.1418
   95MOL0     H12492   0.133  11.669   9.174 -1.4146 -1.2136  2.5732
   95MOL0     H12493   0.264  11.663   8.926 -0.1906 -0.9536  1.3482
   95MOL0     H12494   0.372  11.797   8.698 -0.8464 -1.3063  0.2940
   95MOL0     H12495   0.354  11.973   8.712 -1.0693  1.3393  1.0249
   95MOL0     H12496   0.110  11.802   8.742  0.4311 -1.2996  0.1767
   95MOL0     H12497   0.178  11.832   8.575  3.8006  1.8596 -0.1705
   95MOL0     H12498   0.110  12.038   8.788 -0.6597 -5.0247  2.7579
   95MOL0     H12499   0.184  12.076   8.633 -0.2254  0.8711  1.5388
   95MOL0     H12500  -0.018  11.986   8.518 -0.1703 -0.5666 -0.1926
   95MOL0     H12501  -0.053  12.125   8.625  0.2446 -0.4070  0.0193
   95MOL0     H12502  -0.274  11.791   8.796  0.3083 -1.5653  2.8387
   95MOL0     H12503  -0.436  11.832   8.991  2.9330 -2.9585 -0.3587
   95MOL0     H12504  -0.268  12.192   9.421  0.0965  0.0670 -1.4308
   95MOL0     H12505  -0.365  12.220   9.671 -0.5905  0.5603  0.1469
   95MOL0     H12506  -0.802  12.223   9.799 -4.1622  4.2515  1.3431
   95MOL0     H12507  -0.792  12.331   9.685  2.9724  0.5072 -1.3257
   95MOL0     H12508  -0.660  12.487   9.864 -0.7047 -0.1245  0.4209
   95MOL0     H12509  -0.689  12.352   9.981 -2.2124 -2.5029  0.1918
   95MOL0     H12510  -0.931  12.378   9.937 -1.1850  2.6091  3.2454
   95MOL0     H12511  -0.900  12.482   9.803  0.1914  0.4041  0.1325
   95MOL0     H12512  -0.897  12.544  10.101  1.0163  1.8076  0.5751
   95MOL0     H12513  -0.795  12.643   9.994 -0.2096  0.6213 -0.8739
   95MOL0     H12514  -1.018  12.750  10.025 -0.9724  0.0212  0.3742
   95MOL0     H12515  -1.096  12.598  10.018 -0.5222 -0.2211 -0.1268
   95MOL0     H12516  -1.105  12.600   9.784 -1.0629  1.7676 -0.9587
   95MOL0     H12517  -0.966  12.699   9.769  0.1578 -0.2325 -0.0839
   95MOL0     H12518  -1.196  12.817   9.904 -0.3991 -2.3441  0.1197
   95MOL0     H12519  -1.074  12.898   9.809  0.7799 -0.5992  1.6233
   95MOL0     H12520  -1.302  12.874   9.693 -2.3212 -2.8523  1.5201
   95MOL0     H12521  -1.275  12.708   9.680  1.8063 -1.3889  0.5085
   95MOL0     H12522  -0.759  12.179   9.536  0.8006 -2.8760  1.9970
   95MOL0     H12523  -0.684  12.156   9.301  0.0196 -0.2857  0.6714
   95MOL0     H12524  -0.248  12.223   9.022 -2.7390  1.1712 -1.6477
   95MOL0     H12525  -0.104  12.181   8.834  0.1235 -0.7181 -1.9618
   95MOL0     H12526   0.532  10.986   9.858 -0.3282 -0.7234  1.4688
   95MOL0     H12527   0.467  10.735   9.842  2.3536 -0.2986 -0.7329
   95MOL0     H12528   0.475  10.250   9.635  0.5219 -0.2569 -0.2529
   95MOL0     H12529   0.373  10.073   9.748 -2.2589 -1.7970  1.5370
   95MOL0     H12530   0.130   9.878   9.973 -0.3153  2.6456  1.0502
   95MOL0     H12531   0.282   9.914   9.882  0.1990  2.4349  0.6163
   95MOL0     H12532   0.005   9.907   9.746 -0.8553 -0.1865  0.8673
   95MOL0     H12533   0.156   9.972   9.674  1.2744 -1.0340 -0.2808
   95MOL0     H12534   0.100   9.679   9.747  0.3003 -0.4171  0.6638
   95MOL0     H12535   0.261   9.753   9.703 -0.0203  1.5707  1.4581
   95MOL0     H12536   0.173   9.632   9.520 -1.3565 -2.0399  3.2464
   95MOL0     H12537   0.025   9.709   9.518  0.3882 -1.3160 -0.9688
   95MOL0     H12538   0.292   9.951   9.287  0.5440  1.8634  1.6493
   95MOL0     H12539   0.050  10.325   9.881  1.2069 -2.8086  1.7257
   95MOL0     H12540   0.151  10.498   9.779  0.0611 -0.8273 -0.8947
   96MOL0     O12541   9.524   1.955   9.963  0.2532 -0.1541  0.2108
   96MOL0     C12542   9.591   1.917   9.869  0.3648  0.4537  0.6275
   96MOL0     O12543   9.566   1.808   9.795  0.5270  0.2708 -0.4401
   96MOL0     C12544   9.440   1.749   9.788 -0.8021  0.5132 -0.9423
   96MOL0     C12545   9.430   1.608   9.791  0.5291  0.6871  0.3272
   96MOL0     C12546   9.313   1.544   9.774 -0.5988 -0.0096  0.8127
   96MOL0     C12547   9.199   1.615   9.741  0.5511 -0.0633 -0.4685
   96MOL0     O12548   9.071   1.551   9.735 -0.0447  0.4235  0.3567
   96MOL0     C12549   8.964   1.625   9.798  0.2872  0.7202 -0.4819
   96MOL0     C12550   8.856   1.543   9.862 -0.0160  0.1580 -0.7967
   96MOL0     C12551   8.758   1.486   9.754 -0.4331 -0.6522  0.4772
   96MOL0     C12552   8.643   1.387   9.795 -0.3048  0.4922  1.0476
   96MOL0     C12553   8.576   1.430   9.920 -0.2711  0.0750 -0.0536
   96MOL0     C12554   8.510   1.569   9.915 -0.2431  0.0264 -0.2177
   96MOL0     C12555   8.381   1.570   9.830 -0.2397  0.7474 -0.2110
   96MOL0     C12556   8.262   1.657   9.877  0.5061  0.4758  0.3602
   96MOL0     N12557   8.297   1.799   9.864 -0.2446 -0.0481 -0.2749
   96MOL0     C12558   8.335   1.886   9.960  0.6837  0.9324  0.2950
   96MOL0     C12559   8.309   2.009   9.905 -0.3153  0.3150  0.6693
   96MOL0     C12560   8.351   2.137   9.981 -0.2587  0.6447  0.7569
   96MOL0     C12561   8.447   2.222   9.901 -0.0712 -0.1523 -0.4758
   96MOL0     C12562   8.590   2.175   9.875  0.3236 -0.3197  0.0263
   96MOL0     C12563   8.652   2.283   9.783  0.1074 -0.0913  0.4521
   96MOL0     O12564   8.666   2.412   9.840 -0.1435 -1.0506  0.7512
   96MOL0     C12565   8.731   2.434   9.959 -0.8165  1.4854 -0.0162
   96MOL0     C12566   8.699   2.523  10.064 -0.1568  0.1636  1.1291
   96MOL0     C12567   8.772   2.531  10.185  0.0194 -0.1590  0.9955
   96MOL0     C12568   8.884   2.450  10.210  0.9542  0.2506  1.2790
   96MOL0     C12569   8.956   2.441  10.334  0.4099 -0.3106 -0.7348
   96MOL0     O12570   9.014   2.324  10.370  0.1471  0.4190 -0.9417
   96MOL0     C12571   9.090   2.315  10.491 -0.8374 -0.0135 -0.7839
   96MOL0     C12572   9.064   2.374  10.615  0.0698  0.0340  1.0242
   96MOL0     C12573   9.159   2.343  10.721  0.1246 -0.1916  0.5010
   96MOL0     C12574   9.276   2.282  10.698 -1.1013 -0.1546 -0.5539
   96MOL0     O12575   9.374   2.283  10.792  0.3357 -0.5456  0.4527
   96MOL0     C12576   9.431   2.155  10.822 -0.3044 -0.1307 -0.3676
   96MOL0     C12577   9.490   2.164  10.959  0.5507  0.2544 -0.3898
   96MOL0     C12578   9.395   2.241  11.063  0.7155  0.2628  0.2847
   96MOL0     C12579   9.244   2.197  11.076  0.0833 -0.2261  0.1769
   96MOL0     C12580   9.177   2.285  11.179  0.0536  0.3157  0.2856
   96MOL0     C12581   9.032   2.266  11.195 -0.2737  1.1815  0.2136
   96MOL0     C12582   8.991   2.119  11.239  0.4438  0.3156  0.0013
   96MOL0     C12583   8.852   2.075  11.188 -0.0223  0.5573 -0.4806
   96MOL0    Cl12584   8.729   2.169  11.273  0.1814 -0.5592  0.6767
   96MOL0     C12585   9.298   2.226  10.573 -0.8162  0.1086 -0.5529
   96MOL0     C12586   9.201   2.231  10.470 -0.5208 -0.3625 -0.4875
   96MOL0     O12587   8.965   2.544  10.404  0.6683 -0.2935 -0.3364
   96MOL0     C12588   8.911   2.354  10.103  0.5388  0.6142 -0.6926
   96MOL0     C12589   8.840   2.347   9.990 -0.8593 -0.9969  0.9783
   96MOL0     N12590   8.267   2.001   9.770 -0.2955  0.2598  0.4413
   96MOL0     N12591   8.251   1.869   9.754 -0.7554 -0.5535  0.4623
   96MOL0     C12592   9.210   1.755   9.733 -0.2534 -0.4202 -0.0193
   96MOL0     C12593   9.331   1.819   9.753  0.7518  0.4548 -0.5462
   96MOL0     C12594   9.722   1.970   9.851 -1.3761  1.5170 -0.0819
   96MOL0     C12595   9.800   1.963   9.729  0.6606  0.7439  0.0692
   96MOL0     C12596   9.917   2.043   9.717  0.2542 -0.3344 -0.4374
   96MOL0     C12597   9.967   2.116   9.819  0.5168 -0.8273 -0.5796
   96MOL0     O12598  10.079   2.188   9.796 -0.1566  0.1807  0.0433
   96MOL0     C12599  10.146   2.234   9.911 -0.9251 -0.6266 -0.5529
   96MOL0     C12600  10.278   2.302   9.853 -0.2679 -0.6671  0.1670
   96MOL0     C12601  10.373   2.353   9.960  1.5574 -0.1726  0.4095
   96MOL0     C12602  10.502   2.401   9.889  0.4570  0.8251 -0.2735
   96MOL0     C12603  10.579   2.503   9.975  0.6157 -0.3379  0.3442
   96MOL0     C12604  10.658   2.580  10.034  0.2648 -0.1170 -0.1193
   96MOL0     C12605   9.894   2.120   9.940  0.5211 -0.6458  0.5010
   96MOL0     C12606   9.777   2.049   9.952  0.8788  0.4049 -0.0330
   96MOL0     H12607   9.499   1.527   9.814 -2.0251 -2.2874 -1.5922
   96MOL0     H12608   9.312   1.436   9.783  0.2281 -0.0679  0.3503
   96MOL0     H12609   8.918   1.689   9.722 -2.1378  2.7235  2.4245
   96MOL0     H12610   9.000   1.697   9.872 -0.2522 -0.0838  0.5935
   96MOL0     H12611   8.805   1.612   9.929  3.6540  1.4301  0.9168
   96MOL0     H12612   8.892   1.457   9.920  2.7171 -0.2233 -2.8207
   96MOL0     H12613   8.804   1.442   9.664  1.8613  0.8567  0.8384
   96MOL0     H12614   8.720   1.579   9.711 -0.6018 -0.3433  1.2830
   96MOL0     H12615   8.572   1.364   9.715  1.4867 -2.9863  0.2490
   96MOL0     H12616   8.692   1.290   9.809  0.5439  0.7060 -0.3188
   96MOL0     H12617   8.648   1.421  10.003  0.5599 -1.3794 -0.8875
   96MOL0     H12618   8.488   1.370   9.942  1.3446 -1.7603  1.8594
   96MOL0     H12619   8.577   1.649   9.881  1.0355 -0.6533  0.6282
   96MOL0     H12620   8.494   1.577  10.022 -4.7046 -2.0284 -0.5250
   96MOL0     H12621   8.405   1.576   9.724 -1.4718 -0.0361 -0.5620
   96MOL0     H12622   8.337   1.471   9.847  1.3884  0.0828  0.2239
   96MOL0     H12623   8.231   1.651   9.982 -4.5872  0.5694 -0.9224
   96MOL0     H12624   8.181   1.632   9.810  2.1068 -3.2380 -0.4179
   96MOL0     H12625   8.365   1.872  10.063 -0.8577 -0.1348  0.6330
   96MOL0     H12626   8.397   2.103  10.074 -0.8851 -0.3478  0.7285
   96MOL0     H12627   8.263   2.196  10.009  0.2748  1.2524  1.1742
   96MOL0     H12628   8.457   2.319   9.951  3.9144  0.3641 -1.8858
   96MOL0     H12629   8.399   2.228   9.803 -0.8498  2.8333 -0.0185
   96MOL0     H12630   8.657   2.178   9.962 -1.0939 -0.0636  1.1568
   96MOL0     H12631   8.597   2.072   9.840  1.5828  0.0442 -0.8751
   96MOL0     H12632   8.597   2.299   9.690  0.9924  1.4744  0.1570
   96MOL0     H12633   8.755   2.259   9.752 -0.1638  0.7491 -1.2477
   96MOL0     H12634   8.630   2.606  10.050  1.4188  1.7318  2.1120
   96MOL0     H12635   8.741   2.616  10.245 -3.0808  0.8028 -1.6559
   96MOL0     H12636   8.965   2.417  10.627 -1.3001 -2.2983 -0.8473
   96MOL0     H12637   9.126   2.395  10.810  0.7181  2.9248 -0.9573
   96MOL0     H12638   9.509   2.135  10.747 -1.3780  0.5682 -1.7243
   96MOL0     H12639   9.359   2.073  10.825 -0.8709  0.3726 -0.0491
   96MOL0     H12640   9.587   2.213  10.951  1.3071 -1.0635  0.4114
   96MOL0     H12641   9.503   2.069  11.010 -1.3129  1.1660  1.9906
   96MOL0     H12642   9.393   2.346  11.034  0.9585  1.8171  5.0706
   96MOL0     H12643   9.443   2.232  11.160  1.3599  0.5805  0.0009
   96MOL0     H12644   9.181   2.196  10.986 -2.6627  1.5159  1.9116
   96MOL0     H12645   9.253   2.097  11.120 -2.2644  0.4982  2.5589
   96MOL0     H12646   9.184   2.388  11.144 -3.3936  0.5499 -0.0012
   96MOL0     H12647   9.235   2.282  11.272  1.1700  2.8721 -0.2416
   96MOL0     H12648   8.979   2.285  11.101  1.5102 -2.4879 -1.7299
   96MOL0     H12649   8.995   2.331  11.276  3.3791  1.0195  2.2160
   96MOL0     H12650   9.065   2.050  11.198  1.9230  1.9455 -0.1978
   96MOL0     H12651   8.995   2.110  11.348  2.0317  2.7556  0.2119
   96MOL0     H12652   8.835   1.968  11.204 -0.9670  0.7782  0.0917
   96MOL0     H12653   8.848   2.097  11.081  3.8071  1.9490 -0.4913
   96MOL0     H12654   9.397   2.187  10.551 -0.1525 -0.5491  3.0189
   96MOL0     H12655   9.221   2.193  10.371 -1.2198  1.6749 -1.4735
   96MOL0     H12656   8.997   2.288  10.104  0.6432  0.7015 -2.0938
   96MOL0     H12657   8.882   2.281   9.915 -1.4293  0.8997 -1.1298
   96MOL0     H12658   9.125   1.820   9.718 -0.0251  0.5949  2.6096
   96MOL0     H12659   9.335   1.927   9.760 -2.2164  0.5542  0.7298
   96MOL0     H12660   9.770   1.910   9.639 -2.4266  3.4828 -0.6916
   96MOL0     H12661   9.970   2.029   9.623 -1.6789  1.2039 -1.8283
   96MOL0     H12662  10.169   2.149   9.975 -2.7838 -0.5588  0.2451
   96MOL0     H12663  10.088   2.304   9.972 -2.0062 -0.9328 -1.2006
   96MOL0     H12664  10.331   2.233   9.786 -0.4748 -1.4834  0.8414
   96MOL0     H12665  10.255   2.384   9.784  1.0597  1.7925  2.4841
   96MOL0     H12666  10.393   2.291  10.048  2.0837 -1.2918 -0.4760
   96MOL0     H12667  10.331   2.439  10.014 -3.9777 -2.0154 -0.2526
   96MOL0     H12668  10.559   2.309   9.870 -0.4050  0.2851 -0.3233
   96MOL0     H12669  10.494   2.446   9.789  0.3772 -1.9939 -1.6499
   96MOL0     H12670  10.712   2.645  10.099 -0.8111  1.7116 -0.9460
   96MOL0     H12671   9.938   2.168  10.026  0.4873 -1.5530  1.0392
   96MOL0     H12672   9.736   2.044  10.052  1.3253 -2.5344  0.0795
   97MOL0     O12673   5.246   2.190   5.538 -0.4260 -0.0002 -0.1234
   97MOL0     C12674   5.213   2.222   5.649  0.3495  0.0499 -0.5983
   97MOL0     O12675   5.113   2.167   5.725 -0.0788 -0.0490  0.2591
   97MOL0     C12676   5.040   2.064   5.672  0.5505  0.0564 -0.5297
   97MOL0     C12677   4.903   2.082   5.656  0.2899 -0.0119 -0.5629
   97MOL0     C12678   4.827   1.974   5.589 -0.3227 -0.2191  0.8430
   97MOL0     C12679   4.888   1.869   5.532 -0.2427  0.0030 -0.3371
   97MOL0     O12680   4.807   1.771   5.471 -0.2996 -0.2766 -0.1552
   97MOL0     C12681   4.857   1.674   5.386  0.1449 -0.3662 -0.0735
   97MOL0     C12682   4.742   1.603   5.319  0.2143 -0.7534 -0.4729
   97MOL0     C12683   4.637   1.548   5.420 -0.2577 -0.1333  1.1760
   97MOL0     C12684   4.603   1.408   5.385  0.9699  0.9903 -1.4200
   97MOL0     C12685   4.470   1.364   5.449  0.0934 -0.6351 -0.2722
   97MOL0     C12686   4.453   1.211   5.417  0.2232  0.4206 -0.1292
   97MOL0     C12687   4.318   1.159   5.474  0.0703  0.3029  0.0187
   97MOL0     C12688   4.318   1.015   5.523 -0.3256  0.5244  0.3196
   97MOL0     N12689   4.182   0.981   5.536  0.1643  0.5836  0.0902
   97MOL0     C12690   4.104   1.031   5.635 -0.0953 -0.5007 -0.1256
   97MOL0     C12691   3.992   0.954   5.638 -0.4798 -0.0357 -1.1132
   97MOL0     C12692   3.879   0.967   5.741 -0.4272 -0.4152 -1.1940
   97MOL0     C12693   3.899   0.862   5.853  0.3190 -0.2333 -1.2625
   97MOL0     C12694   3.985   0.905   5.966  0.5039  0.6345 -0.4992
   97MOL0     C12695   3.973   0.804   6.081  0.3685 -0.4344  0.4757
   97MOL0     O12696   3.835   0.777   6.129 -0.7375 -0.2917 -0.2808
   97MOL0     C12697   3.819   0.709   6.238 -0.0504 -0.3406  1.0041
   97MOL0     C12698   3.690   0.703   6.296  0.0938 -0.5082 -0.0953
   97MOL0     C12699   3.678   0.620   6.414  0.4151  0.4569  0.0758
   97MOL0     C12700   3.783   0.565   6.480  0.3360 -0.0742 -0.8124
   97MOL0     C12701   3.764   0.490   6.616  0.3433  0.4772  2.0739
   97MOL0     O12702   3.633   0.461   6.656 -0.8040  0.5484 -0.1980
   97MOL0     C12703   3.626   0.385   6.765 -0.9871  1.2972  0.3334
   97MOL0     C12704   3.589   0.249   6.752  0.1150 -0.1335  0.1480
   97MOL0     C12705   3.562   0.179   6.867 -0.0917  0.3876  0.2703
   97MOL0     C12706   3.579   0.238   6.996  0.4130 -0.2403 -0.0998
   97MOL0     O12707   3.550   0.172   7.117 -0.4477  0.0556  0.0287
   97MOL0     C12708   3.446   0.069   7.117 -1.0693  0.8370  0.5356
   97MOL0     C12709   3.519  -0.073   7.138  0.1908  1.6592  0.9343
   97MOL0     C12710   3.440  -0.189   7.199 -0.5780  0.2727  1.0300
   97MOL0     C12711   3.546  -0.300   7.228 -0.3447  1.9913 -0.4604
   97MOL0     C12712   3.480  -0.409   7.304  0.3627 -0.4143 -0.5164
   97MOL0     C12713   3.575  -0.515   7.331  0.2600 -0.6446 -0.2878
   97MOL0     C12714   3.530  -0.627   7.421 -0.0187 -0.0045  0.8807
   97MOL0     C12715   3.512  -0.572   7.568 -0.1683  0.4896  0.2587
   97MOL0    Cl12716   3.646  -0.481   7.643  0.0414  0.1984  0.0576
   97MOL0     C12717   3.649   0.358   7.009 -0.2215  0.4467 -0.0054
   97MOL0     C12718   3.668   0.441   6.894 -1.2318 -0.3782 -0.4484
   97MOL0     O12719   3.864   0.448   6.673 -0.5899 -0.7847 -0.4223
   97MOL0     C12720   3.910   0.577   6.420  0.5814  0.1565 -0.5330
   97MOL0     C12721   3.923   0.646   6.298  0.1660  0.5064 -0.5229
   97MOL0     N12722   3.999   0.860   5.542  0.1177 -0.0047 -0.8733
   97MOL0     N12723   4.110   0.880   5.473  0.1663  0.6598 -0.3107
   97MOL0     C12724   5.027   1.855   5.556 -0.1566  0.3807  0.0737
   97MOL0     C12725   5.101   1.950   5.617  0.3065 -0.0524 -0.0639
   97MOL0     C12726   5.280   2.334   5.716 -1.0143  0.0862 -0.8628
   97MOL0     C12727   5.322   2.454   5.651  0.6209  0.4689 -0.2601
   97MOL0     C12728   5.371   2.557   5.726 -0.0465  0.0904  0.0272
   97MOL0     C12729   5.401   2.550   5.859  0.0754 -0.5471 -0.6674
   97MOL0     O12730   5.455   2.664   5.905 -0.5033  0.1554 -0.2140
   97MOL0     C12731   5.483   2.687   6.048  1.0688 -0.2096 -0.0115
   97MOL0     C12732   5.546   2.822   6.068 -0.1902  0.3178  0.2792
   97MOL0     C12733   5.593   2.831   6.217 -0.0941 -0.7896  0.2736
   97MOL0     C12734   5.643   2.967   6.243  0.1512 -0.5587 -1.5452
   97MOL0     C12735   5.707   2.976   6.385  0.0669 -0.4100  0.1036
   97MOL0     C12736   5.764   2.983   6.497  0.4393  0.2000 -0.0028
   97MOL0     C12737   5.367   2.430   5.926 -0.2598 -0.2215  1.4157
   97MOL0     C12738   5.307   2.329   5.856 -0.5514  1.2832  0.0038
   97MOL0     H12739   4.836   2.161   5.689  2.7127  2.2276 -0.5894
   97MOL0     H12740   4.719   1.971   5.585 -0.3027 -0.9549 -3.4347
   97MOL0     H12741   4.912   1.599   5.442 -0.1896 -0.1502  0.5597
   97MOL0     H12742   4.926   1.718   5.314  0.2978  1.1036  0.9216
   97MOL0     H12743   4.786   1.526   5.254  0.3321 -1.7475  0.7524
   97MOL0     H12744   4.689   1.678   5.259  0.6232 -0.9252 -1.0643
   97MOL0     H12745   4.551   1.613   5.398 -0.7756 -2.1890 -4.6608
   97MOL0     H12746   4.667   1.562   5.524  0.6993  2.6302  0.6161
   97MOL0     H12747   4.593   1.394   5.277 -1.0691 -0.6355 -1.0764
   97MOL0     H12748   4.684   1.341   5.415 -0.3905  0.6235  1.7093
   97MOL0     H12749   4.391   1.426   5.406 -1.2533 -1.5134  0.8431
   97MOL0     H12750   4.471   1.362   5.558  0.8922 -1.4320 -0.2793
   97MOL0     H12751   4.541   1.162   5.460  0.6177 -0.9672 -2.3497
   97MOL0     H12752   4.447   1.189   5.310  0.9791 -1.2484  0.1261
   97MOL0     H12753   4.295   1.214   5.566  1.7596 -0.0356  0.6907
   97MOL0     H12754   4.247   1.189   5.397  0.3216  0.7937 -0.0255
   97MOL0     H12755   4.378   0.989   5.611 -0.8085 -0.7241  0.2943
   97MOL0     H12756   4.355   0.951   5.442 -1.2896  0.2123  0.1150
   97MOL0     H12757   4.129   1.119   5.694  2.3115  0.9499 -2.9555
   97MOL0     H12758   3.785   0.954   5.687 -0.7432  5.4367 -2.8130
   97MOL0     H12759   3.860   1.063   5.790 -2.4841 -0.5845 -1.5687
   97MOL0     H12760   3.922   0.770   5.799 -1.3738 -0.9667 -0.7936
   97MOL0     H12761   3.805   0.846   5.906  0.5510  4.1454  0.9545
   97MOL0     H12762   4.089   0.924   5.938  1.5843 -4.9060 -1.3512
   97MOL0     H12763   3.945   1.002   5.999 -1.2460  0.9159 -3.1338
   97MOL0     H12764   4.033   0.856   6.156  0.8196  2.3628 -1.6592
   97MOL0     H12765   4.014   0.704   6.062  0.8982 -0.6105  2.3514
   97MOL0     H12766   3.618   0.775   6.258 -4.6977 -4.6354  0.1898
   97MOL0     H12767   3.579   0.602   6.455  0.2112 -1.6926 -1.1762
   97MOL0     H12768   3.569   0.219   6.650 -0.4522  0.0957  0.1916
   97MOL0     H12769   3.529   0.076   6.856  0.8042  0.2608 -1.5322
   97MOL0     H12770   3.384   0.058   7.027 -2.2581  1.6092  1.2290
   97MOL0     H12771   3.369   0.083   7.194 -2.0271  0.5019 -0.3253
   97MOL0     H12772   3.596  -0.045   7.209  0.1583 -0.9404  2.0788
   97MOL0     H12773   3.563  -0.105   7.043  0.6796  1.9945  1.0450
   97MOL0     H12774   3.366  -0.232   7.131  0.5051 -0.4269  0.2492
   97MOL0     H12775   3.392  -0.156   7.291 -0.8214 -2.3587  1.9256
   97MOL0     H12776   3.578  -0.345   7.133  0.0477  1.2688  0.0055
   97MOL0     H12777   3.637  -0.263   7.276 -0.9736  1.6668  1.0265
   97MOL0     H12778   3.396  -0.450   7.248  0.1827 -1.2855  0.3550
   97MOL0     H12779   3.459  -0.362   7.401 -1.9589 -0.9574 -0.6971
   97MOL0     H12780   3.673  -0.486   7.368 -0.6161  2.9565 -0.4530
   97MOL0     H12781   3.588  -0.551   7.228  0.5425  3.1901 -1.7666
   97MOL0     H12782   3.437  -0.666   7.379  1.2014 -1.9451 -0.2321
   97MOL0     H12783   3.607  -0.704   7.430  2.0336  1.6211 -1.4446
   97MOL0     H12784   3.481  -0.654   7.633 -1.2430 -0.0265 -0.8565
   97MOL0     H12785   3.424  -0.506   7.561 -3.3370 -3.5157 -3.3526
   97MOL0     H12786   3.661   0.402   7.107  4.5436 -0.9002  0.2566
   97MOL0     H12787   3.719   0.536   6.905  0.1175 -1.3590  3.7053
   97MOL0     H12788   3.998   0.541   6.471  1.7545  4.5382  1.0250
   97MOL0     H12789   4.028   0.661   6.273  0.6168 -0.4398  0.7340
   97MOL0     H12790   5.083   1.767   5.525  1.1719  0.9732  0.7184
   97MOL0     H12791   5.207   1.932   5.626  0.3325  0.2538  0.2625
   97MOL0     H12792   5.308   2.463   5.544  5.0336  0.7709 -1.0043
   97MOL0     H12793   5.380   2.657   5.684  0.1914 -0.7165 -1.8932
   97MOL0     H12794   5.545   2.607   6.089  0.2906 -1.3755 -1.0671
   97MOL0     H12795   5.385   2.696   6.095  0.6690 -0.6283 -0.7580
   97MOL0     H12796   5.622   2.826   5.989  1.4539 -0.7202  1.7226
   97MOL0     H12797   5.471   2.900   6.052  1.3914  1.8102 -0.1741
   97MOL0     H12798   5.664   2.752   6.244  1.3412  1.5051  3.9461
   97MOL0     H12799   5.514   2.814   6.291 -0.7261 -0.9818 -0.4322
   97MOL0     H12800   5.725   2.998   6.177  1.6035 -0.9732  0.0050
   97MOL0     H12801   5.564   3.042   6.251  3.3997  3.0194  0.3962
   97MOL0     H12802   5.813   2.984   6.593 -0.3840  3.4410  0.4709
   97MOL0     H12803   5.374   2.414   6.033 -0.2953  0.6963  1.5639
   97MOL0     H12804   5.285   2.241   5.916 -1.7130  0.7140 -1.2221
   98MOL0     O12805   0.501   9.824   9.548  0.9412 -0.3928 -0.7361
   98MOL0     C12806   0.614   9.863   9.592 -0.1091 -0.0814  0.5087
   98MOL0     O12807   0.676   9.808   9.699 -0.0358 -0.4766  0.1096
   98MOL0     C12808   0.609   9.722   9.784  0.5946 -0.3740  0.7916
   98MOL0     C12809   0.524   9.617   9.740 -0.7657  0.2809 -0.4535
   98MOL0     C12810   0.458   9.534   9.824 -0.2821  0.0383 -0.5896
   98MOL0     C12811   0.488   9.547   9.959 -0.1570 -1.3168 -0.4068
   98MOL0     O12812   0.416   9.473  10.061 -0.2651  1.1634  0.1871
   98MOL0     C12813   0.348   9.351  10.028  0.1006 -0.3190  0.8052
   98MOL0     C12814   0.290   9.284  10.153 -0.1205 -0.6871 -0.5284
   98MOL0     C12815   0.145   9.327  10.191 -0.0912  0.4759  0.5400
   98MOL0     C12816   0.130   9.293  10.342 -1.3937  0.0850  0.6449
   98MOL0     C12817  -0.019   9.286  10.366 -0.4336 -0.4493  0.0280
   98MOL0     C12818  -0.110   9.148  10.347 -0.1973 -0.4829 -0.1321
   98MOL0     C12819  -0.064   9.045  10.457 -0.7375  0.2162 -0.1661
   98MOL0     C12820  -0.177   8.938  10.477 -0.6300  0.3898 -0.2152
   98MOL0     N12821  -0.179   8.854  10.602  0.2192 -0.1197 -0.6364
   98MOL0     C12822  -0.142   8.898  10.728 -0.4537  0.3346  0.5958
   98MOL0     C12823  -0.178   8.800  10.805  1.2516  0.5968 -0.7705
   98MOL0     C12824  -0.181   8.809  10.953 -0.1547 -0.1511 -0.1712
   98MOL0     C12825  -0.326   8.826  10.998  1.4823 -0.1084  0.3818
   98MOL0     C12826  -0.333   8.818  11.149  0.1775 -0.9077 -0.2121
   98MOL0     C12827  -0.319   8.665  11.186  0.7331  0.0090  0.1107
   98MOL0     O12828  -0.349   8.647  11.325  0.5825  0.4111  0.5289
   98MOL0     C12829  -0.374   8.524  11.367  0.0375 -0.8156  0.6053
   98MOL0     C12830  -0.400   8.509  11.504 -0.4080 -0.3996  0.0966
   98MOL0     C12831  -0.427   8.393  11.567  1.6789  0.4989 -0.1421
   98MOL0     C12832  -0.437   8.275  11.490  0.4176 -0.2463  0.8027
   98MOL0     C12833  -0.466   8.145  11.556  0.0079 -0.4114 -0.3873
   98MOL0     O12834  -0.426   8.036  11.499 -0.0790 -0.0229  0.7289
   98MOL0     C12835  -0.435   7.918  11.560 -0.6277 -0.8886  0.0762
   98MOL0     C12836  -0.520   7.831  11.494  0.2269  0.1481 -0.8366
   98MOL0     C12837  -0.534   7.700  11.533 -0.7086 -0.3549  0.3916
   98MOL0     C12838  -0.452   7.657  11.645  1.1862 -0.5868 -0.4107
   98MOL0     O12839  -0.462   7.533  11.698 -0.0515  0.2253 -0.2670
   98MOL0     C12840  -0.331   7.469  11.717 -0.1888 -1.1595 -0.6482
   98MOL0     C12841  -0.358   7.324  11.705  0.1328 -0.0200  0.1234
   98MOL0     C12842  -0.226   7.235  11.701  0.1173 -0.7859 -0.3701
   98MOL0     C12843  -0.240   7.086  11.707 -0.9237  0.0292 -0.4100
   98MOL0     C12844  -0.113   7.002  11.716  0.0032  0.3189  0.0944
   98MOL0     C12845  -0.011   7.049  11.822 -1.4405  0.3312  0.7817
   98MOL0     C12846  -0.054   7.001  11.966  0.1301 -0.0536 -0.0835
   98MOL0     C12847   0.044   7.067  12.075  0.5668 -0.6100  1.2458
   98MOL0    Cl12848   0.006   7.245  12.102 -0.0644  0.0917  0.1969
   98MOL0     C12849  -0.364   7.747  11.709  0.1768 -0.2227 -0.0837
   98MOL0     C12850  -0.363   7.877  11.664  0.2936  0.2891 -0.3102
   98MOL0     O12851  -0.531   8.153  11.667  0.0076  0.0272  0.6663
   98MOL0     C12852  -0.394   8.291  11.349  0.8738 -0.1675  0.4756
   98MOL0     C12853  -0.394   8.413  11.284  0.2369 -0.3023 -0.1969
   98MOL0     N12854  -0.224   8.694  10.730 -0.4409 -0.2951  0.6011
   98MOL0     N12855  -0.221   8.727  10.607 -0.1809  0.1730  0.4681
   98MOL0     C12856   0.564   9.652  10.012  0.1160  0.3266  0.1881
   98MOL0     C12857   0.621   9.740   9.920 -0.6312 -0.1545 -0.4835
   98MOL0     C12858   0.688   9.984   9.534  0.0504 -1.6456 -0.3536
   98MOL0     C12859   0.768  10.073   9.609 -0.0515  0.0069  0.8211
   98MOL0     C12860   0.825  10.190   9.542  1.2390 -0.0130  0.2277
   98MOL0     C12861   0.792  10.219   9.401  0.1092 -0.3098  0.1415
   98MOL0     O12862   0.843  10.317   9.329 -0.2243 -0.9042 -0.0001
   98MOL0     C12863   0.804  10.445   9.389 -0.5898  0.7897  0.7897
   98MOL0     C12864   0.801  10.560   9.304 -0.7288 -0.7772  1.0429
   98MOL0     C12865   0.678  10.565   9.212  0.1074 -0.8445  0.5627
   98MOL0     C12866   0.696  10.689   9.119 -0.3929  0.2575  0.2031
   98MOL0     C12867   0.642  10.653   8.988  0.6123  0.3038  0.3614
   98MOL0     C12868   0.621  10.618   8.867  0.7776  0.0892  0.2799
   98MOL0     C12869   0.692  10.145   9.343  0.3394  0.0394 -0.6804
   98MOL0     C12870   0.640  10.033   9.411 -0.1641 -0.0311  0.6591
   98MOL0     H12871   0.498   9.590   9.638 -0.4246 -2.0239  0.0352
   98MOL0     H12872   0.384   9.466   9.783 -1.6158  2.8517 -3.2919
   98MOL0     H12873   0.430   9.286   9.998 -1.5500 -1.0758 -2.4338
   98MOL0     H12874   0.264   9.367   9.960  1.1885  1.6077 -0.1838
   98MOL0     H12875   0.345   9.315  10.242  2.2979 -1.3714 -1.7194
   98MOL0     H12876   0.297   9.175  10.142 -2.4035 -1.0194  0.5858
   98MOL0     H12877   0.088   9.258  10.127  1.0998  0.6489 -0.7800
   98MOL0     H12878   0.128   9.433  10.173  0.5772  0.4497 -0.3138
   98MOL0     H12879   0.170   9.194  10.367 -2.1813 -0.8562 -1.5478
   98MOL0     H12880   0.184   9.367  10.402 -1.1811  1.1012 -0.7389
   98MOL0     H12881  -0.059   9.378  10.321  0.4409 -0.0425  0.0576
   98MOL0     H12882  -0.017   9.300  10.474 -1.0175 -2.2182  0.3054
   98MOL0     H12883  -0.091   9.111  10.246 -2.1877  1.0623 -1.1418
   98MOL0     H12884  -0.217   9.167  10.351  0.3314  3.0077  0.3969
   98MOL0     H12885   0.026   9.001  10.414 -0.4520 -0.8294  1.4225
   98MOL0     H12886  -0.038   9.089  10.553 -1.0292 -1.8241  0.9178
   98MOL0     H12887  -0.172   8.867  10.394  1.8034 -0.7651  0.8363
   98MOL0     H12888  -0.275   8.982  10.456  0.4241  2.7369 -0.6079
   98MOL0     H12889  -0.099   8.994  10.752  1.1030 -0.0367 -0.5506
   98MOL0     H12890  -0.126   8.894  10.993  0.1974 -1.9644  3.6058
   98MOL0     H12891  -0.139   8.718  10.996 -0.7121 -0.5323 -0.4215
   98MOL0     H12892  -0.391   8.751  10.951  0.1984  0.8141  0.6145
   98MOL0     H12893  -0.363   8.922  10.961 -2.4393 -2.3621 -2.2724
   98MOL0     H12894  -0.256   8.884  11.190 -1.4832 -0.8019  3.0316
   98MOL0     H12895  -0.429   8.851  11.191 -0.3365 -1.0815 -1.2250
   98MOL0     H12896  -0.218   8.633  11.161  0.5624 -0.3296 -0.1432
   98MOL0     H12897  -0.390   8.608  11.126 -1.4066  1.4511  1.1574
   98MOL0     H12898  -0.382   8.596  11.567 -1.3046  0.7300 -1.1563
   98MOL0     H12899  -0.442   8.393  11.674 -3.1993  0.9504 -0.5834
   98MOL0     H12900  -0.587   7.861  11.415 -0.0740 -0.1271 -0.6928
   98MOL0     H12901  -0.601   7.637  11.476 -0.3462  0.1833 -0.6477
   98MOL0     H12902  -0.282   7.487  11.813  2.1265  1.4081 -2.1835
   98MOL0     H12903  -0.255   7.504  11.646  0.6571  3.4304  2.1351
   98MOL0     H12904  -0.426   7.303  11.621  2.7080  2.0802 -2.7008
   98MOL0     H12905  -0.408   7.291  11.797  2.7300  2.3407  2.5593
   98MOL0     H12906  -0.177   7.269  11.793 -0.4321  1.2860 -0.7833
   98MOL0     H12907  -0.167   7.251  11.610 -0.3913 -2.3187 -0.9956
   98MOL0     H12908  -0.294   7.084  11.803 -3.8964  0.0086 -1.9773
   98MOL0     H12909  -0.303   7.058  11.622  0.3901 -4.0362 -0.2618
   98MOL0     H12910  -0.053   7.001  11.624 -2.4753  0.5788 -1.6277
   98MOL0     H12911  -0.142   6.897  11.725  0.1381  0.1397 -1.2854
   98MOL0     H12912   0.015   7.155  11.819  2.4590 -0.4845 -0.4923
   98MOL0     H12913   0.092   7.016  11.803 -1.9099 -0.0316 -1.4026
   98MOL0     H12914  -0.162   7.014  11.982 -0.1957 -1.9487 -0.5386
   98MOL0     H12915  -0.041   6.894  11.982 -0.0999 -0.0319  0.2727
   98MOL0     H12916   0.147   7.060  12.041  0.7885  0.6531  1.5877
   98MOL0     H12917   0.022   7.012  12.167 -3.6381  0.6729  1.2589
   98MOL0     H12918  -0.297   7.716  11.789  0.9998 -4.5641 -2.1524
   98MOL0     H12919  -0.299   7.951  11.710 -0.2965  0.7494 -0.2024
   98MOL0     H12920  -0.391   8.206  11.283 -1.4546  0.7083 -0.9003
   98MOL0     H12921  -0.400   8.414  11.176  0.1770  0.8667 -0.1921
   98MOL0     H12922   0.587   9.666  10.117 -0.2186  1.9943  0.0826
   98MOL0     H12923   0.684   9.818   9.961  1.0261 -0.8695 -1.5656
   98MOL0     H12924   0.792  10.045   9.711 -1.5629  0.7757  1.4088
   98MOL0     H12925   0.891  10.248   9.606  1.4982 -1.0865  0.9577
   98MOL0     H12926   0.866  10.457   9.478 -2.3170 -1.6013  2.4782
   98MOL0     H12927   0.702  10.439   9.429 -1.1117  0.6867 -0.4952
   98MOL0     H12928   0.796  10.645   9.373 -1.1065 -1.9050  2.4387
   98MOL0     H12929   0.897  10.588   9.259 -1.7373  0.9023 -0.2057
   98MOL0     H12930   0.585  10.573   9.271 -0.3417 -2.3346  0.1008
   98MOL0     H12931   0.670  10.472   9.156 -3.0816  0.2492 -1.0791
   98MOL0     H12932   0.642  10.772   9.166  1.5906  0.9275  1.4197
   98MOL0     H12933   0.798  10.726   9.111 -0.4316  0.4885  0.7163
   98MOL0     H12934   0.592  10.599   8.766  0.9982  0.6833  0.0991
   98MOL0     H12935   0.644  10.163   9.247  0.1923 -3.1977 -1.3560
   98MOL0     H12936   0.555   9.981   9.366 -1.2164  1.9764  0.2313
   99MOL0     O12937   4.020   7.216   7.773 -0.7870 -0.5225  0.3785
   99MOL0     C12938   4.121   7.160   7.739 -1.1485  0.2737  0.6742
   99MOL0     O12939   4.202   7.078   7.817 -0.5898 -0.5335 -0.1709
   99MOL0     C12940   4.179   7.069   7.946  0.3658 -0.2019 -0.5111
   99MOL0     C12941   4.148   6.948   8.006 -0.4511  0.3432  0.2548
   99MOL0     C12942   4.124   6.935   8.145 -0.7733  0.3699 -0.3701
   99MOL0     C12943   4.118   7.048   8.224  0.6846 -0.5809 -0.0567
   99MOL0     O12944   4.077   7.031   8.354 -0.1089 -0.2118 -0.4151
   99MOL0     C12945   4.100   7.125   8.459  0.2211  0.4606 -0.6665
   99MOL0     C12946   4.057   7.042   8.588 -0.1306 -0.2290 -0.3169
   99MOL0     C12947   4.175   6.946   8.629  0.2224  0.2276 -0.1901
   99MOL0     C12948   4.153   6.912   8.772 -0.0846  0.5296 -0.7795
   99MOL0     C12949   4.250   6.801   8.816  0.2968 -0.3289 -0.7252
   99MOL0     C12950   4.181   6.716   8.927  0.2558 -0.4802 -0.3123
   99MOL0     C12951   4.119   6.583   8.878 -0.1973 -0.2082  0.1822
   99MOL0     C12952   4.198   6.468   8.913 -0.4642  0.4541 -0.6845
   99MOL0     N12953   4.169   6.436   9.055 -0.1010 -0.1100  1.1192
   99MOL0     C12954   4.092   6.332   9.096 -0.4077 -0.9358  0.2615
   99MOL0     C12955   4.114   6.323   9.231 -0.6438  0.2873 -0.3953
   99MOL0     C12956   4.053   6.221   9.325  0.2003  0.3909  0.7559
   99MOL0     C12957   4.051   6.264   9.471 -0.0171  0.3679 -0.2650
   99MOL0     C12958   3.935   6.365   9.489  0.7866 -0.3777 -1.0309
   99MOL0     C12959   3.851   6.341   9.612  0.0330  0.4889 -0.2787
   99MOL0     O12960   3.761   6.230   9.591  0.2005 -0.3630  0.4425
   99MOL0     C12961   3.657   6.244   9.513 -0.2302  0.0015  0.1835
   99MOL0     C12962   3.619   6.362   9.449 -0.0744  0.5396 -1.0359
   99MOL0     C12963   3.494   6.359   9.388 -0.6569 -0.0829  0.0021
   99MOL0     C12964   3.406   6.251   9.382 -0.5700  1.0676 -0.3485
   99MOL0     C12965   3.272   6.258   9.326  0.9397  0.2392  0.3543
   99MOL0     O12966   3.246   6.379   9.266  0.1638  0.0052  0.0406
   99MOL0     C12967   3.132   6.391   9.194  0.2153 -0.9276  0.2819
   99MOL0     C12968   3.005   6.407   9.253  0.5886 -0.2913  0.0806
   99MOL0     C12969   2.891   6.418   9.170 -0.2927 -0.9788 -0.1676
   99MOL0     C12970   2.914   6.435   9.028 -0.8747 -0.2742  0.1736
   99MOL0     O12971   2.807   6.465   8.938 -0.0137 -0.1993  0.9289
   99MOL0     C12972   2.815   6.399   8.805  0.5243  0.0651  0.7786
   99MOL0     C12973   2.678   6.376   8.740  0.7422 -0.3136  0.0293
   99MOL0     C12974   2.591   6.255   8.787 -0.1164 -1.0921  0.0966
   99MOL0     C12975   2.576   6.244   8.943 -0.2558  1.3158 -0.2098
   99MOL0     C12976   2.451   6.154   8.959 -0.1618  0.1468 -0.1655
   99MOL0     C12977   2.418   6.149   9.103 -0.9796  0.2565 -0.1665
   99MOL0     C12978   2.281   6.088   9.127  0.5101  0.7471 -0.4574
   99MOL0     C12979   2.253   6.074   9.271 -0.1060 -0.7789 -0.3795
   99MOL0    Cl12980   2.096   5.996   9.313 -0.3090  0.8220 -0.5328
   99MOL0     C12981   3.047   6.431   8.976  0.7811 -0.3464  0.7170
   99MOL0     C12982   3.155   6.406   9.053  0.2494 -0.5675 -0.0042
   99MOL0     O12983   3.206   6.153   9.313 -1.0364 -0.3749  0.1782
   99MOL0     C12984   3.448   6.138   9.438 -0.1675  0.2708 -0.3274
   99MOL0     C12985   3.570   6.130   9.507 -1.0519  0.4891  0.2072
   99MOL0     N12986   4.208   6.416   9.269  0.0794  1.5646  0.3750
   99MOL0     N12987   4.232   6.486   9.164 -0.6799  0.2593 -0.5530
   99MOL0     C12988   4.147   7.171   8.172  0.6280 -1.0267 -0.4775
   99MOL0     C12989   4.174   7.181   8.031 -0.0979  0.2213 -0.5075
   99MOL0     C12990   4.150   7.161   7.586  0.7279 -0.5858 -0.1063
   99MOL0     C12991   4.083   7.253   7.509 -0.5166  0.7671  1.2855
   99MOL0     C12992   4.095   7.243   7.367  0.1476 -0.3242  0.4586
   99MOL0     C12993   4.191   7.166   7.299  0.4325  0.0430 -0.4836
   99MOL0     O12994   4.190   7.181   7.165  0.1797  0.1228 -0.1259
   99MOL0     C12995   4.274   7.090   7.091  0.6520 -0.7261  0.1107
   99MOL0     C12996   4.220   6.946   7.084  0.2350 -0.5519  0.0140
   99MOL0     C12997   4.108   6.928   6.983 -0.1861  1.2984 -0.5631
   99MOL0     C12998   4.035   6.794   6.988 -0.7676 -1.0271 -1.1097
   99MOL0     C12999   3.960   6.795   6.865  0.9112 -0.0537  0.5582
   99MOL0     C13000   3.893   6.809   6.760 -0.0907  1.1537 -0.3870
   99MOL0     C13001   4.261   7.078   7.379  0.1647 -0.4617 -0.2211
   99MOL0     C13002   4.244   7.081   7.519  0.9606  0.2093 -0.0257
   99MOL0     H13003   4.162   6.855   7.952  2.1452  0.4539  0.6096
   99MOL0     H13004   4.091   6.843   8.191 -1.3907  0.1889 -1.1576
   99MOL0     H13005   4.031   7.209   8.449 -0.8196 -0.3454 -0.3791
   99MOL0     H13006   4.200   7.170   8.469 -0.7180  2.3248  1.3957
   99MOL0     H13007   3.964   6.993   8.558 -2.7524  4.8762 -1.7455
   99MOL0     H13008   4.025   7.112   8.666 -2.2931 -1.3884 -0.0938
   99MOL0     H13009   4.266   7.006   8.621 -2.1169  4.1800  0.1290
   99MOL0     H13010   4.181   6.859   8.562 -0.7943  0.9152 -1.2169
   99MOL0     H13011   4.170   7.005   8.827 -0.4069  0.5196 -0.6674
   99MOL0     H13012   4.052   6.873   8.778  1.3171 -3.4115 -0.0739
   99MOL0     H13013   4.347   6.844   8.844 -0.5125  0.7528  0.4812
   99MOL0     H13014   4.289   6.735   8.737  3.9492  3.5332 -2.5503
   99MOL0     H13015   4.098   6.764   8.979 -0.0309 -2.9100  1.7059
   99MOL0     H13016   4.258   6.696   9.003 -0.9246  0.1519  1.0956
   99MOL0     H13017   4.018   6.568   8.915 -0.2032  2.5698  1.5159
   99MOL0     H13018   4.114   6.596   8.769 -0.4053  0.6771  0.2931
   99MOL0     H13019   4.304   6.493   8.899  1.1122 -4.0760  1.2588
   99MOL0     H13020   4.186   6.388   8.840  1.1628 -0.5918  0.1252
   99MOL0     H13021   4.029   6.268   9.036  2.1283 -1.9547 -1.5013
   99MOL0     H13022   4.115   6.131   9.329  0.0025  0.3155  2.8018
   99MOL0     H13023   3.955   6.196   9.283  0.8456  1.4123 -1.5292
   99MOL0     H13024   4.145   6.311   9.498 -0.5876  0.5066  1.5757
   99MOL0     H13025   4.027   6.175   9.530 -2.0419  0.5868 -0.6745
   99MOL0     H13026   3.994   6.454   9.513  0.7302 -0.3672 -0.9302
   99MOL0     H13027   3.876   6.375   9.397 -0.3390 -1.6216 -0.4807
   99MOL0     H13028   3.788   6.425   9.639 -0.2627  0.4563 -0.8439
   99MOL0     H13029   3.919   6.326   9.696  1.5961 -0.2979 -1.6103
   99MOL0     H13030   3.668   6.459   9.441  1.8564 -0.0001  2.3349
   99MOL0     H13031   3.462   6.454   9.345  1.8284  1.3029  0.9566
   99MOL0     H13032   2.987   6.395   9.360 -0.2245  4.4385  0.6741
   99MOL0     H13033   2.796   6.416   9.223  0.1630  0.4450  0.7719
   99MOL0     H13034   2.870   6.305   8.807 -0.8087 -1.1531 -4.5746
   99MOL0     H13035   2.870   6.465   8.737 -1.5581  0.5213 -0.5809
   99MOL0     H13036   2.703   6.359   8.635  2.9467  1.4456  0.1925
   99MOL0     H13037   2.625   6.468   8.766 -0.5424 -0.5386 -1.6265
   99MOL0     H13038   2.640   6.163   8.754 -0.7871 -0.6621 -2.3017
   99MOL0     H13039   2.491   6.267   8.745  0.2086  1.9024 -0.1048
   99MOL0     H13040   2.659   6.187   8.986 -0.8101  1.8393  1.5929
   99MOL0     H13041   2.562   6.341   8.990  0.5146  0.7510  1.2531
   99MOL0     H13042   2.459   6.053   8.917  1.5371  0.3174 -0.3131
   99MOL0     H13043   2.379   6.212   8.901  0.2393  1.5501  0.6799
   99MOL0     H13044   2.417   6.254   9.135 -1.2687  1.3471 -3.4110
   99MOL0     H13045   2.496   6.095   9.157  0.1493  4.0951  2.4623
   99MOL0     H13046   2.217   6.152   9.066  1.3340  1.5807 -0.4821
   99MOL0     H13047   2.270   5.993   9.074 -0.0205  0.3430  0.3614
   99MOL0     H13048   2.256   6.168   9.326 -0.6308 -1.6703  1.2739
   99MOL0     H13049   2.338   6.020   9.313  0.2918  1.7577  2.3917
   99MOL0     H13050   3.068   6.449   8.871 -0.2195 -4.6395 -0.4177
   99MOL0     H13051   3.253   6.405   9.006 -0.8397 -4.0020 -2.6393
   99MOL0     H13052   3.388   6.051   9.414 -2.9310  1.4916  1.7022
   99MOL0     H13053   3.616   6.046   9.559 -1.9903 -0.0599  0.1853
   99MOL0     H13054   4.162   7.255   8.240 -0.4476  1.4791 -3.1539
   99MOL0     H13055   4.181   7.274   7.977 -1.7486  0.4645 -0.3568
   99MOL0     H13056   4.012   7.322   7.553  0.0564  0.0033  3.5232
   99MOL0     H13057   4.033   7.313   7.312 -0.1043 -2.1681 -1.7807
   99MOL0     H13058   4.370   7.089   7.145 -0.0467  0.8479  1.4630
   99MOL0     H13059   4.290   7.129   6.990 -1.0813  3.0203  1.1056
   99MOL0     H13060   4.298   6.882   7.041 -0.4763 -0.2944 -1.7332
   99MOL0     H13061   4.191   6.895   7.176 -1.7708 -0.2937 -0.4304
   99MOL0     H13062   4.140   6.955   6.882 -1.8468  2.4988 -0.8185
   99MOL0     H13063   4.021   6.992   6.999 -1.4205 -0.6098  0.7391
   99MOL0     H13064   4.107   6.712   6.981  1.4467  0.9081 -2.5302
   99MOL0     H13065   3.968   6.784   7.074 -0.3482  2.2115 -0.2973
   99MOL0     H13066   3.821   6.813   6.681 -1.4457  1.6214  0.8418
   99MOL0     H13067   4.327   7.001   7.340 -2.4598 -2.2526 -1.3629
   99MOL0     H13068   4.288   6.998   7.573  3.0053  1.8895  1.0196
  100MOL0     O13069   2.282   1.297   6.009  0.2720 -0.3727  0.1172
  100MOL0     C13070   2.229   1.348   5.910 -0.6438 -0.6892  1.0290
  100MOL0     O13071   2.200   1.283   5.796  0.3893  0.0688  0.4678
  100MOL0     C13072   2.234   1.156   5.792  0.1765 -0.0642  0.2666
  100MOL0     C13073   2.361   1.126   5.739  0.1323 -0.7419 -0.5982
  100MOL0     C13074   2.408   0.992   5.733  0.3757  0.2477 -0.2138
  100MOL0     C13075   2.326   0.885   5.773  0.9975  0.2900  0.6177
  100MOL0     O13076   2.376   0.759   5.773 -0.6154  0.8997 -0.4842
  100MOL0     C13077   2.503   0.737   5.827  0.1979 -1.0092 -0.2792
  100MOL0     C13078   2.536   0.588   5.824  0.4331 -0.4650 -0.2823
  100MOL0     C13079   2.563   0.524   5.700 -0.2565  0.3855 -0.2006
  100MOL0     C13080   2.641   0.389   5.700 -0.3824  0.3713 -0.0003
  100MOL0     C13081   2.785   0.396   5.734 -0.1876 -0.2661  0.4955
  100MOL0     C13082   2.878   0.310   5.647 -0.5305 -0.5003 -1.0316
  100MOL0     C13083   2.839   0.155   5.636  0.7157  0.2190  0.0170
  100MOL0     C13084   2.915   0.090   5.519 -0.2141  0.4958 -0.0319
  100MOL0     N13085   3.063   0.094   5.525  0.0224 -0.5766 -0.3647
  100MOL0     C13086   3.147   0.201   5.483  0.1327 -0.3074  0.6112
  100MOL0     C13087   3.260   0.194   5.552 -0.3794  0.4663 -0.2143
  100MOL0     C13088   3.388   0.268   5.547 -0.3165 -0.5995  0.1932
  100MOL0     C13089   3.501   0.205   5.475 -0.5942  0.0200  1.4193
  100MOL0     C13090   3.560   0.071   5.536  0.4002  0.3806 -0.2003
  100MOL0     C13091   3.607   0.094   5.677  0.3982  0.0719 -0.4859
  100MOL0     O13092   3.691   0.210   5.690  0.2845  0.1442  0.6608
  100MOL0     C13093   3.748   0.242   5.817  0.4996 -0.0268 -0.0478
  100MOL0     C13094   3.846   0.336   5.806 -0.3174 -0.4748  0.0520
  100MOL0     C13095   3.922   0.374   5.911 -0.2046  0.5755  0.2689
  100MOL0     C13096   3.918   0.298   6.032  0.7815  0.5767 -0.5474
  100MOL0     C13097   4.011   0.322   6.145  0.0194  0.3360 -0.3887
  100MOL0     O13098   4.027   0.222   6.237 -0.7890  0.4948 -0.9305
  100MOL0     C13099   4.099   0.252   6.355 -0.0968  0.3485  0.5050
  100MOL0     C13100   4.043   0.274   6.477  0.0018  0.4114  0.4552
  100MOL0     C13101   4.115   0.295   6.596  0.3085 -0.0926 -0.9912
  100MOL0     C13102   4.254   0.302   6.591  0.3745  0.0615  0.1808
  100MOL0     O13103   4.336   0.346   6.688 -0.2205  0.1312 -0.0411
  100MOL0     C13104   4.357   0.244   6.802 -0.2798 -0.4513 -0.1266
  100MOL0     C13105   4.425   0.325   6.915 -0.4993  0.7929 -0.3626
  100MOL0     C13106   4.549   0.405   6.881  1.2562  0.3312  0.0550
  100MOL0     C13107   4.670   0.314   6.864  0.0204 -0.2936 -0.1336
  100MOL0     C13108   4.805   0.390   6.878 -0.2330  0.2469  0.0576
  100MOL0     C13109   4.828   0.491   6.763 -0.3964 -0.1333 -0.6213
  100MOL0     C13110   4.961   0.566   6.781 -0.1602 -0.1482 -0.2404
  100MOL0     C13111   5.008   0.649   6.660 -0.7686  0.3469 -0.5435
  100MOL0    Cl13112   5.123   0.779   6.706  0.0470 -0.0032  0.2131
  100MOL0     C13113   4.313   0.261   6.475 -0.3327 -0.1057  1.0180
  100MOL0     C13114   4.238   0.238   6.355  0.4924  0.1139  0.0876
  100MOL0     O13115   4.056   0.435   6.155 -0.3797 -0.6086  0.2169
  100MOL0     C13116   3.824   0.195   6.047  0.6581 -0.0013  0.1108
  100MOL0     C13117   3.748   0.160   5.933  0.0826 -0.0296  0.0615
  100MOL0     N13118   3.246   0.087   5.642 -0.0050 -0.0714  0.7059
  100MOL0     N13119   3.128   0.032   5.632 -0.1649  0.3893  0.4475
  100MOL0     C13120   2.195   0.916   5.824 -0.1877 -0.1869 -0.5164
  100MOL0     C13121   2.151   1.047   5.823  0.0149  0.7232  0.0956
  100MOL0     C13122   2.200   1.488   5.904 -0.2277 -0.0620 -0.9104
  100MOL0     C13123   2.116   1.550   5.814  0.7813 -0.1461 -0.8212
  100MOL0     C13124   2.077   1.686   5.825 -0.3060 -0.3601 -0.8505
  100MOL0     C13125   2.134   1.764   5.928 -0.5381  0.6069  0.1066
  100MOL0     O13126   2.105   1.901   5.946  0.5094  0.6425  0.3622
  100MOL0     C13127   1.979   1.956   5.894 -0.4901 -0.3370 -0.3806
  100MOL0     C13128   1.852   1.938   5.981  0.5757  0.0415 -0.4266
  100MOL0     C13129   1.858   1.978   6.126  0.6884  0.5490  0.3964
  100MOL0     C13130   1.825   2.124   6.148 -0.6926 -0.5268  1.3164
  100MOL0     C13131   1.796   2.150   6.295  0.4802 -0.6808  1.3702
  100MOL0     C13132   1.775   2.150   6.414  0.1660 -0.4394 -0.6116
  100MOL0     C13133   2.203   1.694   6.030  0.0204 -0.3535  0.3955
  100MOL0     C13134   2.227   1.559   6.025 -0.8776  0.4430 -0.2999
  100MOL0     H13135   2.428   1.202   5.700 -0.7145  0.0937 -0.4439
  100MOL0     H13136   2.510   0.982   5.698 -0.1955 -1.0008 -1.6876
  100MOL0     H13137   2.511   0.779   5.928  1.2989 -0.7161 -0.4707
  100MOL0     H13138   2.577   0.791   5.768 -1.1998 -1.0517 -2.1581
  100MOL0     H13139   2.454   0.530   5.866  0.7181 -0.7784 -0.1555
  100MOL0     H13140   2.621   0.570   5.890  0.6743  0.0675 -0.4404
  100MOL0     H13141   2.609   0.594   5.629 -0.9215 -0.6703 -1.7312
  100MOL0     H13142   2.466   0.507   5.652 -0.6007 -0.3823  0.7439
  100MOL0     H13143   2.587   0.310   5.754 -1.6280  1.5505  0.5231
  100MOL0     H13144   2.641   0.360   5.594 -1.1264 -2.5796  0.6911
  100MOL0     H13145   2.808   0.366   5.837 -0.6231 -4.2991 -0.4109
  100MOL0     H13146   2.818   0.499   5.719  0.2159 -0.1738  1.8343
  100MOL0     H13147   2.978   0.303   5.690 -0.7388 -2.2804 -0.7365
  100MOL0     H13148   2.875   0.358   5.549 -1.0277  1.4919 -0.0827
  100MOL0     H13149   2.863   0.088   5.719  0.5597 -0.4960 -0.5159
  100MOL0     H13150   2.732   0.155   5.617  0.9341  1.6575 -1.5091
  100MOL0     H13151   2.878   0.138   5.428  0.5691  1.0744 -0.0533
  100MOL0     H13152   2.891  -0.016   5.526 -3.0264  1.1638  3.0681
  100MOL0     H13153   3.131   0.277   5.407  1.5066  1.6033  2.1087
  100MOL0     H13154   3.423   0.287   5.649 -0.2603 -2.4216  0.5392
  100MOL0     H13155   3.372   0.363   5.494  3.4241  0.1797  0.1452
  100MOL0     H13156   3.592   0.265   5.467  0.0755 -1.2007 -0.9592
  100MOL0     H13157   3.482   0.198   5.368  0.5281  2.5492  0.9946
  100MOL0     H13158   3.483  -0.007   5.527 -0.1650  0.6865  1.4947
  100MOL0     H13159   3.646   0.030   5.481  0.5561  0.1765  0.1891
  100MOL0     H13160   3.668   0.006   5.702  0.8945  1.4362  4.0829
  100MOL0     H13161   3.528   0.107   5.752  2.7561  2.6578  1.8143
  100MOL0     H13162   3.869   0.381   5.711  2.0425 -0.5416  0.5395
  100MOL0     H13163   3.997   0.453   5.913 -0.0339  0.4211 -0.1438
  100MOL0     H13164   3.937   0.291   6.489 -0.1979 -1.7894  2.6230
  100MOL0     H13165   4.082   0.332   6.692  1.1419 -1.9734  0.0654
  100MOL0     H13166   4.434   0.171   6.777 -0.5503 -1.1811  1.0915
  100MOL0     H13167   4.262   0.197   6.828 -1.6386  2.7287  1.3034
  100MOL0     H13168   4.438   0.256   6.999  1.0244  0.1346 -1.0946
  100MOL0     H13169   4.357   0.406   6.942  0.8703  3.0522 -3.0532
  100MOL0     H13170   4.577   0.472   6.963  0.2538 -0.5407  1.1442
  100MOL0     H13171   4.536   0.466   6.791 -0.3141  1.3559  0.9205
  100MOL0     H13172   4.667   0.251   6.953  0.3120 -2.4588 -1.5887
  100MOL0     H13173   4.662   0.259   6.770  2.1100 -0.1472 -0.4487
  100MOL0     H13174   4.887   0.319   6.873  0.9635  1.6413 -0.9054
  100MOL0     H13175   4.801   0.429   6.980 -3.7403  1.0530 -0.2356
  100MOL0     H13176   4.749   0.566   6.773 -1.1087 -0.3086 -3.8370
  100MOL0     H13177   4.816   0.455   6.661 -1.5519  1.7131 -1.1769
  100MOL0     H13178   4.943   0.628   6.870  0.9709 -0.6454  0.3537
  100MOL0     H13179   5.043   0.501   6.810 -1.6262 -1.6405  0.7875
  100MOL0     H13180   4.925   0.698   6.608 -1.5372  0.4128  0.7222
  100MOL0     H13181   5.059   0.586   6.587  2.0117 -1.3854  2.6325
  100MOL0     H13182   4.421   0.261   6.484 -0.4468  2.3425  3.8808
  100MOL0     H13183   4.291   0.202   6.267  0.2836 -0.3473  0.1468
  100MOL0     H13184   3.811   0.123   6.127  2.1012 -0.8160 -0.3520
  100MOL0     H13185   3.694   0.066   5.939  0.6587 -0.4285 -0.7762
  100MOL0     H13186   2.137   0.835   5.867  1.5387 -1.4687 -0.4989
  100MOL0     H13187   2.049   1.077   5.843  1.2832  3.4803  3.5991
  100MOL0     H13188   2.082   1.495   5.727 -2.0767 -2.5632  1.5882
  100MOL0     H13189   2.004   1.719   5.752  0.5407 -0.9889 -2.0239
  100MOL0     H13190   1.954   1.920   5.795  0.6307 -0.2446 -0.7106
  100MOL0     H13191   1.974   2.066   5.895 -4.8138 -0.3414  0.3567
  100MOL0     H13192   1.780   2.001   5.927  2.4002  0.7688 -2.1635
  100MOL0     H13193   1.815   1.835   5.981 -0.6179  0.4483  0.6320
  100MOL0     H13194   1.953   1.954   6.175  2.4900  4.1515 -0.9678
  100MOL0     H13195   1.787   1.920   6.185  1.9396 -1.6746 -0.1365
  100MOL0     H13196   1.910   2.182   6.111 -1.0548  1.5229  3.3910
  100MOL0     H13197   1.740   2.156   6.088  0.7548 -0.8558 -1.0256
  100MOL0     H13198   1.768   2.136   6.520  0.5346  0.3144 -0.4816
  100MOL0     H13199   2.235   1.746   6.120 -1.4149  0.0263  0.7025
  100MOL0     H13200   2.276   1.520   6.114  0.9646 -0.1347 -1.5066
  101MOL0     O13201   0.618  11.377  10.429 -0.0341 -0.3118  1.0083
  101MOL0     C13202   0.539  11.380  10.334 -0.0456 -0.0884  0.3200
  101MOL0     O13203   0.440  11.295  10.306  0.2906  0.2252  0.0074
  101MOL0     C13204   0.432  11.178  10.375  0.5584 -0.5319  0.1231
  101MOL0     C13205   0.306  11.148  10.443  0.2449  0.6323  0.3118
  101MOL0     C13206   0.286  11.025  10.502  0.4541  0.5689 -0.0072
  101MOL0     C13207   0.385  10.929  10.494  0.6727  0.2472 -0.6409
  101MOL0     O13208   0.371  10.814  10.563  0.4873 -0.3224 -0.4160
  101MOL0     C13209   0.443  10.793  10.684  0.4778  0.2265 -1.0517
  101MOL0     C13210   0.342  10.750  10.798  0.4190  0.6250 -0.1257
  101MOL0     C13211   0.407  10.678  10.915  0.2985  0.4173 -0.0718
  101MOL0     C13212   0.433  10.530  10.887  0.3239 -0.6081  0.1324
  101MOL0     C13213   0.306  10.451  10.894 -0.7166  1.2399 -0.7755
  101MOL0     C13214   0.241  10.445  11.035 -0.4266  0.1742 -0.6512
  101MOL0     C13215   0.124  10.349  11.035  0.4367  0.0841 -0.4031
  101MOL0     C13216  -0.003  10.402  10.944 -0.0255  0.6108 -0.2740
  101MOL0     N13217  -0.050  10.533  10.987  0.2516 -0.0693 -0.0340
  101MOL0     C13218  -0.008  10.657  10.931  0.5736  0.4850 -0.2794
  101MOL0     C13219  -0.052  10.757  11.007  0.9428  0.2017 -0.8689
  101MOL0     C13220  -0.040  10.908  11.006 -0.7852  0.3458 -0.5316
  101MOL0     C13221   0.090  10.971  11.070  1.3926  0.1081  0.2208
  101MOL0     C13222   0.122  10.901  11.201 -0.3767  0.9483 -0.3549
  101MOL0     C13223   0.269  10.925  11.226 -0.2441 -0.3096 -0.9958
  101MOL0     O13224   0.340  10.807  11.269  0.1770 -0.5944 -0.4004
  101MOL0     C13225   0.284  10.742  11.376  0.1179 -0.0386 -0.7110
  101MOL0     C13226   0.296  10.603  11.364  0.7301 -0.6984  0.0269
  101MOL0     C13227   0.223  10.512  11.440 -0.0586 -0.7945 -0.8985
  101MOL0     C13228   0.146  10.564  11.541  0.0683  0.1043 -0.2767
  101MOL0     C13229   0.074  10.469  11.626  0.5382  0.4655 -0.6852
  101MOL0     O13230  -0.049  10.518  11.681  0.2040  0.4722  0.0019
  101MOL0     C13231  -0.139  10.426  11.740 -0.4062 -0.5297  0.0108
  101MOL0     C13232  -0.190  10.319  11.658  0.2077  0.1884 -0.6047
  101MOL0     C13233  -0.273  10.223  11.723 -0.3852  0.1563  0.4487
  101MOL0     C13234  -0.291  10.223  11.857 -0.6421 -0.4900 -0.6346
  101MOL0     O13235  -0.359  10.120  11.921  0.4039 -0.0013  0.1799
  101MOL0     C13236  -0.470  10.060  11.845 -0.2565  0.0341 -0.0315
  101MOL0     C13237  -0.564   9.993  11.950  0.0374 -0.5332 -0.3567
  101MOL0     C13238  -0.651  10.095  12.044  0.0539  0.7723  0.7987
  101MOL0     C13239  -0.728  10.016  12.157 -0.2807  1.0330  0.0882
  101MOL0     C13240  -0.838  10.099  12.201 -0.4203  0.1226  0.7634
  101MOL0     C13241  -0.976  10.034  12.195 -0.5297 -1.3848 -0.0635
  101MOL0     C13242  -1.068  10.099  12.290  0.3136  0.0591  0.3251
  101MOL0     C13243  -1.171   9.974  12.328 -0.4169 -0.9416 -0.1908
  101MOL0    Cl13244  -1.252   9.910  12.191 -0.4696 -0.1473 -0.3494
  101MOL0     C13245  -0.243  10.327  11.930  0.8464 -0.3753 -0.5201
  101MOL0     C13246  -0.169  10.433  11.878 -1.3456 -0.2344  0.0042
  101MOL0     O13247   0.110  10.353  11.624 -0.0037  0.6443 -0.1177
  101MOL0     C13248   0.134  10.701  11.564 -0.4332  0.5911  0.3470
  101MOL0     C13249   0.212  10.792  11.482 -0.6804  0.0798 -1.2908
  101MOL0     N13250  -0.134  10.695  11.107  0.1374 -0.4538 -0.6429
  101MOL0     N13251  -0.134  10.564  11.093 -0.4307  0.2848 -0.0934
  101MOL0     C13252   0.503  10.956  10.432 -0.2969 -0.0020  0.7394
  101MOL0     C13253   0.524  11.079  10.367  0.0635 -0.4966  0.0479
  101MOL0     C13254   0.551  11.480  10.234 -0.0033 -0.0654 -0.1728
  101MOL0     C13255   0.662  11.562  10.227  1.1552 -0.1491  0.0278
  101MOL0     C13256   0.675  11.664  10.132 -1.7272  0.4308  0.1535
  101MOL0     C13257   0.569  11.690  10.037 -0.7164 -0.7485  0.0087
  101MOL0     O13258   0.586  11.786   9.952 -0.1053  0.4231 -0.3070
  101MOL0     C13259   0.466  11.855   9.906 -0.5205 -0.8729 -0.7412
  101MOL0     C13260   0.492  12.007   9.885  0.1059 -0.3530 -1.1822
  101MOL0     C13261   0.487  12.084  10.020 -0.9176  0.4783 -0.3708
  101MOL0     C13262   0.456  12.229  10.020 -0.6566  0.2343 -0.4096
  101MOL0     C13263   0.329  12.259   9.943 -0.7671  0.9822 -0.7733
  101MOL0     C13264   0.230  12.299   9.898  1.0213 -0.3832 -0.0312
  101MOL0     C13265   0.458  11.610  10.050  0.0512 -0.5688 -0.1884
  101MOL0     C13266   0.449  11.503  10.139 -0.2611  0.0502  0.5627
  101MOL0     H13267   0.232  11.228  10.445 -0.6857 -0.2235  0.8150
  101MOL0     H13268   0.210  10.996  10.574  0.1380 -2.0371 -1.3001
  101MOL0     H13269   0.499  10.882  10.712  1.7696 -1.7244  3.4657
  101MOL0     H13270   0.519  10.717  10.663  0.1663 -1.8348  3.9254
  101MOL0     H13271   0.264  10.687  10.754  1.8567 -0.4949 -1.1411
  101MOL0     H13272   0.289  10.833  10.845  0.1367 -0.1393  0.9656
  101MOL0     H13273   0.346  10.692  11.005 -1.4513 -0.0980 -1.1292
  101MOL0     H13274   0.508  10.720  10.918  2.3585 -3.9684 -0.8295
  101MOL0     H13275   0.477  10.521  10.787 -1.2515  0.3915 -0.6989
  101MOL0     H13276   0.499  10.485  10.961 -0.5502 -2.7520 -0.3012
  101MOL0     H13277   0.341  10.350  10.874  1.0493  1.4976  0.7238
  101MOL0     H13278   0.235  10.464  10.811 -2.5742 -1.5887  0.2465
  101MOL0     H13279   0.210  10.540  11.080  1.8300 -0.2406  2.1332
  101MOL0     H13280   0.326  10.415  11.096 -0.6892  3.4291  1.5946
  101MOL0     H13281   0.159  10.256  10.989  2.2374  0.6552 -0.2823
  101MOL0     H13282   0.092  10.337  11.139 -1.4944  3.0808 -0.5367
  101MOL0     H13283  -0.086  10.333  10.962  2.3453 -2.8068 -1.4479
  101MOL0     H13284   0.024  10.394  10.839  2.2491  0.7218  0.2581
  101MOL0     H13285   0.060  10.672  10.847  1.4468 -1.4885  0.0311
  101MOL0     H13286  -0.124  10.951  11.062 -0.2238  0.1189  0.5044
  101MOL0     H13287  -0.048  10.940  10.901 -0.8976  1.2117 -0.2682
  101MOL0     H13288   0.082  11.079  11.080 -0.1955 -0.1971  2.9810
  101MOL0     H13289   0.172  10.950  11.000  1.0618 -2.3370  0.4484
  101MOL0     H13290   0.072  10.938  11.290 -0.9093 -3.1377  1.2420
  101MOL0     H13291   0.108  10.792  11.196  0.5092  0.8710 -2.5493
  101MOL0     H13292   0.285  11.011  11.293 -0.9149  0.1631 -1.4333
  101MOL0     H13293   0.316  10.946  11.129  2.2607  0.1771  0.2268
  101MOL0     H13294   0.359  10.574  11.280 -0.9963  0.1720 -1.6587
  101MOL0     H13295   0.227  10.405  11.419 -1.1396 -0.1685 -5.4080
  101MOL0     H13296  -0.149  10.301  11.559  0.4676  0.8201 -0.6168
  101MOL0     H13297  -0.313  10.140  11.666 -1.5482  1.6868 -1.0760
  101MOL0     H13298  -0.427   9.979  11.785 -2.0135 -0.1992 -1.0320
  101MOL0     H13299  -0.525  10.125  11.776  1.6247  0.9771 -0.7152
  101MOL0     H13300  -0.503   9.928  12.012  0.0870 -3.6406 -3.3457
  101MOL0     H13301  -0.639   9.931  11.900 -0.1420 -1.2108  0.7218
  101MOL0     H13302  -0.713  10.149  11.972  3.8558  2.1813 -1.7478
  101MOL0     H13303  -0.585  10.167  12.093  2.4867 -1.0882  0.4259
  101MOL0     H13304  -0.769   9.920  12.123  4.5914 -1.2298 -0.2833
  101MOL0     H13305  -0.662   9.985  12.239 -0.7875  1.9662  0.8767
  101MOL0     H13306  -0.846  10.194  12.147  1.0071 -0.2672 -0.2083
  101MOL0     H13307  -0.818  10.124  12.305  1.9732 -2.4949  1.0385
  101MOL0     H13308  -0.960   9.933  12.232  0.3031 -1.2197  0.0454
  101MOL0     H13309  -1.007  10.041  12.090  0.8816 -0.8587 -0.4755
  101MOL0     H13310  -1.037  10.126  12.391 -0.4651 -0.5440  0.7401
  101MOL0     H13311  -1.117  10.182  12.239  2.0083  0.6181 -0.4558
  101MOL0     H13312  -1.234  10.017  12.407  1.8246  0.6409  0.8371
  101MOL0     H13313  -1.119   9.897  12.385  0.0466  1.3371  2.7580
  101MOL0     H13314  -0.271  10.340  12.034 -3.4861  0.2879 -1.5944
  101MOL0     H13315  -0.124  10.517  11.930  2.0452  0.9772 -4.2798
  101MOL0     H13316   0.083  10.742  11.651  0.2640 -2.0825  2.1506
  101MOL0     H13317   0.208  10.897  11.508  1.3750  0.9594 -4.0145
  101MOL0     H13318   0.574  10.877  10.409 -1.2788 -0.8006  0.3910
  101MOL0     H13319   0.616  11.095  10.311  0.4269 -3.0446 -0.2042
  101MOL0     H13320   0.743  11.539  10.296  0.3125  1.2125  1.5580
  101MOL0     H13321   0.768  11.719  10.124 -2.9986  2.3821 -2.5252
  101MOL0     H13322   0.380  11.840   9.972 -0.2590 -3.3145 -0.8664
  101MOL0     H13323   0.451  11.824   9.803  3.1279 -0.8656 -1.4122
  101MOL0     H13324   0.599  12.011   9.866  0.0685  1.5065 -1.1866
  101MOL0     H13325   0.431  12.057   9.809  1.0278  3.4148  0.3334
  101MOL0     H13326   0.582  12.066  10.071  0.2159  0.0332 -2.4980
  101MOL0     H13327   0.410  12.035  10.080 -1.5588  0.3517 -1.2747
  101MOL0     H13328   0.452  12.264  10.123  1.7783 -0.6895  0.0729
  101MOL0     H13329   0.542  12.280   9.976  2.2797 -1.6568  2.6695
  101MOL0     H13330   0.153  12.328   9.829  1.0659 -0.9306 -0.3163
  101MOL0     H13331   0.384  11.621   9.971  2.7141  0.2863 -2.7930
  101MOL0     H13332   0.366  11.433  10.133 -0.3009 -0.1972  3.0210
  102MOL0     O13333  10.391   2.372   2.110  0.2024 -0.9741  0.5671
  102MOL0     C13334  10.455   2.473   2.071 -0.3426  0.0982  0.0346
  102MOL0     O13335  10.405   2.577   2.001 -0.3613  0.1712  0.3738
  102MOL0     C13336  10.295   2.536   1.923  0.2475 -0.4740 -0.2420
  102MOL0     C13337  10.175   2.608   1.908  0.0953 -0.1237  0.0237
  102MOL0     C13338  10.089   2.583   1.807  0.0887 -0.5789  0.2838
  102MOL0     C13339  10.093   2.465   1.735 -0.0230 -0.6289 -0.0169
  102MOL0     O13340  10.001   2.428   1.647  0.4654 -0.6651  1.0946
  102MOL0     C13341   9.866   2.429   1.703  0.0424 -0.3174 -0.1164
  102MOL0     C13342   9.763   2.334   1.638 -0.2050 -0.5106 -1.3048
  102MOL0     C13343   9.674   2.409   1.552  0.1188 -0.2364 -0.2024
  102MOL0     C13344   9.584   2.321   1.469  0.4568  0.0488  1.0412
  102MOL0     C13345   9.498   2.233   1.567 -0.0411 -0.2985  1.2611
  102MOL0     C13346   9.407   2.305   1.662 -0.0061 -0.3557 -0.2869
  102MOL0     C13347   9.296   2.396   1.586 -0.6862  0.4557 -0.7737
  102MOL0     C13348   9.209   2.462   1.687 -0.0112  0.0183  0.6768
  102MOL0     N13349   9.124   2.375   1.770 -0.6731 -0.0960  0.5939
  102MOL0     C13350   9.132   2.376   1.909 -0.1517  0.4784 -0.7042
  102MOL0     C13351   9.052   2.275   1.950 -0.3367  0.2199  0.1653
  102MOL0     C13352   9.008   2.245   2.091 -0.7675  0.4707  0.1458
  102MOL0     C13353   8.868   2.185   2.121  0.4884 -0.4415 -0.5311
  102MOL0     C13354   8.838   2.046   2.057 -0.9409 -0.5931  0.4634
  102MOL0     C13355   8.736   1.967   2.123 -0.0865  0.0467 -0.4843
  102MOL0     O13356   8.707   1.841   2.063 -0.1607  0.7730 -0.1323
  102MOL0     C13357   8.625   1.745   2.115 -0.1159 -0.3364 -0.4875
  102MOL0     C13358   8.584   1.646   2.032 -0.1729  0.1540  0.0235
  102MOL0     C13359   8.510   1.535   2.089  0.8580  0.2916  0.4404
  102MOL0     C13360   8.506   1.508   2.231  0.2185  0.2062 -1.1637
  102MOL0     C13361   8.451   1.377   2.280  0.2115  0.5449  1.2234
  102MOL0     O13362   8.412   1.282   2.191 -0.0462  0.3498 -0.7713
  102MOL0     C13363   8.378   1.154   2.222  0.0176 -0.0118  0.5316
  102MOL0     C13364   8.341   1.081   2.109 -0.1618 -0.0804 -0.0885
  102MOL0     C13365   8.319   0.941   2.128  0.3594  0.2885 -0.4848
  102MOL0     C13366   8.337   0.881   2.251  0.1077 -1.5299  0.3227
  102MOL0     O13367   8.296   0.750   2.256 -0.2578  0.1232 -0.2482
  102MOL0     C13368   8.217   0.723   2.369 -0.4570 -0.1155 -0.1686
  102MOL0     C13369   8.066   0.768   2.357 -0.4126  0.3954 -0.5023
  102MOL0     C13370   8.041   0.908   2.411 -0.4829 -0.0946  0.4914
  102MOL0     C13371   8.055   0.920   2.561 -0.9050  0.6438  0.7001
  102MOL0     C13372   7.994   1.052   2.618  1.2259 -0.3525 -0.5190
  102MOL0     C13373   7.838   1.029   2.627  0.1161 -0.0075  0.0547
  102MOL0     C13374   7.765   1.152   2.643  0.2369 -0.2181  0.2352
  102MOL0     C13375   7.612   1.139   2.659 -1.2551  0.1384  0.3553
  102MOL0    Cl13376   7.528   1.285   2.624 -0.6355 -0.1097  0.0075
  102MOL0     C13377   8.392   0.954   2.362 -0.5817  0.4943  0.6383
  102MOL0     C13378   8.409   1.093   2.350  0.6207 -0.5291  0.2817
  102MOL0     O13379   8.443   1.364   2.404 -0.0728  0.0103 -0.4383
  102MOL0     C13380   8.562   1.612   2.318  0.6882  0.3243  0.2140
  102MOL0     C13381   8.618   1.729   2.258 -0.4228  0.8981  0.5772
  102MOL0     N13382   9.003   2.212   1.839 -0.5399 -0.0234  1.0448
  102MOL0     N13383   9.047   2.270   1.736  0.9380 -0.0495 -0.1185
  102MOL0     C13384  10.206   2.389   1.752  0.6377 -0.6997  0.5339
  102MOL0     C13385  10.308   2.428   1.837 -0.0528  0.0843 -0.1770
  102MOL0     C13386  10.592   2.481   2.120  0.2960 -0.0933  0.0415
  102MOL0     C13387  10.638   2.378   2.199  0.5667 -0.5146  1.2194
  102MOL0     C13388  10.772   2.360   2.231  0.4548  0.4082 -0.2082
  102MOL0     C13389  10.860   2.454   2.176 -0.3538 -0.4907  0.9218
  102MOL0     O13390  10.996   2.424   2.172 -0.0533  0.1288 -0.4865
  102MOL0     C13391  11.050   2.324   2.258 -0.0223  0.0760  0.9176
  102MOL0     C13392  11.204   2.306   2.237 -0.6547  0.0341 -0.4454
  102MOL0     C13393  11.246   2.220   2.111 -0.2078 -0.9799 -1.1611
  102MOL0     C13394  11.385   2.153   2.119  1.0738 -0.1837  0.5063
  102MOL0     C13395  11.488   2.260   2.120 -0.0069 -0.2127  0.3196
  102MOL0     C13396  11.575   2.351   2.107 -0.1894  0.2513 -0.3825
  102MOL0     C13397  10.818   2.560   2.101 -0.4077 -0.5156 -0.5245
  102MOL0     C13398  10.682   2.580   2.069 -0.9378  0.7023  0.7389
  102MOL0     H13399  10.164   2.686   1.983 -0.8724 -0.0284 -0.2030
  102MOL0     H13400  10.006   2.650   1.784  0.3045 -0.6119 -0.6289
  102MOL0     H13401   9.847   2.535   1.688  2.7784  0.0548 -1.5952
  102MOL0     H13402   9.879   2.396   1.807  0.0597 -0.6913 -0.2346
  102MOL0     H13403   9.709   2.292   1.723  0.5340  2.0641  0.5694
  102MOL0     H13404   9.804   2.253   1.577 -1.3017 -0.2118 -2.4820
  102MOL0     H13405   9.728   2.477   1.485  2.0143  0.2886  1.7468
  102MOL0     H13406   9.625   2.486   1.613  2.7797  0.5231  1.1534
  102MOL0     H13407   9.525   2.391   1.410  3.5484 -0.0854 -2.5840
  102MOL0     H13408   9.630   2.239   1.413 -0.5715  0.4200 -0.4061
  102MOL0     H13409   9.552   2.158   1.624  0.7437 -0.7404 -0.0067
  102MOL0     H13410   9.428   2.176   1.505  0.9207 -0.8370  0.6551
  102MOL0     H13411   9.455   2.375   1.731 -0.3002 -2.6340  2.4398
  102MOL0     H13412   9.349   2.240   1.728  1.7302 -0.7353  0.9570
  102MOL0     H13413   9.338   2.474   1.522  0.9786 -0.3584 -0.6976
  102MOL0     H13414   9.239   2.329   1.521  1.3811 -2.3671  0.1519
  102MOL0     H13415   9.146   2.518   1.618 -0.8681 -2.7537 -0.9523
  102MOL0     H13416   9.264   2.536   1.746  0.0752  1.8347 -1.5813
  102MOL0     H13417   9.204   2.435   1.965  1.9490 -1.2697 -1.4176
  102MOL0     H13418   9.023   2.335   2.151  0.9055 -0.4661  1.1886
  102MOL0     H13419   9.070   2.167   2.135 -0.4508 -1.2671 -3.1246
  102MOL0     H13420   8.784   2.250   2.096 -2.7105 -3.6776  0.8647
  102MOL0     H13421   8.864   2.181   2.230  0.0384  1.1480 -0.4618
  102MOL0     H13422   8.817   2.047   1.949  0.4611 -3.1302  0.0717
  102MOL0     H13423   8.930   1.987   2.053 -0.2284  0.5524 -1.5712
  102MOL0     H13424   8.643   2.025   2.123 -0.3136 -0.1831  2.0228
  102MOL0     H13425   8.752   1.953   2.230  0.6184 -1.8730 -0.7958
  102MOL0     H13426   8.605   1.645   1.926  2.7071 -2.3544  0.4759
  102MOL0     H13427   8.447   1.475   2.024 -0.3520  1.5027  0.4323
  102MOL0     H13428   8.331   1.152   2.028  2.0069  1.9364  1.2964
  102MOL0     H13429   8.274   0.879   2.051 -0.2818  0.5597 -0.3368
  102MOL0     H13430   8.263   0.748   2.465 -2.1168  2.2605  0.1057
  102MOL0     H13431   8.219   0.615   2.388 -0.4594 -0.0003  0.5209
  102MOL0     H13432   7.992   0.696   2.395 -0.5129 -1.3914 -3.7389
  102MOL0     H13433   8.049   0.770   2.249  3.9318  2.4267 -1.3665
  102MOL0     H13434   7.938   0.929   2.380 -0.5123 -1.5992 -0.5511
  102MOL0     H13435   8.112   0.974   2.361  0.9049 -2.3902 -0.7538
  102MOL0     H13436   8.003   0.836   2.608  0.6677  0.3050  1.9391
  102MOL0     H13437   8.160   0.905   2.590 -0.6741  0.7690 -0.0498
  102MOL0     H13438   8.020   1.140   2.558  1.5594 -1.4386 -2.0212
  102MOL0     H13439   8.029   1.075   2.719  1.0596 -0.7680 -0.3641
  102MOL0     H13440   7.814   0.978   2.721  0.5102  1.2336  0.8505
  102MOL0     H13441   7.790   0.967   2.551 -0.7236 -2.4330  2.4270
  102MOL0     H13442   7.800   1.215   2.725 -2.1422 -0.0402  1.2166
  102MOL0     H13443   7.791   1.207   2.552 -4.1272  1.3939 -0.2798
  102MOL0     H13444   7.591   1.117   2.764  0.6137 -2.2547  0.3204
  102MOL0     H13445   7.574   1.055   2.599 -0.4645 -0.8756  1.2196
  102MOL0     H13446   8.409   0.902   2.455 -1.7985 -0.2334  0.4745
  102MOL0     H13447   8.434   1.140   2.444 -0.4439  0.3296  0.1483
  102MOL0     H13448   8.552   1.601   2.425 -2.3170 -3.3924 -0.2151
  102MOL0     H13449   8.675   1.792   2.325  1.6751  0.2811 -0.5398
  102MOL0     H13450  10.227   2.296   1.701  0.7417  0.0291 -0.7929
  102MOL0     H13451  10.392   2.361   1.827 -1.6832 -2.0222 -0.5260
  102MOL0     H13452  10.567   2.318   2.255 -3.6499  1.9796 -0.9376
  102MOL0     H13453  10.804   2.278   2.294  0.2669  1.1479  0.8742
  102MOL0     H13454  11.015   2.222   2.240  1.0860 -0.4962  1.8806
  102MOL0     H13455  11.034   2.343   2.365 -0.7563 -0.6413  0.9385
  102MOL0     H13456  11.258   2.400   2.223  1.4921 -1.1295 -0.4566
  102MOL0     H13457  11.248   2.252   2.322 -1.5864 -4.1563 -2.3562
  102MOL0     H13458  11.234   2.284   2.024  0.4937  1.7972  0.6496
  102MOL0     H13459  11.174   2.139   2.094 -3.0019  0.8443  1.1002
  102MOL0     H13460  11.399   2.092   2.208  1.6429 -2.5883 -1.1332
  102MOL0     H13461  11.399   2.088   2.032  0.3039 -1.1369  1.0712
  102MOL0     H13462  11.661   2.410   2.082  1.2928 -0.6671  2.2076
  102MOL0     H13463  10.893   2.622   2.054 -1.1811 -0.7099 -2.0923
  102MOL0     H13464  10.659   2.654   1.993 -2.0567 -0.6742 -0.3353
  103MOL0     O13465  10.268   7.566   1.768  1.1313  0.1051  0.3929
  103MOL0     C13466  10.231   7.457   1.778  0.4060  0.2551 -0.0609
  103MOL0     O13467  10.305   7.353   1.817 -0.5791 -0.8030  0.0606
  103MOL0     C13468  10.427   7.370   1.891  0.4434  0.1562  0.1598
  103MOL0     C13469  10.451   7.268   1.974 -0.9605 -0.2669 -0.2023
  103MOL0     C13470  10.575   7.262   2.040 -0.0952  1.1143 -0.4723
  103MOL0     C13471  10.665   7.365   2.037  0.1019 -0.6478  0.1415
  103MOL0     O13472  10.779   7.365   2.109 -0.9816  0.5939 -0.4424
  103MOL0     C13473  10.802   7.250   2.193  0.5403 -0.0979 -0.1875
  103MOL0     C13474  10.931   7.301   2.266 -0.3838  0.5620  0.2868
  103MOL0     C13475  10.959   7.210   2.391 -0.0351 -0.0393  0.8402
  103MOL0     C13476  11.072   7.272   2.463 -0.4474 -0.3380  0.0655
  103MOL0     C13477  11.079   7.220   2.609 -0.6036  0.3613  0.0065
  103MOL0     C13478  11.085   7.065   2.634 -0.5273 -1.6352  0.1443
  103MOL0     C13479  11.052   7.019   2.783  0.3731 -0.2135 -0.3882
  103MOL0     C13480  10.977   6.894   2.814  0.0266  0.1163  0.1930
  103MOL0     N13481  11.049   6.781   2.751  0.8331 -0.4903  0.9659
  103MOL0     C13482  11.184   6.747   2.741  0.0692 -0.7786  0.7509
  103MOL0     C13483  11.191   6.677   2.630  0.9207  0.8072  1.1773
  103MOL0     C13484  11.296   6.615   2.552  0.1085  0.3267 -0.2003
  103MOL0     C13485  11.443   6.677   2.562 -0.5816  0.0829 -0.3180
  103MOL0     C13486  11.460   6.821   2.518 -0.4909 -0.1502  0.2956
  103MOL0     C13487  11.368   6.874   2.411  1.2888  0.0045  0.0189
  103MOL0     O13488  11.378   6.808   2.284 -0.5289 -0.5151 -0.1632
  103MOL0     C13489  11.297   6.841   2.176 -0.5897 -0.1868 -0.0814
  103MOL0     C13490  11.204   6.946   2.177  0.0032 -0.2986  0.8395
  103MOL0     C13491  11.117   6.971   2.069  0.6148  0.9368  0.2371
  103MOL0     C13492  11.131   6.900   1.947 -0.8212 -0.2648  0.6373
  103MOL0     C13493  11.039   6.915   1.833  0.0067  1.0416 -0.4894
  103MOL0     O13494  10.932   6.996   1.859  0.2631  0.0550  0.4102
  103MOL0     C13495  10.837   7.038   1.764 -0.3078  0.8435  0.0360
  103MOL0     C13496  10.703   7.052   1.814  0.7703 -0.0250  0.3889
  103MOL0     C13497  10.608   7.090   1.722  0.2979  0.0142  0.6509
  103MOL0     C13498  10.637   7.089   1.585  0.5659  0.2699  0.0121
  103MOL0     O13499  10.539   7.099   1.488  0.7472 -0.1069 -0.1066
  103MOL0     C13500  10.400   7.143   1.521 -0.3117 -0.1566 -0.0388
  103MOL0     C13501  10.332   7.153   1.384 -0.5635  0.8065 -0.3687
  103MOL0     C13502  10.180   7.132   1.390  0.4055 -0.7928 -0.0548
  103MOL0     C13503  10.128   6.998   1.443  1.2926  0.1151 -0.7329
  103MOL0     C13504   9.985   6.954   1.411 -0.7681 -0.3798 -0.3708
  103MOL0     C13505   9.981   6.905   1.261  0.5691  0.6112 -0.4591
  103MOL0     C13506   9.830   6.873   1.228 -0.0773 -0.1339  0.0796
  103MOL0     C13507   9.795   6.723   1.204  0.5471 -0.3973 -0.5246
  103MOL0    Cl13508   9.644   6.708   1.108  0.4726  0.0692  0.4397
  103MOL0     C13509  10.770   7.083   1.539 -0.2885  0.9837 -1.3272
  103MOL0     C13510  10.869   7.058   1.632 -0.3521  0.7161 -1.0111
  103MOL0     O13511  11.068   6.862   1.725  0.2960  0.5339 -0.6779
  103MOL0     C13512  11.229   6.799   1.946  0.5318 -0.4601 -0.3841
  103MOL0     C13513  11.313   6.766   2.059 -0.0945  0.0050  0.4746
  103MOL0     N13514  11.068   6.639   2.588 -0.5821 -0.0780 -0.0768
  103MOL0     N13515  10.987   6.704   2.659  0.2467  0.2848 -0.7094
  103MOL0     C13516  10.633   7.476   1.956  0.0550 -0.2820 -0.3362
  103MOL0     C13517  10.517   7.479   1.879  0.0322 -0.8402 -0.3962
  103MOL0     C13518  10.104   7.429   1.717  0.4069 -0.4058  0.3966
  103MOL0     C13519  10.065   7.293   1.705  1.2274  0.3883  0.1613
  103MOL0     C13520   9.933   7.255   1.656 -0.3162  0.0458  0.6018
  103MOL0     C13521   9.852   7.351   1.598 -0.3467 -0.8389 -0.0002
  103MOL0     O13522   9.729   7.311   1.548  0.2337 -0.8876  0.1304
  103MOL0     C13523   9.645   7.387   1.464 -0.6631  0.1509 -0.4385
  103MOL0     C13524   9.689   7.365   1.313 -0.7606 -0.8664 -0.1970
  103MOL0     C13525   9.656   7.225   1.253 -0.1629 -0.9245 -0.7574
  103MOL0     C13526   9.682   7.207   1.102 -0.2995  0.1670  0.2277
  103MOL0     C13527   9.825   7.232   1.082  0.0227  1.3237  0.0215
  103MOL0     C13528   9.939   7.254   1.048  0.3039 -0.2973 -0.7351
  103MOL0     C13529   9.904   7.477   1.588 -0.5070  0.2295 -0.2359
  103MOL0     C13530  10.024   7.520   1.653 -0.9743  0.2124  0.2256
  103MOL0     H13531  10.383   7.185   1.985 -2.0350  0.3756 -1.6655
  103MOL0     H13532  10.583   7.169   2.097 -3.7760 -0.3953 -2.1042
  103MOL0     H13533  10.816   7.152   2.145  0.6217  0.4672 -1.3491
  103MOL0     H13534  10.722   7.234   2.266  1.4652 -3.5635  0.2878
  103MOL0     H13535  10.918   7.405   2.297 -3.1969 -0.3929  2.7658
  103MOL0     H13536  11.014   7.289   2.195 -1.2487 -0.2594 -0.6209
  103MOL0     H13537  10.979   7.106   2.361  0.8801  1.3194 -4.0169
  103MOL0     H13538  10.864   7.219   2.445 -2.1163  1.2844 -2.6879
  103MOL0     H13539  11.170   7.258   2.415 -0.1725  0.3746  0.3938
  103MOL0     H13540  11.062   7.381   2.470  0.2757 -0.3448  1.9090
  103MOL0     H13541  10.987   7.248   2.661  0.2876  1.9318  0.8088
  103MOL0     H13542  11.160   7.265   2.666 -2.4846  2.4237  1.1572
  103MOL0     H13543  11.180   7.029   2.594 -0.2119 -1.2691  0.5648
  103MOL0     H13544  11.005   7.016   2.577 -0.6623 -1.2554  0.0076
  103MOL0     H13545  11.145   7.018   2.840  0.7481  1.8356 -0.8859
  103MOL0     H13546  10.991   7.098   2.830 -1.9594 -1.1743 -1.6477
  103MOL0     H13547  10.869   6.901   2.795  0.1282  1.5770  0.0295
  103MOL0     H13548  10.979   6.883   2.923 -2.3249  1.3781  0.4418
  103MOL0     H13549  11.268   6.775   2.805  2.3819 -0.3215 -2.2903
  103MOL0     H13550  11.263   6.602   2.448 -0.6772  0.0406  0.0812
  103MOL0     H13551  11.304   6.508   2.571 -0.1415 -0.0183 -1.8834
  103MOL0     H13552  11.507   6.615   2.499  1.4994 -1.3233  2.9338
  103MOL0     H13553  11.485   6.673   2.662 -0.8520  0.7278 -0.1707
  103MOL0     H13554  11.445   6.891   2.600 -1.6603  0.2611 -0.2443
  103MOL0     H13555  11.566   6.821   2.492 -0.1707  0.1244  1.5275
  103MOL0     H13556  11.392   6.980   2.398 -0.7549  0.3417 -1.4537
  103MOL0     H13557  11.263   6.864   2.441  1.8062 -1.1730  1.5398
  103MOL0     H13558  11.193   6.998   2.271 -1.1427 -0.0712  0.5934
  103MOL0     H13559  11.037   7.043   2.082  0.0828  0.3625  0.1991
  103MOL0     H13560  10.681   7.050   1.921 -5.0000  3.1814 -0.3221
  103MOL0     H13561  10.508   7.105   1.762 -0.2034 -1.9688  0.2478
  103MOL0     H13562  10.393   7.241   1.568  0.9824 -0.0089 -0.1162
  103MOL0     H13563  10.353   7.068   1.585  0.1083 -2.4325 -2.2215
  103MOL0     H13564  10.369   7.083   1.308  0.5254  2.7247 -1.6868
  103MOL0     H13565  10.341   7.254   1.341  1.7920  0.9656  0.3425
  103MOL0     H13566  10.124   7.146   1.297 -0.4021 -2.7118  0.0906
  103MOL0     H13567  10.148   7.220   1.447 -0.7551 -1.2971  0.0992
  103MOL0     H13568  10.202   6.922   1.415  3.3445  1.1573  1.5549
  103MOL0     H13569  10.136   7.009   1.551  1.5555 -1.7808 -0.5246
  103MOL0     H13570   9.923   7.044   1.426  0.6860  0.5526  0.2142
  103MOL0     H13571   9.970   6.869   1.478  2.6489  0.2017  1.3171
  103MOL0     H13572  10.041   6.816   1.244 -0.8565 -0.1337 -1.8400
  103MOL0     H13573  10.022   6.981   1.193  1.7690  0.0031 -0.4351
  103MOL0     H13574   9.757   6.903   1.304 -1.5984  0.2286 -1.4616
  103MOL0     H13575   9.806   6.927   1.136  1.3300  0.4144  0.0104
  103MOL0     H13576   9.776   6.668   1.296 -0.6026  2.5648  1.1428
  103MOL0     H13577   9.881   6.680   1.151  1.3014  2.4293 -1.8317
  103MOL0     H13578  10.794   7.064   1.435 -1.5228  0.7824 -1.5847
  103MOL0     H13579  10.968   7.035   1.593 -0.6913 -2.6977 -0.1921
  103MOL0     H13580  11.255   6.749   1.853 -2.7392 -0.8211 -1.2526
  103MOL0     H13581  11.391   6.693   2.039  0.8087  1.5252 -2.1490
  103MOL0     H13582  10.707   7.555   1.945  0.7774 -0.8553  0.2979
  103MOL0     H13583  10.490   7.558   1.810 -0.9905 -0.8121  0.0180
  103MOL0     H13584  10.120   7.205   1.737 -1.8643 -1.4339  0.9194
  103MOL0     H13585   9.904   7.151   1.664 -3.0322  0.8171  1.9587
  103MOL0     H13586   9.643   7.480   1.522 -4.3227  0.4761 -0.8950
  103MOL0     H13587   9.555   7.326   1.473 -1.1901  1.1941  2.5360
  103MOL0     H13588   9.635   7.446   1.263  1.4440  1.1994  0.5342
  103MOL0     H13589   9.797   7.383   1.307 -0.8253 -0.7991 -1.3713
  103MOL0     H13590   9.546   7.219   1.252 -0.3249 -1.1026 -5.3808
  103MOL0     H13591   9.701   7.138   1.301  3.9663 -0.4616 -3.3282
  103MOL0     H13592   9.656   7.103   1.077 -3.7159  0.2015  2.8754
  103MOL0     H13593   9.611   7.280   1.061 -0.6328  0.9755  2.1450
  103MOL0     H13594  10.038   7.278   1.014  0.8940 -1.5378  0.0192
  103MOL0     H13595   9.845   7.555   1.540 -0.4025  0.8719  0.6574
  103MOL0     H13596  10.053   7.625   1.654  0.0431 -0.0607  0.5475
  104MOL0     O13597   4.299   1.917   5.801 -1.0439 -0.2207 -0.3567
  104MOL0     C13598   4.409   1.897   5.754 -0.4884  1.0102 -0.2909
  104MOL0     O13599   4.484   1.983   5.671  0.9818 -0.0224 -0.8433
  104MOL0     C13600   4.423   2.096   5.617  0.1495  0.1551  0.0482
  104MOL0     C13601   4.510   2.200   5.575  0.4481  0.4107  0.5166
  104MOL0     C13602   4.469   2.316   5.524 -0.5563 -0.5507 -0.0984
  104MOL0     C13603   4.332   2.329   5.490 -0.3657 -0.2016  0.2625
  104MOL0     O13604   4.284   2.445   5.443  0.6103 -0.1550 -0.3356
  104MOL0     C13605   4.337   2.566   5.509  0.8214  0.1651  0.3804
  104MOL0     C13606   4.439   2.622   5.406 -0.5831 -0.3629  0.6299
  104MOL0     C13607   4.479   2.769   5.425 -0.9972 -0.3123  0.3447
  104MOL0     C13608   4.382   2.887   5.414  0.0605  0.3439  0.9841
  104MOL0     C13609   4.443   2.999   5.332  0.1738  0.4804  0.1444
  104MOL0     C13610   4.566   3.054   5.416 -0.0278  0.6308 -0.2003
  104MOL0     C13611   4.627   3.170   5.331 -0.1294 -0.6607 -1.0795
  104MOL0     C13612   4.730   3.126   5.223 -0.0195  0.1489 -0.1373
  104MOL0     N13613   4.779   3.232   5.132 -0.3159  0.3628 -0.3276
  104MOL0     C13614   4.879   3.203   5.048 -0.8475  0.4622  0.3419
  104MOL0     C13615   4.888   3.297   4.951 -0.2210  0.4731 -1.1465
  104MOL0     C13616   4.982   3.292   4.832  0.1745 -0.4770 -0.0282
  104MOL0     C13617   4.998   3.152   4.776  0.3818 -0.0934  0.3962
  104MOL0     C13618   4.871   3.085   4.717  0.5040  0.2455  0.8727
  104MOL0     C13619   4.888   2.934   4.703 -0.5652  0.6760  0.0731
  104MOL0     O13620   4.993   2.893   4.608  0.2145 -0.0273  0.0485
  104MOL0     C13621   4.960   2.781   4.535  0.3540  0.1837  0.0730
  104MOL0     C13622   4.954   2.641   4.570 -0.2450  0.4627 -0.0719
  104MOL0     C13623   4.951   2.544   4.469  0.5602 -1.3147 -0.2052
  104MOL0     C13624   4.937   2.593   4.333 -0.3413  0.6231  0.3576
  104MOL0     C13625   4.940   2.502   4.217  0.5490  0.4811  0.4569
  104MOL0     O13626   4.870   2.537   4.103  0.1539  0.3059 -0.3391
  104MOL0     C13627   4.851   2.455   3.988 -0.3360 -0.3598  0.2136
  104MOL0     C13628   4.737   2.376   3.973  0.0341  0.4741  0.6447
  104MOL0     C13629   4.703   2.302   3.861 -0.4646 -0.3546 -0.1472
  104MOL0     C13630   4.800   2.302   3.756  0.2577  0.0447  0.5230
  104MOL0     O13631   4.781   2.228   3.639 -0.2978  0.2525 -0.4938
  104MOL0     C13632   4.642   2.203   3.594 -0.7080 -0.0879 -0.2824
  104MOL0     C13633   4.649   2.154   3.453 -0.1758  0.2466 -0.2236
  104MOL0     C13634   4.731   2.254   3.366 -0.6262  0.0814 -0.3527
  104MOL0     C13635   4.743   2.181   3.227 -0.7669  0.0532 -0.3314
  104MOL0     C13636   4.807   2.262   3.104 -0.9480  0.1572 -0.8809
  104MOL0     C13637   4.951   2.309   3.121  0.0990  0.3243 -0.4348
  104MOL0     C13638   5.048   2.190   3.129 -0.6542 -0.1535  1.3249
  104MOL0     C13639   5.184   2.237   3.157 -0.3063 -0.6825 -0.2107
  104MOL0    Cl13640   5.251   2.385   3.065 -0.1984 -0.1947 -0.7381
  104MOL0     C13641   4.916   2.383   3.763 -0.3225  1.2351  0.2987
  104MOL0     C13642   4.942   2.449   3.875  0.4843 -0.8238 -0.0269
  104MOL0     O13643   4.996   2.397   4.227 -0.0043  0.3880 -0.1402
  104MOL0     C13644   4.937   2.727   4.301  0.5712  0.2787  0.0436
  104MOL0     C13645   4.950   2.819   4.406  0.7763 -0.5430  0.8752
  104MOL0     N13646   4.772   3.366   4.969 -0.1894  0.0156 -0.3550
  104MOL0     N13647   4.708   3.334   5.074  0.3428 -0.4051 -0.1844
  104MOL0     C13648   4.238   2.225   5.519 -0.0382  0.8779 -0.7816
  104MOL0     C13649   4.285   2.115   5.590 -0.6833  1.2762  0.2270
  104MOL0     C13650   4.471   1.770   5.794 -0.3056  0.0292 -0.2243
  104MOL0     C13651   4.411   1.642   5.784 -0.0888 -0.8968  0.2955
  104MOL0     C13652   4.481   1.525   5.800 -0.3390  0.8097  0.7585
  104MOL0     C13653   4.610   1.525   5.845  0.0141 -0.7823  0.1752
  104MOL0     O13654   4.679   1.408   5.878 -0.3847 -1.2824 -0.7295
  104MOL0     C13655   4.635   1.281   5.828 -0.7952 -0.1016 -0.0113
  104MOL0     C13656   4.734   1.169   5.868  0.1558 -0.0836 -0.6430
  104MOL0     C13657   4.704   1.154   6.017 -0.0037  0.8042  0.0804
  104MOL0     C13658   4.756   1.016   6.056  0.3270 -0.8915 -0.3387
  104MOL0     C13659   4.795   1.027   6.194 -0.6299 -0.1403  1.1149
  104MOL0     C13660   4.827   1.035   6.309  0.0212 -0.2558 -0.6540
  104MOL0     C13661   4.681   1.649   5.859  0.3837  0.2063  0.0068
  104MOL0     C13662   4.613   1.769   5.830  0.5920 -1.2105 -0.3725
  104MOL0     H13663   4.616   2.187   5.594  0.8718  0.7797 -1.3877
  104MOL0     H13664   4.550   2.388   5.519 -0.6041 -0.5677 -3.0849
  104MOL0     H13665   4.386   2.561   5.607  2.7758 -0.5278 -0.5712
  104MOL0     H13666   4.256   2.640   5.512  0.8744  0.3373 -1.4720
  104MOL0     H13667   4.386   2.609   5.312 -0.4744 -0.9021  0.6391
  104MOL0     H13668   4.527   2.557   5.409 -1.5620 -1.9235 -1.8386
  104MOL0     H13669   4.550   2.791   5.344 -1.0108  1.6249  0.8134
  104MOL0     H13670   4.544   2.769   5.513 -1.4466  2.0695  0.7563
  104MOL0     H13671   4.291   2.856   5.361 -0.0530  0.4495  1.1128
  104MOL0     H13672   4.361   2.925   5.515  1.0479 -2.3896  2.3144
  104MOL0     H13673   4.368   3.077   5.313  0.4586  0.6317 -0.3804
  104MOL0     H13674   4.462   2.963   5.231 -0.3617  0.7901 -0.0708
  104MOL0     H13675   4.640   2.976   5.434 -0.3784  0.2976 -0.1967
  104MOL0     H13676   4.529   3.088   5.513  3.0642  1.6625  0.7211
  104MOL0     H13677   4.553   3.234   5.282  2.6125  0.0839 -4.7181
  104MOL0     H13678   4.685   3.231   5.400  0.2852 -1.0849 -1.0440
  104MOL0     H13679   4.689   3.056   5.150  0.7557 -0.7334  0.2499
  104MOL0     H13680   4.821   3.084   5.267 -0.8034 -1.2896  0.1804
  104MOL0     H13681   4.948   3.120   5.056 -1.7761 -0.5196 -1.3023
  104MOL0     H13682   5.081   3.319   4.871 -0.6291  0.0883  1.6642
  104MOL0     H13683   4.947   3.361   4.755  3.3105  2.3763  0.8625
  104MOL0     H13684   5.036   3.083   4.853  1.8755 -4.0852 -3.5210
  104MOL0     H13685   5.079   3.156   4.703 -0.1788  4.2847 -0.2237
  104MOL0     H13686   4.791   3.108   4.788  2.3916  1.9319  2.6131
  104MOL0     H13687   4.842   3.130   4.622 -1.4590 -0.1980  1.2231
  104MOL0     H13688   4.794   2.887   4.675  0.9070 -3.5379  1.3804
  104MOL0     H13689   4.905   2.887   4.800 -1.4491  1.4701  0.6215
  104MOL0     H13690   4.957   2.609   4.673 -1.4242 -0.5193 -0.3256
  104MOL0     H13691   4.958   2.437   4.489 -3.1728 -1.9005 -1.3026
  104MOL0     H13692   4.665   2.369   4.054 -0.1841  1.0473  0.4985
  104MOL0     H13693   4.603   2.260   3.866 -0.5160 -0.2869 -0.5575
  104MOL0     H13694   4.581   2.294   3.601 -1.5099 -0.7456  3.4904
  104MOL0     H13695   4.593   2.134   3.663 -1.5734  0.6126 -0.1700
  104MOL0     H13696   4.550   2.145   3.408 -0.5683  0.2862  0.6105
  104MOL0     H13697   4.700   2.060   3.473 -2.6069 -0.9161  0.8606
  104MOL0     H13698   4.832   2.266   3.405 -0.6287  0.3524 -0.4301
  104MOL0     H13699   4.676   2.349   3.366 -2.2186 -0.7483  1.8423
  104MOL0     H13700   4.800   2.090   3.244  0.8418  1.1439  0.3853
  104MOL0     H13701   4.644   2.147   3.193 -0.8556 -0.5523  0.5200
  104MOL0     H13702   4.752   2.355   3.083 -2.0948  0.7515  3.6224
  104MOL0     H13703   4.793   2.199   3.016 -3.4852 -2.4928  1.2166
  104MOL0     H13704   4.958   2.356   3.220  3.2784 -3.6326  1.5057
  104MOL0     H13705   4.961   2.375   3.034 -1.4494  0.4497 -0.5578
  104MOL0     H13706   5.027   2.123   3.213  1.2994  0.1882  2.1301
  104MOL0     H13707   5.041   2.131   3.038  2.1585  3.2428 -1.3743
  104MOL0     H13708   5.246   2.147   3.163  4.1799  2.1076  0.3442
  104MOL0     H13709   5.184   2.271   3.261 -2.5913 -1.4791  0.1004
  104MOL0     H13710   4.972   2.388   3.670 -2.2152 -0.6674 -1.0265
  104MOL0     H13711   5.026   2.515   3.895 -0.0315 -0.1067 -0.1435
  104MOL0     H13712   4.930   2.775   4.204  2.7914  1.6547  0.4843
  104MOL0     H13713   4.964   2.925   4.390  2.3000 -0.1370  4.0756
  104MOL0     H13714   4.131   2.227   5.501 -0.4560 -2.4281  0.5764
  104MOL0     H13715   4.207   2.043   5.612 -1.1473  1.8663  0.5388
  104MOL0     H13716   4.307   1.633   5.754  0.2162 -3.3292 -0.2386
  104MOL0     H13717   4.430   1.429   5.799  0.2712  0.4237 -2.3026
  104MOL0     H13718   4.636   1.283   5.719  0.4226 -0.6018 -0.0235
  104MOL0     H13719   4.532   1.254   5.853 -0.5622  1.2520  2.7897
  104MOL0     H13720   4.705   1.080   5.811  0.3953  0.0305 -0.9478
  104MOL0     H13721   4.841   1.190   5.859  0.2528 -0.3196 -0.0808
  104MOL0     H13722   4.598   1.159   6.044  0.0294  2.9041  0.0032
  104MOL0     H13723   4.742   1.237   6.077 -0.7604 -0.3863  2.3317
  104MOL0     H13724   4.675   0.945   6.034  1.3670 -2.4002  0.5154
  104MOL0     H13725   4.847   0.990   6.002 -0.1888 -1.2828 -1.0464
  104MOL0     H13726   4.853   1.054   6.411 -3.0319 -0.0937  0.1733
  104MOL0     H13727   4.785   1.658   5.888  0.7954 -0.2853 -1.2366
  104MOL0     H13728   4.668   1.863   5.833  0.1003 -0.8828  3.1530
  105MOL0     O13729   1.544   9.574   9.182  0.0927 -0.2048  0.6246
  105MOL0     C13730   1.653   9.622   9.195 -0.2563  0.4454  0.1043
  105MOL0     O13731   1.759   9.567   9.260 -1.1220  0.0149 -0.1216
  105MOL0     C13732   1.766   9.454   9.333  0.1939 -0.1348 -0.9032
  105MOL0     C13733   1.680   9.434   9.435 -0.7625  0.4569  1.0174
  105MOL0     C13734   1.698   9.324   9.527  0.1191  0.3114 -0.7671
  105MOL0     C13735   1.790   9.225   9.489 -0.1205 -0.2518 -0.7841
  105MOL0     O13736   1.794   9.120   9.580  0.1380  0.4393  0.6461
  105MOL0     C13737   1.917   9.099   9.642  0.0251  0.4579 -0.4845
  105MOL0     C13738   1.886   8.999   9.772 -0.2474 -0.5888  1.6120
  105MOL0     C13739   1.856   9.060   9.907 -0.3041 -0.1424  0.7299
  105MOL0     C13740   1.716   9.114   9.913  0.7614 -0.7807 -0.7079
  105MOL0     C13741   1.691   9.209  10.030  0.2528 -0.4178 -0.3507
  105MOL0     C13742   1.540   9.258  10.048 -0.2571 -0.1830 -0.5256
  105MOL0     C13743   1.475   9.335   9.931 -0.5349  1.3328  0.8482
  105MOL0     C13744   1.349   9.413   9.976 -0.7071  0.9383  0.2276
  105MOL0     N13745   1.275   9.432   9.856  0.8711 -0.0599 -0.2396
  105MOL0     C13746   1.325   9.494   9.744 -1.3522 -0.8662 -0.9391
  105MOL0     C13747   1.234   9.472   9.645 -0.7330  0.0813 -0.2284
  105MOL0     C13748   1.233   9.529   9.501 -0.2389  0.3829  1.6842
  105MOL0     C13749   1.129   9.637   9.488  1.6126  0.4802  0.0933
  105MOL0     C13750   1.141   9.759   9.585 -0.1505 -0.2575 -0.5693
  105MOL0     C13751   1.059   9.740   9.718 -0.7786  0.6825 -0.0110
  105MOL0     O13752   1.055   9.863   9.782 -0.2023  0.6549 -0.2071
  105MOL0     C13753   1.017   9.878   9.916  0.2229  0.1007 -0.2266
  105MOL0     C13754   1.019  10.003   9.973  0.0067  0.2600 -0.5135
  105MOL0     C13755   0.967  10.030  10.105 -0.1933 -0.0642 -0.5396
  105MOL0     C13756   0.894   9.926  10.172 -0.5525 -0.6951  0.2339
  105MOL0     C13757   0.811   9.956  10.288 -0.4776  0.3832 -0.1794
  105MOL0     O13758   0.825  10.079  10.357 -0.7105 -0.2721  0.2377
  105MOL0     C13759   0.742  10.083  10.471  0.9189  0.5036  0.1883
  105MOL0     C13760   0.800  10.053  10.595  0.0372  0.3187  0.2261
  105MOL0     C13761   0.736  10.081  10.717 -0.8054 -0.9789  0.7902
  105MOL0     C13762   0.602  10.130  10.718  0.6689  1.1750 -0.5189
  105MOL0     O13763   0.531  10.159  10.833  0.7619 -0.8007 -0.0198
  105MOL0     C13764   0.570  10.093  10.953  0.3164 -0.2151  0.0447
  105MOL0     C13765   0.649  10.173  11.061  0.4774  1.0086 -0.2335
  105MOL0     C13766   0.749  10.078  11.129  0.0601 -0.0064  0.3033
  105MOL0     C13767   0.798  10.173  11.239  0.6466  0.0720  0.0077
  105MOL0     C13768   0.906  10.109  11.328  0.6833 -0.2736  0.3627
  105MOL0     C13769   0.870   9.961  11.379  0.3639  0.2345  0.2187
  105MOL0     C13770   0.970   9.920  11.502 -0.0064 -0.9017 -0.7590
  105MOL0     C13771   0.909   9.796  11.569 -0.9276  0.5263  0.7892
  105MOL0    Cl13772   0.993   9.750  11.719  0.0042 -0.7529 -0.0238
  105MOL0     C13773   0.544  10.158  10.597  0.7346  0.3792  0.6831
  105MOL0     C13774   0.614  10.133  10.473  0.8046 -0.0999 -1.0955
  105MOL0     O13775   0.736   9.866  10.331 -0.5515  0.3140 -0.1409
  105MOL0     C13776   0.900   9.801  10.123 -0.4035  0.5123 -0.4312
  105MOL0     C13777   0.962   9.773   9.999 -0.6749 -0.8977  0.3644
  105MOL0     N13778   1.128   9.401   9.699 -0.0476  0.6593  0.1180
  105MOL0     N13779   1.149   9.386   9.828 -0.2415  0.3751  0.4824
  105MOL0     C13780   1.876   9.244   9.379  0.6503 -0.0954 -0.0821
  105MOL0     C13781   1.861   9.363   9.306 -0.0216 -0.4953 -0.2551
  105MOL0     C13782   1.687   9.749   9.123 -0.5141  0.2541  0.7541
  105MOL0     C13783   1.766   9.839   9.182 -0.1785 -1.3912 -0.6719
  105MOL0     C13784   1.792   9.962   9.113 -0.2625 -1.0109 -0.0917
  105MOL0     C13785   1.747   9.990   8.989  0.3549 -1.1506 -0.5800
  105MOL0     O13786   1.778  10.121   8.943  0.3934 -0.2367  0.9205
  105MOL0     C13787   1.721  10.169   8.813  0.1184  0.4470  0.4130
  105MOL0     C13788   1.800  10.282   8.745  0.5463 -0.1372 -0.4777
  105MOL0     C13789   1.720  10.352   8.626  0.9331 -0.2806  0.1141
  105MOL0     C13790   1.734  10.263   8.498 -0.5981  0.1202  0.1844
  105MOL0     C13791   1.874  10.259   8.456  0.1363  0.3059 -0.2044
  105MOL0     C13792   1.995  10.250   8.434 -0.3656  0.0028  0.9321
  105MOL0     C13793   1.671   9.897   8.921 -0.8990  0.0547  0.3423
  105MOL0     C13794   1.640   9.777   8.989 -0.6088  0.2480 -0.2602
  105MOL0     H13795   1.596   9.503   9.437  1.0269  2.7696  0.4381
  105MOL0     H13796   1.639   9.338   9.617  2.1426  2.6748  0.3309
  105MOL0     H13797   1.955   9.197   9.673 -1.9656  1.0316  0.2998
  105MOL0     H13798   1.990   9.054   9.574  1.4041 -2.6133  2.6829
  105MOL0     H13799   1.982   8.950   9.788  0.2860 -0.3505 -0.5087
  105MOL0     H13800   1.811   8.924   9.744 -2.9649  2.2629  0.6073
  105MOL0     H13801   1.930   9.141   9.913 -0.9194  1.4552 -5.7632
  105MOL0     H13802   1.859   8.981   9.982 -2.3838  0.4053  1.4689
  105MOL0     H13803   1.684   9.167   9.823  0.8703 -1.2943 -1.0482
  105MOL0     H13804   1.641   9.036   9.927 -1.2457  0.5920 -3.0199
  105MOL0     H13805   1.744   9.304  10.019  0.6850  0.0072  3.8849
  105MOL0     H13806   1.723   9.168  10.125  1.2182  0.3703 -0.3199
  105MOL0     H13807   1.542   9.311  10.144  0.4335  0.9146 -1.1242
  105MOL0     H13808   1.487   9.167  10.076 -2.1996  1.1300  0.2872
  105MOL0     H13809   1.549   9.406   9.894  0.3151  0.2739  0.4541
  105MOL0     H13810   1.442   9.256   9.863  0.0718  2.0489 -0.3233
  105MOL0     H13811   1.370   9.508  10.025 -0.3697 -0.2027  2.4611
  105MOL0     H13812   1.289   9.353  10.045 -2.1512 -3.1383 -4.0246
  105MOL0     H13813   1.406   9.565   9.741  0.8583 -3.1145  0.8752
  105MOL0     H13814   1.198   9.458   9.427 -2.6739  0.3680  2.7594
  105MOL0     H13815   1.334   9.568   9.486 -1.3602  2.0608 -3.5405
  105MOL0     H13816   1.029   9.594   9.496  0.6033  2.4089 -1.3232
  105MOL0     H13817   1.140   9.670   9.384 -0.8643  1.5904  0.1268
  105MOL0     H13818   1.248   9.763   9.608 -0.6359 -1.7644  2.5347
  105MOL0     H13819   1.106   9.850   9.536 -2.0492 -0.3074  0.5727
  105MOL0     H13820   1.088   9.652   9.776 -1.4972  1.0027  0.8546
  105MOL0     H13821   0.954   9.726   9.694 -0.2673  0.0890 -2.1495
  105MOL0     H13822   1.063  10.084   9.917  0.2515 -0.4705 -1.4027
  105MOL0     H13823   0.966  10.134  10.136  2.0225 -0.2551  0.3324
  105MOL0     H13824   0.903  10.017  10.588 -0.4692 -1.2964  0.5234
  105MOL0     H13825   0.786  10.055  10.810  2.9480  2.1179 -0.0911
  105MOL0     H13826   0.626  10.004  10.926  0.0260 -0.3739 -0.0353
  105MOL0     H13827   0.474  10.064  10.997 -0.8011 -0.1909 -2.2280
  105MOL0     H13828   0.573  10.223  11.122  2.9057  3.1063  1.3056
  105MOL0     H13829   0.709  10.249  11.010  3.4422 -2.7651 -2.9886
  105MOL0     H13830   0.836  10.051  11.069 -1.9700  0.3701 -3.0364
  105MOL0     H13831   0.689   9.992  11.159 -3.9999  1.8112 -1.8247
  105MOL0     H13832   0.833  10.268  11.197 -3.4939  0.5088 -3.0950
  105MOL0     H13833   0.719  10.208  11.306 -0.8040 -2.1396 -0.4443
  105MOL0     H13834   0.931  10.177  11.410  0.7456  0.2171 -0.0593
  105MOL0     H13835   0.994  10.091  11.266  0.5521 -4.9734  1.2116
  105MOL0     H13836   0.877   9.891  11.296 -1.7658  0.1397  0.0667
  105MOL0     H13837   0.767   9.959  11.415 -0.0963 -1.8773 -1.0228
  105MOL0     H13838   1.065   9.910  11.450  0.5173  2.0878 -0.5254
  105MOL0     H13839   0.958  10.003  11.572  0.7337  0.6788 -2.4353
  105MOL0     H13840   0.921   9.720  11.492  1.4395  1.0918  0.5185
  105MOL0     H13841   0.803   9.817  11.590 -1.8241 -1.2678 -1.6107
  105MOL0     H13842   0.447  10.201  10.575  0.0047 -1.6086 -0.2773
  105MOL0     H13843   0.558  10.158  10.384 -0.2475  1.0014 -0.1775
  105MOL0     H13844   0.851   9.713  10.163 -2.0817  1.3396 -0.5947
  105MOL0     H13845   0.928   9.683   9.951 -4.9700  2.4111 -3.6794
  105MOL0     H13846   1.945   9.162   9.361 -0.5561 -2.1133  3.4297
  105MOL0     H13847   1.925   9.380   9.221  0.4140  3.0996  0.5971
  105MOL0     H13848   1.803   9.822   9.283  0.5287  1.0877 -0.4380
  105MOL0     H13849   1.850  10.047   9.146 -0.9506 -1.3045  2.0889
  105MOL0     H13850   1.616  10.194   8.832 -0.3738 -1.5460  0.5993
  105MOL0     H13851   1.707  10.090   8.738  0.0597  1.1817 -0.3580
  105MOL0     H13852   1.822  10.358   8.821 -3.5512  2.9227 -1.9906
  105MOL0     H13853   1.895  10.238   8.713  0.6522 -1.3330  1.2957
  105MOL0     H13854   1.772  10.444   8.598  1.7028  0.0150  2.3688
  105MOL0     H13855   1.617  10.371   8.656  0.1286  1.0143 -3.0818
  105MOL0     H13856   1.694  10.162   8.508 -1.0170  0.0401 -2.0045
  105MOL0     H13857   1.683  10.306   8.411  1.9413 -1.0511 -2.0108
  105MOL0     H13858   2.096  10.270   8.402 -0.8629  1.0060 -0.0861
  105MOL0     H13859   1.628   9.917   8.823  4.7270 -0.9858 -2.7855
  105MOL0     H13860   1.581   9.696   8.946  1.8955 -2.4017  1.0042
  106MOL0     O13861   0.599   1.260  10.554  0.4204 -0.1733  0.5925
  106MOL0     C13862   0.618   1.329  10.658  0.6282 -0.7222  0.8760
  106MOL0     O13863   0.744   1.361  10.708  0.9283  0.9330  0.1596
  106MOL0     C13864   0.855   1.359  10.629  0.2433  0.0249  0.2893
  106MOL0     C13865   0.865   1.351  10.485 -0.2045  0.3209 -0.4935
  106MOL0     C13866   0.992   1.348  10.425 -1.4483  0.1736 -0.3387
  106MOL0     C13867   1.106   1.365  10.505  0.5243  1.2812  0.1406
  106MOL0     O13868   1.226   1.383  10.444  0.1801 -0.5490  0.9863
  106MOL0     C13869   1.291   1.511  10.468  0.6457  0.3285 -0.5698
  106MOL0     C13870   1.440   1.481  10.491 -1.4425  0.5997 -0.6459
  106MOL0     C13871   1.532   1.606  10.494  0.7855 -0.3931 -0.6734
  106MOL0     C13872   1.672   1.559  10.529  0.5376  0.3415  0.9809
  106MOL0     C13873   1.757   1.683  10.543  0.2537  0.0145 -0.3889
  106MOL0     C13874   1.894   1.642  10.607  0.6281 -0.3267  0.3299
  106MOL0     C13875   2.002   1.608  10.512  0.3890  0.4568  0.5212
  106MOL0     C13876   1.975   1.585  10.361  0.5199  0.2029  0.2124
  106MOL0     N13877   2.091   1.565  10.282  0.3932  0.2893 -0.7473
  106MOL0     C13878   2.150   1.447  10.256 -0.0233  1.6471  0.2563
  106MOL0     C13879   2.258   1.468  10.173  0.4412 -0.7851 -0.8648
  106MOL0     C13880   2.357   1.367  10.153  0.1891  0.6174 -0.4393
  106MOL0     C13881   2.303   1.249  10.063 -0.4866 -0.6250 -0.0801
  106MOL0     C13882   2.407   1.138  10.047  0.9748  0.6993 -1.0552
  106MOL0     C13883   2.333   1.013  10.015 -0.8815  0.1950 -0.2145
  106MOL0     O13884   2.414   0.934   9.930 -0.3439 -0.7230 -0.0942
  106MOL0     C13885   2.479   0.828   9.968 -1.5431  1.1957  0.4871
  106MOL0     C13886   2.487   0.705   9.903  0.5270  0.9557 -0.2465
  106MOL0     C13887   2.578   0.606   9.938  0.2871 -0.0118  1.0899
  106MOL0     C13888   2.668   0.623  10.054  0.3612  0.6425 -0.4571
  106MOL0     C13889   2.770   0.527  10.104 -0.1712  0.8346 -0.0083
  106MOL0     O13890   2.777   0.427  10.020 -0.4990  0.2174 -0.4362
  106MOL0     C13891   2.872   0.325  10.032 -0.0947  0.4137 -0.2596
  106MOL0     C13892   2.888   0.250   9.914 -0.6327  0.3409  0.2556
  106MOL0     C13893   2.987   0.156   9.900 -0.5829 -0.8609 -0.1745
  106MOL0     C13894   3.079   0.135  10.010 -0.5784 -0.8534  0.0356
  106MOL0     O13895   3.177   0.040  10.016  0.2547  0.3519  0.3425
  106MOL0     C13896   3.207  -0.039   9.899  0.0529  0.1788 -0.0018
  106MOL0     C13897   3.351  -0.084   9.925  0.0901  0.2459 -0.1651
  106MOL0     C13898   3.390  -0.183   9.816  0.4951 -0.4760 -0.9364
  106MOL0     C13899   3.305  -0.315   9.796  1.0566  0.5948 -0.5340
  106MOL0     C13900   3.284  -0.360   9.650  0.7888  0.0842  0.1079
  106MOL0     C13901   3.212  -0.259   9.567 -0.4875 -0.0445 -0.0170
  106MOL0     C13902   3.162  -0.321   9.430 -0.0059  0.1431  0.1839
  106MOL0     C13903   3.062  -0.224   9.356 -0.5264  0.0421  0.2982
  106MOL0    Cl13904   3.052  -0.261   9.181 -0.4161  0.1792 -0.1215
  106MOL0     C13905   3.069   0.208  10.136 -0.5545  1.0149  0.7240
  106MOL0     C13906   2.963   0.296  10.143 -0.3688 -0.3601  0.2376
  106MOL0     O13907   2.833   0.545  10.206  0.5123 -0.2062  0.4465
  106MOL0     C13908   2.650   0.748  10.122 -0.1621  0.1805  0.2618
  106MOL0     C13909   2.571   0.846  10.076 -0.6220  0.7991 -0.2935
  106MOL0     N13910   2.245   1.602  10.132  0.6264 -0.2064 -0.4429
  106MOL0     N13911   2.148   1.665  10.211 -0.2542  0.7582 -0.0406
  106MOL0     C13912   1.100   1.358  10.640  0.5025 -0.8337  0.4003
  106MOL0     C13913   0.973   1.357  10.701  0.5811  0.3273  0.2613
  106MOL0     C13914   0.491   1.374  10.727 -0.0179  0.1382  0.0970
  106MOL0     C13915   0.366   1.309  10.695 -0.4868 -0.9663 -0.3857
  106MOL0     C13916   0.254   1.327  10.769 -0.4529 -0.5198 -0.0379
  106MOL0     C13917   0.259   1.410  10.880 -0.2319 -0.2091  0.5694
  106MOL0     O13918   0.140   1.438  10.954  0.2203  0.0428  0.0808
  106MOL0     C13919   0.012   1.402  10.906  0.4558 -0.0556 -0.4891
  106MOL0     C13920  -0.045   1.505  10.811 -0.8384 -0.1677  0.4651
  106MOL0     C13921  -0.195   1.526  10.801  1.0337 -0.1875 -0.6571
  106MOL0     C13922  -0.237   1.604  10.930  0.4935 -0.0165 -0.0700
  106MOL0     C13923  -0.380   1.629  10.919  0.8765  0.4262  0.5618
  106MOL0     C13924  -0.493   1.660  10.911  0.4791  0.0137  0.6486
  106MOL0     C13925   0.382   1.483  10.920  0.9221  0.5602  0.2668
  106MOL0     C13926   0.502   1.457  10.845 -0.6996  1.0008  0.1949
  106MOL0     H13927   0.777   1.350  10.422 -2.0593  0.4574  1.9248
  106MOL0     H13928   1.005   1.347  10.318  1.7568  1.4700 -0.0719
  106MOL0     H13929   1.257   1.564  10.558  0.7181 -0.3072 -0.1642
  106MOL0     H13930   1.278   1.595  10.400 -1.1100 -0.4786 -1.2797
  106MOL0     H13931   1.483   1.414  10.417  2.1553  1.8438  0.0981
  106MOL0     H13932   1.455   1.425  10.584  0.1143  0.9079 -0.6775
  106MOL0     H13933   1.489   1.683  10.560 -0.8362 -0.9359 -1.0495
  106MOL0     H13934   1.514   1.650  10.395 -1.2432  5.3033  1.7810
  106MOL0     H13935   1.672   1.506  10.625  0.4407  0.4497  1.0415
  106MOL0     H13936   1.714   1.498  10.449 -0.2625  3.1171 -1.7546
  106MOL0     H13937   1.702   1.743  10.616 -1.5160 -1.2547 -0.6293
  106MOL0     H13938   1.777   1.746  10.457 -1.5972 -0.8310 -1.4873
  106MOL0     H13939   1.886   1.568  10.688  1.9633  1.0109  1.7480
  106MOL0     H13940   1.924   1.731  10.663  1.3368 -0.5690  0.3509
  106MOL0     H13941   2.072   1.692  10.518  2.9501 -1.5430  0.4406
  106MOL0     H13942   2.062   1.524  10.548  3.3811  0.0202 -4.5573
  106MOL0     H13943   1.918   1.672  10.326 -2.8983 -1.8136  0.3338
  106MOL0     H13944   1.908   1.499  10.370  0.7756 -0.2781 -1.8706
  106MOL0     H13945   2.132   1.355  10.310  2.6481 -0.4775 -2.1647
  106MOL0     H13946   2.390   1.342  10.254  1.4136 -0.6021 -1.1168
  106MOL0     H13947   2.444   1.411  10.104  1.3015  0.5032  1.3383
  106MOL0     H13948   2.265   1.277   9.964 -2.6716  0.4820  0.9979
  106MOL0     H13949   2.214   1.201  10.106 -0.8176  0.2909  0.2729
  106MOL0     H13950   2.483   1.163   9.972  1.3554  3.0306 -0.0005
  106MOL0     H13951   2.455   1.122  10.143 -1.8669 -1.2708  0.1675
  106MOL0     H13952   2.245   1.037   9.955 -0.2670  0.7341 -0.9097
  106MOL0     H13953   2.310   0.955  10.105  0.0058 -0.5582 -0.4567
  106MOL0     H13954   2.421   0.696   9.817 -2.1575 -1.1223  1.8296
  106MOL0     H13955   2.594   0.516   9.880  1.6697  0.5100  0.6127
  106MOL0     H13956   2.828   0.288   9.832 -1.2775  0.1092  0.6057
  106MOL0     H13957   2.997   0.103   9.806 -2.6013 -2.6931  0.5606
  106MOL0     H13958   3.223   0.029   9.815 -0.4397  3.5907  2.4652
  106MOL0     H13959   3.128  -0.108   9.869 -1.4289  2.2812 -1.1677
  106MOL0     H13960   3.358  -0.142  10.017  2.1876  1.5851  0.5843
  106MOL0     H13961   3.418   0.003   9.933 -0.1673  0.4168  0.1932
  106MOL0     H13962   3.489  -0.225   9.834  0.4907  0.6405  2.3084
  106MOL0     H13963   3.401  -0.121   9.726 -3.0110  1.4660 -0.2303
  106MOL0     H13964   3.352  -0.401   9.845 -0.5283 -0.8488 -1.4503
  106MOL0     H13965   3.207  -0.304   9.843  0.2921 -1.2041 -1.6263
  106MOL0     H13966   3.223  -0.451   9.651  2.1375 -0.8770 -0.9931
  106MOL0     H13967   3.384  -0.389   9.614  1.9764  1.6368  1.9632
  106MOL0     H13968   3.263  -0.163   9.556  2.3475 -1.5947 -1.3218
  106MOL0     H13969   3.127  -0.234   9.632  0.0791  1.9840 -0.0024
  106MOL0     H13970   3.236  -0.368   9.364 -0.3848 -2.9117  1.7429
  106MOL0     H13971   3.105  -0.408   9.464  1.0847 -0.7078 -0.0818
  106MOL0     H13972   3.093  -0.121   9.372 -1.8324 -0.0369  4.8059
  106MOL0     H13973   2.960  -0.244   9.389 -1.1920 -0.8985 -2.1309
  106MOL0     H13974   3.143   0.189  10.213  0.4612  0.9728 -0.2432
  106MOL0     H13975   2.955   0.346  10.239 -2.1754 -1.0666  0.4994
  106MOL0     H13976   2.720   0.778  10.200  0.5553 -0.1816 -0.2291
  106MOL0     H13977   2.582   0.946  10.117  6.3843  0.4440 -0.0010
  106MOL0     H13978   1.191   1.363  10.698 -0.0161 -0.9096  1.2448
  106MOL0     H13979   0.956   1.378  10.807  0.2330  2.3715 -0.1425
  106MOL0     H13980   0.361   1.242  10.610  0.3572 -0.7623 -0.6028
  106MOL0     H13981   0.161   1.282  10.736 -0.7925 -0.8841  1.3784
  106MOL0     H13982  -0.044   1.409  11.000  1.0472 -0.1582 -0.1273
  106MOL0     H13983  -0.029   1.307  10.871 -1.5668  0.9006 -0.8591
  106MOL0     H13984  -0.004   1.604  10.835 -1.4192  0.0897  0.4017
  106MOL0     H13985  -0.033   1.471  10.708 -1.4562 -0.2266  0.4107
  106MOL0     H13986  -0.238   1.426  10.797  3.4602 -1.4434  1.8037
  106MOL0     H13987  -0.214   1.576  10.705 -1.2083  0.1153 -0.0999
  106MOL0     H13988  -0.218   1.556  11.026 -1.8179 -1.3849 -0.2348
  106MOL0     H13989  -0.190   1.703  10.939 -4.3728  2.4475  2.5971
  106MOL0     H13990  -0.598   1.682  10.913 -0.1292 -2.4209  3.4264
  106MOL0     H13991   0.379   1.529  11.018  0.6253  2.0806 -0.4249
  106MOL0     H13992   0.591   1.495  10.895 -0.4863  0.9384 -0.1366
  107MOL0     O13993   5.791   6.847   2.938  0.4625  0.4894 -0.4762
  107MOL0     C13994   5.680   6.878   2.915  0.0908 -0.8670 -0.7144
  107MOL0     O13995   5.569   6.823   2.964  0.1752  0.5430 -0.4943
  107MOL0     C13996   5.576   6.700   3.031 -0.7223 -0.5923 -1.0248
  107MOL0     C13997   5.529   6.685   3.158 -0.4739  0.4111 -0.0698
  107MOL0     C13998   5.543   6.563   3.223 -0.2462  0.9425  1.2866
  107MOL0     C13999   5.607   6.455   3.161  0.3612  0.7430  0.6209
  107MOL0     O14000   5.624   6.347   3.239 -0.0699 -0.6765 -0.3167
  107MOL0     C14001   5.758   6.299   3.244  0.7027 -0.7117 -0.7178
  107MOL0     C14002   5.761   6.176   3.339 -0.0956  0.2150 -0.2852
  107MOL0     C14003   5.640   6.085   3.356  0.6179 -0.4122  1.1773
  107MOL0     C14004   5.677   5.976   3.455  0.5665 -0.2722  0.2945
  107MOL0     C14005   5.557   5.886   3.477 -0.3843 -0.0022  0.9834
  107MOL0     C14006   5.598   5.783   3.575  0.5116  0.1052 -0.7184
  107MOL0     C14007   5.505   5.661   3.581 -1.1203 -0.5553  0.7145
  107MOL0     C14008   5.359   5.674   3.588 -0.3541 -0.7768 -0.1567
  107MOL0     N14009   5.288   5.689   3.457 -0.3830  0.2013  0.5206
  107MOL0     C14010   5.297   5.601   3.347 -0.0022  0.2128 -0.5547
  107MOL0     C14011   5.245   5.670   3.242  0.1534 -1.9640 -0.1813
  107MOL0     C14012   5.242   5.614   3.103 -0.0650  0.1618 -1.1516
  107MOL0     C14013   5.310   5.708   3.009 -0.7514 -0.7945 -0.4197
  107MOL0     C14014   5.317   5.674   2.862  1.5324  0.2962  0.5460
  107MOL0     C14015   5.422   5.574   2.837  0.1787  0.5535 -0.9175
  107MOL0     O14016   5.387   5.445   2.893 -0.9991  0.3962 -0.8127
  107MOL0     C14017   5.366   5.340   2.801 -0.2356  0.1116 -0.3495
  107MOL0     C14018   5.237   5.299   2.771 -0.9704 -0.1514  0.0128
  107MOL0     C14019   5.208   5.194   2.684 -1.3104  0.9246  0.1089
  107MOL0     C14020   5.318   5.147   2.606 -0.0381  0.4974 -0.0065
  107MOL0     C14021   5.294   5.045   2.503  0.3852 -0.3192 -0.3245
  107MOL0     O14022   5.179   4.974   2.525 -0.2638  0.7695 -0.4523
  107MOL0     C14023   5.146   4.881   2.435  0.1042 -0.9619  0.2334
  107MOL0     C14024   5.168   4.741   2.448  0.0277  0.4879  0.0317
  107MOL0     C14025   5.108   4.644   2.357  0.0031 -0.7044 -0.1064
  107MOL0     C14026   5.010   4.680   2.259  0.0340  0.5590 -1.0534
  107MOL0     O14027   4.922   4.590   2.200 -0.2404  0.0132 -0.8281
  107MOL0     C14028   4.994   4.502   2.117 -0.2375  0.5964  0.0004
  107MOL0     C14029   4.981   4.533   1.966  0.2199  0.2385 -0.3066
  107MOL0     C14030   4.840   4.569   1.923 -0.5494  0.1239 -0.9237
  107MOL0     C14031   4.822   4.577   1.768 -0.5821 -0.5879 -0.9270
  107MOL0     C14032   4.854   4.710   1.697  0.2666  0.7916 -0.7341
  107MOL0     C14033   4.739   4.737   1.610 -0.7041 -0.1155 -0.4739
  107MOL0     C14034   4.743   4.891   1.577 -0.3205  0.2231  0.5881
  107MOL0     C14035   4.616   4.939   1.505 -0.4938  0.5828 -0.2561
  107MOL0    Cl14036   4.575   4.847   1.356 -0.3525  0.6138 -0.3045
  107MOL0     C14037   4.974   4.818   2.265  0.6985  0.8727 -0.2241
  107MOL0     C14038   5.042   4.915   2.348 -0.2771 -0.3959  0.9893
  107MOL0     O14039   5.379   5.035   2.418  0.0813 -0.0433 -0.4521
  107MOL0     C14040   5.447   5.198   2.636 -0.2319  0.0777  0.4248
  107MOL0     C14041   5.470   5.285   2.734  0.3553  0.5381 -0.1447
  107MOL0     N14042   5.203   5.796   3.289 -0.1237  0.0940 -0.1142
  107MOL0     N14043   5.228   5.805   3.421 -1.0908 -0.5366 -0.2227
  107MOL0     C14044   5.653   6.460   3.032 -0.9634  0.0087  0.7143
  107MOL0     C14045   5.642   6.588   2.974  0.0568 -0.0239  0.3053
  107MOL0     C14046   5.653   6.989   2.822 -0.3034 -0.5295 -0.5964
  107MOL0     C14047   5.556   7.093   2.851 -1.6714  0.4368  0.3732
  107MOL0     C14048   5.538   7.185   2.755  0.2480 -0.4476  1.0149
  107MOL0     C14049   5.605   7.204   2.631 -0.4184  0.1841  1.5868
  107MOL0     O14050   5.576   7.301   2.529 -0.2692 -0.2540 -0.8155
  107MOL0     C14051   5.490   7.413   2.557  0.0853  0.2699  0.6540
  107MOL0     C14052   5.459   7.467   2.417  0.3653  0.7761 -0.5077
  107MOL0     C14053   5.559   7.573   2.378  0.4974 -0.1335  0.5794
  107MOL0     C14054   5.497   7.688   2.305  0.7541  0.1703  0.2063
  107MOL0     C14055   5.425   7.643   2.184  0.5748 -0.4796  0.5480
  107MOL0     C14056   5.366   7.608   2.078 -0.9822  0.1053  0.3779
  107MOL0     C14057   5.703   7.106   2.605 -0.3992 -0.9798 -0.2584
  107MOL0     C14058   5.727   7.008   2.704 -0.9544  0.2709 -0.1765
  107MOL0     H14059   5.491   6.767   3.217 -1.0860 -0.2769  0.5141
  107MOL0     H14060   5.496   6.534   3.317 -2.2279 -0.8135 -0.1489
  107MOL0     H14061   5.827   6.373   3.286  0.5123 -0.6358 -0.5379
  107MOL0     H14062   5.795   6.275   3.144 -1.2755  1.3101 -2.0089
  107MOL0     H14063   5.780   6.214   3.440  1.6728 -0.2612 -0.4048
  107MOL0     H14064   5.845   6.107   3.324  0.0392 -0.3258  2.4801
  107MOL0     H14065   5.615   6.046   3.257  2.3735  2.3142 -0.4671
  107MOL0     H14066   5.558   6.147   3.392  0.2531 -0.6792  0.8118
  107MOL0     H14067   5.759   5.916   3.415  3.0505  1.4800  2.4391
  107MOL0     H14068   5.709   6.024   3.547  1.0235 -0.8611  0.4472
  107MOL0     H14069   5.525   5.846   3.380 -0.9050 -1.0559  1.5762
  107MOL0     H14070   5.477   5.942   3.528 -2.1325 -3.3848  2.3289
  107MOL0     H14071   5.609   5.827   3.674 -3.6242 -0.9724  0.4133
  107MOL0     H14072   5.695   5.739   3.554  0.8575  0.2351  0.5502
  107MOL0     H14073   5.531   5.596   3.497  0.5418  0.3486  0.4949
  107MOL0     H14074   5.517   5.597   3.669 -2.0464 -0.0247  1.2454
  107MOL0     H14075   5.340   5.747   3.667  1.8448 -2.8303  2.4526
  107MOL0     H14076   5.320   5.587   3.641 -0.7654 -0.7561 -0.4196
  107MOL0     H14077   5.334   5.499   3.340  1.7911  0.7798  0.1232
  107MOL0     H14078   5.136   5.623   3.077 -0.2342 -1.1905 -1.0027
  107MOL0     H14079   5.273   5.509   3.102  2.9827  0.9335  0.4718
  107MOL0     H14080   5.415   5.723   3.033 -1.1964  0.2706  0.9211
  107MOL0     H14081   5.243   5.794   2.999 -3.7586 -3.1651 -3.2240
  107MOL0     H14082   5.221   5.640   2.823  0.6879  1.3395  1.6321
  107MOL0     H14083   5.334   5.772   2.817 -1.5993  0.9243  0.4940
  107MOL0     H14084   5.517   5.617   2.872  1.2637  0.0791 -3.1237
  107MOL0     H14085   5.441   5.563   2.730  0.0477 -1.6478 -0.7553
  107MOL0     H14086   5.157   5.341   2.832 -1.2093  2.5005 -1.9566
  107MOL0     H14087   5.107   5.158   2.663 -0.3936 -1.1627 -1.1228
  107MOL0     H14088   5.231   4.711   2.531 -1.7033 -0.7205  0.9600
  107MOL0     H14089   5.138   4.540   2.367 -1.6767 -1.2802 -0.6962
  107MOL0     H14090   4.950   4.402   2.130 -0.4982  0.6986 -0.1013
  107MOL0     H14091   5.099   4.484   2.144 -0.4309 -4.1186 -1.5121
  107MOL0     H14092   5.014   4.450   1.903 -0.3277  0.1467 -0.4764
  107MOL0     H14093   5.035   4.625   1.941 -3.2603  2.3399 -0.6985
  107MOL0     H14094   4.798   4.660   1.965  1.1369  1.3960 -1.8506
  107MOL0     H14095   4.763   4.496   1.950 -1.0818  1.4002  1.2420
  107MOL0     H14096   4.894   4.502   1.735  1.8805  0.0283  2.5358
  107MOL0     H14097   4.723   4.548   1.732 -1.3039  0.0018  0.5304
  107MOL0     H14098   4.950   4.699   1.646 -0.4151 -0.6664 -1.7488
  107MOL0     H14099   4.870   4.788   1.772  0.0679  1.3227 -1.2395
  107MOL0     H14100   4.638   4.712   1.644 -1.1268  0.4116 -1.2984
  107MOL0     H14101   4.738   4.688   1.512 -3.6989  3.2216 -2.3720
  107MOL0     H14102   4.762   4.952   1.666  2.1894 -1.0342  1.0309
  107MOL0     H14103   4.827   4.909   1.509 -0.6571  0.9792  0.3643
  107MOL0     H14104   4.619   5.045   1.477  3.4240  0.3752 -1.2715
  107MOL0     H14105   4.536   4.917   1.576 -0.5069 -4.6021 -1.4716
  107MOL0     H14106   4.889   4.830   2.199  0.5034 -6.3593 -2.1786
  107MOL0     H14107   5.017   5.019   2.330  0.5682 -0.8216 -4.3434
  107MOL0     H14108   5.532   5.169   2.575 -2.0959 -0.8629 -1.8796
  107MOL0     H14109   5.572   5.316   2.756  0.2103  0.0363  1.3254
  107MOL0     H14110   5.700   6.381   2.973 -0.4368  1.3222 -0.6749
  107MOL0     H14111   5.666   6.598   2.869  0.4888 -1.1047  0.2802
  107MOL0     H14112   5.514   7.093   2.951 -2.2465  1.2434  0.1385
  107MOL0     H14113   5.455   7.255   2.761  0.5182  0.0641 -0.6484
  107MOL0     H14114   5.530   7.493   2.620 -0.4864  0.7219  0.4540
  107MOL0     H14115   5.395   7.376   2.599 -0.8001 -1.6830 -2.7063
  107MOL0     H14116   5.471   7.388   2.342  3.3220  1.9582 -1.3873
  107MOL0     H14117   5.353   7.495   2.415 -0.9031 -3.1991  0.7532
  107MOL0     H14118   5.636   7.526   2.316  0.2747 -2.5156  1.9879
  107MOL0     H14119   5.603   7.615   2.468 -1.3184  1.4309  0.7952
  107MOL0     H14120   5.423   7.733   2.372  0.4406 -1.0657  0.7219
  107MOL0     H14121   5.557   7.776   2.281 -2.0193  2.8978  2.5192
  107MOL0     H14122   5.307   7.565   1.999 -2.2262  1.2515  0.6420
  107MOL0     H14123   5.774   7.105   2.522 -0.5886  1.5609 -0.5334
  107MOL0     H14124   5.816   6.951   2.681 -0.0141  1.8714 -0.7249
  108MOL0     O14125   6.088   3.525   8.877 -0.0684 -0.5556 -0.3496
  108MOL0     C14126   6.128   3.449   8.965 -0.5717 -0.4734  0.0737
  108MOL0     O14127   6.149   3.318   8.946 -0.3443  0.1872  0.4010
  108MOL0     C14128   6.141   3.262   8.822 -0.8082  0.1661  0.1220
  108MOL0     C14129   6.037   3.170   8.807  0.4754  0.7721  0.3815
  108MOL0     C14130   6.015   3.116   8.680 -1.3155 -0.0850 -0.0478
  108MOL0     C14131   6.103   3.148   8.574 -0.6113  0.9043  0.2122
  108MOL0     O14132   6.074   3.105   8.441 -0.6083 -0.4762 -0.5596
  108MOL0     C14133   6.034   2.964   8.436 -0.6940 -0.7311 -0.2692
  108MOL0     C14134   6.090   2.902   8.300  0.4074  0.0261 -0.1591
  108MOL0     C14135   6.039   2.965   8.168 -0.5042  0.3126  0.7964
  108MOL0     C14136   5.887   2.953   8.151 -0.7644 -0.1322  0.2601
  108MOL0     C14137   5.841   2.825   8.079  0.2841  0.3362  0.0587
  108MOL0     C14138   5.911   2.797   7.944 -0.2554 -0.0847 -0.3054
  108MOL0     C14139   5.820   2.696   7.871 -0.4956  0.0390  0.9446
  108MOL0     C14140   5.889   2.664   7.734  0.2897 -0.0663  1.1430
  108MOL0     N14141   5.783   2.615   7.647  0.3546  0.5738 -0.5550
  108MOL0     C14142   5.745   2.649   7.521 -0.0647 -0.0814 -0.4311
  108MOL0     C14143   5.672   2.541   7.473 -0.1172  0.1052 -0.4378
  108MOL0     C14144   5.606   2.539   7.344  0.1549  0.5228  0.1896
  108MOL0     C14145   5.705   2.584   7.232  0.7334  0.0765  0.3711
  108MOL0     C14146   5.772   2.471   7.149  0.8471 -0.3153  0.5293
  108MOL0     C14147   5.820   2.520   7.018 -0.0259 -0.3642  0.5688
  108MOL0     O14148   5.705   2.570   6.932 -0.7654  0.1354  0.0883
  108MOL0     C14149   5.649   2.467   6.869 -0.0893  0.1930 -0.1128
  108MOL0     C14150   5.522   2.415   6.902  0.9400 -0.4443 -0.5168
  108MOL0     C14151   5.473   2.302   6.836  0.0468 -0.8248  0.4333
  108MOL0     C14152   5.535   2.249   6.720 -0.1485 -0.0858 -0.1606
  108MOL0     C14153   5.484   2.128   6.661 -0.4160  0.6106  0.0224
  108MOL0     O14154   5.490   2.125   6.519 -1.2490  0.4208 -0.2220
  108MOL0     C14155   5.518   1.996   6.474  0.9328  0.2475 -0.9854
  108MOL0     C14156   5.648   1.949   6.478 -0.4796  0.0518  0.6445
  108MOL0     C14157   5.679   1.829   6.417 -0.1458 -0.7447 -0.4554
  108MOL0     C14158   5.585   1.758   6.343  0.2026 -0.1599 -0.1226
  108MOL0     O14159   5.601   1.637   6.294  0.4556  0.4413 -0.7043
  108MOL0     C14160   5.678   1.537   6.366 -0.6090  0.1729  1.1165
  108MOL0     C14161   5.634   1.401   6.321 -0.2284 -0.1025 -0.1523
  108MOL0     C14162   5.577   1.386   6.187  0.4809 -0.0132 -0.3348
  108MOL0     C14163   5.569   1.240   6.146 -0.0897  0.2064 -0.8918
  108MOL0     C14164   5.694   1.187   6.079  0.5462  0.4375  0.3905
  108MOL0     C14165   5.666   1.038   6.028  0.6918  0.7171  0.3675
  108MOL0     C14166   5.790   0.961   5.983  0.1172  0.1650  0.2755
  108MOL0     C14167   5.761   0.858   5.878  0.1792 -0.3384  0.3286
  108MOL0    Cl14168   5.702   0.917   5.715  0.0008  0.0444  0.3322
  108MOL0     C14169   5.459   1.808   6.329  0.5268  0.4484 -0.0292
  108MOL0     C14170   5.424   1.930   6.388  0.2166  1.3030  0.9339
  108MOL0     O14171   5.437   2.037   6.732 -0.5622  0.4270  0.0271
  108MOL0     C14172   5.668   2.293   6.692  0.2789 -0.9997  0.0251
  108MOL0     C14173   5.714   2.410   6.758 -0.7696 -0.4686 -1.0518
  108MOL0     N14174   5.676   2.437   7.560 -0.2400  0.1591 -1.1868
  108MOL0     N14175   5.751   2.479   7.654  0.3520 -0.1929 -0.3581
  108MOL0     C14176   6.204   3.239   8.593  0.2223  0.0676 -0.0413
  108MOL0     C14177   6.226   3.285   8.721  0.4978 -0.0649  1.0784
  108MOL0     C14178   6.145   3.506   9.108 -0.8278 -0.1707 -0.4047
  108MOL0     C14179   6.210   3.419   9.210 -0.6013 -0.3902 -0.1985
  108MOL0     C14180   6.224   3.468   9.339  0.5023 -0.8579  0.5461
  108MOL0     C14181   6.180   3.596   9.378  0.1153  0.0156  1.4491
  108MOL0     O14182   6.182   3.652   9.502 -0.0504 -0.0949  0.3749
  108MOL0     C14183   6.194   3.577   9.617  0.6012 -0.2497 -0.1045
  108MOL0     C14184   6.190   3.673   9.731 -0.2867 -0.3896 -0.5213
  108MOL0     C14185   6.180   3.598   9.863 -0.6580  0.1506 -0.8443
  108MOL0     C14186   6.147   3.689   9.986  0.5292 -0.2493  0.6638
  108MOL0     C14187   6.139   3.838   9.958  0.1136  0.4880  0.5887
  108MOL0     C14188   6.137   3.958   9.953  0.6017 -0.3308 -0.0098
  108MOL0     C14189   6.144   3.685   9.270 -0.8478 -0.2689 -0.5834
  108MOL0     C14190   6.114   3.643   9.139 -0.1083  0.8342  0.7479
  108MOL0     H14191   5.962   3.154   8.884  0.5205  0.3233  0.3332
  108MOL0     H14192   5.916   3.072   8.670 -2.2315  2.3987 -3.8570
  108MOL0     H14193   5.924   2.967   8.442 -0.6270  0.9564  0.6015
  108MOL0     H14194   6.064   2.912   8.527 -0.5171 -0.6862 -0.3032
  108MOL0     H14195   6.059   2.798   8.304 -1.2316  0.5272  2.2090
  108MOL0     H14196   6.200   2.898   8.294  0.3762  0.7848 -1.7622
  108MOL0     H14197   6.101   2.912   8.094  2.3551 -0.8155  3.7549
  108MOL0     H14198   6.065   3.071   8.162 -3.5848  1.0945 -0.9203
  108MOL0     H14199   5.828   2.967   8.242 -1.1423  1.3337 -0.1842
  108MOL0     H14200   5.857   3.033   8.083  0.8055 -0.6143 -1.0572
  108MOL0     H14201   5.736   2.852   8.063 -0.3123 -0.4117  2.3175
  108MOL0     H14202   5.834   2.740   8.149 -0.0140  0.8120  0.6185
  108MOL0     H14203   6.013   2.760   7.956 -0.6804 -1.5902 -1.1710
  108MOL0     H14204   5.925   2.888   7.884 -0.1322 -2.4794 -4.2898
  108MOL0     H14205   5.814   2.604   7.929  0.9382 -0.9806 -0.4399
  108MOL0     H14206   5.716   2.720   7.847 -1.4376 -6.9002 -5.3983
  108MOL0     H14207   5.977   2.599   7.725 -0.1525 -0.5219 -0.1293
  108MOL0     H14208   5.917   2.757   7.684 -0.6225 -1.1104 -1.4922
  108MOL0     H14209   5.764   2.742   7.467  4.5311 -0.7972 -0.4427
  108MOL0     H14210   5.528   2.616   7.345  0.2233  0.8296 -3.8760
  108MOL0     H14211   5.572   2.441   7.311  0.3814 -0.5639  2.8936
  108MOL0     H14212   5.763   2.672   7.260  0.0511  0.5697  0.2514
  108MOL0     H14213   5.628   2.626   7.168 -1.5342 -0.5997  2.5150
  108MOL0     H14214   5.858   2.436   7.207  0.9533  0.8269  1.0820
  108MOL0     H14215   5.703   2.388   7.131  1.0388  0.0633 -2.5624
  108MOL0     H14216   5.871   2.443   6.960 -0.7991  0.4315 -1.2748
  108MOL0     H14217   5.892   2.602   7.029 -0.8034  0.8821 -2.5000
  108MOL0     H14218   5.463   2.463   6.979 -1.0780 -1.1826 -1.5295
  108MOL0     H14219   5.374   2.273   6.869 -2.0250  0.2153 -4.1024
  108MOL0     H14220   5.716   2.012   6.533  2.4087 -2.7351  0.6131
  108MOL0     H14221   5.777   1.783   6.413  0.3617  0.3701 -1.2890
  108MOL0     H14222   5.655   1.561   6.470  1.1510  3.1213  0.9453
  108MOL0     H14223   5.784   1.550   6.344 -0.8681  1.1856  0.3778
  108MOL0     H14224   5.547   1.377   6.383 -1.3042  3.4006 -0.1344
  108MOL0     H14225   5.722   1.338   6.338  1.6816  2.9527  2.5591
  108MOL0     H14226   5.643   1.439   6.117  2.2642 -2.1737 -0.3903
  108MOL0     H14227   5.479   1.433   6.200  0.1096 -0.9889  0.5688
  108MOL0     H14228   5.549   1.181   6.236 -5.6002 -0.3178 -2.0886
  108MOL0     H14229   5.489   1.213   6.076 -0.6188 -2.4794  0.6030
  108MOL0     H14230   5.772   1.170   6.154  0.3322 -1.1244  0.2918
  108MOL0     H14231   5.727   1.243   5.991 -1.3263  0.4901 -0.3168
  108MOL0     H14232   5.605   1.043   5.937 -2.3781 -2.2188  2.0419
  108MOL0     H14233   5.607   0.975   6.095  0.2956  0.0242 -0.6139
  108MOL0     H14234   5.871   1.027   5.951 -0.9757  0.9507 -0.9829
  108MOL0     H14235   5.830   0.912   6.073 -1.9858  0.0314  1.2030
  108MOL0     H14236   5.668   0.812   5.914 -0.0845  0.3935  0.5855
  108MOL0     H14237   5.854   0.800   5.882 -1.2486 -3.0482 -1.8250
  108MOL0     H14238   5.393   1.744   6.270  2.8477 -3.2037  1.0271
  108MOL0     H14239   5.336   1.981   6.352 -2.3646 -2.4115  1.4460
  108MOL0     H14240   5.738   2.247   6.622  0.7013 -1.8255  0.9562
  108MOL0     H14241   5.802   2.468   6.733  0.7459 -0.1408  3.9007
  108MOL0     H14242   6.270   3.262   8.510 -0.4124  2.3349  0.0261
  108MOL0     H14243   6.307   3.354   8.739  1.5932 -1.1831  0.5355
  108MOL0     H14244   6.250   3.323   9.179  3.8245  1.9305 -2.6583
  108MOL0     H14245   6.263   3.398   9.412  2.5681  0.2951  0.6299
  108MOL0     H14246   6.282   3.512   9.614  0.4303 -0.4544 -0.8170
  108MOL0     H14247   6.108   3.510   9.621 -0.5945  1.2365  0.0378
  108MOL0     H14248   6.279   3.737   9.725  1.8765 -3.1973 -0.6450
  108MOL0     H14249   6.100   3.734   9.720  0.9685  1.8606  0.9102
  108MOL0     H14250   6.278   3.554   9.882  0.2039  2.0088 -0.6930
  108MOL0     H14251   6.101   3.523   9.853  0.8828 -1.5246 -1.0741
  108MOL0     H14252   6.053   3.650  10.025 -0.8984  2.0841 -0.2212
  108MOL0     H14253   6.213   3.675  10.072 -1.4558  3.2206  2.9715
  108MOL0     H14254   6.141   4.062   9.975  0.8099 -0.0944 -1.1149
  108MOL0     H14255   6.129   3.788   9.301 -2.9044 -0.7971  0.3814
  108MOL0     H14256   6.076   3.709   9.061  0.4110  0.4191  0.1356
  109MOL0     O14257   5.123   7.247   1.382  0.4405  0.1091 -0.6713
  109MOL0     C14258   5.224   7.313   1.383 -0.4069  0.6644 -0.2551
  109MOL0     O14259   5.349   7.271   1.389 -0.6456  1.0366  0.1122
  109MOL0     C14260   5.359   7.133   1.380  0.3356  0.7275  1.0092
  109MOL0     C14261   5.361   7.049   1.493  0.0137 -0.9998 -0.2279
  109MOL0     C14262   5.388   6.913   1.474 -0.2367 -0.5081  0.0419
  109MOL0     C14263   5.399   6.857   1.346 -0.0132  0.1780 -0.4769
  109MOL0     O14264   5.388   6.725   1.339  0.0035 -0.1537 -0.6356
  109MOL0     C14265   5.423   6.651   1.225  0.7148 -0.0844  0.0433
  109MOL0     C14266   5.329   6.533   1.210 -0.0401 -0.2509 -0.5761
  109MOL0     C14267   5.402   6.401   1.159  0.4761  1.3106 -0.1762
  109MOL0     C14268   5.288   6.296   1.149 -0.5745 -0.4727  0.5848
  109MOL0     C14269   5.325   6.160   1.088 -0.0975  0.1525  0.6287
  109MOL0     C14270   5.409   6.073   1.185  0.2982 -0.4985  0.5177
  109MOL0     C14271   5.447   5.943   1.122  1.0591  0.9318  0.1189
  109MOL0     C14272   5.585   5.889   1.175  0.2211  1.1495  0.6462
  109MOL0     N14273   5.609   5.766   1.110  0.4172  0.1874  0.0957
  109MOL0     C14274   5.620   5.648   1.177  0.3485 -0.2556  0.7021
  109MOL0     C14275   5.695   5.567   1.102 -0.0976  0.4553  0.6310
  109MOL0     C14276   5.749   5.432   1.140 -0.1639  0.2679  0.5064
  109MOL0     C14277   5.649   5.356   1.212  0.0775  0.0353 -0.0080
  109MOL0     C14278   5.693   5.207   1.234 -0.0180  0.1688 -0.1692
  109MOL0     C14279   5.575   5.119   1.285 -0.5135 -0.2082  0.1903
  109MOL0     O14280   5.467   5.106   1.191  0.1729 -0.2859  0.0606
  109MOL0     C14281   5.361   5.023   1.226  0.6549  0.0777 -0.8215
  109MOL0     C14282   5.268   5.010   1.130  1.0433  0.6952  0.6466
  109MOL0     C14283   5.158   4.921   1.138  0.7397  0.1872 -0.0174
  109MOL0     C14284   5.138   4.843   1.252 -0.4074  0.2531  0.1880
  109MOL0     C14285   5.019   4.749   1.275 -0.6597  0.1009  0.1953
  109MOL0     O14286   4.939   4.727   1.169 -0.6067  0.8000  0.2653
  109MOL0     C14287   4.825   4.644   1.163 -0.7728  0.3348 -0.3391
  109MOL0     C14288   4.798   4.541   1.251 -0.3072  0.1000 -0.1555
  109MOL0     C14289   4.682   4.471   1.246  0.2311 -0.6807 -0.0436
  109MOL0     C14290   4.584   4.498   1.147 -0.0005  0.6340 -0.1067
  109MOL0     O14291   4.471   4.421   1.165  0.2449 -0.5291 -0.6772
  109MOL0     C14292   4.361   4.471   1.094 -1.5185  1.0730  0.1546
  109MOL0     C14293   4.231   4.409   1.160 -0.5210 -0.6219 -0.8185
  109MOL0     C14294   4.229   4.254   1.131 -0.6161 -0.8158 -0.5880
  109MOL0     C14295   4.145   4.182   1.231 -0.1117 -0.2309  0.3209
  109MOL0     C14296   4.157   4.032   1.215 -0.8704 -0.4114 -0.0874
  109MOL0     C14297   4.057   3.965   1.311 -0.3658  0.2119  0.0842
  109MOL0     C14298   4.115   3.824   1.322  0.1941  0.1204  0.1502
  109MOL0     C14299   4.014   3.715   1.365  0.5320 -0.7109  0.0316
  109MOL0    Cl14300   4.082   3.565   1.438 -0.4226  0.4853  0.4810
  109MOL0     C14301   4.611   4.594   1.051  0.3579 -0.6792 -0.2541
  109MOL0     C14302   4.723   4.670   1.066  0.0020  0.5406 -0.2116
  109MOL0     O14303   5.002   4.696   1.380 -0.1440 -0.4193 -1.0316
  109MOL0     C14304   5.238   4.854   1.354  0.8254  0.9543  0.3076
  109MOL0     C14305   5.347   4.939   1.333  0.4575  1.1820  0.0813
  109MOL0     N14306   5.725   5.632   0.981 -0.1321 -0.3610 -0.1966
  109MOL0     N14307   5.676   5.755   0.985  0.3633 -0.3747  0.0304
  109MOL0     C14308   5.395   6.943   1.230 -0.3491  0.1061 -1.3001
  109MOL0     C14309   5.378   7.079   1.250 -0.5442 -0.9474 -0.6033
  109MOL0     C14310   5.201   7.454   1.373 -0.5671 -0.4263 -0.5855
  109MOL0     C14311   5.307   7.548   1.394  0.0985 -0.2281 -0.7864
  109MOL0     C14312   5.279   7.685   1.382  0.0641  0.3054 -0.6042
  109MOL0     C14313   5.158   7.726   1.329  0.2012 -0.2084  0.1992
  109MOL0     O14314   5.135   7.864   1.320  0.0081  0.0320  0.1949
  109MOL0     C14315   5.011   7.921   1.260  0.5183  0.6118  0.4237
  109MOL0     C14316   5.028   8.077   1.275  0.5605 -0.2384  0.6110
  109MOL0     C14317   4.902   8.154   1.237  0.1270  0.7350  0.6321
  109MOL0     C14318   4.924   8.305   1.272 -0.5595  0.1843 -0.0939
  109MOL0     C14319   4.823   8.397   1.228 -0.7305 -0.2656  1.1284
  109MOL0     C14320   4.740   8.489   1.198 -0.6214 -0.2699  1.0571
  109MOL0     C14321   5.060   7.631   1.299  0.3558 -0.6967 -0.6095
  109MOL0     C14322   5.077   7.497   1.323 -0.4040  0.3529  0.5080
  109MOL0     H14323   5.352   7.083   1.595  1.6031  0.1019 -0.4145
  109MOL0     H14324   5.390   6.847   1.560 -0.9294  0.7340  1.0381
  109MOL0     H14325   5.526   6.617   1.242  1.3373  1.7733  0.2578
  109MOL0     H14326   5.407   6.702   1.129  1.1964  1.2899  0.6629
  109MOL0     H14327   5.248   6.568   1.144  0.7676  1.6337 -0.6322
  109MOL0     H14328   5.283   6.509   1.306  3.4877 -1.8184  0.8908
  109MOL0     H14329   5.475   6.355   1.227 -1.2978 -1.0782  0.2131
  109MOL0     H14330   5.438   6.416   1.057 -0.4184 -0.0080 -0.7128
  109MOL0     H14331   5.241   6.274   1.245  0.6843 -1.5586  0.9898
  109MOL0     H14332   5.215   6.332   1.076  2.6492  3.2503 -1.1710
  109MOL0     H14333   5.370   6.162   0.988 -0.3536 -0.3696  0.5019
  109MOL0     H14334   5.232   6.107   1.069  0.3245 -0.5451  0.4853
  109MOL0     H14335   5.353   6.048   1.276 -0.0098 -2.5291 -0.1573
  109MOL0     H14336   5.500   6.119   1.222  2.8047 -0.4122 -4.8458
  109MOL0     H14337   5.371   5.869   1.148  0.7127  1.1891 -0.1420
  109MOL0     H14338   5.466   5.948   1.014  1.7921 -1.4681  0.0811
  109MOL0     H14339   5.575   5.866   1.282  2.9641  0.5140  0.8282
  109MOL0     H14340   5.669   5.959   1.172  0.5738  0.6987 -0.2447
  109MOL0     H14341   5.577   5.625   1.274  2.3502 -0.2979  1.6500
  109MOL0     H14342   5.835   5.445   1.206  1.1819 -2.2282 -0.6008
  109MOL0     H14343   5.796   5.377   1.058  2.8417  1.4242  1.3387
  109MOL0     H14344   5.560   5.366   1.149  1.1614  0.3150 -1.5442
  109MOL0     H14345   5.620   5.392   1.311 -2.9520 -1.1200 -0.3684
  109MOL0     H14346   5.746   5.164   1.149  2.6557 -0.9082  1.8645
  109MOL0     H14347   5.774   5.199   1.308  3.4201  1.5990 -3.4484
  109MOL0     H14348   5.537   5.145   1.385 -1.3626 -0.0073 -0.1711
  109MOL0     H14349   5.605   5.014   1.286 -0.7675 -0.3581 -2.4820
  109MOL0     H14350   5.280   5.057   1.033 -0.5354 -0.0748  0.0383
  109MOL0     H14351   5.109   4.917   1.042  2.4117  0.7007 -0.9411
  109MOL0     H14352   4.872   4.522   1.328  2.4369 -2.3510 -3.1038
  109MOL0     H14353   4.670   4.391   1.318  1.0013 -2.6404 -1.9666
  109MOL0     H14354   4.366   4.434   0.991  2.1835 -1.0683  0.8921
  109MOL0     H14355   4.354   4.579   1.109  4.5281  1.4532  3.6306
  109MOL0     H14356   4.143   4.454   1.113 -2.4878 -0.7474  2.4414
  109MOL0     H14357   4.237   4.443   1.264  4.4317  1.3652 -1.5088
  109MOL0     H14358   4.329   4.212   1.144 -1.5440 -2.4903  1.8880
  109MOL0     H14359   4.192   4.242   1.028  1.6221 -1.6060 -1.3587
  109MOL0     H14360   4.178   4.208   1.332  3.2208  1.5947 -1.0759
  109MOL0     H14361   4.041   4.213   1.220 -0.4098 -1.0522  0.7225
  109MOL0     H14362   4.257   3.999   1.245 -0.3778  0.1746 -1.0571
  109MOL0     H14363   4.135   4.005   1.111 -0.4479 -2.4181  0.2983
  109MOL0     H14364   3.955   3.966   1.272 -0.8895  1.0450  1.4165
  109MOL0     H14365   4.053   4.018   1.406  3.3728  0.1572  0.3978
  109MOL0     H14366   4.140   3.797   1.219 -1.2509  1.8145 -0.7096
  109MOL0     H14367   4.200   3.824   1.391 -0.0771  1.1171  0.5056
  109MOL0     H14368   3.927   3.701   1.300  0.3991  3.2348 -0.9068
  109MOL0     H14369   3.978   3.755   1.460 -0.7869 -2.0025  0.1034
  109MOL0     H14370   4.543   4.602   0.968 -1.4721 -1.3240  1.1258
  109MOL0     H14371   4.731   4.738   0.982 -1.2438 -0.8014 -1.4810
  109MOL0     H14372   5.243   4.785   1.438  2.2289  0.5328 -0.0904
  109MOL0     H14373   5.434   4.934   1.399  1.5081  1.0153 -1.2738
  109MOL0     H14374   5.405   6.916   1.125  0.3604  1.2979 -1.5657
  109MOL0     H14375   5.371   7.145   1.164 -3.0975 -0.9184 -0.4530
  109MOL0     H14376   5.404   7.510   1.426  0.9288  2.7075  0.6139
  109MOL0     H14377   5.354   7.757   1.412  1.5686 -2.0230  1.7786
  109MOL0     H14378   4.921   7.886   1.313 -0.5687 -1.6677 -2.6224
  109MOL0     H14379   5.004   7.900   1.153 -2.7121  2.3292  0.1824
  109MOL0     H14380   5.054   8.097   1.380  2.1933 -2.8586  0.8209
  109MOL0     H14381   5.117   8.104   1.218  0.3439 -2.3383 -0.8615
  109MOL0     H14382   4.831   8.129   1.317  0.3313  0.2288  0.6548
  109MOL0     H14383   4.864   8.140   1.136 -0.7799  4.6122  0.2702
  109MOL0     H14384   4.956   8.317   1.376  1.5727 -0.5493 -0.6160
  109MOL0     H14385   5.016   8.333   1.221 -0.8687  0.0708 -0.7254
  109MOL0     H14386   4.673   8.567   1.167  0.5842  0.1309 -0.7394
  109MOL0     H14387   4.965   7.669   1.262  0.7076 -0.1567 -0.9526
  109MOL0     H14388   4.996   7.427   1.303 -1.0834  0.0836  3.6397
  110MOL0     O14389   8.365   7.996   8.776  0.9165 -0.1849 -0.0782
  110MOL0     C14390   8.457   7.950   8.715 -0.4524  0.3342  0.3715
  110MOL0     O14391   8.478   7.973   8.578 -0.1466 -0.2413 -0.4938
  110MOL0     C14392   8.400   8.064   8.516 -0.4601 -0.0188 -0.2338
  110MOL0     C14393   8.420   8.199   8.534 -0.1974 -1.0141  0.1400
  110MOL0     C14394   8.349   8.291   8.448 -0.5430 -0.1567 -0.1949
  110MOL0     C14395   8.263   8.247   8.347 -0.7713  0.1143 -0.9018
  110MOL0     O14396   8.200   8.351   8.271 -0.0511 -0.6171 -0.6981
  110MOL0     C14397   8.081   8.325   8.200 -0.4102 -0.0404 -1.1607
  110MOL0     C14398   7.952   8.347   8.285  0.1376  0.3261  0.7528
  110MOL0     C14399   7.947   8.486   8.359  0.0767  1.1004 -0.2272
  110MOL0     C14400   7.813   8.506   8.438  0.4117  0.1915  0.6405
  110MOL0     C14401   7.820   8.618   8.539 -0.9625  0.1163 -0.2929
  110MOL0     C14402   7.890   8.554   8.669  0.6005 -0.0082 -0.2491
  110MOL0     C14403   7.861   8.628   8.796 -0.2543  0.3065  0.4734
  110MOL0     C14404   7.724   8.590   8.854 -0.1857  0.6929  0.0569
  110MOL0     N14405   7.693   8.640   8.989 -0.4142  0.4192 -0.6927
  110MOL0     C14406   7.582   8.701   9.037 -0.3389 -0.3281  0.3967
  110MOL0     C14407   7.599   8.719   9.167 -0.0182 -0.0782 -0.6626
  110MOL0     C14408   7.493   8.758   9.257 -0.2450  0.2332  0.6000
  110MOL0     C14409   7.515   8.902   9.311  0.0883  0.9324 -0.1470
  110MOL0     C14410   7.472   8.917   9.458 -0.1284 -0.6044  0.5348
  110MOL0     C14411   7.467   9.072   9.477  0.2959  0.0621 -0.2054
  110MOL0     O14412   7.456   9.122   9.616  0.0607 -0.3526 -0.3329
  110MOL0     C14413   7.566   9.192   9.661 -0.2862  0.1939  1.3716
  110MOL0     C14414   7.561   9.330   9.652  0.5846 -0.7407 -0.0770
  110MOL0     C14415   7.670   9.402   9.677  0.5155  0.2177  0.4950
  110MOL0     C14416   7.791   9.338   9.725  0.5319  0.2696 -0.0031
  110MOL0     C14417   7.907   9.424   9.755  0.5195 -0.1668 -0.1988
  110MOL0     O14418   7.873   9.553   9.749  0.4594 -0.0205 -0.4514
  110MOL0     C14419   7.959   9.647   9.790 -0.1819  0.5538  0.1457
  110MOL0     C14420   7.935   9.700   9.914 -0.7519  0.1720  0.7766
  110MOL0     C14421   8.027   9.798   9.963  0.9355 -0.4388  0.4706
  110MOL0     C14422   8.127   9.852   9.877 -0.3518  0.1313 -0.1096
  110MOL0     O14423   8.215   9.937   9.933  0.0474 -0.3656  0.1171
  110MOL0     C14424   8.185  10.076   9.905  0.4008  0.6243 -0.2393
  110MOL0     C14425   8.259  10.159  10.008 -1.0452  0.4762  0.4084
  110MOL0     C14426   8.242  10.303   9.968 -0.1303 -0.6515  0.2552
  110MOL0     C14427   8.168  10.383  10.075 -0.4682  0.1592 -0.0356
  110MOL0     C14428   8.117  10.520  10.022 -0.4237  0.0196  0.3433
  110MOL0     C14429   8.051  10.581  10.146  1.0529 -0.0754  0.1003
  110MOL0     C14430   8.008  10.731  10.123 -0.4438  0.2965  0.9200
  110MOL0     C14431   8.130  10.824  10.141  0.7642  0.1361 -0.2116
  110MOL0    Cl14432   8.221  10.797  10.284 -0.4531 -0.4239 -0.3579
  110MOL0     C14433   8.139   9.800   9.750  0.5999 -0.2866  0.2130
  110MOL0     C14434   8.058   9.700   9.704  0.7132  0.3144 -0.9672
  110MOL0     O14435   8.014   9.375   9.750 -1.0214  0.8647  0.4013
  110MOL0     C14436   7.798   9.196   9.733 -0.1464 -0.6205  0.1575
  110MOL0     C14437   7.685   9.125   9.693 -0.6141 -0.0516  0.3799
  110MOL0     N14438   7.718   8.663   9.205  0.4445 -1.0297  0.2083
  110MOL0     N14439   7.771   8.611   9.099 -0.1519  0.4267 -0.2410
  110MOL0     C14440   8.243   8.106   8.329  0.3125 -0.0401 -0.9143
  110MOL0     C14441   8.319   8.014   8.420  0.7399  0.9448  1.4785
  110MOL0     C14442   8.565   7.887   8.792 -0.0483 -0.3150 -0.1072
  110MOL0     C14443   8.697   7.875   8.743 -0.2064 -0.9178 -0.7645
  110MOL0     C14444   8.794   7.834   8.835 -0.2132 -0.2606  0.9044
  110MOL0     C14445   8.761   7.817   8.969  0.0231  0.1141 -0.1504
  110MOL0     O14446   8.859   7.794   9.064 -0.4546 -0.5841 -0.0427
  110MOL0     C14447   8.859   7.888   9.175  0.1023  0.1179 -0.0365
  110MOL0     C14448   8.958   7.831   9.274 -0.6367  0.7305  0.2501
  110MOL0     C14449   9.005   7.935   9.373 -0.1020  0.6955 -0.0643
  110MOL0     C14450   9.111   7.889   9.471 -0.2991 -0.8244 -0.4712
  110MOL0     C14451   9.090   7.968   9.590  0.7363 -0.5392  0.5350
  110MOL0     C14452   9.073   8.026   9.699 -1.1794  0.7939 -0.1223
  110MOL0     C14453   8.628   7.808   9.015  0.1901  0.2077  0.5458
  110MOL0     C14454   8.531   7.843   8.926 -0.0005  0.5109  0.6653
  110MOL0     H14455   8.482   8.239   8.613 -1.4768 -0.3087  0.8198
  110MOL0     H14456   8.363   8.398   8.459 -1.2981 -0.0769  0.0606
  110MOL0     H14457   8.083   8.222   8.163  1.4127 -0.2066 -0.7036
  110MOL0     H14458   8.082   8.389   8.112 -0.5491  1.8744  0.1735
  110MOL0     H14459   7.952   8.266   8.358  1.3289 -1.0483 -0.7010
  110MOL0     H14460   7.861   8.325   8.228 -0.0714  1.0733  0.7898
  110MOL0     H14461   7.948   8.566   8.284 -1.2109  0.9069 -0.4793
  110MOL0     H14462   8.028   8.497   8.432  2.0005  1.1326 -2.2499
  110MOL0     H14463   7.739   8.541   8.366 -0.3867 -0.0803  1.3140
  110MOL0     H14464   7.769   8.422   8.493  1.0131 -0.4329  0.1900
  110MOL0     H14465   7.716   8.646   8.560 -1.5691 -1.2524 -1.3113
  110MOL0     H14466   7.869   8.708   8.501 -0.9123 -0.9965 -3.0533
  110MOL0     H14467   7.999   8.544   8.666  0.5904 -1.7380  1.9868
  110MOL0     H14468   7.846   8.454   8.685 -2.5944  1.2526 -0.3256
  110MOL0     H14469   7.944   8.620   8.867  0.9832  2.9921 -0.5061
  110MOL0     H14470   7.861   8.736   8.780 -0.9259  0.2245 -0.1351
  110MOL0     H14471   7.714   8.481   8.860  4.9853 -0.0081  1.6690
  110MOL0     H14472   7.657   8.636   8.782 -2.1207  1.0983  2.0337
  110MOL0     H14473   7.498   8.728   8.974 -0.1552 -1.1084 -0.2026
  110MOL0     H14474   7.507   8.703   9.352 -1.5483 -3.0177 -0.9244
  110MOL0     H14475   7.394   8.744   9.213 -0.0174  2.9736 -0.9805
  110MOL0     H14476   7.458   8.977   9.256 -2.5993 -1.6745 -1.2292
  110MOL0     H14477   7.620   8.934   9.312 -0.3869  2.6789  1.6117
  110MOL0     H14478   7.378   8.867   9.480  0.5688 -1.8851  0.6935
  110MOL0     H14479   7.547   8.887   9.531 -0.1733  1.1190  1.3457
  110MOL0     H14480   7.383   9.123   9.428 -0.8572 -1.2585  0.3467
  110MOL0     H14481   7.565   9.106   9.442 -0.3404  0.7188 -1.4414
  110MOL0     H14482   7.465   9.377   9.636  0.5989 -0.9453 -0.7716
  110MOL0     H14483   7.655   9.509   9.667  1.3410  0.4135  1.2002
  110MOL0     H14484   7.855   9.675   9.982 -0.8020  2.2832  1.5830
  110MOL0     H14485   8.025   9.843  10.062  1.9016  1.3606 -0.2877
  110MOL0     H14486   8.078  10.087   9.926 -0.6327 -2.5576 -2.8981
  110MOL0     H14487   8.207  10.103   9.802 -1.8934  3.4934 -0.1131
  110MOL0     H14488   8.366  10.137   9.995 -0.4714  1.9485  2.3285
  110MOL0     H14489   8.224  10.138  10.109  3.4872 -1.6132  1.7988
  110MOL0     H14490   8.184  10.315   9.876 -0.1022  0.1678  0.3410
  110MOL0     H14491   8.337  10.355   9.954 -1.8955  2.4639 -1.0916
  110MOL0     H14492   8.072  10.334  10.095 -0.7670 -1.3217 -4.1876
  110MOL0     H14493   8.236  10.400  10.159 -0.5493  2.9576 -0.4505
  110MOL0     H14494   8.042  10.506   9.944 -1.0393  0.3679  0.8540
  110MOL0     H14495   8.195  10.577   9.972  0.7265 -1.5961  0.2366
  110MOL0     H14496   8.124  10.588  10.227  4.8877  1.7152 -3.1439
  110MOL0     H14497   7.956  10.531  10.169 -1.2288  3.4272 -0.8657
  110MOL0     H14498   7.963  10.758  10.027  0.5026 -0.2427  0.3213
  110MOL0     H14499   7.937  10.767  10.199 -1.5835  0.8759 -0.3767
  110MOL0     H14500   8.100  10.929  10.149 -1.5459 -0.4926  0.3433
  110MOL0     H14501   8.203  10.811  10.061 -1.3428  0.6392 -2.3445
  110MOL0     H14502   8.220   9.839   9.689 -0.3718  3.9315  1.2782
  110MOL0     H14503   8.080   9.644   9.614  2.6719  1.1229 -1.0373
  110MOL0     H14504   7.887   9.142   9.766  1.0345 -0.0597 -1.9082
  110MOL0     H14505   7.687   9.017   9.691 -3.2895 -0.1735  1.1249
  110MOL0     H14506   8.174   8.063   8.257 -2.2666  1.3374  0.5510
  110MOL0     H14507   8.306   7.907   8.405 -1.2206  1.5436 -2.3052
  110MOL0     H14508   8.722   7.916   8.646  0.7344 -0.9641 -0.5566
  110MOL0     H14509   8.896   7.841   8.799 -0.6054  0.2555 -0.1467
  110MOL0     H14510   8.758   7.897   9.215 -0.3950 -1.7054 -0.8220
  110MOL0     H14511   8.914   7.978   9.143 -0.0099  0.5091  0.8429
  110MOL0     H14512   8.893   7.764   9.332  0.2651 -1.1444 -0.8274
  110MOL0     H14513   9.035   7.777   9.218 -0.3580 -0.6627  1.8904
  110MOL0     H14514   8.920   7.975   9.429 -1.2946  0.3032 -1.5284
  110MOL0     H14515   9.035   8.029   9.327 -1.8705  1.7030  0.7323
  110MOL0     H14516   9.097   7.783   9.491  0.4563 -0.9381 -0.5209
  110MOL0     H14517   9.204   7.913   9.418  0.4447 -1.5378  0.4799
  110MOL0     H14518   9.051   8.087   9.784 -1.7768  1.6525 -0.8747
  110MOL0     H14519   8.609   7.776   9.117  1.0595  0.0592  0.6730
  110MOL0     H14520   8.428   7.850   8.958 -0.0463  0.6367  0.4952
  111MOL0     O14521   6.717   7.399   4.086 -0.6533  1.0303 -0.3249
  111MOL0     C14522   6.656   7.469   4.002 -0.5618 -0.8021  0.1470
  111MOL0     O14523   6.708   7.584   3.939 -0.4195  0.6614 -0.4095
  111MOL0     C14524   6.841   7.633   3.964  0.2295  0.1720 -0.3498
  111MOL0     C14525   6.907   7.686   3.859  0.0084  0.2765  0.6294
  111MOL0     C14526   7.042   7.738   3.879 -0.2483 -0.2463 -0.4738
  111MOL0     C14527   7.098   7.737   4.008 -0.0198 -0.7977 -0.6621
  111MOL0     O14528   7.235   7.763   4.027  0.2368 -0.3580  0.0917
  111MOL0     C14529   7.311   7.839   3.930  0.1977  0.8295  0.1180
  111MOL0     C14530   7.406   7.754   3.837  0.4577  0.4455 -0.0520
  111MOL0     C14531   7.511   7.678   3.916  0.9374  0.0746 -1.1135
  111MOL0     C14532   7.586   7.573   3.833  0.3452  0.3982  0.5616
  111MOL0     C14533   7.725   7.522   3.887  0.7245  0.1843  0.8082
  111MOL0     C14534   7.839   7.600   3.821 -0.8426 -0.6816  0.1461
  111MOL0     C14535   7.977   7.583   3.890 -0.2222 -0.0217 -0.3604
  111MOL0     C14536   8.079   7.632   3.794 -0.1534 -0.0781 -0.7777
  111MOL0     N14537   8.214   7.599   3.840  0.6652 -1.3772  0.4718
  111MOL0     C14538   8.302   7.677   3.919  0.8351  1.1645  1.8081
  111MOL0     C14539   8.420   7.602   3.902  1.0963 -0.4050 -0.8238
  111MOL0     C14540   8.546   7.630   3.987 -0.0107  0.3746  0.1596
  111MOL0     C14541   8.560   7.548   4.122 -0.3219 -0.6159  0.3105
  111MOL0     C14542   8.594   7.401   4.091  0.8754 -0.5756  0.1636
  111MOL0     C14543   8.609   7.311   4.214  0.3955 -0.6637 -0.3356
  111MOL0     O14544   8.712   7.361   4.302  0.2158 -0.2886  0.3022
  111MOL0     C14545   8.761   7.292   4.410 -0.9839 -0.1885 -0.6447
  111MOL0     C14546   8.717   7.163   4.440 -0.6175  0.0566  0.5209
  111MOL0     C14547   8.747   7.097   4.563  0.0454  0.5089  0.2127
  111MOL0     C14548   8.832   7.162   4.656 -0.4806  0.5386 -0.1505
  111MOL0     C14549   8.871   7.094   4.778 -0.4207 -0.0938  0.1128
  111MOL0     O14550   8.867   6.959   4.780 -0.3923  0.6835 -0.5441
  111MOL0     C14551   8.926   6.874   4.880  0.0551 -0.1745 -1.1027
  111MOL0     C14552   8.976   6.757   4.838 -0.9355  0.0629 -1.8003
  111MOL0     C14553   9.043   6.665   4.931  0.3181 -0.0823  0.0694
  111MOL0     C14554   9.040   6.684   5.068 -0.0646 -0.3435  0.0156
  111MOL0     O14555   9.109   6.606   5.152 -0.7360 -0.2091  0.0410
  111MOL0     C14556   9.159   6.671   5.285  0.8623 -1.6482  1.1447
  111MOL0     C14557   9.279   6.587   5.332 -0.1056 -0.3413 -0.0675
  111MOL0     C14558   9.239   6.455   5.398 -0.7904  1.0051  1.4464
  111MOL0     C14559   9.160   6.464   5.531 -0.5441 -0.5338 -0.2667
  111MOL0     C14560   9.195   6.344   5.614 -0.2191  0.2164  0.0338
  111MOL0     C14561   9.123   6.373   5.747 -1.0541 -0.0074  0.8546
  111MOL0     C14562   8.969   6.394   5.758  0.1541 -0.4363 -0.1810
  111MOL0     C14563   8.919   6.403   5.898  0.2600  0.7531 -0.3896
  111MOL0    Cl14564   9.000   6.533   5.989  0.0995  0.5388 -0.0211
  111MOL0     C14565   8.968   6.803   5.115  0.1928 -0.5376  0.1700
  111MOL0     C14566   8.909   6.899   5.020  1.0223 -0.2627 -1.0155
  111MOL0     O14567   8.927   7.166   4.856  0.5451 -0.2190  0.4221
  111MOL0     C14568   8.888   7.289   4.617  0.2446  0.3442 -0.0596
  111MOL0     C14569   8.860   7.348   4.494  0.1684 -0.7459  0.3393
  111MOL0     N14570   8.403   7.500   3.814 -0.2001 -0.5285  0.8201
  111MOL0     N14571   8.283   7.498   3.783  0.2709  1.1038  0.8279
  111MOL0     C14572   7.019   7.695   4.116 -0.3915  0.7445  0.1230
  111MOL0     C14573   6.900   7.633   4.093  0.0932 -0.0052  0.0032
  111MOL0     C14574   6.535   7.412   3.946  0.8542  1.1237  0.7304
  111MOL0     C14575   6.447   7.477   3.857 -0.5947 -0.0896  0.1117
  111MOL0     C14576   6.333   7.414   3.806 -0.2823 -0.6905 -0.4642
  111MOL0     C14577   6.299   7.280   3.837  0.2483 -0.0263  0.7408
  111MOL0     O14578   6.174   7.228   3.794 -0.6125  0.2848  0.6812
  111MOL0     C14579   6.124   7.107   3.860 -0.2283  0.1822 -0.1067
  111MOL0     C14580   5.984   7.079   3.821 -0.8496  0.2272 -0.3969
  111MOL0     C14581   5.963   7.102   3.673 -1.2190  0.5660  0.2732
  111MOL0     C14582   5.821   7.036   3.653 -0.4823  0.4557 -0.5497
  111MOL0     C14583   5.789   7.031   3.509 -0.4328  0.1264  0.2662
  111MOL0     C14584   5.764   7.047   3.394  0.3182  0.1589  1.3328
  111MOL0     C14585   6.386   7.214   3.925 -0.4595 -0.5979  0.4597
  111MOL0     C14586   6.499   7.272   3.979  0.9318  0.7575  0.2681
  111MOL0     H14587   6.861   7.676   3.761  2.2394 -2.0756 -0.3089
  111MOL0     H14588   7.093   7.755   3.785 -1.2101  0.0308 -0.9544
  111MOL0     H14589   7.379   7.907   3.983  2.3664  0.5142 -2.1226
  111MOL0     H14590   7.250   7.908   3.870 -2.6154  1.2127  3.1124
  111MOL0     H14591   7.463   7.826   3.778  1.6802  0.9910  1.6963
  111MOL0     H14592   7.343   7.693   3.772  0.8264  0.0877 -0.0728
  111MOL0     H14593   7.463   7.629   4.002 -0.5147  0.1197 -1.8710
  111MOL0     H14594   7.589   7.741   3.960  1.1728 -0.6539 -0.4486
  111MOL0     H14595   7.535   7.476   3.838  1.8774 -0.5004 -0.2713
  111MOL0     H14596   7.605   7.608   3.731  0.9304  1.6407  1.0834
  111MOL0     H14597   7.745   7.418   3.860  0.3256  0.3225 -0.0606
  111MOL0     H14598   7.734   7.534   3.995 -0.0150 -1.5185  1.0918
  111MOL0     H14599   7.811   7.706   3.831 -1.8580 -0.9137 -0.0772
  111MOL0     H14600   7.832   7.582   3.714 -2.8808  4.3433 -0.8502
  111MOL0     H14601   7.972   7.638   3.984 -3.1108  0.9486 -0.9834
  111MOL0     H14602   7.997   7.479   3.919  4.9942 -0.1510 -3.1947
  111MOL0     H14603   8.079   7.741   3.792 -1.8708 -0.0201  0.2369
  111MOL0     H14604   8.059   7.588   3.695 -0.8208 -2.2585  0.2646
  111MOL0     H14605   8.283   7.774   3.963 -2.0443  1.2557  0.6030
  111MOL0     H14606   8.540   7.734   4.020 -3.5476 -0.4512  2.7366
  111MOL0     H14607   8.637   7.619   3.928 -0.2993  0.1075 -0.2442
  111MOL0     H14608   8.467   7.558   4.178 -1.6733 -1.3168 -1.7046
  111MOL0     H14609   8.650   7.583   4.174  1.1238  1.0247 -3.0435
  111MOL0     H14610   8.503   7.353   4.053  0.4957  0.6236 -0.4852
  111MOL0     H14611   8.681   7.389   4.025  0.2154  1.3667 -1.1437
  111MOL0     H14612   8.634   7.211   4.177  2.4605 -1.4808  2.8345
  111MOL0     H14613   8.512   7.300   4.263  0.7146 -0.6791  0.3012
  111MOL0     H14614   8.655   7.124   4.359 -0.0833  1.9732 -0.8848
  111MOL0     H14615   8.714   6.995   4.582 -2.6546  0.2120 -4.5205
  111MOL0     H14616   8.973   6.745   4.730  1.3807 -1.5285 -1.7706
  111MOL0     H14617   9.083   6.583   4.872 -0.6960 -1.4379  1.2007
  111MOL0     H14618   9.081   6.674   5.361 -1.5338 -2.8329 -1.1161
  111MOL0     H14619   9.191   6.775   5.270 -3.8419 -0.0081  0.8408
  111MOL0     H14620   9.326   6.665   5.392 -3.9014  1.9159  0.2495
  111MOL0     H14621   9.337   6.561   5.243 -0.4525  2.1186 -1.0865
  111MOL0     H14622   9.333   6.402   5.414 -1.6606 -0.9034  0.6180
  111MOL0     H14623   9.172   6.397   5.332 -1.2980  0.7825  2.1469
  111MOL0     H14624   9.186   6.562   5.571  0.5978 -0.7322 -0.4998
  111MOL0     H14625   9.051   6.467   5.518 -0.5977 -2.8461 -0.7410
  111MOL0     H14626   9.302   6.329   5.631 -0.7142 -0.1075  3.6009
  111MOL0     H14627   9.143   6.256   5.576 -0.9077  1.0996 -1.1263
  111MOL0     H14628   9.176   6.454   5.796 -0.7659 -0.1168  0.7256
  111MOL0     H14629   9.142   6.284   5.808  2.7869 -2.2378 -2.9713
  111MOL0     H14630   8.937   6.481   5.699  2.6516  1.4803  1.1068
  111MOL0     H14631   8.919   6.303   5.724 -1.6064  0.0088  1.0948
  111MOL0     H14632   8.934   6.305   5.943 -2.8271 -0.4908 -1.8149
  111MOL0     H14633   8.812   6.417   5.914  0.3856 -0.8442  2.3784
  111MOL0     H14634   8.940   6.816   5.219 -1.4460 -2.4061  0.0278
  111MOL0     H14635   8.871   6.990   5.064  0.7835 -0.3309 -1.0814
  111MOL0     H14636   8.969   7.330   4.676  0.7451  1.1297 -1.2670
  111MOL0     H14637   8.894   7.446   4.462  1.0435 -1.2913 -0.4467
  111MOL0     H14638   7.060   7.686   4.216 -1.5810  2.6764  0.8430
  111MOL0     H14639   6.849   7.601   4.184  3.5103 -1.5811  1.5262
  111MOL0     H14640   6.467   7.578   3.824  1.2624  0.1446  1.8308
  111MOL0     H14641   6.274   7.470   3.735  1.1179  2.3220  0.5780
  111MOL0     H14642   6.137   7.092   3.967  0.0583  0.6285 -0.0738
  111MOL0     H14643   6.180   7.024   3.818 -3.8908 -2.5145 -0.1810
  111MOL0     H14644   5.965   6.976   3.855 -0.1033  0.5465  1.0896
  111MOL0     H14645   5.914   7.138   3.881 -0.6270 -0.5778  0.6880
  111MOL0     H14646   6.039   7.045   3.618 -0.8539 -1.6740  2.9148
  111MOL0     H14647   5.974   7.206   3.640  0.6146  0.2409 -0.2743
  111MOL0     H14648   5.829   6.941   3.706 -1.6232  0.5731 -0.1543
  111MOL0     H14649   5.744   7.082   3.715  0.7285 -4.0547  5.1689
  111MOL0     H14650   5.745   7.081   3.294 -1.2958 -1.7859  0.9128
  111MOL0     H14651   6.363   7.109   3.942  0.6240 -0.8655  0.3414
  111MOL0     H14652   6.570   7.215   4.038  0.0455 -0.2527  0.3811
  112MOL0     O14653   3.699   3.853   8.948  0.7165 -0.3741 -0.2193
  112MOL0     C14654   3.702   3.942   8.864  0.2008  1.0198 -0.7908
  112MOL0     O14655   3.767   4.056   8.883 -0.4674 -0.0970  0.9313
  112MOL0     C14656   3.800   4.105   9.008  0.1782  0.7259  0.9691
  112MOL0     C14657   3.932   4.153   9.038  0.4356  0.2745 -1.2872
  112MOL0     C14658   3.967   4.182   9.172 -0.3254  0.4568  0.5110
  112MOL0     C14659   3.873   4.180   9.277 -0.4805 -1.0710  0.1659
  112MOL0     O14660   3.916   4.217   9.400 -0.5497  0.5225 -0.6534
  112MOL0     C14661   3.834   4.198   9.508 -0.5372 -0.2474 -0.2953
  112MOL0     C14662   3.728   4.302   9.540  0.3058 -0.0043  0.0579
  112MOL0     C14663   3.780   4.441   9.564  0.0688  1.0663  0.8086
  112MOL0     C14664   3.845   4.442   9.711 -0.2146 -0.4908  0.4128
  112MOL0     C14665   3.894   4.576   9.760 -0.2506  0.4913 -0.1771
  112MOL0     C14666   3.982   4.568   9.887 -0.4312  0.4640 -0.0504
  112MOL0     C14667   3.994   4.701   9.954 -0.3516  0.2356  0.8950
  112MOL0     C14668   4.102   4.702  10.070 -0.3041  0.2337  0.1285
  112MOL0     N14669   4.067   4.633  10.201  0.1811 -0.6170  0.0671
  112MOL0     C14670   3.992   4.692  10.295  0.3979  0.1926 -0.5675
  112MOL0     C14671   3.969   4.598  10.388  0.3584  0.2640  0.5811
  112MOL0     C14672   3.877   4.614  10.500 -0.0867 -1.0462  0.5426
  112MOL0     C14673   3.948   4.671  10.622  0.1004 -0.0574 -0.3175
  112MOL0     C14674   3.962   4.822  10.607  0.9612 -0.2706 -0.2798
  112MOL0     C14675   3.863   4.928  10.558 -0.9631  0.2073  0.7663
  112MOL0     O14676   3.741   4.914  10.631 -0.2839 -0.4046 -0.0082
  112MOL0     C14677   3.692   5.034  10.676  0.4453 -1.1400 -0.0831
  112MOL0     C14678   3.678   5.066  10.808 -0.4477  0.2320 -0.3484
  112MOL0     C14679   3.626   5.189  10.856  0.3387  0.2757  0.2578
  112MOL0     C14680   3.595   5.290  10.761  0.2710 -0.8003 -0.8157
  112MOL0     C14681   3.540   5.425  10.800 -0.1405 -0.0285  0.7347
  112MOL0     O14682   3.504   5.517  10.707  0.1034 -1.1668 -0.2578
  112MOL0     C14683   3.456   5.639  10.757 -0.3543 -0.7667 -0.1745
  112MOL0     C14684   3.347   5.692  10.689  0.2246 -0.1880 -0.3105
  112MOL0     C14685   3.296   5.818  10.733 -0.2915  0.9013  0.6043
  112MOL0     C14686   3.356   5.895  10.832 -0.2186  0.0388  0.0198
  112MOL0     O14687   3.292   6.005  10.891 -0.1893  0.4779  0.1991
  112MOL0     C14688   3.320   6.119  10.799 -0.2692 -0.3419 -0.0084
  112MOL0     C14689   3.309   6.242  10.881 -0.4909  0.9946  0.7520
  112MOL0     C14690   3.336   6.371  10.806 -0.3160  0.5827  0.5502
  112MOL0     C14691   3.330   6.482  10.909 -0.1180  0.0497  0.0787
  112MOL0     C14692   3.365   6.619  10.862 -1.3095 -0.4256 -0.3403
  112MOL0     C14693   3.348   6.721  10.967 -0.7910 -0.9442 -0.9424
  112MOL0     C14694   3.388   6.857  10.901 -0.5179 -1.2443  0.2697
  112MOL0     C14695   3.530   6.871  10.843  1.1691  0.0698  0.6793
  112MOL0    Cl14696   3.650   6.808  10.948 -0.1008 -0.2760 -0.2757
  112MOL0     C14697   3.466   5.839  10.893  0.2991  0.7596 -0.3284
  112MOL0     C14698   3.507   5.717  10.862 -0.1419 -1.1100  0.2990
  112MOL0     O14699   3.533   5.435  10.917  0.4728 -1.0185  0.3205
  112MOL0     C14700   3.605   5.261  10.628  0.5218  0.4589 -0.3735
  112MOL0     C14701   3.661   5.138  10.590 -0.1014  0.5977 -0.5820
  112MOL0     N14702   4.027   4.483  10.346 -0.1609  0.3492 -0.2291
  112MOL0     N14703   4.082   4.500  10.230  0.0071  0.2783  0.1013
  112MOL0     C14704   3.742   4.139   9.249  0.2348  0.0349 -0.2946
  112MOL0     C14705   3.708   4.107   9.115 -0.0715  0.0290  0.1977
  112MOL0     C14706   3.625   3.921   8.739  0.1333  0.7010 -0.3389
  112MOL0     C14707   3.536   3.815   8.730  1.0882  0.0146 -0.4629
  112MOL0     C14708   3.458   3.789   8.614  0.7082 -0.6722  1.2324
  112MOL0     C14709   3.453   3.893   8.512 -0.3213 -0.6575  0.6660
  112MOL0     O14710   3.381   3.883   8.392 -1.0189  0.6469  1.2104
  112MOL0     C14711   3.311   3.758   8.360  1.0875  0.7399 -0.3756
  112MOL0     C14712   3.224   3.759   8.239 -0.8469 -0.8124  0.0317
  112MOL0     C14713   3.129   3.636   8.220  0.9993  0.8472 -0.0426
  112MOL0     C14714   3.069   3.610   8.085  0.1222  0.1861 -0.4829
  112MOL0     C14715   3.163   3.584   7.976  0.6734 -0.0629 -0.5325
  112MOL0     C14716   3.240   3.562   7.883  0.0382  0.1376  0.4067
  112MOL0     C14717   3.544   4.001   8.529 -0.1209  0.3485 -0.2131
  112MOL0     C14718   3.630   4.017   8.632 -0.0544  0.7045 -0.1744
  112MOL0     H14719   4.007   4.152   8.960  1.8531  1.1626  0.0010
  112MOL0     H14720   4.069   4.209   9.194  0.1308  0.8421 -1.8006
  112MOL0     H14721   3.900   4.194   9.596 -0.5433 -1.4758 -0.3304
  112MOL0     H14722   3.771   4.110   9.496 -2.8331  1.1545  0.7488
  112MOL0     H14723   3.666   4.278   9.626 -0.0985  1.5687  0.2283
  112MOL0     H14724   3.661   4.309   9.454  1.0567  1.2282 -0.4609
  112MOL0     H14725   3.691   4.506   9.565 -0.8963 -0.2169  1.9463
  112MOL0     H14726   3.847   4.467   9.482 -4.1512  4.1307 -2.1018
  112MOL0     H14727   3.764   4.408   9.777 -1.0864 -0.4620 -0.6017
  112MOL0     H14728   3.926   4.368   9.710 -3.3780 -4.4423 -2.8146
  112MOL0     H14729   3.804   4.635   9.783 -0.5726  0.3360 -1.0148
  112MOL0     H14730   3.952   4.625   9.681 -3.5733  0.6764 -2.7110
  112MOL0     H14731   4.077   4.520   9.863  0.5799  3.0247 -1.5297
  112MOL0     H14732   3.921   4.503   9.951  0.9911  0.1415  1.0435
  112MOL0     H14733   4.011   4.764   9.866 -1.4247  0.7415  1.0313
  112MOL0     H14734   3.900   4.733  10.001 -0.1944  0.5125  1.0194
  112MOL0     H14735   4.140   4.805  10.077 -2.9188  1.5947 -3.0365
  112MOL0     H14736   4.188   4.647  10.034  1.0039  2.5136 -0.4469
  112MOL0     H14737   3.960   4.795  10.307  0.7881  0.5168 -2.1534
  112MOL0     H14738   3.818   4.522  10.510 -2.3497 -0.0714 -2.3473
  112MOL0     H14739   3.804   4.691  10.472  1.6594  1.2619  1.9987
  112MOL0     H14740   4.043   4.621  10.642  0.1651 -0.8686 -2.4103
  112MOL0     H14741   3.877   4.641  10.700  0.3953 -0.2194 -0.1078
  112MOL0     H14742   3.989   4.853  10.708 -1.2406 -3.2282  1.3937
  112MOL0     H14743   4.054   4.847  10.553  2.8434 -2.4503  1.6802
  112MOL0     H14744   3.831   4.925  10.453  2.6846 -0.8584 -0.4828
  112MOL0     H14745   3.908   5.026  10.575 -3.4772  1.1720  2.4864
  112MOL0     H14746   3.707   4.996  10.885 -0.3951  1.2351  0.5750
  112MOL0     H14747   3.596   5.201  10.960 -1.1973  1.9471 -0.3219
  112MOL0     H14748   3.302   5.647  10.601  2.4962 -1.3775 -0.9607
  112MOL0     H14749   3.213   5.853  10.673  0.3004 -0.7427 -1.3143
  112MOL0     H14750   3.257   6.116  10.710  1.1243 -1.3638 -1.0011
  112MOL0     H14751   3.424   6.125  10.765 -0.5072  1.0433 -0.5813
  112MOL0     H14752   3.374   6.240  10.969 -0.6516  5.3313  1.2052
  112MOL0     H14753   3.209   6.236  10.925  0.8633 -0.5869  3.9541
  112MOL0     H14754   3.257   6.381  10.732 -1.8238 -2.3092  1.6235
  112MOL0     H14755   3.436   6.371  10.761 -0.4927  1.0397  0.1523
  112MOL0     H14756   3.224   6.483  10.938 -0.4740 -0.1025 -1.1809
  112MOL0     H14757   3.405   6.462  10.987  1.4270  2.4234 -0.6928
  112MOL0     H14758   3.307   6.641  10.772 -2.0680  0.6981  0.3974
  112MOL0     H14759   3.465   6.621  10.817 -0.8656 -1.6087  0.5534
  112MOL0     H14760   3.419   6.695  11.047  0.6456 -0.5867 -2.0531
  112MOL0     H14761   3.251   6.735  11.015  2.1285  2.0207  5.2795
  112MOL0     H14762   3.308   6.897  10.838 -1.0835 -0.4871  1.4356
  112MOL0     H14763   3.400   6.922  10.988  0.0786 -0.2322 -0.5516
  112MOL0     H14764   3.535   6.980  10.833 -0.8843  0.1018 -0.5420
  112MOL0     H14765   3.535   6.838  10.739 -0.6871  2.1730 -0.1609
  112MOL0     H14766   3.498   5.896  10.979 -3.8025  1.1109  1.2095
  112MOL0     H14767   3.601   5.686  10.907  1.5142  2.6743 -0.1168
  112MOL0     H14768   3.575   5.338  10.557  1.3329 -0.0543 -1.2957
  112MOL0     H14769   3.678   5.125  10.484 -0.3342  2.7766 -0.9357
  112MOL0     H14770   3.667   4.115   9.324  1.4401 -1.0257  0.5998
  112MOL0     H14771   3.611   4.066   9.088 -0.4181  0.8936  0.1094
  112MOL0     H14772   3.525   3.741   8.809 -2.4824  2.0290  1.1512
  112MOL0     H14773   3.405   3.699   8.585  3.7652 -0.8876 -5.4991
  112MOL0     H14774   3.245   3.719   8.438 -3.5485  0.8402 -3.7998
  112MOL0     H14775   3.382   3.676   8.344  5.4893  4.3640 -1.5640
  112MOL0     H14776   3.165   3.849   8.224  0.8112  0.0563 -1.6154
  112MOL0     H14777   3.294   3.757   8.154  0.2090 -3.5174  0.8497
  112MOL0     H14778   3.037   3.655   8.276  1.0388  2.9825 -0.6089
  112MOL0     H14779   3.178   3.542   8.246  2.6607  1.3879 -1.0918
  112MOL0     H14780   3.005   3.521   8.096  0.2112  0.4038  2.5626
  112MOL0     H14781   3.004   3.695   8.062 -1.1341 -0.6767 -0.2849
  112MOL0     H14782   3.317   3.544   7.810  0.0007 -0.0930  0.4228
  112MOL0     H14783   3.540   4.074   8.449  0.0110 -0.3879 -0.9041
  112MOL0     H14784   3.692   4.106   8.629 -1.8218  2.0841  1.5904
  113MOL0     O14785   2.949   3.891   8.593 -0.4717  0.7599 -0.5205
  113MOL0     C14786   2.932   3.772   8.629 -0.0794 -1.0663  0.4918
  113MOL0     O14787   2.990   3.722   8.742  0.3668  0.0556 -0.5781
  113MOL0     C14788   3.075   3.788   8.820  0.5141 -0.4492 -0.3539
  113MOL0     C14789   3.159   3.892   8.796 -0.0366 -0.1714  0.2877
  113MOL0     C14790   3.237   3.954   8.892  0.9739 -0.0787 -0.4616
  113MOL0     C14791   3.247   3.886   9.016 -0.5242 -0.1136  0.3026
  113MOL0     O14792   3.337   3.939   9.104  0.2594  0.5347 -0.6852
  113MOL0     C14793   3.326   3.907   9.247 -0.2501  0.6094 -0.0039
  113MOL0     C14794   3.255   4.018   9.309  0.1656 -1.8884  0.5200
  113MOL0     C14795   3.206   4.004   9.454  0.0259  1.5391 -0.0213
  113MOL0     C14796   3.125   3.867   9.473  0.2994 -0.2136  0.5484
  113MOL0     C14797   3.004   3.856   9.381  0.6907 -0.6838 -0.4123
  113MOL0     C14798   2.932   3.722   9.410 -0.8400 -0.1479 -0.2563
  113MOL0     C14799   2.805   3.718   9.330  1.3272  0.5383 -0.7151
  113MOL0     C14800   2.709   3.598   9.359  0.6932  0.3115  0.0312
  113MOL0     N14801   2.753   3.471   9.298  0.2123 -0.0838 -0.1271
  113MOL0     C14802   2.699   3.341   9.323 -0.0832 -0.2845 -0.2105
  113MOL0     C14803   2.785   3.256   9.264  1.0862 -0.8059  0.0190
  113MOL0     C14804   2.789   3.101   9.286  0.9775  0.6484  1.2507
  113MOL0     C14805   2.718   3.020   9.170 -0.4846 -0.5281  0.0143
  113MOL0     C14806   2.679   2.883   9.217 -0.4249 -0.0656  0.7940
  113MOL0     C14807   2.643   2.803   9.092 -0.4200 -0.7088  0.2869
  113MOL0     O14808   2.753   2.804   9.000  0.1473  0.7427 -0.3216
  113MOL0     C14809   2.742   2.730   8.887 -0.4011  0.5768 -0.3493
  113MOL0     C14810   2.625   2.660   8.841 -0.6928 -0.1776  0.6011
  113MOL0     C14811   2.631   2.589   8.720  1.4446 -0.3408 -0.3064
  113MOL0     C14812   2.744   2.573   8.643  0.1265 -0.0077  0.7552
  113MOL0     C14813   2.749   2.484   8.518  0.2840  0.3784  0.0288
  113MOL0     O14814   2.640   2.400   8.511 -1.0680 -0.1720  0.0819
  113MOL0     C14815   2.642   2.305   8.414 -0.3956 -0.9883  0.0456
  113MOL0     C14816   2.670   2.172   8.445 -0.6875 -0.9191  0.2764
  113MOL0     C14817   2.665   2.080   8.335  0.5219 -1.0707  0.1791
  113MOL0     C14818   2.646   2.122   8.202 -0.0341 -0.0833 -0.4549
  113MOL0     O14819   2.648   2.035   8.093  0.6083  0.5500 -0.2201
  113MOL0     C14820   2.770   2.041   8.020 -0.3810 -0.0983 -0.1147
  113MOL0     C14821   2.789   1.912   7.935 -0.1576  0.2234 -0.0426
  113MOL0     C14822   2.700   1.926   7.813  0.2578 -0.6014 -0.5022
  113MOL0     C14823   2.734   1.814   7.718 -0.0202  0.2356  0.3376
  113MOL0     C14824   2.652   1.822   7.594  0.1887 -0.0120 -0.0111
  113MOL0     C14825   2.521   1.889   7.594  0.4104  0.3576 -1.3262
  113MOL0     C14826   2.417   1.804   7.673  0.4575  0.5646  0.0971
  113MOL0     C14827   2.314   1.888   7.743  0.4731  0.6801  0.7591
  113MOL0    Cl14828   2.274   1.809   7.889  0.3900  0.3030 -0.2905
  113MOL0     C14829   2.622   2.254   8.186  0.8525 -0.1899 -0.3638
  113MOL0     C14830   2.619   2.346   8.287  0.1970 -0.9504 -0.3340
  113MOL0     O14831   2.841   2.497   8.439 -0.2649 -0.1396  0.7392
  113MOL0     C14832   2.854   2.651   8.675  0.2900  0.4108  0.5901
  113MOL0     C14833   2.855   2.735   8.798  0.7287  0.0383 -0.2648
  113MOL0     N14834   2.874   3.326   9.184 -0.6042  1.6984 -0.4216
  113MOL0     N14835   2.854   3.448   9.209 -0.1766 -0.1850  0.1642
  113MOL0     C14836   3.174   3.767   9.040 -0.1789 -0.7064 -0.3496
  113MOL0     C14837   3.095   3.719   8.939 -0.4256  0.9604  1.0510
  113MOL0     C14838   2.844   3.697   8.537 -1.1590 -0.1375 -0.5177
  113MOL0     C14839   2.774   3.761   8.434  0.0453 -0.3739  0.8520
  113MOL0     C14840   2.722   3.686   8.330  1.1452 -0.4737 -0.2724
  113MOL0     C14841   2.719   3.541   8.342  0.7015  0.2797  0.0289
  113MOL0     O14842   2.674   3.469   8.232  0.7129 -0.7680  0.3744
  113MOL0     C14843   2.658   3.329   8.224  0.6836  0.3342  0.1255
  113MOL0     C14844   2.778   3.250   8.189  0.1285 -0.4887  0.6733
  113MOL0     C14845   2.860   3.300   8.059  0.2348 -0.5863  0.8229
  113MOL0     C14846   2.855   3.188   7.958  0.9669  0.0591 -0.0886
  113MOL0     C14847   2.710   3.181   7.907 -0.4996 -0.6397 -0.2265
  113MOL0     C14848   2.600   3.176   7.859 -0.0131 -0.2761 -0.2761
  113MOL0     C14849   2.777   3.471   8.453 -0.9071 -0.3740  0.2585
  113MOL0     C14850   2.844   3.556   8.550 -0.1280 -0.5659 -0.3652
  113MOL0     H14851   3.148   3.946   8.702 -2.8959  1.5711  1.4936
  113MOL0     H14852   3.312   4.029   8.867  2.7631 -1.6486 -0.0092
  113MOL0     H14853   3.427   3.919   9.287 -0.1077  0.9654 -0.4597
  113MOL0     H14854   3.285   3.809   9.271 -1.5086  0.0399 -3.8972
  113MOL0     H14855   3.174   4.050   9.243  3.5144  1.4139 -2.4542
  113MOL0     H14856   3.327   4.101   9.300 -0.0413 -1.7127  0.4783
  113MOL0     H14857   3.141   4.086   9.484  1.9329  2.4098  1.9484
  113MOL0     H14858   3.292   4.002   9.522  0.5269 -0.5586 -0.6205
  113MOL0     H14859   3.194   3.782   9.467  1.5233  0.8175 -0.8756
  113MOL0     H14860   3.088   3.870   9.576  1.8300  0.3822  1.1047
  113MOL0     H14861   3.037   3.852   9.277 -2.9902  4.0294 -2.1123
  113MOL0     H14862   2.948   3.946   9.409  1.9999 -0.8299  3.1480
  113MOL0     H14863   2.890   3.725   9.511 -2.8671  0.6941 -1.0693
  113MOL0     H14864   2.999   3.636   9.397 -0.0420 -0.0175  2.3710
  113MOL0     H14865   2.754   3.811   9.357 -1.1958 -1.6050  2.5986
  113MOL0     H14866   2.827   3.705   9.223  1.3838  0.6873 -0.7216
  113MOL0     H14867   2.604   3.616   9.335 -0.0383  0.0857  2.7674
  113MOL0     H14868   2.716   3.578   9.466 -0.5367  0.9302  0.2362
  113MOL0     H14869   2.616   3.316   9.388 -0.2777  1.5033  0.2801
  113MOL0     H14870   2.737   3.081   9.380 -1.6460 -0.3090 -0.3055
  113MOL0     H14871   2.896   3.078   9.289  0.9759  0.5372  0.6168
  113MOL0     H14872   2.785   3.022   9.083  1.3580 -0.1856  1.3837
  113MOL0     H14873   2.626   3.071   9.142 -0.7151 -1.4952 -1.1167
  113MOL0     H14874   2.768   2.837   9.263  0.9002  0.0003 -1.5463
  113MOL0     H14875   2.599   2.893   9.290 -0.0028 -0.3344  1.3063
  113MOL0     H14876   2.554   2.843   9.042 -1.5068 -1.4890  1.5226
  113MOL0     H14877   2.628   2.697   9.114  1.4751 -0.8820  0.8723
  113MOL0     H14878   2.531   2.672   8.894 -1.0178  0.4861 -0.1153
  113MOL0     H14879   2.539   2.542   8.687  0.1082  2.9925 -1.8070
  113MOL0     H14880   2.690   2.148   8.549  2.1109  0.8378  0.2356
  113MOL0     H14881   2.686   1.974   8.344  1.3686 -1.1090 -1.8231
  113MOL0     H14882   2.861   2.051   8.080  0.1984 -3.0043 -0.3795
  113MOL0     H14883   2.771   2.115   7.939 -0.5899 -1.2240 -1.1697
  113MOL0     H14884   2.757   1.823   7.990  1.8263  1.4483  3.3981
  113MOL0     H14885   2.890   1.891   7.900  0.7725  2.1934  1.2752
  113MOL0     H14886   2.687   2.028   7.775  0.8843  0.3734  1.7293
  113MOL0     H14887   2.605   1.902   7.862  0.1386 -2.0231 -1.3841
  113MOL0     H14888   2.840   1.799   7.695 -0.3664 -1.7428 -0.1101
  113MOL0     H14889   2.719   1.718   7.767  1.4234  0.0034  0.3778
  113MOL0     H14890   2.635   1.725   7.545 -1.1274  0.2948 -0.2048
  113MOL0     H14891   2.709   1.884   7.524 -1.0308  0.7340 -0.3739
  113MOL0     H14892   2.478   1.920   7.499 -1.2939  1.7154 -0.1974
  113MOL0     H14893   2.525   1.989   7.638  2.6352 -0.2161 -0.0778
  113MOL0     H14894   2.369   1.735   7.603  4.1874 -3.2057  0.8865
  113MOL0     H14895   2.471   1.747   7.749  2.3333  2.5788  0.3971
  113MOL0     H14896   2.230   1.902   7.674  1.6386 -0.4119 -0.9620
  113MOL0     H14897   2.354   1.984   7.777 -0.7248  2.3540 -2.1842
  113MOL0     H14898   2.598   2.289   8.086 -0.5500 -3.0916 -1.1572
  113MOL0     H14899   2.579   2.445   8.266 -1.4057 -1.5000 -0.0290
  113MOL0     H14900   2.945   2.648   8.616  1.3080 -1.5300  2.1131
  113MOL0     H14901   2.921   2.821   8.806 -0.4764  1.1224 -1.3895
  113MOL0     H14902   3.191   3.698   9.122 -2.0245  0.7064  1.3192
  113MOL0     H14903   3.043   3.625   8.954  0.2532  0.7876  2.4099
  113MOL0     H14904   2.778   3.867   8.412 -2.3116 -0.6782 -1.6336
  113MOL0     H14905   2.685   3.732   8.238  1.6559  2.8804  1.0399
  113MOL0     H14906   2.584   3.320   8.144  1.3928 -1.1232 -0.3965
  113MOL0     H14907   2.613   3.279   8.311 -0.6286 -0.6083 -1.0423
  113MOL0     H14908   2.851   3.269   8.268  3.5382 -0.1521 -2.2909
  113MOL0     H14909   2.759   3.142   8.193  2.3209 -0.8778  3.0511
  113MOL0     H14910   2.962   3.310   8.096 -0.7756  0.5207  3.5464
  113MOL0     H14911   2.816   3.393   8.021 -1.7080 -2.8787 -3.2113
  113MOL0     H14912   2.909   3.210   7.866  1.2973  1.4264  0.4169
  113MOL0     H14913   2.889   3.088   7.988  1.3949  0.5556  1.1590
  113MOL0     H14914   2.502   3.162   7.817  0.3714 -1.9581 -0.6899
  113MOL0     H14915   2.786   3.363   8.440 -0.6771 -0.3229 -0.0365
  113MOL0     H14916   2.890   3.518   8.640 -2.3212  1.7947  1.9145
  114MOL0     O14917  10.742   8.908   7.167  0.2893 -0.2283  0.2507
  114MOL0     C14918  10.629   8.864   7.177  0.7055 -0.7039 -0.3672
  114MOL0     O14919  10.557   8.885   7.290 -0.0175  1.3914  0.6993
  114MOL0     C14920  10.609   8.957   7.390  0.0134 -0.1668  0.5423
  114MOL0     C14921  10.550   9.084   7.421  0.4598  0.5494 -0.2271
  114MOL0     C14922  10.603   9.151   7.537  0.5100 -0.3152  0.5274
  114MOL0     C14923  10.717   9.097   7.608  0.3423  0.0181  0.6728
  114MOL0     O14924  10.786   9.185   7.697  0.3435  0.1332  0.5364
  114MOL0     C14925  10.913   9.143   7.744 -0.1357 -0.2420  0.3009
  114MOL0     C14926  11.029   9.182   7.641 -0.3127  0.3222 -0.0438
  114MOL0     C14927  11.146   9.250   7.714 -0.5318 -0.0496  0.2117
  114MOL0     C14928  11.188   9.171   7.839 -1.0118 -0.5041  0.6500
  114MOL0     C14929  11.303   9.238   7.907  0.4601  0.0588  0.4296
  114MOL0     C14930  11.329   9.174   8.047  0.5944 -0.5327  1.5033
  114MOL0     C14931  11.283   9.271   8.144  0.3365  0.3378 -0.5921
  114MOL0     C14932  11.385   9.382   8.167 -0.0893  0.7242  0.2434
  114MOL0     N14933  11.393   9.440   8.299  1.1268 -0.5810 -0.7369
  114MOL0     C14934  11.336   9.560   8.329 -0.1745  0.0436  0.0750
  114MOL0     C14935  11.355   9.572   8.464  0.4620  0.3095 -0.1435
  114MOL0     C14936  11.316   9.697   8.537  0.7100  0.4746 -0.8216
  114MOL0     C14937  11.419   9.801   8.585 -0.0637  0.8569 -0.3265
  114MOL0     C14938  11.502   9.733   8.690 -0.2631  0.0349 -0.1077
  114MOL0     C14939  11.613   9.813   8.755 -0.1190  0.3023  0.1777
  114MOL0     O14940  11.560   9.941   8.811 -0.2669  0.6474  0.4132
  114MOL0     C14941  11.499   9.934   8.929 -0.3866 -0.5978 -0.3314
  114MOL0     C14942  11.437  10.050   8.965  1.4519 -0.0773 -0.5155
  114MOL0     C14943  11.373  10.053   9.093 -0.3091 -1.0147  0.1417
  114MOL0     C14944  11.352   9.936   9.176  0.6793  1.4888 -0.1288
  114MOL0     C14945  11.285   9.942   9.314  0.2570  0.4306  0.1941
  114MOL0     O14946  11.242   9.831   9.366 -0.2826  0.1931  0.1176
  114MOL0     C14947  11.128   9.821   9.443  0.8108  0.4751  0.2384
  114MOL0     C14948  11.048   9.707   9.420 -0.3510 -0.5323  0.4091
  114MOL0     C14949  10.931   9.676   9.491  1.0491  0.6109  0.1642
  114MOL0     C14950  10.897   9.760   9.601  0.0783 -0.0812  0.7933
  114MOL0     O14951  10.788   9.732   9.685 -0.3748  0.6397 -0.3483
  114MOL0     C14952  10.774   9.592   9.722  0.6632 -0.4180 -0.1780
  114MOL0     C14953  10.704   9.584   9.859  0.1553  0.5541 -0.0586
  114MOL0     C14954  10.750   9.681   9.962  0.1106  0.6480  1.1610
  114MOL0     C14955  10.666   9.663  10.088  0.1749 -0.0512 -0.4628
  114MOL0     C14956  10.706   9.771  10.192  0.6527 -0.0022 -0.5780
  114MOL0     C14957  10.662   9.768  10.337 -0.2025  0.7802  0.6191
  114MOL0     C14958  10.509   9.757  10.371  0.1054  0.2292 -0.1052
  114MOL0     C14959  10.461   9.606  10.378  0.0552 -0.4028  0.6463
  114MOL0    Cl14960  10.284   9.582  10.393 -0.1526  0.3208  0.1897
  114MOL0     C14961  10.969   9.878   9.622 -0.7013 -0.7323  0.0322
  114MOL0     C14962  11.082   9.910   9.547 -0.3256 -0.0979  0.1184
  114MOL0     O14963  11.267  10.052   9.352  1.3036 -0.8044 -0.0705
  114MOL0     C14964  11.399   9.819   9.125 -0.0828  0.6514  0.2748
  114MOL0     C14965  11.476   9.818   9.008 -0.4170 -0.1695  0.3511
  114MOL0     N14966  11.434   9.465   8.506 -0.6055  0.3667 -0.5130
  114MOL0     N14967  11.445   9.383   8.409 -0.4273  0.1875  0.1513
  114MOL0     C14968  10.762   8.969   7.574 -0.2309 -0.4507 -0.5619
  114MOL0     C14969  10.709   8.896   7.471  0.4948  0.1484 -0.0546
  114MOL0     C14970  10.556   8.802   7.058  0.9083 -0.9791  0.6411
  114MOL0     C14971  10.432   8.745   7.074 -0.6074  0.2436 -0.9157
  114MOL0     C14972  10.357   8.693   6.964 -0.5857 -1.1844 -0.5337
  114MOL0     C14973  10.413   8.690   6.838  0.5953  0.1031 -0.1246
  114MOL0     O14974  10.340   8.640   6.726 -0.6673 -0.2057 -0.3514
  114MOL0     C14975  10.415   8.529   6.680  0.6253  0.0035 -0.2079
  114MOL0     C14976  10.417   8.417   6.780 -0.4007  0.0006  1.2815
  114MOL0     C14977  10.275   8.376   6.833 -1.2250  0.0939  0.7497
  114MOL0     C14978  10.230   8.242   6.765  0.5028 -0.2128  0.9414
  114MOL0     C14979  10.194   8.255   6.628  0.0295  1.1268  0.5646
  114MOL0     C14980  10.161   8.249   6.509 -0.0862  0.4731 -0.0183
  114MOL0     C14981  10.543   8.737   6.823 -0.1009 -1.0916  0.6042
  114MOL0     C14982  10.614   8.794   6.930 -0.0346  0.7514  0.4646
  114MOL0     H14983  10.477   9.123   7.352 -0.4282  0.4370  0.6292
  114MOL0     H14984  10.557   9.246   7.560 -0.8088 -0.6959 -0.3745
  114MOL0     H14985  10.914   9.039   7.779 -0.1854 -0.2891  0.1598
  114MOL0     H14986  10.930   9.207   7.831  0.7956  2.9314 -2.0290
  114MOL0     H14987  10.991   9.240   7.557 -0.6239  0.1300 -0.0384
  114MOL0     H14988  11.073   9.096   7.591  2.5193 -1.8434  5.3557
  114MOL0     H14989  11.134   9.355   7.742 -0.7781  0.4769 -1.6793
  114MOL0     H14990  11.226   9.246   7.639 -1.4048 -0.9596 -0.7143
  114MOL0     H14991  11.106   9.153   7.910 -2.1970  1.9685  0.0456
  114MOL0     H14992  11.212   9.076   7.791 -1.8277  0.0841 -1.0123
  114MOL0     H14993  11.278   9.345   7.909 -2.7557 -0.4423 -2.4577
  114MOL0     H14994  11.393   9.227   7.847  1.4430 -0.4710  1.9305
  114MOL0     H14995  11.434   9.146   8.058  1.2983  0.7998 -0.8823
  114MOL0     H14996  11.266   9.085   8.033 -4.7284  3.3013 -4.5532
  114MOL0     H14997  11.188   9.321   8.122 -0.9726 -3.0104 -3.5783
  114MOL0     H14998  11.265   9.219   8.239  0.7423  1.3088  0.0426
  114MOL0     H14999  11.362   9.459   8.093  0.5585 -0.2516 -1.0257
  114MOL0     H15000  11.487   9.348   8.145 -0.0031  0.2540  1.2986
  114MOL0     H15001  11.305   9.633   8.254  1.8861 -1.6680 -2.6398
  114MOL0     H15002  11.254   9.670   8.623  1.0926 -1.9659 -1.2488
  114MOL0     H15003  11.245   9.747   8.469 -1.0051 -0.3122  0.3153
  114MOL0     H15004  11.366   9.888   8.626 -0.5147  0.5538 -0.2618
  114MOL0     H15005  11.485   9.822   8.500  0.9218  1.6575  0.6116
  114MOL0     H15006  11.434   9.694   8.767 -1.9243  3.0150  0.0856
  114MOL0     H15007  11.546   9.640   8.651 -3.3635 -1.6456  0.0781
  114MOL0     H15008  11.683   9.837   8.674 -2.7442  0.1794 -2.2630
  114MOL0     H15009  11.676   9.756   8.824  1.2296  0.3675 -0.9474
  114MOL0     H15010  11.409  10.137   8.906  1.8953  2.8435  3.1887
  114MOL0     H15011  11.330  10.147   9.125  3.5808  0.8910  0.3755
  114MOL0     H15012  11.072   9.637   9.341 -1.0355 -0.7040  0.3404
  114MOL0     H15013  10.875   9.585   9.473  0.4751  1.4640 -2.9449
  114MOL0     H15014  10.863   9.530   9.733  0.2662 -1.1135 -0.8359
  114MOL0     H15015  10.722   9.544   9.639  3.7656 -0.5893 -2.1749
  114MOL0     H15016  10.716   9.481   9.896 -2.1968  0.0173 -0.6234
  114MOL0     H15017  10.596   9.584   9.845  0.1570 -0.5374 -0.1950
  114MOL0     H15018  10.734   9.779   9.915 -4.8877 -0.8858 -1.0721
  114MOL0     H15019  10.854   9.669   9.991 -0.1601 -2.8417  1.0253
  114MOL0     H15020  10.558   9.669  10.072 -0.2299 -3.4488  0.1290
  114MOL0     H15021  10.675   9.564  10.135 -0.4853  1.1254  2.2871
  114MOL0     H15022  10.661   9.860  10.148  2.1242  1.2809  0.4454
  114MOL0     H15023  10.813   9.791  10.192  0.7272 -0.2355  1.3771
  114MOL0     H15024  10.691   9.864  10.379  0.0657 -0.0943  2.5435
  114MOL0     H15025  10.716   9.687  10.386 -1.8699  1.4247  3.8144
  114MOL0     H15026  10.489   9.820  10.458 -0.6368  1.0301 -0.8259
  114MOL0     H15027  10.454   9.798  10.286 -0.3475 -2.4455 -1.2029
  114MOL0     H15028  10.500   9.552  10.465 -1.0793 -2.6442 -0.1379
  114MOL0     H15029  10.485   9.560  10.282 -1.0240  1.4484 -0.5787
  114MOL0     H15030  10.942   9.939   9.707  0.0464  0.3737 -0.5073
  114MOL0     H15031  11.139  10.001   9.563 -0.1036 -0.0125 -1.0861
  114MOL0     H15032  11.382   9.722   9.170  0.0379 -1.9666 -4.6396
  114MOL0     H15033  11.525   9.725   8.980  0.9453  0.4678  0.5444
  114MOL0     H15034  10.836   8.927   7.642  2.1076  4.1810  0.1935
  114MOL0     H15035  10.735   8.792   7.454  1.3566  0.0139  1.8229
  114MOL0     H15036  10.387   8.749   7.173  0.8464 -1.9504 -0.0753
  114MOL0     H15037  10.256   8.654   6.970 -0.8747 -0.5451 -1.0851
  114MOL0     H15038  10.515   8.560   6.647  1.7401 -1.8247  1.2501
  114MOL0     H15039  10.358   8.496   6.594 -0.6787  2.5532 -0.4249
  114MOL0     H15040  10.467   8.339   6.723 -0.5042  1.3630 -0.7591
  114MOL0     H15041  10.473   8.449   6.869 -0.9994  2.1589  0.9326
  114MOL0     H15042  10.201   8.455   6.820  2.3207  3.6881  0.4398
  114MOL0     H15043  10.282   8.357   6.940 -0.5037 -0.6468  0.5856
  114MOL0     H15044  10.320   8.181   6.761  1.6036  1.1164  3.2639
  114MOL0     H15045  10.152   8.183   6.815  0.7293 -2.0524 -0.7722
  114MOL0     H15046  10.140   8.258   6.404 -1.2214  0.2171  0.1781
  114MOL0     H15047  10.596   8.725   6.729  2.3641 -0.4609  1.8378
  114MOL0     H15048  10.710   8.842   6.917  1.2418 -2.2522 -2.3740
  115MOL0     O15049  11.351   9.131   9.266 -0.2744  0.6898  0.2334
  115MOL0     C15050  11.370   9.247   9.285  1.4952 -0.0276  0.1359
  115MOL0     O15051  11.280   9.333   9.321 -0.4884 -0.1372 -0.1114
  115MOL0     C15052  11.183   9.292   9.397 -0.0600 -0.0077 -0.0476
  115MOL0     C15053  11.061   9.250   9.339  0.1438 -0.0826 -0.3926
  115MOL0     C15054  10.968   9.204   9.423 -0.7920  1.0643 -0.1711
  115MOL0     C15055  10.980   9.197   9.562 -0.1328 -0.1078  0.2680
  115MOL0     O15056  10.879   9.157   9.647  0.6404 -0.0489 -0.8719
  115MOL0     C15057  10.749   9.134   9.595  0.3999  0.5912 -0.3498
  115MOL0     C15058  10.654   9.088   9.696 -0.8121  0.1323 -0.3346
  115MOL0     C15059  10.533   9.032   9.618 -0.4587  0.7641  0.0934
  115MOL0     C15060  10.416   9.015   9.718 -0.1933 -0.5216 -0.4336
  115MOL0     C15061  10.290   8.979   9.639 -0.2288  0.3679  0.0304
  115MOL0     C15062  10.306   8.834   9.590 -0.3077  0.3080 -0.0399
  115MOL0     C15063  10.187   8.779   9.519  0.1307 -0.0778 -0.7661
  115MOL0     C15064  10.063   8.757   9.613 -1.2771 -0.0155 -0.1403
  115MOL0     N15065   9.943   8.717   9.529  0.7658 -0.3145 -0.3998
  115MOL0     C15066   9.920   8.607   9.441  0.4695  0.2542  0.4454
  115MOL0     C15067   9.791   8.586   9.425  0.8601 -0.8154  0.2902
  115MOL0     C15068   9.723   8.486   9.332  0.2762  1.0325 -0.7934
  115MOL0     C15069   9.585   8.414   9.389 -1.2615  0.1402 -0.4616
  115MOL0     C15070   9.512   8.324   9.286  0.0185  0.1112  0.0916
  115MOL0     C15071   9.399   8.235   9.347  0.7930 -0.3171  0.2073
  115MOL0     O15072   9.354   8.130   9.265 -0.1706 -0.3840 -0.1124
  115MOL0     C15073   9.275   8.157   9.158  0.8359 -1.1487 -0.3913
  115MOL0     C15074   9.246   8.044   9.082 -0.4129 -0.1334  0.2759
  115MOL0     C15075   9.171   8.053   8.971  0.2177  1.4305 -0.1866
  115MOL0     C15076   9.115   8.180   8.932 -0.2104 -0.7798 -0.3325
  115MOL0     C15077   9.027   8.184   8.815  1.3623  0.7172  0.5473
  115MOL0     O15078   9.027   8.071   8.737  0.7930  0.1124 -1.1547
  115MOL0     C15079   8.952   8.050   8.623 -0.7735  0.2870  0.3718
  115MOL0     C15080   8.997   7.950   8.535  0.3751  0.7872  0.0758
  115MOL0     C15081   8.954   7.945   8.399  0.2243  0.2627  0.0518
  115MOL0     C15082   8.874   8.046   8.352 -0.1171  0.8588  0.1852
  115MOL0     O15083   8.836   8.063   8.217  0.1869 -0.5356 -0.5121
  115MOL0     C15084   8.906   7.988   8.117  0.6549 -0.2847  0.9660
  115MOL0     C15085   8.868   8.029   7.972  0.2203  0.1928 -0.1009
  115MOL0     C15086   8.954   7.951   7.875 -0.0086 -0.6911  0.2606
  115MOL0     C15087   8.927   7.994   7.720  0.2946  0.0554  0.8427
  115MOL0     C15088   8.948   7.886   7.606  0.6986  0.1581  0.2786
  115MOL0     C15089   8.852   7.758   7.601  1.1685  0.8359 -0.2628
  115MOL0     C15090   8.728   7.770   7.509  0.2384  0.9028  0.1038
  115MOL0     C15091   8.612   7.859   7.551  0.1611  0.0347  0.6909
  115MOL0    Cl15092   8.438   7.815   7.513  0.1291  0.2717 -0.1072
  115MOL0     C15093   8.814   8.133   8.436  0.8126  0.2481  0.4379
  115MOL0     C15094   8.862   8.137   8.570 -0.3105 -0.6116 -0.8400
  115MOL0     O15095   8.980   8.294   8.783 -0.8588 -0.4757 -0.6140
  115MOL0     C15096   9.149   8.303   9.000 -0.4673 -0.2227  0.0937
  115MOL0     C15097   9.227   8.292   9.121  0.3925  0.5169  0.2616
  115MOL0     N15098   9.728   8.683   9.489 -0.5105  0.0230  0.7476
  115MOL0     N15099   9.813   8.763   9.548  0.1918  0.4680 -0.2819
  115MOL0     C15100  11.097   9.247   9.618 -0.3754  0.2943  0.2395
  115MOL0     C15101  11.208   9.297   9.535  0.2727 -0.2653  0.2742
  115MOL0     C15102  11.503   9.306   9.253  0.5468  0.1858  0.1323
  115MOL0     C15103  11.530   9.444   9.248  0.1423 -1.1496  0.4523
  115MOL0     C15104  11.657   9.502   9.227  0.5423  0.1750  0.3827
  115MOL0     C15105  11.769   9.412   9.220  0.3896 -0.7045  0.4080
  115MOL0     O15106  11.899   9.454   9.208 -0.6695 -0.3007  0.4554
  115MOL0     C15107  11.946   9.579   9.265  0.0613 -0.8747 -0.5388
  115MOL0     C15108  12.092   9.623   9.222  0.6875  0.2667 -0.2214
  115MOL0     C15109  12.196   9.569   9.318 -0.0627  1.0108 -0.1443
  115MOL0     C15110  12.194   9.417   9.295 -0.0703 -0.7739 -0.5432
  115MOL0     C15111  12.310   9.326   9.322  0.7663 -0.0554 -0.1320
  115MOL0     C15112  12.395   9.255   9.361 -1.3056 -0.1294  0.2329
  115MOL0     C15113  11.748   9.279   9.213  0.1628  0.7003 -0.9504
  115MOL0     C15114  11.616   9.220   9.234 -0.0102  0.1546  0.2098
  115MOL0     H15115  11.044   9.249   9.232 -1.7263 -0.7773 -0.1250
  115MOL0     H15116  10.884   9.161   9.370 -0.3053 -0.5515  0.2915
  115MOL0     H15117  10.764   9.061   9.515  1.0839 -0.2975  0.5750
  115MOL0     H15118  10.707   9.224   9.550 -0.7950  1.5787  2.5125
  115MOL0     H15119  10.620   9.165   9.765 -2.2594 -2.5861  2.1653
  115MOL0     H15120  10.701   9.014   9.761 -2.4216 -0.2013  0.4898
  115MOL0     H15121  10.564   8.937   9.574 -3.0360 -1.3997  2.5245
  115MOL0     H15122  10.495   9.112   9.554 -5.7735  1.4637  3.4604
  115MOL0     H15123  10.435   8.943   9.799 -0.5585 -1.2805 -1.0039
  115MOL0     H15124  10.394   9.113   9.761  2.2348 -0.0957 -0.0013
  115MOL0     H15125  10.263   9.064   9.575  0.2772  2.7956  2.8266
  115MOL0     H15126  10.205   8.965   9.707 -2.0365 -3.7370 -2.6729
  115MOL0     H15127  10.335   8.773   9.676  1.0149  0.5299 -0.3124
  115MOL0     H15128  10.390   8.821   9.522  0.5934  3.6848  0.2491
  115MOL0     H15129  10.157   8.848   9.440 -3.2466  0.1660  0.5563
  115MOL0     H15130  10.218   8.693   9.459  0.6992  2.4623 -4.4318
  115MOL0     H15131  10.056   8.851   9.668 -0.4670  0.0296 -0.0994
  115MOL0     H15132  10.085   8.680   9.688  2.7314  2.0864  1.1217
  115MOL0     H15133   9.992   8.531   9.411  0.0337  1.0819 -3.1152
  115MOL0     H15134   9.804   8.416   9.310 -0.5821  0.4396 -2.2215
  115MOL0     H15135   9.706   8.538   9.237 -0.8442  0.3047 -1.0196
  115MOL0     H15136   9.523   8.498   9.422  1.7027  2.3492 -0.0820
  115MOL0     H15137   9.604   8.354   9.479  0.0552 -2.9597 -2.6199
  115MOL0     H15138   9.474   8.388   9.206 -0.6698  2.1711  1.9570
  115MOL0     H15139   9.591   8.262   9.243 -2.0182 -2.0477 -0.7872
  115MOL0     H15140   9.304   8.287   9.361  0.0387 -1.8350  1.0300
  115MOL0     H15141   9.433   8.188   9.440 -2.1227 -2.6650  0.2304
  115MOL0     H15142   9.307   7.956   9.101  0.6826  1.1110  3.2292
  115MOL0     H15143   9.159   7.967   8.905  0.3601  2.1374 -1.1653
  115MOL0     H15144   9.064   7.871   8.568 -0.7125 -1.9692 -3.6424
  115MOL0     H15145   9.001   7.874   8.331  0.9604 -0.7432  1.5506
  115MOL0     H15146   8.897   7.879   8.132  1.0867 -0.6899 -1.4285
  115MOL0     H15147   9.013   8.009   8.114  0.5468  0.3855 -3.2512
  115MOL0     H15148   8.899   8.134   7.961  2.5994 -0.5170 -0.8392
  115MOL0     H15149   8.761   8.024   7.951 -0.2072 -0.2261  1.9939
  115MOL0     H15150   8.923   7.847   7.889 -0.2789 -1.0331 -2.3102
  115MOL0     H15151   9.060   7.959   7.897  0.1431 -0.8539 -0.3884
  115MOL0     H15152   8.822   8.021   7.706  0.6604  0.3048 -1.9187
  115MOL0     H15153   8.991   8.079   7.695 -1.0379  1.5229  2.1713
  115MOL0     H15154   9.053   7.855   7.613 -0.0871 -2.9288  0.0126
  115MOL0     H15155   8.939   7.940   7.511  2.6919  1.8619  0.9839
  115MOL0     H15156   8.808   7.737   7.699 -2.5169  3.8359 -1.0423
  115MOL0     H15157   8.901   7.666   7.568  0.0529 -1.6262  4.1951
  115MOL0     H15158   8.755   7.801   7.408  3.9306  0.6768  0.8597
  115MOL0     H15159   8.698   7.665   7.503  2.0852  0.3210  0.3574
  115MOL0     H15160   8.643   7.955   7.509  2.9113  0.5663  3.5612
  115MOL0     H15161   8.621   7.868   7.660 -0.1430 -3.7410  1.1712
  115MOL0     H15162   8.734   8.198   8.403  0.9893  0.9243  1.3099
  115MOL0     H15163   8.830   8.219   8.633  2.5373 -1.2237  1.6243
  115MOL0     H15164   9.121   8.400   8.962 -0.6613 -0.0279  0.7111
  115MOL0     H15165   9.244   8.388   9.169 -1.9063  1.2635 -0.3214
  115MOL0     H15166  11.097   9.240   9.726 -0.0339  3.2689  0.5219
  115MOL0     H15167  11.297   9.335   9.583  0.5049 -2.0468  1.3750
  115MOL0     H15168  11.447   9.513   9.257  1.3372  0.4641 -0.4429
  115MOL0     H15169  11.672   9.609   9.234  4.3068 -0.3295  3.0191
  115MOL0     H15170  11.929   9.582   9.373 -0.8699  0.6043 -0.6885
  115MOL0     H15171  11.892   9.668   9.230  2.8600  1.3525  0.3557
  115MOL0     H15172  12.112   9.594   9.119  1.4379  1.1890 -0.3480
  115MOL0     H15173  12.096   9.731   9.238  0.4352  0.0707  1.3538
  115MOL0     H15174  12.157   9.595   9.417 -2.2234 -1.8367 -0.1387
  115MOL0     H15175  12.297   9.612   9.316 -0.3813  1.8063  0.2803
  115MOL0     H15176  12.115   9.379   9.361 -0.8286 -0.3786 -1.2138
  115MOL0     H15177  12.170   9.391   9.192 -1.6469  2.2050 -1.0467
  115MOL0     H15178  12.478   9.197   9.394 -1.0465  1.4306  2.5256
  115MOL0     H15179  11.836   9.216   9.209  0.2728  0.8394 -0.7126
  115MOL0     H15180  11.607   9.112   9.225  1.6055  0.1517 -2.4989
  116MOL0     O15181   3.132   8.914   4.801 -0.2336 -0.3777 -1.2415
  116MOL0     C15182   3.054   9.006   4.830 -0.0504 -0.2973  0.2120
  116MOL0     O15183   2.927   9.018   4.791  0.0676  0.5896 -0.4839
  116MOL0     C15184   2.851   8.912   4.749 -0.8114 -0.1174 -0.5235
  116MOL0     C15185   2.897   8.806   4.663  1.0125  0.7056 -0.7026
  116MOL0     C15186   2.811   8.695   4.638  0.6006 -0.3720  0.8045
  116MOL0     C15187   2.680   8.698   4.680 -0.5292  0.5524 -0.3518
  116MOL0     O15188   2.611   8.578   4.668  0.6838 -0.4886 -0.2201
  116MOL0     C15189   2.472   8.590   4.654  0.1773  0.0563  0.4458
  116MOL0     C15190   2.434   8.441   4.635  0.1023 -0.1863 -1.0540
  116MOL0     C15191   2.286   8.401   4.651 -0.2776  0.2714  0.4831
  116MOL0     C15192   2.216   8.445   4.781  0.3352 -0.2829 -0.2409
  116MOL0     C15193   2.063   8.400   4.802 -0.3534 -0.4919 -0.0235
  116MOL0     C15194   2.018   8.257   4.787  0.1585 -0.0464  1.1137
  116MOL0     C15195   2.063   8.178   4.912 -0.2468 -0.0390  1.4952
  116MOL0     C15196   2.060   8.023   4.894  0.0062  0.0414  0.0274
  116MOL0     N15197   2.022   7.971   4.755  0.3700 -0.4250 -0.5093
  116MOL0     C15198   2.117   7.948   4.655 -0.3957  0.3180 -1.1256
  116MOL0     C15199   2.043   7.895   4.562  0.3203 -0.0199 -0.1997
  116MOL0     C15200   2.088   7.833   4.434 -0.2188  0.7707  0.8982
  116MOL0     C15201   2.005   7.855   4.298  0.0745  0.8800 -0.5542
  116MOL0     C15202   2.095   7.806   4.190  0.0549 -0.7036  0.6362
  116MOL0     C15203   2.029   7.809   4.050  0.0247  0.0305  0.2286
  116MOL0     O15204   2.010   7.934   3.990  0.0258 -0.4429 -0.4310
  116MOL0     C15205   1.931   7.935   3.877 -0.4269  0.8528 -0.8837
  116MOL0     C15206   1.869   8.052   3.856  0.6610  0.0623  0.4039
  116MOL0     C15207   1.775   8.057   3.745  0.6740  0.0806  0.5105
  116MOL0     C15208   1.739   7.945   3.660 -0.0893  0.2266 -0.1795
  116MOL0     C15209   1.632   7.960   3.551  0.3384  0.1969 -0.0059
  116MOL0     O15210   1.547   8.071   3.547 -0.8012 -0.4552  0.3980
  116MOL0     C15211   1.428   8.061   3.482 -0.3532  0.0843 -0.7439
  116MOL0     C15212   1.339   7.956   3.490 -0.4470 -0.9230  0.1952
  116MOL0     C15213   1.221   7.947   3.409  0.3148  1.0530 -0.3688
  116MOL0     C15214   1.177   8.061   3.340 -0.3307  0.2420  0.3868
  116MOL0     O15215   1.058   8.056   3.272 -0.0687  0.2246 -0.5214
  116MOL0     C15216   0.956   8.127   3.336 -0.4991  0.2793 -0.9942
  116MOL0     C15217   0.831   8.138   3.252  0.3363 -0.5831  0.3101
  116MOL0     C15218   0.864   8.252   3.161 -0.6774 -0.2249  0.2423
  116MOL0     C15219   0.737   8.314   3.093 -1.1346  0.0402 -0.3668
  116MOL0     C15220   0.780   8.426   2.998 -0.4639 -0.2890  0.2904
  116MOL0     C15221   0.878   8.375   2.893  0.4131 -0.3262  0.5361
  116MOL0     C15222   0.902   8.476   2.782 -0.9621 -0.4172 -0.2408
  116MOL0     C15223   0.978   8.596   2.847 -0.2832  0.9068  0.2241
  116MOL0    Cl15224   1.030   8.683   2.697 -0.4190  0.3288 -0.1843
  116MOL0     C15225   1.269   8.169   3.335  0.2361  0.8911 -0.1715
  116MOL0     C15226   1.392   8.173   3.404 -0.5096 -0.4591  0.6776
  116MOL0     O15227   1.616   7.862   3.476  0.2427 -0.3106  0.1760
  116MOL0     C15228   1.788   7.822   3.703 -0.6205  0.1725 -0.9052
  116MOL0     C15229   1.887   7.816   3.808  0.4149  0.0973  0.5539
  116MOL0     N15230   1.912   7.903   4.592  1.1014  0.4999  0.2042
  116MOL0     N15231   1.898   7.943   4.712 -0.3477 -0.5408 -0.2555
  116MOL0     C15232   2.629   8.816   4.744  0.6185 -0.7895 -0.2223
  116MOL0     C15233   2.716   8.915   4.791 -0.3857  0.4112 -1.3155
  116MOL0     C15234   3.107   9.098   4.930 -0.4310  0.4261 -0.0720
  116MOL0     C15235   3.019   9.161   5.020  0.3459 -0.8253  0.6916
  116MOL0     C15236   3.085   9.236   5.122 -0.7224 -0.2222  0.9692
  116MOL0     C15237   3.218   9.272   5.118  0.4978  0.1061 -0.0783
  116MOL0     O15238   3.259   9.346   5.226 -0.2311 -0.2316  0.4976
  116MOL0     C15239   3.371   9.290   5.307  0.8035  0.5591 -0.5786
  116MOL0     C15240   3.328   9.165   5.394 -0.7028 -0.4668 -0.4567
  116MOL0     C15241   3.418   9.169   5.526  0.2524  0.0938 -0.3300
  116MOL0     C15242   3.562   9.143   5.491 -0.5878 -0.1229  0.3141
  116MOL0     C15243   3.648   9.221   5.583 -0.1382 -0.2483 -0.1844
  116MOL0     C15244   3.691   9.292   5.674 -0.3642  1.5359 -0.3812
  116MOL0     C15245   3.299   9.218   5.022 -0.4564 -0.1448 -0.0969
  116MOL0     C15246   3.253   9.131   4.934  0.9767  0.2193 -1.5806
  116MOL0     H15247   2.991   8.803   4.608  0.9845  1.3221 -0.7940
  116MOL0     H15248   2.845   8.617   4.571 -1.5516  1.2614 -2.4415
  116MOL0     H15249   2.446   8.651   4.567 -1.2502 -2.7846 -1.2699
  116MOL0     H15250   2.429   8.630   4.746 -0.0540 -0.8591  0.7484
  116MOL0     H15251   2.478   8.383   4.717  3.3411  1.1034 -1.7007
  116MOL0     H15252   2.474   8.408   4.539  0.1566 -1.6397 -0.5570
  116MOL0     H15253   2.294   8.293   4.663  2.7868  0.0919 -1.9727
  116MOL0     H15254   2.223   8.430   4.566 -1.6593 -1.5711  0.8116
  116MOL0     H15255   2.279   8.406   4.861  1.0181  0.5354 -0.3664
  116MOL0     H15256   2.218   8.555   4.787  4.2606 -0.2801  1.2627
  116MOL0     H15257   1.992   8.465   4.749  0.3517  0.0220 -0.3636
  116MOL0     H15258   2.036   8.433   4.903  3.5954  0.7889  0.7994
  116MOL0     H15259   2.055   8.210   4.695  0.0484 -1.6944  1.8783
  116MOL0     H15260   1.909   8.267   4.785 -0.0640 -2.0208  1.8540
  116MOL0     H15261   2.163   8.206   4.946  0.2014  1.3161 -0.7404
  116MOL0     H15262   1.992   8.207   4.989 -1.8894  1.7936 -0.5714
  116MOL0     H15263   1.986   7.981   4.962  0.0986 -1.1094 -0.5481
  116MOL0     H15264   2.158   7.982   4.922 -1.5267 -2.6032  1.9813
  116MOL0     H15265   2.224   7.945   4.672 -0.8360  0.4548  2.3160
  116MOL0     H15266   2.084   7.726   4.457 -0.7656  0.6086  0.0968
  116MOL0     H15267   2.189   7.872   4.423 -0.4643  1.1768 -0.0854
  116MOL0     H15268   1.995   7.960   4.272  2.0080  0.8072 -1.7813
  116MOL0     H15269   1.908   7.804   4.302  0.2006  0.6933  2.3711
  116MOL0     H15270   2.185   7.868   4.178 -0.5772  0.6118  2.3044
  116MOL0     H15271   2.118   7.701   4.213 -1.3799 -1.3906 -0.8486
  116MOL0     H15272   1.941   7.744   4.050  0.3415 -0.4418 -1.3668
  116MOL0     H15273   2.096   7.751   3.986 -1.8622 -0.0012 -1.8233
  116MOL0     H15274   1.881   8.140   3.919  2.0385 -1.8674  3.0189
  116MOL0     H15275   1.722   8.151   3.729 -0.4544 -0.0170  3.1297
  116MOL0     H15276   1.355   7.871   3.556  1.7135 -2.5617 -2.2386
  116MOL0     H15277   1.165   7.854   3.413 -1.1265  1.7437 -2.7656
  116MOL0     H15278   0.998   8.224   3.366  0.8017 -0.1246 -1.4241
  116MOL0     H15279   0.928   8.071   3.426  0.5836 -3.7137 -2.9253
  116MOL0     H15280   0.739   8.163   3.306  0.3453  0.8823 -0.3044
  116MOL0     H15281   0.803   8.050   3.195 -2.7845  2.6700 -3.8056
  116MOL0     H15282   0.938   8.215   3.089 -1.0801 -0.0839 -0.2441
  116MOL0     H15283   0.920   8.332   3.212  1.3839 -2.0868  1.0925
  116MOL0     H15284   0.680   8.246   3.029  0.7463  1.5013 -3.9138
  116MOL0     H15285   0.678   8.355   3.176  1.0040  3.3384 -0.2697
  116MOL0     H15286   0.830   8.506   3.053  1.9590 -1.5153 -0.0006
  116MOL0     H15287   0.685   8.456   2.953 -0.2624 -1.9278 -1.3535
  116MOL0     H15288   0.828   8.286   2.853  0.1527 -0.0014  0.1279
  116MOL0     H15289   0.971   8.353   2.947  1.2393 -2.1337 -1.4928
  116MOL0     H15290   0.973   8.424   2.716  0.7890 -0.5594  1.6415
  116MOL0     H15291   0.808   8.510   2.738 -0.9055  0.5282  0.3404
  116MOL0     H15292   1.063   8.556   2.903 -2.2091  0.6481  3.2220
  116MOL0     H15293   0.910   8.649   2.915  0.6304  2.1402  0.2109
  116MOL0     H15294   1.248   8.259   3.278 -1.3383 -0.4225 -1.7784
  116MOL0     H15295   1.454   8.261   3.399 -0.0381 -0.8345 -0.2431
  116MOL0     H15296   1.757   7.729   3.657  1.3716 -1.1902  0.3166
  116MOL0     H15297   1.912   7.715   3.838 -1.6535 -1.3559 -2.1685
  116MOL0     H15298   2.526   8.826   4.778  2.0509 -1.6828  5.2151
  116MOL0     H15299   2.691   9.009   4.841  1.8543  0.2923  0.2096
  116MOL0     H15300   2.914   9.135   5.034 -0.9022  1.2963 -3.3536
  116MOL0     H15301   3.027   9.283   5.201 -1.0536  0.9027  0.0756
  116MOL0     H15302   3.407   9.374   5.367 -0.3532  1.2588 -0.8147
  116MOL0     H15303   3.458   9.268   5.245 -1.0280 -2.3742 -2.3538
  116MOL0     H15304   3.230   9.188   5.437  0.2221 -0.9584  2.1390
  116MOL0     H15305   3.338   9.068   5.344 -3.6879 -0.7890 -0.6234
  116MOL0     H15306   3.379   9.101   5.601 -0.0793 -0.1666 -0.7334
  116MOL0     H15307   3.401   9.263   5.580 -0.0600 -0.4274  0.4770
  116MOL0     H15308   3.572   9.035   5.502 -2.0533 -0.2030  1.0469
  116MOL0     H15309   3.579   9.162   5.384 -1.9693 -1.9309 -0.2697
  116MOL0     H15310   3.734   9.361   5.744  0.3401 -1.3259  2.2351
  116MOL0     H15311   3.404   9.235   5.004  1.0676 -4.2875  3.2446
  116MOL0     H15312   3.319   9.077   4.867  1.0010  0.1734 -1.5202
  117MOL0     O15313   5.310   9.088  10.316 -0.0847 -0.3024 -0.3539
  117MOL0     C15314   5.189   9.099  10.301 -0.1508 -0.2828 -0.9451
  117MOL0     O15315   5.090   8.999  10.308 -0.7117  0.5142  0.1831
  117MOL0     C15316   5.105   8.861  10.332 -0.3873  0.0921 -0.3670
  117MOL0     C15317   5.232   8.794  10.338 -0.5438 -0.0063 -0.0252
  117MOL0     C15318   5.234   8.654  10.361  1.1053  0.2786  0.1909
  117MOL0     C15319   5.115   8.582  10.365  1.1990 -0.5608 -0.6532
  117MOL0     O15320   5.130   8.445  10.370  0.0970 -0.4683  0.1092
  117MOL0     C15321   5.022   8.360  10.314  1.2224 -0.2226  0.5273
  117MOL0     C15322   5.098   8.227  10.285  0.9013  0.9311  0.3333
  117MOL0     C15323   5.166   8.165  10.414  0.7458  0.5538  0.8033
  117MOL0     C15324   5.253   8.045  10.404  0.5580 -1.2442  0.9952
  117MOL0     C15325   5.310   7.981  10.530 -0.0729 -0.4279 -0.4790
  117MOL0     C15326   5.404   8.066  10.606  0.4289  0.1499 -0.2615
  117MOL0     C15327   5.435   8.002  10.741  0.5435  0.0572 -0.8350
  117MOL0     C15328   5.585   8.004  10.783  0.4587 -0.1180 -0.1117
  117MOL0     N15329   5.638   8.129  10.834  0.0451  0.3697  0.7056
  117MOL0     C15330   5.593   8.195  10.944  0.5900 -0.4604  0.6771
  117MOL0     C15331   5.662   8.312  10.942  1.3787  0.2452  0.3088
  117MOL0     C15332   5.661   8.395  11.071 -0.4862 -0.5600  0.3734
  117MOL0     C15333   5.638   8.548  11.063 -1.1550 -1.2584  0.2780
  117MOL0     C15334   5.775   8.621  11.060 -0.2874  0.1741 -0.4403
  117MOL0     C15335   5.774   8.776  11.065  0.4264 -0.0276  0.7319
  117MOL0     O15336   5.914   8.827  11.082  0.7479 -0.5935  0.0316
  117MOL0     C15337   5.944   8.955  11.112  1.0468 -0.2127 -0.0078
  117MOL0     C15338   5.854   9.053  11.090 -0.2021 -0.0894  0.5448
  117MOL0     C15339   5.884   9.182  11.118  1.0965  0.0652 -1.9549
  117MOL0     C15340   6.000   9.220  11.183 -0.3408 -0.0708  1.1172
  117MOL0     C15341   6.030   9.364  11.200  0.1685  0.2433 -0.2575
  117MOL0     O15342   6.126   9.378  11.285  0.0985 -0.1123 -0.6004
  117MOL0     C15343   6.161   9.501  11.327  0.0501  0.6102 -0.5492
  117MOL0     C15344   6.080   9.584  11.388  0.4358  0.4350 -0.8153
  117MOL0     C15345   6.123   9.706  11.431 -0.4353  0.1045 -0.3678
  117MOL0     C15346   6.259   9.733  11.436  0.4893  0.3930 -0.3452
  117MOL0     O15347   6.306   9.851  11.472 -0.2561 -0.2309  0.5654
  117MOL0     C15348   6.213   9.961  11.509  0.1321  0.9031  0.3885
  117MOL0     C15349   6.293  10.086  11.555  0.7824  0.3665  0.1784
  117MOL0     C15350   6.362  10.168  11.449 -0.6081  0.6538 -0.5164
  117MOL0     C15351   6.385  10.316  11.480 -0.3021 -0.0504  0.0043
  117MOL0     C15352   6.441  10.398  11.369 -0.9097 -0.4250 -0.2165
  117MOL0     C15353   6.588  10.385  11.367 -0.4790  0.8803  0.9824
  117MOL0     C15354   6.662  10.473  11.467 -0.1945  0.0196  0.0082
  117MOL0     C15355   6.717  10.599  11.404 -0.9906  0.4528 -0.1283
  117MOL0    Cl15356   6.582  10.684  11.331 -0.1842  0.3216  0.3328
  117MOL0     C15357   6.348   9.643  11.369 -1.0567 -0.1574  0.3888
  117MOL0     C15358   6.292   9.525  11.320 -0.3981 -0.0208  1.1516
  117MOL0     O15359   5.957   9.449  11.157  0.1307 -0.4705 -0.1747
  117MOL0     C15360   6.093   9.122  11.220 -0.3698  0.6458 -0.1629
  117MOL0     C15361   6.067   8.993  11.178  0.2402  0.0680  0.3176
  117MOL0     N15362   5.751   8.321  10.844  0.8157  0.1432  0.4508
  117MOL0     N15363   5.734   8.209  10.770  0.1569 -0.9721  0.3908
  117MOL0     C15364   4.990   8.645  10.357  0.3355 -0.3341 -0.3029
  117MOL0     C15365   4.987   8.782  10.332 -0.3064  0.0056  0.4256
  117MOL0     C15366   5.145   9.245  10.290  0.6415  0.7939 -0.2528
  117MOL0     C15367   5.239   9.347  10.323  0.5026  0.1500 -0.4811
  117MOL0     C15368   5.200   9.479  10.325  0.1159 -0.1540 -0.0343
  117MOL0     C15369   5.069   9.510  10.301 -0.3620  0.1937  1.0756
  117MOL0     O15370   5.044   9.648  10.293 -0.2343  0.5568  0.3818
  117MOL0     C15371   4.927   9.701  10.230  0.3091 -0.4647 -0.6143
  117MOL0     C15372   4.897   9.835  10.300 -0.7121 -0.5010  0.0429
  117MOL0     C15373   4.947   9.941  10.198  0.0223 -0.0435 -0.5002
  117MOL0     C15374   5.051  10.034  10.264 -0.0982 -0.0437 -0.2759
  117MOL0     C15375   5.097  10.139  10.181 -0.2133 -0.5595  0.9730
  117MOL0     C15376   5.136  10.224  10.100  0.2967  0.1786 -0.7263
  117MOL0     C15377   4.979   9.412  10.266 -0.2632 -0.2885  0.1905
  117MOL0     C15378   5.018   9.280  10.255  0.5364 -0.8760  0.2877
  117MOL0     H15379   5.332   8.832  10.321 -1.3205  2.8466  1.1789
  117MOL0     H15380   5.325   8.596  10.375  1.8325  1.3181 -0.1151
  117MOL0     H15381   5.001   8.411  10.219  2.7492  2.1207  1.3621
  117MOL0     H15382   4.927   8.351  10.367 -1.3828  2.3273 -3.1832
  117MOL0     H15383   5.169   8.243  10.203 -1.0563  0.4589 -1.5460
  117MOL0     H15384   5.025   8.159  10.240  1.4494  0.1045  0.6759
  117MOL0     H15385   5.083   8.134  10.477  0.0081  0.8904  0.0088
  117MOL0     H15386   5.225   8.245  10.461  2.3081  0.0738 -0.2386
  117MOL0     H15387   5.191   7.969  10.356  0.4660 -0.4712 -0.1785
  117MOL0     H15388   5.335   8.071  10.336 -0.1103 -1.8727 -0.0846
  117MOL0     H15389   5.367   7.892  10.502  2.7893  1.0279  0.3457
  117MOL0     H15390   5.220   7.963  10.590 -1.4934  1.2362 -1.9958
  117MOL0     H15391   5.341   8.155  10.616  0.0539 -0.1741  0.2697
  117MOL0     H15392   5.494   8.096  10.552 -0.2717  4.5359  0.5583
  117MOL0     H15393   5.379   8.063  10.812 -1.5014 -1.7394 -0.8068
  117MOL0     H15394   5.391   7.902  10.747 -2.6795  1.3449 -0.7887
  117MOL0     H15395   5.643   7.959  10.702 -0.8912 -4.2667  0.9451
  117MOL0     H15396   5.599   7.923  10.856  1.1383 -0.7196 -0.8927
  117MOL0     H15397   5.517   8.166  11.015 -0.5027 -1.5851 -0.8676
  117MOL0     H15398   5.758   8.367  11.114 -0.0810 -4.2995 -2.4732
  117MOL0     H15399   5.589   8.346  11.137 -0.6797 -1.9798 -0.8479
  117MOL0     H15400   5.574   8.592  11.140  0.9535  0.8058  0.9609
  117MOL0     H15401   5.586   8.562  10.968 -3.3301 -0.4078  1.5243
  117MOL0     H15402   5.822   8.607  11.157 -3.6526 -1.6364  1.0858
  117MOL0     H15403   5.833   8.582  10.976 -0.8860 -3.7321  0.7827
  117MOL0     H15404   5.700   8.812  11.137 -0.6762  0.7457 -0.7254
  117MOL0     H15405   5.734   8.804  10.967 -0.9436 -3.2675  0.2571
  117MOL0     H15406   5.763   9.027  11.038  0.7859 -1.1885 -0.7389
  117MOL0     H15407   5.808   9.254  11.091 -2.1665 -1.2691  2.3749
  117MOL0     H15408   5.976   9.558  11.402  0.7396  0.8910  3.1825
  117MOL0     H15409   6.041   9.766  11.470 -0.6985 -1.3469  1.4437
  117MOL0     H15410   6.144   9.935  11.590 -0.9137 -5.7211 -2.0263
  117MOL0     H15411   6.151   9.987  11.423  2.1751  1.9967 -0.8257
  117MOL0     H15412   6.357  10.050  11.636  2.7709 -0.5229 -1.6792
  117MOL0     H15413   6.217  10.150  11.600 -3.5169 -3.1756 -1.2940
  117MOL0     H15414   6.307  10.154  11.356  1.2431  1.9114 -1.8773
  117MOL0     H15415   6.461  10.129  11.421 -0.4313  0.5291  0.2550
  117MOL0     H15416   6.290  10.351  11.520  0.0670  1.0032 -0.0028
  117MOL0     H15417   6.453  10.323  11.565  0.1419 -2.8986 -0.0320
  117MOL0     H15418   6.421  10.499  11.405 -0.0513 -0.3005 -0.0774
  117MOL0     H15419   6.388  10.380  11.274 -0.5548 -1.5656 -0.2088
  117MOL0     H15420   6.631  10.424  11.274 -2.5088 -1.0886 -0.9267
  117MOL0     H15421   6.612  10.278  11.364 -1.7466  0.5869 -0.9410
  117MOL0     H15422   6.600  10.484  11.556  1.2705  2.1547  0.8467
  117MOL0     H15423   6.753  10.428  11.507  0.6073  2.1242  0.6488
  117MOL0     H15424   6.792  10.567  11.331 -0.1062  1.8052  0.1490
  117MOL0     H15425   6.761  10.665  11.480 -2.2486  1.6805 -0.4179
  117MOL0     H15426   6.454   9.649  11.345 -1.4602  0.2422 -1.4578
  117MOL0     H15427   6.363   9.461  11.268  1.6473  2.4049  0.7332
  117MOL0     H15428   6.168   9.135  11.298 -2.5973 -1.9173  2.6571
  117MOL0     H15429   6.144   8.923  11.206  0.6465  0.4526  0.1732
  117MOL0     H15430   4.894   8.596  10.358 -0.8965  1.8415 -2.0285
  117MOL0     H15431   4.891   8.820  10.299 -0.4095 -1.4932 -1.1761
  117MOL0     H15432   5.343   9.321  10.339  1.6039  3.3292 -1.5470
  117MOL0     H15433   5.275   9.557  10.321 -0.7102  0.7263  0.9531
  117MOL0     H15434   4.849   9.637  10.272 -0.3308  0.0379 -1.0277
  117MOL0     H15435   4.931   9.701  10.120 -0.0398 -3.5224 -0.7291
  117MOL0     H15436   4.789   9.851  10.306 -0.9401 -0.1323 -3.2735
  117MOL0     H15437   4.958   9.858  10.388  0.0818  0.0145 -0.6346
  117MOL0     H15438   4.862   9.986  10.145 -2.3318 -3.1596  0.3588
  117MOL0     H15439   5.002   9.897  10.115  0.5966 -1.5876  0.6503
  117MOL0     H15440   5.003  10.067  10.357  1.6657  3.0478 -0.3333
  117MOL0     H15441   5.144   9.982  10.291  1.1365  1.7301 -0.9618
  117MOL0     H15442   5.170  10.302  10.035  0.3161  2.3299  1.7031
  117MOL0     H15443   4.883   9.428  10.219 -2.2664 -0.6536  3.8111
  117MOL0     H15444   4.941   9.208  10.230 -2.5108  2.5376 -1.2443
  118MOL0     O15445   6.268   3.774   2.733 -0.2232  0.1172  0.6391
  118MOL0     C15446   6.195   3.681   2.712 -1.0335 -0.8069 -0.5117
  118MOL0     O15447   6.073   3.671   2.772  0.0181 -0.7072 -0.1811
  118MOL0     C15448   6.057   3.592   2.883 -0.5384  0.9311  0.2488
  118MOL0     C15449   6.164   3.552   2.976 -0.4054  0.4296  0.0936
  118MOL0     C15450   6.137   3.477   3.091 -0.3274  0.0422 -0.0900
  118MOL0     C15451   6.006   3.456   3.127  0.2634  0.3909  0.6685
  118MOL0     O15452   5.972   3.383   3.241 -0.1447 -0.2667  0.4771
  118MOL0     C15453   6.014   3.430   3.370  0.3325 -1.1627 -0.4755
  118MOL0     C15454   5.991   3.320   3.460  0.4255 -1.1026 -0.4034
  118MOL0     C15455   5.996   3.371   3.606  0.3592 -0.1019 -0.8935
  118MOL0     C15456   6.021   3.257   3.707  0.1523  0.0394  0.3071
  118MOL0     C15457   6.041   3.320   3.847 -0.6011 -0.2238  0.2827
  118MOL0     C15458   6.107   3.226   3.951 -0.0147 -0.5269 -0.7943
  118MOL0     C15459   6.100   3.286   4.092 -0.2476 -0.1364  0.9204
  118MOL0     C15460   6.166   3.422   4.111  0.4664 -0.7569  0.3618
  118MOL0     N15461   6.191   3.455   4.252  0.7570  0.1006 -0.8344
  118MOL0     C15462   6.081   3.500   4.320 -0.6967  0.1888 -0.3291
  118MOL0     C15463   6.122   3.492   4.453  0.7764  0.4742 -0.2221
  118MOL0     C15464   6.053   3.503   4.589 -0.0331 -0.3922 -0.1982
  118MOL0     C15465   6.018   3.641   4.627  0.3198 -0.8475  0.7242
  118MOL0     C15466   6.010   3.643   4.775 -0.5876 -0.0742 -0.6817
  118MOL0     C15467   6.000   3.786   4.838  0.1619  0.1769  1.0575
  118MOL0     O15468   6.005   3.903   4.751  0.2407  0.4038  0.3450
  118MOL0     C15469   6.098   4.001   4.774  0.3277 -0.3032 -0.3149
  118MOL0     C15470   6.062   4.128   4.837 -0.3756  0.2706  1.0834
  118MOL0     C15471   6.159   4.230   4.833 -0.4073 -0.1437  0.0563
  118MOL0     C15472   6.287   4.214   4.781  0.0294 -0.4406 -0.2789
  118MOL0     C15473   6.370   4.332   4.776  0.7642  0.7353 -0.7271
  118MOL0     O15474   6.379   4.401   4.882 -1.1021  0.4850 -0.2950
  118MOL0     C15475   6.482   4.490   4.898 -0.1857 -0.0403 -0.1113
  118MOL0     C15476   6.608   4.487   4.827 -1.7255 -0.6875 -0.1120
  118MOL0     C15477   6.700   4.594   4.852 -0.0739  0.3254 -0.1450
  118MOL0     C15478   6.682   4.678   4.966 -0.0020  0.1566 -0.6511
  118MOL0     O15479   6.759   4.778   5.019  0.2318  0.1778 -0.0558
  118MOL0     C15480   6.791   4.890   4.938 -0.7634 -0.0917 -0.1435
  118MOL0     C15481   6.935   4.924   4.959  0.6363 -0.3079  0.4184
  118MOL0     C15482   6.968   5.060   4.895 -0.2435 -1.5234 -0.4834
  118MOL0     C15483   7.127   5.091   4.905 -0.1229 -0.8029 -0.5363
  118MOL0     C15484   7.200   5.069   5.036  0.1531  0.0583  0.6576
  118MOL0     C15485   7.354   5.061   5.032 -0.3078 -0.0591  0.1712
  118MOL0     C15486   7.396   5.038   5.175  0.1658 -0.3228  0.7370
  118MOL0     C15487   7.533   4.983   5.179 -0.1605 -0.2968  0.6061
  118MOL0    Cl15488   7.605   4.981   5.333 -0.2502  0.3394  0.0758
  118MOL0     C15489   6.568   4.664   5.039  0.5299 -0.1909  0.0461
  118MOL0     C15490   6.462   4.574   5.005  1.5804 -0.8832 -0.0750
  118MOL0     O15491   6.417   4.360   4.664  0.0360 -0.1975  0.6153
  118MOL0     C15492   6.323   4.087   4.740  0.1899  0.2045 -0.1603
  118MOL0     C15493   6.233   3.983   4.739 -0.1330  0.5061 -0.5604
  118MOL0     N15494   6.254   3.451   4.459 -0.7326 -1.0223  0.1399
  118MOL0     N15495   6.293   3.435   4.336 -0.3132  0.5332 -0.3054
  118MOL0     C15496   5.908   3.468   3.032 -0.0961  0.3897 -0.4775
  118MOL0     C15497   5.929   3.533   2.914 -0.6345 -0.2537  1.0188
  118MOL0     C15498   6.229   3.581   2.615 -1.0617 -0.3811  0.7817
  118MOL0     C15499   6.362   3.567   2.561 -0.6945  0.7093  0.0930
  118MOL0     C15500   6.396   3.485   2.448  0.2976  0.7797 -1.0222
  118MOL0     C15501   6.293   3.424   2.374  0.6810  0.2226 -0.4654
  118MOL0     O15502   6.318   3.348   2.265  0.0800 -0.2956  0.2938
  118MOL0     C15503   6.449   3.332   2.202 -0.7401  0.6394  0.2910
  118MOL0     C15504   6.548   3.236   2.266 -0.1494 -0.0700 -0.2236
  118MOL0     C15505   6.693   3.269   2.225 -0.3858 -0.1278  0.4750
  118MOL0     C15506   6.790   3.150   2.221 -0.4306  0.6371 -0.4382
  118MOL0     C15507   6.919   3.185   2.156  0.7345 -0.0425  0.0482
  118MOL0     C15508   7.019   3.228   2.103  0.7753  0.0876  0.1167
  118MOL0     C15509   6.164   3.432   2.437  0.7470  0.0308  0.5514
  118MOL0     C15510   6.128   3.511   2.546 -0.0085  0.2235  1.1409
  118MOL0     H15511   6.260   3.599   2.956 -1.5416  2.2411 -1.3026
  118MOL0     H15512   6.214   3.446   3.160 -1.7878 -0.2122  1.4778
  118MOL0     H15513   5.967   3.524   3.400  0.2356  0.0270 -3.9299
  118MOL0     H15514   6.119   3.459   3.371 -0.1536  0.8031  0.9622
  118MOL0     H15515   6.060   3.236   3.443  0.2544 -1.3052 -0.1065
  118MOL0     H15516   5.889   3.282   3.444 -0.0037 -2.4481  4.1208
  118MOL0     H15517   5.900   3.406   3.645  0.4067  0.6515 -1.4398
  118MOL0     H15518   6.071   3.449   3.615 -1.2976  1.8578 -2.9847
  118MOL0     H15519   5.939   3.184   3.703  0.4998 -0.3092 -3.0737
  118MOL0     H15520   6.117   3.211   3.682  1.1117  1.9448  0.3717
  118MOL0     H15521   5.944   3.363   3.873  0.3739  1.8056  0.7368
  118MOL0     H15522   6.116   3.397   3.828  0.1694 -1.0374 -0.0972
  118MOL0     H15523   6.210   3.196   3.927  1.0229  1.4358  0.9069
  118MOL0     H15524   6.049   3.134   3.945  1.7465 -1.6417 -1.6447
  118MOL0     H15525   6.001   3.279   4.138  1.4085  0.7877  5.0246
  118MOL0     H15526   6.152   3.214   4.156  1.4557  1.5376  1.4814
  118MOL0     H15527   6.103   3.496   4.062  0.3848 -1.3257 -0.3979
  118MOL0     H15528   6.262   3.418   4.059  1.2715 -3.3889  1.8898
  118MOL0     H15529   5.988   3.519   4.269  0.9145  1.5833 -2.9520
  118MOL0     H15530   6.113   3.443   4.658  0.7172 -1.4064 -1.6788
  118MOL0     H15531   5.958   3.448   4.581  0.3154 -1.1970  0.9128
  118MOL0     H15532   5.921   3.669   4.584  1.1965 -1.6455 -1.9761
  118MOL0     H15533   6.087   3.718   4.590  1.2979 -1.4027  1.3288
  118MOL0     H15534   5.928   3.579   4.808 -1.2153  1.1705  0.2645
  118MOL0     H15535   6.103   3.600   4.814 -1.1721 -2.6261 -1.8937
  118MOL0     H15536   6.077   3.798   4.915 -0.8768  1.7187  1.9103
  118MOL0     H15537   5.900   3.792   4.882  0.2112  0.0792  1.1835
  118MOL0     H15538   5.962   4.152   4.871 -1.3478 -1.4351 -0.4134
  118MOL0     H15539   6.126   4.330   4.857 -2.4855 -0.5912 -0.6653
  118MOL0     H15540   6.631   4.422   4.743  0.0584  1.1916 -1.1800
  118MOL0     H15541   6.790   4.594   4.790 -1.7118 -2.2915 -2.7879
  118MOL0     H15542   6.724   4.973   4.964 -1.3837 -0.5659 -0.1864
  118MOL0     H15543   6.768   4.863   4.834  1.3837  1.3633 -1.0652
  118MOL0     H15544   7.003   4.845   4.926 -0.8249 -1.6138  0.3856
  118MOL0     H15545   6.945   4.932   5.068 -0.0872  0.8763  0.4114
  118MOL0     H15546   6.927   5.149   4.943  1.9806  0.4839 -2.1102
  118MOL0     H15547   6.940   5.063   4.790 -0.5419  0.5629 -0.3873
  118MOL0     H15548   7.178   5.012   4.849  2.0610 -0.4231  0.7992
  118MOL0     H15549   7.147   5.184   4.852  1.9790 -0.7156  0.3410
  118MOL0     H15550   7.170   4.974   5.081  0.4697 -1.6948 -2.5534
  118MOL0     H15551   7.165   5.158   5.090  1.2398  0.7838  0.1943
  118MOL0     H15552   7.392   5.157   4.998  0.7518 -1.1826 -2.0002
  118MOL0     H15553   7.390   4.992   4.956 -2.3936 -0.7338 -0.2677
  118MOL0     H15554   7.393   5.133   5.230 -1.8658  0.5480 -0.7235
  118MOL0     H15555   7.337   4.959   5.222 -1.6060  0.2718 -0.3824
  118MOL0     H15556   7.583   5.052   5.111 -2.4416  1.1840  0.3195
  118MOL0     H15557   7.530   4.882   5.137  0.4654  0.3009 -0.9298
  118MOL0     H15558   6.548   4.726   5.126  2.1045  0.0906  0.2338
  118MOL0     H15559   6.371   4.572   5.064  3.1896  1.2898  2.7302
  118MOL0     H15560   6.425   4.085   4.704  0.6760 -0.8045  1.1752
  118MOL0     H15561   6.288   3.896   4.703  2.5715  1.1647  1.6195
  118MOL0     H15562   5.809   3.430   3.057  1.2678 -3.2596  0.0033
  118MOL0     H15563   5.850   3.568   2.848  1.3901 -1.8469 -2.5429
  118MOL0     H15564   6.441   3.625   2.609 -0.1943 -0.8306  1.1901
  118MOL0     H15565   6.500   3.471   2.422  1.2637  4.0960  0.5467
  118MOL0     H15566   6.501   3.428   2.193  3.8555 -1.6460 -0.2238
  118MOL0     H15567   6.429   3.290   2.103  2.4914 -1.3921  0.3623
  118MOL0     H15568   6.541   3.246   2.375  2.8501  1.8262 -0.0947
  118MOL0     H15569   6.514   3.136   2.235 -3.2037  0.5403  0.7890
  118MOL0     H15570   6.738   3.353   2.279  2.7618 -0.9179 -0.6476
  118MOL0     H15571   6.695   3.295   2.118 -3.3890  2.5401  0.9265
  118MOL0     H15572   6.818   3.117   2.321 -1.4395  0.4942 -0.1924
  118MOL0     H15573   6.744   3.062   2.174 -0.7830 -0.0493  1.1205
  118MOL0     H15574   7.111   3.273   2.069  1.2547  0.5895  1.9638
  118MOL0     H15575   6.082   3.380   2.391  0.7206 -0.0628  0.7020
  118MOL0     H15576   6.029   3.504   2.590 -1.1324 -0.6803 -1.3743
  119MOL0     O15577   3.130   7.954   2.877  0.8232 -0.6287 -0.4756
  119MOL0     C15578   3.099   7.848   2.831  0.2033  0.8829  0.1049
  119MOL0     O15579   3.073   7.737   2.908 -0.1673 -0.1981 -0.0653
  119MOL0     C15580   3.111   7.742   3.037  0.1267 -0.5106 -0.0797
  119MOL0     C15581   3.233   7.695   3.086 -0.2449 -1.1048  0.4859
  119MOL0     C15582   3.265   7.718   3.225  0.1856 -0.8994  0.5637
  119MOL0     C15583   3.174   7.795   3.310 -0.0172 -0.3144  0.6554
  119MOL0     O15584   3.220   7.830   3.436  0.6180 -0.1360  0.3734
  119MOL0     C15585   3.157   7.757   3.540  0.5163  0.0048  0.4407
  119MOL0     C15586   3.215   7.778   3.680 -0.0840 -0.5376 -0.3106
  119MOL0     C15587   3.183   7.913   3.751  0.5351  0.5798  0.5697
  119MOL0     C15588   3.293   8.015   3.725 -0.1228  0.5039 -0.2693
  119MOL0     C15589   3.255   8.149   3.790 -0.7135 -0.6291 -0.1646
  119MOL0     C15590   3.353   8.264   3.759  0.2244  0.3393  0.5484
  119MOL0     C15591   3.341   8.371   3.869  0.4113  1.0342  0.8343
  119MOL0     C15592   3.194   8.416   3.910  0.3197 -0.6680 -0.6713
  119MOL0     N15593   3.132   8.508   3.811  0.0205 -0.3964 -1.2163
  119MOL0     C15594   3.124   8.646   3.831  0.7236 -0.3348  0.2348
  119MOL0     C15595   3.082   8.696   3.715  0.2162 -0.3449 -0.0264
  119MOL0     C15596   3.057   8.840   3.674 -0.7191 -0.4316  0.0596
  119MOL0     C15597   2.937   8.860   3.579  0.2991 -0.2193  0.1343
  119MOL0     C15598   2.889   9.012   3.597 -0.2087  0.8889 -0.3001
  119MOL0     C15599   2.757   9.039   3.510  0.8493  0.0727  0.5705
  119MOL0     O15600   2.703   9.171   3.554  0.2446  0.6533 -0.1088
  119MOL0     C15601   2.565   9.185   3.563 -0.5854  0.0772  0.4507
  119MOL0     C15602   2.508   9.280   3.647 -0.2425 -0.7806  0.5987
  119MOL0     C15603   2.378   9.298   3.655 -0.5077  0.1108 -0.7350
  119MOL0     C15604   2.287   9.218   3.577  0.1966 -0.0056 -0.1067
  119MOL0     C15605   2.143   9.251   3.573 -0.4251 -0.6267  0.3258
  119MOL0     O15606   2.083   9.294   3.684  0.5196 -0.5861  0.0372
  119MOL0     C15607   1.956   9.337   3.676 -0.6839 -0.8156 -0.7930
  119MOL0     C15608   1.912   9.427   3.586  0.4329 -0.9336 -0.7937
  119MOL0     C15609   1.781   9.480   3.600  0.4165 -0.0202  0.3910
  119MOL0     C15610   1.696   9.447   3.713 -0.4636 -0.1159  0.6050
  119MOL0     O15611   1.568   9.498   3.722 -0.1496 -0.4149  1.1431
  119MOL0     C15612   1.502   9.556   3.605  0.7267  0.3571 -0.9483
  119MOL0     C15613   1.364   9.615   3.652 -1.3209 -0.1714 -0.4044
  119MOL0     C15614   1.273   9.524   3.728  0.2165 -0.6099  0.3701
  119MOL0     C15615   1.137   9.587   3.777  0.4463 -0.9288  1.0242
  119MOL0     C15616   1.050   9.474   3.831  0.6727  0.1099 -0.6292
  119MOL0     C15617   0.900   9.507   3.860 -0.5733 -0.1891 -0.0720
  119MOL0     C15618   0.827   9.370   3.845 -0.6073 -0.5521 -0.3121
  119MOL0     C15619   0.689   9.366   3.905 -0.4308 -0.4937  0.2908
  119MOL0    Cl15620   0.627   9.214   3.842 -0.0015  0.1048  0.3328
  119MOL0     C15621   1.738   9.348   3.796  0.0840  0.3643  1.5806
  119MOL0     C15622   1.867   9.299   3.782  0.3867  0.1715 -0.2097
  119MOL0     O15623   2.094   9.240   3.463  0.1784  0.7771  0.3753
  119MOL0     C15624   2.339   9.118   3.482  1.1084 -0.6740 -1.2619
  119MOL0     C15625   2.478   9.107   3.483  0.2109 -0.4100  0.2183
  119MOL0     N15626   3.067   8.593   3.624  0.4755  0.0341  1.6220
  119MOL0     N15627   3.108   8.484   3.678  0.3772 -0.0572  0.2503
  119MOL0     C15628   3.060   7.845   3.247  1.0343  0.0055  0.5133
  119MOL0     C15629   3.022   7.813   3.115 -0.6270  0.1430  0.3080
  119MOL0     C15630   3.082   7.839   2.680 -0.4182 -0.2365  0.5855
  119MOL0     C15631   3.082   7.712   2.629  0.1187  0.9982 -0.2158
  119MOL0     C15632   3.069   7.695   2.481 -0.2436  0.2403 -0.6170
  119MOL0     C15633   3.069   7.812   2.405 -0.5453 -0.1498  0.7725
  119MOL0     O15634   3.045   7.794   2.266 -0.0280  0.5752 -1.1079
  119MOL0     C15635   3.168   7.774   2.185 -0.8826  0.2602  0.2418
  119MOL0     C15636   3.158   7.834   2.050 -0.0867 -0.1113 -0.7921
  119MOL0     C15637   3.167   7.993   2.058  0.2034  0.2310  1.2590
  119MOL0     C15638   3.109   8.056   1.930 -0.3440  1.2815 -0.4888
  119MOL0     C15639   3.115   8.192   1.944 -0.0440  0.1293 -0.8450
  119MOL0     C15640   3.119   8.310   1.950 -0.1965  0.4473 -0.1607
  119MOL0     C15641   3.084   7.937   2.465 -0.4507 -0.5994 -0.4511
  119MOL0     C15642   3.095   7.951   2.596  1.0044  1.0831 -0.2463
  119MOL0     H15643   3.295   7.646   3.012  0.4065 -0.8639  0.8629
  119MOL0     H15644   3.357   7.695   3.277 -0.4938 -3.2887  0.8069
  119MOL0     H15645   3.148   7.649   3.522  0.1151 -0.0168  0.7513
  119MOL0     H15646   3.052   7.785   3.548  0.7414  0.5373  1.9229
  119MOL0     H15647   3.323   7.767   3.679  0.0945  0.9447 -0.7401
  119MOL0     H15648   3.165   7.706   3.745 -2.2184  0.7131 -0.4380
  119MOL0     H15649   3.177   7.898   3.859 -0.6907 -3.0069  0.1344
  119MOL0     H15650   3.092   7.953   3.704 -0.1090 -1.3112  0.1087
  119MOL0     H15651   3.393   7.986   3.757 -1.2958 -3.5835  0.1772
  119MOL0     H15652   3.311   8.029   3.618 -0.5777  0.2417 -0.3842
  119MOL0     H15653   3.243   8.120   3.895  2.3723 -2.2735 -0.1465
  119MOL0     H15654   3.156   8.171   3.748 -0.3132 -1.3042 -1.5181
  119MOL0     H15655   3.324   8.302   3.661 -0.5070 -2.1651 -0.2992
  119MOL0     H15656   3.456   8.226   3.753 -0.6591 -1.9993 -2.3705
  119MOL0     H15657   3.399   8.336   3.955 -0.6605 -3.3579  0.0463
  119MOL0     H15658   3.384   8.457   3.817 -2.1571  0.1470 -3.2129
  119MOL0     H15659   3.190   8.458   4.011 -2.1028 -1.6458 -0.3054
  119MOL0     H15660   3.125   8.331   3.906  1.1961 -1.5088  1.1070
  119MOL0     H15661   3.136   8.710   3.918 -1.7971 -0.3146  0.6530
  119MOL0     H15662   3.146   8.896   3.641  0.4304 -0.2438  3.1250
  119MOL0     H15663   3.029   8.896   3.764 -2.1420 -0.1532 -0.5233
  119MOL0     H15664   2.858   8.787   3.601 -0.0125  0.4776  1.4613
  119MOL0     H15665   2.972   8.840   3.478  0.2209  0.7189 -0.0944
  119MOL0     H15666   2.862   9.022   3.702 -0.2067 -2.7244  0.1666
  119MOL0     H15667   2.963   9.085   3.564  2.1250 -1.2237 -0.0043
  119MOL0     H15668   2.705   8.944   3.526  3.2450 -1.8172 -1.7999
  119MOL0     H15669   2.782   9.045   3.404 -4.8921 -1.0175 -1.1511
  119MOL0     H15670   2.583   9.343   3.693  0.8112 -3.3246  2.5785
  119MOL0     H15671   2.332   9.357   3.734  1.1741  2.6469 -1.5439
  119MOL0     H15672   1.966   9.463   3.499 -0.7042  0.8815 -0.8044
  119MOL0     H15673   1.751   9.554   3.526  1.7855  1.7935  1.5881
  119MOL0     H15674   1.481   9.473   3.538  2.7443 -2.4487  1.6015
  119MOL0     H15675   1.561   9.638   3.563  1.7884 -0.7517 -1.6723
  119MOL0     H15676   1.306   9.657   3.569 -2.2905 -1.2948 -0.3152
  119MOL0     H15677   1.391   9.693   3.724 -2.7165 -0.7514  0.7878
  119MOL0     H15678   1.333   9.496   3.815  1.3212 -0.7387 -0.4121
  119MOL0     H15679   1.245   9.449   3.653  1.4571  1.0078 -1.8020
  119MOL0     H15680   1.158   9.655   3.860  0.9962 -2.1817  1.9231
  119MOL0     H15681   1.088   9.652   3.704  0.2720  0.4726  2.3299
  119MOL0     H15682   1.085   9.420   3.920 -3.0986 -1.1049  0.3318
  119MOL0     H15683   1.045   9.399   3.752 -1.3753  2.3341 -2.7725
  119MOL0     H15684   0.853   9.579   3.793 -0.0487  0.2286  0.0077
  119MOL0     H15685   0.874   9.533   3.964 -6.9956 -3.6364 -0.2900
  119MOL0     H15686   0.819   9.324   3.747 -2.6682 -0.0883 -0.4052
  119MOL0     H15687   0.882   9.293   3.899 -2.4339 -2.5004 -1.1003
  119MOL0     H15688   0.621   9.439   3.861  1.4332  1.6511  0.7789
  119MOL0     H15689   0.675   9.377   4.013 -4.9349 -0.8168 -0.0641
  119MOL0     H15690   1.677   9.309   3.877  1.8894 -0.3703  2.6465
  119MOL0     H15691   1.913   9.228   3.849 -0.0933 -2.2814 -2.3164
  119MOL0     H15692   2.272   9.064   3.417 -0.4791 -0.4450  0.1342
  119MOL0     H15693   2.521   9.044   3.405  0.9299 -0.0250  0.3016
  119MOL0     H15694   3.001   7.913   3.308  1.8147  1.5045 -0.3544
  119MOL0     H15695   2.924   7.848   3.085 -0.4971  0.1372 -0.1310
  119MOL0     H15696   3.067   7.625   2.692  2.7311  1.5907  1.3737
  119MOL0     H15697   3.084   7.604   2.424 -0.4202 -0.0440 -0.2182
  119MOL0     H15698   3.196   7.670   2.166 -1.1816  0.9754 -6.5801
  119MOL0     H15699   3.254   7.824   2.232 -1.2390 -0.2670  1.5071
  119MOL0     H15700   3.246   7.796   1.997  0.1429 -0.8175  0.0765
  119MOL0     H15701   3.067   7.800   1.999 -1.0195  3.5993 -1.9837
  119MOL0     H15702   3.269   8.029   2.076  0.9501  0.0433 -1.9680
  119MOL0     H15703   3.104   8.025   2.141  0.5521  1.7898  0.9566
  119MOL0     H15704   3.166   8.018   1.845  0.0777  1.5222 -0.3168
  119MOL0     H15705   3.003   8.028   1.929 -0.0491  0.1399 -1.8244
  119MOL0     H15706   3.099   8.415   1.938 -0.9034  0.0924 -2.7104
  119MOL0     H15707   3.081   8.024   2.400  1.6959 -1.5882 -1.9863
  119MOL0     H15708   3.092   8.053   2.632 -0.0205  0.7191  0.7621
  120MOL0     O15709   6.249  10.251  10.990 -0.6868  0.1647 -0.0620
  120MOL0     C15710   6.182  10.163  11.055 -0.4797  0.4185  0.3524
  120MOL0     O15711   6.082  10.186  11.147 -0.1356  0.2437  0.2980
  120MOL0     C15712   6.063  10.321  11.175  0.1261  0.1762 -1.6854
  120MOL0     C15713   6.075  10.357  11.311  0.2912 -0.8618 -0.6135
  120MOL0     C15714   6.092  10.488  11.347 -0.4151 -0.8218 -0.3125
  120MOL0     C15715   6.080  10.591  11.255  0.5204  0.6521 -0.8234
  120MOL0     O15716   6.069  10.724  11.296  0.1168  0.2400 -0.4246
  120MOL0     C15717   5.978  10.810  11.223  0.8246 -0.2521 -0.6910
  120MOL0     C15718   5.967  10.946  11.300  0.1635  0.0074 -0.5234
  120MOL0     C15719   5.946  11.071  11.209 -1.1110 -0.0981  0.3659
  120MOL0     C15720   6.052  11.108  11.104 -0.2780  0.1091 -0.4675
  120MOL0     C15721   6.005  11.208  10.987 -0.7053 -0.7977  0.9541
  120MOL0     C15722   5.922  11.317  11.040 -0.9471  1.1582 -0.0306
  120MOL0     C15723   5.893  11.425  10.938 -0.3651 -0.8407  0.0394
  120MOL0     C15724   5.807  11.368  10.820  0.0789 -0.1783 -0.4071
  120MOL0     N15725   5.758  11.462  10.717 -0.6195 -0.3972  0.7269
  120MOL0     C15726   5.783  11.591  10.692  0.8685  0.0923 -0.5301
  120MOL0     C15727   5.703  11.618  10.581  0.3508 -0.2355  0.7071
  120MOL0     C15728   5.719  11.747  10.504 -0.4558 -0.1603  0.4907
  120MOL0     C15729   5.651  11.860  10.589  0.7431  0.0684 -0.3264
  120MOL0     C15730   5.708  12.002  10.561 -0.4071  0.5960  1.5048
  120MOL0     C15731   5.857  11.999  10.602 -0.0552  0.7960  0.2976
  120MOL0     O15732   5.917  12.124  10.586  0.3965 -0.2490 -0.3358
  120MOL0     C15733   6.027  12.173  10.654  0.4515  0.1505 -0.4701
  120MOL0     C15734   6.082  12.297  10.610 -0.1795  0.0887 -0.1990
  120MOL0     C15735   6.204  12.347  10.677 -0.3027 -1.0113  0.2676
  120MOL0     C15736   6.262  12.278  10.777 -0.1540 -0.2834 -0.5949
  120MOL0     C15737   6.382  12.337  10.857  0.9140  1.1870 -0.6384
  120MOL0     O15738   6.435  12.285  10.971  0.4426  0.5677 -0.3920
  120MOL0     C15739   6.532  12.353  11.035  0.4507 -0.6073  0.1698
  120MOL0     C15740   6.662  12.329  10.996  0.0888  0.2543  0.0959
  120MOL0     C15741   6.771  12.411  11.028  1.0220  0.3971 -0.5847
  120MOL0     C15742   6.746  12.517  11.112  0.2780  0.2325  0.3599
  120MOL0     O15743   6.852  12.606  11.134  0.6306  0.6308 -0.1811
  120MOL0     C15744   6.850  12.723  11.212 -0.2823  0.4271 -0.1662
  120MOL0     C15745   6.983  12.796  11.210  0.0279 -0.1938 -0.4466
  120MOL0     C15746   7.109  12.702  11.241 -0.0887  0.2715  0.8545
  120MOL0     C15747   7.235  12.787  11.236 -0.6537 -0.6668 -0.0298
  120MOL0     C15748   7.356  12.690  11.250 -0.1870 -0.6531 -0.4178
  120MOL0     C15749   7.485  12.768  11.237 -0.7280 -0.1664 -0.1534
  120MOL0     C15750   7.570  12.734  11.103 -0.5727  0.4388 -0.5203
  120MOL0     C15751   7.688  12.836  11.096  0.4010 -0.0419 -0.2749
  120MOL0    Cl15752   7.818  12.792  11.207 -0.2604  0.4419  0.1575
  120MOL0     C15753   6.611  12.542  11.160 -0.5319  0.0891 -0.1784
  120MOL0     C15754   6.502  12.452  11.129 -0.5632  0.7191  0.2147
  120MOL0     O15755   6.426  12.435  10.804  0.0188 -0.4974 -0.4034
  120MOL0     C15756   6.202  12.152  10.827 -0.6618 -0.2201 -0.2419
  120MOL0     C15757   6.095  12.104  10.758 -0.4805 -0.3718  0.2209
  120MOL0     N15758   5.655  11.501  10.528  0.6970  0.7082 -0.3479
  120MOL0     N15759   5.684  11.402  10.611  0.3673  0.3320  0.0845
  120MOL0     C15760   6.055  10.561  11.120 -1.3025  0.0460  0.5738
  120MOL0     C15761   6.036  10.426  11.083 -0.8294 -0.0651  0.1979
  120MOL0     C15762   6.230  10.025  11.023  0.6296  0.1543  0.3391
  120MOL0     C15763   6.184   9.916  11.093  0.1357 -0.1588 -0.0140
  120MOL0     C15764   6.230   9.783  11.052  0.7578  0.2689  0.5739
  120MOL0     C15765   6.305   9.763  10.942 -0.3605 -0.0726 -0.2785
  120MOL0     O15766   6.337   9.647  10.876 -0.0947  0.4869  0.5537
  120MOL0     C15767   6.303   9.522  10.944  0.6704  1.7690  0.0641
  120MOL0     C15768   6.414   9.417  10.945  0.1887  0.4529  0.4886
  120MOL0     C15769   6.374   9.284  10.998  0.6689  0.0361  0.2409
  120MOL0     C15770   6.288   9.204  10.896  0.2489  0.5056 -0.0688
  120MOL0     C15771   6.333   9.160  10.766 -0.2439 -0.3282  0.7364
  120MOL0     C15772   6.372   9.108  10.658  0.3384 -0.6835 -0.6324
  120MOL0     C15773   6.351   9.875  10.872 -0.4007  0.5677 -0.4280
  120MOL0     C15774   6.315   9.995  10.912 -0.6920 -1.4850 -0.9067
  120MOL0     H15775   6.073  10.273  11.379  0.9610 -1.2940 -1.1181
  120MOL0     H15776   6.115  10.517  11.449  0.6113  1.3462 -1.1063
  120MOL0     H15777   5.884  10.754  11.229 -0.9565  2.6720  2.7176
  120MOL0     H15778   6.002  10.829  11.118 -1.3913 -0.4003 -1.2798
  120MOL0     H15779   6.057  10.954  11.361 -0.5398 -2.1236  0.9068
  120MOL0     H15780   5.875  10.944  11.358 -1.9572  2.8442 -3.4416
  120MOL0     H15781   5.922  11.165  11.258 -0.3545  1.2311 -1.6790
  120MOL0     H15782   5.859  11.043  11.148 -1.2758  0.0199  0.5493
  120MOL0     H15783   6.142  11.144  11.155  0.2460 -1.8225  0.0857
  120MOL0     H15784   6.087  11.010  11.070 -1.6504 -1.0247  1.1836
  120MOL0     H15785   5.941  11.155  10.916 -0.3912 -1.7249  1.3444
  120MOL0     H15786   6.094  11.244  10.934 -0.5005  1.0067  2.4018
  120MOL0     H15787   5.963  11.367  11.129  1.7438  1.8161 -1.5195
  120MOL0     H15788   5.825  11.274  11.066  0.7931 -3.4003 -0.0925
  120MOL0     H15789   5.840  11.510  10.983  2.0077 -0.0188  1.4570
  120MOL0     H15790   5.982  11.466  10.891 -1.4426  0.7409 -0.7255
  120MOL0     H15791   5.717  11.330  10.869  1.0067 -3.7930 -1.2068
  120MOL0     H15792   5.860  11.289  10.765 -0.2074 -1.7022  1.4107
  120MOL0     H15793   5.852  11.653  10.748  1.2943  0.1502 -1.1067
  120MOL0     H15794   5.680  11.734  10.403 -1.1138 -1.3017  0.8700
  120MOL0     H15795   5.825  11.768  10.485 -0.4637  1.8858  2.3599
  120MOL0     H15796   5.675  11.846  10.695  0.4939 -0.8790 -0.3871
  120MOL0     H15797   5.543  11.844  10.579  0.7681 -0.8927  0.7961
  120MOL0     H15798   5.689  12.023  10.455  2.1325  1.1353  1.0909
  120MOL0     H15799   5.644  12.073  10.612 -3.5717 -1.0007  0.0765
  120MOL0     H15800   5.920  11.930  10.545  2.6291  2.7762  0.6689
  120MOL0     H15801   5.865  11.973  10.708  1.3663  0.2896  0.0816
  120MOL0     H15802   6.042  12.353  10.527  0.1731  3.2724  1.6016
  120MOL0     H15803   6.254  12.435  10.639 -4.2052  0.8345 -1.0441
  120MOL0     H15804   6.674  12.253  10.920 -0.8883  1.3200 -1.1640
  120MOL0     H15805   6.870  12.396  10.988  1.4805  2.5541 -0.4166
  120MOL0     H15806   6.837  12.703  11.319  2.7816 -1.7288 -0.0543
  120MOL0     H15807   6.781  12.794  11.167  1.2866  1.3301 -1.2367
  120MOL0     H15808   6.982  12.875  11.286  2.2505 -0.5174 -0.0196
  120MOL0     H15809   6.999  12.838  11.110  0.1333 -1.2509 -0.8797
  120MOL0     H15810   7.126  12.629  11.161 -0.3235  2.7811 -1.6747
  120MOL0     H15811   7.102  12.642  11.331 -1.3620  0.2441  0.7603
  120MOL0     H15812   7.249  12.845  11.144  2.3092  2.2067  2.0004
  120MOL0     H15813   7.231  12.865  11.313  0.3522 -1.1493  0.5233
  120MOL0     H15814   7.357  12.603  11.184  1.3674 -1.3175  0.4265
  120MOL0     H15815   7.361  12.657  11.354 -0.2847 -1.5387 -0.6840
  120MOL0     H15816   7.540  12.735  11.326 -0.2557  0.6362 -0.1390
  120MOL0     H15817   7.475  12.876  11.245  3.5707  0.7624 -3.6560
  120MOL0     H15818   7.619  12.636  11.107  2.0839  1.6955  3.9167
  120MOL0     H15819   7.508  12.740  11.013 -0.1184  0.5383 -0.8337
  120MOL0     H15820   7.662  12.940  11.118 -1.9530 -1.0622  2.4796
  120MOL0     H15821   7.727  12.828  10.994 -0.2587  2.0712 -0.7404
  120MOL0     H15822   6.607  12.635  11.217  1.3555  0.8696 -1.2293
  120MOL0     H15823   6.402  12.473  11.165  0.0686  1.8588  1.3710
  120MOL0     H15824   6.231  12.111  10.923 -3.6790  0.1671  0.9535
  120MOL0     H15825   6.066  12.000  10.770  1.3298 -0.8734  0.4426
  120MOL0     H15826   6.026  10.627  11.039 -1.4736 -0.1859  0.4433
  120MOL0     H15827   6.014  10.414  10.978  1.9759 -0.0969 -0.4719
  120MOL0     H15828   6.139   9.931  11.191  3.6073  0.3941  1.6630
  120MOL0     H15829   6.205   9.701  11.119 -0.0116 -1.8231 -2.1123
  120MOL0     H15830   6.212   9.481  10.900  0.1822  3.1439 -0.2493
  120MOL0     H15831   6.275   9.522  11.050 -0.1122 -0.3477 -0.0900
  120MOL0     H15832   6.443   9.395  10.842 -1.5405 -0.1480  0.0954
  120MOL0     H15833   6.496   9.467  10.999  1.5295  0.5965 -1.5973
  120MOL0     H15834   6.330   9.295  11.098 -0.2232  3.2018 -0.3745
  120MOL0     H15835   6.462   9.222  11.019 -0.0987 -1.3671 -0.5298
  120MOL0     H15836   6.261   9.111  10.947 -0.3844  0.7950  0.1263
  120MOL0     H15837   6.196   9.262  10.883  2.3319  4.4909  1.3022
  120MOL0     H15838   6.398   9.042  10.578  1.9484 -1.5006  0.5128
  120MOL0     H15839   6.403   9.856  10.779 -1.4964  0.5100 -1.0463
  120MOL0     H15840   6.336  10.070  10.837  5.6676  0.9630  2.5848
  121MOL0     O15841   7.151   7.314   7.968 -0.7658 -0.0830 -0.4958
  121MOL0     C15842   7.246   7.243   7.940  0.2244  0.0898  0.9378
  121MOL0     O15843   7.326   7.264   7.830 -0.1219 -0.4688  0.0569
  121MOL0     C15844   7.317   7.386   7.764  0.0044 -0.2473  0.4064
  121MOL0     C15845   7.428   7.472   7.752 -0.6470  0.3202  0.2990
  121MOL0     C15846   7.413   7.587   7.665  0.4953 -0.1123  0.6945
  121MOL0     C15847   7.297   7.600   7.593  0.0289 -0.3694  0.9626
  121MOL0     O15848   7.308   7.689   7.485  0.5353 -0.3660  0.1424
  121MOL0     C15849   7.204   7.711   7.384  0.5391  0.2183 -0.1697
  121MOL0     C15850   7.271   7.694   7.254 -0.8066  0.2036  0.1790
  121MOL0     C15851   7.193   7.713   7.125  0.5127 -0.4789 -1.3573
  121MOL0     C15852   7.280   7.665   6.998  0.7363 -0.4452 -0.0629
  121MOL0     C15853   7.206   7.689   6.867 -0.9268  0.2055 -0.4863
  121MOL0     C15854   7.102   7.578   6.843  0.2279  0.0985 -1.0792
  121MOL0     C15855   7.042   7.601   6.703 -0.1627  0.0010  0.4309
  121MOL0     C15856   7.114   7.523   6.599  0.4893  0.5340  0.2931
  121MOL0     N15857   7.066   7.377   6.593  0.0221  0.0604 -0.3200
  121MOL0     C15858   6.987   7.296   6.680 -0.4445 -0.1144  0.6188
  121MOL0     C15859   7.029   7.162   6.657 -0.1670 -0.4662  0.5378
  121MOL0     C15860   6.974   7.038   6.719  1.0917  0.4945  0.4050
  121MOL0     C15861   6.879   6.964   6.618 -1.0153 -0.5494 -0.2896
  121MOL0     C15862   6.940   6.938   6.472  0.6762  0.7385 -0.0145
  121MOL0     C15863   6.830   6.862   6.387  0.0786  0.5483 -0.5978
  121MOL0     O15864   6.824   6.713   6.426  0.2214 -0.1568  0.0569
  121MOL0     C15865   6.733   6.635   6.361  0.3676  0.0973  0.2538
  121MOL0     C15866   6.620   6.675   6.291 -0.1369 -0.4645  0.8634
  121MOL0     C15867   6.523   6.587   6.250  1.0680 -0.5783 -1.2276
  121MOL0     C15868   6.537   6.447   6.284 -0.1273  0.3009  0.2555
  121MOL0     C15869   6.451   6.341   6.237  0.1304  0.6247 -0.0710
  121MOL0     O15870   6.513   6.224   6.204  0.2981  0.6457  0.1968
  121MOL0     C15871   6.438   6.109   6.165  0.0538  0.5196 -0.2302
  121MOL0     C15872   6.496   6.017   6.068 -0.1297  0.4273 -0.8906
  121MOL0     C15873   6.443   5.907   6.022  0.4460 -0.0264  0.4006
  121MOL0     C15874   6.320   5.868   6.068 -0.6136 -0.0764  1.3278
  121MOL0     O15875   6.264   5.760   6.007 -0.2101 -0.2684  0.9313
  121MOL0     C15876   6.182   5.679   6.085 -0.5963 -0.3624 -0.5398
  121MOL0     C15877   6.120   5.571   5.989  0.1641 -0.9796  0.1095
  121MOL0     C15878   6.005   5.629   5.911  0.1298  0.4304  0.3831
  121MOL0     C15879   5.966   5.526   5.806 -0.4968  0.2493  0.3260
  121MOL0     C15880   5.857   5.600   5.721  0.0483  0.5101  0.7697
  121MOL0     C15881   5.793   5.509   5.613 -0.0632  0.3025 -0.4336
  121MOL0     C15882   5.917   5.446   5.527  0.5736  0.0432 -0.2576
  121MOL0     C15883   5.863   5.342   5.437 -0.8346 -0.6600 -0.1446
  121MOL0    Cl15884   5.705   5.391   5.361  0.5189  0.1316 -0.0831
  121MOL0     C15885   6.263   5.944   6.166  0.2067  0.1364  1.0444
  121MOL0     C15886   6.317   6.060   6.210 -0.4856 -0.1368 -0.2956
  121MOL0     O15887   6.325   6.360   6.231 -0.2424  0.4037  0.4467
  121MOL0     C15888   6.650   6.404   6.346 -0.2382  0.0548 -1.2899
  121MOL0     C15889   6.734   6.498   6.392 -0.5547 -0.2670 -0.4501
  121MOL0     N15890   7.136   7.172   6.568 -0.2657 -0.2414 -0.4585
  121MOL0     N15891   7.140   7.293   6.516 -1.0811 -0.6706  0.3883
  121MOL0     C15892   7.188   7.525   7.620 -0.2930  0.0258 -0.2764
  121MOL0     C15893   7.199   7.410   7.700  0.1780  0.1835  0.4288
  121MOL0     C15894   7.282   7.129   8.023 -0.2080 -0.0304  0.1149
  121MOL0     C15895   7.190   7.090   8.121 -0.7829  0.3310  0.5543
  121MOL0     C15896   7.213   6.991   8.217 -0.2285  0.1695 -0.3152
  121MOL0     C15897   7.341   6.920   8.204  0.2655  1.2867  0.3182
  121MOL0     O15898   7.376   6.818   8.295 -0.2957 -0.3506  0.7776
  121MOL0     C15899   7.283   6.751   8.385  0.4421  0.5889 -0.7694
  121MOL0     C15900   7.318   6.607   8.342 -0.2216  0.1938  0.5129
  121MOL0     C15901   7.198   6.509   8.348 -0.3055 -0.2676 -0.9080
  121MOL0     C15902   7.086   6.533   8.243  0.3055  1.1452  1.1288
  121MOL0     C15903   6.983   6.424   8.257 -0.1850  0.1223 -0.2022
  121MOL0     C15904   6.912   6.327   8.271 -0.4071 -0.4283  0.6388
  121MOL0     C15905   7.437   6.960   8.104 -0.3978  0.4519 -0.2766
  121MOL0     C15906   7.413   7.069   8.015  0.4125 -1.0735 -0.2554
  121MOL0     H15907   7.520   7.442   7.800 -0.0583  0.0143 -0.9555
  121MOL0     H15908   7.494   7.653   7.637  0.1919  1.1770  2.6716
  121MOL0     H15909   7.162   7.811   7.399  2.8247  0.9053  2.2434
  121MOL0     H15910   7.130   7.631   7.388  0.5608  0.2351  2.8491
  121MOL0     H15911   7.308   7.591   7.251 -3.5753 -1.2104  4.5359
  121MOL0     H15912   7.348   7.772   7.246 -3.2515  2.7074 -0.3741
  121MOL0     H15913   7.171   7.819   7.109 -0.6748 -0.5346 -0.2180
  121MOL0     H15914   7.100   7.660   7.147 -1.3887  3.1510  0.1459
  121MOL0     H15915   7.371   7.724   7.007  0.5430 -0.4594  3.0071
  121MOL0     H15916   7.297   7.557   7.006  0.5828 -0.5306 -0.7900
  121MOL0     H15917   7.261   7.691   6.773 -2.8997 -1.4638 -1.7882
  121MOL0     H15918   7.161   7.788   6.873 -0.5441  0.4225 -1.1314
  121MOL0     H15919   7.020   7.594   6.913 -0.9891 -1.7637 -1.9981
  121MOL0     H15920   7.131   7.473   6.860  1.2426  0.6674  0.9164
  121MOL0     H15921   6.938   7.568   6.706 -0.0325 -0.3593  1.5071
  121MOL0     H15922   7.060   7.705   6.673  1.1465 -0.4042 -0.2396
  121MOL0     H15923   7.220   7.538   6.621  0.0887 -2.0321  5.8125
  121MOL0     H15924   7.092   7.564   6.501  4.1662  1.2922 -0.3579
  121MOL0     H15925   6.928   7.313   6.770 -1.1505 -1.5692  0.4712
  121MOL0     H15926   6.909   7.066   6.802  0.3162 -1.8266  0.6548
  121MOL0     H15927   7.054   6.971   6.751 -1.1065 -1.5109  2.0797
  121MOL0     H15928   6.799   7.031   6.587 -2.2980 -1.8070  0.1875
  121MOL0     H15929   6.835   6.874   6.663  2.8958 -0.7756  3.8742
  121MOL0     H15930   6.956   7.030   6.416  1.3686  1.3444  1.1519
  121MOL0     H15931   7.036   6.885   6.472  0.4561  0.1974 -2.6130
  121MOL0     H15932   6.859   6.876   6.283 -1.7317  0.0823 -1.2028
  121MOL0     H15933   6.734   6.910   6.406  0.7076  0.9816  1.8099
  121MOL0     H15934   6.599   6.779   6.264 -1.0912 -0.7335  0.5071
  121MOL0     H15935   6.434   6.625   6.201  0.1446  0.1920  0.9319
  121MOL0     H15936   6.590   6.043   6.022  0.6662 -1.3463 -0.3570
  121MOL0     H15937   6.495   5.846   5.948 -1.3131  0.6226 -1.4620
  121MOL0     H15938   6.100   5.728   6.138 -1.2251 -1.7903 -0.1719
  121MOL0     H15939   6.231   5.627   6.168 -0.3108 -0.0225 -0.4898
  121MOL0     H15940   6.089   5.484   6.049 -0.1381 -0.8474  0.1464
  121MOL0     H15941   6.204   5.533   5.930  3.4566  3.3315  1.5270
  121MOL0     H15942   6.034   5.720   5.858  3.4052 -0.9889 -0.5628
  121MOL0     H15943   5.924   5.651   5.980 -2.8364 -0.7462 -2.4833
  121MOL0     H15944   6.060   5.510   5.753 -0.1809  0.4586  0.8028
  121MOL0     H15945   5.938   5.429   5.848 -1.1882  0.7778  1.1214
  121MOL0     H15946   5.911   5.678   5.666  0.2903 -1.3316 -1.8118
  121MOL0     H15947   5.781   5.649   5.783  1.1931 -1.2992  3.8186
  121MOL0     H15948   5.722   5.573   5.560 -0.9056 -1.1259 -1.1144
  121MOL0     H15949   5.739   5.427   5.661  1.4954 -1.0667 -0.9115
  121MOL0     H15950   5.976   5.511   5.462 -0.4179 -1.1323 -2.4379
  121MOL0     H15951   5.983   5.388   5.593  1.7707 -2.1792 -3.1566
  121MOL0     H15952   5.847   5.245   5.486 -0.2407 -0.5983  0.1827
  121MOL0     H15953   5.927   5.329   5.349  1.4389  1.6992  1.0565
  121MOL0     H15954   6.167   5.908   6.203  1.3682 -3.4297  0.9814
  121MOL0     H15955   6.272   6.117   6.290  1.4413  0.3377  0.5201
  121MOL0     H15956   6.675   6.304   6.380  3.0344  2.0708  3.3381
  121MOL0     H15957   6.813   6.467   6.460  0.4995  1.9894 -0.5586
  121MOL0     H15958   7.091   7.547   7.577  1.1909  0.7790 -3.5267
  121MOL0     H15959   7.119   7.336   7.704  0.5867 -0.2614  0.4742
  121MOL0     H15960   7.085   7.117   8.111 -0.8757 -0.6190 -1.6006
  121MOL0     H15961   7.136   6.955   8.284  0.7689 -3.4048 -0.8752
  121MOL0     H15962   7.176   6.775   8.374  0.3515  0.6855  0.2643
  121MOL0     H15963   7.295   6.773   8.491 -0.7900 -0.5600 -0.3648
  121MOL0     H15964   7.338   6.603   8.235 -2.7327  0.6480 -0.0455
  121MOL0     H15965   7.405   6.568   8.395  0.1411 -3.5102 -2.4010
  121MOL0     H15966   7.152   6.507   8.447  1.0049  1.0345 -0.2284
  121MOL0     H15967   7.246   6.414   8.323  2.9677  1.5927 -2.5342
  121MOL0     H15968   7.050   6.636   8.251 -4.8550  0.0340 -2.6273
  121MOL0     H15969   7.122   6.519   8.141  0.2339  0.3462  1.2098
  121MOL0     H15970   6.861   6.233   8.279 -2.3958  0.5286 -0.1383
  121MOL0     H15971   7.535   6.914   8.106  0.1676  1.4710  4.0245
  121MOL0     H15972   7.500   7.100   7.958  0.6121  1.0522  1.0822
  122MOL0     O15973   1.656  11.036  10.326 -0.6606  0.6254  0.6021
  122MOL0     C15974   1.629  11.012  10.444  1.0120  0.5045  0.1683
  122MOL0     O15975   1.543  11.086  10.523 -0.8466 -0.0580 -0.9247
  122MOL0     C15976   1.523  11.209  10.471  0.5928  0.6769 -0.6556
  122MOL0     C15977   1.622  11.301  10.436  0.7723  0.0034 -0.3058
  122MOL0     C15978   1.588  11.427  10.403  0.4203 -0.3790  0.6427
  122MOL0     C15979   1.463  11.484  10.430  0.5614 -0.5952  0.1776
  122MOL0     O15980   1.415  11.617  10.409 -0.0920  0.2412  0.3247
  122MOL0     C15981   1.519  11.702  10.362  1.2841  0.2519 -0.4354
  122MOL0     C15982   1.475  11.849  10.387 -0.1739 -0.8128 -0.4306
  122MOL0     C15983   1.490  11.890  10.535 -0.0670  0.1927 -1.1225
  122MOL0     C15984   1.395  11.999  10.590  0.6379  0.4389  0.4906
  122MOL0     C15985   1.275  11.940  10.670  0.5753 -0.7284 -0.4258
  122MOL0     C15986   1.311  11.882  10.812  1.0689 -0.0761 -1.0042
  122MOL0     C15987   1.423  11.949  10.889 -0.0386  0.7252  0.8799
  122MOL0     C15988   1.404  11.948  11.041 -0.3756 -0.6448  0.2875
  122MOL0     N15989   1.484  12.068  11.077 -0.1098  0.2735 -0.1859
  122MOL0     C15990   1.434  12.191  11.087  0.5162 -0.4656  0.7779
  122MOL0     C15991   1.537  12.268  11.128  0.5086  0.1521 -0.5762
  122MOL0     C15992   1.505  12.416  11.160 -0.1715  0.1865 -0.3070
  122MOL0     C15993   1.628  12.487  11.222  0.5375  0.4341  0.3854
  122MOL0     C15994   1.712  12.534  11.102 -0.2474 -0.1328  0.3344
  122MOL0     C15995   1.843  12.584  11.157 -0.7238  0.7892 -0.0790
  122MOL0     O15996   1.903  12.690  11.083  0.9862 -0.0990  0.0673
  122MOL0     C15997   1.892  12.676  10.949  0.0210  0.3985 -0.2836
  122MOL0     C15998   1.816  12.752  10.869 -0.4106 -0.0778  0.1649
  122MOL0     C15999   1.817  12.748  10.726  0.3230 -0.4008  0.5909
  122MOL0     C16000   1.914  12.672  10.661 -0.4681 -0.2149 -0.4008
  122MOL0     C16001   1.917  12.654  10.519  1.1843  0.2496 -0.2168
  122MOL0     O16002   1.798  12.678  10.459 -0.0190  0.0559  0.1058
  122MOL0     C16003   1.782  12.639  10.323  0.6330 -0.7692 -0.2667
  122MOL0     C16004   1.849  12.547  10.245  0.4066  0.6823  0.5868
  122MOL0     C16005   1.801  12.524  10.111 -0.0642 -0.3495  0.1376
  122MOL0     C16006   1.689  12.589  10.060  1.3676  0.0105  1.0394
  122MOL0     O16007   1.631  12.570   9.937 -0.2657  0.3422 -0.3147
  122MOL0     C16008   1.714  12.531   9.825  0.2316  0.3629  0.3401
  122MOL0     C16009   1.799  12.659   9.798  0.3754 -0.3563 -0.0481
  122MOL0     C16010   1.877  12.660   9.665  0.2337 -0.1011 -0.2351
  122MOL0     C16011   2.020  12.599   9.685 -0.4676  0.3405  0.3070
  122MOL0     C16012   2.081  12.572   9.543  0.5814 -0.2820 -0.1772
  122MOL0     C16013   2.089  12.427   9.500  0.2194 -0.1078 -0.1132
  122MOL0     C16014   2.233  12.376   9.532  1.1255 -0.0028  0.1698
  122MOL0     C16015   2.250  12.229   9.490  0.7564  0.7358  0.4172
  122MOL0    Cl16016   2.387  12.143   9.553 -0.3143 -0.2337  0.2708
  122MOL0     C16017   1.620  12.680  10.136 -0.0655  0.3930  0.3697
  122MOL0     C16018   1.667  12.701  10.259 -0.3277  0.3682  0.2768
  122MOL0     O16019   2.017  12.617  10.470  0.5137 -0.7972 -0.3551
  122MOL0     C16020   2.000  12.598  10.746 -0.5399  0.3956  0.0373
  122MOL0     C16021   1.984  12.589  10.890 -1.1763  0.5961 -0.4777
  122MOL0     N16022   1.645  12.191  11.146  0.0371 -0.0713 -0.0872
  122MOL0     N16023   1.615  12.073  11.116 -0.4357  0.1528  0.0706
  122MOL0     C16024   1.361  11.393  10.470 -0.1593  0.5227  0.5462
  122MOL0     C16025   1.394  11.254  10.493  0.4373  0.2172 -1.1145
  122MOL0     C16026   1.677  10.881  10.495  0.3598  0.2921 -0.5375
  122MOL0     C16027   1.666  10.851  10.637 -0.1648  0.8529 -0.9269
  122MOL0     C16028   1.742  10.742  10.680  0.0189 -0.1495 -0.6084
  122MOL0     C16029   1.813  10.650  10.585  0.8792 -0.8443 -1.2135
  122MOL0     O16030   1.883  10.543  10.628  0.2594 -0.1980 -0.0045
  122MOL0     C16031   2.000  10.573  10.712 -0.1642 -0.3069  0.5560
  122MOL0     C16032   2.116  10.637  10.649 -0.4531  0.1256  0.1831
  122MOL0     C16033   2.238  10.629  10.745  1.4735 -0.7458 -0.1582
  122MOL0     C16034   2.340  10.731  10.691  0.1231 -0.7312  0.5090
  122MOL0     C16035   2.460  10.720  10.770  0.0629  0.0743  0.5592
  122MOL0     C16036   2.557  10.727  10.835 -0.7990  0.6243 -0.7618
  122MOL0     C16037   1.795  10.667  10.445  0.0533 -0.4237 -0.9907
  122MOL0     C16038   1.728  10.783  10.397  0.5569  0.4571 -0.2311
  122MOL0     H16039   1.726  11.269  10.435  0.3809 -2.1363  4.1446
  122MOL0     H16040   1.672  11.487  10.368  1.2128 -1.8808 -0.1105
  122MOL0     H16041   1.529  11.679  10.256  0.5774  0.7174 -0.6111
  122MOL0     H16042   1.609  11.682  10.421 -0.2440 -0.9031  1.6278
  122MOL0     H16043   1.369  11.864  10.361  0.2919  3.7694 -0.4741
  122MOL0     H16044   1.529  11.926  10.332 -0.6663 -1.7147 -2.2594
  122MOL0     H16045   1.594  11.915  10.558 -0.3727  0.9942 -0.5517
  122MOL0     H16046   1.459  11.798  10.585  0.4732  2.7467  4.8241
  122MOL0     H16047   1.441  12.086  10.639 -2.0453  0.4384  3.3373
  122MOL0     H16048   1.351  12.046  10.501 -0.8531 -2.4475 -0.4144
  122MOL0     H16049   1.241  11.853  10.613 -5.2104  0.3958  0.7140
  122MOL0     H16050   1.190  12.009  10.678 -0.2115 -1.5978 -1.0683
  122MOL0     H16051   1.330  11.775  10.801 -0.7090 -0.6564  1.0400
  122MOL0     H16052   1.220  11.888  10.872  0.8576 -3.7562 -0.7592
  122MOL0     H16053   1.519  11.903  10.862 -1.0275 -2.2238  1.9728
  122MOL0     H16054   1.425  12.050  10.848  1.2363  0.3992  0.0650
  122MOL0     H16055   1.436  11.850  11.078  2.4051 -1.2224 -3.0918
  122MOL0     H16056   1.301  11.965  11.073  0.3707  3.4300  1.0490
  122MOL0     H16057   1.335  12.231  11.065  1.4295  0.8508 -1.1196
  122MOL0     H16058   1.422  12.429  11.231 -0.0483 -3.8373  0.8115
  122MOL0     H16059   1.477  12.469  11.069 -0.0183 -0.5065 -0.7595
  122MOL0     H16060   1.674  12.413  11.288 -1.7576 -0.9670  0.5161
  122MOL0     H16061   1.592  12.574  11.278  1.9645  2.5786 -1.7903
  122MOL0     H16062   1.738  12.450  11.036  1.0899  0.0101  0.6430
  122MOL0     H16063   1.653  12.618  11.066  0.5074  0.7904  1.1964
  122MOL0     H16064   1.905  12.494  11.149 -1.0653  0.4288  1.0719
  122MOL0     H16065   1.840  12.604  11.264 -0.5529  1.7709 -0.2532
  122MOL0     H16066   1.757  12.830  10.918 -0.5796  0.6944 -1.2140
  122MOL0     H16067   1.743  12.798  10.663  0.4011 -2.7643 -1.5325
  122MOL0     H16068   1.928  12.487  10.289 -1.4738 -2.5663 -0.1284
  122MOL0     H16069   1.851  12.449  10.050 -0.7537  1.3101 -2.6809
  122MOL0     H16070   1.660  12.506   9.734  0.8619  1.6184 -0.4008
  122MOL0     H16071   1.776  12.445   9.853  1.2710  1.2908  0.9832
  122MOL0     H16072   1.868  12.678   9.881  3.7063  0.1262 -2.6947
  122MOL0     H16073   1.742  12.752   9.804  0.7943 -0.1801  2.8649
  122MOL0     H16074   1.891  12.763   9.633  2.1363  0.3615  1.8262
  122MOL0     H16075   1.828  12.601   9.587 -0.5915 -1.1300  1.0033
  122MOL0     H16076   2.090  12.674   9.723  1.2603 -0.1095 -1.8295
  122MOL0     H16077   2.025  12.504   9.739  0.7930  0.6819  0.8240
  122MOL0     H16078   2.178  12.622   9.542  0.3979  0.0819  0.0601
  122MOL0     H16079   2.026  12.616   9.459 -1.8521  0.1449  1.5332
  122MOL0     H16080   2.065  12.412   9.394 -2.4034 -0.0438  0.3885
  122MOL0     H16081   2.017  12.369   9.558 -1.9364  0.8275 -1.6704
  122MOL0     H16082   2.316  12.435   9.491  0.5912  2.5226  2.4618
  122MOL0     H16083   2.271  12.393   9.633  2.6802  0.6628 -0.4956
  122MOL0     H16084   2.263  12.226   9.381 -2.6712  1.3356 -0.1183
  122MOL0     H16085   2.161  12.176   9.523  1.8438 -0.9761  0.7333
  122MOL0     H16086   1.541  12.744  10.097  1.5317  2.3574  0.1628
  122MOL0     H16087   1.630  12.780  10.324  1.9034  3.1082 -1.5606
  122MOL0     H16088   2.084  12.545  10.701 -1.1834 -0.6943  0.0932
  122MOL0     H16089   2.058  12.535  10.948 -0.5427  0.2297 -1.6030
  122MOL0     H16090   1.261  11.435  10.484 -0.7849 -0.2616 -1.3291
  122MOL0     H16091   1.316  11.190  10.532 -0.2921  1.0163 -1.2345
  122MOL0     H16092   1.619  10.921  10.705  0.8077  2.9905 -2.3479
  122MOL0     H16093   1.754  10.734  10.787  1.0016  0.5993 -0.6570
  122MOL0     H16094   2.040  10.477  10.745  0.3374 -0.0414  0.7351
  122MOL0     H16095   1.973  10.636  10.797  0.5245  0.1701  0.4277
  122MOL0     H16096   2.135  10.574  10.561 -2.3963  0.3399 -0.4567
  122MOL0     H16097   2.086  10.739  10.621 -0.3746 -0.2551 -1.3989
  122MOL0     H16098   2.269  10.525  10.734  1.5226 -0.9992  1.9777
  122MOL0     H16099   2.205  10.637  10.849 -3.0700 -1.3212 -1.3208
  122MOL0     H16100   2.354  10.731  10.583 -0.3429  1.6759  0.3944
  122MOL0     H16101   2.302  10.834  10.700  5.8138  2.5409 -4.8289
  122MOL0     H16102   2.642  10.735  10.899  0.0432 -3.0615 -1.1837
  122MOL0     H16103   1.844  10.598  10.378  2.9153  3.4090 -3.2483
  122MOL0     H16104   1.716  10.778  10.289  1.2750  1.4090 -0.3592
  123MOL0     O16105   4.959   8.450   8.440 -0.1347 -0.2796  1.0800
  123MOL0     C16106   4.893   8.468   8.538  1.6076 -0.6507 -0.0021
  123MOL0     O16107   4.759   8.505   8.542  0.6918  0.8475 -0.5712
  123MOL0     C16108   4.701   8.512   8.410 -0.3300 -0.0258  0.4472
  123MOL0     C16109   4.661   8.635   8.355 -0.3507 -0.0283  0.4661
  123MOL0     C16110   4.606   8.645   8.223 -0.0753  0.4313 -1.4116
  123MOL0     C16111   4.595   8.529   8.139  0.8835  0.7053 -1.4250
  123MOL0     O16112   4.551   8.525   8.011 -0.5231  0.5266 -0.0917
  123MOL0     C16113   4.437   8.610   7.985  0.6842 -0.6414  0.7254
  123MOL0     C16114   4.491   8.746   7.926  0.1108 -0.2810 -0.7371
  123MOL0     C16115   4.537   8.740   7.773 -1.0496  0.9294 -0.0582
  123MOL0     C16116   4.615   8.864   7.735  0.0536 -1.7142 -0.8430
  123MOL0     C16117   4.641   8.861   7.587 -0.6632  0.3140  0.2807
  123MOL0     C16118   4.521   8.897   7.499  0.3219 -0.2665  0.3347
  123MOL0     C16119   4.563   8.950   7.366  0.3682 -0.3824  0.3472
  123MOL0     C16120   4.608   9.092   7.365 -0.8612  0.2652 -0.7874
  123MOL0     N16121   4.505   9.196   7.370 -0.1572 -0.5751  0.1496
  123MOL0     C16122   4.482   9.290   7.262 -0.4387  0.0817 -0.6289
  123MOL0     C16123   4.387   9.372   7.299 -0.2654 -0.1501  0.0778
  123MOL0     C16124   4.335   9.496   7.235  0.0152  0.2411  0.7407
  123MOL0     C16125   4.450   9.595   7.217  0.2808  0.3588  0.0780
  123MOL0     C16126   4.404   9.710   7.123  0.1939 -0.1225  0.1952
  123MOL0     C16127   4.280   9.782   7.166  0.2311  0.5561  0.1064
  123MOL0     O16128   4.261   9.901   7.087 -0.5632  0.6935  0.2550
  123MOL0     C16129   4.130   9.955   7.087 -0.3113  1.0727  0.0599
  123MOL0     C16130   4.024   9.924   7.172 -0.2407  0.6957  0.5056
  123MOL0     C16131   3.893   9.983   7.152 -0.1149 -0.6221  0.5028
  123MOL0     C16132   3.870  10.068   7.046  0.5346 -0.2545 -0.0515
  123MOL0     C16133   3.729  10.120   7.021  0.7096  0.2545  0.6774
  123MOL0     O16134   3.611  10.059   7.047  0.1265 -0.4733 -0.1485
  123MOL0     C16135   3.517  10.151   7.108 -0.1896  1.1602  0.0690
  123MOL0     C16136   3.380  10.127   7.094 -0.1521 -0.0040  0.5091
  123MOL0     C16137   3.280  10.216   7.136  0.2712 -1.0601  0.8597
  123MOL0     C16138   3.312  10.313   7.229 -0.1316 -0.5892  0.4873
  123MOL0     O16139   3.235  10.390   7.308  0.5253  0.2085  0.1036
  123MOL0     C16140   3.088  10.395   7.284 -0.7888  0.2810 -0.5975
  123MOL0     C16141   3.054  10.457   7.150 -0.1358  0.3315  0.0885
  123MOL0     C16142   2.902  10.475   7.145 -0.5024  0.7358  0.5488
  123MOL0     C16143   2.861  10.553   7.019  0.2525  0.6313  1.1550
  123MOL0     C16144   2.709  10.548   7.007 -0.4146 -0.7412  0.9962
  123MOL0     C16145   2.648  10.670   6.925 -0.6877  0.6365 -0.4830
  123MOL0     C16146   2.663  10.809   6.980 -0.0071 -0.4951  0.1115
  123MOL0     C16147   2.717  10.906   6.870  0.6102  0.4750 -0.7089
  123MOL0    Cl16148   2.877  10.854   6.804  0.0249 -0.0103 -0.2952
  123MOL0     C16149   3.446  10.343   7.248  0.2182  0.4637 -0.0776
  123MOL0     C16150   3.551  10.264   7.193  0.9326  0.8717  0.3696
  123MOL0     O16151   3.743  10.228   6.978  0.4991  0.7196  0.7215
  123MOL0     C16152   3.982  10.105   6.967 -0.2000  0.4409 -0.0493
  123MOL0     C16153   4.111  10.051   6.994  0.3387  0.5105 -0.5799
  123MOL0     N16154   4.347   9.333   7.432  0.1009 -0.2387  0.3135
  123MOL0     N16155   4.415   9.222   7.468  0.0588 -0.1920 -0.1792
  123MOL0     C16156   4.654   8.405   8.197  0.1989 -0.1464  0.0506
  123MOL0     C16157   4.704   8.405   8.324 -0.5389  0.7718 -0.6239
  123MOL0     C16158   4.930   8.422   8.679  0.9395 -0.5507  0.4070
  123MOL0     C16159   5.066   8.401   8.705  0.1180  0.3340  0.0115
  123MOL0     C16160   5.117   8.384   8.835 -0.2694  0.8741  1.1832
  123MOL0     C16161   5.023   8.374   8.937 -0.1704 -0.0076 -0.7280
  123MOL0     O16162   5.066   8.370   9.068 -0.4659  0.1335 -0.0290
  123MOL0     C16163   5.209   8.358   9.111 -0.0483 -0.0391  0.3056
  123MOL0     C16164   5.287   8.241   9.069 -0.3844 -0.0391  0.1410
  123MOL0     C16165   5.222   8.100   9.108  0.2348  1.2012 -0.1813
  123MOL0     C16166   5.255   8.071   9.265 -0.1082 -0.5852  0.5729
  123MOL0     C16167   5.211   7.938   9.293  0.1321 -1.0834 -0.7266
  123MOL0     C16168   5.155   7.832   9.319  0.1338 -0.3775 -0.0407
  123MOL0     C16169   4.889   8.402   8.911  0.1564 -0.2486  0.4001
  123MOL0     C16170   4.833   8.413   8.779 -0.9068  0.8103  0.0446
  123MOL0     H16171   4.681   8.723   8.416 -2.4645  1.9209 -1.4528
  123MOL0     H16172   4.570   8.743   8.197 -0.3589  1.4212  2.1889
  123MOL0     H16173   4.375   8.633   8.073  2.6087  1.3711  1.6492
  123MOL0     H16174   4.370   8.553   7.919  0.8693 -1.8333  1.5264
  123MOL0     H16175   4.575   8.784   7.984  1.7745  0.1439 -3.2782
  123MOL0     H16176   4.419   8.828   7.929 -0.3955 -0.7346 -0.0488
  123MOL0     H16177   4.453   8.736   7.703 -1.1454  0.9776  0.0547
  123MOL0     H16178   4.595   8.649   7.755  0.3430  2.0805 -1.6179
  123MOL0     H16179   4.552   8.952   7.747 -1.1946 -2.7014  0.0748
  123MOL0     H16180   4.709   8.878   7.790 -0.4772  0.5161 -0.3837
  123MOL0     H16181   4.674   8.760   7.561  1.3729  1.4065 -1.6782
  123MOL0     H16182   4.730   8.920   7.562  2.4994 -5.0592 -3.2162
  123MOL0     H16183   4.449   8.962   7.549  0.2012 -1.4580  1.7788
  123MOL0     H16184   4.457   8.809   7.486  0.7435 -0.4728 -0.4313
  123MOL0     H16185   4.623   8.874   7.315 -4.0575 -4.6204  0.6689
  123MOL0     H16186   4.474   8.942   7.304 -0.3165 -0.0801  1.2734
  123MOL0     H16187   4.677   9.111   7.283 -0.1353 -0.0527 -0.2607
  123MOL0     H16188   4.649   9.125   7.461 -3.3533 -1.3645  0.9543
  123MOL0     H16189   4.543   9.300   7.173  1.6762  1.0459  0.8624
  123MOL0     H16190   4.250   9.533   7.293 -1.2727  1.0443 -1.5639
  123MOL0     H16191   4.292   9.474   7.137  1.5811  0.8168 -0.1022
  123MOL0     H16192   4.535   9.549   7.165  1.4320 -2.0304  3.7016
  123MOL0     H16193   4.481   9.645   7.309 -2.9958  1.7582  0.5519
  123MOL0     H16194   4.484   9.784   7.111 -0.5517  1.8067  4.7838
  123MOL0     H16195   4.385   9.662   7.027 -1.5390  2.2785 -0.7602
  123MOL0     H16196   4.279   9.805   7.273  1.2840  0.7275  0.0893
  123MOL0     H16197   4.198   9.711   7.146  2.2054 -1.3151 -1.8463
  123MOL0     H16198   4.041   9.845   7.243 -0.9103 -1.1326 -1.2749
  123MOL0     H16199   3.816   9.946   7.219  0.4521 -2.0164  0.4227
  123MOL0     H16200   3.341  10.039   7.044 -2.1396  0.2259  1.5625
  123MOL0     H16201   3.177  10.192   7.111  0.1892 -1.4230  1.5290
  123MOL0     H16202   3.043  10.452   7.366 -0.9008 -0.6416 -0.0066
  123MOL0     H16203   3.050  10.293   7.290  1.8090 -0.7138  3.7441
  123MOL0     H16204   3.087  10.397   7.065  0.4152 -0.8017  1.0645
  123MOL0     H16205   3.094  10.558   7.143  1.8502 -0.3674  0.5393
  123MOL0     H16206   2.858  10.528   7.230 -0.4491  2.1400 -0.2756
  123MOL0     H16207   2.864  10.372   7.143  1.9734 -0.2351 -0.5146
  123MOL0     H16208   2.908  10.652   7.013  0.3991  0.4634 -1.0796
  123MOL0     H16209   2.904  10.497   6.936 -1.2964  1.7224 -0.4660
  123MOL0     H16210   2.672  10.554   7.110  1.2027 -1.7088  1.6736
  123MOL0     H16211   2.689  10.464   6.940  3.8827  0.4958 -2.3204
  123MOL0     H16212   2.541  10.649   6.912 -0.3415 -0.1755 -2.2540
  123MOL0     H16213   2.696  10.662   6.827 -0.4254 -2.1271 -0.2078
  123MOL0     H16214   2.566  10.846   7.015 -0.4173 -0.3221 -1.1379
  123MOL0     H16215   2.726  10.820   7.068 -2.6063  2.5198  1.8137
  123MOL0     H16216   2.717  11.003   6.919 -0.8280  0.4539 -0.6138
  123MOL0     H16217   2.643  10.916   6.790 -3.6204  1.8793  2.9557
  123MOL0     H16218   3.455  10.431   7.311 -0.7081  0.3185  0.2770
  123MOL0     H16219   3.644  10.319   7.205 -0.0883  2.3541  2.1067
  123MOL0     H16220   3.983  10.175   6.883 -1.5600  1.2429  0.5741
  123MOL0     H16221   4.198  10.061   6.931  0.5732 -3.8701 -1.2531
  123MOL0     H16222   4.655   8.319   8.131 -1.7090 -1.2380  1.3214
  123MOL0     H16223   4.747   8.313   8.361 -0.8813  0.4074 -1.1076
  123MOL0     H16224   5.133   8.399   8.620 -0.4994  1.5229 -0.5262
  123MOL0     H16225   5.221   8.363   8.859 -0.0314 -0.7760 -1.0182
  123MOL0     H16226   5.218   8.361   9.220 -2.5663  0.6436  0.5662
  123MOL0     H16227   5.266   8.445   9.076 -0.6553  0.2569  0.0413
  123MOL0     H16228   5.323   8.243   8.965 -4.9971 -0.1225 -1.7155
  123MOL0     H16229   5.381   8.240   9.124 -1.6333 -0.0068  2.3596
  123MOL0     H16230   5.275   8.021   9.053 -2.1440 -1.1052  0.5975
  123MOL0     H16231   5.114   8.096   9.088  0.1837 -0.4246  0.3186
  123MOL0     H16232   5.362   8.073   9.286 -0.6400  0.4435  3.5973
  123MOL0     H16233   5.199   8.135   9.335 -1.0138 -0.8705  0.1214
  123MOL0     H16234   5.094   7.748   9.345 -0.7211  0.3780  0.4586
  123MOL0     H16235   4.817   8.398   8.993 -0.4828 -2.6407 -0.1726
  123MOL0     H16236   4.725   8.419   8.767 -1.0079 -1.1439 -0.3020
  124MOL0     O16237   9.098   1.251   7.847 -0.3603 -0.2509 -0.0948
  124MOL0     C16238   9.218   1.216   7.845 -0.8804  0.1400 -0.2660
  124MOL0     O16239   9.264   1.103   7.897 -0.2382 -0.1988  0.5155
  124MOL0     C16240   9.178   1.009   7.941 -0.6048  0.9222 -0.1226
  124MOL0     C16241   9.057   0.978   7.870 -0.0126 -0.2758  0.4670
  124MOL0     C16242   8.986   0.861   7.910 -0.0977  0.2336 -0.2001
  124MOL0     C16243   9.038   0.780   8.022  0.0778 -0.3350  0.4375
  124MOL0     O16244   8.969   0.679   8.066  0.3290 -0.3166  0.8730
  124MOL0     C16245   8.835   0.698   8.121 -0.4219  0.0845  0.0309
  124MOL0     C16246   8.842   0.664   8.269 -0.5569 -0.0541 -0.5769
  124MOL0     C16247   8.900   0.779   8.350 -0.7873  0.0040 -0.1592
  124MOL0     C16248   8.878   0.778   8.504  1.1324  0.1544 -0.2949
  124MOL0     C16249   8.920   0.901   8.581  0.1887  0.0514  1.1720
  124MOL0     C16250   9.070   0.917   8.573 -0.0735 -0.1657 -0.5509
  124MOL0     C16251   9.091   1.018   8.691  0.4932  0.1882 -0.1587
  124MOL0     C16252   9.231   1.075   8.692 -0.5755  0.1080 -0.2550
  124MOL0     N16253   9.247   1.187   8.783 -0.0010  0.7805  0.8528
  124MOL0     C16254   9.181   1.309   8.767 -0.2531  0.2948 -0.3296
  124MOL0     C16255   9.213   1.382   8.878  0.2950 -0.6251  0.1586
  124MOL0     C16256   9.164   1.524   8.911  1.2012  0.2087  0.2913
  124MOL0     C16257   9.088   1.529   9.040 -0.5389  0.3962  1.1863
  124MOL0     C16258   9.048   1.671   9.077  0.4150 -0.7986 -0.2233
  124MOL0     C16259   9.008   1.672   9.225 -0.5906  0.0635 -0.5782
  124MOL0     O16260   9.128   1.656   9.311  0.2171 -0.2682 -0.1793
  124MOL0     C16261   9.200   1.772   9.344 -0.0708  0.0395 -0.0361
  124MOL0     C16262   9.167   1.899   9.297 -0.4569  0.3950  0.7040
  124MOL0     C16263   9.243   2.005   9.328 -0.4036  0.3799 -0.1826
  124MOL0     C16264   9.361   1.990   9.405 -0.0370  0.5151 -0.1974
  124MOL0     C16265   9.448   2.113   9.437  0.2330  0.3478 -0.1938
  124MOL0     O16266   9.386   2.229   9.425 -0.8047 -0.5958  0.3329
  124MOL0     C16267   9.446   2.344   9.459 -0.3582  0.2122  0.1726
  124MOL0     C16268   9.403   2.429   9.564 -0.9012 -0.0345  1.4817
  124MOL0     C16269   9.469   2.546   9.588  0.2496  0.3632  0.5683
  124MOL0     C16270   9.594   2.570   9.529 -0.0082  0.5519  0.4752
  124MOL0     O16271   9.672   2.680   9.555 -0.6058  0.0972 -0.7011
  124MOL0     C16272   9.618   2.780   9.644  0.0316 -0.4766  0.4540
  124MOL0     C16273   9.716   2.890   9.649  0.2894  1.4389 -0.2324
  124MOL0     C16274   9.736   2.954   9.507  0.1204  0.1958 -0.3683
  124MOL0     C16275   9.840   3.067   9.514 -0.1456  0.4931 -0.4282
  124MOL0     C16276   9.983   3.036   9.521 -0.6203 -0.5927 -0.7199
  124MOL0     C16277  10.075   3.121   9.434 -0.1145 -1.0430 -0.4135
  124MOL0     C16278  10.221   3.110   9.465 -0.8351 -0.7752  0.1889
  124MOL0     C16279  10.295   3.119   9.331 -0.6604 -0.4000 -0.2330
  124MOL0    Cl16280  10.237   3.247   9.234  0.1453 -0.3056 -0.1096
  124MOL0     C16281   9.640   2.487   9.425  0.0110 -0.6286 -0.1206
  124MOL0     C16282   9.569   2.372   9.394 -0.3554  0.1177 -0.5668
  124MOL0     O16283   9.548   2.090   9.499  0.0344 -0.3096 -0.1032
  124MOL0     C16284   9.410   1.858   9.443  0.3332 -0.2495 -0.0472
  124MOL0     C16285   9.317   1.752   9.412  0.1654  0.4883  0.3306
  124MOL0     N16286   9.280   1.298   8.964  0.3802 -0.2816  0.1624
  124MOL0     N16287   9.306   1.184   8.900 -0.0565 -1.0605  0.0487
  124MOL0     C16288   9.161   0.805   8.079  0.0969 -0.0943 -0.4378
  124MOL0     C16289   9.231   0.921   8.042  1.0946  0.8086 -0.1611
  124MOL0     C16290   9.315   1.307   7.772 -0.5685  1.0629  0.3339
  124MOL0     C16291   9.281   1.442   7.745  0.0090  0.8989  0.1238
  124MOL0     C16292   9.349   1.531   7.666 -0.5298  0.4773  1.1366
  124MOL0     C16293   9.487   1.501   7.634  0.2627 -0.5239 -0.1523
  124MOL0     O16294   9.560   1.596   7.565 -1.4529 -0.6763  0.5893
  124MOL0     C16295   9.668   1.558   7.470  0.2712 -0.0863 -0.4191
  124MOL0     C16296   9.637   1.651   7.359 -0.0244  0.5097 -0.5617
  124MOL0     C16297   9.697   1.785   7.384  0.1322 -0.1636 -0.8837
  124MOL0     C16298   9.671   1.897   7.274  0.2900 -0.2292 -0.2331
  124MOL0     C16299   9.532   1.952   7.280 -0.5615  0.4699 -0.0708
  124MOL0     C16300   9.426   2.000   7.278  0.1922  0.5870 -0.7451
  124MOL0     C16301   9.534   1.383   7.685 -0.2431 -0.1430  0.8409
  124MOL0     C16302   9.448   1.282   7.739 -0.5593  0.2978  0.5344
  124MOL0     H16303   9.021   1.050   7.798 -2.5229  2.5569  4.1690
  124MOL0     H16304   8.894   0.838   7.858  0.3516  0.4554 -1.1115
  124MOL0     H16305   8.758   0.632   8.081 -1.1634 -0.1593  1.7691
  124MOL0     H16306   8.800   0.800   8.105  2.7518  1.5984  1.6298
  124MOL0     H16307   8.877   0.562   8.287 -2.5472 -0.6093  0.5090
  124MOL0     H16308   8.743   0.643   8.311 -0.5987 -0.4217 -0.8570
  124MOL0     H16309   8.856   0.874   8.317 -3.5213 -1.3918 -0.7519
  124MOL0     H16310   9.007   0.798   8.334 -0.5922 -1.5110 -0.7735
  124MOL0     H16311   8.769   0.771   8.514  1.1461  0.8414  0.4153
  124MOL0     H16312   8.923   0.689   8.549  1.2613 -0.3151 -1.3301
  124MOL0     H16313   8.885   0.874   8.681  1.0612  2.2787  2.1473
  124MOL0     H16314   8.865   0.986   8.542  0.0583 -1.2994 -1.8224
  124MOL0     H16315   9.090   0.962   8.475  2.0021  2.8750  1.0974
  124MOL0     H16316   9.138   0.832   8.586 -0.2989 -0.1551  0.8732
  124MOL0     H16317   9.020   1.098   8.670  0.0009 -0.3929 -0.7583
  124MOL0     H16318   9.072   0.980   8.791 -0.7719  0.9628 -0.0901
  124MOL0     H16319   9.259   1.091   8.588 -1.4199 -2.0730 -0.8647
  124MOL0     H16320   9.305   0.999   8.717 -2.2921 -1.9697 -1.1978
  124MOL0     H16321   9.120   1.347   8.686 -1.6575  0.5678  0.8129
  124MOL0     H16322   9.098   1.560   8.831  0.9366 -1.9293 -0.5348
  124MOL0     H16323   9.243   1.599   8.917  0.1795  1.2694  0.8684
  124MOL0     H16324   9.159   1.486   9.111  0.0986  2.5135  1.9196
  124MOL0     H16325   8.999   1.466   9.026 -0.7073  0.7486  0.6306
  124MOL0     H16326   9.142   1.726   9.063 -1.4284  2.4471 -0.7236
  124MOL0     H16327   8.967   1.713   9.016  0.6315  0.2137  0.1695
  124MOL0     H16328   8.937   1.591   9.245  0.5227 -0.7133  0.3640
  124MOL0     H16329   8.955   1.761   9.263  1.9460  0.1417  3.3850
  124MOL0     H16330   9.087   1.913   9.226  1.3895  4.1828 -0.8987
  124MOL0     H16331   9.204   2.096   9.281  1.2882  0.7575 -0.9402
  124MOL0     H16332   9.311   2.416   9.621 -3.3296  3.3261 -1.2092
  124MOL0     H16333   9.424   2.605   9.668 -1.1425  0.9429 -0.5867
  124MOL0     H16334   9.601   2.731   9.740 -2.0590  0.5156  0.6351
  124MOL0     H16335   9.523   2.825   9.613  0.8088  0.5950 -0.4621
  124MOL0     H16336   9.811   2.855   9.691 -1.1800 -3.9581 -0.6651
  124MOL0     H16337   9.679   2.970   9.713 -0.6776  1.4525 -0.7960
  124MOL0     H16338   9.641   3.002   9.484  0.3177  0.3840 -0.7985
  124MOL0     H16339   9.767   2.888   9.426  2.6872  1.8471 -0.8483
  124MOL0     H16340   9.832   3.104   9.412 -3.0228  0.8329 -0.1494
  124MOL0     H16341   9.814   3.152   9.579  4.8493  2.7345 -0.8567
  124MOL0     H16342  10.001   2.934   9.487  0.1081 -1.4886  2.0691
  124MOL0     H16343   9.998   3.053   9.629  1.6905 -0.8901 -0.9385
  124MOL0     H16344  10.038   3.224   9.435  0.8188 -0.6895  0.9994
  124MOL0     H16345  10.058   3.091   9.330 -1.1114 -2.5430  0.1484
  124MOL0     H16346  10.265   3.189   9.528 -3.1804  3.6774 -3.1418
  124MOL0     H16347  10.230   3.022   9.530 -0.2464 -0.2817  0.7943
  124MOL0     H16348  10.296   3.030   9.267  1.2837  1.6679 -3.3302
  124MOL0     H16349  10.402   3.137   9.350 -0.8089  1.0353 -0.6202
  124MOL0     H16350   9.732   2.522   9.380 -1.0184  1.3503 -0.8368
  124MOL0     H16351   9.605   2.304   9.318  2.0374 -2.1029  2.3262
  124MOL0     H16352   9.496   1.838   9.506 -1.1535  0.0482  2.1922
  124MOL0     H16353   9.339   1.650   9.441  0.1843 -0.0131 -1.3403
  124MOL0     H16354   9.205   0.731   8.146  2.3953 -0.3581 -2.1096
  124MOL0     H16355   9.330   0.932   8.085  1.5657  2.5330 -1.5927
  124MOL0     H16356   9.186   1.467   7.791 -0.1476 -2.9674  2.3533
  124MOL0     H16357   9.299   1.619   7.626 -2.8931 -0.9250  0.8558
  124MOL0     H16358   9.667   1.451   7.444 -0.5443 -0.8677  2.4853
  124MOL0     H16359   9.758   1.594   7.519 -1.0053  2.5326  0.2072
  124MOL0     H16360   9.690   1.623   7.268  1.9922  1.8457  0.1363
  124MOL0     H16361   9.528   1.655   7.344 -0.6111  0.7401  2.9534
  124MOL0     H16362   9.804   1.783   7.407  0.1629  5.1865  0.7040
  124MOL0     H16363   9.658   1.826   7.478  0.6337  2.7676 -1.8623
  124MOL0     H16364   9.734   1.979   7.311  1.4767 -1.2777  0.1511
  124MOL0     H16365   9.699   1.879   7.170 -2.2823  4.4218 -2.0465
  124MOL0     H16366   9.331   2.047   7.287 -0.2428 -0.5494  1.2652
  124MOL0     H16367   9.641   1.365   7.688 -0.2316 -2.0008 -3.4700
  124MOL0     H16368   9.493   1.190   7.774 -1.5416 -0.0789  0.8336
  125MOL0     O16369   1.021   0.098   1.617  0.1971  0.1589 -0.4458
  125MOL0     C16370   1.122   0.161   1.651  0.6291 -0.8789 -0.4204
  125MOL0     O16371   1.191   0.152   1.767 -0.2714 -0.4369 -0.1643
  125MOL0     C16372   1.131   0.076   1.867 -0.0684 -0.3019  0.4596
  125MOL0     C16373   1.122  -0.067   1.854 -0.5071 -0.1237  0.5685
  125MOL0     C16374   1.073  -0.139   1.958  0.3721  0.3687  0.3151
  125MOL0     C16375   1.003  -0.078   2.062  0.0187 -0.0321 -0.7917
  125MOL0     O16376   0.931  -0.162   2.151 -0.6708 -0.5505  0.0280
  125MOL0     C16377   0.800  -0.107   2.183 -0.5301  0.5970  0.0463
  125MOL0     C16378   0.707  -0.229   2.195  0.0552 -0.0180  0.3251
  125MOL0     C16379   0.569  -0.181   2.257  0.6334  0.0331  0.3893
  125MOL0     C16380   0.508  -0.051   2.203 -0.0814  0.6679  0.8869
  125MOL0     C16381   0.374  -0.027   2.272 -0.9061  0.0491  0.4560
  125MOL0     C16382   0.332   0.122   2.244 -0.7735 -0.4320 -0.1653
  125MOL0     C16383   0.305   0.156   2.100  0.7079 -0.9918 -0.4355
  125MOL0     C16384   0.233   0.298   2.087  0.9270  0.1161  0.8768
  125MOL0     N16385   0.311   0.404   2.149  0.0090  0.0181  0.3753
  125MOL0     C16386   0.420   0.470   2.100  0.2959 -0.7585 -0.1929
  125MOL0     C16387   0.459   0.553   2.198 -0.2719 -0.9584 -0.2271
  125MOL0     C16388   0.568   0.661   2.170  0.3251  0.3941  0.6667
  125MOL0     C16389   0.598   0.749   2.299 -0.6939 -0.0061  0.1269
  125MOL0     C16390   0.728   0.840   2.278  0.3140  0.0544  0.2684
  125MOL0     C16391   0.754   0.930   2.405  0.3466 -1.5532 -0.1468
  125MOL0     O16392   0.800   0.856   2.518 -0.0595 -0.0860  0.0219
  125MOL0     C16393   0.845   0.932   2.620  0.1315 -0.3454  0.8188
  125MOL0     C16394   0.953   0.883   2.699 -0.3187  0.3317 -0.1809
  125MOL0     C16395   1.016   0.958   2.793  0.9086  0.4277 -0.3032
  125MOL0     C16396   0.963   1.089   2.822 -0.3086  0.1407 -0.4982
  125MOL0     C16397   1.018   1.173   2.930  0.0138 -0.4464 -0.5745
  125MOL0     O16398   0.970   1.303   2.944  0.1562 -0.0511 -0.1285
  125MOL0     C16399   1.009   1.382   3.051  0.4717 -0.7245 -0.7638
  125MOL0     C16400   1.030   1.352   3.182 -0.8500  0.3762  0.3379
  125MOL0     C16401   1.087   1.443   3.281 -0.8279 -0.0912  0.3648
  125MOL0     C16402   1.112   1.570   3.244 -0.8393  0.3802 -0.7865
  125MOL0     O16403   1.184   1.666   3.321  0.8991 -0.7017 -0.8337
  125MOL0     C16404   1.186   1.660   3.468 -0.0537  0.6404  0.2507
  125MOL0     C16405   1.328   1.639   3.526  0.9563  0.1063 -0.6886
  125MOL0     C16406   1.423   1.760   3.507  0.3800  0.0150  0.1801
  125MOL0     C16407   1.488   1.763   3.369  0.0400 -0.8201  0.7740
  125MOL0     C16408   1.605   1.858   3.377 -0.3749 -0.0790 -0.7220
  125MOL0     C16409   1.686   1.861   3.255 -0.8912 -0.3193 -0.1575
  125MOL0     C16410   1.834   1.912   3.290 -0.1312  0.4505 -0.3636
  125MOL0     C16411   1.919   1.946   3.168  0.4518  0.5928 -0.2215
  125MOL0    Cl16412   2.099   1.923   3.216 -0.4843  0.2505  0.3264
  125MOL0     C16413   1.069   1.611   3.111 -0.3023  0.2690 -0.5803
  125MOL0     C16414   1.018   1.518   3.018 -0.1700  1.0110 -1.1144
  125MOL0     O16415   1.115   1.129   2.993 -0.1651  1.0755 -0.1067
  125MOL0     C16416   0.851   1.129   2.746 -0.1366 -0.8150 -0.4806
  125MOL0     C16417   0.796   1.058   2.646  1.2703  0.1820  0.6754
  125MOL0     N16418   0.391   0.528   2.312 -0.4181 -1.1514  0.5821
  125MOL0     N16419   0.303   0.440   2.282 -0.4780  0.1876  0.9237
  125MOL0     C16420   0.995   0.057   2.071  0.1164  0.2051  0.2613
  125MOL0     C16421   1.070   0.132   1.977 -0.1127  0.1409 -0.7839
  125MOL0     C16422   1.183   0.261   1.555  0.0117 -0.6836  0.1011
  125MOL0     C16423   1.117   0.296   1.441  0.4855  0.0379  1.3947
  125MOL0     C16424   1.162   0.401   1.363 -0.3256 -0.2836 -0.1580
  125MOL0     C16425   1.285   0.469   1.388 -0.3222  0.8108  0.0680
  125MOL0     O16426   1.337   0.555   1.302  0.7896  0.2794  1.2331
  125MOL0     C16427   1.281   0.593   1.167 -0.0555  0.1711  0.9726
  125MOL0     C16428   1.291   0.478   1.068 -0.4742 -0.2579 -0.5016
  125MOL0     C16429   1.399   0.506   0.962 -0.8965  0.1161  0.5082
  125MOL0     C16430   1.536   0.464   1.022 -0.1356  0.1357  0.3006
  125MOL0     C16431   1.647   0.427   0.932 -0.5839 -0.2836 -0.1471
  125MOL0     C16432   1.752   0.387   0.874 -0.5679  0.3828 -0.3102
  125MOL0     C16433   1.349   0.439   1.512  0.0374 -0.0229 -0.2929
  125MOL0     C16434   1.300   0.340   1.594  0.4063 -0.0777 -1.1363
  125MOL0     H16435   1.151  -0.118   1.763 -1.4065 -0.4094  0.4378
  125MOL0     H16436   1.078  -0.247   1.943  0.6331  0.3430  0.5919
  125MOL0     H16437   0.761  -0.023   2.123 -1.1346  0.0126 -0.3929
  125MOL0     H16438   0.810  -0.056   2.279  0.2008  1.3603 -0.4157
  125MOL0     H16439   0.751  -0.299   2.267 -0.9872 -0.1461  0.8610
  125MOL0     H16440   0.696  -0.289   2.105 -1.4831 -1.0293  1.1351
  125MOL0     H16441   0.572  -0.168   2.365 -1.1225  0.9798  0.3600
  125MOL0     H16442   0.485  -0.251   2.243  1.0301 -0.7861  1.9196
  125MOL0     H16443   0.575   0.034   2.215  1.7246 -0.7946  1.6886
  125MOL0     H16444   0.484  -0.068   2.098 -1.0743  0.4761  1.1296
  125MOL0     H16445   0.380  -0.047   2.379 -5.5651 -2.5366  0.4914
  125MOL0     H16446   0.297  -0.091   2.228  1.9178 -3.8539  0.7380
  125MOL0     H16447   0.408   0.193   2.276 -1.5168  0.3519 -0.1048
  125MOL0     H16448   0.243   0.137   2.306 -1.8346 -0.8491 -1.5402
  125MOL0     H16449   0.401   0.161   2.047  2.0900  0.2519  1.9914
  125MOL0     H16450   0.246   0.073   2.061  0.9372 -1.3551 -0.0273
  125MOL0     H16451   0.133   0.298   2.131  0.3915 -0.2899 -0.3044
  125MOL0     H16452   0.223   0.330   1.983 -1.1679  1.7104  1.5156
  125MOL0     H16453   0.464   0.479   2.001  0.7339  3.1982  0.1685
  125MOL0     H16454   0.526   0.723   2.090 -2.8748 -2.6484 -0.2425
  125MOL0     H16455   0.653   0.611   2.122  1.0945  2.2951 -0.0586
  125MOL0     H16456   0.619   0.684   2.384  1.3037 -0.0328 -0.3257
  125MOL0     H16457   0.505   0.804   2.318 -0.2564  0.4165  1.1091
  125MOL0     H16458   0.815   0.773   2.276 -1.1177 -1.8792 -0.7104
  125MOL0     H16459   0.716   0.892   2.183 -2.6944  3.8036  2.4196
  125MOL0     H16460   0.653   0.967   2.423  0.9683  0.6528 -0.9115
  125MOL0     H16461   0.819   1.012   2.373 -2.6952  2.4763  2.9150
  125MOL0     H16462   0.993   0.783   2.691  3.3756  1.8118 -3.8495
  125MOL0     H16463   1.091   0.904   2.851 -0.9545 -1.6620  0.2870
  125MOL0     H16464   1.012   1.249   3.209 -1.4240  0.1213 -0.9482
  125MOL0     H16465   1.099   1.404   3.381 -0.2947  0.7732  0.6508
  125MOL0     H16466   1.122   1.580   3.505 -0.8345 -0.7323 -3.6094
  125MOL0     H16467   1.140   1.751   3.507 -0.0365  0.3956  0.8577
  125MOL0     H16468   1.368   1.557   3.465 -1.3519  0.1336 -2.3892
  125MOL0     H16469   1.319   1.614   3.632  0.3810 -2.4365 -1.2596
  125MOL0     H16470   1.494   1.736   3.587  2.4515  2.7229 -0.6772
  125MOL0     H16471   1.362   1.846   3.536 -2.3594 -1.2459 -1.4342
  125MOL0     H16472   1.525   1.661   3.351  0.1247 -1.6489  4.7623
  125MOL0     H16473   1.422   1.790   3.286 -1.3326 -2.6102  1.2125
  125MOL0     H16474   1.670   1.827   3.459 -2.0019 -1.6367  0.0475
  125MOL0     H16475   1.564   1.959   3.391  1.9084  0.6484  1.5986
  125MOL0     H16476   1.637   1.937   3.194 -1.7203  0.5572  1.5347
  125MOL0     H16477   1.693   1.768   3.197  1.4169 -2.3733  3.0490
  125MOL0     H16478   1.830   1.988   3.369  1.5007  0.2408 -0.0388
  125MOL0     H16479   1.889   1.839   3.350 -2.0588  1.6348  3.1288
  125MOL0     H16480   1.890   2.045   3.134 -0.7991  0.0374 -0.8424
  125MOL0     H16481   1.907   1.870   3.091  3.6334 -0.9561  0.6481
  125MOL0     H16482   1.100   1.704   3.065  0.7267  0.4449  0.4099
  125MOL0     H16483   0.974   1.547   2.923 -1.6628 -0.3713 -0.8996
  125MOL0     H16484   0.795   1.217   2.776 -2.3654 -2.1645 -0.4640
  125MOL0     H16485   0.718   1.099   2.582 -0.8460 -1.6873  1.8839
  125MOL0     H16486   0.939   0.116   2.143 -0.3186  1.0675 -0.7564
  125MOL0     H16487   1.063   0.240   1.980 -2.9690  0.0245  0.2346
  125MOL0     H16488   1.025   0.245   1.414 -0.7982  2.5111  0.8418
  125MOL0     H16489   1.112   0.433   1.272 -3.2906  0.8469  1.7349
  125MOL0     H16490   1.318   0.686   1.123 -2.2151  3.5734  5.5205
  125MOL0     H16491   1.173   0.612   1.170  0.1079  1.3380  0.0698
  125MOL0     H16492   1.320   0.385   1.117  1.0177 -0.1679 -1.1438
  125MOL0     H16493   1.197   0.458   1.016 -0.7925 -3.7597  1.1288
  125MOL0     H16494   1.392   0.611   0.929  0.2390 -0.4110 -1.6045
  125MOL0     H16495   1.377   0.441   0.877 -0.7055  1.2369 -0.4266
  125MOL0     H16496   1.566   0.552   1.080  2.4362 -0.8775  0.6317
  125MOL0     H16497   1.535   0.383   1.095  2.3068 -0.4941 -0.2826
  125MOL0     H16498   1.848   0.373   0.827 -0.0566  3.2923 -0.3031
  125MOL0     H16499   1.445   0.488   1.524 -0.3804  1.7738 -3.2351
  125MOL0     H16500   1.338   0.328   1.695 -3.5116 -2.9068  0.2827
  126MOL0     O16501   8.440   3.986   5.243  0.5617  0.2374  0.3710
  126MOL0     C16502   8.487   3.878   5.283  0.3627  0.3174  0.9606
  126MOL0     O16503   8.474   3.750   5.226  0.2006 -0.6295 -0.2949
  126MOL0     C16504   8.427   3.745   5.089 -0.7215  0.0711 -0.0570
  126MOL0     C16505   8.420   3.833   4.981  0.4281  0.7759 -0.0475
  126MOL0     C16506   8.361   3.803   4.856  0.1545  0.5706  0.3906
  126MOL0     C16507   8.327   3.669   4.839  0.3888 -0.0251 -0.2955
  126MOL0     O16508   8.273   3.616   4.721 -0.6089  0.0465  0.0982
  126MOL0     C16509   8.286   3.696   4.605 -0.3139  0.1321  0.4826
  126MOL0     C16510   8.227   3.639   4.482 -0.3781 -0.0687  0.3875
  126MOL0     C16511   8.073   3.639   4.489  0.4204  0.3049  0.3731
  126MOL0     C16512   8.007   3.590   4.366 -0.0366  0.3870  0.0693
  126MOL0     C16513   7.863   3.537   4.383  0.6694  0.3353 -0.1525
  126MOL0     C16514   7.792   3.483   4.250  0.3700 -0.5681  0.3190
  126MOL0     C16515   7.641   3.471   4.279 -0.0590  0.6949  0.3738
  126MOL0     C16516   7.547   3.458   4.165  0.1203 -0.7321  0.2558
  126MOL0     N16517   7.593   3.348   4.076 -0.0442 -1.2391 -0.3134
  126MOL0     C16518   7.596   3.218   4.118  0.5233 -0.0852 -0.1369
  126MOL0     C16519   7.667   3.153   4.026 -0.2404  0.2414  0.0617
  126MOL0     C16520   7.689   3.004   4.027  0.3105 -0.5874  0.5524
  126MOL0     C16521   7.554   2.928   4.011  0.3601  0.4647 -0.0109
  126MOL0     C16522   7.568   2.775   4.047  0.2531  0.2641 -0.2764
  126MOL0     C16523   7.651   2.691   3.954  0.4383  0.4208 -0.1211
  126MOL0     O16524   7.635   2.549   3.975 -0.2372  0.2901 -0.1411
  126MOL0     C16525   7.508   2.494   3.957  0.0050  0.4083  0.4072
  126MOL0     C16526   7.448   2.402   4.050 -0.1241  0.1842 -0.9216
  126MOL0     C16527   7.337   2.331   4.012 -0.0487 -0.0104 -0.3681
  126MOL0     C16528   7.254   2.361   3.901  0.2509 -0.0616  0.7224
  126MOL0     C16529   7.123   2.295   3.883  0.3313  0.7175  0.7463
  126MOL0     O16530   7.079   2.289   3.748 -0.6994  0.2791 -1.0413
  126MOL0     C16531   6.975   2.193   3.737 -0.3559  0.1252 -0.0404
  126MOL0     C16532   7.001   2.060   3.712  0.9100 -0.5108 -0.5705
  126MOL0     C16533   6.887   1.982   3.683  0.6031  0.4193  0.1357
  126MOL0     C16534   6.752   2.030   3.674 -0.7965  0.0458 -0.4519
  126MOL0     O16535   6.636   1.958   3.626  0.7405  0.4270 -0.3035
  126MOL0     C16536   6.498   1.991   3.665 -0.5406  0.2396 -1.2715
  126MOL0     C16537   6.408   1.866   3.664 -0.3235 -0.2608 -0.3948
  126MOL0     C16538   6.280   1.888   3.755  0.0212 -1.0265 -0.3297
  126MOL0     C16539   6.177   1.771   3.761 -0.1530 -0.0109  0.7387
  126MOL0     C16540   6.030   1.809   3.789 -0.3325 -0.0399 -0.0835
  126MOL0     C16541   6.010   1.875   3.932  0.5087  0.4267  0.0695
  126MOL0     C16542   5.898   1.968   3.911  1.1130 -0.0866 -0.0852
  126MOL0     C16543   5.933   2.078   3.812  0.3994 -0.2456  0.5166
  126MOL0    Cl16544   5.825   2.227   3.854 -0.0320  0.2400 -0.4619
  126MOL0     C16545   6.729   2.173   3.703 -1.1562 -0.5057 -0.4026
  126MOL0     C16546   6.846   2.252   3.729  0.6460 -0.2864  0.9386
  126MOL0     O16547   7.058   2.265   3.989  1.0263  0.0046  0.5634
  126MOL0     C16548   7.317   2.454   3.810  0.1432  0.4694 -0.9386
  126MOL0     C16549   7.436   2.515   3.832 -0.9757 -0.7319 -0.4274
  126MOL0     N16550   7.713   3.233   3.929 -0.8477 -0.5602  0.6717
  126MOL0     N16551   7.661   3.350   3.956 -0.3795 -0.7858  0.8550
  126MOL0     C16552   8.348   3.569   4.937  0.3392 -0.2617  0.4783
  126MOL0     C16553   8.403   3.615   5.052  0.2876  0.0214 -0.3479
  126MOL0     C16554   8.550   3.875   5.420  0.1238  0.9210  1.4932
  126MOL0     C16555   8.618   3.983   5.480 -0.1046  0.4026 -0.5930
  126MOL0     C16556   8.661   3.981   5.613 -0.0600 -0.4265 -0.2741
  126MOL0     C16557   8.643   3.864   5.693  0.2176 -0.1438  0.1893
  126MOL0     O16558   8.693   3.859   5.815 -0.0753  0.1291 -0.8350
  126MOL0     C16559   8.720   3.739   5.882 -0.5631  1.0022  1.0940
  126MOL0     C16560   8.594   3.682   5.948  0.5302  0.0735 -0.1071
  126MOL0     C16561   8.620   3.624   6.094  0.5725  0.1512  0.0449
  126MOL0     C16562   8.622   3.736   6.205  0.8223 -1.5222 -0.4962
  126MOL0     C16563   8.685   3.696   6.321 -1.1562  0.1892  0.0942
  126MOL0     C16564   8.752   3.665   6.417  1.6309 -0.8216 -0.6212
  126MOL0     C16565   8.575   3.758   5.632 -0.6254  0.7666  0.7645
  126MOL0     C16566   8.536   3.759   5.494  0.5181 -0.4042 -1.2414
  126MOL0     H16567   8.458   3.934   4.987  2.8866 -0.1329  1.7542
  126MOL0     H16568   8.350   3.883   4.784  2.3601  4.0437  3.5135
  126MOL0     H16569   8.393   3.692   4.585  0.2959 -2.4122  3.4120
  126MOL0     H16570   8.264   3.802   4.617  0.5344  0.2041  1.5956
  126MOL0     H16571   8.257   3.535   4.462  1.2672  0.6360 -1.0881
  126MOL0     H16572   8.265   3.687   4.391 -1.4974  2.6774  1.3014
  126MOL0     H16573   8.044   3.742   4.511  2.2256  0.8747  0.2863
  126MOL0     H16574   8.050   3.571   4.571 -0.0480 -1.7362 -1.3758
  126MOL0     H16575   8.009   3.671   4.293  1.3177 -1.4890 -2.1172
  126MOL0     H16576   8.056   3.501   4.326 -4.1221 -2.0706 -0.0189
  126MOL0     H16577   7.807   3.623   4.422 -0.1711  0.2747 -1.1780
  126MOL0     H16578   7.860   3.467   4.467 -1.8084  1.4784  0.8429
  126MOL0     H16579   7.840   3.392   4.213  1.6096  0.1791  0.0098
  126MOL0     H16580   7.806   3.557   4.171 -2.0149 -1.1966 -0.7751
  126MOL0     H16581   7.637   3.376   4.335  0.5099  0.0839 -0.5990
  126MOL0     H16582   7.605   3.548   4.347 -1.3393  1.8832 -1.5894
  126MOL0     H16583   7.555   3.553   4.111  2.7033 -1.6868 -1.1791
  126MOL0     H16584   7.451   3.436   4.214  0.4495 -1.9926  0.3534
  126MOL0     H16585   7.557   3.176   4.210  0.7597 -0.3958 -0.1776
  126MOL0     H16586   7.731   2.985   4.126  0.4087 -0.4554  0.5365
  126MOL0     H16587   7.752   2.970   3.944 -0.1663  1.2475 -0.6283
  126MOL0     H16588   7.546   2.929   3.902  3.4348 -0.9276 -0.3500
  126MOL0     H16589   7.476   2.977   4.070 -0.0696  0.3872 -0.5127
  126MOL0     H16590   7.604   2.763   4.150 -2.0614  0.4921  0.6222
  126MOL0     H16591   7.464   2.740   4.041  0.2735  0.0031  0.6535
  126MOL0     H16592   7.759   2.705   3.963  0.8107 -0.8598 -1.9854
  126MOL0     H16593   7.614   2.727   3.858 -0.2246  1.0039  0.3411
  126MOL0     H16594   7.493   2.385   4.147 -1.0710 -0.9375 -0.6470
  126MOL0     H16595   7.305   2.254   4.081  3.4992 -2.2182 -0.9449
  126MOL0     H16596   7.100   2.017   3.718  2.3150  2.6348  3.0732
  126MOL0     H16597   6.910   1.877   3.668 -0.0134  0.1514  1.0016
  126MOL0     H16598   6.454   2.078   3.613 -1.0445  1.6254  1.3157
  126MOL0     H16599   6.501   2.020   3.770 -3.1412 -1.3357 -0.6769
  126MOL0     H16600   6.465   1.775   3.687  1.3108  0.5660 -0.9761
  126MOL0     H16601   6.374   1.849   3.561 -0.0344  1.8628 -0.8816
  126MOL0     H16602   6.236   1.980   3.716  5.4485  1.2311 -2.1318
  126MOL0     H16603   6.308   1.896   3.861 -2.6233 -1.8822  0.5061
  126MOL0     H16604   6.181   1.723   3.662  0.4948 -2.1059  1.7428
  126MOL0     H16605   6.204   1.693   3.831 -1.5981 -0.6148  0.6588
  126MOL0     H16606   5.968   1.719   3.777  1.3841 -1.5295  1.4878
  126MOL0     H16607   5.997   1.868   3.704 -2.2653 -0.7326  0.1362
  126MOL0     H16608   6.102   1.922   3.968  1.3850 -2.6255  2.1139
  126MOL0     H16609   5.991   1.795   4.003  1.0164  0.0918 -0.1619
  126MOL0     H16610   5.811   1.911   3.879  2.0937 -1.5649 -0.2070
  126MOL0     H16611   5.872   2.021   4.003 -0.1767 -1.2135  0.2218
  126MOL0     H16612   5.907   2.051   3.709  1.4969 -2.1837  0.7130
  126MOL0     H16613   6.039   2.104   3.815 -0.1498  2.7190 -1.1943
  126MOL0     H16614   6.626   2.201   3.683 -1.1920  0.1804  0.6768
  126MOL0     H16615   6.836   2.360   3.732  0.2088 -0.2298 -0.9991
  126MOL0     H16616   7.264   2.465   3.716  0.3349  1.3184 -0.9575
  126MOL0     H16617   7.475   2.576   3.752 -0.7105  0.2725  0.4438
  126MOL0     H16618   8.328   3.468   4.901 -3.2297  0.4360  0.1667
  126MOL0     H16619   8.427   3.531   5.117  2.4055 -0.0627 -1.1446
  126MOL0     H16620   8.647   4.075   5.431  1.9285  1.5583  2.4905
  126MOL0     H16621   8.719   4.066   5.648 -0.0569 -0.0764 -1.1153
  126MOL0     H16622   8.793   3.768   5.958  2.8448 -0.6607 -1.2892
  126MOL0     H16623   8.760   3.665   5.812  1.3650  2.7443  0.2358
  126MOL0     H16624   8.519   3.760   5.966 -2.4730 -2.7550  0.6659
  126MOL0     H16625   8.545   3.599   5.896 -0.3853  0.4256  0.1656
  126MOL0     H16626   8.710   3.563   6.099  1.1659  1.0403  0.4315
  126MOL0     H16627   8.535   3.561   6.123  0.7930  0.5332  1.6088
  126MOL0     H16628   8.665   3.829   6.168  0.1547 -1.6651 -1.6947
  126MOL0     H16629   8.518   3.755   6.232  1.5583 -0.5345  1.8659
  126MOL0     H16630   8.814   3.639   6.501  1.5622 -1.9160 -0.8877
  126MOL0     H16631   8.556   3.675   5.700 -1.7117  1.6817  1.5994
  126MOL0     H16632   8.493   3.667   5.456 -0.5805  0.7523 -2.9371
  127MOL0     O16633   9.245   2.126   2.278 -0.6551 -0.0368  0.1497
  127MOL0     C16634   9.226   2.053   2.372 -0.8794 -0.3464 -0.3796
  127MOL0     O16635   9.248   2.081   2.503  0.1613  0.3973 -0.6950
  127MOL0     C16636   9.325   2.190   2.554  0.6747 -0.0602  0.6094
  127MOL0     C16637   9.260   2.273   2.646 -0.0130 -0.2500  0.0759
  127MOL0     C16638   9.337   2.373   2.718  0.7526  0.1524 -0.3804
  127MOL0     C16639   9.459   2.409   2.675 -0.6631 -0.0418 -0.3466
  127MOL0     O16640   9.530   2.512   2.730  0.0482 -0.1820  1.0881
  127MOL0     C16641   9.562   2.511   2.872 -0.0499  0.7762  0.6869
  127MOL0     C16642   9.652   2.394   2.906  1.0705 -0.8269 -0.3471
  127MOL0     C16643   9.758   2.413   3.030  0.1386 -0.2390  0.2526
  127MOL0     C16644   9.887   2.330   3.018  1.1995 -0.0631  0.0120
  127MOL0     C16645   9.989   2.384   2.933  0.2008  1.0678  0.9580
  127MOL0     C16646   9.966   2.421   2.782  0.1349  0.8265  0.0224
  127MOL0     C16647  10.085   2.486   2.707  0.7939 -0.1672  1.0153
  127MOL0     C16648  10.031   2.559   2.578 -0.7377  0.0512 -0.4533
  127MOL0     N16649  10.141   2.586   2.488  0.5420  0.0522 -0.4923
  127MOL0     C16650  10.256   2.652   2.526 -0.4974  1.3803  0.0915
  127MOL0     C16651  10.329   2.663   2.410  0.3096  0.3219  0.2196
  127MOL0     C16652  10.455   2.745   2.400 -0.2213 -1.1504  0.1642
  127MOL0     C16653  10.576   2.691   2.468 -0.4590  0.4849 -0.6165
  127MOL0     C16654  10.702   2.772   2.431 -0.0735 -0.0147 -1.2721
  127MOL0     C16655  10.821   2.688   2.464 -0.9381 -0.3833  0.4244
  127MOL0     O16656  10.934   2.764   2.434  0.5882  0.4908  0.2209
  127MOL0     C16657  11.056   2.706   2.414  0.8831 -0.2250  0.7752
  127MOL0     C16658  11.142   2.779   2.332  0.6207  1.0605  0.6903
  127MOL0     C16659  11.274   2.730   2.320 -0.2873 -1.2240 -0.8359
  127MOL0     C16660  11.326   2.622   2.393  0.2114 -0.2226  0.8867
  127MOL0     C16661  11.470   2.574   2.384 -0.6712  0.4480  0.2118
  127MOL0     O16662  11.558   2.655   2.312 -0.3170 -0.3172 -0.0931
  127MOL0     C16663  11.688   2.662   2.352  0.4190  0.6091  0.3821
  127MOL0     C16664  11.785   2.664   2.251 -0.3875  0.4149 -0.1520
  127MOL0     C16665  11.923   2.673   2.285 -0.9079  0.3379 -0.4592
  127MOL0     C16666  11.966   2.670   2.416 -0.0538  1.0570  0.2520
  127MOL0     O16667  12.104   2.677   2.446 -0.2398 -0.4965  1.1151
  127MOL0     C16668  12.160   2.709   2.574 -0.1016  0.6127  0.1457
  127MOL0     C16669  12.305   2.671   2.576 -0.1004 -0.2286  0.0654
  127MOL0     C16670  12.367   2.727   2.712  0.5619 -1.3020  0.1395
  127MOL0     C16671  12.491   2.658   2.762  0.0834  0.4086  0.6059
  127MOL0     C16672  12.484   2.637   2.902  0.2752  0.6871  0.3131
  127MOL0     C16673  12.612   2.581   2.943 -0.8930 -0.5642 -0.0788
  127MOL0     C16674  12.725   2.680   2.942 -0.6411  0.7639  0.2599
  127MOL0     C16675  12.865   2.613   2.974 -0.1539 -0.3141  0.7868
  127MOL0    Cl16676  12.920   2.542   2.816  0.2837  0.3544  0.0716
  127MOL0     C16677  11.867   2.678   2.517 -0.5948 -0.1291 -0.0986
  127MOL0     C16678  11.729   2.668   2.481 -0.3693 -0.0365  0.1334
  127MOL0     O16679  11.507   2.475   2.456 -0.6962  0.9671 -0.0295
  127MOL0     C16680  11.232   2.552   2.475  0.3915 -0.2616  0.2098
  127MOL0     C16681  11.097   2.598   2.484  0.7204  0.1054 -0.3898
  127MOL0     N16682  10.258   2.606   2.314  0.4765  0.2907  0.4714
  127MOL0     N16683  10.154   2.551   2.364  0.1239 -0.4777 -0.3456
  127MOL0     C16684   9.526   2.323   2.586  0.1507 -0.1353  0.5194
  127MOL0     C16685   9.452   2.229   2.516 -0.0253  0.5040  0.2893
  127MOL0     C16686   9.165   1.915   2.355 -0.1490  0.1307 -0.7898
  127MOL0     C16687   9.149   1.855   2.232 -0.8370  0.5421 -1.0814
  127MOL0     C16688   9.105   1.721   2.219 -0.1848 -0.9941 -0.4191
  127MOL0     C16689   9.057   1.648   2.321 -0.3285 -0.8658 -0.4274
  127MOL0     O16690   8.995   1.530   2.296  0.1209 -0.0369 -0.5844
  127MOL0     C16691   8.985   1.452   2.417  0.7736  0.2746  0.7028
  127MOL0     C16692   8.908   1.318   2.386 -0.1573 -0.8122  0.6842
  127MOL0     C16693   8.876   1.241   2.517  0.4370  0.7204 -0.3949
  127MOL0     C16694   8.761   1.137   2.485 -0.3424  0.1112  0.7561
  127MOL0     C16695   8.811   1.020   2.397 -1.5119  0.9181  0.1606
  127MOL0     C16696   8.868   0.933   2.322  0.1798  0.0063  0.0064
  127MOL0     C16697   9.068   1.714   2.453  0.0181  0.5916  0.0711
  127MOL0     C16698   9.128   1.838   2.463  0.8597 -0.3675 -0.3688
  127MOL0     H16699   9.156   2.245   2.659 -0.2669 -0.1703 -1.5705
  127MOL0     H16700   9.289   2.434   2.793 -0.2486 -0.0569 -0.8329
  127MOL0     H16701   9.478   2.527   2.941  1.0172 -2.0564  2.8095
  127MOL0     H16702   9.627   2.598   2.878  1.9522 -0.6281  0.2458
  127MOL0     H16703   9.701   2.369   2.812 -0.1960 -0.9006 -1.0141
  127MOL0     H16704   9.594   2.304   2.926  0.8715 -0.3681  1.2839
  127MOL0     H16705   9.717   2.370   3.122 -0.1882  0.0729  0.2568
  127MOL0     H16706   9.785   2.515   3.059 -0.4327 -0.8683  3.3827
  127MOL0     H16707   9.920   2.300   3.118 -3.0701 -1.6146  1.1462
  127MOL0     H16708   9.850   2.235   2.980 -0.9595  0.3043  1.0734
  127MOL0     H16709  10.070   2.310   2.940  1.5683  2.4614  0.4633
  127MOL0     H16710  10.036   2.471   2.980  0.7975 -0.1690  2.7995
  127MOL0     H16711   9.890   2.500   2.782 -0.8819 -0.1109  0.8708
  127MOL0     H16712   9.928   2.329   2.738 -1.2055  0.6688  1.3988
  127MOL0     H16713  10.129   2.557   2.777  1.6305 -0.6375  0.9823
  127MOL0     H16714  10.167   2.417   2.683  1.4185  1.2095 -1.0444
  127MOL0     H16715   9.980   2.653   2.602 -0.6832  0.2045 -0.9197
  127MOL0     H16716   9.964   2.489   2.527  0.0627 -1.7000  0.8096
  127MOL0     H16717  10.293   2.688   2.621  6.0733  1.1897 -1.8811
  127MOL0     H16718  10.428   2.847   2.426 -0.3579 -0.3685 -2.6601
  127MOL0     H16719  10.486   2.744   2.295  2.7870  0.7061  0.9236
  127MOL0     H16720  10.588   2.588   2.433 -1.6614 -0.6315  2.0381
  127MOL0     H16721  10.568   2.683   2.576 -0.2525  3.7381 -0.2608
  127MOL0     H16722  10.689   2.811   2.329  0.7482  3.5466 -0.1677
  127MOL0     H16723  10.711   2.866   2.486  3.3156 -1.6440  1.2789
  127MOL0     H16724  10.832   2.608   2.390  2.5021  2.5952 -2.7479
  127MOL0     H16725  10.824   2.656   2.569 -2.7956 -2.3406 -0.0636
  127MOL0     H16726  11.091   2.862   2.283 -1.3467 -0.8786 -0.7228
  127MOL0     H16727  11.344   2.785   2.257 -1.2398  2.5729  1.1123
  127MOL0     H16728  11.756   2.652   2.147 -0.5417 -0.1403 -0.0492
  127MOL0     H16729  12.002   2.668   2.210  1.7037 -0.9208  2.1900
  127MOL0     H16730  12.104   2.654   2.649  0.3986 -0.9096 -0.5373
  127MOL0     H16731  12.157   2.817   2.585  3.9105  0.6691  2.5033
  127MOL0     H16732  12.355   2.720   2.492 -1.7770  2.8529  0.6839
  127MOL0     H16733  12.325   2.566   2.555  0.3117  0.3599 -2.9046
  127MOL0     H16734  12.289   2.716   2.788  0.6266 -0.1382  0.3971
  127MOL0     H16735  12.389   2.830   2.683  1.9469 -1.5157  0.3983
  127MOL0     H16736  12.494   2.559   2.715  1.2006 -0.0348  1.5595
  127MOL0     H16737  12.565   2.722   2.713  0.4700 -1.4578 -1.4168
  127MOL0     H16738  12.400   2.572   2.929  1.7403 -0.6623  1.9152
  127MOL0     H16739  12.473   2.733   2.955  1.3453  0.4317  1.0399
  127MOL0     H16740  12.646   2.497   2.881  0.5602  1.4919 -2.2495
  127MOL0     H16741  12.602   2.526   3.037 -2.0978 -2.5508 -1.3059
  127MOL0     H16742  12.721   2.729   2.844  1.1245 -0.1400 -0.3080
  127MOL0     H16743  12.719   2.762   3.015  1.5054  1.6189 -0.4316
  127MOL0     H16744  12.873   2.534   3.050  0.7633  1.0194  2.1456
  127MOL0     H16745  12.933   2.687   3.018  0.2480  0.1301 -0.5290
  127MOL0     H16746  11.892   2.682   2.623 -0.0115  2.2921 -0.2903
  127MOL0     H16747  11.647   2.657   2.551 -0.8066 -2.0623 -0.6217
  127MOL0     H16748  11.254   2.465   2.536 -0.3860 -1.6609 -1.4087
  127MOL0     H16749  11.026   2.538   2.541  2.5336 -0.0612  1.8381
  127MOL0     H16750   9.631   2.342   2.567  0.2747 -0.2269  1.1054
  127MOL0     H16751   9.492   2.184   2.425  1.2434  5.0465 -1.7058
  127MOL0     H16752   9.183   1.904   2.141 -0.4849 -1.1996 -1.9249
  127MOL0     H16753   9.112   1.681   2.119 -0.6896  1.9711 -1.7218
  127MOL0     H16754   8.926   1.502   2.495 -0.5711  2.6878 -1.6930
  127MOL0     H16755   9.088   1.429   2.447  0.5788 -3.7732 -1.0957
  127MOL0     H16756   8.814   1.360   2.347  0.8673 -1.6515 -3.0563
  127MOL0     H16757   8.948   1.262   2.301 -0.2938 -1.2301  0.8942
  127MOL0     H16758   8.840   1.308   2.596 -0.9604  0.1759 -0.5419
  127MOL0     H16759   8.967   1.187   2.546  0.4012  0.7253 -0.2709
  127MOL0     H16760   8.730   1.084   2.576  0.6326 -3.1973 -0.6584
  127MOL0     H16761   8.673   1.177   2.433  0.5924 -0.5549 -1.4564
  127MOL0     H16762   8.924   0.864   2.262  1.0958  0.6698  0.0660
  127MOL0     H16763   9.041   1.668   2.548  0.2833  1.8457  0.7703
  127MOL0     H16764   9.136   1.875   2.565  0.4193 -0.1000 -0.4310
  128MOL0     O16765   4.278   3.560   7.629  0.4344  0.7728  0.1393
  128MOL0     C16766   4.330   3.465   7.566  0.4104 -0.5641 -0.6109
  128MOL0     O16767   4.462   3.430   7.582  0.1333 -0.1918 -0.5426
  128MOL0     C16768   4.525   3.470   7.697 -0.5599 -0.6937  0.7402
  128MOL0     C16769   4.539   3.383   7.804  0.9045 -1.0739 -0.0811
  128MOL0     C16770   4.605   3.429   7.924  0.7625 -0.2531 -0.0710
  128MOL0     C16771   4.659   3.557   7.932  0.2850 -0.1667 -0.7990
  128MOL0     O16772   4.717   3.603   8.047  0.2234  0.1310 -0.2128
  128MOL0     C16773   4.639   3.580   8.169  0.5846  0.3703 -0.0503
  128MOL0     C16774   4.698   3.478   8.264  0.2396  0.9491 -0.0172
  128MOL0     C16775   4.818   3.527   8.351 -0.2437  0.3529 -1.2353
  128MOL0     C16776   4.851   3.417   8.460 -0.0996 -0.3861  0.0712
  128MOL0     C16777   4.758   3.451   8.586  0.3770  0.5371 -0.2868
  128MOL0     C16778   4.827   3.415   8.726 -0.0576 -0.1715  0.7388
  128MOL0     C16779   4.723   3.411   8.846  0.1287 -0.5759 -0.3320
  128MOL0     C16780   4.789   3.400   8.984  0.0181  0.1390 -0.2079
  128MOL0     N16781   4.768   3.525   9.063 -0.2799  0.6242 -0.1216
  128MOL0     C16782   4.795   3.649   9.009  0.2761 -0.1492  0.7330
  128MOL0     C16783   4.703   3.732   9.066 -0.0166  0.2259 -0.0016
  128MOL0     C16784   4.668   3.871   9.020  0.0310  0.9780  0.4816
  128MOL0     C16785   4.748   3.980   9.084  0.2669  0.2844  1.1065
  128MOL0     C16786   4.728   4.114   9.011  0.8053 -0.2459  0.4536
  128MOL0     C16787   4.754   4.112   8.861  0.2550  1.3342  0.2795
  128MOL0     O16788   4.830   4.232   8.833 -0.1713 -0.0463  0.4300
  128MOL0     C16789   4.758   4.333   8.770  0.0130 -1.6743 -0.7129
  128MOL0     C16790   4.642   4.390   8.818  0.0486  0.2228  0.0786
  128MOL0     C16791   4.572   4.495   8.763 -0.1707 -0.1007 -0.4837
  128MOL0     C16792   4.638   4.577   8.660  0.8203  0.5571 -0.5478
  128MOL0     C16793   4.571   4.695   8.618  1.2731  0.7298  0.4262
  128MOL0     O16794   4.621   4.749   8.506 -0.6511  0.3531 -0.1885
  128MOL0     C16795   4.579   4.865   8.443 -0.4109 -0.4699  0.6672
  128MOL0     C16796   4.660   4.951   8.375  0.4586  0.3209 -0.2635
  128MOL0     C16797   4.608   5.066   8.301  0.5518  0.2974 -0.1754
  128MOL0     C16798   4.473   5.089   8.305 -0.4600 -0.3752  0.2930
  128MOL0     O16799   4.436   5.199   8.232  0.2051  0.3007 -0.6420
  128MOL0     C16800   4.314   5.279   8.258 -0.9101  0.4896  0.2590
  128MOL0     C16801   4.194   5.247   8.169 -0.0887  0.5127 -0.3354
  128MOL0     C16802   4.090   5.349   8.188  0.6840  0.1236 -0.4916
  128MOL0     C16803   4.118   5.482   8.126  0.1344  0.9019  0.2988
  128MOL0     C16804   4.012   5.580   8.172 -0.0856  0.1248  0.1042
  128MOL0     C16805   4.050   5.720   8.126  0.4761 -0.7566  0.4979
  128MOL0     C16806   4.021   5.821   8.239  0.6057 -0.1071  0.7549
  128MOL0     C16807   4.051   5.952   8.192 -0.0258  0.3537  0.6141
  128MOL0    Cl16808   3.997   6.077   8.299 -0.1770 -0.2840 -0.0032
  128MOL0     C16809   4.395   5.009   8.376  0.2159  0.1658 -0.5274
  128MOL0     C16810   4.442   4.891   8.438 -0.8821 -0.5674 -0.4021
  128MOL0     O16811   4.482   4.747   8.687 -0.5684  0.6425 -0.2182
  128MOL0     C16812   4.756   4.528   8.607  0.2636  1.1856 -0.3116
  128MOL0     C16813   4.823   4.415   8.668  0.3419 -0.1210 -0.2656
  128MOL0     N16814   4.618   3.659   9.151  0.2517 -0.1674  0.1472
  128MOL0     N16815   4.664   3.541   9.152 -0.1068  0.4129  0.3439
  128MOL0     C16816   4.642   3.646   7.819  0.8650 -0.0642 -0.3124
  128MOL0     C16817   4.582   3.596   7.701 -0.3040 -1.2762 -0.8491
  128MOL0     C16818   4.251   3.397   7.457 -0.1992 -0.3011  0.8652
  128MOL0     C16819   4.116   3.416   7.440  0.3112  0.2861 -0.0812
  128MOL0     C16820   4.040   3.366   7.329  1.6620 -0.0199  0.3768
  128MOL0     C16821   4.107   3.297   7.228 -0.7721 -1.0100  0.2559
  128MOL0     O16822   4.055   3.277   7.103 -0.5866  0.1460 -0.5699
  128MOL0     C16823   3.923   3.316   7.065  0.0407 -0.7273 -0.8646
  128MOL0     C16824   3.886   3.282   6.925 -0.9680 -0.6936  1.3341
  128MOL0     C16825   3.892   3.133   6.915  0.2809 -0.2858 -0.4198
  128MOL0     C16826   3.845   3.091   6.780 -0.6915  0.0145  0.9355
  128MOL0     C16827   3.939   3.079   6.670  0.5919  0.2305  0.3129
  128MOL0     C16828   4.017   3.059   6.582  0.4060  0.1124  0.6654
  128MOL0     C16829   4.240   3.285   7.241  0.5146  0.3580  0.3685
  128MOL0     C16830   4.308   3.323   7.362 -0.8782 -0.0542 -0.0668
  128MOL0     H16831   4.496   3.283   7.796  2.0039 -1.7221  1.6013
  128MOL0     H16832   4.610   3.363   8.010 -2.0311  0.5718  0.8167
  128MOL0     H16833   4.546   3.531   8.138  1.3151  0.1768 -2.0917
  128MOL0     H16834   4.620   3.677   8.216  0.4704  0.2394  0.1782
  128MOL0     H16835   4.730   3.394   8.202 -0.6224 -0.1219  0.9436
  128MOL0     H16836   4.620   3.437   8.329 -2.0488  2.0183 -1.9766
  128MOL0     H16837   4.814   3.628   8.393 -1.4241 -0.1240 -0.1678
  128MOL0     H16838   4.894   3.521   8.272 -2.3255  0.4149 -3.3647
  128MOL0     H16839   4.840   3.315   8.424  3.1808 -1.8147  2.6527
  128MOL0     H16840   4.957   3.444   8.474 -0.0593  1.7742 -3.1612
  128MOL0     H16841   4.663   3.398   8.575  1.2108 -0.7624 -1.7065
  128MOL0     H16842   4.738   3.557   8.600 -2.5594  0.1310 -0.8389
  128MOL0     H16843   4.895   3.498   8.752  1.6319 -1.4931  0.7116
  128MOL0     H16844   4.886   3.324   8.712  1.0580  0.7298 -0.8239
  128MOL0     H16845   4.658   3.499   8.845 -0.3223 -0.8808  0.8081
  128MOL0     H16846   4.651   3.329   8.842 -1.3308  0.7006 -2.2126
  128MOL0     H16847   4.896   3.400   8.962 -0.3519  0.3257 -2.1318
  128MOL0     H16848   4.758   3.308   9.034 -1.4055  1.1768  0.9215
  128MOL0     H16849   4.875   3.671   8.939 -0.8235  0.5689 -0.3445
  128MOL0     H16850   4.565   3.900   9.040  0.2860  1.5069  1.0989
  128MOL0     H16851   4.674   3.870   8.911 -2.2466  0.7953  0.3249
  128MOL0     H16852   4.852   3.946   9.093  0.5625  1.2326  1.4381
  128MOL0     H16853   4.705   3.995   9.184  1.1370  4.8483  1.0033
  128MOL0     H16854   4.621   4.134   9.023 -0.2232 -1.6904 -4.2429
  128MOL0     H16855   4.790   4.195   9.050 -1.8906  1.4879  1.4402
  128MOL0     H16856   4.666   4.100   8.798 -1.2514  0.3312  2.4548
  128MOL0     H16857   4.815   4.025   8.838  1.4765  2.5088 -1.1072
  128MOL0     H16858   4.600   4.338   8.904 -1.3679 -0.3795 -0.9480
  128MOL0     H16859   4.470   4.520   8.791 -1.0138 -2.2994 -1.3287
  128MOL0     H16860   4.767   4.930   8.378  0.5761  0.5152 -2.0349
  128MOL0     H16861   4.675   5.131   8.246 -0.6828  0.9123 -0.9998
  128MOL0     H16862   4.355   5.376   8.230  1.7175 -1.3289 -3.0240
  128MOL0     H16863   4.293   5.274   8.365  0.6748  2.6560  0.7192
  128MOL0     H16864   4.152   5.157   8.213  0.2754  0.1233 -0.7786
  128MOL0     H16865   4.220   5.230   8.064 -0.8743 -0.2821 -0.4121
  128MOL0     H16866   4.074   5.359   8.296  1.5774  2.9572 -0.5274
  128MOL0     H16867   4.005   5.300   8.140 -0.4418  2.2512 -0.7856
  128MOL0     H16868   4.219   5.519   8.149  1.0190 -1.5141  0.6208
  128MOL0     H16869   4.116   5.467   8.018  2.4334 -1.4135  0.4830
  128MOL0     H16870   4.002   5.583   8.281 -4.5412 -0.0396 -0.0924
  128MOL0     H16871   3.914   5.543   8.141 -0.5871  0.4874  1.1822
  128MOL0     H16872   3.984   5.744   8.042  0.1336  0.6478  1.1406
  128MOL0     H16873   4.154   5.729   8.093  0.0797  0.8345 -0.4579
  128MOL0     H16874   3.915   5.817   8.262  0.9777  0.2311  2.6376
  128MOL0     H16875   4.074   5.798   8.332  1.2620 -2.7575 -0.1599
  128MOL0     H16876   4.014   5.981   8.093 -1.5120  0.6094  1.2163
  128MOL0     H16877   4.160   5.951   8.184  0.0744 -1.5981  1.7503
  128MOL0     H16878   4.290   5.034   8.381 -0.1332  0.3577 -4.8977
  128MOL0     H16879   4.366   4.829   8.484 -3.0098  1.6008 -0.8553
  128MOL0     H16880   4.819   4.567   8.528  4.8026 -3.8289  0.2470
  128MOL0     H16881   4.926   4.397   8.638  1.0584  1.9481  0.8116
  128MOL0     H16882   4.660   3.753   7.822 -3.7989  1.1164 -3.3752
  128MOL0     H16883   4.576   3.663   7.615 -1.7477 -1.4237 -0.8897
  128MOL0     H16884   4.046   3.476   7.497 -0.3333  1.7414 -2.2635
  128MOL0     H16885   3.936   3.393   7.313  1.4011 -1.3356 -0.2930
  128MOL0     H16886   3.915   3.425   7.076  0.6268 -0.9227  3.5022
  128MOL0     H16887   3.856   3.271   7.139  3.0297 -1.1499  1.8283
  128MOL0     H16888   3.793   3.336   6.905 -1.7340 -2.6850 -0.8451
  128MOL0     H16889   3.954   3.336   6.859 -2.5969  0.3052  0.4138
  128MOL0     H16890   3.824   3.086   6.988  0.7626  1.1869  1.0487
  128MOL0     H16891   3.990   3.095   6.944  0.5079  0.6230  0.0504
  128MOL0     H16892   3.798   2.994   6.796 -3.2292  0.9776 -0.0339
  128MOL0     H16893   3.769   3.163   6.747 -0.3841 -0.1945 -0.2946
  128MOL0     H16894   4.086   3.036   6.503  0.0128  0.7788  0.1196
  128MOL0     H16895   4.298   3.253   7.156  0.2588  1.7006 -0.3307
  128MOL0     H16896   4.415   3.302   7.366 -0.9562 -1.5631 -3.0931
  129MOL0     O16897  10.568   1.044   0.821 -0.4795  0.5116 -0.7226
  129MOL0     C16898  10.681   1.077   0.800  0.1082 -1.1713  0.6558
  129MOL0     O16899  10.793   1.025   0.861  0.0140  0.2006 -0.3236
  129MOL0     C16900  10.788   0.964   0.977  0.3718  0.1961 -0.1801
  129MOL0     C16901  10.700   0.857   1.001 -0.0966 -0.1125  0.4784
  129MOL0     C16902  10.699   0.794   1.124  0.3014 -0.2503  0.2347
  129MOL0     C16903  10.801   0.823   1.215  0.5359  0.8791  0.6296
  129MOL0     O16904  10.784   0.742   1.325 -0.9227  0.5475 -0.0897
  129MOL0     C16905  10.843   0.790   1.450 -0.1951  0.1412  0.6003
  129MOL0     C16906  10.986   0.728   1.465  0.3043  0.2214  0.4277
  129MOL0     C16907  11.060   0.774   1.594  0.0268  1.0971  0.8054
  129MOL0     C16908  11.195   0.711   1.587  0.1975 -0.2895 -0.3698
  129MOL0     C16909  11.281   0.741   1.708 -0.4607 -0.5881  0.0184
  129MOL0     C16910  11.385   0.848   1.671 -0.4300 -0.7380 -0.0205
  129MOL0     C16911  11.477   0.897   1.784 -1.2840 -0.6719 -0.9919
  129MOL0     C16912  11.619   0.931   1.739 -0.1014 -0.0805 -0.2319
  129MOL0     N16913  11.696   0.807   1.734 -0.2795 -0.0226  0.6098
  129MOL0     C16914  11.680   0.700   1.644 -0.4566 -0.3912 -0.1979
  129MOL0     C16915  11.729   0.586   1.702 -0.2162 -0.8824 -0.2278
  129MOL0     C16916  11.741   0.447   1.647 -0.0910  0.0650  0.1540
  129MOL0     C16917  11.616   0.373   1.681 -0.4682 -0.4649 -0.0500
  129MOL0     C16918  11.648   0.218   1.708  0.2499  0.6242 -0.2007
  129MOL0     C16919  11.527   0.146   1.754  0.8101  0.3146 -0.4128
  129MOL0     O16920  11.451   0.104   1.644 -0.2112 -0.0911 -0.5664
  129MOL0     C16921  11.325   0.141   1.608 -0.3264 -0.5369 -0.7755
  129MOL0     C16922  11.252   0.059   1.522 -0.7015 -0.8601  0.6050
  129MOL0     C16923  11.113   0.082   1.498 -0.6666  0.7703  0.3978
  129MOL0     C16924  11.050   0.197   1.546 -0.1714  0.0860  0.0632
  129MOL0     C16925  10.906   0.222   1.528  0.5775  0.4847  0.4604
  129MOL0     O16926  10.852   0.347   1.566 -0.0517 -0.7996  0.5611
  129MOL0     C16927  10.723   0.364   1.545  0.8532  0.2009 -0.1035
  129MOL0     C16928  10.627   0.297   1.622 -0.3619 -0.4514 -0.4466
  129MOL0     C16929  10.484   0.315   1.595 -0.3909 -0.1688 -0.6720
  129MOL0     C16930  10.446   0.416   1.506  0.2207 -0.6341  0.6850
  129MOL0     O16931  10.322   0.452   1.465 -0.0970  0.5104 -0.3690
  129MOL0     C16932  10.203   0.375   1.498 -0.5850 -0.1188  0.3653
  129MOL0     C16933  10.078   0.425   1.426 -0.5472  0.6176  0.0582
  129MOL0     C16934  10.116   0.441   1.269  1.0636 -0.1066 -0.9201
  129MOL0     C16935  10.002   0.508   1.203  0.1530  0.1199 -0.8185
  129MOL0     C16936   9.983   0.479   1.053  0.9914  0.4100 -0.4117
  129MOL0     C16937  10.097   0.512   0.969  0.2900  0.2213 -1.2658
  129MOL0     C16938  10.148   0.662   0.997 -0.1652  0.0247  0.9044
  129MOL0     C16939  10.249   0.702   0.894 -0.0673 -0.2500  0.2171
  129MOL0    Cl16940  10.400   0.610   0.932 -0.1425  0.0644  0.1638
  129MOL0     C16941  10.541   0.484   1.431 -0.3426  0.4373 -0.7329
  129MOL0     C16942  10.677   0.455   1.452  0.1622  0.3574  0.5849
  129MOL0     O16943  10.847   0.136   1.468  1.0784  0.0682 -0.6196
  129MOL0     C16944  11.132   0.281   1.623 -0.7939  0.3762 -0.1195
  129MOL0     C16945  11.268   0.251   1.656  0.5242 -0.1915 -0.9096
  129MOL0     N16946  11.789   0.630   1.818 -0.3709 -0.0001 -0.2960
  129MOL0     N16947  11.771   0.754   1.837  0.6539  0.3988 -0.2130
  129MOL0     C16948  10.900   0.910   1.190  1.0948 -1.4314 -1.2211
  129MOL0     C16949  10.889   0.986   1.068  0.1096 -0.2604 -0.9392
  129MOL0     C16950  10.687   1.162   0.675 -0.7922  0.6317  0.0647
  129MOL0     C16951  10.810   1.217   0.633  0.0667  0.5534 -0.1396
  129MOL0     C16952  10.820   1.257   0.502 -0.4152  0.1554 -0.2020
  129MOL0     C16953  10.715   1.274   0.414  0.1932 -0.4875 -0.9154
  129MOL0     O16954  10.742   1.308   0.284  0.4753 -0.4571 -0.4096
  129MOL0     C16955  10.630   1.350   0.202  0.2164  0.3375  0.6215
  129MOL0     C16956  10.665   1.463   0.087 -0.6305  1.7134 -0.6262
  129MOL0     C16957  10.794   1.410   0.017 -0.1023  0.1860 -1.0018
  129MOL0     C16958  10.849   1.512  -0.082  0.2714 -0.7070 -0.0367
  129MOL0     C16959  10.775   1.520  -0.206 -0.4239 -0.0194 -0.0529
  129MOL0     C16960  10.717   1.524  -0.305 -0.3496  0.3876 -0.0956
  129MOL0     C16961  10.591   1.229   0.457 -0.3667  0.3526  0.0307
  129MOL0     C16962  10.581   1.174   0.585 -0.0554  0.2703  0.2119
  129MOL0     H16963  10.627   0.837   0.923 -3.4938  2.9629  2.5479
  129MOL0     H16964  10.624   0.721   1.154  1.2016  0.1519  4.1243
  129MOL0     H16965  10.782   0.768   1.537 -2.3165  0.0974 -0.8380
  129MOL0     H16966  10.852   0.899   1.452 -0.9785  0.2533  3.9571
  129MOL0     H16967  11.040   0.754   1.374  1.6757 -3.0988  0.1477
  129MOL0     H16968  10.974   0.619   1.461  1.1464  0.0870  1.2084
  129MOL0     H16969  11.012   0.745   1.689 -4.2624  3.2157 -0.4465
  129MOL0     H16970  11.070   0.882   1.601  4.5696  0.9835 -0.8334
  129MOL0     H16971  11.180   0.604   1.575  0.4704 -0.3454 -0.2202
  129MOL0     H16972  11.249   0.746   1.499  0.2523  0.6158  0.0075
  129MOL0     H16973  11.333   0.647   1.730  1.5023  0.2830 -0.6318
  129MOL0     H16974  11.225   0.770   1.797  0.3743  0.5104  0.2063
  129MOL0     H16975  11.336   0.941   1.644  0.1037  0.0299  1.5181
  129MOL0     H16976  11.439   0.815   1.582 -1.4304 -0.2508 -0.8347
  129MOL0     H16977  11.442   0.993   1.821  0.1054 -0.5374  0.0180
  129MOL0     H16978  11.475   0.832   1.872 -1.0789 -0.7213 -1.0232
  129MOL0     H16979  11.671   0.993   1.812  1.3945  1.4699 -2.4888
  129MOL0     H16980  11.615   0.990   1.647 -2.3208  0.9466  0.4323
  129MOL0     H16981  11.623   0.702   1.552 -1.8068  2.3364  0.5552
  129MOL0     H16982  11.836   0.406   1.682  0.7424  1.4725 -0.3691
  129MOL0     H16983  11.735   0.457   1.538 -1.1482 -2.8957 -0.1687
  129MOL0     H16984  11.539   0.378   1.604  1.9528 -0.0059 -2.5868
  129MOL0     H16985  11.584   0.420   1.775 -1.5881 -0.7271 -0.2809
  129MOL0     H16986  11.692   0.180   1.615 -1.6101  0.1676 -0.9279
  129MOL0     H16987  11.727   0.212   1.783  2.2012 -0.5773 -2.2221
  129MOL0     H16988  11.465   0.211   1.816  1.0901 -0.6320  0.9188
  129MOL0     H16989  11.550   0.056   1.812 -1.0580 -0.8828 -1.4224
  129MOL0     H16990  11.298  -0.032   1.484  0.6622 -0.1226  0.4276
  129MOL0     H16991  11.063   0.006   1.439 -0.1485 -1.2028  2.3738
  129MOL0     H16992  10.657   0.219   1.691  1.3128  1.3125  0.9390
  129MOL0     H16993  10.408   0.269   1.657 -1.0706  1.3534 -0.3418
  129MOL0     H16994  10.187   0.377   1.607 -2.6990 -1.1942  0.1252
  129MOL0     H16995  10.218   0.269   1.474  1.1764 -1.1510  4.9698
  129MOL0     H16996  10.070   0.526   1.469  1.8223  0.2215  1.6156
  129MOL0     H16997   9.991   0.360   1.438  0.0907 -0.2850 -0.1025
  129MOL0     H16998  10.132   0.343   1.224 -1.0474 -0.6969 -0.4830
  129MOL0     H16999  10.209   0.493   1.243  1.3161 -0.7637 -1.3428
  129MOL0     H17000   9.912   0.464   1.247  0.5123  0.5863  0.4183
  129MOL0     H17001   9.997   0.614   1.226 -2.6658  0.1810 -1.4373
  129MOL0     H17002   9.894   0.532   1.019  1.6754  1.1021 -1.1611
  129MOL0     H17003   9.962   0.372   1.045 -1.6112  0.4931  2.9141
  129MOL0     H17004  10.060   0.496   0.867 -1.8055 -3.6197 -0.1179
  129MOL0     H17005  10.180   0.442   0.974  0.2818  0.1969 -1.4694
  129MOL0     H17006  10.059   0.724   0.982  0.6908  0.9971 -0.3305
  129MOL0     H17007  10.193   0.679   1.095  3.9651  0.8406 -0.9327
  129MOL0     H17008  10.263   0.810   0.905 -2.8845 -0.0352  3.2751
  129MOL0     H17009  10.219   0.688   0.790  0.8437 -3.0119  0.2392
  129MOL0     H17010  10.511   0.570   1.371 -0.7463  2.0128  1.5551
  129MOL0     H17011  10.751   0.511   1.396  1.0877 -0.5639  0.8697
  129MOL0     H17012  11.090   0.371   1.667  1.5621  2.7498 -2.3589
  129MOL0     H17013  11.304   0.320   1.732 -1.1474  1.8288 -1.8455
  129MOL0     H17014  10.975   0.924   1.267  0.6454  0.2353 -1.0424
  129MOL0     H17015  10.963   1.063   1.047  0.2420 -0.8069 -2.6142
  129MOL0     H17016  10.899   1.211   0.696  0.6482  1.1521 -0.8768
  129MOL0     H17017  10.918   1.290   0.467 -1.7448  0.8956 -3.6267
  129MOL0     H17018  10.539   1.376   0.256 -0.0022  0.0335  0.4025
  129MOL0     H17019  10.609   1.264   0.138  0.2948  1.7009 -1.3278
  129MOL0     H17020  10.582   1.461   0.015 -1.2393 -4.1803 -0.3014
  129MOL0     H17021  10.675   1.556   0.142 -2.5228  0.7386  1.5372
  129MOL0     H17022  10.759   1.320  -0.034 -0.5230  0.0939 -0.5551
  129MOL0     H17023  10.874   1.378   0.084 -0.6586 -0.1213 -0.4739
  129MOL0     H17024  10.859   1.609  -0.033  0.0983  0.1007 -1.5426
  129MOL0     H17025  10.951   1.481  -0.106  0.6823  0.4860  0.0750
  129MOL0     H17026  10.661   1.514  -0.395 -0.5359 -4.2838  0.2776
  129MOL0     H17027  10.518   1.206   0.380  0.9296 -0.6620 -0.9473
  129MOL0     H17028  10.481   1.143   0.615 -0.8817  3.1642  0.7337
  130MOL0     O17029   1.037   3.356   9.892  0.2234  0.1223 -0.9968
  130MOL0     C17030   1.096   3.416   9.801 -0.4204 -0.6890 -0.1629
  130MOL0     O17031   1.213   3.481   9.810  0.1489  0.5373 -0.0631
  130MOL0     C17032   1.264   3.501   9.939  0.0232 -0.8457  0.2327
  130MOL0     C17033   1.211   3.602  10.020  0.0013  0.3851 -0.7087
  130MOL0     C17034   1.267   3.624  10.144  0.0333 -0.0961 -0.9994
  130MOL0     C17035   1.384   3.556  10.193 -0.2951 -0.4333  0.2760
  130MOL0     O17036   1.440   3.594  10.313  0.3709 -0.5415 -0.4856
  130MOL0     C17037   1.563   3.655  10.293 -0.4528 -1.3343  0.1238
  130MOL0     C17038   1.611   3.726  10.418 -0.2548  0.2721  0.0679
  130MOL0     C17039   1.504   3.823  10.483 -0.4876  0.4790 -0.0929
  130MOL0     C17040   1.559   3.903  10.608 -0.1410  0.4470  0.3644
  130MOL0     C17041   1.446   3.970  10.678 -0.4312 -0.1845  0.5415
  130MOL0     C17042   1.420   4.100  10.601 -0.4033 -0.2358 -0.6448
  130MOL0     C17043   1.295   4.177  10.657  0.7304 -0.2373 -0.4450
  130MOL0     C17044   1.157   4.122  10.640 -0.0747 -0.5492  0.6371
  130MOL0     N17045   1.122   4.061  10.515  0.1079  1.3397 -0.0405
  130MOL0     C17046   1.029   4.130  10.432 -0.0288  0.1722 -0.9541
  130MOL0     C17047   1.006   4.046  10.330  1.1245 -0.4928  0.4064
  130MOL0     C17048   0.895   4.071  10.231  0.6429  0.5528  0.7075
  130MOL0     C17049   0.847   3.941  10.156  0.9632  0.0914 -0.0901
  130MOL0     C17050   0.725   3.976  10.058  0.1071  0.3414 -0.9199
  130MOL0     C17051   0.767   4.020   9.918 -0.3917 -0.2246 -0.2920
  130MOL0     O17052   0.854   3.925   9.856 -1.5213  0.3873  0.3792
  130MOL0     C17053   0.789   3.807   9.828 -1.2169 -0.2876  1.2808
  130MOL0     C17054   0.814   3.688   9.897 -0.0714 -0.4051 -0.6168
  130MOL0     C17055   0.723   3.591   9.876 -0.2625  0.2292 -0.1975
  130MOL0     C17056   0.632   3.588   9.778 -0.5409  0.1909 -0.5094
  130MOL0     C17057   0.555   3.466   9.748  0.8075 -0.0292  0.2697
  130MOL0     O17058   0.565   3.361   9.838 -0.2731  0.0408 -1.0818
  130MOL0     C17059   0.546   3.236   9.789 -0.4535  0.8782  1.0092
  130MOL0     C17060   0.555   3.189   9.654  0.1359 -1.1287 -0.2560
  130MOL0     C17061   0.534   3.053   9.628  0.8858  0.3446 -0.5241
  130MOL0     C17062   0.519   2.960   9.726 -0.8147 -0.6040 -0.0489
  130MOL0     O17063   0.505   2.822   9.701  0.0309 -0.2281 -0.2965
  130MOL0     C17064   0.599   2.761   9.615 -0.4624  0.2468 -0.0604
  130MOL0     C17065   0.643   2.644   9.684  0.0906  0.5631 -0.5048
  130MOL0     C17066   0.767   2.582   9.599  0.0463 -0.1451  1.1803
  130MOL0     C17067   0.811   2.441   9.651  0.9908 -0.0366 -0.5446
  130MOL0     C17068   0.930   2.385   9.576  0.7779  0.2990 -0.1902
  130MOL0     C17069   0.868   2.318   9.448  0.2992 -0.4504  1.2073
  130MOL0     C17070   0.803   2.173   9.448 -0.3684 -0.6136  0.6744
  130MOL0     C17071   0.888   2.081   9.524  0.1663  0.2343 -0.3118
  130MOL0    Cl17072   1.059   2.071   9.479 -0.0240  0.1547  0.3896
  130MOL0     C17073   0.524   3.000   9.860  0.3597  0.5023  0.1079
  130MOL0     C17074   0.528   3.138   9.884 -0.6663  0.0432  0.7798
  130MOL0     O17075   0.487   3.460   9.646  0.0447  0.4058  0.5503
  130MOL0     C17076   0.621   3.700   9.693 -0.1227 -0.3092  0.0487
  130MOL0     C17077   0.703   3.815   9.716  0.4258  0.3375  0.1568
  130MOL0     N17078   1.086   3.932  10.342 -0.6319 -0.8555 -0.3904
  130MOL0     N17079   1.155   3.940  10.453  1.1522 -1.7312 -0.5424
  130MOL0     C17080   1.432   3.451  10.109 -0.4498  0.6050  0.0327
  130MOL0     C17081   1.381   3.428   9.979 -0.1050 -0.1032  0.0146
  130MOL0     C17082   1.016   3.440   9.681  0.1213  0.0971 -0.4248
  130MOL0     C17083   0.905   3.359   9.649 -0.0658  0.0967  0.7214
  130MOL0     C17084   0.843   3.359   9.519  0.1810 -0.8233  0.7249
  130MOL0     C17085   0.881   3.456   9.427  0.0795 -0.9212  0.4568
  130MOL0     O17086   0.848   3.457   9.293  0.6507 -0.3033 -0.2552
  130MOL0     C17087   0.833   3.590   9.233  0.5044 -1.0232  0.0897
  130MOL0     C17088   0.785   3.577   9.089 -0.1616 -0.0170  0.0063
  130MOL0     C17089   0.858   3.471   9.011 -0.1713  0.0523  0.6284
  130MOL0     C17090   1.012   3.480   9.007  0.1089 -0.1684  1.7648
  130MOL0     C17091   1.072   3.607   8.967  0.9456  0.0030  0.7324
  130MOL0     C17092   1.122   3.711   8.932  0.7892 -0.4014  0.3305
  130MOL0     C17093   0.993   3.543   9.461 -0.0913  0.3804  0.0333
  130MOL0     C17094   1.061   3.531   9.583 -0.2658  0.8513  0.8485
  130MOL0     H17095   1.136   3.669   9.980  1.3403  2.8739  0.7061
  130MOL0     H17096   1.232   3.710  10.201  0.7672  1.6324 -3.0348
  130MOL0     H17097   1.555   3.736  10.221 -2.1627 -0.8139  0.8633
  130MOL0     H17098   1.631   3.583  10.245 -0.0020 -0.9946  0.2429
  130MOL0     H17099   1.707   3.777  10.412 -1.2096  2.1899  0.2986
  130MOL0     H17100   1.620   3.638  10.483  2.7993  0.4395 -0.0154
  130MOL0     H17101   1.418   3.762  10.513  0.2419 -0.1968  0.6515
  130MOL0     H17102   1.475   3.895  10.406  1.3612 -0.3931 -1.6732
  130MOL0     H17103   1.601   3.833  10.680  2.0420 -3.2063 -3.9818
  130MOL0     H17104   1.636   3.969  10.567  0.7445 -0.8575 -0.1389
  130MOL0     H17105   1.488   3.977  10.778  3.4238 -3.4938 -0.5610
  130MOL0     H17106   1.360   3.902  10.681  0.8017 -1.8435 -0.0456
  130MOL0     H17107   1.424   4.088  10.492  2.3962 -1.4317 -0.4746
  130MOL0     H17108   1.503   4.169  10.622 -0.0545 -1.1315  1.0693
  130MOL0     H17109   1.292   4.193  10.765 -0.9313  0.5420 -0.5715
  130MOL0     H17110   1.308   4.279  10.621  0.1486 -0.2259 -0.6303
  130MOL0     H17111   1.085   4.204  10.647  0.3957 -0.0909  0.1898
  130MOL0     H17112   1.143   4.042  10.714  1.1517 -4.2212 -2.7638
  130MOL0     H17113   0.983   4.225  10.455 -0.3306 -0.4168  0.9897
  130MOL0     H17114   0.929   4.146  10.159  3.0756 -1.8286 -0.8017
  130MOL0     H17115   0.814   4.111  10.293 -1.4825 -0.8602 -1.0092
  130MOL0     H17116   0.827   3.875  10.241  0.5319 -1.1338 -1.1223
  130MOL0     H17117   0.925   3.896  10.094 -0.3069 -0.0035 -1.6722
  130MOL0     H17118   0.677   3.878  10.048  3.6693 -2.1977  3.0997
  130MOL0     H17119   0.651   4.041  10.106 -1.8156 -2.5109  0.2060
  130MOL0     H17120   0.825   4.110   9.942 -1.9275  0.6597  0.2837
  130MOL0     H17121   0.688   4.052   9.849 -0.5021 -3.2427 -1.7243
  130MOL0     H17122   0.890   3.675   9.972  0.7268 -2.5052 -1.7050
  130MOL0     H17123   0.722   3.509   9.947 -2.4824 -1.5655 -2.1386
  130MOL0     H17124   0.567   3.255   9.569  0.8301 -0.9949 -0.0586
  130MOL0     H17125   0.542   3.017   9.526 -0.2382  3.0010 -1.6494
  130MOL0     H17126   0.676   2.838   9.600 -2.0508  1.7919 -0.6070
  130MOL0     H17127   0.552   2.736   9.520 -1.4387  1.7443 -0.0043
  130MOL0     H17128   0.564   2.571   9.702 -1.1915  1.1332 -3.3353
  130MOL0     H17129   0.682   2.669   9.783 -0.1003  1.9927 -0.7659
  130MOL0     H17130   0.856   2.645   9.605 -0.9570  1.1970  3.1843
  130MOL0     H17131   0.739   2.589   9.494 -0.1962  1.5923  1.3158
  130MOL0     H17132   0.846   2.463   9.752  0.4551  2.2686 -0.8022
  130MOL0     H17133   0.724   2.373   9.648 -0.7822  2.0522  0.5331
  130MOL0     H17134   0.976   2.316   9.648  1.2085 -0.5849 -1.2712
  130MOL0     H17135   1.008   2.461   9.563  0.7039  0.6326  1.1750
  130MOL0     H17136   0.953   2.329   9.380  0.7297 -0.6436  1.7066
  130MOL0     H17137   0.792   2.372   9.391 -0.5781 -2.7306  0.0602
  130MOL0     H17138   0.706   2.180   9.498  0.2049  0.8499  1.6350
  130MOL0     H17139   0.783   2.141   9.346 -1.3271  2.2370 -0.1130
  130MOL0     H17140   0.832   1.987   9.529 -2.1347  1.5856  1.0669
  130MOL0     H17141   0.886   2.119   9.627  1.3114  2.2248 -0.9708
  130MOL0     H17142   0.504   2.935   9.945  0.7590  3.3605  2.5489
  130MOL0     H17143   0.522   3.187   9.980 -0.4263 -1.1871  1.4464
  130MOL0     H17144   0.556   3.701   9.606  1.3197  1.0010 -1.0728
  130MOL0     H17145   0.695   3.910   9.664 -1.2311  1.3569  2.1494
  130MOL0     H17146   1.525   3.404  10.137 -0.8562 -2.1509 -2.7741
  130MOL0     H17147   1.432   3.360   9.911 -2.2804 -0.0780 -1.7919
  130MOL0     H17148   0.861   3.270   9.694 -0.4623 -0.9477 -1.5754
  130MOL0     H17149   0.765   3.290   9.488  0.4612  0.5258 -3.6623
  130MOL0     H17150   0.925   3.650   9.230 -0.1608  0.4658  3.7785
  130MOL0     H17151   0.762   3.644   9.296  3.2909 -0.8405  3.4299
  130MOL0     H17152   0.681   3.540   9.088 -0.2415  0.2059  0.1327
  130MOL0     H17153   0.801   3.666   9.029 -0.1164 -1.4806 -2.2775
  130MOL0     H17154   0.829   3.479   8.906 -1.3169 -2.3101  0.6933
  130MOL0     H17155   0.823   3.369   9.029  1.3844 -0.4489  0.9118
  130MOL0     H17156   1.052   3.441   9.101  0.0045 -3.0430  0.7380
  130MOL0     H17157   1.040   3.408   8.929 -0.1542 -0.4287  1.9058
  130MOL0     H17158   1.161   3.806   8.901  2.8089 -0.3320  2.7450
  130MOL0     H17159   1.046   3.600   9.386  1.7569 -1.6293 -0.2838
  130MOL0     H17160   1.139   3.601   9.612  0.1207  0.8882 -0.2088
  131MOL0     O17161   9.626   3.308   0.956  0.2399  0.1308 -1.0834
  131MOL0     C17162   9.664   3.228   1.044  0.9631 -0.1862  0.1344
  131MOL0     O17163   9.580   3.153   1.113 -0.0217 -0.0791  0.6392
  131MOL0     C17164   9.453   3.167   1.091 -0.3899 -0.7608 -0.4022
  131MOL0     C17165   9.374   3.270   1.153  0.0942 -0.2507 -0.1169
  131MOL0     C17166   9.236   3.254   1.157 -0.2217  0.0910 -0.5884
  131MOL0     C17167   9.172   3.149   1.092 -0.3176 -0.0276 -1.1283
  131MOL0     O17168   9.036   3.131   1.102 -0.7162 -0.2650  0.2267
  131MOL0     C17169   8.965   3.150   0.982 -0.0526  0.4439 -0.7260
  131MOL0     C17170   8.819   3.108   1.003 -1.1316 -1.0669 -0.1663
  131MOL0     C17171   8.804   2.964   1.039 -0.2302  0.4273  0.2925
  131MOL0     C17172   8.666   2.908   1.009  0.2373  0.3292  0.4298
  131MOL0     C17173   8.551   3.000   1.051 -0.2075  0.9100  0.2451
  131MOL0     C17174   8.419   2.921   1.063 -0.6629  0.4439 -0.3772
  131MOL0     C17175   8.310   3.019   1.052  0.0484 -0.2786  0.1984
  131MOL0     C17176   8.172   2.959   1.070 -0.6168 -0.9704 -0.1430
  131MOL0     N17177   8.084   3.076   1.085 -1.1750 -0.8633  0.3038
  131MOL0     C17178   8.093   3.199   1.156  0.0363  0.1396 -0.1978
  131MOL0     C17179   7.975   3.259   1.137  0.0387  0.8554 -0.4236
  131MOL0     C17180   7.942   3.399   1.195 -0.4732  0.0866 -0.0403
  131MOL0     C17181   8.063   3.484   1.249  0.4914  0.9746  0.5699
  131MOL0     C17182   8.031   3.627   1.298 -0.5365 -0.1337  0.0900
  131MOL0     C17183   8.158   3.694   1.362 -0.4391  0.4463 -0.5767
  131MOL0     O17184   8.209   3.609   1.472  0.4598 -0.3623 -0.4099
  131MOL0     C17185   8.326   3.655   1.527 -0.5031  0.1382 -0.1490
  131MOL0     C17186   8.379   3.595   1.645  0.1591  0.2374  0.0458
  131MOL0     C17187   8.508   3.616   1.698 -0.5276 -0.5925 -0.0247
  131MOL0     C17188   8.601   3.706   1.625 -0.0654 -0.7874  0.0801
  131MOL0     C17189   8.739   3.732   1.670  0.1836  0.2711 -0.3299
  131MOL0     O17190   8.771   3.654   1.783  0.9765 -0.5329  0.2224
  131MOL0     C17191   8.893   3.674   1.848  0.6687 -0.5750  0.8320
  131MOL0     C17192   8.967   3.558   1.883  0.1720 -0.7885  0.8870
  131MOL0     C17193   9.085   3.574   1.948  0.5530  0.6928  0.2170
  131MOL0     C17194   9.134   3.696   1.982 -0.3283  0.0551 -1.0700
  131MOL0     O17195   9.257   3.708   2.041  0.3431 -0.0325  0.8630
  131MOL0     C17196   9.352   3.807   1.991  0.5369  0.3571  1.6133
  131MOL0     C17197   9.432   3.860   2.110  0.3770 -0.2100 -0.3798
  131MOL0     C17198   9.543   3.768   2.165 -0.0490  0.6162  1.0780
  131MOL0     C17199   9.635   3.829   2.268 -0.0033 -0.7265  0.3057
  131MOL0     C17200   9.705   3.714   2.347 -0.4750 -0.2960  0.3882
  131MOL0     C17201   9.807   3.761   2.442 -0.0844 -0.6404 -0.5299
  131MOL0     C17202   9.913   3.868   2.382  1.2687  0.7347  0.2261
  131MOL0     C17203  10.050   3.862   2.447  0.2688 -0.6511  0.8264
  131MOL0    Cl17204  10.125   3.706   2.432 -0.2032  0.1131  0.1505
  131MOL0     C17205   9.059   3.806   1.942  1.0316  0.8855 -0.2788
  131MOL0     C17206   8.930   3.800   1.887 -0.5503  0.0522 -0.3038
  131MOL0     O17207   8.817   3.813   1.612  0.7611 -0.1200  0.5442
  131MOL0     C17208   8.547   3.781   1.518  0.3637  0.9478  0.4184
  131MOL0     C17209   8.416   3.747   1.466 -0.3647  1.3986  0.4835
  131MOL0     N17210   7.895   3.183   1.050  0.5967 -0.3001  1.0583
  131MOL0     N17211   7.961   3.074   1.020  0.4860 -0.9237 -0.4937
  131MOL0     C17212   9.246   3.050   1.029 -1.0694  0.2867 -0.1653
  131MOL0     C17213   9.389   3.064   1.037  0.1303 -0.7225 -0.3083
  131MOL0     C17214   9.810   3.224   1.082 -0.0105 -0.2958 -0.5115
  131MOL0     C17215   9.864   3.143   1.187  0.5363  0.2337 -0.3513
  131MOL0     C17216  10.002   3.163   1.225  0.6697 -0.0741  0.4001
  131MOL0     C17217  10.083   3.245   1.152  0.9016 -0.8410  1.4963
  131MOL0     O17218  10.217   3.229   1.180  0.1824  0.1458  0.1142
  131MOL0     C17219  10.306   3.334   1.136  0.7549 -0.1388 -0.7728
  131MOL0     C17220  10.441   3.290   1.185  1.4631  0.4337  0.3415
  131MOL0     C17221  10.534   3.409   1.186  0.0640 -0.0396 -0.2045
  131MOL0     C17222  10.678   3.372   1.227 -0.4481 -1.3416  0.0607
  131MOL0     C17223  10.694   3.322   1.364 -0.3969 -0.1147  0.2501
  131MOL0     C17224  10.696   3.269   1.472  0.8547  0.0536  0.0191
  131MOL0     C17225  10.030   3.323   1.046  0.5323  0.5082  0.2363
  131MOL0     C17226   9.899   3.317   1.016 -0.2707  0.6717  0.1761
  131MOL0     H17227   9.405   3.360   1.205 -0.8945  0.0425 -0.0151
  131MOL0     H17228   9.180   3.334   1.205  0.5285  0.5720 -0.5087
  131MOL0     H17229   9.000   3.108   0.887  2.9943  0.1748  0.4180
  131MOL0     H17230   8.961   3.256   0.954  0.2734  0.0282 -2.5184
  131MOL0     H17231   8.765   3.117   0.908 -1.7667  2.2765  0.3661
  131MOL0     H17232   8.777   3.181   1.072  0.1045  0.1254 -0.6272
  131MOL0     H17233   8.840   2.937   1.139  0.1641  3.0200  0.9119
  131MOL0     H17234   8.872   2.912   0.970 -0.3675 -0.7817  1.0370
  131MOL0     H17235   8.656   2.875   0.905 -1.9166 -1.0589  1.0149
  131MOL0     H17236   8.663   2.813   1.063  0.2871 -0.7056 -1.2977
  131MOL0     H17237   8.538   3.089   0.988 -1.0638 -0.8261 -2.1643
  131MOL0     H17238   8.574   3.040   1.150 -2.3173 -1.3913  1.7940
  131MOL0     H17239   8.418   2.884   1.165  0.1726  1.1280 -0.1049
  131MOL0     H17240   8.414   2.833   0.998 -1.1097  0.2464 -0.0827
  131MOL0     H17241   8.331   3.092   1.130  0.1144 -0.8088  0.6831
  131MOL0     H17242   8.296   3.067   0.955  1.0804  0.5193  0.4239
  131MOL0     H17243   8.172   2.893   1.158 -1.4950 -0.8165 -0.0151
  131MOL0     H17244   8.144   2.897   0.984 -1.1237 -0.8820 -0.0440
  131MOL0     H17245   8.176   3.217   1.223 -1.8275 -0.5574  2.4995
  131MOL0     H17246   7.878   3.388   1.283  1.6967  2.8438  2.0772
  131MOL0     H17247   7.895   3.454   1.113 -3.4114 -1.4164  0.4938
  131MOL0     H17248   8.132   3.506   1.167  0.4553  3.5811  1.1428
  131MOL0     H17249   8.116   3.432   1.329 -1.4933  0.9816  1.9748
  131MOL0     H17250   8.001   3.693   1.216 -2.6617 -0.1272  0.8184
  131MOL0     H17251   7.957   3.627   1.378 -0.6513  2.1923  0.0491
  131MOL0     H17252   8.115   3.784   1.407 -0.1105  1.6445 -2.5263
  131MOL0     H17253   8.234   3.714   1.286 -0.2935 -1.7669 -1.1009
  131MOL0     H17254   8.329   3.518   1.702  2.6533 -0.4439  1.4874
  131MOL0     H17255   8.536   3.563   1.788  2.8290  0.2562 -0.4520
  131MOL0     H17256   8.949   3.454   1.860  2.6698 -1.3914  1.4197
  131MOL0     H17257   9.155   3.493   1.963  0.7841  1.2065  2.2038
  131MOL0     H17258   9.303   3.893   1.943  1.8294  0.6957  0.8490
  131MOL0     H17259   9.409   3.763   1.909 -1.8762 -0.4865  0.2673
  131MOL0     H17260   9.361   3.882   2.189  0.2717  0.5273 -0.6720
  131MOL0     H17261   9.484   3.953   2.087  1.8478 -1.0777 -0.7449
  131MOL0     H17262   9.595   3.735   2.074 -2.3628  1.5918 -0.7007
  131MOL0     H17263   9.496   3.684   2.218  2.2641  0.4031  2.9061
  131MOL0     H17264   9.705   3.894   2.215  0.4256 -1.8533 -0.5602
  131MOL0     H17265   9.576   3.887   2.340 -1.2472 -2.4720  0.7544
  131MOL0     H17266   9.758   3.646   2.280 -1.9983 -3.1398  1.8618
  131MOL0     H17267   9.630   3.644   2.386  1.0764 -2.2022  0.1046
  131MOL0     H17268   9.859   3.677   2.488  0.1986 -0.6594 -0.8801
  131MOL0     H17269   9.755   3.813   2.523 -2.5370 -3.0013 -0.4525
  131MOL0     H17270   9.917   3.843   2.276 -4.1302 -2.9640  0.4620
  131MOL0     H17271   9.884   3.971   2.404  2.0247  0.4876  2.7312
  131MOL0     H17272  10.041   3.889   2.552 -0.5207  2.7223 -0.0008
  131MOL0     H17273  10.125   3.926   2.400  0.5252 -0.3844  1.5805
  131MOL0     H17274   9.081   3.906   1.978  1.2285  1.9603 -3.1283
  131MOL0     H17275   8.867   3.886   1.870 -1.8385 -0.6940  0.5098
  131MOL0     H17276   8.611   3.847   1.461 -0.8961  1.3438 -0.5939
  131MOL0     H17277   8.392   3.807   1.378 -0.7613 -0.5510 -0.7880
  131MOL0     H17278   9.197   2.972   0.971 -1.4085  0.7337 -0.4800
  131MOL0     H17279   9.444   2.982   0.991 -2.1522 -0.4351 -3.9649
  131MOL0     H17280   9.788   3.094   1.246  0.8989  1.1507  0.9174
  131MOL0     H17281  10.023   3.114   1.320  0.7950  1.1824  1.0291
  131MOL0     H17282  10.269   3.429   1.175  0.4562 -1.5543  2.8820
  131MOL0     H17283  10.309   3.337   1.027 -2.0521  0.9597 -0.9070
  131MOL0     H17284  10.440   3.251   1.287  2.4175  1.8070  0.9162
  131MOL0     H17285  10.481   3.209   1.123 -2.8464 -0.3502 -1.7369
  131MOL0     H17286  10.515   3.474   1.272  0.1990 -1.3662  0.8766
  131MOL0     H17287  10.530   3.471   1.096  0.4901 -0.2545 -0.3761
  131MOL0     H17288  10.721   3.299   1.157  4.6581  1.8795 -0.6964
  131MOL0     H17289  10.750   3.453   1.217  0.3052 -2.0601 -0.5045
  131MOL0     H17290  10.704   3.206   1.559 -1.3109 -1.7720 -0.9825
  131MOL0     H17291  10.096   3.384   0.985  0.3216 -1.0319 -1.6048
  131MOL0     H17292   9.879   3.382   0.931 -0.9195  2.0923  1.3691
  132MOL0     O17293   4.816   1.419   2.130 -0.1199 -0.1439 -0.4139
  132MOL0     C17294   4.881   1.310   2.139 -1.2019 -0.5827  0.2322
  132MOL0     O17295   4.860   1.206   2.232 -0.6296 -0.6143 -0.5677
  132MOL0     C17296   4.749   1.212   2.303  0.3663  0.6960  0.1889
  132MOL0     C17297   4.657   1.109   2.285 -1.1059 -0.1421 -0.2836
  132MOL0     C17298   4.537   1.093   2.366  0.6613  0.7062 -0.3008
  132MOL0     C17299   4.513   1.186   2.469 -0.6704  0.4417  0.2186
  132MOL0     O17300   4.394   1.181   2.541  0.1268 -0.2467 -0.2118
  132MOL0     C17301   4.382   1.270   2.652  0.3064  0.4998  0.5989
  132MOL0     C17302   4.256   1.261   2.741 -0.8030  0.1785 -0.1231
  132MOL0     C17303   4.280   1.355   2.848 -0.0422  0.3908 -0.2394
  132MOL0     C17304   4.183   1.341   2.971 -0.0417  0.3536  0.5222
  132MOL0     C17305   4.216   1.456   3.075 -0.4221 -0.2750 -0.8915
  132MOL0     C17306   4.184   1.592   3.026 -0.0716  0.3287 -0.2361
  132MOL0     C17307   4.211   1.696   3.127 -1.1143  0.0133 -0.6240
  132MOL0     C17308   4.321   1.796   3.087 -1.1433  0.6746  0.9694
  132MOL0     N17309   4.325   1.904   3.187 -1.8420 -0.2331 -0.4007
  132MOL0     C17310   4.273   1.914   3.316  0.2698 -0.2131  0.1576
  132MOL0     C17311   4.289   2.040   3.352  0.8417 -0.5103 -0.2070
  132MOL0     C17312   4.234   2.093   3.486 -0.4423  0.0218 -0.3530
  132MOL0     C17313   4.195   2.234   3.490 -0.7309 -0.0840 -0.2964
  132MOL0     C17314   4.207   2.293   3.633 -0.4511  0.8835 -0.4933
  132MOL0     C17315   4.074   2.290   3.710 -0.3745 -0.8521 -0.4956
  132MOL0     O17316   4.037   2.167   3.764 -0.3132 -0.0783 -0.6549
  132MOL0     C17317   3.946   2.074   3.721 -0.4010 -0.6271  0.1474
  132MOL0     C17318   3.864   2.093   3.606  0.0057  0.1764 -0.6678
  132MOL0     C17319   3.774   1.981   3.575  0.2014 -0.6852 -0.8633
  132MOL0     C17320   3.760   1.874   3.666  0.2757 -0.5032  0.1167
  132MOL0     C17321   3.660   1.764   3.648 -0.0980  0.4824 -0.8725
  132MOL0     O17322   3.665   1.649   3.722 -0.2103  0.3327  0.1545
  132MOL0     C17323   3.564   1.557   3.700  0.2141 -0.9908 -0.5039
  132MOL0     C17324   3.578   1.448   3.604  0.6672 -0.8112 -0.1992
  132MOL0     C17325   3.461   1.376   3.569 -0.4747 -0.5211 -0.6422
  132MOL0     C17326   3.336   1.395   3.633 -0.6072  0.1593  1.0242
  132MOL0     O17327   3.231   1.312   3.601  0.0299  0.1395 -0.0359
  132MOL0     C17328   3.094   1.352   3.634 -0.5697 -0.7393  0.0634
  132MOL0     C17329   3.000   1.237   3.616  0.0283  0.5807  0.7686
  132MOL0     C17330   2.957   1.230   3.465  1.0553 -0.0770  0.4180
  132MOL0     C17331   2.865   1.117   3.442  0.2567 -0.2517  0.3070
  132MOL0     C17332   2.838   1.091   3.294 -0.1233 -0.2585  0.6846
  132MOL0     C17333   2.785   1.204   3.218 -0.3075  0.1052  0.2072
  132MOL0     C17334   2.724   1.177   3.078 -0.5576  0.0954 -0.0909
  132MOL0     C17335   2.612   1.078   3.055 -0.0538  0.3106  1.5001
  132MOL0    Cl17336   2.466   1.094   3.156 -0.1955 -0.1900 -0.1360
  132MOL0     C17337   3.332   1.503   3.725 -0.3379  0.7728  0.1309
  132MOL0     C17338   3.439   1.582   3.764  0.2140  0.1327  0.7876
  132MOL0     O17339   3.578   1.782   3.557  0.0806  0.1744  0.2666
  132MOL0     C17340   3.840   1.862   3.778  0.4047 -0.3373 -0.2406
  132MOL0     C17341   3.935   1.962   3.808  1.2567 -0.1573  0.4748
  132MOL0     N17342   4.345   2.110   3.251 -0.9039  0.1292  0.5325
  132MOL0     N17343   4.367   2.029   3.155  0.6430 -0.0055 -0.6313
  132MOL0     C17344   4.617   1.279   2.492  0.2859 -0.5872  0.2462
  132MOL0     C17345   4.722   1.299   2.410  0.1827  0.7398  0.3599
  132MOL0     C17346   5.018   1.314   2.080  0.3775 -0.2013 -1.1904
  132MOL0     C17347   5.056   1.419   1.996  0.6698 -0.1369  0.0110
  132MOL0     C17348   5.175   1.414   1.927  0.6080  0.1504  1.2152
  132MOL0     C17349   5.263   1.307   1.945 -0.0801 -0.8095  0.5406
  132MOL0     O17350   5.385   1.295   1.882  0.9273  0.4250  0.3475
  132MOL0     C17351   5.428   1.387   1.785 -0.4009 -0.1636 -0.4394
  132MOL0     C17352   5.582   1.377   1.769  0.3673  0.3473 -0.6374
  132MOL0     C17353   5.608   1.242   1.697 -1.2067  0.9052 -0.5343
  132MOL0     C17354   5.742   1.248   1.626 -0.4680  0.0240 -0.0666
  132MOL0     C17355   5.783   1.121   1.567 -0.2770 -0.6914 -1.0254
  132MOL0     C17356   5.815   1.017   1.511  0.6713 -0.1060  0.5838
  132MOL0     C17357   5.232   1.194   2.029  0.0619  0.3864  0.9722
  132MOL0     C17358   5.104   1.200   2.088 -0.4868  0.1527 -0.9946
  132MOL0     H17359   4.687   1.025   2.225 -1.2511 -1.7102  1.7314
  132MOL0     H17360   4.475   1.006   2.349  0.4336  0.7833  0.1175
  132MOL0     H17361   4.386   1.374   2.617 -1.2402  0.6947  0.9151
  132MOL0     H17362   4.463   1.258   2.724 -0.0360  1.9115  1.2638
  132MOL0     H17363   4.250   1.157   2.774  1.6788 -1.2383 -3.5891
  132MOL0     H17364   4.168   1.286   2.681 -0.7346 -1.4553 -0.9781
  132MOL0     H17365   4.271   1.455   2.805 -0.7372 -0.1751 -1.4580
  132MOL0     H17366   4.381   1.348   2.891 -0.4441  1.8097  1.0154
  132MOL0     H17367   4.077   1.351   2.947 -0.7316  4.7679  4.1003
  132MOL0     H17368   4.207   1.242   3.009  3.3246 -0.7735 -3.7798
  132MOL0     H17369   4.325   1.448   3.082  0.0559  2.5090 -3.2872
  132MOL0     H17370   4.180   1.438   3.177  0.3505  5.0666  0.6292
  132MOL0     H17371   4.078   1.599   3.001  0.4473  3.2521 -2.0720
  132MOL0     H17372   4.234   1.618   2.932 -2.3307  2.6283 -0.8937
  132MOL0     H17373   4.120   1.756   3.140 -0.8416  0.2033  0.5510
  132MOL0     H17374   4.216   1.654   3.228 -2.4338 -0.9014 -0.8984
  132MOL0     H17375   4.305   1.817   2.981  0.4732  0.8325  0.7420
  132MOL0     H17376   4.406   1.728   3.096 -1.9864 -0.3689  1.3395
  132MOL0     H17377   4.221   1.841   3.377 -3.5261  0.1669 -2.2810
  132MOL0     H17378   4.316   2.088   3.557 -1.2737 -1.1531  0.5620
  132MOL0     H17379   4.153   2.028   3.521 -0.0593  0.4022  1.3248
  132MOL0     H17380   4.091   2.243   3.459 -0.6902 -0.5397 -0.5713
  132MOL0     H17381   4.254   2.288   3.415 -1.6455 -3.1804 -3.5040
  132MOL0     H17382   4.279   2.243   3.699  1.0430  1.8777 -1.2989
  132MOL0     H17383   4.244   2.396   3.626 -1.5566  1.1536 -3.6137
  132MOL0     H17384   3.997   2.338   3.648  2.3699  4.0781 -0.6430
  132MOL0     H17385   4.091   2.356   3.796  1.3917  0.0188 -1.4665
  132MOL0     H17386   3.879   2.174   3.536  3.6229  0.3053  0.0900
  132MOL0     H17387   3.700   1.988   3.496  0.8167  1.4640 -1.3378
  132MOL0     H17388   3.677   1.436   3.560 -0.1437  0.2823 -2.5201
  132MOL0     H17389   3.470   1.315   3.480 -0.2107  2.2060 -2.5967
  132MOL0     H17390   3.055   1.448   3.601 -0.0263  0.1133  1.7891
  132MOL0     H17391   3.087   1.357   3.743 -3.0029 -3.0429  0.1225
  132MOL0     H17392   2.909   1.245   3.676 -0.0236  1.9879  0.5350
  132MOL0     H17393   3.051   1.142   3.636 -0.2153  0.4208  0.6446
  132MOL0     H17394   3.048   1.208   3.409 -0.7009 -1.2983 -2.1544
  132MOL0     H17395   2.919   1.331   3.449  1.5062  0.2455  1.3293
  132MOL0     H17396   2.907   1.022   3.475  0.4394 -1.0202 -1.9554
  132MOL0     H17397   2.775   1.147   3.496 -0.7529 -0.7703 -1.0380
  132MOL0     H17398   2.763   1.012   3.283 -0.1256 -0.2288  0.4894
  132MOL0     H17399   2.919   1.045   3.238  1.7623  1.9980  1.4122
  132MOL0     H17400   2.858   1.285   3.216 -0.9294  0.8431 -5.0262
  132MOL0     H17401   2.700   1.237   3.279  1.9662 -0.6327  4.1520
  132MOL0     H17402   2.694   1.276   3.042  0.4756 -0.1091 -1.5895
  132MOL0     H17403   2.804   1.151   3.008  0.7823  3.5007  0.0035
  132MOL0     H17404   2.640   0.973   3.056  0.7417  0.4807  0.0211
  132MOL0     H17405   2.581   1.082   2.950 -0.9281 -1.7150  1.6426
  132MOL0     H17406   3.244   1.530   3.782 -0.1467 -0.9774  1.3535
  132MOL0     H17407   3.430   1.657   3.842 -2.5837 -1.0191  1.6891
  132MOL0     H17408   3.821   1.787   3.855  3.1846  1.3710  2.3359
  132MOL0     H17409   3.991   1.965   3.900  3.6641 -0.8532 -0.8772
  132MOL0     H17410   4.606   1.337   2.583  1.3720 -1.8900  1.2644
  132MOL0     H17411   4.794   1.381   2.414  0.6973  0.4889 -2.0327
  132MOL0     H17412   4.990   1.504   1.977  0.4794  0.7100  3.7271
  132MOL0     H17413   5.205   1.497   1.863  1.5601  0.3598  1.9146
  132MOL0     H17414   5.399   1.488   1.814 -0.1043 -0.6500  1.6928
  132MOL0     H17415   5.384   1.375   1.685 -0.3449 -0.0015 -0.4829
  132MOL0     H17416   5.617   1.466   1.716  3.2374  0.4737  1.2518
  132MOL0     H17417   5.643   1.380   1.860  0.7288 -0.7675 -0.8233
  132MOL0     H17418   5.520   1.216   1.638 -1.5150 -0.5238  0.4735
  132MOL0     H17419   5.623   1.169   1.778  1.9855  1.2063 -0.7333
  132MOL0     H17420   5.716   1.317   1.545 -0.0883 -0.1824 -0.3692
  132MOL0     H17421   5.818   1.297   1.687 -2.1672  1.7195  0.7864
  132MOL0     H17422   5.859   0.943   1.448  2.0824  2.6891 -1.9633
  132MOL0     H17423   5.281   1.097   2.025  0.1021  0.4355 -2.3122
  132MOL0     H17424   5.080   1.108   2.141 -2.0732  1.1419  0.1097
  133MOL0     O17425  10.023  10.815   4.819 -0.0580  0.3846  0.4822
  133MOL0     C17426  10.125  10.759   4.810  0.0115 -0.2321 -0.1982
  133MOL0     O17427  10.194  10.721   4.697  0.8723 -0.1537  0.5341
  133MOL0     C17428  10.202  10.807   4.588  0.8263 -0.1783  0.2453
  133MOL0     C17429  10.139  10.930   4.582 -0.6697  0.0774 -0.7624
  133MOL0     C17430  10.147  11.009   4.472  0.3970  0.2084 -0.3386
  133MOL0     C17431  10.243  10.976   4.370 -0.1646  0.4053 -0.7282
  133MOL0     O17432  10.263  11.058   4.265  0.2282 -0.4203 -0.5786
  133MOL0     C17433  10.284  11.004   4.137  0.3478  1.1807 -0.4434
  133MOL0     C17434  10.170  10.925   4.075 -0.1608 -0.7587 -0.1239
  133MOL0     C17435  10.076  11.015   3.995  0.2450 -0.0117  0.0039
  133MOL0     C17436   9.985  10.920   3.914 -0.8433 -0.0539 -0.4901
  133MOL0     C17437   9.888  11.012   3.843 -0.1871  0.5759 -0.7810
  133MOL0     C17438   9.768  11.050   3.921  0.0882 -0.1233 -0.8002
  133MOL0     C17439   9.691  10.925   3.974  0.1609  0.5908  0.1725
  133MOL0     C17440   9.553  10.962   4.020  0.2490  0.3870  1.1094
  133MOL0     N17441   9.558  11.029   4.150 -0.7574 -0.1841 -0.2121
  133MOL0     C17442   9.525  10.968   4.273  0.2558 -0.3417 -0.5099
  133MOL0     C17443   9.518  11.066   4.358 -0.6383  1.2516 -0.5658
  133MOL0     C17444   9.450  11.037   4.491  0.8770  0.4924  0.6426
  133MOL0     C17445   9.453  11.142   4.598 -0.1283 -0.3630 -0.4947
  133MOL0     C17446   9.353  11.247   4.566 -0.7914 -0.9934  0.2141
  133MOL0     C17447   9.364  11.370   4.665 -0.5339 -0.1246 -0.5358
  133MOL0     O17448   9.253  11.450   4.655 -0.4365  0.1146 -0.3322
  133MOL0     C17449   9.156  11.443   4.753  0.2665 -0.0601  0.4107
  133MOL0     C17450   9.095  11.564   4.779 -0.5351 -0.0522 -0.2215
  133MOL0     C17451   8.985  11.568   4.866  0.3593  0.5716 -0.2356
  133MOL0     C17452   8.938  11.444   4.918 -0.2612 -0.4630 -0.6696
  133MOL0     C17453   8.845  11.435   5.029 -1.0033  0.6076  0.1893
  133MOL0     O17454   8.816  11.316   5.097 -0.4285  0.1170  0.5568
  133MOL0     C17455   8.720  11.330   5.192  0.2616 -0.1278 -0.0510
  133MOL0     C17456   8.752  11.316   5.329  0.2720 -0.2980  0.1191
  133MOL0     C17457   8.640  11.290   5.414  0.1592  0.4710 -0.2956
  133MOL0     C17458   8.507  11.293   5.371  0.1368 -0.0606 -0.1488
  133MOL0     O17459   8.404  11.292   5.461 -0.4134 -0.0700 -0.8418
  133MOL0     C17460   8.270  11.308   5.415  0.1565  0.8465 -0.8363
  133MOL0     C17461   8.175  11.278   5.527  0.2623 -0.8834 -0.3899
  133MOL0     C17462   8.032  11.277   5.487  0.7616 -0.2460  0.0196
  133MOL0     C17463   7.931  11.249   5.608 -1.1653 -0.1751  0.2920
  133MOL0     C17464   7.780  11.255   5.570 -0.2886 -0.7115 -0.0278
  133MOL0     C17465   7.729  11.168   5.448 -1.0654  0.0325 -0.5508
  133MOL0     C17466   7.741  11.015   5.478  0.2888  0.1701 -0.2896
  133MOL0     C17467   7.698  10.937   5.355  0.0085 -0.3286  0.5192
  133MOL0    Cl17468   7.814  10.966   5.236  0.1424 -0.4069  0.3944
  133MOL0     C17469   8.480  11.314   5.231  0.0467 -0.0759 -0.2804
  133MOL0     C17470   8.587  11.318   5.145 -1.6139 -0.0722  0.3457
  133MOL0     O17471   8.796  11.541   5.045 -0.0626 -0.9365 -0.1213
  133MOL0     C17472   9.001  11.317   4.894  0.8075 -0.0887  0.0740
  133MOL0     C17473   9.114  11.333   4.819 -0.5865 -0.6176 -0.1382
  133MOL0     N17474   9.546  11.181   4.297 -0.2259  0.1080 -0.8944
  133MOL0     N17475   9.577  11.158   4.170 -0.3989  0.4390 -0.2152
  133MOL0     C17476  10.311  10.853   4.377 -0.4082  0.0209  0.0386
  133MOL0     C17477  10.287  10.765   4.483  0.5008  0.3545 -1.0538
  133MOL0     C17478  10.183  10.705   4.930  0.2223 -0.4081  0.5691
  133MOL0     C17479  10.290  10.604   4.933  0.2061 -0.6066 -1.1507
  133MOL0     C17480  10.354  10.572   5.048 -0.3247 -0.7618 -0.3351
  133MOL0     C17481  10.308  10.617   5.168  0.3075 -0.7433  0.4886
  133MOL0     O17482  10.359  10.592   5.288 -0.7310  0.3354  0.4213
  133MOL0     C17483  10.264  10.525   5.365 -0.4824 -0.1333 -0.3670
  133MOL0     C17484  10.342  10.423   5.447  0.5195 -0.2527  0.4511
  133MOL0     C17485  10.427  10.327   5.359 -0.8260 -0.8199  0.2471
  133MOL0     C17486  10.452  10.191   5.418 -0.1907  0.0998 -0.5846
  133MOL0     C17487  10.476  10.192   5.565  0.3974  0.1202  0.3127
  133MOL0     C17488  10.517  10.213   5.683  0.9196  0.7930 -0.0084
  133MOL0     C17489  10.205  10.713   5.164  0.2806  0.4454  0.1697
  133MOL0     C17490  10.147  10.756   5.053  0.1755 -0.2632 -0.7926
  133MOL0     H17491  10.099  10.982   4.668  3.2664 -2.2055  2.8137
  133MOL0     H17492  10.102  11.106   4.491 -1.0147 -0.3385 -0.7714
  133MOL0     H17493  10.373  10.943   4.122 -3.0634 -4.6386 -0.2723
  133MOL0     H17494  10.306  11.086   4.069  2.5857 -0.0859 -1.3584
  133MOL0     H17495  10.109  10.886   4.157 -1.1236  1.1479  0.1142
  133MOL0     H17496  10.213  10.855   4.003  1.0504  0.7497 -0.9276
  133MOL0     H17497  10.123  11.082   3.922 -0.3995 -0.2834 -0.6683
  133MOL0     H17498  10.015  11.081   4.058 -0.5863  1.5587 -2.2788
  133MOL0     H17499  10.051  10.869   3.843  4.0347  2.1898  1.9138
  133MOL0     H17500   9.945  10.837   3.974 -1.2516 -0.4595 -1.3091
  133MOL0     H17501   9.845  10.963   3.755 -4.4170 -3.6054  3.0108
  133MOL0     H17502   9.927  11.108   3.808 -2.6334  2.3544  0.9865
  133MOL0     H17503   9.694  11.114   3.872 -0.3286 -0.6290 -0.8475
  133MOL0     H17504   9.789  11.088   4.021 -2.8852 -0.3079 -0.0206
  133MOL0     H17505   9.660  10.861   3.891  1.0015  1.6794 -1.0144
  133MOL0     H17506   9.745  10.873   4.054 -1.6318  1.8734  2.3431
  133MOL0     H17507   9.484  10.879   4.035 -2.0868  2.0582  0.0741
  133MOL0     H17508   9.505  11.025   3.945 -0.2072 -1.6263 -0.3744
  133MOL0     H17509   9.507  10.862   4.287  1.8959 -0.8185 -1.7610
  133MOL0     H17510   9.499  10.945   4.525 -1.7329 -2.1016 -1.9908
  133MOL0     H17511   9.354  10.988   4.475  0.8348  0.9647 -0.6712
  133MOL0     H17512   9.556  11.176   4.591 -0.0912 -0.8010 -2.6521
  133MOL0     H17513   9.440  11.096   4.697  1.9696  0.0122  0.0099
  133MOL0     H17514   9.349  11.282   4.463 -2.1946  3.3635  1.5309
  133MOL0     H17515   9.253  11.203   4.576 -0.5403 -2.1791 -1.9786
  133MOL0     H17516   9.458  11.425   4.655  0.4535 -1.6104  0.0798
  133MOL0     H17517   9.382  11.334   4.767  0.9942  0.6905 -0.4909
  133MOL0     H17518   9.153  11.645   4.735  1.7075 -0.4575  1.7780
  133MOL0     H17519   8.934  11.661   4.892  4.4610  3.0823 -0.2719
  133MOL0     H17520   8.857  11.330   5.355 -0.5705  1.6755  2.9039
  133MOL0     H17521   8.648  11.275   5.521 -2.6025 -1.5340 -0.2379
  133MOL0     H17522   8.244  11.229   5.344  0.9603 -0.4138  0.2121
  133MOL0     H17523   8.247  11.410   5.383  0.9365  2.1165  2.2542
  133MOL0     H17524   8.200  11.351   5.604 -4.1831 -0.4813  0.9469
  133MOL0     H17525   8.198  11.179   5.567  1.0082  0.2823  2.2223
  133MOL0     H17526   8.022  11.211   5.400  1.7482 -0.4602  0.0603
  133MOL0     H17527   8.018  11.379   5.451  1.6866  0.5888  1.8910
  133MOL0     H17528   7.951  11.156   5.661 -2.0061 -0.1459  0.6772
  133MOL0     H17529   7.945  11.327   5.683 -0.0233 -0.2026  0.1204
  133MOL0     H17530   7.777  11.360   5.539  1.3914 -0.5937  0.1140
  133MOL0     H17531   7.725  11.228   5.661  1.3274  0.2338  1.2903
  133MOL0     H17532   7.787  11.199   5.360  1.1388 -0.9171  0.4898
  133MOL0     H17533   7.622  11.187   5.435 -1.9110 -0.4187  4.0384
  133MOL0     H17534   7.848  11.005   5.499  0.7174  2.8364 -0.8365
  133MOL0     H17535   7.690  10.991   5.572 -0.0796  3.2535  0.3838
  133MOL0     H17536   7.601  10.970   5.320  0.6854  0.7114 -0.4372
  133MOL0     H17537   7.698  10.828   5.363  2.8951 -0.5220 -0.8436
  133MOL0     H17538   8.384  11.304   5.182 -0.1693 -1.5222  0.3769
  133MOL0     H17539   8.552  11.317   5.042 -3.4596  2.2457  0.8679
  133MOL0     H17540   8.981  11.225   4.947  1.9907  0.0365  0.7722
  133MOL0     H17541   9.159  11.235   4.813 -0.3617 -0.8191  3.0630
  133MOL0     H17542  10.371  10.818   4.293  1.4780 -1.4376  1.8769
  133MOL0     H17543  10.336  10.669   4.493  1.4013  1.0071  1.9815
  133MOL0     H17544  10.325  10.572   4.836  0.7827  0.6956 -1.3870
  133MOL0     H17545  10.438  10.504   5.045  0.8365  0.5358  1.1349
  133MOL0     H17546  10.195  10.466   5.304  1.2352 -0.6052 -1.9460
  133MOL0     H17547  10.216  10.592   5.438 -0.3788 -0.6008  0.1408
  133MOL0     H17548  10.412  10.475   5.513  2.6510 -1.5653 -0.6560
  133MOL0     H17549  10.260  10.365   5.492  0.6302 -0.5662  0.2480
  133MOL0     H17550  10.526  10.373   5.358 -1.3263  0.2613 -0.1215
  133MOL0     H17551  10.380  10.312   5.262 -3.6679  1.0478  1.2217
  133MOL0     H17552  10.367  10.126   5.396  1.5152 -1.8844 -1.6043
  133MOL0     H17553  10.540  10.142   5.376 -0.1910 -0.3292 -0.1014
  133MOL0     H17554  10.565  10.231   5.777  0.3436  1.2211  0.2060
  133MOL0     H17555  10.170  10.758   5.256 -1.9506 -0.3048 -0.2506
  133MOL0     H17556  10.076  10.838   5.063  1.2241  0.5468  0.3583
  134MOL0     O17557   6.414   9.515   8.633 -0.4679 -0.0866 -0.3587
  134MOL0     C17558   6.441   9.454   8.531  0.5118 -0.2719  0.2416
  134MOL0     O17559   6.379   9.338   8.496  0.4902  0.2069 -0.3905
  134MOL0     C17560   6.311   9.269   8.592 -0.1210 -0.3351 -1.0630
  134MOL0     C17561   6.173   9.282   8.624  0.0002 -0.2956 -0.2041
  134MOL0     C17562   6.109   9.199   8.717 -0.3677  0.0291 -0.3828
  134MOL0     C17563   6.180   9.104   8.793  0.5454  1.0004 -0.4609
  134MOL0     O17564   6.118   9.028   8.881  0.6093  0.1538 -0.1823
  134MOL0     C17565   6.164   8.896   8.923 -0.4991  1.3553 -1.0588
  134MOL0     C17566   6.093   8.780   8.852  0.0280 -0.3251 -0.0432
  134MOL0     C17567   6.155   8.645   8.874 -0.2336 -0.2066 -0.2367
  134MOL0     C17568   6.067   8.524   8.844 -1.2965 -0.4821 -0.8941
  134MOL0     C17569   6.036   8.500   8.692 -0.3661 -0.7055  0.3679
  134MOL0     C17570   5.959   8.371   8.660  0.4315 -0.2442  0.6882
  134MOL0     C17571   6.039   8.231   8.654 -0.0424 -1.1149  0.1434
  134MOL0     C17572   6.122   8.219   8.527  0.6086 -0.2512  0.2964
  134MOL0     N17573   6.043   8.175   8.413 -0.2347  1.0339  0.3360
  134MOL0     C17574   6.017   8.044   8.389  0.4009  0.1702  0.1705
  134MOL0     C17575   5.932   8.040   8.282  0.2867  0.0415  0.0763
  134MOL0     C17576   5.887   7.906   8.210  0.3885  0.7039 -0.7793
  134MOL0     C17577   5.857   7.917   8.057 -1.0058 -0.2447  0.5199
  134MOL0     C17578   5.719   7.854   8.026 -0.3913 -0.1975  0.4815
  134MOL0     C17579   5.610   7.961   8.037 -0.8362 -0.3121 -0.4881
  134MOL0     O17580   5.483   7.890   8.038 -0.2604 -0.3520  0.0188
  134MOL0     C17581   5.437   7.823   8.151  0.1088 -0.2488 -0.6219
  134MOL0     C17582   5.312   7.757   8.160  0.2095  0.1484  0.9497
  134MOL0     C17583   5.268   7.691   8.273  0.6726 -0.5033 -1.4378
  134MOL0     C17584   5.339   7.698   8.390  0.0773 -0.0566  0.4961
  134MOL0     C17585   5.284   7.638   8.509 -0.3079  0.5394 -1.0263
  134MOL0     O17586   5.361   7.662   8.622 -0.4723 -0.4103 -0.2589
  134MOL0     C17587   5.336   7.602   8.740 -0.3157 -0.2015 -0.8897
  134MOL0     C17588   5.399   7.483   8.763 -0.2184  1.1288  1.0755
  134MOL0     C17589   5.379   7.416   8.889 -0.5762  0.5962 -0.2909
  134MOL0     C17590   5.282   7.461   8.977  0.6068 -0.2151  0.0989
  134MOL0     O17591   5.251   7.387   9.083  0.9790 -0.5169 -1.1529
  134MOL0     C17592   5.113   7.365   9.124  0.3588  0.7161 -0.4189
  134MOL0     C17593   5.123   7.291   9.260  0.5983  1.1917 -0.3532
  134MOL0     C17594   5.225   7.367   9.345 -0.3236  0.0854 -0.4352
  134MOL0     C17595   5.219   7.317   9.489 -0.9634  0.0563 -0.1684
  134MOL0     C17596   5.322   7.383   9.586 -0.4431 -0.4292  0.0603
  134MOL0     C17597   5.254   7.514   9.636 -0.5739  0.5467  0.5522
  134MOL0     C17598   5.349   7.636   9.652  0.0654 -0.3745  0.1042
  134MOL0     C17599   5.471   7.605   9.742  0.3566 -0.3445  0.5272
  134MOL0    Cl17600   5.435   7.536   9.898 -0.6392  0.2960  0.1223
  134MOL0     C17601   5.205   7.577   8.941  0.9013  0.5175 -0.6431
  134MOL0     C17602   5.232   7.643   8.819  1.7301  0.2640 -0.2633
  134MOL0     O17603   5.202   7.546   8.505 -0.3648  0.1055  0.3435
  134MOL0     C17604   5.459   7.775   8.386  0.3394 -0.3455  1.4960
  134MOL0     C17605   5.507   7.833   8.267  0.1990 -0.3297  0.0730
  134MOL0     N17606   5.915   8.170   8.243  0.6912  0.4569  0.9308
  134MOL0     N17607   5.969   8.252   8.330 -0.1657 -0.3423 -0.1693
  134MOL0     C17608   6.318   9.098   8.767  0.1483 -0.6883  0.3633
  134MOL0     C17609   6.385   9.172   8.670 -0.4253  0.0960 -0.4823
  134MOL0     C17610   6.536   9.507   8.436 -0.1213 -0.3348  0.3413
  134MOL0     C17611   6.636   9.614   8.472 -0.1479  1.0682  0.1626
  134MOL0     C17612   6.745   9.647   8.387 -0.0667  0.8673  0.8150
  134MOL0     C17613   6.746   9.584   8.259  1.0403  1.7180 -0.3715
  134MOL0     O17614   6.830   9.614   8.159  0.3258  1.0587  0.8597
  134MOL0     C17615   6.789   9.726   8.072  0.5221  0.0530  0.4386
  134MOL0     C17616   6.764   9.676   7.927  0.5100  0.5180 -0.3375
  134MOL0     C17617   6.871   9.585   7.864  0.3861 -0.2385  0.2221
  134MOL0     C17618   7.012   9.646   7.878 -0.5098  0.3067  0.1756
  134MOL0     C17619   7.029   9.780   7.821 -0.9450  0.9623  0.7961
  134MOL0     C17620   7.052   9.892   7.780  0.2401 -0.3860  0.3147
  134MOL0     C17621   6.638   9.501   8.212 -0.2054  0.0528  0.4951
  134MOL0     C17622   6.540   9.460   8.303  0.4398 -0.9508 -1.0873
  134MOL0     H17623   6.123   9.364   8.573 -0.7059 -0.5334  0.0885
  134MOL0     H17624   6.002   9.213   8.715 -0.1894  1.5727 -2.6389
  134MOL0     H17625   6.164   8.894   9.032 -2.1972  0.2555 -1.0387
  134MOL0     H17626   6.272   8.882   8.920 -0.8720 -2.9544 -3.4174
  134MOL0     H17627   6.089   8.794   8.743  4.1014  3.0577 -0.0255
  134MOL0     H17628   5.994   8.778   8.899 -1.6989  0.1615 -3.3369
  134MOL0     H17629   6.198   8.643   8.975  2.9158 -1.7494 -1.4534
  134MOL0     H17630   6.245   8.641   8.812 -1.5311  3.2049 -2.6393
  134MOL0     H17631   6.111   8.427   8.870 -1.4448 -1.5170 -4.0209
  134MOL0     H17632   5.979   8.528   8.909 -0.1073  1.7678  0.7267
  134MOL0     H17633   6.134   8.499   8.644  1.5320  0.3811  3.8069
  134MOL0     H17634   5.979   8.586   8.657  0.0988 -1.2602 -1.8699
  134MOL0     H17635   5.908   8.382   8.564 -4.0974  2.2168  3.0613
  134MOL0     H17636   5.874   8.358   8.727 -1.3777  1.6080 -1.1300
  134MOL0     H17637   6.097   8.221   8.746  1.5521 -0.1308 -0.6910
  134MOL0     H17638   5.968   8.148   8.647  2.5913 -3.7483  2.1526
  134MOL0     H17639   6.203   8.147   8.541 -1.4116 -3.5730 -3.1082
  134MOL0     H17640   6.167   8.316   8.507  1.2677  0.0302  2.7395
  134MOL0     H17641   6.062   7.960   8.441 -0.0169  0.3738  0.8753
  134MOL0     H17642   5.801   7.879   8.272  1.1625 -3.1654 -1.1422
  134MOL0     H17643   5.949   7.818   8.232 -1.3151 -0.5479 -0.7469
  134MOL0     H17644   5.931   7.869   7.992  1.0385  1.1889  1.6565
  134MOL0     H17645   5.839   8.018   8.020 -2.7890 -0.0022  1.8948
  134MOL0     H17646   5.717   7.830   7.919  1.7286 -0.0000  0.3501
  134MOL0     H17647   5.696   7.761   8.079 -5.6564  0.5858  0.1193
  134MOL0     H17648   5.625   8.018   7.945  0.5752 -1.3176 -0.9340
  134MOL0     H17649   5.628   8.015   8.130 -1.8247  0.6953 -0.8745
  134MOL0     H17650   5.236   7.758   8.083 -0.1355  1.5310  1.2919
  134MOL0     H17651   5.175   7.634   8.266  1.0428 -1.5156  0.8621
  134MOL0     H17652   5.464   7.442   8.686  0.2667 -0.9263  2.4770
  134MOL0     H17653   5.427   7.326   8.925 -3.6337 -0.4233  1.7106
  134MOL0     H17654   5.071   7.298   9.049 -3.4857 -0.0904  2.1442
  134MOL0     H17655   5.055   7.458   9.128 -1.3620 -0.1944  5.4930
  134MOL0     H17656   5.131   7.183   9.242 -2.2448  0.8541 -0.0854
  134MOL0     H17657   5.026   7.290   9.311  0.1978 -2.2344 -0.9276
  134MOL0     H17658   5.219   7.476   9.354  0.7844  0.1103  0.1454
  134MOL0     H17659   5.322   7.341   9.303  0.3531 -1.4805  1.8810
  134MOL0     H17660   5.114   7.329   9.518 -1.8205 -2.1969 -2.0006
  134MOL0     H17661   5.236   7.209   9.484 -1.0097  0.1024 -2.2197
  134MOL0     H17662   5.405   7.424   9.528  1.1568 -3.3631  0.1149
  134MOL0     H17663   5.357   7.325   9.672 -2.7149 -0.7271  0.8642
  134MOL0     H17664   5.205   7.491   9.731  3.1213 -2.9975  1.9074
  134MOL0     H17665   5.180   7.559   9.569 -0.3956  2.6061  1.6713
  134MOL0     H17666   5.370   7.668   9.550 -0.1423 -0.1629  0.1274
  134MOL0     H17667   5.307   7.728   9.692  1.4793  0.8182 -1.0460
  134MOL0     H17668   5.519   7.701   9.763 -1.1587 -0.0470  3.0750
  134MOL0     H17669   5.525   7.534   9.679  0.3212 -0.5453  0.7239
  134MOL0     H17670   5.134   7.613   9.015 -0.3270  2.0645 -2.4938
  134MOL0     H17671   5.171   7.722   8.778  1.5349 -1.4787 -3.6361
  134MOL0     H17672   5.518   7.776   8.477 -1.5977 -0.7982  2.8077
  134MOL0     H17673   5.608   7.873   8.265 -0.3418  1.0821 -1.0716
  134MOL0     H17674   6.370   9.018   8.819 -0.2808 -1.0726  0.2080
  134MOL0     H17675   6.493   9.166   8.654  0.4707  1.8463  3.4590
  134MOL0     H17676   6.631   9.657   8.572  1.1525  1.4084  0.1013
  134MOL0     H17677   6.825   9.714   8.417 -0.6468  1.8299  0.2688
  134MOL0     H17678   6.868   9.801   8.064 -1.5585  2.9890  4.3973
  134MOL0     H17679   6.699   9.764   8.121 -2.2291 -3.8767 -1.0608
  134MOL0     H17680   6.667   9.626   7.936  0.5741  0.7791  5.0945
  134MOL0     H17681   6.743   9.761   7.862  1.0683  0.7815 -0.1765
  134MOL0     H17682   6.864   9.574   7.755 -1.3490  3.5667 -0.2275
  134MOL0     H17683   6.871   9.489   7.915  3.1869  1.4337  3.8512
  134MOL0     H17684   7.034   9.640   7.984 -1.0874 -4.1888  0.2233
  134MOL0     H17685   7.080   9.578   7.826 -1.6084 -2.6183  2.3354
  134MOL0     H17686   7.066   9.990   7.740 -1.7583  0.7391  2.1978
  134MOL0     H17687   6.642   9.456   8.113  1.4421 -1.8999  1.3610
  134MOL0     H17688   6.464   9.387   8.279  1.5610 -2.3617 -0.5125
  135MOL0     O17689   6.882   0.521   9.706  0.3607 -1.0571  0.4388
  135MOL0     C17690   6.816   0.419   9.726  0.9060  0.5096  0.2170
  135MOL0     O17691   6.706   0.377   9.658 -0.2306 -0.3135  1.0421
  135MOL0     C17692   6.687   0.424   9.525  0.2346  0.3591  0.1043
  135MOL0     C17693   6.637   0.555   9.503 -0.4383 -0.6971 -0.1141
  135MOL0     C17694   6.589   0.590   9.377  0.2019  0.6174  1.0781
  135MOL0     C17695   6.576   0.488   9.280  0.0474 -0.5631  0.3174
  135MOL0     O17696   6.520   0.499   9.158  0.0282  0.1296 -0.2023
  135MOL0     C17697   6.434   0.611   9.111  0.7176  0.4527 -0.1038
  135MOL0     C17698   6.292   0.575   9.136  0.1888 -0.5458  0.4125
  135MOL0     C17699   6.253   0.452   9.048 -0.6520 -0.3268  0.0084
  135MOL0     C17700   6.246   0.480   8.902  0.6594  0.9872  0.2837
  135MOL0     C17701   6.180   0.361   8.824 -0.0860 -0.3600 -0.5635
  135MOL0     C17702   6.127   0.397   8.682  1.7567 -0.2357 -1.3523
  135MOL0     C17703   6.257   0.384   8.602  0.5695 -0.4518 -1.2311
  135MOL0     C17704   6.224   0.457   8.466  0.0375  0.2019 -1.2417
  135MOL0     N17705   6.343   0.468   8.382 -0.1192 -0.1999 -0.0099
  135MOL0     C17706   6.384   0.571   8.307  0.2536  0.8433  1.2733
  135MOL0     C17707   6.503   0.535   8.248 -0.6001  0.0512  0.1267
  135MOL0     C17708   6.569   0.601   8.130  0.1360  0.2375 -1.0612
  135MOL0     C17709   6.470   0.672   8.022 -1.2518 -0.7941 -0.9652
  135MOL0     C17710   6.518   0.657   7.879  0.8370  0.1302 -0.5752
  135MOL0     C17711   6.656   0.724   7.859 -0.1454  0.7484 -0.9651
  135MOL0     O17712   6.638   0.860   7.889  0.6904 -0.7439 -0.1960
  135MOL0     C17713   6.739   0.935   7.849 -0.6899 -0.7848 -1.0767
  135MOL0     C17714   6.730   1.064   7.809 -0.3075 -0.6268  0.0206
  135MOL0     C17715   6.835   1.143   7.750  0.5352  0.5317 -0.5095
  135MOL0     C17716   6.955   1.081   7.726  0.2516 -0.2225 -0.8128
  135MOL0     C17717   7.062   1.157   7.663  0.2260  0.8798 -0.1679
  135MOL0     O17718   7.165   1.082   7.614  0.4952 -0.2760  1.2203
  135MOL0     C17719   7.260   1.145   7.537 -0.0619 -0.5141  0.1732
  135MOL0     C17720   7.394   1.114   7.554 -0.4384  0.0636  0.6392
  135MOL0     C17721   7.493   1.159   7.457  0.5554  0.3217 -0.6932
  135MOL0     C17722   7.444   1.237   7.348 -0.4126 -0.4771 -0.3328
  135MOL0     O17723   7.520   1.273   7.248 -0.6449  0.7499 -0.1395
  135MOL0     C17724   7.672   1.283   7.274  0.2027  0.2680 -0.4769
  135MOL0     C17725   7.747   1.298   7.146 -0.3283  0.1114  0.4526
  135MOL0     C17726   7.895   1.255   7.179  0.6682  0.0323  0.3560
  135MOL0     C17727   7.989   1.271   7.057  0.3581  0.9877  1.2958
  135MOL0     C17728   8.049   1.399   7.052  0.6161 -0.3023 -0.1529
  135MOL0     C17729   8.172   1.393   6.969 -0.3471  0.8774  0.2237
  135MOL0     C17730   8.222   1.531   6.923  0.0157 -0.6549 -0.1904
  135MOL0     C17731   8.223   1.553   6.771  0.1001 -0.5821  0.2453
  135MOL0    Cl17732   8.349   1.452   6.695  0.1031  0.3483 -0.0900
  135MOL0     C17733   7.310   1.269   7.347 -0.3363 -0.6706 -0.0184
  135MOL0     C17734   7.214   1.222   7.432 -0.9113  0.6390 -0.9350
  135MOL0     O17735   7.048   1.280   7.660  0.3805 -0.2229  0.0050
  135MOL0     C17736   6.973   0.953   7.777  0.2674 -0.2075 -0.3093
  135MOL0     C17737   6.869   0.887   7.842 -0.0596  0.4978 -0.2889
  135MOL0     N17738   6.540   0.411   8.299  0.6411 -0.2602 -0.1408
  135MOL0     N17739   6.437   0.369   8.375  0.4980 -0.0986 -0.3264
  135MOL0     C17740   6.632   0.365   9.301  1.3106  0.3193  0.7207
  135MOL0     C17741   6.689   0.330   9.420 -0.0969  0.9819  0.1626
  135MOL0     C17742   6.858   0.324   9.842  0.6587 -1.4834  0.1857
  135MOL0     C17743   6.948   0.366   9.941  0.9347 -0.0811 -0.1807
  135MOL0     C17744   6.980   0.281  10.047  0.5190 -0.2820 -0.7673
  135MOL0     C17745   6.929   0.149  10.061 -0.4542 -0.0153  0.5413
  135MOL0     O17746   6.986   0.069  10.154 -0.7406  0.4098  0.2826
  135MOL0     C17747   7.013  -0.065  10.124 -0.4068  0.4570 -0.1557
  135MOL0     C17748   7.113  -0.143  10.206 -0.6961  0.3038 -0.3629
  135MOL0     C17749   7.099  -0.127  10.354  0.4744  0.6749  0.4721
  135MOL0     C17750   7.137  -0.252  10.444  0.3433 -0.5133 -0.9696
  135MOL0     C17751   7.097  -0.231  10.587  0.8407  1.1882 -0.6094
  135MOL0     C17752   7.056  -0.227  10.695  0.7142  0.9398 -0.4085
  135MOL0     C17753   6.833   0.106   9.968 -0.7842 -0.1696  0.2903
  135MOL0     C17754   6.800   0.193   9.857  0.6820  0.1041 -0.0524
  135MOL0     H17755   6.627   0.622   9.587 -1.8856  1.2472 -1.7305
  135MOL0     H17756   6.540   0.684   9.351 -1.8871 -0.4087  1.0932
  135MOL0     H17757   6.442   0.629   9.004 -2.9919 -0.8720 -0.7398
  135MOL0     H17758   6.460   0.700   9.170 -0.7167 -2.0797  4.9951
  135MOL0     H17759   6.224   0.657   9.108  1.8721  0.5224 -0.7230
  135MOL0     H17760   6.279   0.543   9.240  1.6936  1.3320  1.2407
  135MOL0     H17761   6.153   0.428   9.087  0.1541 -3.5205  0.3553
  135MOL0     H17762   6.313   0.363   9.070 -2.3445 -1.6202 -0.3216
  135MOL0     H17763   6.186   0.569   8.880 -3.0123 -1.0491  1.4448
  135MOL0     H17764   6.349   0.496   8.866  1.9823 -1.8923  2.4184
  135MOL0     H17765   6.085   0.341   8.875  1.0110 -1.5870  1.1138
  135MOL0     H17766   6.242   0.271   8.826 -1.0217 -1.0109  0.5821
  135MOL0     H17767   6.087   0.499   8.680  2.6417  0.2158  0.8093
  135MOL0     H17768   6.045   0.330   8.654 -0.4537 -0.0097  3.5655
  135MOL0     H17769   6.332   0.448   8.650  2.0813 -1.8482 -1.6390
  135MOL0     H17770   6.304   0.286   8.594  0.6071 -0.5045 -0.4539
  135MOL0     H17771   6.172   0.553   8.475 -2.1129 -0.7300 -2.8755
  135MOL0     H17772   6.148   0.402   8.411 -1.8944  2.3295 -0.8677
  135MOL0     H17773   6.337   0.668   8.294 -1.0999  0.1494  0.8666
  135MOL0     H17774   6.637   0.525   8.090 -1.4733 -4.9376  4.5368
  135MOL0     H17775   6.621   0.685   8.175 -0.4516  0.1590 -0.2228
  135MOL0     H17776   6.457   0.775   8.057 -1.8581 -1.1071 -0.2203
  135MOL0     H17777   6.370   0.629   8.024 -1.5057 -0.2152 -1.0239
  135MOL0     H17778   6.522   0.551   7.852  1.0837  0.0085 -0.0731
  135MOL0     H17779   6.445   0.712   7.820 -1.1376  0.6154  2.1436
  135MOL0     H17780   6.694   0.702   7.759 -0.7453  1.9339 -1.4710
  135MOL0     H17781   6.724   0.692   7.939 -0.3431  1.6215 -0.4427
  135MOL0     H17782   6.635   1.117   7.816  1.6722  3.7665 -2.0524
  135MOL0     H17783   6.828   1.249   7.727 -1.1988  0.9901  1.7760
  135MOL0     H17784   7.420   1.044   7.632 -0.0756 -1.7345 -1.0139
  135MOL0     H17785   7.596   1.134   7.482 -0.4980 -1.4278  2.4874
  135MOL0     H17786   7.699   1.182   7.308  0.1109  0.1828 -0.6539
  135MOL0     H17787   7.686   1.356   7.354 -0.2833 -2.1298  1.9296
  135MOL0     H17788   7.746   1.405   7.122  1.9552  0.6185  2.2904
  135MOL0     H17789   7.721   1.232   7.062 -0.3458  2.1276 -1.2061
  135MOL0     H17790   7.903   1.149   7.203  1.3032 -0.1671 -0.6455
  135MOL0     H17791   7.924   1.305   7.272 -4.1784 -0.2068  2.2852
  135MOL0     H17792   8.064   1.192   7.062  0.7003  1.0445 -1.5395
  135MOL0     H17793   7.928   1.262   6.967  4.2438 -1.6125 -1.3570
  135MOL0     H17794   8.080   1.417   7.155  0.5076 -2.3278  0.2686
  135MOL0     H17795   7.979   1.479   7.028  2.0533  1.0743  0.0898
  135MOL0     H17796   8.155   1.326   6.884 -0.8036 -2.9500  3.0080
  135MOL0     H17797   8.261   1.352   7.017  2.7836  3.5675 -2.7853
  135MOL0     H17798   8.144   1.603   6.952  1.5634  1.2544 -0.5437
  135MOL0     H17799   8.315   1.563   6.970 -2.2707 -0.5564  4.8965
  135MOL0     H17800   8.245   1.659   6.753  0.1655 -0.2763  1.9452
  135MOL0     H17801   8.134   1.521   6.718 -0.4476  1.4030 -0.1219
  135MOL0     H17802   7.270   1.327   7.265 -0.3200  2.2434  1.8592
  135MOL0     H17803   7.108   1.238   7.416 -1.0336 -0.0196 -0.7794
  135MOL0     H17804   7.067   0.900   7.768 -0.3053 -1.1021 -1.2167
  135MOL0     H17805   6.905   0.787   7.866 -1.2229 -0.4531 -2.2415
  135MOL0     H17806   6.632   0.299   9.215  0.7191 -1.8887  2.3106
  135MOL0     H17807   6.737   0.233   9.414  0.6515  1.3926 -0.8048
  135MOL0     H17808   7.005   0.458   9.936  0.2000  0.3935  0.1308
  135MOL0     H17809   7.063   0.307  10.111 -0.0637 -0.1180 -0.0609
  135MOL0     H17810   7.058  -0.081  10.025  0.0183 -2.9920  0.4646
  135MOL0     H17811   6.914  -0.112  10.130 -0.1769  0.1405  1.6943
  135MOL0     H17812   7.109  -0.246  10.169 -1.6003  0.4632 -0.7216
  135MOL0     H17813   7.217  -0.117  10.183 -0.0590 -0.1510  1.7253
  135MOL0     H17814   6.994  -0.101  10.372  0.4955 -0.0323  1.7168
  135MOL0     H17815   7.160  -0.038  10.371  1.5995  0.0612 -0.2345
  135MOL0     H17816   7.073  -0.335  10.412  2.1502 -0.9837 -3.7275
  135MOL0     H17817   7.243  -0.278  10.434  0.8538  0.3314  1.5692
  135MOL0     H17818   7.007  -0.240  10.789  1.8106  0.2424  0.0912
  135MOL0     H17819   6.791   0.006   9.970 -1.1241 -0.0590 -0.7064
  135MOL0     H17820   6.721   0.153   9.794  0.0854  0.3508  0.5236
  136MOL0     O17821  11.262   7.921   5.520  0.6935 -0.1531 -0.0180
  136MOL0     C17822  11.166   7.995   5.551 -0.0460 -0.7341  1.8711
  136MOL0     O17823  11.100   8.006   5.674  0.3487  0.8678 -0.5856
  136MOL0     C17824  11.146   7.961   5.795 -0.8673 -1.0411  0.7842
  136MOL0     C17825  11.284   7.934   5.831  0.3686 -0.0369  0.8269
  136MOL0     C17826  11.324   7.895   5.958 -0.3643 -0.4472 -0.0572
  136MOL0     C17827  11.227   7.886   6.054  1.1089  0.7444 -0.6623
  136MOL0     O17828  11.271   7.866   6.185 -0.2063 -0.2674  0.6490
  136MOL0     C17829  11.180   7.861   6.295  0.2428  0.4265  0.2033
  136MOL0     C17830  11.241   7.880   6.430 -0.7098  0.4984 -0.3797
  136MOL0     C17831  11.159   7.861   6.562  0.2921 -0.0712  0.6060
  136MOL0     C17832  11.135   7.714   6.592  0.1307 -0.8563  0.4506
  136MOL0     C17833  11.012   7.663   6.673 -0.1929 -0.8555  0.6948
  136MOL0     C17834  11.034   7.700   6.820 -0.0996 -0.4928 -0.6756
  136MOL0     C17835  11.002   7.856   6.853 -0.9373  0.4057  0.4106
  136MOL0     C17836  10.933   7.865   6.988  0.4535  0.0242 -0.5778
  136MOL0     N17837  11.030   7.880   7.098 -0.6034  0.0768 -0.1752
  136MOL0     C17838  11.152   7.817   7.114  0.5492 -0.1505 -0.2563
  136MOL0     C17839  11.217   7.880   7.219 -0.5850  0.4031  0.9739
  136MOL0     C17840  11.347   7.849   7.266  0.7949 -1.2024  0.4482
  136MOL0     C17841  11.446   7.958   7.219  0.6806  0.4542  0.9346
  136MOL0     C17842  11.464   7.943   7.066  0.5368  1.2734 -0.1083
  136MOL0     C17843  11.505   8.078   7.002  0.3029  0.3635  0.1044
  136MOL0     O17844  11.612   8.135   7.079  0.3978  0.7677  0.0012
  136MOL0     C17845  11.741   8.151   7.038  2.1211  0.5690 -0.5410
  136MOL0     C17846  11.837   8.154   7.140  0.1522 -0.0550  0.3936
  136MOL0     C17847  11.968   8.178   7.107 -1.0216  0.4662  0.5415
  136MOL0     C17848  12.015   8.211   6.978  0.5683  1.9436  0.1128
  136MOL0     C17849  12.152   8.261   6.955 -0.0424  0.1932 -1.4414
  136MOL0     O17850  12.185   8.306   6.833 -0.0084  1.0284 -0.2035
  136MOL0     C17851  12.311   8.333   6.795 -0.8622  0.1157 -0.7519
  136MOL0     C17852  12.317   8.398   6.667  0.4694  0.3401  0.1653
  136MOL0     C17853  12.439   8.408   6.603 -0.1858 -0.1249  0.3657
  136MOL0     C17854  12.565   8.383   6.663  1.2632 -0.4199 -0.5683
  136MOL0     O17855  12.674   8.384   6.582 -0.1167  0.8046  0.6332
  136MOL0     C17856  12.786   8.448   6.650 -0.2907 -0.1922  0.4893
  136MOL0     C17857  12.921   8.452   6.575 -0.0167 -0.1031 -0.4558
  136MOL0     C17858  12.918   8.535   6.441 -0.6711  0.5173 -0.0206
  136MOL0     C17859  12.851   8.455   6.321 -0.1176  0.5064 -0.4403
  136MOL0     C17860  12.801   8.549   6.207 -0.2013 -0.1785  0.0846
  136MOL0     C17861  12.914   8.645   6.147  0.8093 -0.6208  1.0263
  136MOL0     C17862  12.892   8.674   5.993  0.5057  0.3919 -0.0203
  136MOL0     C17863  12.976   8.785   5.940  0.3716  0.0613  0.0372
  136MOL0    Cl17864  13.150   8.741   5.945  0.5620 -0.2089  0.1007
  136MOL0     C17865  12.554   8.329   6.792 -0.2518  0.2787  0.9424
  136MOL0     C17866  12.435   8.298   6.852  0.9283 -0.5631 -0.5421
  136MOL0     O17867  12.228   8.261   7.054  0.1116 -0.1506 -0.5161
  136MOL0     C17868  11.919   8.187   6.874  0.7507  0.1557  0.1908
  136MOL0     C17869  11.787   8.160   6.906  1.2265  0.4007  0.3305
  136MOL0     N17870  11.140   7.984   7.258  0.1857  0.0923  0.7451
  136MOL0     N17871  11.028   7.979   7.194 -0.2952  0.1135 -0.2219
  136MOL0     C17872  11.092   7.905   6.022  0.8105 -0.2982 -0.0626
  136MOL0     C17873  11.050   7.944   5.895  0.3403  0.0517 -0.9325
  136MOL0     C17874  11.108   8.059   5.426  0.5160 -0.5259 -0.3693
  136MOL0     C17875  11.172   8.040   5.307  0.1636  0.4334 -0.3932
  136MOL0     C17876  11.114   8.080   5.181 -0.5279  0.9795 -0.1591
  136MOL0     C17877  11.001   8.155   5.177  0.5682  0.3560 -0.1249
  136MOL0     O17878  10.954   8.210   5.061 -0.1950  0.0013  0.3311
  136MOL0     C17879  10.805   8.191   5.051 -0.7249  1.2306 -0.3064
  136MOL0     C17880  10.733   8.323   5.033 -0.0281 -0.4109 -0.5049
  136MOL0     C17881  10.585   8.289   5.027  0.4861 -0.1778 -0.4282
  136MOL0     C17882  10.498   8.425   4.995 -0.1364 -1.0631  0.1813
  136MOL0     C17883  10.482   8.519   5.102 -0.0117  0.2674 -0.6850
  136MOL0     C17884  10.486   8.601   5.194 -0.0890  0.0653 -0.0432
  136MOL0     C17885  10.938   8.184   5.299 -1.2349  0.1033 -0.4360
  136MOL0     C17886  10.992   8.140   5.422 -0.4461 -0.4831  0.3612
  136MOL0     H17887  11.370   7.932   5.765  0.8581 -0.5794  1.4691
  136MOL0     H17888  11.426   7.885   5.992  0.3480  1.7104 -1.3789
  136MOL0     H17889  11.129   7.764   6.291  0.7181  0.2092 -0.8131
  136MOL0     H17890  11.099   7.934   6.288 -1.5864 -1.6206 -1.5913
  136MOL0     H17891  11.289   7.978   6.434 -0.5031  0.3569  0.6664
  136MOL0     H17892  11.317   7.802   6.434  0.0073  1.1617 -0.8669
  136MOL0     H17893  11.055   7.892   6.544  0.2356 -0.1477  0.7955
  136MOL0     H17894  11.202   7.918   6.644  0.4679 -1.2384  1.3521
  136MOL0     H17895  11.137   7.666   6.493 -2.9614  1.3366 -0.7992
  136MOL0     H17896  11.220   7.676   6.650 -1.8101 -1.8571  2.7909
  136MOL0     H17897  11.013   7.555   6.655 -1.6466 -0.5238 -1.6528
  136MOL0     H17898  10.921   7.707   6.632  2.5974  2.8763 -2.2154
  136MOL0     H17899  11.134   7.682   6.859  0.0148  0.7546 -0.3572
  136MOL0     H17900  10.955   7.645   6.872 -1.3452 -0.6575 -2.6317
  136MOL0     H17901  11.094   7.915   6.854 -1.1105  0.7139 -0.8821
  136MOL0     H17902  10.953   7.894   6.763  0.1564 -1.3147 -0.9419
  136MOL0     H17903  10.862   7.783   6.995 -1.5551  1.7212  0.0027
  136MOL0     H17904  10.868   7.951   7.006  2.1430  1.6198 -1.6510
  136MOL0     H17905  11.170   7.718   7.074  0.5184 -0.0257 -0.5838
  136MOL0     H17906  11.385   7.753   7.230  1.5578 -1.3477  1.6048
  136MOL0     H17907  11.347   7.849   7.375  0.8977 -0.2123  0.4591
  136MOL0     H17908  11.535   7.935   7.279 -0.1500 -1.4697  1.5097
  136MOL0     H17909  11.410   8.060   7.238  2.3706  1.4782 -0.9114
  136MOL0     H17910  11.556   7.885   7.058  1.5696  2.5931  1.4802
  136MOL0     H17911  11.374   7.907   7.015  0.1615  0.5576  1.0078
  136MOL0     H17912  11.419   8.141   6.977  2.2419  3.1510 -0.0754
  136MOL0     H17913  11.552   8.058   6.905  1.5962  1.3935  0.4906
  136MOL0     H17914  11.815   8.142   7.246 -1.4086 -0.9890 -0.0097
  136MOL0     H17915  12.045   8.184   7.184  0.0165  3.0858 -0.5788
  136MOL0     H17916  12.230   8.449   6.627  2.2287  1.6807 -2.2702
  136MOL0     H17917  12.439   8.424   6.495 -3.0863 -1.4660  0.0723
  136MOL0     H17918  12.814   8.385   6.735  1.3990 -2.6317 -1.7126
  136MOL0     H17919  12.753   8.546   6.685 -1.5765  0.2427 -1.7362
  136MOL0     H17920  12.963   8.353   6.561  0.4370  0.1071 -0.5963
  136MOL0     H17921  12.996   8.507   6.633 -1.6302  2.0966 -0.3029
  136MOL0     H17922  13.022   8.556   6.413 -0.7900  1.0179 -0.0985
  136MOL0     H17923  12.847   8.612   6.472 -0.3469  0.5513  0.6566
  136MOL0     H17924  12.916   8.374   6.288  2.2234  1.5939  1.1694
  136MOL0     H17925  12.759   8.411   6.360 -0.9751  1.5721 -1.2014
  136MOL0     H17926  12.711   8.603   6.236  0.9210  1.0355  1.4962
  136MOL0     H17927  12.763   8.481   6.131 -0.3096 -1.5979  1.3677
  136MOL0     H17928  13.013   8.601   6.162  1.1993  0.4640  1.7486
  136MOL0     H17929  12.915   8.736   6.208  3.9425 -0.6560  1.1895
  136MOL0     H17930  12.911   8.575   5.950  0.5112 -0.0817  1.0253
  136MOL0     H17931  12.789   8.700   5.971  1.3291  1.3438 -3.2742
  136MOL0     H17932  12.948   8.875   5.996  1.5725  0.8290 -0.5430
  136MOL0     H17933  12.956   8.822   5.839 -2.2999  1.8449  1.1015
  136MOL0     H17934  12.648   8.297   6.835 -0.7855 -0.8023  1.3744
  136MOL0     H17935  12.440   8.249   6.949  0.5955 -3.7478 -1.9978
  136MOL0     H17936  11.947   8.196   6.769 -2.4808  2.2872 -0.6789
  136MOL0     H17937  11.716   8.153   6.824  2.1702 -5.3478 -0.3798
  136MOL0     H17938  11.010   7.896   6.092 -0.7335 -1.6462 -1.9406
  136MOL0     H17939  10.945   7.971   5.885  0.3354  0.5682  0.3320
  136MOL0     H17940  11.256   7.971   5.306 -0.7212 -0.8671  2.7071
  136MOL0     H17941  11.156   8.068   5.082 -1.4374  0.2874 -0.4787
  136MOL0     H17942  10.748   8.138   5.128 -3.3737 -1.0544 -3.5803
  136MOL0     H17943  10.789   8.139   4.957 -0.1832  0.4235  0.0333
  136MOL0     H17944  10.743   8.389   5.119 -0.1157  1.7688 -2.0926
  136MOL0     H17945  10.768   8.375   4.944 -3.5285  1.7196 -0.8167
  136MOL0     H17946  10.557   8.245   5.123  0.8394  2.2909  0.9038
  136MOL0     H17947  10.565   8.210   4.953  0.9087  0.6166 -1.4225
  136MOL0     H17948  10.548   8.480   4.915  2.7106 -2.3027  1.0030
  136MOL0     H17949  10.400   8.399   4.953  0.1493  0.1080 -1.3040
  136MOL0     H17950  10.488   8.680   5.267 -1.8430 -2.7363  3.3889
  136MOL0     H17951  10.840   8.230   5.310 -2.2316 -2.2579  1.8707
  136MOL0     H17952  10.946   8.153   5.520  0.1963  0.3483  0.5624
  137MOL0     O17953   0.487   9.054   1.622  0.3939 -0.6263 -0.1182
  137MOL0     C17954   0.517   9.003   1.512  0.3255  0.4300  0.4814
  137MOL0     O17955   0.530   8.868   1.488  1.1382 -0.3401  0.2343
  137MOL0     C17956   0.505   8.778   1.594 -0.1436 -1.6576 -0.2645
  137MOL0     C17957   0.564   8.780   1.720  0.0917  0.6353 -0.9903
  137MOL0     C17958   0.548   8.670   1.812 -0.4811 -0.0930 -0.7405
  137MOL0     C17959   0.478   8.554   1.776 -0.1329 -0.0449  0.0281
  137MOL0     O17960   0.471   8.445   1.858  0.3331  1.2497  1.2641
  137MOL0     C17961   0.528   8.445   1.982  0.6058  0.2768  1.0668
  137MOL0     C17962   0.468   8.332   2.070 -0.5399 -0.7195  0.3176
  137MOL0     C17963   0.488   8.371   2.211  0.5744 -0.1010 -0.3818
  137MOL0     C17964   0.422   8.256   2.302  0.0235 -0.6269 -0.1682
  137MOL0     C17965   0.496   8.239   2.440  0.2541 -0.4710  0.1451
  137MOL0     C17966   0.613   8.156   2.433  0.1371 -0.1174 -0.0199
  137MOL0     C17967   0.672   8.149   2.568 -0.5418  0.6928 -0.0535
  137MOL0     C17968   0.784   8.043   2.588  0.2886  0.1842 -0.5548
  137MOL0     N17969   0.901   8.066   2.515 -0.4921  0.0829  1.0360
  137MOL0     C17970   0.993   7.966   2.488  0.3815  0.9604  0.6035
  137MOL0     C17971   1.108   8.023   2.436  0.0117  0.0689  0.2407
  137MOL0     C17972   1.241   7.973   2.395  0.7901  0.2640  0.4006
  137MOL0     C17973   1.247   7.826   2.349  0.3967  0.5148 -0.0479
  137MOL0     C17974   1.397   7.789   2.346 -0.7307 -0.1140 -0.2466
  137MOL0     C17975   1.429   7.641   2.315 -1.7541 -0.0155 -0.8352
  137MOL0     O17976   1.349   7.551   2.401  0.4144 -0.6068  0.4944
  137MOL0     C17977   1.336   7.421   2.363 -0.7904  0.3194  0.6661
  137MOL0     C17978   1.420   7.361   2.264  0.1310 -0.6242  0.8879
  137MOL0     C17979   1.418   7.227   2.238  0.4627 -0.5689  1.2842
  137MOL0     C17980   1.321   7.144   2.300 -0.8647 -0.6046  0.4005
  137MOL0     C17981   1.322   6.998   2.280  0.5769  0.4223  0.2805
  137MOL0     O17982   1.224   6.937   2.354  0.2190 -0.3562 -0.1410
  137MOL0     C17983   1.185   6.805   2.342  0.8059 -0.1529  0.0099
  137MOL0     C17984   1.147   6.738   2.460  0.0458  1.0562  0.0517
  137MOL0     C17985   1.094   6.604   2.441  0.4829 -0.1423 -0.6950
  137MOL0     C17986   1.113   6.539   2.321  0.3373  0.1413  0.5237
  137MOL0     O17987   1.046   6.422   2.306 -0.1501  0.0382 -0.5115
  137MOL0     C17988   1.069   6.335   2.196 -0.3528 -0.0080 -0.2284
  137MOL0     C17989   1.002   6.197   2.229 -0.6469  0.5716  0.9760
  137MOL0     C17990   1.095   6.121   2.322  0.5008  0.5325 -1.3643
  137MOL0     C17991   1.038   5.990   2.396 -0.0310 -0.5962  0.1626
  137MOL0     C17992   1.146   5.916   2.484 -0.1629  0.8326 -0.1207
  137MOL0     C17993   1.095   5.779   2.532  0.5668  0.2403 -0.1253
  137MOL0     C17994   1.197   5.676   2.606  0.0590 -0.8229 -0.3747
  137MOL0     C17995   1.127   5.544   2.631 -0.6681  0.5728 -0.8566
  137MOL0    Cl17996   1.241   5.442   2.713  0.6604 -0.6592  0.0549
  137MOL0     C17997   1.151   6.611   2.205 -0.3290 -0.0477 -0.3171
  137MOL0     C17998   1.191   6.743   2.219 -0.3513  0.2043 -0.0489
  137MOL0     O17999   1.397   6.939   2.208 -0.4856  0.2771 -0.1042
  137MOL0     C18000   1.234   7.208   2.396  0.1649  0.0247 -0.5472
  137MOL0     C18001   1.240   7.339   2.415 -0.4066 -0.2313 -0.3977
  137MOL0     N18002   1.080   8.157   2.431  0.6745 -0.3458 -0.5060
  137MOL0     N18003   0.951   8.181   2.460  0.6558 -0.1165 -0.1220
  137MOL0     C18004   0.431   8.552   1.653  0.3783  0.5268 -0.2312
  137MOL0     C18005   0.433   8.668   1.562 -0.0206  0.6512 -0.7282
  137MOL0     C18006   0.564   9.098   1.409 -0.3193  0.5976  0.6172
  137MOL0     C18007   0.587   9.046   1.278 -0.2280  0.0692  0.3178
  137MOL0     C18008   0.614   9.132   1.171  0.3037  0.0870  0.0028
  137MOL0     C18009   0.625   9.268   1.201 -0.2059  0.2186  0.0402
  137MOL0     O18010   0.639   9.355   1.097 -0.2741  0.8972  0.3894
  137MOL0     C18011   0.523   9.436   1.080 -0.0681  0.0790 -0.9497
  137MOL0     C18012   0.552   9.577   1.031  0.4732  0.1240 -0.2731
  137MOL0     C18013   0.662   9.584   0.924  0.9123  0.6432 -0.5444
  137MOL0     C18014   0.676   9.729   0.878 -0.5550  0.4730 -0.2783
  137MOL0     C18015   0.742   9.822   0.976  0.9154 -0.4097  0.8300
  137MOL0     C18016   0.779   9.898   1.065  1.1507 -0.7288  0.5355
  137MOL0     C18017   0.616   9.313   1.335 -0.9912 -0.5192  0.2448
  137MOL0     C18018   0.582   9.234   1.443 -0.3094 -0.2427  0.2212
  137MOL0     H18019   0.621   8.864   1.758 -0.4597 -0.2735  2.1456
  137MOL0     H18020   0.609   8.666   1.901  0.3950  1.1356 -1.2547
  137MOL0     H18021   0.522   8.545   2.026 -4.8336  1.2248 -1.0374
  137MOL0     H18022   0.629   8.411   1.959 -1.1363 -3.9789 -1.5983
  137MOL0     H18023   0.520   8.237   2.051  1.4904  0.5638 -1.0744
  137MOL0     H18024   0.365   8.327   2.035  0.1376 -1.4848 -1.7905
  137MOL0     H18025   0.454   8.473   2.231 -1.6599 -1.1037  1.3851
  137MOL0     H18026   0.596   8.375   2.229  0.4373  0.8824  0.2988
  137MOL0     H18027   0.315   8.275   2.315  0.4333  1.0946  1.1116
  137MOL0     H18028   0.423   8.163   2.244  3.1826  0.1821 -1.6551
  137MOL0     H18029   0.421   8.190   2.503 -2.1080  1.8604 -0.6984
  137MOL0     H18030   0.528   8.333   2.484  1.1791 -1.8735  2.7096
  137MOL0     H18031   0.683   8.197   2.360 -0.3671 -1.4373 -1.3114
  137MOL0     H18032   0.587   8.058   2.391 -0.3634  0.3696 -0.8802
  137MOL0     H18033   0.719   8.246   2.586 -0.2880  0.3454  1.1936
  137MOL0     H18034   0.594   8.137   2.643 -0.2138  1.1101  0.3606
  137MOL0     H18035   0.737   7.949   2.558 -1.9103  1.2772 -0.7103
  137MOL0     H18036   0.827   8.036   2.688 -0.2887  4.5755  0.1992
  137MOL0     H18037   0.982   7.861   2.515  0.3919  0.3229 -1.6639
  137MOL0     H18038   1.317   7.998   2.469  1.3849  1.1095 -0.4696
  137MOL0     H18039   1.268   8.027   2.304 -0.9505 -0.5260 -0.6307
  137MOL0     H18040   1.200   7.812   2.252  2.9867 -3.4455 -1.0032
  137MOL0     H18041   1.188   7.762   2.415  1.0647  0.2414  0.2983
  137MOL0     H18042   1.451   7.855   2.277 -0.6297  2.0633  1.7715
  137MOL0     H18043   1.441   7.815   2.443  0.1574  1.1306 -0.9427
  137MOL0     H18044   1.534   7.623   2.340 -2.0427  0.5641  0.9686
  137MOL0     H18045   1.409   7.638   2.208  0.5720  0.2812 -1.3310
  137MOL0     H18046   1.504   7.415   2.220 -1.4149  3.1295  2.0929
  137MOL0     H18047   1.492   7.188   2.168 -1.7502 -0.0604 -1.5647
  137MOL0     H18048   1.148   6.780   2.560 -0.0152 -1.6469  1.2611
  137MOL0     H18049   1.046   6.554   2.525  1.8713 -1.5154 -0.6624
  137MOL0     H18050   1.177   6.326   2.186 -0.0535 -2.4135  3.2640
  137MOL0     H18051   1.021   6.381   2.108 -0.9922 -4.5944 -2.5512
  137MOL0     H18052   0.998   6.146   2.132 -0.1039  2.4329 -0.0699
  137MOL0     H18053   0.902   6.220   2.266 -0.9506 -2.4019  2.3857
  137MOL0     H18054   1.134   6.187   2.400  0.3838 -2.3408  1.3037
  137MOL0     H18055   1.177   6.096   2.254 -1.2017 -2.4588 -2.5319
  137MOL0     H18056   0.956   6.005   2.467  1.5398  3.0448  1.4568
  137MOL0     H18057   1.000   5.922   2.319 -4.3215  2.1669 -0.5325
  137MOL0     H18058   1.181   5.974   2.570  2.2480 -1.8979  0.9310
  137MOL0     H18059   1.235   5.900   2.422 -0.7267 -0.2643 -0.6791
  137MOL0     H18060   1.051   5.720   2.450  1.6121 -2.1515  0.9362
  137MOL0     H18061   1.019   5.786   2.610  1.2647 -0.8683  0.6879
  137MOL0     H18062   1.287   5.658   2.546  0.4183  1.9572 -0.8130
  137MOL0     H18063   1.232   5.715   2.702 -0.5027 -1.5437  0.1305
  137MOL0     H18064   1.094   5.487   2.543  0.3909  0.9823 -1.5478
  137MOL0     H18065   1.034   5.559   2.686  1.0205 -0.7155  2.6612
  137MOL0     H18066   1.152   6.556   2.111  2.5935 -3.4869  1.4804
  137MOL0     H18067   1.225   6.789   2.127  1.7673 -0.3857  0.3911
  137MOL0     H18068   1.165   7.149   2.456 -2.2044  2.3844 -0.7667
  137MOL0     H18069   1.186   7.385   2.498  1.2446  0.4090  0.3854
  137MOL0     H18070   0.380   8.468   1.608  0.0587  0.9796 -0.7372
  137MOL0     H18071   0.397   8.653   1.461  4.3567 -3.8072 -2.0473
  137MOL0     H18072   0.561   8.944   1.251 -2.3348  0.1201  1.8612
  137MOL0     H18073   0.608   9.085   1.074 -2.2834 -4.1949  1.9494
  137MOL0     H18074   0.472   9.443   1.176  2.7990  0.7141  0.6659
  137MOL0     H18075   0.466   9.393   0.997  1.0341 -0.0134 -1.6904
  137MOL0     H18076   0.461   9.627   0.998  1.4866  2.5175  0.3867
  137MOL0     H18077   0.586   9.635   1.117 -2.2686  0.7496  0.4733
  137MOL0     H18078   0.632   9.528   0.835  1.3452  3.1178 -2.3559
  137MOL0     H18079   0.757   9.552   0.967  2.1544  2.1648 -2.0417
  137MOL0     H18080   0.739   9.719   0.789 -1.0829  1.2514 -0.7514
  137MOL0     H18081   0.582   9.773   0.843 -1.6624  0.4265  2.4042
  137MOL0     H18082   0.802   9.968   1.143  1.2544 -0.3263  0.1463
  137MOL0     H18083   0.632   9.419   1.353  0.5755 -0.5825 -0.6068
  137MOL0     H18084   0.573   9.270   1.545  1.6737 -1.0130  0.7239
  138MOL0     O18085   3.286   8.333   4.356  0.3301  0.0847 -0.0084
  138MOL0     C18086   3.326   8.445   4.362  0.1084  0.3710  0.5078
  138MOL0     O18087   3.444   8.487   4.431  0.4498 -0.0151  0.4412
  138MOL0     C18088   3.540   8.392   4.468 -1.2621 -0.7034  0.3735
  138MOL0     C18089   3.635   8.434   4.562 -0.9456  0.0025 -0.0563
  138MOL0     C18090   3.738   8.356   4.624  0.4310 -0.4683  1.2326
  138MOL0     C18091   3.737   8.223   4.587  0.4253  0.6866 -0.7550
  138MOL0     O18092   3.828   8.134   4.654  0.1886 -0.3683 -0.2716
  138MOL0     C18093   3.887   8.024   4.582  0.3047  0.2871  0.2815
  138MOL0     C18094   3.844   7.888   4.636 -0.0337 -0.9405  0.2354
  138MOL0     C18095   3.908   7.774   4.549 -1.4627  0.4494  0.1971
  138MOL0     C18096   3.815   7.724   4.448 -0.3474  0.0150  0.2868
  138MOL0     C18097   3.844   7.591   4.375 -0.3888  0.6579  0.5830
  138MOL0     C18098   3.961   7.591   4.272  0.3419  1.8679  0.6563
  138MOL0     C18099   4.004   7.440   4.239  0.2095 -0.0718 -0.3588
  138MOL0     C18100   4.089   7.382   4.352 -0.4057 -1.0343 -1.3262
  138MOL0     N18101   4.050   7.243   4.381 -0.2891  0.1229  1.0043
  138MOL0     C18102   4.036   7.142   4.288  0.4159  0.0734  0.0286
  138MOL0     C18103   3.986   7.041   4.351  0.3452 -0.1071  0.9774
  138MOL0     C18104   3.950   6.904   4.298  0.1127 -0.4953  0.3356
  138MOL0     C18105   4.070   6.830   4.229  0.3386 -0.9746  0.0601
  138MOL0     C18106   4.028   6.683   4.204 -0.2451  0.1546 -0.8179
  138MOL0     C18107   4.153   6.612   4.132  0.5893  1.0795  0.0091
  138MOL0     O18108   4.121   6.480   4.110  0.3414  0.8952 -0.6849
  138MOL0     C18109   4.204   6.415   4.020 -0.6138 -0.9212 -0.0150
  138MOL0     C18110   4.337   6.448   4.004  0.3259 -0.9974 -0.0471
  138MOL0     C18111   4.416   6.381   3.912  0.1154 -0.0564  0.3003
  138MOL0     C18112   4.371   6.267   3.841 -0.2082 -0.3266  0.1055
  138MOL0     C18113   4.455   6.212   3.745  0.3341 -0.3417  0.0539
  138MOL0     O18114   4.400   6.176   3.626 -0.3656 -0.5939  0.2268
  138MOL0     C18115   4.471   6.122   3.524  0.3087 -0.1548  1.1308
  138MOL0     C18116   4.612   6.148   3.508 -0.0792  0.2965  0.2706
  138MOL0     C18117   4.678   6.073   3.410  0.0459  0.5147 -0.2878
  138MOL0     C18118   4.611   5.988   3.312 -1.0168 -0.5495  0.0673
  138MOL0     O18119   4.669   5.918   3.204 -0.6523  0.2722  0.0384
  138MOL0     C18120   4.811   5.895   3.229 -0.2950  0.9428  0.9642
  138MOL0     C18121   4.867   5.788   3.134  0.0224 -0.3174  0.8871
  138MOL0     C18122   4.845   5.830   2.985  0.1277 -0.0727  0.3394
  138MOL0     C18123   4.887   5.724   2.888  1.0394 -0.3727 -0.2965
  138MOL0     C18124   4.804   5.709   2.766 -0.1914  0.1337  0.9718
  138MOL0     C18125   4.836   5.598   2.663 -0.7524 -0.1751  0.5501
  138MOL0     C18126   4.986   5.609   2.630 -0.3111 -0.6404 -0.2038
  138MOL0     C18127   5.013   5.528   2.508 -0.5446  1.4141  0.0460
  138MOL0    Cl18128   4.958   5.354   2.539 -0.3573 -0.1458 -0.1413
  138MOL0     C18129   4.472   5.993   3.317 -1.0668 -0.2500 -0.1062
  138MOL0     C18130   4.406   6.042   3.430  0.9652 -0.6627  0.4045
  138MOL0     O18131   4.573   6.184   3.782 -0.5401  0.7372  0.2869
  138MOL0     C18132   4.238   6.232   3.859  0.2185 -0.3812 -0.4372
  138MOL0     C18133   4.157   6.301   3.951  0.6896 -0.0201  0.5874
  138MOL0     N18134   3.968   7.077   4.485 -0.1975  0.6595  0.1554
  138MOL0     N18135   4.016   7.196   4.501  0.8487 -0.6850  0.3320
  138MOL0     C18136   3.641   8.172   4.497 -0.1578  0.7798 -0.3190
  138MOL0     C18137   3.554   8.254   4.435 -0.1068 -1.2168  0.7850
  138MOL0     C18138   3.246   8.559   4.319 -1.2696  0.1013 -0.5260
  138MOL0     C18139   3.122   8.537   4.259  0.3066 -0.4549  0.3315
  138MOL0     C18140   3.050   8.639   4.196 -0.0152  0.3556  0.2267
  138MOL0     C18141   3.081   8.776   4.214 -0.2865 -0.2346  1.3601
  138MOL0     O18142   2.992   8.861   4.158  0.3980 -0.4776 -0.4143
  138MOL0     C18143   2.993   8.998   4.190  0.1017  0.9074 -0.2600
  138MOL0     C18144   2.899   9.031   4.301 -0.6143 -0.9086  0.2035
  138MOL0     C18145   2.916   9.177   4.338 -0.2675 -0.1748 -0.9142
  138MOL0     C18146   2.866   9.207   4.476  0.1072  0.4806 -0.3141
  138MOL0     C18147   2.721   9.182   4.484 -0.8026 -0.0504  0.0397
  138MOL0     C18148   2.605   9.150   4.500  0.1727 -0.1499 -0.5400
  138MOL0     C18149   3.197   8.798   4.288 -0.6634 -0.4706 -0.0968
  138MOL0     C18150   3.282   8.695   4.338  0.4225 -0.8817  0.5354
  138MOL0     H18151   3.626   8.529   4.615 -0.4060  1.7888 -2.9737
  138MOL0     H18152   3.793   8.404   4.704 -1.2055  2.2862  0.8580
  138MOL0     H18153   3.997   8.022   4.583  0.3212  1.1266  0.7513
  138MOL0     H18154   3.863   8.033   4.476 -1.3212  0.3035  0.6247
  138MOL0     H18155   3.735   7.877   4.634 -0.2557  0.9813 -0.0392
  138MOL0     H18156   3.875   7.886   4.741  1.2342 -1.4477 -0.1301
  138MOL0     H18157   3.945   7.688   4.606  1.6964  0.4153 -1.6406
  138MOL0     H18158   4.000   7.815   4.506 -0.3988  0.9150  2.7231
  138MOL0     H18159   3.723   7.716   4.505 -0.3583 -0.2639  0.2273
  138MOL0     H18160   3.800   7.805   4.375 -1.0495 -1.3306 -1.1187
  138MOL0     H18161   3.753   7.567   4.320 -0.7995  0.1057  1.4857
  138MOL0     H18162   3.876   7.518   4.450  2.2276  1.1925  0.0715
  138MOL0     H18163   4.043   7.646   4.319  3.4123  0.6946 -2.8321
  138MOL0     H18164   3.938   7.653   4.185 -2.6120  0.1824  0.0962
  138MOL0     H18165   3.922   7.370   4.220  0.5330 -0.1978 -1.3259
  138MOL0     H18166   4.061   7.454   4.147 -1.2439 -1.7353 -1.5728
  138MOL0     H18167   4.072   7.438   4.444  1.3951 -1.5528 -0.6479
  138MOL0     H18168   4.194   7.390   4.323 -0.5204 -2.0977 -2.0905
  138MOL0     H18169   4.051   7.148   4.181 -1.3877  1.7504 -0.1870
  138MOL0     H18170   3.874   6.928   4.223  1.3803 -2.6827 -1.7724
  138MOL0     H18171   3.919   6.839   4.380 -3.7417 -1.7629 -1.8426
  138MOL0     H18172   4.150   6.845   4.302  0.1722  0.9101 -0.0966
  138MOL0     H18173   4.086   6.879   4.133 -0.6661 -0.2719  0.2345
  138MOL0     H18174   3.991   6.634   4.295 -4.2516  5.4008  0.9231
  138MOL0     H18175   3.938   6.672   4.144 -0.2605 -3.6622 -0.3454
  138MOL0     H18176   4.237   6.629   4.200  0.5475  2.6142 -0.2779
  138MOL0     H18177   4.177   6.671   4.043 -1.4905 -0.3195 -1.5788
  138MOL0     H18178   4.380   6.534   4.053 -1.1743 -1.8506  2.9759
  138MOL0     H18179   4.518   6.418   3.907 -0.5345  1.7546 -2.3935
  138MOL0     H18180   4.664   6.225   3.565  1.6887 -1.3215  0.9643
  138MOL0     H18181   4.784   6.095   3.415  0.3333 -0.9697  1.6515
  138MOL0     H18182   4.821   5.850   3.328  2.1286 -1.1393 -0.0819
  138MOL0     H18183   4.880   5.979   3.213  0.8641 -0.4566 -2.2182
  138MOL0     H18184   4.822   5.689   3.152  2.9812 -1.8954  0.3107
  138MOL0     H18185   4.974   5.768   3.145  0.6760  2.2750 -0.0518
  138MOL0     H18186   4.890   5.928   2.964 -1.5898 -0.0304 -4.1877
  138MOL0     H18187   4.736   5.834   2.977  0.1296  3.4331  0.6152
  138MOL0     H18188   4.985   5.757   2.852  0.2850 -0.0894 -2.2166
  138MOL0     H18189   4.899   5.627   2.938  1.4396  0.9999  2.4680
  138MOL0     H18190   4.796   5.807   2.717 -1.4009  1.2180  3.1503
  138MOL0     H18191   4.698   5.688   2.784 -0.8633 -0.0793 -2.5329
  138MOL0     H18192   4.780   5.617   2.571  1.7543  0.5262 -0.9265
  138MOL0     H18193   4.812   5.502   2.710 -3.0047  1.2142  2.4761
  138MOL0     H18194   5.028   5.709   2.616 -1.1076  0.0898  2.2073
  138MOL0     H18195   5.046   5.560   2.707  2.5642  1.2222 -1.0841
  138MOL0     H18196   5.118   5.530   2.477 -1.5314  2.0815 -3.9210
  138MOL0     H18197   4.963   5.565   2.417  3.1843  0.2036 -2.7496
  138MOL0     H18198   4.420   5.938   3.240 -0.3543 -2.0318  0.6379
  138MOL0     H18199   4.298   6.032   3.437  0.7516  1.6929  1.2584
  138MOL0     H18200   4.199   6.153   3.795 -0.0728 -0.3079 -0.3514
  138MOL0     H18201   4.055   6.265   3.967 -0.5118 -0.1390 -5.1823
  138MOL0     H18202   3.637   8.071   4.457 -1.4240  1.8495 -3.1701
  138MOL0     H18203   3.495   8.219   4.351  0.2337 -3.5894  1.4579
  138MOL0     H18204   3.087   8.435   4.242 -0.5476  0.0678 -1.2156
  138MOL0     H18205   2.962   8.613   4.139 -1.2560 -0.6539  2.4306
  138MOL0     H18206   2.953   9.041   4.098 -2.5154 -1.2798 -0.2456
  138MOL0     H18207   3.094   9.029   4.220  0.5057 -1.4308  1.0511
  138MOL0     H18208   2.796   9.009   4.270 -0.3435 -1.5470 -0.2647
  138MOL0     H18209   2.932   8.970   4.385 -0.0887 -1.4060 -0.3538
  138MOL0     H18210   2.850   9.242   4.280  0.7364  3.3734  1.5602
  138MOL0     H18211   3.018   9.218   4.334 -1.3142  3.0497  1.3767
  138MOL0     H18212   2.914   9.150   4.556 -0.7700  1.5813  1.0475
  138MOL0     H18213   2.878   9.313   4.498 -0.4415 -0.3644  6.3178
  138MOL0     H18214   2.498   9.142   4.501 -0.0221  1.8370 -1.2589
  138MOL0     H18215   3.224   8.900   4.312  1.3404 -1.1859  0.9947
  138MOL0     H18216   3.363   8.729   4.401 -0.6695  0.4142  1.3024
  139MOL0     O18217   5.035   6.994   6.761  1.0562 -0.5188  0.9955
  139MOL0     C18218   4.967   6.905   6.722  0.6387  0.5613  0.4707
  139MOL0     O18219   4.838   6.876   6.763  0.3348 -0.9502  0.0476
  139MOL0     C18220   4.783   6.930   6.878 -0.6452  0.0435  0.5544
  139MOL0     C18221   4.678   7.019   6.865 -0.0936 -0.1581 -0.1107
  139MOL0     C18222   4.623   7.077   6.980 -0.3153  0.7216 -1.3439
  139MOL0     C18223   4.674   7.041   7.108 -0.1087  0.1979 -0.1904
  139MOL0     O18224   4.617   7.090   7.228  0.0001 -1.1553 -0.3984
  139MOL0     C18225   4.619   7.233   7.263  0.5709 -0.2062  0.0039
  139MOL0     C18226   4.633   7.243   7.414 -0.3568 -0.6596 -0.6380
  139MOL0     C18227   4.591   7.377   7.481 -1.4500 -0.2562  0.4486
  139MOL0     C18228   4.524   7.337   7.622 -0.8693 -0.5263 -0.4189
  139MOL0     C18229   4.503   7.462   7.706 -0.7777  0.1149  0.4349
  139MOL0     C18230   4.417   7.571   7.648  0.2720 -0.4327 -0.6997
  139MOL0     C18231   4.269   7.537   7.670  0.0144 -0.1591  0.4980
  139MOL0     C18232   4.200   7.658   7.612  0.0690 -0.0911 -0.4819
  139MOL0     N18233   4.062   7.614   7.585  0.3732 -0.7959  0.6132
  139MOL0     C18234   3.969   7.588   7.679  0.1037 -0.8916  0.5502
  139MOL0     C18235   3.845   7.566   7.612 -0.4135  0.7638  0.6028
  139MOL0     C18236   3.718   7.536   7.683 -0.2975 -0.2061  0.3412
  139MOL0     C18237   3.738   7.442   7.805 -0.0764 -0.1956  0.2018
  139MOL0     C18238   3.652   7.469   7.922  1.4561 -0.4389 -0.7974
  139MOL0     C18239   3.501   7.465   7.878 -1.5507 -0.0185 -0.4150
  139MOL0     O18240   3.410   7.466   7.987  0.3005 -0.4870 -0.6543
  139MOL0     C18241   3.389   7.589   8.049  0.5618  0.5599 -0.6719
  139MOL0     C18242   3.437   7.713   8.009 -0.0557  0.3325 -0.3414
  139MOL0     C18243   3.428   7.832   8.090 -0.1201 -1.1457  0.2265
  139MOL0     C18244   3.361   7.828   8.212 -0.5760  0.2785 -0.2554
  139MOL0     C18245   3.338   7.946   8.298 -0.1011  0.1233  1.2121
  139MOL0     O18246   3.295   7.923   8.424 -0.5540  0.6115 -0.0040
  139MOL0     C18247   3.257   8.028   8.504  0.0494 -0.0436  0.1545
  139MOL0     C18248   3.319   8.163   8.506  1.1678 -0.1804  0.6322
  139MOL0     C18249   3.286   8.261   8.603  0.4263 -0.2121 -0.4724
  139MOL0     C18250   3.188   8.233   8.690  0.8227  1.2350 -0.4439
  139MOL0     O18251   3.149   8.313   8.784  0.2404  0.2905 -0.6711
  139MOL0     C18252   3.113   8.453   8.756  0.0950  0.2596 -0.3091
  139MOL0     C18253   2.980   8.465   8.691 -0.4861 -0.8553 -0.7044
  139MOL0     C18254   2.863   8.422   8.776 -0.4112  0.1038  0.2288
  139MOL0     C18255   2.740   8.452   8.702 -0.2910 -0.4092  0.0251
  139MOL0     C18256   2.607   8.426   8.778 -0.5974 -0.4829  0.8679
  139MOL0     C18257   2.486   8.507   8.725  0.3224  0.0891 -0.3199
  139MOL0     C18258   2.402   8.446   8.619  0.4848 -0.0921  0.3366
  139MOL0     C18259   2.320   8.330   8.671  0.8479 -0.4669 -0.2448
  139MOL0    Cl18260   2.179   8.370   8.761  0.5721  0.0967 -0.5609
  139MOL0     C18261   3.122   8.108   8.695 -0.6285 -0.2456  1.4599
  139MOL0     C18262   3.158   8.007   8.594  0.8242 -0.8810 -0.1584
  139MOL0     O18263   3.337   8.057   8.246  0.2954  0.3702  0.1901
  139MOL0     C18264   3.321   7.701   8.255 -1.4140 -0.1910 -0.3745
  139MOL0     C18265   3.331   7.588   8.172  0.0346 -0.1233 -0.0951
  139MOL0     N18266   3.877   7.563   7.482 -0.0252 -0.7759 -0.1718
  139MOL0     N18267   4.003   7.584   7.464  0.9496 -0.5005  0.6841
  139MOL0     C18268   4.783   6.955   7.120  0.7942 -0.1095 -0.0388
  139MOL0     C18269   4.831   6.891   7.000  0.7101  0.5953  0.0052
  139MOL0     C18270   5.015   6.819   6.607  0.0676 -1.0435  0.1562
  139MOL0     C18271   5.125   6.859   6.534  0.0554 -0.0365  0.4730
  139MOL0     C18272   5.164   6.776   6.426  0.0146 -0.1881 -1.0806
  139MOL0     C18273   5.094   6.664   6.390  0.2809  0.3403  0.4048
  139MOL0     O18274   5.141   6.581   6.291 -0.4979  0.1429  0.6421
  139MOL0     C18275   5.242   6.637   6.208  0.4565  0.5152  0.1989
  139MOL0     C18276   5.252   6.541   6.093 -0.3658 -1.1263 -0.1691
  139MOL0     C18277   5.343   6.604   5.983 -0.3982 -0.0867  1.3416
  139MOL0     C18278   5.305   6.526   5.853  0.2947 -0.4355 -0.0128
  139MOL0     C18279   5.370   6.394   5.848  0.3487 -0.8528 -0.6334
  139MOL0     C18280   5.425   6.293   5.861  0.0600  0.4131 -0.8109
  139MOL0     C18281   4.982   6.629   6.464  0.3905 -0.1346 -0.7179
  139MOL0     C18282   4.940   6.706   6.567  0.0303  0.0134  0.0609
  139MOL0     H18283   4.654   7.057   6.767  4.9871 -0.4416 -1.7308
  139MOL0     H18284   4.546   7.153   6.965  1.1939  2.0044 -3.0619
  139MOL0     H18285   4.513   7.257   7.260  0.5217  0.3612  3.1614
  139MOL0     H18286   4.673   7.294   7.190 -1.9075 -1.2784 -2.9672
  139MOL0     H18287   4.738   7.218   7.434  0.3735  2.3108 -0.2808
  139MOL0     H18288   4.579   7.158   7.458 -0.0556 -0.4805  0.1000
  139MOL0     H18289   4.528   7.414   7.400  0.2825 -2.5604 -2.1014
  139MOL0     H18290   4.679   7.440   7.500 -2.0041  1.2453 -1.5845
  139MOL0     H18291   4.431   7.283   7.604 -1.6511  1.0318 -1.2244
  139MOL0     H18292   4.583   7.274   7.690  0.6574 -0.4493 -1.6092
  139MOL0     H18293   4.600   7.504   7.734 -0.8919  0.9325 -0.3366
  139MOL0     H18294   4.468   7.427   7.803  1.1394 -2.1862  0.3952
  139MOL0     H18295   4.436   7.592   7.542 -0.5797  0.2747 -0.7198
  139MOL0     H18296   4.443   7.656   7.711  1.6002 -2.5499  1.7959
  139MOL0     H18297   4.227   7.454   7.612 -0.2734 -0.1139  0.6374
  139MOL0     H18298   4.257   7.517   7.777 -1.1422 -0.0099  0.4092
  139MOL0     H18299   4.225   7.697   7.513 -2.0207  1.7164 -0.3804
  139MOL0     H18300   4.211   7.747   7.673  4.5892  0.7447 -2.1607
  139MOL0     H18301   3.980   7.578   7.787  0.3051  1.6751  0.8384
  139MOL0     H18302   3.653   7.489   7.608  1.8143 -0.8279 -1.1951
  139MOL0     H18303   3.661   7.627   7.703 -1.2847 -0.6718 -0.2481
  139MOL0     H18304   3.841   7.446   7.841  0.4745  2.8029 -1.4495
  139MOL0     H18305   3.726   7.340   7.765  1.1579 -0.0916 -0.4813
  139MOL0     H18306   3.662   7.384   7.990  1.1598  0.2196  0.0904
  139MOL0     H18307   3.688   7.565   7.960  1.9551 -0.2819 -1.6262
  139MOL0     H18308   3.495   7.368   7.828  0.4586 -0.4228  0.0335
  139MOL0     H18309   3.487   7.548   7.807  2.4909  3.8198  2.6913
  139MOL0     H18310   3.494   7.734   7.919  2.1021  1.0198  1.1075
  139MOL0     H18311   3.479   7.913   8.039  3.3482 -3.9602 -1.2553
  139MOL0     H18312   3.405   8.192   8.445  2.4827  1.0041  2.9239
  139MOL0     H18313   3.322   8.363   8.608 -1.4879  0.4529  1.3910
  139MOL0     H18314   3.194   8.501   8.699  3.4820 -4.1175  0.2608
  139MOL0     H18315   3.121   8.498   8.855  4.0184  1.3300 -0.9324
  139MOL0     H18316   2.991   8.411   8.597  1.8136 -1.0509 -0.3729
  139MOL0     H18317   2.974   8.572   8.674 -1.3812 -0.5681  1.1747
  139MOL0     H18318   2.868   8.463   8.876  0.7677 -1.2980  0.7836
  139MOL0     H18319   2.868   8.313   8.791  2.7395 -0.0935 -1.3679
  139MOL0     H18320   2.748   8.557   8.672 -0.5250  0.4186  2.6865
  139MOL0     H18321   2.741   8.384   8.616 -1.3805 -2.3885  1.5154
  139MOL0     H18322   2.614   8.446   8.885 -2.8735 -1.0608  1.1825
  139MOL0     H18323   2.576   8.322   8.768 -1.6098  0.0009 -2.0456
  139MOL0     H18324   2.513   8.607   8.688  3.3635 -0.7123 -0.4941
  139MOL0     H18325   2.415   8.514   8.807 -1.6087 -5.3075 -1.1322
  139MOL0     H18326   2.331   8.509   8.565 -0.5454 -3.3991 -2.5250
  139MOL0     H18327   2.470   8.411   8.540 -0.3127  1.1487 -0.9458
  139MOL0     H18328   2.370   8.252   8.728  2.3409  0.6056 -0.0311
  139MOL0     H18329   2.277   8.286   8.580 -3.1934  1.9159  0.2146
  139MOL0     H18330   3.045   8.087   8.768  0.1732 -0.1110  2.3647
  139MOL0     H18331   3.117   7.908   8.612  3.5019 -2.2707 -1.1880
  139MOL0     H18332   3.300   7.686   8.361 -0.8757  2.8728  0.2703
  139MOL0     H18333   3.300   7.503   8.231 -1.0039  0.8533  0.8134
  139MOL0     H18334   4.833   6.935   7.214 -2.7466  0.6293  2.1524
  139MOL0     H18335   4.922   6.832   7.010  2.2996  3.1609  2.3871
  139MOL0     H18336   5.191   6.941   6.560  0.8423 -1.0112  1.6872
  139MOL0     H18337   5.260   6.803   6.382  1.9106 -2.5770  1.2320
  139MOL0     H18338   5.339   6.642   6.257  0.9955 -3.8716  0.0037
  139MOL0     H18339   5.202   6.732   6.172  1.8760  0.6122 -1.2733
  139MOL0     H18340   5.281   6.438   6.117  0.8921 -0.9597 -0.8418
  139MOL0     H18341   5.148   6.539   6.059 -0.5806 -3.4312  0.4743
  139MOL0     H18342   5.448   6.592   6.011  0.1680  3.2401  1.0577
  139MOL0     H18343   5.319   6.711   5.971 -0.0176 -0.0728  0.6594
  139MOL0     H18344   5.196   6.523   5.845  0.0082  0.5472  2.5809
  139MOL0     H18345   5.327   6.586   5.764  0.6902 -1.0856 -0.3603
  139MOL0     H18346   5.469   6.195   5.864 -1.0964 -0.1794 -2.1621
  139MOL0     H18347   4.919   6.543   6.441 -1.4814  0.1516  2.6982
  139MOL0     H18348   4.839   6.687   6.600  0.2182  1.7310  1.7572
  140MOL0     O18349   3.416   8.793   5.294  0.4838 -0.0657 -0.6013
  140MOL0     C18350   3.462   8.679   5.277  0.5985 -0.0037 -0.1468
  140MOL0     O18351   3.567   8.626   5.350 -0.1740  0.1052  0.3823
  140MOL0     C18352   3.609   8.687   5.470  1.0734 -0.5500 -0.3067
  140MOL0     C18353   3.514   8.758   5.549 -0.8077  0.1309  0.4649
  140MOL0     C18354   3.560   8.827   5.658  0.0686 -0.0888 -0.7084
  140MOL0     C18355   3.692   8.814   5.699  0.2884  0.1264  0.3990
  140MOL0     O18356   3.735   8.877   5.802  0.0959  0.7150  0.5980
  140MOL0     C18357   3.826   8.980   5.778 -0.0867 -0.3844 -0.2342
  140MOL0     C18358   3.848   9.059   5.906 -0.4715  0.6651  0.6678
  140MOL0     C18359   3.954   9.160   5.882 -0.7799  0.0482 -0.2705
  140MOL0     C18360   3.953   9.285   5.969  0.0769 -0.3480 -0.1183
  140MOL0     C18361   4.007   9.415   5.910  0.2848 -0.6293  0.6668
  140MOL0     C18362   4.158   9.400   5.861  0.6065  0.0153  0.2742
  140MOL0     C18363   4.272   9.395   5.962  0.1443  0.2157  0.2687
  140MOL0     C18364   4.404   9.343   5.900 -0.0951 -0.4973  0.7278
  140MOL0     N18365   4.460   9.469   5.825 -0.2828  0.3848  0.6079
  140MOL0     C18366   4.479   9.587   5.881  0.8129 -0.8560  0.6694
  140MOL0     C18367   4.538   9.659   5.783 -0.2274  0.6067 -0.0198
  140MOL0     C18368   4.564   9.801   5.805  0.3855  0.4746  0.9589
  140MOL0     C18369   4.685   9.791   5.888 -0.4284  0.6885 -0.1726
  140MOL0     C18370   4.764   9.920   5.866 -0.0366 -0.5937  0.0095
  140MOL0     C18371   4.898   9.921   5.933  0.3108  0.5659 -0.3273
  140MOL0     O18372   4.875   9.916   6.066  0.1469  0.6738 -0.6357
  140MOL0     C18373   4.951   9.982   6.163 -0.6243 -0.0783 -0.0945
  140MOL0     C18374   5.072  10.053   6.141 -0.5711 -0.5414  0.2584
  140MOL0     C18375   5.152  10.099   6.249  0.2507  0.9086 -0.1263
  140MOL0     C18376   5.110  10.074   6.383 -0.4454 -0.4021 -0.1697
  140MOL0     C18377   5.209  10.097   6.499 -0.2372 -0.6962  0.1908
  140MOL0     O18378   5.296  10.208   6.483  0.3368  0.0722  0.5332
  140MOL0     C18379   5.388  10.234   6.576 -0.1095 -0.4118  0.2076
  140MOL0     C18380   5.367  10.236   6.715 -1.1491 -0.0567 -1.3342
  140MOL0     C18381   5.474  10.281   6.798  1.1764 -0.4486 -0.0074
  140MOL0     C18382   5.583  10.333   6.748 -0.5282 -0.1448 -0.4764
  140MOL0     O18383   5.678  10.376   6.837 -0.9899  0.3689  0.9438
  140MOL0     C18384   5.817  10.378   6.801 -0.2108  0.3881  0.9120
  140MOL0     C18385   5.849  10.510   6.730  0.5962  0.2703  0.1753
  140MOL0     C18386   5.852  10.604   6.848 -0.4025  0.6787 -0.1332
  140MOL0     C18387   5.905  10.742   6.816 -1.5698 -0.5989  0.4771
  140MOL0     C18388   6.063  10.754   6.857 -0.2090  0.2339 -0.3157
  140MOL0     C18389   6.142  10.887   6.841  0.9196  0.0138 -0.1967
  140MOL0     C18390   6.091  11.005   6.921  0.4517  0.6677 -0.2348
  140MOL0     C18391   6.178  11.126   6.890 -0.3220  0.0160 -0.0196
  140MOL0    Cl18392   6.122  11.217   6.753 -0.3490 -0.2455 -0.5144
  140MOL0     C18393   5.611  10.323   6.609  0.0025 -0.1514  0.2908
  140MOL0     C18394   5.510  10.276   6.524  0.3998 -0.0222  0.2037
  140MOL0     O18395   5.203  10.017   6.599 -0.1291 -0.0959 -0.8041
  140MOL0     C18396   4.983  10.009   6.405  0.0736 -0.7069  0.9680
  140MOL0     C18397   4.902   9.961   6.297 -0.1076 -0.8149 -0.8630
  140MOL0     N18398   4.542   9.577   5.668 -0.3416 -0.2627 -0.2337
  140MOL0     N18399   4.506   9.463   5.699  0.1685 -0.4624 -0.4015
  140MOL0     C18400   3.772   8.724   5.626 -0.4750 -0.9889 -0.2495
  140MOL0     C18401   3.730   8.662   5.516 -0.5127  0.8224 -0.8000
  140MOL0     C18402   3.404   8.584   5.175  0.6408  0.1710  1.6637
  140MOL0     C18403   3.320   8.636   5.076  0.0047  0.0669 -0.9183
  140MOL0     C18404   3.259   8.558   4.981  0.3304  0.0027 -0.4812
  140MOL0     C18405   3.273   8.418   4.974  1.1985 -0.2924 -0.7963
  140MOL0     O18406   3.209   8.331   4.887 -0.5497 -0.0663  0.2033
  140MOL0     C18407   3.164   8.398   4.767 -0.6638 -0.5561  0.2529
  140MOL0     C18408   3.107   8.297   4.679  1.0660  0.4477 -0.4181
  140MOL0     C18409   2.959   8.265   4.724  0.4457  0.6312 -0.1169
  140MOL0     C18410   2.874   8.199   4.620 -0.7173 -0.3552  0.4013
  140MOL0     C18411   2.743   8.171   4.670  0.2181 -0.5119 -0.2447
  140MOL0     C18412   2.636   8.158   4.735 -0.7694 -0.4175  0.5433
  140MOL0     C18413   3.361   8.364   5.065  0.0895 -0.2533 -0.4312
  140MOL0     C18414   3.425   8.445   5.165  0.5108 -0.1500 -0.0406
  140MOL0     H18415   3.413   8.776   5.514  0.4848 -0.0050 -3.9642
  140MOL0     H18416   3.499   8.894   5.719 -1.3398 -0.6367 -1.4863
  140MOL0     H18417   3.782   9.043   5.700 -2.0724 -0.7928  0.4901
  140MOL0     H18418   3.915   8.932   5.737 -0.1727  0.0582 -0.9554
  140MOL0     H18419   3.870   8.988   5.986  1.7919 -0.4465 -0.8317
  140MOL0     H18420   3.749   9.101   5.929 -1.4491 -2.0514  1.8567
  140MOL0     H18421   3.949   9.190   5.777 -2.4015 -3.0110 -1.1980
  140MOL0     H18422   4.053   9.114   5.886 -1.7904 -2.4202 -1.3242
  140MOL0     H18423   3.845   9.289   5.980  0.2514  0.1862  1.7984
  140MOL0     H18424   4.006   9.262   6.062  3.8985  1.7906 -1.5389
  140MOL0     H18425   3.993   9.493   5.985 -1.2426  1.0217 -1.2239
  140MOL0     H18426   3.940   9.450   5.831 -3.0080 -1.1939  3.0065
  140MOL0     H18427   4.172   9.487   5.797 -1.3445  1.2442  1.3856
  140MOL0     H18428   4.160   9.308   5.802  1.7065 -1.8450  2.9815
  140MOL0     H18429   4.283   9.492   6.010  0.1977  1.3262 -1.8605
  140MOL0     H18430   4.244   9.328   6.043  1.9287  3.0290  3.4357
  140MOL0     H18431   4.388   9.247   5.850 -3.9496 -1.2481  2.9758
  140MOL0     H18432   4.473   9.322   5.983  0.8514  0.0102  0.0869
  140MOL0     H18433   4.454   9.622   5.981  0.1252 -0.0866  0.2405
  140MOL0     H18434   4.487   9.858   5.858  0.4726  1.3656  0.1590
  140MOL0     H18435   4.580   9.848   5.707 -0.4182  0.5271  0.8453
  140MOL0     H18436   4.748   9.709   5.852 -2.3210 -0.1831 -1.6641
  140MOL0     H18437   4.672   9.769   5.994 -0.3683 -2.5581 -0.7415
  140MOL0     H18438   4.782   9.930   5.759 -1.4649 -2.0424 -0.4082
  140MOL0     H18439   4.701  10.005   5.896 -0.2032 -1.1064  1.1585
  140MOL0     H18440   4.947  10.012   5.896  0.9740  0.9206  1.3542
  140MOL0     H18441   4.958   9.832   5.911  1.4659  1.5146 -1.2005
  140MOL0     H18442   5.105  10.081   6.041 -1.3605 -0.5360 -0.0106
  140MOL0     H18443   5.245  10.138   6.208  1.6528 -3.9066 -2.3734
  140MOL0     H18444   5.276  10.210   6.768 -0.3502 -0.5182 -0.1371
  140MOL0     H18445   5.476  10.274   6.906  2.1041  3.1216  0.3391
  140MOL0     H18446   5.838  10.298   6.730 -1.4751  0.8282  0.0134
  140MOL0     H18447   5.876  10.363   6.892 -0.9104 -0.6681  1.2160
  140MOL0     H18448   5.778  10.535   6.651  0.5390 -1.6003 -0.4182
  140MOL0     H18449   5.946  10.501   6.680  1.3523  0.7075  1.5097
  140MOL0     H18450   5.904  10.565   6.936 -0.4780 -0.0750 -0.4134
  140MOL0     H18451   5.756  10.617   6.898  0.1473 -1.7485  1.8116
  140MOL0     H18452   5.892  10.767   6.710  1.5171 -2.6978 -0.5260
  140MOL0     H18453   5.849  10.815   6.875 -1.1762  0.0851  0.0398
  140MOL0     H18454   6.122  10.695   6.786 -1.0200 -0.4376 -0.4409
  140MOL0     H18455   6.071  10.736   6.965 -0.9601  1.9841  0.0668
  140MOL0     H18456   6.132  10.918   6.736  0.8647 -2.0420 -0.8362
  140MOL0     H18457   6.246  10.862   6.863 -0.1138 -2.8191  1.9690
  140MOL0     H18458   5.989  11.027   6.887 -0.3912 -0.5945  1.3633
  140MOL0     H18459   6.091  10.983   7.028  2.4915 -1.7878 -0.6365
  140MOL0     H18460   6.283  11.094   6.889 -1.1821 -3.2712 -1.5601
  140MOL0     H18461   6.178  11.198   6.972  0.8250  0.6357 -0.5317
  140MOL0     H18462   5.695  10.366   6.556  0.0824 -0.8246 -0.1353
  140MOL0     H18463   5.537  10.269   6.419 -3.3595  0.3340 -0.9379
  140MOL0     H18464   4.948   9.980   6.504 -0.5587 -0.8327  0.7122
  140MOL0     H18465   4.819   9.895   6.319 -0.0551 -0.7603 -0.4889
  140MOL0     H18466   3.874   8.711   5.662 -0.5316  2.3347  1.5254
  140MOL0     H18467   3.804   8.623   5.447  2.6737  3.4146  0.8552
  140MOL0     H18468   3.295   8.741   5.069 -2.0187 -0.1272  1.7907
  140MOL0     H18469   3.190   8.613   4.918  2.4512 -0.0622 -3.0724
  140MOL0     H18470   3.248   8.436   4.709 -0.7315  0.4000  0.7647
  140MOL0     H18471   3.094   8.478   4.793  1.8152  0.8978  3.2276
  140MOL0     H18472   3.105   8.337   4.577 -1.4511  0.8772 -0.2653
  140MOL0     H18473   3.169   8.208   4.675 -0.1515 -0.4407 -0.0812
  140MOL0     H18474   2.894   8.350   4.745  0.3276  0.8604 -1.3101
  140MOL0     H18475   2.958   8.193   4.806 -1.5160  0.8814  0.1268
  140MOL0     H18476   2.881   8.253   4.526 -1.8540 -2.8752 -1.2249
  140MOL0     H18477   2.921   8.102   4.602  1.2738  0.9555 -1.9373
  140MOL0     H18478   2.546   8.140   4.790 -0.2073 -1.3281  1.2040
  140MOL0     H18479   3.389   8.260   5.076  0.0868 -0.3079 -0.9181
  140MOL0     H18480   3.491   8.392   5.233  4.4396  3.2557 -0.8036
  141MOL0     O18481   5.205   7.506   3.656  0.0049  0.7532 -0.0439
  141MOL0     C18482   5.145   7.605   3.700  0.0722 -0.1750  0.2640
  141MOL0     O18483   5.058   7.685   3.628  0.1240  0.0598 -0.6123
  141MOL0     C18484   5.023   7.653   3.505 -0.1755 -0.7600 -0.3877
  141MOL0     C18485   4.998   7.750   3.414 -0.2548 -0.0978 -0.1250
  141MOL0     C18486   4.954   7.725   3.284 -0.2444 -0.4224  1.0814
  141MOL0     C18487   4.923   7.589   3.245  0.5253 -0.1831 -0.7138
  141MOL0     O18488   4.886   7.557   3.117 -0.7085 -0.5977  0.7044
  141MOL0     C18489   4.994   7.595   3.025 -0.1921  0.3761  1.2564
  141MOL0     C18490   4.977   7.507   2.900  0.1117  0.7037 -0.7407
  141MOL0     C18491   5.093   7.537   2.796  0.8981 -0.2944 -0.4412
  141MOL0     C18492   5.080   7.477   2.649  0.3510 -0.3871  0.8555
  141MOL0     C18493   5.105   7.589   2.543  0.8027  0.3682 -0.1697
  141MOL0     C18494   4.995   7.702   2.526  0.0553 -0.6681  0.6685
  141MOL0     C18495   5.050   7.839   2.488 -0.0253  0.2573  0.4768
  141MOL0     C18496   4.930   7.935   2.461  0.1704  0.6808 -0.2983
  141MOL0     N18497   4.957   8.077   2.479 -0.1201 -0.6558 -0.6558
  141MOL0     C18498   5.084   8.129   2.467  0.0259 -0.3019  0.4568
  141MOL0     C18499   5.082   8.241   2.536 -0.5935  1.0360 -0.3628
  141MOL0     C18500   5.206   8.314   2.579  0.1528 -0.3925 -0.1439
  141MOL0     C18501   5.183   8.423   2.683 -0.3793  0.4470 -0.4090
  141MOL0     C18502   5.310   8.483   2.739 -0.5618  0.3695 -0.9974
  141MOL0     C18503   5.265   8.609   2.835  0.5006 -0.1122 -0.7567
  141MOL0     O18504   5.378   8.690   2.831 -0.1522 -0.5333  0.1347
  141MOL0     C18505   5.436   8.731   2.954 -0.5385  0.0581  0.1933
  141MOL0     C18506   5.579   8.717   2.965 -0.1096 -0.4710 -0.2285
  141MOL0     C18507   5.646   8.733   3.090  0.2952 -0.4995 -0.2397
  141MOL0     C18508   5.579   8.767   3.208  0.2729 -0.2437  0.5846
  141MOL0     C18509   5.655   8.783   3.338  0.0843  0.0595  0.0783
  141MOL0     O18510   5.788   8.776   3.334  0.5374  0.4072 -0.7113
  141MOL0     C18511   5.877   8.828   3.431  0.8644  0.0487  0.3844
  141MOL0     C18512   5.837   8.901   3.551 -0.9624 -0.1235 -0.2118
  141MOL0     C18513   5.933   8.970   3.628 -0.7117  0.1130 -0.5692
  141MOL0     C18514   6.070   8.976   3.585  0.4937  0.4797 -0.0428
  141MOL0     O18515   6.149   9.034   3.677 -0.7099  0.3759  0.2622
  141MOL0     C18516   6.290   9.060   3.641 -0.2955  0.0318 -0.1711
  141MOL0     C18517   6.364   9.155   3.754  0.6890  0.0426  0.1986
  141MOL0     C18518   6.272   9.281   3.777 -0.5276 -0.5105  0.1008
  141MOL0     C18519   6.327   9.372   3.886  0.2641 -0.6132  0.5895
  141MOL0     C18520   6.217   9.469   3.931  0.3699 -0.2498 -0.0875
  141MOL0     C18521   6.272   9.588   4.020 -0.1458  0.3044 -0.8468
  141MOL0     C18522   6.164   9.683   4.065 -0.5583 -0.4392  0.3219
  141MOL0     C18523   6.188   9.756   4.190 -0.3764 -0.6841 -0.9356
  141MOL0    Cl18524   6.341   9.832   4.196  0.2774 -0.1563 -0.8871
  141MOL0     C18525   6.111   8.902   3.474  1.2904 -0.2002  0.1035
  141MOL0     C18526   6.014   8.827   3.398 -0.0152 -0.4050  0.5690
  141MOL0     O18527   5.598   8.821   3.435  0.5884 -0.0385  0.2067
  141MOL0     C18528   5.434   8.786   3.194  0.4635  0.0254  1.3072
  141MOL0     C18529   5.369   8.757   3.073  1.1396 -0.2671  1.5160
  141MOL0     N18530   4.952   8.269   2.586 -0.1737 -0.0392  1.2731
  141MOL0     N18531   4.880   8.165   2.555 -0.2972 -0.8835  0.0988
  141MOL0     C18532   4.938   7.487   3.343 -0.1078 -0.2117  1.1134
  141MOL0     C18533   4.985   7.520   3.470  0.4444  0.4780 -0.2661
  141MOL0     C18534   5.178   7.651   3.839  0.4539 -0.0694  0.4650
  141MOL0     C18535   5.277   7.587   3.904 -0.4334 -0.3644 -0.5894
  141MOL0     C18536   5.318   7.632   4.030  0.9717 -0.0762 -0.1331
  141MOL0     C18537   5.263   7.754   4.096 -0.9276  0.0698  0.0071
  141MOL0     O18538   5.328   7.799   4.212 -0.5256 -0.9129  0.5074
  141MOL0     C18539   5.284   7.921   4.270  0.2757  0.2498  0.3733
  141MOL0     C18540   5.161   7.892   4.363 -0.6781  0.3761 -0.1121
  141MOL0     C18541   5.203   7.814   4.484  0.2316 -0.4135  0.4211
  141MOL0     C18542   5.087   7.765   4.572 -0.1424  0.4465 -0.1971
  141MOL0     C18543   5.032   7.875   4.653  0.1512  0.0111  0.7179
  141MOL0     C18544   4.977   7.973   4.711  0.0476 -0.1789 -0.3611
  141MOL0     C18545   5.168   7.819   4.021 -0.2115 -0.0554 -0.1755
  141MOL0     C18546   5.134   7.771   3.892 -0.0119  0.1264 -0.3911
  141MOL0     H18547   5.012   7.853   3.447 -2.4142  0.0661  0.4504
  141MOL0     H18548   4.937   7.802   3.210 -2.6269 -2.2892 -0.4810
  141MOL0     H18549   5.091   7.577   3.072 -0.6876 -0.9382  1.8434
  141MOL0     H18550   4.989   7.695   2.980 -1.2036 -0.4140 -0.5106
  141MOL0     H18551   4.888   7.535   2.843 -1.5829  0.1122  1.4899
  141MOL0     H18552   4.966   7.402   2.930 -1.0720  1.1689  0.5397
  141MOL0     H18553   5.191   7.513   2.839 -1.2258 -5.6466  2.3563
  141MOL0     H18554   5.082   7.644   2.779 -3.3846 -0.4209  0.2963
  141MOL0     H18555   5.128   7.379   2.638 -0.4359 -0.6875 -0.0216
  141MOL0     H18556   4.978   7.438   2.641 -1.4479  4.1237 -3.8186
  141MOL0     H18557   5.114   7.551   2.441  0.6283  2.6437 -1.0850
  141MOL0     H18558   5.205   7.627   2.568  0.4047  0.5471  1.2688
  141MOL0     H18559   4.932   7.723   2.613 -0.8630  2.3598 -0.5937
  141MOL0     H18560   4.923   7.670   2.449 -4.9778 -1.6198  5.2003
  141MOL0     H18561   5.103   7.878   2.575 -0.5156  0.1710  0.8172
  141MOL0     H18562   5.124   7.831   2.407 -0.4080 -1.4020  0.2693
  141MOL0     H18563   4.843   7.915   2.525  0.2444  0.7389 -0.1774
  141MOL0     H18564   4.893   7.910   2.361 -0.1061 -0.7489  0.1321
  141MOL0     H18565   5.171   8.085   2.419  0.3764 -0.7314  1.4704
  141MOL0     H18566   5.254   8.353   2.489 -2.7898 -1.8069 -2.5226
  141MOL0     H18567   5.284   8.247   2.615  2.7791  0.6656 -3.2801
  141MOL0     H18568   5.130   8.375   2.766  2.1903  1.7001  2.1058
  141MOL0     H18569   5.115   8.501   2.648  1.0616  0.9572 -2.2449
  141MOL0     H18570   5.354   8.403   2.800 -5.2330 -1.8884 -0.1237
  141MOL0     H18571   5.381   8.514   2.662  2.0554 -1.0435  0.6750
  141MOL0     H18572   5.235   8.579   2.936 -1.1021  1.1359 -0.8237
  141MOL0     H18573   5.181   8.663   2.790  2.5983  1.6235 -2.8891
  141MOL0     H18574   5.654   8.701   2.888 -1.0639  0.7041 -1.4733
  141MOL0     H18575   5.753   8.732   3.102  0.1431 -0.0758  1.3926
  141MOL0     H18576   5.738   8.917   3.594 -1.3550  0.6829 -1.3758
  141MOL0     H18577   5.905   9.009   3.726 -3.1390 -0.5900 -0.9136
  141MOL0     H18578   6.294   9.124   3.553 -2.8587  0.0904 -0.3217
  141MOL0     H18579   6.346   8.968   3.622 -0.4336 -0.4552  1.5318
  141MOL0     H18580   6.462   9.194   3.723  0.4012  0.9806  0.4429
  141MOL0     H18581   6.376   9.087   3.839  1.1966 -0.1589 -0.0298
  141MOL0     H18582   6.173   9.240   3.798  0.1540 -3.6184 -2.0719
  141MOL0     H18583   6.260   9.339   3.685 -1.1683 -1.9623 -0.7529
  141MOL0     H18584   6.358   9.308   3.969  1.7014  0.3246  0.8242
  141MOL0     H18585   6.416   9.429   3.855  0.1011  1.2096  3.1119
  141MOL0     H18586   6.148   9.412   3.994  0.8607 -1.3553 -0.5270
  141MOL0     H18587   6.169   9.508   3.841  1.3831 -1.5126 -1.2106
  141MOL0     H18588   6.340   9.655   3.967 -0.4063  0.2850 -1.2052
  141MOL0     H18589   6.337   9.553   4.100 -1.2998  0.5648  0.2452
  141MOL0     H18590   6.137   9.758   3.990  2.6716 -1.5389 -2.1735
  141MOL0     H18591   6.079   9.616   4.082 -0.1565 -1.4180 -1.2553
  141MOL0     H18592   6.180   9.683   4.271  3.9850  1.4833  1.8734
  141MOL0     H18593   6.111   9.832   4.204  0.3879 -0.2607  1.3730
  141MOL0     H18594   6.212   8.904   3.433  0.1713  1.5915 -2.8666
  141MOL0     H18595   6.051   8.783   3.306 -0.6584  0.8239 -0.3080
  141MOL0     H18596   5.377   8.822   3.280  1.4734  0.5565  1.7757
  141MOL0     H18597   5.263   8.774   3.062  1.8935  4.3450 -1.6033
  141MOL0     H18598   4.909   7.383   3.326  0.0332 -0.0669 -0.0835
  141MOL0     H18599   4.985   7.434   3.536  1.9511 -0.7263 -1.7589
  141MOL0     H18600   5.318   7.500   3.854  0.5413  0.3640 -1.0980
  141MOL0     H18601   5.404   7.584   4.076  1.9463  0.4956 -1.3070
  141MOL0     H18602   5.272   8.002   4.197  1.1665 -0.1719 -0.2536
  141MOL0     H18603   5.371   7.953   4.329  2.3411 -0.9895 -1.8467
  141MOL0     H18604   5.108   7.978   4.404 -1.1524 -0.8078  1.9319
  141MOL0     H18605   5.078   7.842   4.313 -3.1662 -0.3276  4.2283
  141MOL0     H18606   5.274   7.872   4.543  0.1405  1.1940 -0.9703
  141MOL0     H18607   5.262   7.725   4.458 -1.4424 -1.1932 -0.9407
  141MOL0     H18608   5.016   7.709   4.510 -0.8976  0.4156  0.6920
  141MOL0     H18609   5.117   7.685   4.640 -1.1304 -0.3643 -0.6803
  141MOL0     H18610   4.923   8.053   4.759  0.1793  0.4980 -1.3207
  141MOL0     H18611   5.113   7.898   4.071 -2.4516 -0.8079 -1.3539
  141MOL0     H18612   5.076   7.839   3.830 -0.3603  0.1147 -0.0838
  142MOL0     O18613   0.858   0.952   8.688 -1.0747 -0.1522 -0.2139
  142MOL0     C18614   0.856   1.058   8.750 -0.3673  0.1826  1.2561
  142MOL0     O18615   0.755   1.150   8.736 -0.1487  0.7891 -0.3320
  142MOL0     C18616   0.708   1.184   8.605  1.1147  0.4433 -0.0213
  142MOL0     C18617   0.798   1.180   8.494  0.0129  0.6418 -0.8819
  142MOL0     C18618   0.747   1.218   8.369 -0.0498  0.5764 -1.4034
  142MOL0     C18619   0.613   1.263   8.359 -0.5515 -0.9285 -0.3640
  142MOL0     O18620   0.570   1.300   8.234 -0.3244 -0.6790  0.5659
  142MOL0     C18621   0.610   1.211   8.121 -1.0272 -0.9199 -0.9917
  142MOL0     C18622   0.484   1.151   8.048 -1.3537  0.0270  0.0885
  142MOL0     C18623   0.519   1.032   7.961 -0.1237 -0.9604  0.4679
  142MOL0     C18624   0.596   1.077   7.841 -1.1423 -0.1178 -0.6680
  142MOL0     C18625   0.641   0.957   7.745  0.0055  0.1529 -0.6036
  142MOL0     C18626   0.540   0.909   7.637  0.1897 -0.3868 -0.5781
  142MOL0     C18627   0.562   0.763   7.564  1.3565  0.1139 -0.0427
  142MOL0     C18628   0.662   0.758   7.445  0.3494  0.1180 -0.0367
  142MOL0     N18629   0.795   0.767   7.507 -0.3006  0.4052  0.1940
  142MOL0     C18630   0.907   0.835   7.452  0.9470 -0.0492 -0.3702
  142MOL0     C18631   1.016   0.808   7.525  0.6790 -0.1430  1.1512
  142MOL0     C18632   1.163   0.831   7.486 -0.2881  0.7847 -0.8560
  142MOL0     C18633   1.250   0.719   7.542  0.3049 -0.9947  0.2969
  142MOL0     C18634   1.398   0.766   7.510  0.3364 -0.4437 -0.4323
  142MOL0     C18635   1.448   0.703   7.374  0.8751 -0.5290 -0.3938
  142MOL0     O18636   1.580   0.653   7.380 -0.9368 -0.8729  0.2936
  142MOL0     C18637   1.651   0.641   7.268 -1.2908  0.7285  0.5135
  142MOL0     C18638   1.611   0.645   7.128  0.1963 -0.1400 -0.6431
  142MOL0     C18639   1.697   0.642   7.013 -0.2360 -0.2610  0.3632
  142MOL0     C18640   1.836   0.647   7.041  0.4262  0.3446 -0.4018
  142MOL0     C18641   1.927   0.637   6.920 -0.6195 -0.0153  0.0630
  142MOL0     O18642   1.864   0.646   6.793  0.2428 -0.4373 -0.3416
  142MOL0     C18643   1.926   0.649   6.676  0.3197 -0.9425 -0.7242
  142MOL0     C18644   2.064   0.634   6.655 -1.6832 -0.5196  0.8596
  142MOL0     C18645   2.113   0.652   6.527 -0.3777  0.1739  0.3813
  142MOL0     C18646   2.035   0.672   6.412 -0.0939  0.0486 -0.5642
  142MOL0     O18647   2.086   0.690   6.286 -0.3712  0.3078  0.1048
  142MOL0     C18648   2.024   0.640   6.172 -0.3465  0.2715  0.0173
  142MOL0     C18649   2.127   0.617   6.063 -0.1983 -0.3747  0.0648
  142MOL0     C18650   2.052   0.566   5.935 -0.7556  0.2325 -0.2010
  142MOL0     C18651   2.143   0.515   5.829  0.2333 -0.0892  0.1650
  142MOL0     C18652   2.072   0.460   5.708  0.2627 -0.9564  0.1006
  142MOL0     C18653   2.002   0.578   5.635 -0.7387 -0.0118  0.2361
  142MOL0     C18654   1.906   0.512   5.541 -0.1201 -0.2224 -0.1730
  142MOL0     C18655   1.788   0.460   5.618  0.4102  0.6762 -0.7126
  142MOL0    Cl18656   1.664   0.416   5.498 -0.7682  0.1807 -0.0262
  142MOL0     C18657   1.888   0.683   6.435 -0.4323 -1.1497 -0.1462
  142MOL0     C18658   1.837   0.665   6.569 -0.1697 -0.5536  0.7464
  142MOL0     O18659   2.052   0.625   6.943 -0.2417  0.2669  0.5901
  142MOL0     C18660   1.878   0.646   7.178  0.0232  0.0720  0.1111
  142MOL0     C18661   1.792   0.641   7.293 -0.6543 -1.0632  0.5031
  142MOL0     N18662   0.962   0.751   7.638 -0.4630 -0.1991  0.1343
  142MOL0     N18663   0.834   0.720   7.622 -0.0003  0.4988  0.3920
  142MOL0     C18664   0.530   1.279   8.470 -0.0156  0.9529 -0.0779
  142MOL0     C18665   0.577   1.228   8.589 -0.1575 -0.5347 -0.7620
  142MOL0     C18666   0.955   1.084   8.860 -0.6536 -0.2402  0.2653
  142MOL0     C18667   0.951   1.201   8.937  0.7124  0.1786 -0.0177
  142MOL0     C18668   1.044   1.216   9.035  0.2849 -0.0310 -0.1447
  142MOL0     C18669   1.137   1.121   9.069  0.7114 -0.6567  0.2572
  142MOL0     O18670   1.233   1.141   9.163 -0.3217  0.0194 -0.4255
  142MOL0     C18671   1.331   1.247   9.144  0.4276 -0.1583 -0.2805
  142MOL0     C18672   1.440   1.223   9.243 -0.3789 -0.9379 -0.1334
  142MOL0     C18673   1.384   1.250   9.390 -0.8108 -0.6926  1.3657
  142MOL0     C18674   1.479   1.217   9.504  0.4056  0.4744  0.3252
  142MOL0     C18675   1.545   1.087   9.493 -0.3979  0.3413 -0.0967
  142MOL0     C18676   1.585   0.969   9.478  0.6750  0.1156  0.7005
  142MOL0     C18677   1.124   0.994   9.014 -0.4807 -1.6785  0.1793
  142MOL0     C18678   1.037   0.981   8.907 -0.6485  0.2667  0.4543
  142MOL0     H18679   0.905   1.164   8.496  0.2359  1.9621 -0.7568
  142MOL0     H18680   0.805   1.212   8.277  1.1701 -1.9296 -0.5697
  142MOL0     H18681   0.672   1.127   8.154 -1.6943 -0.5143  1.5681
  142MOL0     H18682   0.668   1.264   8.046 -2.6934 -1.8040 -2.9948
  142MOL0     H18683   0.428   1.225   7.990 -0.0525  2.6784  2.0074
  142MOL0     H18684   0.425   1.109   8.130  0.6819 -1.7714  0.7321
  142MOL0     H18685   0.417   1.005   7.933 -1.8990  3.9071  1.1973
  142MOL0     H18686   0.574   0.954   8.015 -0.9254 -0.8538  1.4658
  142MOL0     H18687   0.532   1.144   7.783 -0.6785 -1.4429 -2.8297
  142MOL0     H18688   0.691   1.120   7.875  1.6892 -3.1397 -3.8467
  142MOL0     H18689   0.666   0.880   7.819  0.3810  0.7562 -0.0926
  142MOL0     H18690   0.733   0.977   7.689  0.5744 -0.2354  0.1849
  142MOL0     H18691   0.529   0.987   7.561  0.0118 -0.9636 -1.1585
  142MOL0     H18692   0.444   0.902   7.690  0.2691  1.2813 -0.1531
  142MOL0     H18693   0.582   0.682   7.634 -2.7560  1.6251  3.2882
  142MOL0     H18694   0.467   0.728   7.523  0.4411  0.2982  1.8193
  142MOL0     H18695   0.651   0.840   7.373  2.0285  1.4507  1.1201
  142MOL0     H18696   0.639   0.664   7.394  3.4488 -0.5619 -0.3826
  142MOL0     H18697   0.911   0.887   7.357  2.8576  0.8456  0.1509
  142MOL0     H18698   1.199   0.929   7.519  1.5248 -0.3656  0.8320
  142MOL0     H18699   1.165   0.830   7.376 -0.6042  1.5461 -0.8719
  142MOL0     H18700   1.225   0.621   7.499  2.5890 -2.3049  1.7703
  142MOL0     H18701   1.246   0.713   7.651  1.0949 -1.5617  0.3078
  142MOL0     H18702   1.405   0.875   7.509  0.2640 -0.4084 -2.5673
  142MOL0     H18703   1.466   0.730   7.588 -2.8404 -0.9047  2.3804
  142MOL0     H18704   1.438   0.772   7.289  2.2064  1.2707  0.8294
  142MOL0     H18705   1.393   0.611   7.350  0.1575 -0.6358  1.5035
  142MOL0     H18706   1.507   0.637   7.099  0.1081 -3.0684  0.1633
  142MOL0     H18707   1.643   0.645   6.919  1.8424  1.6229 -0.8527
  142MOL0     H18708   2.135   0.631   6.736 -2.1213  2.1349  1.4597
  142MOL0     H18709   2.220   0.641   6.514 -0.7305 -0.5629 -2.7904
  142MOL0     H18710   1.955   0.716   6.133 -0.0953 -0.8972 -2.9650
  142MOL0     H18711   1.967   0.548   6.187 -1.3108  0.3668 -2.6441
  142MOL0     H18712   2.192   0.546   6.114  2.1422 -0.2035 -2.4782
  142MOL0     H18713   2.197   0.700   6.050  0.2766 -0.4130  1.9859
  142MOL0     H18714   1.989   0.648   5.899 -1.6710 -1.6645 -3.2708
  142MOL0     H18715   1.989   0.485   5.974  0.0210 -1.0443 -1.4738
  142MOL0     H18716   2.190   0.609   5.798 -0.3443  0.5418  1.1082
  142MOL0     H18717   2.218   0.443   5.862 -0.0311 -1.3945 -1.9119
  142MOL0     H18718   2.006   0.385   5.751  0.7292 -2.0253 -0.9916
  142MOL0     H18719   2.142   0.418   5.635  0.1280 -0.2107 -0.4727
  142MOL0     H18720   2.071   0.632   5.570 -0.8119 -2.2465 -1.8615
  142MOL0     H18721   1.963   0.657   5.700  1.7822 -1.2410  3.5235
  142MOL0     H18722   1.850   0.585   5.482 -2.0221 -1.6203 -0.1808
  142MOL0     H18723   1.961   0.440   5.480 -0.4199 -2.3882  1.9658
  142MOL0     H18724   1.755   0.526   5.699  0.3669 -2.1309  1.6935
  142MOL0     H18725   1.822   0.366   5.660  2.0347  1.4730 -0.1765
  142MOL0     H18726   1.821   0.706   6.352 -0.5571 -1.2664 -0.0787
  142MOL0     H18727   1.735   0.671   6.606 -0.5140 -4.5322  0.8880
  142MOL0     H18728   1.982   0.665   7.201  1.6485 -5.0405 -1.7272
  142MOL0     H18729   1.828   0.631   7.395  4.7206 -4.0658 -1.2425
  142MOL0     H18730   0.432   1.325   8.466  0.9286  3.6363  3.1300
  142MOL0     H18731   0.505   1.245   8.668 -0.1709 -0.7195 -0.7346
  142MOL0     H18732   0.875   1.278   8.941  0.2451 -0.3114  0.7484
  142MOL0     H18733   1.056   1.307   9.092  3.8881  0.9989 -2.2262
  142MOL0     H18734   1.288   1.345   9.168  0.4892 -0.1668 -0.1332
  142MOL0     H18735   1.372   1.250   9.043  1.0460  1.5543 -0.0168
  142MOL0     H18736   1.503   1.135   9.231  2.2895  0.7346  0.7086
  142MOL0     H18737   1.521   1.295   9.225 -1.0708 -0.6229 -2.1435
  142MOL0     H18738   1.286   1.204   9.409 -1.1654  0.1327  1.6152
  142MOL0     H18739   1.377   1.360   9.388  1.3303 -0.4753 -1.9507
  142MOL0     H18740   1.550   1.296   9.529  1.7419 -1.5291  3.4392
  142MOL0     H18741   1.417   1.220   9.594  0.6160 -0.2904  0.4994
  142MOL0     H18742   1.615   0.869   9.453 -0.4483 -0.2473  0.7546
  142MOL0     H18743   1.192   0.917   9.051 -1.0384 -2.8888 -1.2062
  142MOL0     H18744   1.032   0.887   8.853 -1.5446  1.0387 -0.8721
  143MOL0     O18745   3.896   7.941   8.165 -0.8815 -0.0194 -0.5783
  143MOL0     C18746   3.884   8.001   8.267  0.2364  0.2184 -0.2528
  143MOL0     O18747   3.964   8.106   8.306 -0.1283  1.2859  0.0360
  143MOL0     C18748   4.086   8.112   8.243 -0.5982 -0.9840  0.9231
  143MOL0     C18749   4.132   8.222   8.170  0.7870  0.7364 -0.3249
  143MOL0     C18750   4.248   8.223   8.099 -0.4409  0.5150  0.8212
  143MOL0     C18751   4.326   8.112   8.086 -0.1772  0.7347 -0.5407
  143MOL0     O18752   4.442   8.112   8.015 -0.1222  0.1626 -0.6556
  143MOL0     C18753   4.449   8.197   7.894  0.7743 -0.0715 -0.9121
  143MOL0     C18754   4.590   8.157   7.831 -0.0561  0.5965  0.2170
  143MOL0     C18755   4.596   8.215   7.693  0.4883 -0.6684 -0.3263
  143MOL0     C18756   4.725   8.175   7.628  1.1915  0.8653  0.0671
  143MOL0     C18757   4.724   8.236   7.490  0.5316  0.3180  0.2525
  143MOL0     C18758   4.766   8.382   7.479  0.4139  0.1306 -0.6861
  143MOL0     C18759   4.775   8.405   7.328  0.3851  0.4489  0.8469
  143MOL0     C18760   4.830   8.544   7.287 -0.3005 -0.7763  0.5261
  143MOL0     N18761   4.832   8.573   7.142 -0.6803  0.6750 -0.5179
  143MOL0     C18762   4.936   8.515   7.080 -0.3275  0.1947  0.2162
  143MOL0     C18763   4.914   8.553   6.954  0.5044 -1.3587  0.0734
  143MOL0     C18764   5.005   8.532   6.843  0.2619  0.5739  0.5379
  143MOL0     C18765   5.053   8.389   6.816  0.1538 -0.4976 -0.3252
  143MOL0     C18766   5.081   8.359   6.668  0.3409  0.2964  0.2602
  143MOL0     C18767   5.140   8.218   6.656  0.5386  0.7542 -0.6849
  143MOL0     O18768   5.255   8.197   6.743  0.4878 -0.3644  0.2866
  143MOL0     C18769   5.363   8.141   6.682 -0.9454  0.6287  0.0836
  143MOL0     C18770   5.346   8.013   6.613 -0.1975 -0.2336 -0.9054
  143MOL0     C18771   5.452   7.961   6.550 -1.3184  0.0537 -0.0584
  143MOL0     C18772   5.576   8.029   6.546 -1.7427  0.4158 -0.5853
  143MOL0     C18773   5.691   7.977   6.470 -0.1408  0.0672 -0.4229
  143MOL0     O18774   5.658   7.980   6.331  0.7944 -0.5462  0.4826
  143MOL0     C18775   5.770   7.982   6.258  0.5060 -0.2565 -0.1351
  143MOL0     C18776   5.830   8.100   6.205  0.1257  0.4018 -0.6289
  143MOL0     C18777   5.947   8.099   6.123 -0.4561  0.0180  0.6318
  143MOL0     C18778   6.001   7.978   6.095 -0.5366  1.0347  0.0913
  143MOL0     O18779   6.107   7.962   6.016 -0.6899 -0.0554  0.0893
  143MOL0     C18780   6.198   8.080   6.011  1.0515 -1.6315  0.3782
  143MOL0     C18781   6.316   8.040   5.943 -0.5082  0.4825  0.0478
  143MOL0     C18782   6.383   7.925   6.017  0.5736 -0.8025  0.1912
  143MOL0     C18783   6.487   7.865   5.928 -0.5919 -0.0184 -0.4299
  143MOL0     C18784   6.528   7.720   5.981 -0.0200 -0.2153 -0.0239
  143MOL0     C18785   6.659   7.679   5.920 -0.8062 -0.4081  0.1587
  143MOL0     C18786   6.733   7.563   5.993 -0.3009  0.3045 -0.0316
  143MOL0     C18787   6.818   7.477   5.896  0.1598 -0.2155 -0.8475
  143MOL0    Cl18788   6.970   7.549   5.847  0.1774  0.4396 -0.2280
  143MOL0     C18789   5.951   7.860   6.145  0.5973 -1.0707 -0.5015
  143MOL0     C18790   5.830   7.861   6.219 -0.6923  0.5286 -1.3426
  143MOL0     O18791   5.801   7.981   6.524 -0.8071  0.7411 -0.1891
  143MOL0     C18792   5.590   8.148   6.620 -0.1248  0.5610  0.2590
  143MOL0     C18793   5.487   8.206   6.690 -0.0836 -0.2311  0.0077
  143MOL0     N18794   4.798   8.627   6.948  0.3825 -0.2057  0.2950
  143MOL0     N18795   4.741   8.638   7.061 -0.6032  0.9729 -0.4789
  143MOL0     C18796   4.297   8.005   8.169 -0.2791  0.8988 -0.7083
  143MOL0     C18797   4.173   8.000   8.241  0.0420 -0.2328 -0.8587
  143MOL0     C18798   3.789   7.947   8.373 -0.4556 -0.4302  0.1749
  143MOL0     C18799   3.738   8.025   8.481  0.9375 -0.3479 -0.6663
  143MOL0     C18800   3.644   7.961   8.570 -0.7030 -0.6266  0.1246
  143MOL0     C18801   3.601   7.834   8.564 -0.4280  0.3532  0.3296
  143MOL0     O18802   3.527   7.773   8.660  0.6535 -0.2776  0.0193
  143MOL0     C18803   3.522   7.631   8.658 -0.2090 -0.1359 -0.2165
  143MOL0     C18804   3.415   7.601   8.760 -0.3440 -1.2534 -0.1247
  143MOL0     C18805   3.274   7.632   8.705  0.1550 -0.1518  0.3588
  143MOL0     C18806   3.172   7.601   8.813  0.8061  0.6253 -0.5033
  143MOL0     C18807   3.047   7.661   8.774 -0.5397  0.4482  0.2518
  143MOL0     C18808   2.941   7.710   8.759  0.0930 -0.2980  0.3227
  143MOL0     C18809   3.632   7.770   8.442 -0.5352 -0.3989  1.1458
  143MOL0     C18810   3.722   7.826   8.351 -0.1912 -0.2982 -0.6049
  143MOL0     H18811   4.072   8.312   8.157 -1.5334 -0.3360  2.1080
  143MOL0     H18812   4.269   8.316   8.048  3.9307 -1.2293 -1.0904
  143MOL0     H18813   4.470   8.303   7.916  2.4130 -0.5070 -0.1869
  143MOL0     H18814   4.359   8.187   7.833 -0.7046 -0.2482  1.1896
  143MOL0     H18815   4.601   8.049   7.817  2.0696  0.7407  0.4784
  143MOL0     H18816   4.675   8.180   7.896  0.0226 -1.4098  0.8757
  143MOL0     H18817   4.581   8.324   7.694 -0.8951 -0.8152 -1.5402
  143MOL0     H18818   4.516   8.163   7.640 -0.9425  0.4557  0.6609
  143MOL0     H18819   4.805   8.219   7.689  0.2965  0.4819  1.5554
  143MOL0     H18820   4.720   8.067   7.612  0.6835  1.3873 -5.7169
  143MOL0     H18821   4.628   8.236   7.437  1.4229  2.8941 -1.5214
  143MOL0     H18822   4.786   8.168   7.430  0.4785  3.0409 -3.2171
  143MOL0     H18823   4.859   8.402   7.532  0.6100 -0.7255 -0.6818
  143MOL0     H18824   4.688   8.441   7.527 -0.0638 -0.3784 -0.8312
  143MOL0     H18825   4.838   8.331   7.279 -2.2182 -2.7085  1.8987
  143MOL0     H18826   4.672   8.403   7.291  0.9337  2.4359 -0.9717
  143MOL0     H18827   4.925   8.557   7.340 -0.0236 -3.7111  0.8886
  143MOL0     H18828   4.773   8.623   7.338 -0.1744  1.2710 -2.2701
  143MOL0     H18829   5.021   8.455   7.113  0.3960  1.2055  0.2506
  143MOL0     H18830   5.088   8.599   6.867  1.6536 -0.7388 -0.3546
  143MOL0     H18831   4.961   8.564   6.748  0.1105 -1.4827 -0.1321
  143MOL0     H18832   4.985   8.315   6.859 -1.8786 -0.8761 -3.8002
  143MOL0     H18833   5.145   8.379   6.874 -0.0089  2.5202  0.6849
  143MOL0     H18834   4.984   8.364   6.617 -0.5865 -1.7992  1.6957
  143MOL0     H18835   5.144   8.426   6.609 -0.6397 -0.2873 -1.5212
  143MOL0     H18836   5.171   8.193   6.554 -2.2433 -3.2059 -0.7913
  143MOL0     H18837   5.061   8.153   6.696  1.4433  1.7757  3.1844
  143MOL0     H18838   5.249   7.968   6.600 -0.7557  1.2612 -2.2077
  143MOL0     H18839   5.449   7.861   6.508  1.1074 -1.1541  2.2817
  143MOL0     H18840   5.775   8.193   6.218 -2.5021 -1.1333  0.1171
  143MOL0     H18841   5.988   8.194   6.091 -1.5076  0.7645  1.4147
  143MOL0     H18842   6.217   8.105   6.116 -1.1096 -0.9280  0.6476
  143MOL0     H18843   6.159   8.164   5.954  2.3187 -1.2543  0.0424
  143MOL0     H18844   6.391   8.117   5.927  1.5552 -1.4510 -0.0373
  143MOL0     H18845   6.281   8.005   5.846 -3.5944 -0.0234  1.2301
  143MOL0     H18846   6.306   7.858   6.058 -1.5518  0.5916 -1.3268
  143MOL0     H18847   6.424   7.963   6.110 -0.7585 -0.2828  0.5924
  143MOL0     H18848   6.439   7.858   5.830  2.4656  4.4453 -2.6158
  143MOL0     H18849   6.565   7.942   5.930 -1.5400  1.0545  3.3718
  143MOL0     H18850   6.449   7.645   5.975 -0.0350 -0.0701 -4.0527
  143MOL0     H18851   6.553   7.738   6.087 -2.6147  2.1867  0.2955
  143MOL0     H18852   6.721   7.768   5.930 -0.5896 -0.3961 -1.0795
  143MOL0     H18853   6.641   7.645   5.817  0.7932 -2.8432  0.5834
  143MOL0     H18854   6.796   7.604   6.074 -1.5938  0.9166  0.7006
  143MOL0     H18855   6.655   7.513   6.051 -0.1391  0.7339  0.5837
  143MOL0     H18856   6.764   7.457   5.803 -0.0914  1.3783 -1.0900
  143MOL0     H18857   6.868   7.396   5.950  1.2034  2.2870  2.3089
  143MOL0     H18858   5.994   7.765   6.115 -0.5408 -1.5655 -0.6019
  143MOL0     H18859   5.795   7.765   6.255  3.3341 -0.3747  0.7427
  143MOL0     H18860   5.679   8.209   6.610 -0.9143  2.1415  2.1987
  143MOL0     H18861   5.493   8.292   6.755 -1.2535 -0.3190  0.2654
  143MOL0     H18862   4.374   7.930   8.184 -1.8477 -0.6921 -0.2391
  143MOL0     H18863   4.148   7.916   8.304 -0.4875  0.1966 -0.4927
  143MOL0     H18864   3.778   8.125   8.495 -2.2712  0.7945  1.3299
  143MOL0     H18865   3.611   8.029   8.648 -3.0789 -1.4159 -0.1231
  143MOL0     H18866   3.607   7.574   8.697 -1.0584 -0.2784  1.4851
  143MOL0     H18867   3.486   7.593   8.561 -1.7598  1.9369 -0.5235
  143MOL0     H18868   3.410   7.494   8.781 -1.9654 -1.7505 -2.5156
  143MOL0     H18869   3.445   7.651   8.852  1.9166  2.6420 -2.6632
  143MOL0     H18870   3.254   7.583   8.609  0.3158 -1.0603  0.7870
  143MOL0     H18871   3.261   7.738   8.681 -0.8291 -0.3315  0.0448
  143MOL0     H18872   3.159   7.494   8.829 -1.5460  0.8773 -0.2952
  143MOL0     H18873   3.193   7.647   8.910 -1.3228 -0.7281  0.6858
  143MOL0     H18874   2.851   7.766   8.745 -0.2430 -1.0742 -0.7642
  143MOL0     H18875   3.606   7.669   8.412 -0.1910 -0.3060  0.5315
  143MOL0     H18876   3.744   7.768   8.262 -0.2466 -0.9572 -0.1934
  144MOL0     O18877   8.655   6.859   4.367  0.2380  0.9467 -0.0877
  144MOL0     C18878   8.729   6.807   4.279  0.2360 -0.1335 -0.3362
  144MOL0     O18879   8.809   6.691   4.280  0.7553 -0.6827  0.2974
  144MOL0     C18880   8.800   6.598   4.382 -0.3551  0.9792 -0.8245
  144MOL0     C18881   8.697   6.503   4.385 -0.9888  0.6770 -0.6714
  144MOL0     C18882   8.679   6.412   4.492 -0.4583  0.6709 -0.7822
  144MOL0     C18883   8.768   6.416   4.603 -0.1363 -1.2381  0.1090
  144MOL0     O18884   8.752   6.352   4.716 -0.6484  0.6206  0.4756
  144MOL0     C18885   8.748   6.429   4.834  0.1829  0.0579  0.1897
  144MOL0     C18886   8.614   6.511   4.844  0.0500  0.3086 -0.4085
  144MOL0     C18887   8.642   6.621   4.956  0.0646 -0.1230  0.3998
  144MOL0     C18888   8.534   6.729   4.980  0.6703 -0.6419  0.1570
  144MOL0     C18889   8.504   6.804   4.853 -0.1780  0.5732 -0.3621
  144MOL0     C18890   8.453   6.950   4.885  0.9631  1.4640  0.3741
  144MOL0     C18891   8.478   7.054   4.783 -0.2267 -0.5011 -0.1429
  144MOL0     C18892   8.351   7.076   4.686 -1.1616 -0.1609 -0.6835
  144MOL0     N18893   8.297   6.958   4.622 -0.5021  0.0628 -0.0254
  144MOL0     C18894   8.344   6.901   4.506 -0.2723  0.2951 -0.8931
  144MOL0     C18895   8.262   6.797   4.478  0.0376  0.8824 -0.9808
  144MOL0     C18896   8.288   6.682   4.388 -0.0718  0.0385  0.2549
  144MOL0     C18897   8.375   6.567   4.462 -0.1930  0.7102  0.3469
  144MOL0     C18898   8.292   6.487   4.574  0.1930  0.0938 -0.1482
  144MOL0     C18899   8.272   6.342   4.536 -0.3160 -0.5380 -0.4608
  144MOL0     O18900   8.186   6.265   4.612 -0.4294 -0.1611  0.3529
  144MOL0     C18901   8.226   6.196   4.724  0.3415  0.1999 -0.9222
  144MOL0     C18902   8.128   6.105   4.771 -0.2303  0.0567  0.5577
  144MOL0     C18903   8.135   6.048   4.895 -0.7916  0.9159 -0.8286
  144MOL0     C18904   8.251   6.066   4.973 -0.3909  0.3145 -0.7039
  144MOL0     C18905   8.264   6.006   5.100  0.1463  0.3789 -0.7235
  144MOL0     O18906   8.145   5.973   5.161 -0.4951  0.1849  0.0857
  144MOL0     C18907   8.157   5.878   5.258  0.9087 -0.2939 -0.2395
  144MOL0     C18908   8.114   5.753   5.219  0.2961 -0.9204 -0.5043
  144MOL0     C18909   8.117   5.648   5.309 -0.7923  0.4616  1.0246
  144MOL0     C18910   8.177   5.670   5.432  1.0229  0.9029 -1.4069
  144MOL0     O18911   8.184   5.564   5.525 -0.0243 -0.1328 -0.0116
  144MOL0     C18912   8.056   5.502   5.546  0.4174  0.2283 -0.5236
  144MOL0     C18913   8.036   5.435   5.683  0.0543  0.2452  0.6169
  144MOL0     C18914   8.027   5.529   5.792 -0.5819 -0.9189  0.5936
  144MOL0     C18915   8.059   5.438   5.915  1.0705 -0.2270  0.3354
  144MOL0     C18916   8.036   5.517   6.044 -1.2080 -0.8318  0.0767
  144MOL0     C18917   7.892   5.515   6.087  0.3239  0.3212 -0.1747
  144MOL0     C18918   7.865   5.568   6.231  0.5213  0.4019 -0.0228
  144MOL0     C18919   7.726   5.627   6.254  0.4413 -0.9941 -0.2261
  144MOL0    Cl18920   7.695   5.768   6.163 -0.2149 -0.5004 -0.0185
  144MOL0     C18921   8.227   5.792   5.468  0.0317  0.3714  0.9676
  144MOL0     C18922   8.222   5.899   5.382 -0.1139 -0.6262 -0.6849
  144MOL0     O18923   8.377   5.992   5.146  0.0850  0.0202 -0.2509
  144MOL0     C18924   8.368   6.139   4.915  0.5370  1.5605  0.3435
  144MOL0     C18925   8.344   6.204   4.791  0.0455  1.1152 -0.5599
  144MOL0     N18926   8.162   6.797   4.578  0.0418  0.0763  0.1827
  144MOL0     N18927   8.181   6.897   4.658  0.2718  1.0766  0.8508
  144MOL0     C18928   8.890   6.505   4.586  0.2394 -0.2377 -0.3132
  144MOL0     C18929   8.897   6.600   4.479  0.7092 -0.4231  0.1707
  144MOL0     C18930   8.729   6.881   4.158  0.5532 -0.2904  1.0751
  144MOL0     C18931   8.612   6.933   4.108 -1.0232  0.6100 -0.6886
  144MOL0     C18932   8.612   7.032   4.002  0.0856  0.2749  0.2491
  144MOL0     C18933   8.739   7.081   3.952 -0.6434 -0.4986 -0.5274
  144MOL0     O18934   8.762   7.171   3.842  0.1999  0.4766  0.1053
  144MOL0     C18935   8.654   7.218   3.763  0.7043  0.6964  0.3241
  144MOL0     C18936   8.693   7.346   3.687  0.8619 -0.5126 -0.5899
  144MOL0     C18937   8.802   7.323   3.583 -0.4179  0.4971  0.7334
  144MOL0     C18938   8.828   7.460   3.530 -0.1162 -0.5287  0.3829
  144MOL0     C18939   8.939   7.459   3.435  0.1536  0.3073 -0.8495
  144MOL0     C18940   9.028   7.465   3.343 -0.7070 -0.5230 -0.8279
  144MOL0     C18941   8.858   7.021   4.006  0.2431  0.1246  0.5395
  144MOL0     C18942   8.850   6.928   4.105  0.5513  0.0910 -0.4807
  144MOL0     H18943   8.638   6.493   4.294  1.1937 -3.6550 -1.9032
  144MOL0     H18944   8.597   6.343   4.473  0.7256  0.2929 -5.6720
  144MOL0     H18945   8.839   6.484   4.858  0.0347  0.3872  0.0041
  144MOL0     H18946   8.758   6.348   4.907  0.7109 -0.2128 -0.1775
  144MOL0     H18947   8.536   6.446   4.884  1.1688  0.4901  2.2475
  144MOL0     H18948   8.595   6.550   4.743  0.6180 -3.0682 -1.9521
  144MOL0     H18949   8.733   6.669   4.918  0.5157 -1.2611  0.0018
  144MOL0     H18950   8.660   6.570   5.052  0.9764 -3.7542 -1.5085
  144MOL0     H18951   8.442   6.693   5.028  1.1856 -1.4902  0.5281
  144MOL0     H18952   8.572   6.793   5.060  0.1083  0.8634 -0.7196
  144MOL0     H18953   8.423   6.751   4.802 -3.0274  1.5019  2.8277
  144MOL0     H18954   8.592   6.803   4.787 -0.9821 -4.5621 -1.8144
  144MOL0     H18955   8.493   6.967   4.985  1.7964  0.2511  0.2728
  144MOL0     H18956   8.345   6.949   4.905  1.1591  3.1211  1.7193
  144MOL0     H18957   8.509   7.148   4.830  0.3313 -0.6626 -0.1873
  144MOL0     H18958   8.555   7.011   4.718 -1.8718  0.6394 -3.0581
  144MOL0     H18959   8.357   7.161   4.618 -1.7080  1.3817  1.1226
  144MOL0     H18960   8.280   7.098   4.766  0.8301 -1.6120  1.6461
  144MOL0     H18961   8.443   6.911   4.460 -0.1995 -2.1428 -1.3978
  144MOL0     H18962   8.350   6.727   4.310 -2.5085  3.5996  0.1453
  144MOL0     H18963   8.191   6.646   4.351  0.3543 -0.1216 -0.7370
  144MOL0     H18964   8.447   6.627   4.518 -3.2808  1.8351  3.5392
  144MOL0     H18965   8.418   6.488   4.400 -3.8951 -3.6493  2.7400
  144MOL0     H18966   8.335   6.497   4.674  0.0473 -0.4392 -0.0324
  144MOL0     H18967   8.195   6.539   4.578  0.1402  0.3225 -2.8542
  144MOL0     H18968   8.372   6.299   4.545 -0.9044 -1.7278  0.8366
  144MOL0     H18969   8.248   6.332   4.430 -2.7069 -1.1956  0.0902
  144MOL0     H18970   8.038   6.101   4.709 -0.8619 -1.2547  1.5047
  144MOL0     H18971   8.060   5.979   4.932 -1.6763  1.6345 -1.2199
  144MOL0     H18972   8.076   5.740   5.118  0.9422 -0.8832 -0.7561
  144MOL0     H18973   8.087   5.544   5.298 -3.0278  1.1795 -0.4492
  144MOL0     H18974   8.049   5.427   5.466  1.1028  1.9992 -2.3269
  144MOL0     H18975   7.981   5.579   5.526  0.2445  0.2950  0.3649
  144MOL0     H18976   8.119   5.363   5.690 -0.7301 -0.8282 -0.5964
  144MOL0     H18977   7.941   5.381   5.676 -2.5424  4.5983 -1.8769
  144MOL0     H18978   7.924   5.566   5.800 -0.5017 -0.4229 -0.4707
  144MOL0     H18979   8.089   5.617   5.773 -0.1073 -1.0804  1.3445
  144MOL0     H18980   7.993   5.352   5.927  1.7737 -0.9295 -0.6947
  144MOL0     H18981   8.163   5.406   5.908  0.7200 -1.0802 -1.4189
  144MOL0     H18982   8.073   5.619   6.031 -1.8470 -0.2779  2.2365
  144MOL0     H18983   8.091   5.470   6.126  0.5337 -2.9646 -2.1508
  144MOL0     H18984   7.870   5.408   6.076  1.2233  0.0631  0.3830
  144MOL0     H18985   7.839   5.570   6.009 -0.5191  2.3353  1.6999
  144MOL0     H18986   7.889   5.483   6.297  1.6374  0.9133  0.2708
  144MOL0     H18987   7.939   5.643   6.260  0.2014 -0.1164  2.3861
  144MOL0     H18988   7.729   5.656   6.359  2.4785  0.8235 -0.7101
  144MOL0     H18989   7.648   5.550   6.247  3.0356 -3.8935  0.2675
  144MOL0     H18990   8.274   5.807   5.565  2.1208  0.9742 -0.0840
  144MOL0     H18991   8.266   5.990   5.420  1.7952 -2.1804  1.0772
  144MOL0     H18992   8.469   6.140   4.957  0.9790 -2.1721 -0.2920
  144MOL0     H18993   8.430   6.264   4.761  5.1877 -3.5045  3.0455
  144MOL0     H18994   8.968   6.509   4.662 -0.1398 -0.6356  0.1034
  144MOL0     H18995   8.952   6.693   4.489  0.5623 -0.5478  3.2650
  144MOL0     H18996   8.520   6.902   4.157 -0.6088 -0.5578 -0.6263
  144MOL0     H18997   8.520   7.073   3.961  0.1094 -2.0118 -2.3938
  144MOL0     H18998   8.567   7.234   3.828 -0.6489 -1.3033 -0.8901
  144MOL0     H18999   8.624   7.146   3.686  0.2024  1.3337 -0.0931
  144MOL0     H19000   8.605   7.379   3.632  0.7570  2.1435  0.9755
  144MOL0     H19001   8.721   7.425   3.757 -0.9483 -0.5904  0.2634
  144MOL0     H19002   8.759   7.272   3.496 -3.1974  1.7061  1.3031
  144MOL0     H19003   8.890   7.273   3.624  0.2275  2.1989  1.5170
  144MOL0     H19004   8.737   7.506   3.490  0.5525 -0.8313 -1.6130
  144MOL0     H19005   8.859   7.527   3.611  2.2881 -1.4461  0.2937
  144MOL0     H19006   9.093   7.462   3.258  1.0972  0.2395  0.4470
  144MOL0     H19007   8.947   7.072   3.969  1.7096 -2.1192  0.8097
  144MOL0     H19008   8.944   6.900   4.153  0.6826 -2.7595 -2.1479
  145MOL0     O19009   6.946   6.473  10.618  0.7243 -0.0264  0.1347
  145MOL0     C19010   6.947   6.578  10.682  0.9132  0.3792 -0.3271
  145MOL0     O19011   7.067   6.644  10.717  0.1528  0.8727 -0.4387
  145MOL0     C19012   7.181   6.584  10.678 -0.5367  0.0827 -0.2418
  145MOL0     C19013   7.224   6.456  10.731 -0.4480 -0.2548 -0.1128
  145MOL0     C19014   7.340   6.397  10.692 -1.1705 -0.7952 -0.3478
  145MOL0     C19015   7.424   6.466  10.605  0.1074  0.8251  0.8497
  145MOL0     O19016   7.546   6.414  10.584  0.5757  0.3161  0.4504
  145MOL0     C19017   7.659   6.508  10.582 -0.0564  0.0965  0.1968
  145MOL0     C19018   7.770   6.446  10.523  0.4659  0.5893  0.1064
  145MOL0     C19019   7.827   6.324  10.605  0.4453 -0.9918 -0.1935
  145MOL0     C19020   7.945   6.257  10.539 -0.1847  0.5016  1.0953
  145MOL0     C19021   8.010   6.132  10.604  0.9777 -0.1367  0.9096
  145MOL0     C19022   7.931   6.005  10.562  0.4261 -1.0988  0.1091
  145MOL0     C19023   7.937   5.979  10.416  0.4542 -0.1579 -0.4364
  145MOL0     C19024   8.081   5.949  10.363  0.0909 -0.2618  0.3663
  145MOL0     N19025   8.144   6.064  10.303 -0.9181  0.3372  0.0717
  145MOL0     C19026   8.102   6.147  10.204 -0.3875 -0.4574  0.2214
  145MOL0     C19027   8.213   6.222  10.170  0.4609 -0.6260  0.1175
  145MOL0     C19028   8.231   6.327  10.062 -0.2308  0.4651  0.4551
  145MOL0     C19029   8.239   6.280   9.912  0.2150  1.2732  0.3355
  145MOL0     C19030   8.318   6.160   9.893 -0.1306  0.1681  0.4041
  145MOL0     C19031   8.470   6.179   9.931  0.3478  0.7359 -0.3388
  145MOL0     O19032   8.565   6.078   9.884  0.6945 -0.3073 -0.0598
  145MOL0     C19033   8.566   5.953   9.927 -0.7733  1.6046 -0.1550
  145MOL0     C19034   8.485   5.903  10.032 -0.5234  0.1100 -0.3108
  145MOL0     C19035   8.488   5.763  10.065 -0.6318  0.0462  0.8002
  145MOL0     C19036   8.570   5.674   9.990 -0.0098 -0.3216  0.0637
  145MOL0     C19037   8.548   5.535  10.004 -0.3037 -0.0718 -0.3218
  145MOL0     O19038   8.565   5.446   9.907  1.1265 -0.7227  0.3066
  145MOL0     C19039   8.523   5.318   9.935  0.5086 -0.0934  0.0333
  145MOL0     C19040   8.568   5.236  10.038 -1.0421  0.0341  1.3639
  145MOL0     C19041   8.517   5.103  10.051  0.3750 -0.0639 -0.4751
  145MOL0     C19042   8.422   5.053   9.958 -0.4859 -0.6518 -1.0849
  145MOL0     O19043   8.355   4.933   9.964  0.2377  0.0987  0.1840
  145MOL0     C19044   8.412   4.819  10.027 -0.1531  0.9164 -0.0057
  145MOL0     C19045   8.324   4.691  10.018 -1.0134  0.3224 -0.3160
  145MOL0     C19046   8.414   4.576  10.088  0.3721  0.0286  1.3178
  145MOL0     C19047   8.375   4.434  10.064 -0.4796  0.0742 -0.2197
  145MOL0     C19048   8.276   4.389  10.164 -0.1293 -0.0395  0.1433
  145MOL0     C19049   8.237   4.260  10.116 -0.3681  0.1278  0.3218
  145MOL0     C19050   8.122   4.197  10.191 -0.1665  1.0968 -0.2890
  145MOL0     C19051   8.089   4.057  10.145 -0.3097 -0.5048 -0.3750
  145MOL0    Cl19052   8.012   4.072   9.981  0.0030 -0.3614  0.4988
  145MOL0     C19053   8.378   5.137   9.852 -0.8795 -0.7510 -0.6983
  145MOL0     C19054   8.428   5.268   9.844  0.6252 -0.6475  0.3141
  145MOL0     O19055   8.541   5.509  10.124 -0.0378  0.3787  0.0143
  145MOL0     C19056   8.659   5.737   9.895  0.1921 -0.2217 -0.7761
  145MOL0     C19057   8.661   5.874   9.870 -0.0436  0.5155  0.3259
  145MOL0     N19058   8.317   6.190  10.258 -0.0455 -0.8108  1.2830
  145MOL0     N19059   8.276   6.097  10.324  0.0964 -0.5110  0.2917
  145MOL0     C19060   7.378   6.593  10.556 -0.8186 -0.2157 -0.4829
  145MOL0     C19061   7.262   6.644  10.587  0.2282 -0.4563  0.1492
  145MOL0     C19062   6.806   6.639  10.721 -0.0214 -0.1546 -0.3478
  145MOL0     C19063   6.798   6.745  10.807  1.6763 -0.0711  0.1454
  145MOL0     C19064   6.675   6.812  10.838  0.0468 -0.6284  0.4984
  145MOL0     C19065   6.558   6.765  10.782  1.1945  0.6838 -0.1394
  145MOL0     O19066   6.435   6.810  10.812 -0.4711  0.5572 -0.2040
  145MOL0     C19067   6.406   6.917  10.896 -0.6143 -0.7729  1.3082
  145MOL0     C19068   6.260   6.906  10.925  0.2915  0.0659 -1.2384
  145MOL0     C19069   6.222   7.040  10.988 -0.8289 -0.1813 -0.7408
  145MOL0     C19070   6.109   7.117  10.921  0.2493 -0.8658 -0.0996
  145MOL0     C19071   5.972   7.074  10.965  0.3843 -0.4425  0.3635
  145MOL0     C19072   5.856   7.043  10.996  0.0326  0.9570  1.1099
  145MOL0     C19073   6.559   6.637  10.718  0.7304 -0.2504  1.3290
  145MOL0     C19074   6.683   6.588  10.682  0.5295 -0.1489 -0.1854
  145MOL0     H19075   7.150   6.406  10.794 -1.8496 -0.0247 -1.5221
  145MOL0     H19076   7.364   6.293  10.712  1.4858 -0.8340 -2.9998
  145MOL0     H19077   7.680   6.565  10.672  0.1805  0.5990 -0.1682
  145MOL0     H19078   7.643   6.576  10.497 -0.6936 -0.7929 -0.4188
  145MOL0     H19079   7.860   6.507  10.505  2.4044 -2.1803 -0.3790
  145MOL0     H19080   7.747   6.399  10.426  0.3454 -3.7534  2.0059
  145MOL0     H19081   7.749   6.248  10.613 -0.7513 -0.1764 -2.8155
  145MOL0     H19082   7.861   6.360  10.702  3.4355 -2.3239 -0.6262
  145MOL0     H19083   7.931   6.258  10.430  0.3125 -1.3503  0.9748
  145MOL0     H19084   8.031   6.324  10.540  0.6211 -0.5001  1.0503
  145MOL0     H19085   8.015   6.137  10.713 -3.1935 -0.9807  1.3117
  145MOL0     H19086   8.111   6.126  10.562 -0.1058 -3.5355 -1.6323
  145MOL0     H19087   7.828   6.005  10.598  1.5644 -4.2694  4.1474
  145MOL0     H19088   7.978   5.920  10.612 -0.0962 -0.0432  2.5493
  145MOL0     H19089   7.880   5.886  10.411 -2.2957  1.1931  2.2528
  145MOL0     H19090   7.888   6.058  10.360 -1.3453  0.4506  1.8265
  145MOL0     H19091   8.077   5.869  10.288 -0.5883 -0.4216  0.5587
  145MOL0     H19092   8.156   5.906  10.430  3.4439  0.0397 -2.8815
  145MOL0     H19093   8.002   6.152  10.161 -1.1604  0.7728  2.0069
  145MOL0     H19094   8.320   6.384  10.089  0.7586 -1.6266  1.9047
  145MOL0     H19095   8.140   6.388  10.060 -3.0797 -3.3627  1.7801
  145MOL0     H19096   8.262   6.366   9.850 -1.1787  1.5665  0.2010
  145MOL0     H19097   8.137   6.259   9.879  0.5789  1.7229 -1.1203
  145MOL0     H19098   8.275   6.067   9.930 -1.3156  0.7813  0.6179
  145MOL0     H19099   8.315   6.154   9.784  2.2915  3.1935  0.0220
  145MOL0     H19100   8.465   6.173  10.040 -1.3307 -1.4460 -0.4698
  145MOL0     H19101   8.503   6.273   9.886  1.7938 -0.5569 -2.1757
  145MOL0     H19102   8.407   5.960  10.080 -0.1311  0.4368 -0.0563
  145MOL0     H19103   8.413   5.729  10.136  0.7308  0.2826  2.4128
  145MOL0     H19104   8.645   5.268  10.108  1.1736 -0.1198 -0.8871
  145MOL0     H19105   8.547   5.051  10.141 -1.6092  1.9600  1.4924
  145MOL0     H19106   8.422   4.846  10.133  0.6048  5.2505 -0.9695
  145MOL0     H19107   8.513   4.811   9.988 -0.1406 -2.4088  0.4634
  145MOL0     H19108   8.309   4.655   9.916 -1.9310 -0.9355  0.2318
  145MOL0     H19109   8.228   4.686  10.070 -0.7289 -0.9283  0.1318
  145MOL0     H19110   8.410   4.594  10.196 -0.7113  0.6668  1.1923
  145MOL0     H19111   8.518   4.583  10.057  0.0958 -1.8080 -0.1992
  145MOL0     H19112   8.347   4.432   9.958  1.9324 -3.7561 -1.0214
  145MOL0     H19113   8.471   4.380  10.067  0.0682  1.0720  0.9998
  145MOL0     H19114   8.195   4.462  10.154  1.0439  1.0024 -3.5465
  145MOL0     H19115   8.324   4.379  10.262  1.7960  2.6751 -0.3889
  145MOL0     H19116   8.328   4.199  10.104 -0.9065 -0.6963  0.3679
  145MOL0     H19117   8.190   4.276  10.019  1.8322  0.8908 -0.6813
  145MOL0     H19118   8.163   4.188  10.292  1.8373 -1.9650 -1.2420
  145MOL0     H19119   8.037   4.265  10.189 -2.2994 -1.4102  0.5182
  145MOL0     H19120   8.015   4.016  10.215 -1.7554 -0.8790 -2.0471
  145MOL0     H19121   8.175   3.989  10.147  0.6253  0.4886 -2.7118
  145MOL0     H19122   8.305   5.097   9.783 -0.0743 -1.6691 -1.0443
  145MOL0     H19123   8.389   5.348   9.782  0.8972 -0.1684  0.7544
  145MOL0     H19124   8.713   5.686   9.815  0.2475 -1.4577  0.0145
  145MOL0     H19125   8.727   5.917   9.796 -0.0881  0.1167  0.0556
  145MOL0     H19126   7.437   6.657  10.491 -1.4021  3.0069  1.9301
  145MOL0     H19127   7.228   6.733  10.535  2.4660 -0.3588 -1.2995
  145MOL0     H19128   6.890   6.790  10.843  1.7044  0.0281 -0.0489
  145MOL0     H19129   6.682   6.913  10.879  0.4505 -0.3462 -0.2511
  145MOL0     H19130   6.426   6.995  10.822 -3.5912 -1.3040 -0.2284
  145MOL0     H19131   6.458   6.936  10.990 -1.1819 -2.3391  1.9861
  145MOL0     H19132   6.191   6.889  10.842 -2.1411 -4.0502  1.2784
  145MOL0     H19133   6.242   6.823  10.995  1.7869  1.9522  1.5877
  145MOL0     H19134   6.303   7.113  10.987 -0.7610 -0.2520 -1.5684
  145MOL0     H19135   6.196   7.023  11.093  2.5713  1.6764  0.5643
  145MOL0     H19136   6.115   7.221  10.953  0.1071 -1.2476  1.2397
  145MOL0     H19137   6.109   7.110  10.812  0.7396 -0.5891 -0.1181
  145MOL0     H19138   5.752   7.034  11.021 -0.0100 -2.8271  0.2114
  145MOL0     H19139   6.466   6.584  10.701  1.6835 -1.3350 -0.8832
  145MOL0     H19140   6.675   6.502  10.616 -4.4299 -0.0781 -0.0894
  146MOL0     O19141   0.252   4.265   3.480 -0.1740 -0.3089 -0.4148
  146MOL0     C19142   0.212   4.237   3.595 -0.5244  0.6812  0.2716
  146MOL0     O19143   0.285   4.163   3.687 -0.0918  0.1425  0.0610
  146MOL0     C19144   0.390   4.096   3.627  0.6458  0.6404  0.4530
  146MOL0     C19145   0.512   4.162   3.599 -0.0850 -0.2078 -0.3565
  146MOL0     C19146   0.618   4.102   3.532 -0.4741 -0.0852  0.0674
  146MOL0     C19147   0.616   3.958   3.521 -0.2205  1.0336  0.3881
  146MOL0     O19148   0.724   3.873   3.478  0.1680 -0.1591  0.4520
  146MOL0     C19149   0.859   3.912   3.491 -0.3189  0.1658  0.0541
  146MOL0     C19150   0.921   3.922   3.342 -0.1622 -0.4992 -0.2180
  146MOL0     C19151   0.981   3.790   3.281  0.4874  0.1006 -0.1814
  146MOL0     C19152   0.876   3.671   3.274 -0.5044 -0.3517 -0.4288
  146MOL0     C19153   0.943   3.560   3.186  0.2833 -1.2242 -0.4467
  146MOL0     C19154   0.874   3.421   3.180  0.2331 -0.7895  0.0402
  146MOL0     C19155   0.923   3.349   3.303 -0.8622  0.2950 -0.7643
  146MOL0     C19156   0.855   3.216   3.327 -0.0596  0.1162  0.2195
  146MOL0     N19157   0.712   3.221   3.351  0.7595  0.1005 -0.0032
  146MOL0     C19158   0.659   3.297   3.456  1.2723  0.5177 -0.1698
  146MOL0     C19159   0.519   3.278   3.435 -1.3779  0.2746 -0.0624
  146MOL0     C19160   0.409   3.315   3.517 -0.4406  0.3653 -0.2466
  146MOL0     C19161   0.363   3.457   3.485 -0.6151 -0.6090 -0.5198
  146MOL0     C19162   0.286   3.543   3.602  1.0500  1.0882 -0.0409
  146MOL0     C19163   0.157   3.485   3.648  1.6413  0.4945  0.8219
  146MOL0     O19164   0.184   3.349   3.695  0.2288  0.8802 -0.0849
  146MOL0     C19165   0.108   3.283   3.787  0.3541  0.2820  0.2204
  146MOL0     C19166   0.171   3.167   3.844  0.3291  1.5196  0.3653
  146MOL0     C19167   0.092   3.085   3.923  0.8103 -0.3450 -0.0737
  146MOL0     C19168  -0.049   3.109   3.946 -1.1884 -0.1576 -0.2817
  146MOL0     C19169  -0.107   3.008   4.029  0.3886  0.1279  0.4386
  146MOL0     O19170  -0.219   3.038   4.100  0.2530  0.5915  0.5074
  146MOL0     C19171  -0.282   2.951   4.189  0.6966  0.3030 -0.0962
  146MOL0     C19172  -0.205   2.887   4.286  0.4371  0.3288 -0.8474
  146MOL0     C19173  -0.273   2.801   4.371  0.1109 -0.4964  0.0174
  146MOL0     C19174  -0.419   2.791   4.377  0.6284 -0.2220  0.2939
  146MOL0     O19175  -0.495   2.709   4.461 -0.2321  0.0771 -0.0948
  146MOL0     C19176  -0.415   2.606   4.526 -0.1097  0.3056 -0.2710
  146MOL0     C19177  -0.514   2.508   4.600  0.7758 -0.3729 -0.3961
  146MOL0     C19178  -0.532   2.527   4.751  0.1926 -0.0471  1.1268
  146MOL0     C19179  -0.409   2.521   4.839  0.9823  0.4420  0.3813
  146MOL0     C19180  -0.325   2.391   4.831 -0.3651 -0.1002  0.8304
  146MOL0     C19181  -0.188   2.390   4.891 -1.0024 -0.7392 -1.7385
  146MOL0     C19182  -0.086   2.294   4.829 -0.1549 -0.8217 -0.3760
  146MOL0     C19183  -0.001   2.368   4.729 -0.5456 -0.8328 -0.6702
  146MOL0    Cl19184  -0.076   2.466   4.584  0.0611 -0.2696  0.1445
  146MOL0     C19185  -0.490   2.860   4.279  0.0050 -0.2563  0.2839
  146MOL0     C19186  -0.426   2.938   4.189 -1.6373  0.1178 -0.2924
  146MOL0     O19187  -0.046   2.906   4.049 -0.6839 -0.9054 -0.6573
  146MOL0     C19188  -0.107   3.225   3.893 -0.9353  0.2761 -0.7128
  146MOL0     C19189  -0.028   3.313   3.817 -0.3199 -0.7500  0.8795
  146MOL0     N19190   0.501   3.186   3.319 -0.3999 -0.4650  0.0365
  146MOL0     N19191   0.616   3.153   3.280 -0.1769  0.5545  0.1149
  146MOL0     C19192   0.501   3.883   3.562 -0.6311  0.6808  0.5244
  146MOL0     C19193   0.387   3.961   3.608 -0.6841 -0.3122  0.2376
  146MOL0     C19194   0.095   4.308   3.639  0.0432 -1.1187  0.1776
  146MOL0     C19195   0.044   4.412   3.574  0.4603 -0.7242  0.3286
  146MOL0     C19196  -0.051   4.506   3.632 -0.4652 -0.2519  0.3212
  146MOL0     C19197  -0.106   4.484   3.756  0.4899 -0.9199 -0.2230
  146MOL0     O19198  -0.207   4.547   3.824 -0.4048 -0.2392  0.0879
  146MOL0     C19199  -0.262   4.667   3.762  1.1553 -0.2478 -0.3908
  146MOL0     C19200  -0.163   4.786   3.781  0.4327 -0.5742 -0.5493
  146MOL0     C19201  -0.159   4.828   3.929 -0.8594  0.9078  0.2201
  146MOL0     C19202  -0.068   4.948   3.970 -0.5730  1.0592 -0.6899
  146MOL0     C19203  -0.119   5.029   4.087  0.7109  0.2499  0.5103
  146MOL0     C19204  -0.138   5.101   4.176  0.1081 -0.0904  0.0027
  146MOL0     C19205  -0.068   4.362   3.808 -0.8002 -0.0540 -0.0138
  146MOL0     C19206   0.037   4.274   3.758 -0.9924  0.0689 -0.4058
  146MOL0     H19207   0.509   4.267   3.625 -2.0455 -0.0666 -0.9929
  146MOL0     H19208   0.708   4.150   3.495 -1.2394  0.7182 -0.8237
  146MOL0     H19209   0.916   3.846   3.557  0.0139  0.9710  0.5839
  146MOL0     H19210   0.871   4.006   3.545  2.2355  0.0869 -0.2456
  146MOL0     H19211   0.999   3.998   3.338 -0.5875 -0.0390  0.1679
  146MOL0     H19212   0.834   3.952   3.283 -0.1257 -1.3690 -0.7383
  146MOL0     H19213   1.075   3.758   3.328  1.1721 -1.0761 -2.2285
  146MOL0     H19214   1.015   3.815   3.180  2.4595 -0.1457  0.3660
  146MOL0     H19215   0.853   3.625   3.371 -2.9656  2.0901  0.2669
  146MOL0     H19216   0.779   3.700   3.235 -0.7206  4.2249  2.7029
  146MOL0     H19217   1.050   3.553   3.207  0.7460  0.2617 -2.0295
  146MOL0     H19218   0.944   3.592   3.081 -1.6558 -1.7236 -0.6546
  146MOL0     H19219   0.923   3.373   3.095  2.3998 -0.7883  1.2170
  146MOL0     H19220   0.766   3.439   3.183  0.3693  1.3546 -3.0726
  146MOL0     H19221   1.030   3.324   3.306 -1.5119 -2.8728  2.0933
  146MOL0     H19222   0.911   3.415   3.389  4.3297  1.3780 -0.5275
  146MOL0     H19223   0.903   3.178   3.417 -1.7493  2.0142  2.0186
  146MOL0     H19224   0.874   3.160   3.235 -4.4168  1.5217 -1.8181
  146MOL0     H19225   0.700   3.355   3.538  3.5633  1.3091 -1.7724
  146MOL0     H19226   0.435   3.299   3.622  2.6515 -0.1896 -1.0066
  146MOL0     H19227   0.329   3.241   3.504  1.2492 -2.7225  4.4427
  146MOL0     H19228   0.302   3.464   3.395  0.2478  1.2002 -1.0143
  146MOL0     H19229   0.455   3.512   3.464  0.6611 -1.7807  1.6363
  146MOL0     H19230   0.345   3.546   3.694  4.4715 -2.5606 -1.8169
  146MOL0     H19231   0.271   3.647   3.570  3.6627  0.8834 -2.3837
  146MOL0     H19232   0.081   3.479   3.570  0.9758 -0.9126  1.5321
  146MOL0     H19233   0.116   3.544   3.730 -0.8117 -0.7560  0.5966
  146MOL0     H19234   0.274   3.139   3.829  0.0798  1.9801 -3.3129
  146MOL0     H19235   0.147   3.008   3.975  0.9096 -1.2319 -1.4282
  146MOL0     H19236  -0.098   2.898   4.301  0.7140 -1.0076 -1.6904
  146MOL0     H19237  -0.196   2.747   4.425  2.7378  1.0357 -1.9766
  146MOL0     H19238  -0.344   2.647   4.598  0.5247 -2.8448  1.0623
  146MOL0     H19239  -0.362   2.557   4.444  0.3413 -0.0768  0.2430
  146MOL0     H19240  -0.483   2.405   4.585  0.5816 -0.6878  1.1556
  146MOL0     H19241  -0.604   2.526   4.540  0.1660  1.1635  0.8834
  146MOL0     H19242  -0.601   2.451   4.790  3.6510 -3.9601  0.2425
  146MOL0     H19243  -0.572   2.628   4.764  0.1551  0.1796 -0.5555
  146MOL0     H19244  -0.350   2.613   4.841 -0.8381  1.6538  1.0151
  146MOL0     H19245  -0.446   2.515   4.942  2.6937  0.7433  1.0339
  146MOL0     H19246  -0.314   2.369   4.724  0.0898  1.0387  0.6280
  146MOL0     H19247  -0.382   2.306   4.869 -0.3373 -0.1774  0.6993
  146MOL0     H19248  -0.206   2.374   4.997  3.2487 -2.4346 -1.0723
  146MOL0     H19249  -0.145   2.491   4.900 -0.7353 -1.0438  1.8992
  146MOL0     H19250  -0.017   2.249   4.901  0.0743 -1.4735 -0.9892
  146MOL0     H19251  -0.144   2.219   4.775 -1.6442  1.9609 -2.9184
  146MOL0     H19252   0.080   2.311   4.682  1.1503  0.4625  0.5597
  146MOL0     H19253   0.046   2.450   4.785 -2.6942  0.9111 -1.3007
  146MOL0     H19254  -0.597   2.875   4.275  0.3072  2.4026 -0.1610
  146MOL0     H19255  -0.485   2.997   4.120 -1.5025  0.8112  0.1834
  146MOL0     H19256  -0.210   3.245   3.921 -0.6788  1.5398 -0.6339
  146MOL0     H19257  -0.081   3.399   3.777 -3.5048 -3.1126 -0.3867
  146MOL0     H19258   0.508   3.775   3.566 -0.9735  0.6500  0.2685
  146MOL0     H19259   0.305   3.900   3.644  0.7617 -1.8404  1.0721
  146MOL0     H19260   0.079   4.446   3.477 -0.7652 -1.6565 -0.4766
  146MOL0     H19261  -0.081   4.595   3.578 -5.3214 -2.1600 -0.7003
  146MOL0     H19262  -0.361   4.682   3.804  2.2683  0.8330  2.0053
  146MOL0     H19263  -0.282   4.644   3.657 -0.6696  1.5717 -0.5027
  146MOL0     H19264  -0.065   4.761   3.739 -0.6251 -3.1015 -1.7061
  146MOL0     H19265  -0.199   4.873   3.725 -0.7385 -0.2345  0.6932
  146MOL0     H19266  -0.134   4.744   3.994  1.9766  0.5502 -1.1863
  146MOL0     H19267  -0.261   4.858   3.954 -1.1622 -1.3538  1.9550
  146MOL0     H19268   0.035   4.922   3.995 -0.3991  1.2746 -1.1734
  146MOL0     H19269  -0.058   5.014   3.884  0.2165  0.2145 -1.2637
  146MOL0     H19270  -0.163   5.174   4.251  1.6510  0.5556 -0.0789
  146MOL0     H19271  -0.107   4.328   3.903 -0.4292  2.5534  1.1609
  146MOL0     H19272   0.051   4.179   3.809 -0.1363  0.1362 -0.4946
  147MOL0     O19273   3.501  11.259   2.849  0.1338 -0.0884  0.5223
  147MOL0     C19274   3.452  11.366   2.893  0.0913 -0.4027  0.0531
  147MOL0     O19275   3.517  11.478   2.938 -0.2521 -0.3032  0.3514
  147MOL0     C19276   3.640  11.470   2.995 -0.3946 -0.3084 -0.2473
  147MOL0     C19277   3.682  11.591   3.057 -0.2168 -0.9172  0.4863
  147MOL0     C19278   3.805  11.607   3.115 -0.5314 -0.3885  0.3565
  147MOL0     C19279   3.907  11.505   3.108 -1.1605 -1.7029  0.8554
  147MOL0     O19280   4.036  11.501   3.160  0.7480  0.7404  0.7566
  147MOL0     C19281   4.093  11.613   3.220  0.4644 -0.3073 -0.0945
  147MOL0     C19282   4.082  11.615   3.375 -0.1593 -0.4622 -0.0146
  147MOL0     C19283   4.131  11.746   3.435 -0.5145 -0.2825 -0.3448
  147MOL0     C19284   4.031  11.872   3.412 -0.8514 -0.7209  0.2007
  147MOL0     C19285   3.894  11.859   3.476  0.4539  0.0603 -0.5330
  147MOL0     C19286   3.910  11.841   3.623  0.8946  0.3500 -0.5273
  147MOL0     C19287   3.778  11.828   3.712 -0.4063  0.2705 -0.9312
  147MOL0     C19288   3.733  11.682   3.693 -0.4492  0.0960  0.1442
  147MOL0     N19289   3.612  11.649   3.779  0.0689  0.7320 -0.6553
  147MOL0     C19290   3.482  11.704   3.773 -0.2086  0.1628  0.6721
  147MOL0     C19291   3.407  11.646   3.874  0.9695  0.4286  1.0693
  147MOL0     C19292   3.263  11.683   3.910  1.0355 -0.0789  0.3340
  147MOL0     C19293   3.226  11.625   4.046 -0.4169  1.1738  0.2413
  147MOL0     C19294   3.095  11.680   4.101  0.1307 -0.1715  0.4500
  147MOL0     C19295   2.979  11.616   4.033 -1.0459 -0.0020  0.0421
  147MOL0     O19296   2.874  11.605   4.131  0.1295  0.1960 -0.1388
  147MOL0     C19297   2.762  11.541   4.090 -0.0346 -0.1375  0.4799
  147MOL0     C19298   2.739  11.483   3.968 -0.0201  0.3965  0.0920
  147MOL0     C19299   2.607  11.464   3.932 -0.8420  0.4507  0.2596
  147MOL0     C19300   2.495  11.469   4.013  0.9251 -0.1946 -0.6187
  147MOL0     C19301   2.355  11.457   3.966  0.2885  0.3448 -0.0652
  147MOL0     O19302   2.343  11.445   3.827 -0.0303  0.3596  0.1793
  147MOL0     C19303   2.225  11.460   3.756  0.2330  0.6834 -0.1231
  147MOL0     C19304   2.201  11.374   3.640  0.5090 -0.5216 -0.4551
  147MOL0     C19305   2.091  11.412   3.571 -0.3375 -0.3305 -0.1371
  147MOL0     C19306   2.002  11.515   3.602  0.6485  0.2962  0.3619
  147MOL0     O19307   1.884  11.526   3.532 -0.3074 -1.0514  0.0126
  147MOL0     C19308   1.904  11.577   3.393 -0.3311 -0.4321 -0.4678
  147MOL0     C19309   1.822  11.505   3.294  0.0225  0.0659  1.0478
  147MOL0     C19310   1.679  11.506   3.331 -0.5167 -0.1079  1.0332
  147MOL0     C19311   1.561  11.488   3.228  0.6313 -0.0792 -0.2101
  147MOL0     C19312   1.416  11.476   3.279 -0.1092 -0.2748  0.6055
  147MOL0     C19313   1.310  11.427   3.177 -0.3656 -0.5471 -0.0142
  147MOL0     C19314   1.172  11.427   3.251  0.4523  1.0820  0.0895
  147MOL0     C19315   1.061  11.387   3.145  1.0035  1.2110 -0.6538
  147MOL0    Cl19316   0.900  11.374   3.235  0.4036  0.3828 -0.0108
  147MOL0     C19317   2.018  11.589   3.709 -0.9527 -1.6187 -1.3733
  147MOL0     C19318   2.135  11.568   3.793  0.1521 -1.1985 -0.0565
  147MOL0     O19319   2.264  11.467   4.047 -1.2992 -0.1512 -0.3957
  147MOL0     C19320   2.522  11.481   4.148  0.2143 -0.5181 -0.0831
  147MOL0     C19321   2.650  11.531   4.184 -0.6060 -0.6163 -0.0863
  147MOL0     N19322   3.503  11.571   3.951 -0.6748  0.1947  0.7240
  147MOL0     N19323   3.617  11.558   3.879  0.3811 -0.4479  0.4833
  147MOL0     C19324   3.863  11.393   3.048 -0.6802  0.3894 -0.3234
  147MOL0     C19325   3.739  11.372   2.998  0.5846  0.7012  0.3659
  147MOL0     C19326   3.296  11.381   2.869 -0.2245  0.4896 -0.8837
  147MOL0     C19327   3.218  11.262   2.864  0.0465  0.2014 -0.1312
  147MOL0     C19328   3.076  11.271   2.849  0.7842  0.8130 -0.4857
  147MOL0     C19329   3.015  11.397   2.835  0.9293 -0.0066 -0.4445
  147MOL0     O19330   2.872  11.401   2.835 -0.2086  0.4704  0.3991
  147MOL0     C19331   2.791  11.518   2.788 -0.4142  0.1834  0.2371
  147MOL0     C19332   2.641  11.488   2.748 -0.2545 -0.1623  0.0038
  147MOL0     C19333   2.562  11.604   2.695  0.2502  0.0229 -0.2291
  147MOL0     C19334   2.417  11.557   2.654  1.4336  1.1457 -0.1256
  147MOL0     C19335   2.325  11.666   2.617  0.6473 -0.7630  0.1759
  147MOL0     C19336   2.255  11.769   2.594 -0.2256  0.3413  0.4198
  147MOL0     C19337   3.092  11.513   2.848 -0.0705 -1.0204 -0.0976
  147MOL0     C19338   3.233  11.505   2.865  0.0463  0.1629  0.9663
  147MOL0     H19339   3.619  11.680   3.061  3.1672  1.7696 -0.9069
  147MOL0     H19340   3.824  11.707   3.155  3.5773 -0.5079 -0.8329
  147MOL0     H19341   4.061  11.705   3.169  1.6247 -0.4724 -1.1794
  147MOL0     H19342   4.201  11.606   3.199  0.5502 -3.9386  0.9619
  147MOL0     H19343   4.125  11.524   3.418 -2.4721 -0.9027  1.5833
  147MOL0     H19344   3.976  11.605   3.400 -1.5781 -0.4834 -4.9754
  147MOL0     H19345   4.223  11.769   3.380 -1.3847  1.6652 -1.0806
  147MOL0     H19346   4.149  11.745   3.543 -0.5703  2.9920 -0.1921
  147MOL0     H19347   4.084  11.963   3.442 -1.8450  0.2032 -0.8066
  147MOL0     H19348   4.008  11.880   3.305 -1.4584  2.7257  0.4737
  147MOL0     H19349   3.832  11.774   3.444  0.0348  0.9541 -2.2345
  147MOL0     H19350   3.836  11.950   3.456  1.3571  0.8587  0.3686
  147MOL0     H19351   3.969  11.923   3.666 -3.7320  3.5796  0.4220
  147MOL0     H19352   3.970  11.750   3.634  0.1340 -0.5126 -2.9798
  147MOL0     H19353   3.812  11.837   3.815  0.8804  0.8797 -1.3922
  147MOL0     H19354   3.697  11.899   3.694  0.8449  1.4243 -2.4226
  147MOL0     H19355   3.816  11.615   3.717  0.9599  1.6497 -0.2119
  147MOL0     H19356   3.722  11.674   3.584  4.3769 -2.5832 -0.3938
  147MOL0     H19357   3.476  11.774   3.690 -0.2519 -0.9622 -0.2993
  147MOL0     H19358   3.192  11.645   3.837 -0.7375 -1.4469  2.6566
  147MOL0     H19359   3.260  11.792   3.924 -3.4669  0.0149  0.0816
  147MOL0     H19360   3.305  11.647   4.118 -1.4289  0.6283  1.5720
  147MOL0     H19361   3.228  11.516   4.043  2.1756  1.1634  0.3923
  147MOL0     H19362   3.081  11.657   4.207 -0.2552 -1.4462  0.1425
  147MOL0     H19363   3.084  11.788   4.085 -3.6439 -0.5770 -0.8978
  147MOL0     H19364   3.008  11.516   3.998  0.7492  1.0374 -1.6033
  147MOL0     H19365   2.946  11.677   3.949 -0.1382  0.9017  0.3324
  147MOL0     H19366   2.816  11.474   3.891 -3.6066 -1.8172 -3.6437
  147MOL0     H19367   2.589  11.440   3.828  1.0686 -1.2204  0.2566
  147MOL0     H19368   2.271  11.292   3.625 -0.3784 -1.2849 -0.5232
  147MOL0     H19369   2.067  11.355   3.481  0.5936  0.4707 -0.9099
  147MOL0     H19370   2.006  11.559   3.358 -1.0279 -3.1787 -1.3204
  147MOL0     H19371   1.886  11.685   3.391  2.6395  0.1563 -0.3730
  147MOL0     H19372   1.875  11.411   3.272 -0.1894  0.4006 -1.1511
  147MOL0     H19373   1.833  11.549   3.194 -0.1529 -4.4059 -1.2122
  147MOL0     H19374   1.661  11.602   3.380  0.3278  2.0674 -2.5917
  147MOL0     H19375   1.667  11.427   3.406  1.1349 -0.9052  0.5081
  147MOL0     H19376   1.552  11.580   3.170 -4.4126  0.2747  0.6771
  147MOL0     H19377   1.577  11.403   3.161 -1.2721  0.5179 -1.5092
  147MOL0     H19378   1.386  11.574   3.319 -0.7635  2.3778 -5.3354
  147MOL0     H19379   1.420  11.404   3.361  0.1494 -0.8858  0.0669
  147MOL0     H19380   1.332  11.330   3.133 -1.4672 -0.9107  0.2211
  147MOL0     H19381   1.294  11.493   3.091 -1.3899 -1.0368 -0.2127
  147MOL0     H19382   1.184  11.355   3.332  2.4309 -1.1410 -2.0033
  147MOL0     H19383   1.159  11.530   3.285 -2.0609  0.4265  1.3832
  147MOL0     H19384   1.091  11.291   3.101  0.5513  0.3133  0.9203
  147MOL0     H19385   1.058  11.444   3.051  0.4093 -1.5124 -2.4072
  147MOL0     H19386   1.949  11.668   3.737 -0.5825 -2.1057  1.1782
  147MOL0     H19387   2.175  11.634   3.870 -2.3874  0.5860 -0.1484
  147MOL0     H19388   2.448  11.469   4.226  0.6118  0.2269  0.4239
  147MOL0     H19389   2.669  11.577   4.280 -2.9204  0.6247 -0.1518
  147MOL0     H19390   3.921  11.302   3.034 -1.1127  0.4836 -3.4322
  147MOL0     H19391   3.728  11.284   2.935  0.1870  2.6226 -2.3881
  147MOL0     H19392   3.252  11.166   2.901 -2.5944  0.2475  2.9393
  147MOL0     H19393   3.012  11.186   2.870  0.2894  1.5083  0.9307
  147MOL0     H19394   2.842  11.567   2.704 -0.7299  0.2057  0.0550
  147MOL0     H19395   2.797  11.583   2.875  2.8145  1.9492 -1.1398
  147MOL0     H19396   2.638  11.414   2.667 -0.0784  0.3956 -0.5239
  147MOL0     H19397   2.590  11.437   2.830 -1.2960  1.0695  0.1531
  147MOL0     H19398   2.612  11.637   2.604 -0.4424  2.2355  0.1264
  147MOL0     H19399   2.559  11.686   2.767  0.4494  1.3418 -1.6677
  147MOL0     H19400   2.422  11.481   2.575 -2.9183 -0.9369  1.2518
  147MOL0     H19401   2.382  11.502   2.743  2.5270  1.5606  0.5768
  147MOL0     H19402   2.204  11.861   2.572  0.2673  0.5792  0.2652
  147MOL0     H19403   3.045  11.611   2.837  2.0704  0.0501 -0.2495
  147MOL0     H19404   3.281  11.601   2.851 -1.3277  0.7704  0.2634
  148MOL0     O19405   0.540   6.412   9.494 -0.9614 -0.3409 -0.1401
  148MOL0     C19406   0.633   6.421   9.413  0.2615  0.2390 -0.5104
  148MOL0     O19407   0.763   6.422   9.444  0.0445  0.3255  0.2364
  148MOL0     C19408   0.807   6.429   9.573 -0.9017 -0.7985 -0.4731
  148MOL0     C19409   0.844   6.323   9.644 -0.5440  0.8161  0.0550
  148MOL0     C19410   0.876   6.324   9.779 -0.7999  1.1881  1.1243
  148MOL0     C19411   0.879   6.442   9.846  0.2479  0.3933 -1.2160
  148MOL0     O19412   0.900   6.464   9.978  0.0176 -0.0318 -0.2840
  148MOL0     C19413   0.998   6.390  10.052 -0.8165  0.8575 -0.2051
  148MOL0     C19414   1.008   6.463  10.182  0.3178 -0.5552  0.9150
  148MOL0     C19415   1.115   6.571  10.188 -0.5177  0.3914 -0.3025
  148MOL0     C19416   1.255   6.527  10.224 -1.2956  0.1803  0.6749
  148MOL0     C19417   1.292   6.480  10.362  0.2860  0.5176 -0.8169
  148MOL0     C19418   1.402   6.383  10.384 -0.2608 -0.7446  0.0553
  148MOL0     C19419   1.417   6.323  10.517 -0.6460 -0.2034 -0.2549
  148MOL0     C19420   1.283   6.289  10.596  0.0761 -0.2797 -0.1473
  148MOL0     N19421   1.311   6.201  10.713 -0.5623 -0.2934  0.6345
  148MOL0     C19422   1.349   6.067  10.711  0.3023  0.4459 -0.4544
  148MOL0     C19423   1.356   6.042  10.847 -0.7490  1.3017 -0.7308
  148MOL0     C19424   1.393   5.911  10.903  0.0963  0.3529 -0.1318
  148MOL0     C19425   1.290   5.864  11.006  0.3021 -1.0409  0.8080
  148MOL0     C19426   1.144   5.838  10.958  0.4219 -0.8645  0.9986
  148MOL0     C19427   1.150   5.744  10.836  0.8746 -0.4828  0.2916
  148MOL0     O19428   1.012   5.710  10.801  0.2658  0.4982 -0.3485
  148MOL0     C19429   0.970   5.631  10.698 -0.3755  0.1596  0.2994
  148MOL0     C19430   0.836   5.628  10.663 -0.2349  0.2663  0.0140
  148MOL0     C19431   0.786   5.561  10.548 -0.2541  0.0615 -0.4363
  148MOL0     C19432   0.868   5.499  10.461  0.0419  0.3544  0.0649
  148MOL0     C19433   0.810   5.458  10.329  0.6452 -0.1187 -0.2532
  148MOL0     O19434   0.898   5.386  10.255  0.6114  0.3266 -0.4481
  148MOL0     C19435   0.857   5.335  10.131 -0.3022  0.4191  0.0622
  148MOL0     C19436   0.720   5.320  10.085 -0.7914 -0.8506  0.4722
  148MOL0     C19437   0.706   5.261   9.957  1.2229 -0.2412  0.6363
  148MOL0     C19438   0.808   5.195   9.877  0.4253  0.1847 -0.6170
  148MOL0     O19439   0.769   5.128   9.757 -0.3510 -0.3698  0.0385
  148MOL0     C19440   0.838   5.004   9.735  0.6400 -0.1444  0.0621
  148MOL0     C19441   0.776   4.919   9.619 -0.2464  0.9258 -0.1001
  148MOL0     C19442   0.872   4.918   9.497  0.5463  0.0200 -0.4000
  148MOL0     C19443   0.823   4.823   9.375  0.4740  0.7907 -0.3990
  148MOL0     C19444   0.713   4.892   9.288  0.7479 -1.8639  0.1490
  148MOL0     C19445   0.656   4.816   9.173 -0.8672  0.4236 -0.3470
  148MOL0     C19446   0.724   4.834   9.038 -0.3726  0.9877  0.3686
  148MOL0     C19447   0.692   4.966   8.977  0.5479  0.6110  0.1511
  148MOL0    Cl19448   0.526   4.982   8.928 -0.0898  0.2287  0.0853
  148MOL0     C19449   0.940   5.209   9.931  0.4905 -1.4501  0.3080
  148MOL0     C19450   0.961   5.284  10.055  1.1513 -0.9352 -0.5511
  148MOL0     O19451   0.709   5.517  10.294 -0.3093 -0.2937 -0.6743
  148MOL0     C19452   1.004   5.485  10.498 -0.2790  0.0857 -0.1645
  148MOL0     C19453   1.053   5.554  10.617  0.5121  0.5880  0.0456
  148MOL0     N19454   1.337   6.152  10.923 -0.3881 -0.3438 -0.2583
  148MOL0     N19455   1.315   6.246  10.843 -0.3470 -0.2159 -0.4558
  148MOL0     C19456   0.854   6.557   9.779 -0.4393 -0.0502 -0.8985
  148MOL0     C19457   0.816   6.554   9.645 -0.3758 -0.3798 -0.0284
  148MOL0     C19458   0.610   6.441   9.264  0.6859  0.1387  0.2382
  148MOL0     C19459   0.497   6.509   9.217  0.8801  0.3584 -0.4908
  148MOL0     C19460   0.470   6.546   9.088 -0.6350 -0.2332  1.5931
  148MOL0     C19461   0.567   6.533   8.985  0.4346 -1.2629 -0.5138
  148MOL0     O19462   0.550   6.586   8.853  0.2630 -0.7899  0.1512
  148MOL0     C19463   0.661   6.605   8.760  0.2778 -0.4393  1.5896
  148MOL0     C19464   0.741   6.726   8.805  0.2133  0.4331 -0.0141
  148MOL0     C19465   0.845   6.756   8.707  0.5890 -0.6466  0.3212
  148MOL0     C19466   0.946   6.865   8.761 -0.4488 -0.4317  0.6544
  148MOL0     C19467   0.878   6.998   8.790  0.8012 -0.0507  0.2248
  148MOL0     C19468   0.810   7.102   8.814 -0.5596 -0.0811 -0.1132
  148MOL0     C19469   0.684   6.460   9.027  0.0420  0.4204  0.4676
  148MOL0     C19470   0.702   6.418   9.162  0.0797  0.4709  0.5514
  148MOL0     H19471   0.858   6.222   9.605 -0.2673  0.8328  0.1103
  148MOL0     H19472   0.904   6.231   9.828  5.5778  0.7345 -2.2850
  148MOL0     H19473   1.098   6.392  10.009 -1.0120  2.1511 -0.6304
  148MOL0     H19474   0.971   6.285  10.070 -3.4934  1.4298 -0.4151
  148MOL0     H19475   1.030   6.383  10.253 -5.1961 -1.5684  1.9836
  148MOL0     H19476   0.909   6.499  10.214  1.3904  3.7122 -0.0547
  148MOL0     H19477   1.085   6.639  10.269  0.3771 -0.6873  0.9914
  148MOL0     H19478   1.104   6.622  10.092 -0.6999  3.1071  1.0603
  148MOL0     H19479   1.280   6.449  10.152 -2.5389  0.6763 -0.3447
  148MOL0     H19480   1.322   6.611  10.204 -0.1397 -1.5092 -3.9738
  148MOL0     H19481   1.201   6.435  10.402  3.0191 -1.3374  4.2845
  148MOL0     H19482   1.319   6.561  10.429  1.9366 -0.6192 -0.0137
  148MOL0     H19483   1.500   6.426  10.360 -1.1496  0.2204 -2.0905
  148MOL0     H19484   1.382   6.307  10.308 -1.2613  1.6596 -2.2532
  148MOL0     H19485   1.472   6.229  10.510  2.8967  1.6455  0.3989
  148MOL0     H19486   1.468   6.408  10.564 -1.9129  0.6670 -0.3877
  148MOL0     H19487   1.216   6.229  10.534 -1.7048  0.5728  0.8947
  148MOL0     H19488   1.231   6.385  10.607  2.1579  0.8187  0.6323
  148MOL0     H19489   1.339   5.999  10.628  0.4508 -1.1534  0.7977
  148MOL0     H19490   1.497   5.901  10.938 -0.4238  2.3473  2.3137
  148MOL0     H19491   1.385   5.846  10.816 -3.1415  2.1476 -1.3369
  148MOL0     H19492   1.288   5.932  11.092  2.8084  0.9241 -0.5634
  148MOL0     H19493   1.329   5.764  11.028  0.8253 -1.3978 -1.4887
  148MOL0     H19494   1.094   5.782  11.037 -0.6735 -0.7443  0.4089
  148MOL0     H19495   1.087   5.931  10.951  0.8462 -0.4049  3.0830
  148MOL0     H19496   1.189   5.643  10.852  1.9237 -0.1678 -0.1505
  148MOL0     H19497   1.195   5.797  10.751 -1.2678 -1.1180 -1.3146
  148MOL0     H19498   0.776   5.693  10.726  2.3304  1.6573  1.1625
  148MOL0     H19499   0.683   5.554  10.512  0.7864 -0.2231 -3.7038
  148MOL0     H19500   0.636   5.366  10.135 -1.0183  1.4636 -1.7777
  148MOL0     H19501   0.612   5.264   9.902  3.4108  0.5823 -3.5027
  148MOL0     H19502   0.848   4.940   9.823 -1.7115 -1.6442 -0.6492
  148MOL0     H19503   0.936   5.040   9.704  0.1253 -0.9321 -2.7462
  148MOL0     H19504   0.673   4.950   9.597 -0.0324  2.1683  0.5714
  148MOL0     H19505   0.765   4.813   9.644 -0.5722  0.6231 -1.4597
  148MOL0     H19506   0.969   4.876   9.526  0.9055 -0.9102 -2.7008
  148MOL0     H19507   0.889   5.021   9.467 -2.6773  1.9923  3.5892
  148MOL0     H19508   0.904   4.793   9.308  0.0280  0.5758 -0.8387
  148MOL0     H19509   0.795   4.728   9.422  1.2682  1.2041  0.9972
  148MOL0     H19510   0.744   4.994   9.264  0.5713 -1.4180  1.7038
  148MOL0     H19511   0.628   4.900   9.356 -1.2733  0.0623 -2.3629
  148MOL0     H19512   0.548   4.828   9.167 -1.4411 -3.0539  0.4622
  148MOL0     H19513   0.665   4.711   9.205  0.7820 -0.3663 -3.0718
  148MOL0     H19514   0.831   4.818   9.049 -0.2932  0.2722 -1.1957
  148MOL0     H19515   0.687   4.759   8.968  3.8855  1.1790 -2.4166
  148MOL0     H19516   0.750   4.986   8.886 -1.5985  4.7374 -0.5344
  148MOL0     H19517   0.724   5.047   9.043  2.4565 -1.1986  1.6064
  148MOL0     H19518   1.034   5.168   9.896  0.8598  1.0729 -2.0697
  148MOL0     H19519   1.058   5.281  10.105  0.3035  0.5427  1.2933
  148MOL0     H19520   1.066   5.443  10.420  0.4996  2.4873 -0.9018
  148MOL0     H19521   1.157   5.529  10.638  1.4009  2.7859 -1.3489
  148MOL0     H19522   0.865   6.652   9.830  0.0053 -0.2968 -0.5275
  148MOL0     H19523   0.803   6.646   9.589 -0.8836  0.3353  1.2240
  148MOL0     H19524   0.419   6.547   9.282  0.2361  1.8448 -2.0665
  148MOL0     H19525   0.383   6.602   9.054  0.8922 -0.5509 -3.8201
  148MOL0     H19526   0.620   6.629   8.662 -2.2077 -2.5252  2.0074
  148MOL0     H19527   0.727   6.519   8.752 -0.8267 -1.1034 -3.9009
  148MOL0     H19528   0.671   6.808   8.816  0.2436  0.7527 -1.9231
  148MOL0     H19529   0.781   6.709   8.906  0.3024 -3.4164 -0.5298
  148MOL0     H19530   0.806   6.786   8.610 -0.2402  1.3613  1.2257
  148MOL0     H19531   0.901   6.664   8.684 -3.6918 -3.3937 -0.3052
  148MOL0     H19532   0.990   6.830   8.855  0.2762 -2.0307 -0.2540
  148MOL0     H19533   1.018   6.887   8.682  0.3596  1.0260  1.7439
  148MOL0     H19534   0.741   7.178   8.845 -0.4000 -1.1122  3.1301
  148MOL0     H19535   0.771   6.442   8.965  1.1603 -2.1474  2.5596
  148MOL0     H19536   0.791   6.366   9.196 -0.4939  0.0077  1.3836
  149MOL0     O19537   6.065   2.694   9.381  0.6350  0.1882  0.7347
  149MOL0     C19538   6.143   2.627   9.316 -0.1426  0.2974  0.0755
  149MOL0     O19539   6.197   2.511   9.353 -0.4977 -0.3216 -0.4024
  149MOL0     C19540   6.214   2.481   9.486 -0.1181  1.1552 -0.2077
  149MOL0     C19541   6.228   2.575   9.588 -0.0096  0.4788 -0.0136
  149MOL0     C19542   6.258   2.533   9.717 -0.9512  0.0519  0.4649
  149MOL0     C19543   6.280   2.397   9.746 -0.6424  0.1664  0.0724
  149MOL0     O19544   6.308   2.361   9.877 -0.0278  0.3613  0.1123
  149MOL0     C19545   6.382   2.239   9.901 -0.2443 -0.6425 -0.2907
  149MOL0     C19546   6.291   2.111   9.939 -0.8196 -0.0565  0.3064
  149MOL0     C19547   6.378   1.980   9.936  0.0049  0.1654 -0.3601
  149MOL0     C19548   6.471   1.976  10.061 -0.4236 -0.1247  0.1150
  149MOL0     C19549   6.517   1.837  10.107  0.2635  1.2059 -0.7671
  149MOL0     C19550   6.601   1.757  10.002 -1.1272 -0.6875  0.3567
  149MOL0     C19551   6.625   1.609  10.042 -0.3932 -0.8792 -0.9000
  149MOL0     C19552   6.711   1.521   9.952  0.4527  0.3693 -0.2308
  149MOL0     N19553   6.810   1.612   9.896 -0.5998  0.6569  0.5442
  149MOL0     C19554   6.794   1.670   9.775 -0.3567  1.0276 -1.0843
  149MOL0     C19555   6.918   1.731   9.754  0.1482 -0.6484 -0.5638
  149MOL0     C19556   6.954   1.807   9.634  0.2371 -1.1401 -0.0196
  149MOL0     C19557   6.866   1.930   9.622 -0.9196 -0.5492 -0.7191
  149MOL0     C19558   6.916   2.038   9.530  0.0561 -0.3058  0.5076
  149MOL0     C19559   6.809   2.147   9.526 -0.3539  0.3330 -0.4761
  149MOL0     O19560   6.822   2.206   9.657  0.4225  0.0799 -0.8701
  149MOL0     C19561   6.741   2.319   9.691  0.2118  0.8464  0.0783
  149MOL0     C19562   6.753   2.368   9.817 -0.0664 -0.9185 -0.0800
  149MOL0     C19563   6.687   2.490   9.860 -0.4546 -0.3845 -0.0359
  149MOL0     C19564   6.602   2.555   9.769  0.3431  0.5772 -0.9108
  149MOL0     C19565   6.530   2.669   9.821  0.8712  0.4500  0.6216
  149MOL0     O19566   6.556   2.716   9.943 -0.7418  0.3407 -0.2772
  149MOL0     C19567   6.488   2.821   9.987  0.3969  0.0373  0.4119
  149MOL0     C19568   6.357   2.814  10.022  0.2129  0.7359  0.3892
  149MOL0     C19569   6.289   2.936  10.071 -0.4954 -0.5779 -0.5877
  149MOL0     C19570   6.365   3.053  10.089 -0.4669  0.3351  0.4169
  149MOL0     O19571   6.300   3.143  10.170  0.8718  0.3957  0.4737
  149MOL0     C19572   6.375   3.223  10.268  0.2738 -0.1154  0.9545
  149MOL0     C19573   6.383   3.153  10.403 -0.3970  0.2037 -1.1328
  149MOL0     C19574   6.249   3.160  10.476  0.1285  0.2955 -0.0971
  149MOL0     C19575   6.278   3.117  10.617  0.1027  0.2948  0.1675
  149MOL0     C19576   6.326   2.964  10.635  0.3475 -0.8942 -0.1680
  149MOL0     C19577   6.219   2.860  10.596  0.5716 -0.2819  0.4186
  149MOL0     C19578   6.090   2.856  10.680 -1.6050  0.9541  0.2869
  149MOL0     C19579   5.976   2.792  10.607 -0.7012  1.3755  0.3754
  149MOL0    Cl19580   5.980   2.606  10.624 -0.0780 -0.0088 -0.0895
  149MOL0     C19581   6.501   3.052  10.060 -0.0614 -0.1667  0.2552
  149MOL0     C19582   6.561   2.939  10.007 -0.1536 -0.0450  0.2843
  149MOL0     O19583   6.464   2.731   9.744 -0.8406  0.2627  0.1049
  149MOL0     C19584   6.593   2.507   9.641 -0.5523 -0.0389  0.3704
  149MOL0     C19585   6.656   2.385   9.607 -0.5025 -0.3901  0.0545
  149MOL0     N19586   6.999   1.711   9.865  0.3440 -0.1015 -0.2070
  149MOL0     N19587   6.930   1.632   9.944  0.0083  0.1569  0.4394
  149MOL0     C19588   6.259   2.312   9.644 -0.1003 -0.7789  0.6595
  149MOL0     C19589   6.232   2.349   9.513  0.7904 -0.5310  0.4143
  149MOL0     C19590   6.198   2.670   9.184  0.7635  0.2735  0.2328
  149MOL0     C19591   6.156   2.793   9.131  0.5211 -0.6293 -0.0456
  149MOL0     C19592   6.209   2.841   9.011  0.4392  0.3848  0.1164
  149MOL0     C19593   6.310   2.776   8.940 -1.0344  0.4760  0.0915
  149MOL0     O19594   6.373   2.810   8.821  0.4711 -0.8100 -0.4109
  149MOL0     C19595   6.362   2.944   8.769  1.1655 -1.1793  0.5795
  149MOL0     C19596   6.465   2.952   8.655 -0.3988 -0.0022 -0.6253
  149MOL0     C19597   6.438   2.857   8.537  0.1816  0.2680  0.3621
  149MOL0     C19598   6.544   2.811   8.440 -0.2140  0.0409 -0.2484
  149MOL0     C19599   6.574   2.922   8.347 -0.3791  0.4160  0.5078
  149MOL0     C19600   6.613   3.002   8.258 -0.2915  0.6742  0.0762
  149MOL0     C19601   6.356   2.654   8.988  0.5598 -0.2476 -0.9907
  149MOL0     C19602   6.296   2.597   9.106 -0.7580 -0.5976 -0.6294
  149MOL0     H19603   6.214   2.678   9.555 -0.7713 -0.4590 -2.9435
  149MOL0     H19604   6.268   2.607   9.796  0.8403 -0.8162  1.1041
  149MOL0     H19605   6.442   2.270   9.987  0.3530 -1.2095 -0.5015
  149MOL0     H19606   6.457   2.211   9.828  1.5331  1.9949  0.3786
  149MOL0     H19607   6.202   2.103   9.877 -1.2188 -1.9468  1.0554
  149MOL0     H19608   6.257   2.120  10.043  0.7455 -1.8187  1.0439
  149MOL0     H19609   6.436   1.983   9.844  1.4801 -0.7246  0.5010
  149MOL0     H19610   6.315   1.890   9.936  0.7438 -0.3598  0.1590
  149MOL0     H19611   6.563   2.028  10.035  0.7517 -1.9666  0.4558
  149MOL0     H19612   6.441   2.040  10.144 -0.3325  2.4279 -1.7007
  149MOL0     H19613   6.437   1.774  10.147  2.3563  1.7211  5.2405
  149MOL0     H19614   6.579   1.860  10.194  1.8763  1.5805 -1.9501
  149MOL0     H19615   6.696   1.808   9.986 -2.6229  1.0400 -5.3975
  149MOL0     H19616   6.539   1.755   9.912 -2.5743  0.1798  1.2842
  149MOL0     H19617   6.674   1.617  10.139  3.6691  1.8360 -2.8854
  149MOL0     H19618   6.531   1.554  10.049  0.9152 -3.2167 -0.7380
  149MOL0     H19619   6.658   1.472   9.871  0.8134  0.0565 -0.2833
  149MOL0     H19620   6.770   1.445  10.005 -0.6386  1.1253  2.2143
  149MOL0     H19621   6.704   1.679   9.715 -1.9794  1.9234  1.3205
  149MOL0     H19622   6.939   1.741   9.548  1.7697 -0.9940 -0.4352
  149MOL0     H19623   7.057   1.843   9.639 -1.3691  4.3720  4.8407
  149MOL0     H19624   6.852   1.969   9.723 -0.1806 -1.4895 -0.2438
  149MOL0     H19625   6.765   1.897   9.597 -2.5513  2.2721  1.4704
  149MOL0     H19626   7.009   2.080   9.570 -1.0201  2.4168  0.3520
  149MOL0     H19627   6.934   1.988   9.434  0.0897 -1.4118  1.0763
  149MOL0     H19628   6.706   2.112   9.512 -0.4530 -0.6654  2.1376
  149MOL0     H19629   6.834   2.223   9.452  1.1318 -1.8392 -2.3067
  149MOL0     H19630   6.831   2.321   9.876 -0.8323 -0.3129  1.4704
  149MOL0     H19631   6.698   2.528   9.961 -3.4497  1.2235 -0.1840
  149MOL0     H19632   6.293   2.727  10.012  1.7186 -0.4123  0.3052
  149MOL0     H19633   6.188   2.918  10.106 -1.1489  3.7368  0.2307
  149MOL0     H19634   6.321   3.318  10.274 -1.6781 -0.9051 -1.9832
  149MOL0     H19635   6.475   3.230  10.224 -1.2608 -3.5224 -3.9044
  149MOL0     H19636   6.462   3.173  10.475  0.8401 -1.3634 -1.9939
  149MOL0     H19637   6.402   3.057  10.354  0.3568  1.7967 -4.2263
  149MOL0     H19638   6.175   3.093  10.431  0.8762 -0.9733  0.5173
  149MOL0     H19639   6.218   3.265  10.472  1.3311  0.6654  0.0927
  149MOL0     H19640   6.349   3.183  10.668 -1.2236  1.6359  0.3322
  149MOL0     H19641   6.188   3.141  10.673  1.3584 -0.3486  2.5982
  149MOL0     H19642   6.339   2.962  10.743  1.6355  1.5342 -0.1972
  149MOL0     H19643   6.424   2.952  10.587 -0.6626 -1.4744 -2.1974
  149MOL0     H19644   6.284   2.772  10.597  0.2671 -0.5086  1.1757
  149MOL0     H19645   6.190   2.877  10.492 -3.8056 -2.8468  0.9521
  149MOL0     H19646   6.105   2.799  10.772 -1.3666 -0.9704 -0.8890
  149MOL0     H19647   6.075   2.962  10.700  0.4654  1.0733  1.6269
  149MOL0     H19648   5.976   2.821  10.501  1.2676  1.0452  0.2468
  149MOL0     H19649   5.895   2.832  10.668  0.4108  1.8959  1.5398
  149MOL0     H19650   6.566   3.136  10.083 -0.0227 -0.1942  0.2460
  149MOL0     H19651   6.665   2.933   9.980 -0.0020  0.2890  0.7791
  149MOL0     H19652   6.529   2.563   9.573 -0.8098 -2.2439 -1.2851
  149MOL0     H19653   6.626   2.342   9.512  0.0327  1.7126 -1.1223
  149MOL0     H19654   6.280   2.206   9.658  0.9766 -0.3197  3.0632
  149MOL0     H19655   6.227   2.276   9.432 -0.5059  0.0718 -0.0786
  149MOL0     H19656   6.072   2.845   9.176  3.0640  3.8119  0.1886
  149MOL0     H19657   6.173   2.940   8.985 -2.3162 -0.3862  0.7312
  149MOL0     H19658   6.390   3.016   8.847 -3.4754 -2.4794  3.9237
  149MOL0     H19659   6.260   2.969   8.737  0.0795 -0.5612  4.0761
  149MOL0     H19660   6.458   3.049   8.604  1.7639 -1.2750 -3.6870
  149MOL0     H19661   6.566   2.937   8.693 -0.3999  3.0589  0.9315
  149MOL0     H19662   6.357   2.896   8.474 -0.3648 -1.4663 -0.0617
  149MOL0     H19663   6.390   2.768   8.579  0.8981 -0.6051 -0.6186
  149MOL0     H19664   6.629   2.796   8.507 -0.2338  1.6792  0.1831
  149MOL0     H19665   6.513   2.726   8.378 -2.8194  0.5383  0.2318
  149MOL0     H19666   6.652   3.076   8.191  0.5080 -0.4846 -0.7867
  149MOL0     H19667   6.414   2.586   8.926  2.2092 -1.5221  1.7493
  149MOL0     H19668   6.340   2.501   9.132 -0.8686 -1.0885 -2.1313
  150MOL0     O19669   4.749   9.504  10.888 -0.4402  0.2926 -0.3076
  150MOL0     C19670   4.731   9.515  10.768  0.0166  0.6361  0.0538
  150MOL0     O19671   4.754   9.421  10.669 -0.4212  0.2396  0.5769
  150MOL0     C19672   4.856   9.330  10.697  0.6234  1.0377  0.0780
  150MOL0     C19673   4.991   9.371  10.695  0.9383 -0.2552 -0.8441
  150MOL0     C19674   5.095   9.286  10.710 -0.7690  0.3103 -1.0224
  150MOL0     C19675   5.078   9.150  10.737 -0.2939 -0.3078  0.1405
  150MOL0     O19676   5.183   9.070  10.769 -0.4619 -0.4489 -0.6315
  150MOL0     C19677   5.176   8.934  10.735 -0.5048  0.3973 -0.2131
  150MOL0     C19678   5.325   8.900  10.747 -0.8216 -0.1277 -0.6610
  150MOL0     C19679   5.364   8.755  10.718 -0.6192  0.6543 -0.6969
  150MOL0     C19680   5.515   8.733  10.700  0.1466 -0.3231  0.2092
  150MOL0     C19681   5.557   8.589  10.678 -0.0026  0.5105 -0.7776
  150MOL0     C19682   5.515   8.533  10.540  0.1726  0.9847  0.2556
  150MOL0     C19683   5.610   8.419  10.516  0.7366  0.6518 -0.4421
  150MOL0     C19684   5.636   8.367  10.375 -0.2894 -0.9290 -0.7855
  150MOL0     N19685   5.701   8.473  10.295  0.4547 -0.1688  1.2250
  150MOL0     C19686   5.630   8.531  10.189 -0.3393  0.2338  0.3395
  150MOL0     C19687   5.690   8.648  10.158 -0.0890  0.6428 -0.5481
  150MOL0     C19688   5.661   8.740  10.046 -0.5067  0.6386  0.2748
  150MOL0     C19689   5.683   8.894  10.081  0.2562  0.0670  1.0415
  150MOL0     C19690   5.620   8.930  10.211 -0.1619 -0.5398  0.7973
  150MOL0     C19691   5.666   9.071  10.263  0.4258 -0.9077  0.0104
  150MOL0     O19692   5.673   9.174  10.166  0.3109 -0.1082  0.3553
  150MOL0     C19693   5.719   9.290  10.218 -0.0824 -0.7819  0.0217
  150MOL0     C19694   5.650   9.365  10.308  0.3110 -0.7305 -0.1415
  150MOL0     C19695   5.691   9.497  10.338  0.2965  0.6711 -0.2354
  150MOL0     C19696   5.810   9.554  10.286 -0.0799  0.2271  0.0926
  150MOL0     C19697   5.849   9.695  10.300 -0.1198 -0.5901 -0.9340
  150MOL0     O19698   5.773   9.773  10.388 -0.6385  0.3331  0.6159
  150MOL0     C19699   5.841   9.889  10.414  0.4651 -0.4405 -0.6853
  150MOL0     C19700   5.837  10.004  10.331 -0.6598 -0.4965  0.1504
  150MOL0     C19701   5.925  10.117  10.354  1.0400 -0.0627 -0.6429
  150MOL0     C19702   6.016  10.113  10.455 -0.5643  0.4123  0.2774
  150MOL0     O19703   6.099  10.220  10.457 -0.5672  0.0038 -0.3306
  150MOL0     C19704   6.220  10.221  10.533 -0.3771  1.5346  1.0228
  150MOL0     C19705   6.225  10.328  10.631 -0.4261 -0.1292  0.2270
  150MOL0     C19706   6.205  10.472  10.600 -0.1491 -0.5255  0.2087
  150MOL0     C19707   6.063  10.515  10.568  0.4173  0.0299  0.3640
  150MOL0     C19708   6.067  10.663  10.518 -0.0717 -0.8464  0.6974
  150MOL0     C19709   5.914  10.691  10.501 -0.7063  0.0746  0.7942
  150MOL0     C19710   5.912  10.846  10.455  0.0691 -0.0426 -0.5860
  150MOL0     C19711   5.904  10.935  10.581 -0.4594 -0.1766  0.6361
  150MOL0    Cl19712   6.069  10.973  10.654  0.2393  0.4370  0.5004
  150MOL0     C19713   6.027   9.990  10.533  0.0798  0.5899 -0.3616
  150MOL0     C19714   5.932   9.885  10.525  0.1338  0.3293 -0.0788
  150MOL0     O19715   5.937   9.745  10.231  0.3661 -0.0416  0.1118
  150MOL0     C19716   5.889   9.471  10.203  0.3120 -0.6063  0.1885
  150MOL0     C19717   5.838   9.340  10.167 -0.4334  0.4373  0.4298
  150MOL0     N19718   5.798   8.654  10.244  0.2603 -1.0767 -0.5612
  150MOL0     N19719   5.803   8.548  10.315  0.4745 -1.1247 -0.2536
  150MOL0     C19720   4.951   9.111  10.726  0.8396 -0.6636  0.4376
  150MOL0     C19721   4.830   9.190  10.715 -0.9208  0.0921  0.1201
  150MOL0     C19722   4.680   9.642  10.715 -0.4103  0.3098 -0.6067
  150MOL0     C19723   4.670   9.744  10.802  0.6721 -1.0448 -0.0641
  150MOL0     C19724   4.605   9.864  10.757  0.1888 -0.4994  0.6325
  150MOL0     C19725   4.553   9.883  10.621 -0.4628  0.3963  0.0775
  150MOL0     O19726   4.485   9.993  10.580  0.2978  0.2775  0.2344
  150MOL0     C19727   4.436  10.085  10.669  1.0960  0.2303  0.0499
  150MOL0     C19728   4.294  10.120  10.635  0.8894  0.7765  0.1463
  150MOL0     C19729   4.242  10.205  10.752 -0.2699 -0.3755  0.4101
  150MOL0     C19730   4.110  10.251  10.722  1.5908 -0.0385 -0.5924
  150MOL0     C19731   4.016  10.139  10.734  0.3149  0.5810 -1.1132
  150MOL0     C19732   3.939  10.048  10.752  0.6157  1.0093 -0.9089
  150MOL0     C19733   4.572   9.774  10.536  0.1351  0.0043  1.4436
  150MOL0     C19734   4.638   9.657  10.581  0.3046 -1.2233  0.3607
  150MOL0     H19735   5.011   9.474  10.667 -1.0620  1.6395  3.7878
  150MOL0     H19736   5.197   9.321  10.697 -0.9700  1.3386 -0.0512
  150MOL0     H19737   5.135   8.908  10.637  0.8571  3.2943 -1.6934
  150MOL0     H19738   5.131   8.881  10.820  0.6497 -1.1466 -0.5146
  150MOL0     H19739   5.352   8.935  10.847 -0.5769  1.3028 -1.2019
  150MOL0     H19740   5.383   8.967  10.683  0.9953 -1.0501 -0.0311
  150MOL0     H19741   5.307   8.725  10.629  0.7581 -2.1841 -0.7477
  150MOL0     H19742   5.329   8.684  10.794  1.1194  0.3548 -0.1298
  150MOL0     H19743   5.541   8.785  10.607 -0.8940  1.7085  0.9925
  150MOL0     H19744   5.565   8.779  10.785 -3.5913  3.9453  0.5039
  150MOL0     H19745   5.517   8.526  10.758  1.7509  2.3792  1.6779
  150MOL0     H19746   5.665   8.590  10.693  0.1749 -2.8913 -0.9970
  150MOL0     H19747   5.545   8.602  10.460 -1.5048  2.1904  0.6102
  150MOL0     H19748   5.409   8.506  10.533  0.7318 -1.1257 -1.3688
  150MOL0     H19749   5.707   8.446  10.558  0.3349  1.7069 -0.1623
  150MOL0     H19750   5.557   8.343  10.575 -2.1914  1.9235 -1.2618
  150MOL0     H19751   5.535   8.344  10.340 -0.3328  1.3529 -2.3272
  150MOL0     H19752   5.695   8.275  10.375  0.7467 -0.3017  0.2214
  150MOL0     H19753   5.525   8.514  10.169 -0.8382  1.8708  1.3396
  150MOL0     H19754   5.555   8.730  10.020 -1.3816  0.8865  3.3761
  150MOL0     H19755   5.721   8.700   9.964 -1.4736 -0.7442  0.2051
  150MOL0     H19756   5.657   8.960   9.998  0.6406 -1.4555 -0.3486
  150MOL0     H19757   5.792   8.900  10.092  0.3686  0.8989 -0.2518
  150MOL0     H19758   5.514   8.933  10.186  0.4348 -1.4599 -2.2760
  150MOL0     H19759   5.652   8.857  10.285  1.7272 -0.1071  0.4626
  150MOL0     H19760   5.768   9.053  10.299  2.6797  0.4383 -4.8473
  150MOL0     H19761   5.592   9.102  10.337  0.0949  0.4850 -0.8842
  150MOL0     H19762   5.561   9.334  10.362  0.6259 -1.1688  0.1403
  150MOL0     H19763   5.621   9.558  10.396  1.8415  3.7136 -1.3388
  150MOL0     H19764   5.780  10.001  10.239 -0.8004 -0.6906  0.2448
  150MOL0     H19765   5.921  10.205  10.291 -2.4148 -1.2924 -2.4393
  150MOL0     H19766   6.308  10.226  10.468 -0.0797  0.6302  1.3466
  150MOL0     H19767   6.230  10.125  10.583 -0.0878 -0.2082 -2.1497
  150MOL0     H19768   6.319  10.306  10.683 -1.2883  0.6129  2.1936
  150MOL0     H19769   6.151  10.306  10.709 -0.1938  0.7057  0.6930
  150MOL0     H19770   6.275  10.490  10.517 -1.8031  0.4178 -1.0355
  150MOL0     H19771   6.238  10.546  10.673 -2.0472  0.3587  0.2151
  150MOL0     H19772   6.032  10.439  10.496 -3.1344 -0.9176  2.6399
  150MOL0     H19773   5.992  10.515  10.651  1.0593  2.5901  1.0068
  150MOL0     H19774   6.133  10.685  10.434  0.5245 -1.7951  0.9011
  150MOL0     H19775   6.114  10.718  10.600  0.8678 -0.7571  0.1129
  150MOL0     H19776   5.859  10.675  10.595 -0.2625 -4.3274  0.5135
  150MOL0     H19777   5.880  10.637  10.413 -0.7278 -0.7859  1.3164
  150MOL0     H19778   5.997  10.875  10.392  1.4011 -0.1120  1.1120
  150MOL0     H19779   5.826  10.858  10.389  0.4345  1.2503 -0.8479
  150MOL0     H19780   5.830  10.906  10.655  0.2125  1.0021  1.8082
  150MOL0     H19781   5.859  11.028  10.545 -0.4615  1.0233  3.5027
  150MOL0     H19782   6.095   9.998  10.618 -0.4043  0.9686  0.0024
  150MOL0     H19783   5.941   9.804  10.597  2.7652  1.6687  1.2383
  150MOL0     H19784   5.983   9.508  10.164  1.3361  2.0125  4.5180
  150MOL0     H19785   5.889   9.280  10.092  1.7056 -3.3204  4.4735
  150MOL0     H19786   4.934   9.004  10.739 -2.6081 -0.4588 -1.1038
  150MOL0     H19787   4.731   9.145  10.719 -0.9453 -0.1375 -1.9214
  150MOL0     H19788   4.700   9.733  10.906  0.7005  0.2372  0.0799
  150MOL0     H19789   4.597   9.930  10.842 -1.3736 -0.6877  0.6547
  150MOL0     H19790   4.488  10.180  10.680 -0.8822  1.4410 -0.4028
  150MOL0     H19791   4.423  10.037  10.766 -5.2739 -2.1424 -1.4982
  150MOL0     H19792   4.287  10.174  10.540 -1.8291  1.5672  0.6975
  150MOL0     H19793   4.236  10.028  10.625 -0.8562  1.7771  0.6012
  150MOL0     H19794   4.299  10.297  10.772 -2.5744  1.8593 -2.3413
  150MOL0     H19795   4.243  10.147  10.844  1.0493 -0.8400  0.1345
  150MOL0     H19796   4.082  10.324  10.799  1.7717  0.2196 -0.7706
  150MOL0     H19797   4.104  10.301  10.625 -1.2105  0.9154 -0.0237
  150MOL0     H19798   3.886   9.956  10.766 -2.4996  3.1587  4.5101
  150MOL0     H19799   4.550   9.774  10.430  1.9608  2.2134  0.9880
  150MOL0     H19800   4.657   9.569  10.519  0.3445 -1.8632  1.2678
  151MOL0     O19801   7.270   4.066   9.041 -0.8393 -0.2668  0.5806
  151MOL0     C19802   7.233   3.955   9.038  0.4252 -0.2453 -0.4422
  151MOL0     O19803   7.109   3.911   9.024  0.3422 -0.4845  0.6550
  151MOL0     C19804   6.997   3.983   9.062 -1.2482  1.2397  0.7286
  151MOL0     C19805   6.877   3.944   9.006 -0.0502  0.3914 -0.0360
  151MOL0     C19806   6.759   4.018   9.027 -0.0271  0.5069  0.7851
  151MOL0     C19807   6.758   4.128   9.103  0.4957  0.1888 -0.0905
  151MOL0     O19808   6.655   4.206   9.135 -0.8203  0.4216  0.3904
  151MOL0     C19809   6.563   4.247   9.033  0.0698 -0.5214  0.2437
  151MOL0     C19810   6.475   4.364   9.079  0.0055  0.3190  0.0504
  151MOL0     C19811   6.397   4.341   9.214  0.3302 -0.0792 -0.4775
  151MOL0     C19812   6.327   4.460   9.281 -0.4088  0.0302  0.0029
  151MOL0     C19813   6.173   4.456   9.290  0.2098 -0.0335 -0.0370
  151MOL0     C19814   6.107   4.585   9.271  0.6426  0.2245 -0.1325
  151MOL0     C19815   6.119   4.676   9.395  0.7297  0.0468  0.3616
  151MOL0     C19816   6.070   4.822   9.372 -0.7616 -0.7156 -0.7492
  151MOL0     N19817   6.147   4.873   9.257 -0.4045  0.0970  0.5445
  151MOL0     C19818   6.276   4.916   9.290 -0.0104 -0.0865 -0.8603
  151MOL0     C19819   6.322   4.970   9.173  0.2157 -0.6194 -0.1096
  151MOL0     C19820   6.460   5.029   9.151 -0.4339  0.4986 -0.0627
  151MOL0     C19821   6.570   4.912   9.171  0.4487  0.5405  1.2497
  151MOL0     C19822   6.603   4.872   9.309 -0.2531 -0.6568 -0.3510
  151MOL0     C19823   6.639   4.986   9.405 -0.4581 -1.6993  0.1459
  151MOL0     O19824   6.532   5.047   9.477  0.1650  0.1264 -1.5306
  151MOL0     C19825   6.514   5.186   9.466 -0.1548  0.1180 -0.0409
  151MOL0     C19826   6.607   5.294   9.446  0.3282  0.0045 -0.6732
  151MOL0     C19827   6.566   5.428   9.440 -0.4428  0.7009  0.0682
  151MOL0     C19828   6.429   5.459   9.448  0.8439  0.0311 -0.2933
  151MOL0     C19829   6.386   5.599   9.455 -0.6746 -0.2086  0.3316
  151MOL0     O19830   6.255   5.621   9.465 -0.2908 -0.1923  1.2098
  151MOL0     C19831   6.216   5.750   9.451 -0.2489  1.1021  0.4054
  151MOL0     C19832   6.154   5.781   9.328 -0.3222 -0.0011 -0.0686
  151MOL0     C19833   6.073   5.899   9.322  0.0217  0.0283 -0.5233
  151MOL0     C19834   6.078   5.996   9.432  0.2733 -0.0050  0.5733
  151MOL0     O19835   6.014   6.116   9.439 -0.0744 -0.6916 -0.0237
  151MOL0     C19836   5.945   6.155   9.320 -0.2916  0.2252  0.7095
  151MOL0     C19837   5.879   6.293   9.343 -0.3140  0.4347 -0.2293
  151MOL0     C19838   5.990   6.395   9.380  0.5763 -1.0037 -0.7073
  151MOL0     C19839   5.925   6.538   9.397  0.1675 -0.0394  1.2964
  151MOL0     C19840   6.018   6.644   9.463 -0.2843  0.4006 -0.1556
  151MOL0     C19841   5.944   6.775   9.464 -0.4991  0.1542 -0.2283
  151MOL0     C19842   5.911   6.843   9.337 -0.0763 -0.2951  1.0502
  151MOL0     C19843   6.024   6.863   9.235  0.9754 -0.5695 -0.2260
  151MOL0    Cl19844   6.161   6.943   9.304  0.1625  0.5647 -0.3191
  151MOL0     C19845   6.151   5.953   9.543  0.7912 -0.0621  0.5158
  151MOL0     C19846   6.211   5.833   9.561 -0.7980 -0.2136 -0.3431
  151MOL0     O19847   6.467   5.687   9.435  0.6217 -0.7287 -0.2469
  151MOL0     C19848   6.334   5.357   9.473 -1.0559 -0.2047  0.1647
  151MOL0     C19849   6.381   5.222   9.480 -0.5527  0.3189 -0.3861
  151MOL0     N19850   6.228   4.941   9.069  0.2793  0.3631  0.0916
  151MOL0     N19851   6.130   4.879   9.128  1.0249  0.7558 -0.2930
  151MOL0     C19852   6.879   4.168   9.156 -0.7195  0.0683 -0.7285
  151MOL0     C19853   7.007   4.100   9.134  0.8809  0.0810 -0.0163
  151MOL0     C19854   7.338   3.853   9.025 -0.2374 -0.6866  1.1495
  151MOL0     C19855   7.312   3.719   8.991  0.0091 -0.5629 -0.1959
  151MOL0     C19856   7.420   3.635   8.984  0.3227 -0.4050  0.3813
  151MOL0     C19857   7.548   3.676   9.016 -0.1733 -0.6535 -1.1456
  151MOL0     O19858   7.661   3.595   9.016  0.5572  0.1427  0.0114
  151MOL0     C19859   7.644   3.451   9.031  0.1394  0.9112  0.2258
  151MOL0     C19860   7.644   3.373   8.900 -0.3453  0.0359 -0.5211
  151MOL0     C19861   7.589   3.228   8.918  0.1231 -0.0540 -0.7295
  151MOL0     C19862   7.688   3.106   8.922  0.1217 -0.3762  0.1900
  151MOL0     C19863   7.792   3.137   9.017  0.3243  0.3290  0.1183
  151MOL0     C19864   7.886   3.158   9.093 -0.5865 -0.2903 -0.4207
  151MOL0     C19865   7.576   3.815   9.023  0.1160  0.4954 -0.6271
  151MOL0     C19866   7.473   3.901   9.037  0.9819 -0.7421  0.2876
  151MOL0     H19867   6.886   3.858   8.940 -1.9573 -0.6415  0.9849
  151MOL0     H19868   6.668   3.983   8.980  1.6499 -1.3409 -1.3161
  151MOL0     H19869   6.490   4.169   9.007  0.4508 -1.0188  0.6425
  151MOL0     H19870   6.599   4.278   8.935 -0.0783  1.2935  0.7299
  151MOL0     H19871   6.388   4.361   9.012 -0.7271  0.5358  0.9620
  151MOL0     H19872   6.524   4.462   9.073 -0.1174  0.2815 -2.4545
  151MOL0     H19873   6.485   4.328   9.278  1.6492 -1.7750 -2.5072
  151MOL0     H19874   6.338   4.249   9.221 -3.7909  2.2796 -0.4557
  151MOL0     H19875   6.360   4.457   9.385 -4.0287 -3.7819  1.3311
  151MOL0     H19876   6.364   4.552   9.236  4.1822  0.1417  3.2909
  151MOL0     H19877   6.143   4.411   9.385  1.4311  1.9607  1.3490
  151MOL0     H19878   6.141   4.393   9.206 -0.2866 -1.2186  1.0059
  151MOL0     H19879   6.000   4.559   9.269  0.6200  0.3278 -0.2511
  151MOL0     H19880   6.143   4.637   9.182 -1.9163  2.8564  0.2166
  151MOL0     H19881   6.077   4.633   9.486  0.2205 -0.7428 -0.2350
  151MOL0     H19882   6.223   4.680   9.429  0.1311 -0.2648  2.3843
  151MOL0     H19883   6.064   4.881   9.464 -1.4712 -0.7231 -0.7847
  151MOL0     H19884   5.963   4.818   9.352 -1.4175 -0.7214  2.2417
  151MOL0     H19885   6.310   4.901   9.392 -2.6044 -2.7124 -0.2394
  151MOL0     H19886   6.461   5.111   9.223 -2.5836 -0.7584  1.5125
  151MOL0     H19887   6.479   5.065   9.050  1.2074  1.5531  0.5808
  151MOL0     H19888   6.664   4.949   9.129 -0.1845 -0.0756 -0.8519
  151MOL0     H19889   6.531   4.827   9.115  2.3527 -0.2127  1.0045
  151MOL0     H19890   6.518   4.818   9.353 -1.9064  1.9667 -0.1026
  151MOL0     H19891   6.693   4.810   9.306  0.4789  0.0713  3.0385
  151MOL0     H19892   6.686   5.064   9.344  2.9337 -3.7710 -0.1076
  151MOL0     H19893   6.719   4.957   9.474 -0.1450  1.0727  1.0699
  151MOL0     H19894   6.713   5.277   9.436 -0.1610 -4.3588 -0.2305
  151MOL0     H19895   6.640   5.506   9.422 -0.4820  0.5532 -0.7588
  151MOL0     H19896   6.167   5.704   9.252 -1.0434  0.1084 -0.3093
  151MOL0     H19897   6.024   5.919   9.227 -1.0596  2.9505  0.5288
  151MOL0     H19898   5.867   6.080   9.303  1.6653 -1.7618  0.0753
  151MOL0     H19899   6.022   6.157   9.242  1.9140  1.0096  2.7913
  151MOL0     H19900   5.795   6.287   9.412 -0.8519  0.4555 -0.8711
  151MOL0     H19901   5.838   6.317   9.245  1.4276 -2.5738 -1.8336
  151MOL0     H19902   6.060   6.383   9.298  2.2454 -1.9176  0.7759
  151MOL0     H19903   6.035   6.359   9.473  1.0232 -0.8806 -0.8719
  151MOL0     H19904   5.910   6.567   9.293  0.4511 -0.1159  1.2333
  151MOL0     H19905   5.827   6.523   9.443 -2.1228 -2.8790 -3.7466
  151MOL0     H19906   6.109   6.659   9.405  0.0468  1.4341  0.5985
  151MOL0     H19907   6.041   6.605   9.563  0.7842 -1.3220 -1.0330
  151MOL0     H19908   6.018   6.835   9.518 -1.1113  0.3251  0.4347
  151MOL0     H19909   5.853   6.777   9.525 -0.1169 -1.5765  0.4581
  151MOL0     H19910   5.827   6.799   9.283 -0.4304  0.8160  0.6661
  151MOL0     H19911   5.869   6.938   9.372 -1.5199 -0.7449  0.5953
  151MOL0     H19912   5.999   6.928   9.150  1.1191  1.1230  0.9754
  151MOL0     H19913   6.042   6.768   9.184  4.6093 -1.8033  2.8524
  151MOL0     H19914   6.169   6.030   9.618 -0.6175 -0.3188  1.1555
  151MOL0     H19915   6.260   5.814   9.656  2.8903  2.2924 -1.5186
  151MOL0     H19916   6.227   5.372   9.490 -0.9415 -0.5271  1.2757
  151MOL0     H19917   6.308   5.147   9.505 -0.4750  0.2483 -0.3724
  151MOL0     H19918   6.869   4.262   9.211  1.8297  0.6193 -1.0904
  151MOL0     H19919   7.096   4.146   9.177  0.6822  1.8393 -1.3819
  151MOL0     H19920   7.214   3.678   8.969  1.4987 -3.3234 -2.2056
  151MOL0     H19921   7.399   3.535   8.948  0.5979 -0.2873 -0.1108
  151MOL0     H19922   7.554   3.415   9.082  0.5797 -1.5425 -0.6153
  151MOL0     H19923   7.730   3.422   9.093  0.9186  1.1706 -0.7031
  151MOL0     H19924   7.577   3.430   8.835 -1.8517  0.9544  1.6825
  151MOL0     H19925   7.746   3.371   8.861  0.1484  2.7762  0.3790
  151MOL0     H19926   7.521   3.207   8.835  0.5399 -2.0551 -0.6302
  151MOL0     H19927   7.527   3.204   9.005 -0.2861 -2.2425 -1.5635
  151MOL0     H19928   7.636   3.013   8.945  0.5977 -1.6370 -3.2820
  151MOL0     H19929   7.737   3.104   8.824 -2.8990  1.7148 -1.5314
  151MOL0     H19930   7.961   3.164   9.169 -0.5525  0.4164 -0.5044
  151MOL0     H19931   7.681   3.845   9.024 -0.4714  2.6961 -0.7832
  151MOL0     H19932   7.504   4.002   9.059 -0.1200 -0.1957 -0.5839
  152MOL0     O19933   0.967   3.316   3.654 -0.6827  0.3010  0.1065
  152MOL0     C19934   1.031   3.244   3.722 -0.0076  0.1319 -0.8501
  152MOL0     O19935   1.003   3.113   3.751  0.5137  0.5504  0.7632
  152MOL0     C19936   0.879   3.072   3.700  0.4428  1.7375 -1.2189
  152MOL0     C19937   0.756   3.111   3.768 -0.6810  0.5076  0.3419
  152MOL0     C19938   0.637   3.055   3.721  0.1847  0.3966 -0.6634
  152MOL0     C19939   0.633   2.958   3.624  0.5417 -0.3148 -0.3364
  152MOL0     O19940   0.515   2.885   3.599 -1.2586  0.6369  0.6014
  152MOL0     C19941   0.482   2.853   3.464  0.1678  0.2695 -0.2889
  152MOL0     C19942   0.332   2.818   3.445  0.5198  0.0106  0.2378
  152MOL0     C19943   0.286   2.719   3.339 -0.2344  0.8561  0.3191
  152MOL0     C19944   0.139   2.660   3.355 -0.5934  0.4270 -0.2961
  152MOL0     C19945   0.035   2.771   3.348 -0.9358 -0.6575 -1.1610
  152MOL0     C19946  -0.019   2.797   3.204 -0.9430 -0.2405  0.2935
  152MOL0     C19947  -0.161   2.746   3.187  0.9192  0.7887 -1.1807
  152MOL0     C19948  -0.284   2.847   3.177 -0.3489 -0.9319 -0.8407
  152MOL0     N19949  -0.407   2.772   3.178 -0.9407 -0.2263 -0.2411
  152MOL0     C19950  -0.469   2.718   3.290  0.0258  0.0690  0.4919
  152MOL0     C19951  -0.587   2.661   3.243  0.2877  0.2159  0.4673
  152MOL0     C19952  -0.696   2.596   3.326  0.1954  0.1308 -0.0388
  152MOL0     C19953  -0.803   2.696   3.369  0.6308 -0.1839 -0.3258
  152MOL0     C19954  -0.903   2.624   3.459  0.0870 -0.5177 -0.2531
  152MOL0     C19955  -0.895   2.676   3.599 -0.2748  0.6335 -0.1523
  152MOL0     O19956  -0.763   2.651   3.660 -0.1006 -0.5670  0.1450
  152MOL0     C19957  -0.705   2.524   3.684 -0.4010  0.2103 -0.1375
  152MOL0     C19958  -0.569   2.533   3.738  0.7291 -0.1757  0.4077
  152MOL0     C19959  -0.497   2.419   3.753 -0.9914 -1.1795  0.5780
  152MOL0     C19960  -0.547   2.296   3.709 -0.2591 -0.1035 -0.1810
  152MOL0     C19961  -0.464   2.175   3.735  0.2452 -0.1084 -0.7380
  152MOL0     O19962  -0.511   2.059   3.677  0.8463  0.6176  0.4102
  152MOL0     C19963  -0.445   1.948   3.703 -0.8251  0.6252  0.0417
  152MOL0     C19964  -0.451   1.891   3.831 -0.3486 -0.9194  0.4335
  152MOL0     C19965  -0.395   1.759   3.849  0.3635 -0.0044  0.7791
  152MOL0     C19966  -0.322   1.701   3.750 -1.1153  0.4719  0.0049
  152MOL0     O19967  -0.273   1.578   3.780  0.0787 -0.0217 -0.1131
  152MOL0     C19968  -0.134   1.541   3.746  0.6136  0.3960 -0.1346
  152MOL0     C19969  -0.110   1.420   3.845 -0.4254  1.2122  0.9194
  152MOL0     C19970   0.039   1.365   3.834 -0.0656  0.3115 -1.0347
  152MOL0     C19971   0.061   1.244   3.918  0.3162 -0.9540  0.7296
  152MOL0     C19972   0.187   1.173   3.885 -0.7306  0.5083 -0.3072
  152MOL0     C19973   0.196   1.035   3.963 -0.5080 -1.2738 -0.1872
  152MOL0     C19974   0.167   1.052   4.119 -0.6821  0.5540  0.2825
  152MOL0     C19975   0.288   1.091   4.200  0.5292  0.3793 -0.1775
  152MOL0    Cl19976   0.243   1.069   4.362  0.0796 -0.1927 -0.1010
  152MOL0     C19977  -0.322   1.751   3.621 -0.4137  0.2120 -0.2812
  152MOL0     C19978  -0.374   1.880   3.609 -0.6815  0.4196  1.6559
  152MOL0     O19979  -0.358   2.188   3.798  0.5757 -0.6584 -0.5544
  152MOL0     C19980  -0.678   2.282   3.661 -0.1305  0.4503 -1.0807
  152MOL0     C19981  -0.753   2.399   3.650 -0.3085  0.9864 -0.2122
  152MOL0     N19982  -0.574   2.669   3.105 -0.3533  0.3438  0.2001
  152MOL0     N19983  -0.477   2.743   3.062 -0.6589  0.1367 -0.2379
  152MOL0     C19984   0.755   2.919   3.563 -0.0883 -0.1680 -0.0094
  152MOL0     C19985   0.879   2.978   3.600 -0.4532  0.5970 -0.7593
  152MOL0     C19986   1.150   3.311   3.785  0.7747 -0.7763  0.0795
  152MOL0     C19987   1.189   3.252   3.904  0.1618  0.5723 -0.0510
  152MOL0     C19988   1.294   3.305   3.969  0.3872  1.0259  0.5628
  152MOL0     C19989   1.357   3.427   3.928 -0.5007 -0.0537 -0.2862
  152MOL0     O19990   1.466   3.468   4.008 -0.0083  0.1477 -0.0475
  152MOL0     C19991   1.548   3.580   3.972 -0.1191 -0.9445 -0.6444
  152MOL0     C19992   1.486   3.706   4.017 -0.5746 -0.6885  0.4570
  152MOL0     C19993   1.456   3.709   4.169  0.0858 -0.0412 -0.4929
  152MOL0     C19994   1.340   3.808   4.193  0.5616 -0.2702 -0.4125
  152MOL0     C19995   1.301   3.805   4.330  0.1089 -0.5192  0.1730
  152MOL0     C19996   1.282   3.791   4.450 -0.4740 -0.2501  0.6788
  152MOL0     C19997   1.316   3.485   3.806 -0.4462  0.5886 -1.2281
  152MOL0     C19998   1.213   3.424   3.734 -0.4684 -0.1219  0.4666
  152MOL0     H19999   0.746   3.188   3.844 -0.7389 -1.6590  2.6839
  152MOL0     H20000   0.545   3.071   3.777  0.3254 -1.2379  0.0886
  152MOL0     H20001   0.544   2.770   3.429 -3.3826 -2.7119 -0.1312
  152MOL0     H20002   0.500   2.942   3.403 -2.8420  0.7782 -0.5722
  152MOL0     H20003   0.274   2.910   3.434  0.7661  0.1938  0.4723
  152MOL0     H20004   0.299   2.786   3.544 -1.9009 -1.0514 -0.8403
  152MOL0     H20005   0.354   2.633   3.331 -1.7858 -0.7474  3.0461
  152MOL0     H20006   0.289   2.773   3.244 -1.1837  1.1638  0.4571
  152MOL0     H20007   0.095   2.584   3.290 -3.8364  1.0974  0.9304
  152MOL0     H20008   0.115   2.619   3.453 -1.1982 -0.8717 -0.9565
  152MOL0     H20009   0.086   2.865   3.372 -1.1961 -1.1017  1.3183
  152MOL0     H20010  -0.044   2.754   3.421  0.6423  1.8750  1.3253
  152MOL0     H20011   0.047   2.747   3.133 -0.3490  1.0755 -0.1111
  152MOL0     H20012  -0.029   2.904   3.182  1.3744 -0.2661 -1.1531
  152MOL0     H20013  -0.176   2.676   3.104 -4.1767 -3.7300  2.7237
  152MOL0     H20014  -0.171   2.682   3.276 -0.2516  2.4327 -0.0496
  152MOL0     H20015  -0.273   2.897   3.081  1.6614  0.7879  0.1960
  152MOL0     H20016  -0.269   2.912   3.264  0.8329 -1.8875 -0.2865
  152MOL0     H20017  -0.443   2.730   3.394 -3.3005 -1.3009  1.6220
  152MOL0     H20018  -0.640   2.557   3.412  3.6375 -1.0379 -2.5901
  152MOL0     H20019  -0.745   2.510   3.278 -0.8648  1.3657 -1.2318
  152MOL0     H20020  -0.859   2.731   3.282 -0.5931  0.6737  0.7624
  152MOL0     H20021  -0.757   2.778   3.425 -0.0294 -1.1926  1.8158
  152MOL0     H20022  -1.005   2.640   3.422 -0.9926 -1.1245  2.2547
  152MOL0     H20023  -0.893   2.515   3.456 -1.6076 -0.6767 -2.1360
  152MOL0     H20024  -0.959   2.620   3.668  1.6934 -1.9685 -0.2684
  152MOL0     H20025  -0.927   2.780   3.594 -2.1733  0.0353 -1.9801
  152MOL0     H20026  -0.530   2.628   3.773  0.8270  0.3274 -0.9766
  152MOL0     H20027  -0.407   2.426   3.812 -1.1915 -0.6386  0.8314
  152MOL0     H20028  -0.501   1.946   3.910  0.8444  0.7296  0.0896
  152MOL0     H20029  -0.404   1.703   3.942 -0.4569 -0.2561  0.5628
  152MOL0     H20030  -0.074   1.628   3.773 -1.7898  1.6161  1.6054
  152MOL0     H20031  -0.113   1.507   3.644  5.8472  3.1860 -0.3583
  152MOL0     H20032  -0.189   1.347   3.826 -1.1895  2.1496  0.4460
  152MOL0     H20033  -0.124   1.458   3.946  1.4329 -0.8436  2.0551
  152MOL0     H20034   0.120   1.438   3.844  3.0500 -3.0190  0.4239
  152MOL0     H20035   0.053   1.331   3.731  0.9023 -1.8504 -0.2494
  152MOL0     H20036   0.062   1.277   4.022 -2.7132  4.0992 -0.4781
  152MOL0     H20037  -0.026   1.179   3.910  0.8536 -1.7231  0.9660
  152MOL0     H20038   0.269   1.237   3.918 -0.2829  0.1439 -0.6987
  152MOL0     H20039   0.211   1.148   3.781  2.2800 -1.8998  0.7869
  152MOL0     H20040   0.292   0.986   3.947  0.9942  1.0390  1.2687
  152MOL0     H20041   0.124   0.966   3.917  0.8408 -2.2683 -0.8662
  152MOL0     H20042   0.078   1.111   4.142  0.5400  1.7112  2.2818
  152MOL0     H20043   0.152   0.951   4.158  1.8063  0.5184  1.3625
  152MOL0     H20044   0.314   1.195   4.179 -2.7990  1.7953  1.9653
  152MOL0     H20045   0.375   1.027   4.181  0.8873  0.9411 -0.4719
  152MOL0     H20046  -0.273   1.694   3.543  0.3539  1.8893 -1.0895
  152MOL0     H20047  -0.374   1.925   3.511 -4.4101 -3.2698 -0.3755
  152MOL0     H20048  -0.713   2.185   3.625 -0.0875  0.8739 -2.3219
  152MOL0     H20049  -0.856   2.388   3.618  0.0274  0.2635 -1.1025
  152MOL0     H20050   0.759   2.842   3.486  1.7391 -2.3696  2.1367
  152MOL0     H20051   0.968   2.939   3.551 -0.7503 -1.0704 -0.0388
  152MOL0     H20052   1.141   3.162   3.943  0.5213  1.0800  1.6354
  152MOL0     H20053   1.322   3.261   4.064 -0.2159 -0.2611  0.1559
  152MOL0     H20054   1.582   3.597   3.870  1.1527  6.2425  0.4499
  152MOL0     H20055   1.632   3.566   4.041 -2.1259 -1.9494  1.7802
  152MOL0     H20056   1.552   3.789   3.990 -0.3743 -0.9659  0.0823
  152MOL0     H20057   1.402   3.721   3.949  0.5572 -0.2794 -0.8952
  152MOL0     H20058   1.545   3.751   4.218  0.6329  0.8053 -2.1201
  152MOL0     H20059   1.429   3.607   4.196  1.2032 -0.9547 -2.5718
  152MOL0     H20060   1.384   3.907   4.176  3.0427 -0.8411  2.0219
  152MOL0     H20061   1.258   3.803   4.120 -1.2195  2.1410  1.2188
  152MOL0     H20062   1.261   3.773   4.554 -0.2386 -0.0799  0.7571
  152MOL0     H20063   1.362   3.580   3.783  0.4957  0.2284 -0.8943
  152MOL0     H20064   1.184   3.451   3.633  1.3351  2.0834  0.4652
  153MOL0     O20065   1.789   8.025   9.341 -0.4230  0.7820  0.2372
  153MOL0     C20066   1.673   7.995   9.351 -0.7962  1.7274  1.0629
  153MOL0     O20067   1.566   8.078   9.363  1.6752  0.2126  0.4771
  153MOL0     C20068   1.577   8.214   9.406  0.7863  0.0894  0.0426
  153MOL0     C20069   1.690   8.253   9.489 -0.0146 -0.8981 -0.8521
  153MOL0     C20070   1.698   8.392   9.520 -0.5521  0.2637  0.1152
  153MOL0     C20071   1.596   8.482   9.495 -0.7010 -0.0000  0.4436
  153MOL0     O20072   1.608   8.607   9.537 -0.2961 -0.4599  0.4421
  153MOL0     C20073   1.505   8.671   9.608  0.1673 -0.4368  0.0695
  153MOL0     C20074   1.472   8.599   9.739 -0.4865 -0.7143 -0.1864
  153MOL0     C20075   1.370   8.481   9.738 -1.3855 -0.1677  0.4516
  153MOL0     C20076   1.239   8.510   9.665  0.0341 -0.5587  0.9778
  153MOL0     C20077   1.124   8.415   9.704  0.4283  0.9283 -0.4627
  153MOL0     C20078   1.016   8.388   9.602  0.3851  0.4612 -0.2390
  153MOL0     C20079   0.946   8.249   9.626 -0.1280 -0.2255 -0.1048
  153MOL0     C20080   0.864   8.204   9.499  0.2716 -0.6323 -0.1241
  153MOL0     N20081   0.933   8.192   9.370  0.2270 -0.4991  0.1750
  153MOL0     C20082   1.000   8.079   9.324 -0.1495  0.1935  0.0713
  153MOL0     C20083   1.060   8.112   9.210 -0.9355  0.3843  0.1556
  153MOL0     C20084   1.143   8.017   9.129  0.9905 -0.3429 -0.6641
  153MOL0     C20085   1.079   7.958   9.007 -0.0934 -0.4424  0.1306
  153MOL0     C20086   1.165   7.983   8.877 -0.6181 -0.1489 -0.3879
  153MOL0     C20087   1.124   7.890   8.768  0.2408 -0.2625 -0.1565
  153MOL0     O20088   1.154   7.754   8.809  0.3957 -0.7101 -0.2106
  153MOL0     C20089   1.151   7.644   8.724  0.0447 -1.1633  0.1124
  153MOL0     C20090   1.089   7.652   8.598 -0.6516  0.0888 -0.0664
  153MOL0     C20091   1.102   7.543   8.508  0.7000 -0.3437  0.0187
  153MOL0     C20092   1.141   7.420   8.550  0.7047  0.5649 -0.4959
  153MOL0     C20093   1.163   7.309   8.454  0.8458 -0.2298 -0.7994
  153MOL0     O20094   1.240   7.201   8.503  0.2441  0.5894  0.8510
  153MOL0     C20095   1.243   7.086   8.426 -0.3528  0.7809 -0.7018
  153MOL0     C20096   1.129   7.036   8.370  0.2475 -0.1772  0.8174
  153MOL0     C20097   1.127   6.941   8.269 -0.4600  0.4874  0.7854
  153MOL0     C20098   1.249   6.872   8.249 -0.0604  0.3194 -1.1617
  153MOL0     O20099   1.249   6.765   8.167 -0.1606 -0.0959 -0.1555
  153MOL0     C20100   1.269   6.645   8.231 -0.4520  0.4432 -0.3377
  153MOL0     C20101   1.145   6.591   8.300 -0.0031 -0.1353  0.1488
  153MOL0     C20102   1.181   6.455   8.368 -0.6778  0.7043  1.0490
  153MOL0     C20103   1.079   6.418   8.475  1.2816  0.0563 -0.2252
  153MOL0     C20104   1.112   6.269   8.525  0.7095 -0.2822 -0.0256
  153MOL0     C20105   1.014   6.232   8.636  0.1274  0.0727  0.1733
  153MOL0     C20106   0.874   6.197   8.570  0.5325 -0.0261 -0.3287
  153MOL0     C20107   0.875   6.074   8.486  0.7715  0.2522 -0.0820
  153MOL0    Cl20108   0.919   5.931   8.585  0.0880 -0.1467 -0.2485
  153MOL0     C20109   1.366   6.913   8.308  0.7462  0.1912 -0.1838
  153MOL0     C20110   1.370   7.019   8.400 -0.3768 -0.6262  0.4772
  153MOL0     O20111   1.125   7.317   8.339 -0.4066 -0.7098  0.2460
  153MOL0     C20112   1.188   7.408   8.684  1.1220 -0.0577  0.5064
  153MOL0     C20113   1.204   7.520   8.767 -0.4970  0.1587  0.4976
  153MOL0     N20114   1.032   8.243   9.186  0.9357  0.4178 -0.1782
  153MOL0     N20115   0.935   8.283   9.264 -0.2282 -0.3354  0.0427
  153MOL0     C20116   1.487   8.437   9.416 -0.4180 -0.7818 -0.0110
  153MOL0     C20117   1.480   8.309   9.371  0.3698 -0.1417 -0.5459
  153MOL0     C20118   1.646   7.849   9.317  0.7059 -0.3365 -1.0580
  153MOL0     C20119   1.757   7.759   9.293 -0.4223 -1.1281  0.5169
  153MOL0     C20120   1.735   7.619   9.264  0.7664 -0.9657 -1.0209
  153MOL0     C20121   1.604   7.566   9.253  0.0591 -0.0230  0.5215
  153MOL0     O20122   1.560   7.445   9.218 -0.5095 -0.0952  0.5388
  153MOL0     C20123   1.628   7.346   9.293 -0.1684 -0.3242 -0.6166
  153MOL0     C20124   1.573   7.354   9.436  0.0298 -0.3862 -0.0643
  153MOL0     C20125   1.633   7.242   9.516  0.1573 -0.7655  0.1741
  153MOL0     C20126   1.604   7.261   9.659 -0.7408  0.1754 -0.2552
  153MOL0     C20127   1.676   7.367   9.728  0.4048 -0.0138 -0.1109
  153MOL0     C20128   1.742   7.462   9.771  0.2875 -0.2291 -0.1246
  153MOL0     C20129   1.502   7.658   9.267  0.0578  0.0166  0.7215
  153MOL0     C20130   1.515   7.799   9.302 -0.4451 -0.8776  0.3314
  153MOL0     H20131   1.756   8.181   9.536 -0.1576 -0.2409  0.4042
  153MOL0     H20132   1.784   8.413   9.582  0.8613 -1.4328 -1.1652
  153MOL0     H20133   1.415   8.680   9.547  0.5548 -0.8350 -0.5657
  153MOL0     H20134   1.545   8.772   9.617  2.3601 -0.9837 -2.4542
  153MOL0     H20135   1.421   8.673   9.801  0.5874 -0.6623  0.6766
  153MOL0     H20136   1.568   8.575   9.785  0.1370  1.9462  0.0455
  153MOL0     H20137   1.349   8.470   9.845  2.4109  0.7810  1.4535
  153MOL0     H20138   1.421   8.394   9.694  1.4076  0.8536  1.4409
  153MOL0     H20139   1.207   8.613   9.688  2.2700  0.1368  1.2445
  153MOL0     H20140   1.264   8.510   9.558  1.5566 -0.1443  1.3057
  153MOL0     H20141   1.082   8.462   9.794  2.2490 -0.0596  0.9793
  153MOL0     H20142   1.160   8.315   9.727 -2.4679  0.1864  1.3117
  153MOL0     H20143   1.054   8.394   9.499 -3.0017 -0.0398 -1.6340
  153MOL0     H20144   0.947   8.471   9.612 -1.4369 -0.7408 -2.0934
  153MOL0     H20145   1.019   8.171   9.652  0.6647  0.9816  1.3755
  153MOL0     H20146   0.886   8.261   9.716  0.0361  2.0390 -0.2579
  153MOL0     H20147   0.793   8.286   9.488  1.5737  0.2535 -2.7895
  153MOL0     H20148   0.807   8.112   9.515 -0.1019 -0.2696  0.7015
  153MOL0     H20149   0.996   7.982   9.372 -1.7650 -0.1341 -0.6584
  153MOL0     H20150   1.189   7.941   9.193  2.6616  0.9711 -0.2419
  153MOL0     H20151   1.230   8.073   9.093  0.9412  1.5994  2.0056
  153MOL0     H20152   0.980   8.001   8.992  0.2888 -0.4379 -2.8814
  153MOL0     H20153   1.068   7.850   9.021  1.1406 -0.7161 -0.8054
  153MOL0     H20154   1.161   8.089   8.849  0.6835  0.8434  2.6367
  153MOL0     H20155   1.270   7.964   8.901 -0.4270  0.2617 -0.8777
  153MOL0     H20156   1.156   7.913   8.666  0.5154  1.7552  0.3370
  153MOL0     H20157   1.017   7.898   8.748  0.1547  2.8847  0.9506
  153MOL0     H20158   1.057   7.745   8.553 -1.1996  0.4501  1.0236
  153MOL0     H20159   1.064   7.558   8.408  2.3508  0.3116 -0.5367
  153MOL0     H20160   1.035   7.080   8.401  0.2857 -1.1772  2.4588
  153MOL0     H20161   1.033   6.917   8.222  0.7946 -0.4470 -1.4063
  153MOL0     H20162   1.352   6.642   8.302  0.7924 -2.5321 -1.7195
  153MOL0     H20163   1.295   6.564   8.161 -1.7192 -0.1094 -0.1827
  153MOL0     H20164   1.070   6.571   8.223  0.1932  1.1949 -0.4092
  153MOL0     H20165   1.108   6.672   8.363  1.0239  1.0309 -0.6758
  153MOL0     H20166   1.281   6.453   8.412 -0.3405  4.6675  0.8389
  153MOL0     H20167   1.180   6.378   8.290  0.6892  1.5411  0.1460
  153MOL0     H20168   1.085   6.479   8.566  0.8202 -2.0667  1.3083
  153MOL0     H20169   0.977   6.423   8.435  0.4683 -1.7499  1.4554
  153MOL0     H20170   1.215   6.276   8.563  0.4848  2.1133  0.3433
  153MOL0     H20171   1.106   6.197   8.443 -0.6740  0.8642 -0.9783
  153MOL0     H20172   1.005   6.311   8.710  0.2374 -0.4772  0.7768
  153MOL0     H20173   1.049   6.147   8.694 -2.4666 -1.3696 -0.1964
  153MOL0     H20174   0.805   6.172   8.651 -1.8180 -2.0846 -2.7818
  153MOL0     H20175   0.833   6.277   8.508 -1.3283  1.8569  3.0515
  153MOL0     H20176   0.942   6.099   8.404  1.0489 -0.0737  0.0452
  153MOL0     H20177   0.785   6.050   8.429  0.0838  2.7372 -0.1629
  153MOL0     H20178   1.460   6.872   8.272  1.7720  2.3030 -0.0877
  153MOL0     H20179   1.468   7.051   8.435  0.3403 -1.3900 -0.7324
  153MOL0     H20180   1.193   7.311   8.733  2.2413  0.1738  0.8666
  153MOL0     H20181   1.266   7.518   8.856 -1.0318 -1.5412  0.8787
  153MOL0     H20182   1.425   8.520   9.383 -0.2432  0.5022  2.6171
  153MOL0     H20183   1.398   8.276   9.308 -2.6894 -2.7832  4.2359
  153MOL0     H20184   1.860   7.791   9.286 -0.4320 -1.3232 -0.8489
  153MOL0     H20185   1.824   7.564   9.234  2.4649  0.8607  0.3441
  153MOL0     H20186   1.734   7.369   9.282 -0.5796  0.5378 -3.7394
  153MOL0     H20187   1.601   7.241   9.274  0.1299 -0.6347  0.6123
  153MOL0     H20188   1.602   7.452   9.474  0.1322  0.3422 -1.9605
  153MOL0     H20189   1.464   7.340   9.428 -0.1276  0.5089  0.3721
  153MOL0     H20190   1.741   7.223   9.514  0.5175  0.4024  3.0125
  153MOL0     H20191   1.591   7.148   9.479  1.4213 -0.8383 -1.1719
  153MOL0     H20192   1.496   7.278   9.668 -0.8793 -1.1752  0.9605
  153MOL0     H20193   1.626   7.167   9.710 -3.0984 -0.2066  0.1693
  153MOL0     H20194   1.787   7.531   9.840 -2.2579  2.4893 -0.9689
  153MOL0     H20195   1.405   7.610   9.264  1.5805 -3.2735  0.4723
  153MOL0     H20196   1.431   7.866   9.316 -1.2449 -2.2680  2.6388
  154MOL0     O20197   0.422   2.241   8.468  0.4759 -0.7248 -0.2593
  154MOL0     C20198   0.413   2.333   8.548 -0.4913 -0.4832  0.3349
  154MOL0     O20199   0.350   2.326   8.677  0.3726  0.0974 -0.3981
  154MOL0     C20200   0.291   2.203   8.716 -1.7494  0.4315 -0.4036
  154MOL0     C20201   0.367   2.081   8.706  0.9918 -0.0852 -0.1494
  154MOL0     C20202   0.303   1.954   8.732  0.4923 -0.2293  0.3923
  154MOL0     C20203   0.176   1.949   8.795  1.4222 -0.4544 -0.8079
  154MOL0     O20204   0.132   1.829   8.844  0.9991  0.6201 -1.1131
  154MOL0     C20205   0.059   1.830   8.973 -0.1455  0.8434 -0.2254
  154MOL0     C20206   0.089   1.705   9.062  0.5444  0.5990  0.4953
  154MOL0     C20207   0.234   1.693   9.112 -0.3400  0.3850 -0.6458
  154MOL0     C20208   0.271   1.549   9.177  0.3167  0.1296 -0.3111
  154MOL0     C20209   0.194   1.537   9.310 -0.0830  0.0993 -0.6213
  154MOL0     C20210   0.044   1.490   9.304 -0.5014 -0.6709  1.0208
  154MOL0     C20211   0.013   1.399   9.425 -0.2902 -0.2093 -1.0729
  154MOL0     C20212  -0.120   1.318   9.412  0.5327  0.1522  0.4262
  154MOL0     N20213  -0.140   1.210   9.514 -0.3173  0.7465 -0.5908
  154MOL0     C20214  -0.164   1.222   9.654  0.0735 -0.3188  0.4618
  154MOL0     C20215  -0.151   1.098   9.705 -0.6553  1.2104 -0.4209
  154MOL0     C20216  -0.152   1.061   9.848 -0.6973  0.5849  0.0949
  154MOL0     C20217  -0.284   1.082   9.921 -1.0499 -0.0039 -0.2949
  154MOL0     C20218  -0.298   1.023  10.059 -0.7607  0.0008 -0.4799
  154MOL0     C20219  -0.351   0.885  10.065  0.2335 -0.3516  0.7404
  154MOL0     O20220  -0.261   0.796   9.992 -0.3268  0.2982  0.5953
  154MOL0     C20221  -0.151   0.748  10.064  1.1892  0.0025  1.2113
  154MOL0     C20222  -0.067   0.669   9.991 -1.1248 -0.2765  0.4928
  154MOL0     C20223   0.048   0.608  10.056 -0.0446  0.3300  0.4278
  154MOL0     C20224   0.071   0.627  10.200  0.5098  0.1879  0.6770
  154MOL0     C20225   0.154   0.534  10.280 -0.6728 -0.4366  0.5142
  154MOL0     O20226   0.186   0.564  10.407 -0.3159  0.1701 -0.7580
  154MOL0     C20227   0.265   0.497  10.491 -0.3675 -0.3840  0.7719
  154MOL0     C20228   0.368   0.406  10.459 -0.3340 -0.2343 -1.0928
  154MOL0     C20229   0.453   0.346  10.555  0.7621 -0.0397 -0.2166
  154MOL0     C20230   0.433   0.370  10.694 -0.2138 -0.7371  1.3161
  154MOL0     O20231   0.499   0.312  10.797 -0.0926  0.2201  0.1994
  154MOL0     C20232   0.613   0.225  10.769 -0.0569 -0.4194 -0.7249
  154MOL0     C20233   0.697   0.189  10.894  0.0833 -1.1725  1.0598
  154MOL0     C20234   0.618   0.105  10.999 -0.3794 -0.7592  0.5567
  154MOL0     C20235   0.682   0.119  11.143  0.5212 -0.5322  0.2516
  154MOL0     C20236   0.630  -0.001  11.232  0.2144 -0.5139 -1.1080
  154MOL0     C20237   0.726  -0.041  11.343  0.2248  0.6943  0.5766
  154MOL0     C20238   0.719   0.061  11.458  0.5610 -0.4290 -0.9434
  154MOL0     C20239   0.836   0.080  11.553  0.4773 -0.0769  0.2567
  154MOL0    Cl20240   0.877  -0.085  11.616 -0.4538  0.1992 -0.1818
  154MOL0     C20241   0.331   0.464  10.724  0.0511 -0.3793  0.0292
  154MOL0     C20242   0.247   0.521  10.630  0.3842  0.6951  0.9007
  154MOL0     O20243   0.190   0.437  10.220 -0.5133  0.0699 -0.8260
  154MOL0     C20244  -0.016   0.720  10.256 -1.0514 -0.2957 -0.2363
  154MOL0     C20245  -0.124   0.778  10.196 -0.2637 -1.4952  1.2608
  154MOL0     N20246  -0.121   1.019   9.598 -0.1067  0.8329  0.5814
  154MOL0     N20247  -0.120   1.079   9.483 -0.5875 -0.0519  0.1193
  154MOL0     C20248   0.106   2.074   8.813 -0.6848  0.0646 -0.4216
  154MOL0     C20249   0.162   2.193   8.762  0.2640 -0.0670 -0.9923
  154MOL0     C20250   0.468   2.468   8.503 -0.2684 -0.7357  0.7247
  154MOL0     C20251   0.457   2.578   8.587  0.5171 -0.0388  0.6072
  154MOL0     C20252   0.518   2.707   8.562 -0.0421  0.0024  0.1962
  154MOL0     C20253   0.604   2.718   8.450 -0.1504 -0.3997  0.0184
  154MOL0     O20254   0.664   2.839   8.431 -0.0962  0.9201  0.4695
  154MOL0     C20255   0.683   2.893   8.295  0.9280  0.2650 -0.7470
  154MOL0     C20256   0.767   3.009   8.305  0.0208 -0.5303 -0.2697
  154MOL0     C20257   0.723   3.123   8.399  0.0602 -0.8564 -1.0266
  154MOL0     C20258   0.819   3.240   8.388  0.7813 -0.6362  0.0435
  154MOL0     C20259   0.955   3.211   8.413 -0.5747  0.8362 -0.1645
  154MOL0     C20260   1.072   3.188   8.431  0.4331  0.5600  0.3983
  154MOL0     C20261   0.611   2.605   8.361 -0.0280  0.2021 -0.2787
  154MOL0     C20262   0.536   2.487   8.386  0.7477  0.5860 -0.3727
  154MOL0     H20263   0.458   2.081   8.647  0.7375  1.4754 -0.5813
  154MOL0     H20264   0.351   1.856   8.727 -1.0985 -1.0386  0.2476
  154MOL0     H20265  -0.047   1.856   8.964 -1.6075 -4.5943 -2.3384
  154MOL0     H20266   0.096   1.917   9.028  1.2792  1.5401 -2.1510
  154MOL0     H20267   0.083   1.621   8.992 -1.4834  0.9905  0.1564
  154MOL0     H20268   0.008   1.688   9.133 -0.7872 -2.6810 -1.5949
  154MOL0     H20269   0.254   1.781   9.173  1.8076 -0.7088  0.3441
  154MOL0     H20270   0.303   1.696   9.026  1.3985 -1.0209  0.6089
  154MOL0     H20271   0.245   1.469   9.108 -0.1466  0.1440 -0.1517
  154MOL0     H20272   0.379   1.558   9.195  0.7733  2.7967 -3.3069
  154MOL0     H20273   0.196   1.634   9.361  1.8933 -0.4134  0.3934
  154MOL0     H20274   0.249   1.460   9.365 -0.5836 -2.1402 -3.0387
  154MOL0     H20275   0.047   1.439   9.207  0.2351  2.3707 -0.7133
  154MOL0     H20276  -0.025   1.575   9.302  0.6790  0.3257  0.7931
  154MOL0     H20277   0.101   1.334   9.422  1.0663  1.5729 -3.6076
  154MOL0     H20278   0.006   1.463   9.513 -2.4464  0.6237 -1.7828
  154MOL0     H20279  -0.127   1.277   9.311 -1.7263 -0.5015  0.7942
  154MOL0     H20280  -0.202   1.388   9.427 -0.6831 -0.3076 -3.0358
  154MOL0     H20281  -0.191   1.312   9.708  0.8679  0.6086 -0.6461
  154MOL0     H20282  -0.063   1.115   9.881 -0.0060  0.8931 -2.0784
  154MOL0     H20283  -0.124   0.955   9.845  2.7301  1.3562  0.6359
  154MOL0     H20284  -0.370   1.056   9.858 -4.6873  3.3403  2.7299
  154MOL0     H20285  -0.307   1.189   9.932 -5.6558 -0.6472 -1.6857
  154MOL0     H20286  -0.198   1.026  10.102  0.4040  0.9348 -3.0718
  154MOL0     H20287  -0.353   1.092  10.124 -2.0570  0.8322 -2.3579
  154MOL0     H20288  -0.438   0.876   9.999 -0.1802  3.4418  0.5978
  154MOL0     H20289  -0.370   0.852  10.168 -0.4111 -1.7188  0.2103
  154MOL0     H20290  -0.088   0.650   9.887  0.8298 -1.3471  0.2612
  154MOL0     H20291   0.121   0.570   9.985 -0.2572 -0.0301  0.3982
  154MOL0     H20292   0.389   0.385  10.355 -2.4862  0.2193 -1.6589
  154MOL0     H20293   0.521   0.277  10.506 -0.2551 -2.1343  1.1787
  154MOL0     H20294   0.677   0.275  10.696  2.7148 -1.5996  0.7401
  154MOL0     H20295   0.575   0.136  10.719 -3.6944 -0.0924  1.0788
  154MOL0     H20296   0.723   0.283  10.944 -0.7301 -0.2675 -0.1662
  154MOL0     H20297   0.787   0.135  10.862 -0.9159 -2.2984  0.0741
  154MOL0     H20298   0.622  -0.001  10.972 -4.1056 -0.7075 -0.6380
  154MOL0     H20299   0.515   0.138  11.012  0.3767  0.7370  3.9037
  154MOL0     H20300   0.791   0.127  11.139  0.3354  4.0478 -1.2004
  154MOL0     H20301   0.643   0.200  11.204  0.4407 -2.3070  2.7114
  154MOL0     H20302   0.614  -0.094  11.176 -1.8651  0.7190 -2.7270
  154MOL0     H20303   0.531   0.032  11.264  1.5609  1.1599  1.7608
  154MOL0     H20304   0.827  -0.046  11.300  0.4809 -0.3266  1.2469
  154MOL0     H20305   0.693  -0.141  11.375  0.0728 -0.6126 -3.1716
  154MOL0     H20306   0.701   0.160  11.414 -2.1109  0.6879  2.2142
  154MOL0     H20307   0.620   0.058  11.505  0.4398  0.4967 -1.1083
  154MOL0     H20308   0.817   0.141  11.641  1.9664 -0.3831  0.8149
  154MOL0     H20309   0.923   0.122  11.502  0.0860 -1.8415 -2.0398
  154MOL0     H20310   0.294   0.482  10.824  0.0535  2.1719 -0.3448
  154MOL0     H20311   0.163   0.579  10.666 -1.9509 -2.4175  0.8431
  154MOL0     H20312   0.001   0.751  10.358 -0.8189  0.1853 -0.4167
  154MOL0     H20313  -0.175   0.847  10.262  2.6232  0.5323  1.5526
  154MOL0     H20314   0.013   2.070   8.868  0.0091 -3.8201  0.7839
  154MOL0     H20315   0.104   2.284   8.773  3.0321  1.5271  1.8262
  154MOL0     H20316   0.424   2.564   8.690 -0.4211  1.4644  0.5502
  154MOL0     H20317   0.512   2.782   8.639  1.0933  1.7444 -1.3273
  154MOL0     H20318   0.582   2.924   8.265 -0.9639 -4.1768  0.3079
  154MOL0     H20319   0.725   2.825   8.221  1.2435  0.6119 -0.8901
  154MOL0     H20320   0.867   2.968   8.320 -0.1263 -1.1605 -0.9315
  154MOL0     H20321   0.780   3.046   8.203  0.4604 -1.1074 -0.4265
  154MOL0     H20322   0.719   3.091   8.503  1.8584 -0.0934 -0.6867
  154MOL0     H20323   0.623   3.161   8.378  0.5409  0.8558 -0.3618
  154MOL0     H20324   0.806   3.281   8.287 -1.0295 -3.1995 -0.8708
  154MOL0     H20325   0.782   3.313   8.460  1.2016 -1.2599  0.9092
  154MOL0     H20326   1.174   3.168   8.455  0.2049  0.9541  1.7873
  154MOL0     H20327   0.670   2.609   8.270  0.7964 -2.5832  0.0305
  154MOL0     H20328   0.559   2.407   8.318  1.9263 -0.0654  0.7551
  155MOL0     O20329   0.395   5.430   0.125  0.3092  0.1751 -0.0457
  155MOL0     C20330   0.331   5.474   0.218  0.0104  1.3430 -0.4660
  155MOL0     O20331   0.245   5.412   0.310 -0.0221 -0.0157  0.3148
  155MOL0     C20332   0.227   5.276   0.322 -0.4561 -0.0038 -0.2905
  155MOL0     C20333   0.291   5.173   0.251 -0.3325  1.0949 -0.6567
  155MOL0     C20334   0.267   5.031   0.273  0.9455  0.5728  0.2515
  155MOL0     C20335   0.168   4.987   0.360 -0.2917 -0.0764  0.7883
  155MOL0     O20336   0.133   4.868   0.391  0.4341  0.3357 -0.8266
  155MOL0     C20337   0.125   4.772   0.269  0.9931 -0.1246  0.3540
  155MOL0     C20338   0.028   4.660   0.306 -0.9555  0.0948  0.3701
  155MOL0     C20339  -0.114   4.718   0.336  0.3044  0.3931 -0.5352
  155MOL0     C20340  -0.208   4.597   0.350  0.3654 -0.0310  0.7370
  155MOL0     C20341  -0.182   4.467   0.260 -0.0863 -0.2521  0.3482
  155MOL0     C20342  -0.305   4.370   0.262 -0.6995  0.0729 -0.3171
  155MOL0     C20343  -0.398   4.371   0.141  0.5769 -0.2207 -0.8072
  155MOL0     C20344  -0.541   4.419   0.153  0.3932 -0.3744  0.3205
  155MOL0     N20345  -0.551   4.568   0.194 -0.2488 -0.0972  0.0589
  155MOL0     C20346  -0.485   4.676   0.139  0.1666 -0.1095  0.0301
  155MOL0     C20347  -0.529   4.780   0.219  0.7377 -0.2826  0.4487
  155MOL0     C20348  -0.465   4.916   0.223  0.2300  0.3558  0.5498
  155MOL0     C20349  -0.388   4.942   0.357 -0.4787 -0.2695 -0.4355
  155MOL0     C20350  -0.449   5.045   0.449  0.0450  0.4429 -0.1771
  155MOL0     C20351  -0.373   5.052   0.580 -0.1234  0.6141 -0.1318
  155MOL0     O20352  -0.338   5.187   0.598  0.4859  0.7011 -0.5234
  155MOL0     C20353  -0.239   5.208   0.694  0.7807 -0.5763 -1.1363
  155MOL0     C20354  -0.236   5.152   0.827  0.0265 -0.5179 -0.0941
  155MOL0     C20355  -0.149   5.193   0.925  1.6921 -0.7512  0.3923
  155MOL0     C20356  -0.046   5.280   0.892 -0.7481 -0.4169  0.3564
  155MOL0     C20357   0.053   5.324   0.991  0.9426 -0.4640 -0.5360
  155MOL0     O20358   0.141   5.420   0.958  0.1234 -0.4833  0.2836
  155MOL0     C20359   0.228   5.454   1.062 -0.2007  0.2179  0.8571
  155MOL0     C20360   0.215   5.567   1.133 -0.7294 -0.5740 -0.0235
  155MOL0     C20361   0.308   5.615   1.232  0.1525 -0.5409 -0.2090
  155MOL0     C20362   0.419   5.533   1.269 -0.1343 -0.3866  0.0748
  155MOL0     O20363   0.525   5.565   1.357  0.7754  0.5645  0.4764
  155MOL0     C20364   0.584   5.698   1.346  0.9325  0.2593  0.8335
  155MOL0     C20365   0.673   5.709   1.475  0.0587 -0.3126  0.1954
  155MOL0     C20366   0.765   5.828   1.449  0.6846  0.6338 -0.9111
  155MOL0     C20367   0.880   5.830   1.550 -0.3711 -0.5641 -0.0574
  155MOL0     C20368   0.981   5.940   1.533 -1.0861 -0.9413  1.8981
  155MOL0     C20369   1.060   5.908   1.394 -0.1271 -0.5760  0.1291
  155MOL0     C20370   1.130   6.031   1.344  0.1304  0.2899 -0.6703
  155MOL0     C20371   1.187   6.025   1.204  0.1055 -0.5039  0.1591
  155MOL0    Cl20372   1.321   5.895   1.199 -0.2428 -0.1045  0.6672
  155MOL0     C20373   0.431   5.407   1.207 -0.1034  0.0168  0.3358
  155MOL0     C20374   0.336   5.371   1.098 -0.3442  0.7962  0.0720
  155MOL0     O20375   0.036   5.273   1.099 -0.4236  0.3302  0.6920
  155MOL0     C20376  -0.040   5.329   0.763  1.3396 -0.3074  0.1040
  155MOL0     C20377  -0.139   5.304   0.669 -0.2209 -0.8042  0.3618
  155MOL0     N20378  -0.632   4.733   0.303 -0.2881 -0.3874 -0.2589
  155MOL0     N20379  -0.651   4.601   0.282 -0.2967  0.1755 -0.5385
  155MOL0     C20380   0.094   5.093   0.425  0.7510  0.4313  0.7044
  155MOL0     C20381   0.130   5.230   0.410  0.4333 -0.1137 -0.0456
  155MOL0     C20382   0.329   5.623   0.240  1.1935  0.1742  0.3263
  155MOL0     C20383   0.304   5.665   0.370 -0.1680 -1.1395  0.4700
  155MOL0     C20384   0.334   5.804   0.401 -0.1849  0.0975  0.1081
  155MOL0     C20385   0.356   5.908   0.308  0.3892  0.0700  0.4133
  155MOL0     O20386   0.363   6.048   0.344 -0.4163 -0.2472  0.7217
  155MOL0     C20387   0.413   6.149   0.251  0.1903 -0.0589 -0.6538
  155MOL0     C20388   0.455   6.273   0.336 -0.1471 -0.4414  0.8895
  155MOL0     C20389   0.566   6.243   0.438  0.7203  0.3250  0.3175
  155MOL0     C20390   0.701   6.173   0.398  0.3595 -0.5568 -0.9679
  155MOL0     C20391   0.794   6.191   0.509  0.1882 -0.1796  0.6697
  155MOL0     C20392   0.873   6.209   0.599 -0.3669 -0.1854  0.1151
  155MOL0     C20393   0.367   5.860   0.174  0.5413  0.9135 -1.0869
  155MOL0     C20394   0.364   5.722   0.143 -0.1396  0.4338 -0.4320
  155MOL0     H20395   0.376   5.189   0.185 -0.2851  1.9337 -0.4037
  155MOL0     H20396   0.339   4.966   0.224 -0.7309 -0.2405 -1.2257
  155MOL0     H20397   0.221   4.734   0.233 -0.1010 -2.0071 -0.6944
  155MOL0     H20398   0.075   4.817   0.183 -4.6582 -2.0992  2.1930
  155MOL0     H20399   0.074   4.594   0.380  0.3922 -2.0750 -2.2101
  155MOL0     H20400   0.026   4.601   0.214  1.4738 -1.7135  1.3485
  155MOL0     H20401  -0.138   4.774   0.245 -1.6523 -0.3377 -0.5150
  155MOL0     H20402  -0.121   4.777   0.427 -0.0592 -0.3293 -0.0808
  155MOL0     H20403  -0.207   4.568   0.455  0.7470  0.5511  0.8948
  155MOL0     H20404  -0.313   4.627   0.341  0.2481 -0.9315 -5.3212
  155MOL0     H20405  -0.096   4.419   0.308  0.9273 -0.7708 -1.8737
  155MOL0     H20406  -0.166   4.487   0.154 -4.8853  0.9949 -0.3776
  155MOL0     H20407  -0.358   4.388   0.357  0.1761 -3.3165  0.9410
  155MOL0     H20408  -0.256   4.274   0.272 -2.4293 -0.6789  1.8787
  155MOL0     H20409  -0.356   4.424   0.054  2.0228 -0.9981 -0.6195
  155MOL0     H20410  -0.406   4.266   0.111 -0.1826  0.2410 -2.3391
  155MOL0     H20411  -0.594   4.365   0.233 -0.0851  0.0081  0.2703
  155MOL0     H20412  -0.598   4.400   0.062  3.9996  1.1231 -2.4562
  155MOL0     H20413  -0.398   4.671   0.075  1.0340 -2.9978  1.2443
  155MOL0     H20414  -0.551   4.983   0.212  0.9721  1.3523  0.6331
  155MOL0     H20415  -0.393   4.916   0.140 -1.4013 -0.1657 -0.9262
  155MOL0     H20416  -0.298   4.987   0.314 -0.8277  1.2348  0.3253
  155MOL0     H20417  -0.357   4.857   0.418  0.3685  0.7929  0.6556
  155MOL0     H20418  -0.457   5.143   0.400 -0.4942  0.5291  0.0782
  155MOL0     H20419  -0.552   5.016   0.471  1.0747 -3.4620  0.3646
  155MOL0     H20420  -0.277   5.000   0.570 -0.5310 -0.4690  1.2357
  155MOL0     H20421  -0.431   5.023   0.668  0.9781  1.8893  1.0638
  155MOL0     H20422  -0.314   5.083   0.860  0.1157  0.2806  1.9424
  155MOL0     H20423  -0.168   5.153   1.024  3.4642 -0.6968  0.8021
  155MOL0     H20424   0.142   5.635   1.091  0.0416  2.6801  3.3619
  155MOL0     H20425   0.291   5.704   1.291 -0.0137 -1.5874  1.3830
  155MOL0     H20426   0.520   5.787   1.350  0.3984 -0.1254  0.9322
  155MOL0     H20427   0.639   5.708   1.251  1.8376  0.1319  1.3291
  155MOL0     H20428   0.740   5.624   1.494  0.2497 -0.6465 -1.8145
  155MOL0     H20429   0.605   5.713   1.561  0.2113  1.1454  0.2737
  155MOL0     H20430   0.702   5.914   1.473 -2.3516 -1.3781 -1.0395
  155MOL0     H20431   0.799   5.831   1.345  0.7911  0.0167 -0.8978
  155MOL0     H20432   0.828   5.837   1.646 -0.5254  2.3993 -0.2511
  155MOL0     H20433   0.933   5.735   1.540  0.8125  0.2125 -1.6266
  155MOL0     H20434   1.051   5.954   1.615 -0.8628 -1.0527  1.7286
  155MOL0     H20435   0.931   6.037   1.532  1.4785  0.4379  1.3598
  155MOL0     H20436   0.985   5.877   1.320  0.8533  0.2791 -1.2671
  155MOL0     H20437   1.139   5.833   1.407  1.5151  0.9290 -0.7413
  155MOL0     H20438   1.063   6.117   1.352 -1.1283 -0.5814 -1.5787
  155MOL0     H20439   1.208   6.041   1.420 -3.3005  0.8997  3.1743
  155MOL0     H20440   1.239   6.116   1.174  0.4764 -0.3930  1.0851
  155MOL0     H20441   1.115   6.003   1.126  0.9290  0.6684 -0.9788
  155MOL0     H20442   0.508   5.334   1.233 -1.0556 -3.0848 -4.2493
  155MOL0     H20443   0.340   5.273   1.051 -3.5527  1.1517 -1.2045
  155MOL0     H20444   0.028   5.407   0.733  1.9064 -1.0062 -0.4577
  155MOL0     H20445  -0.157   5.354   0.574 -1.0777 -1.4858  0.1521
  155MOL0     H20446  -0.004   5.064   0.464  0.7656 -3.2412 -1.5635
  155MOL0     H20447   0.066   5.310   0.446  0.2800 -1.6734  3.6240
  155MOL0     H20448   0.278   5.607   0.459 -2.4815 -2.0825 -0.7303
  155MOL0     H20449   0.319   5.826   0.506 -0.1349 -0.6488  0.2704
  155MOL0     H20450   0.333   6.178   0.183 -2.1365 -2.8502  0.6804
  155MOL0     H20451   0.501   6.099   0.209  0.3065 -1.3717  1.0120
  155MOL0     H20452   0.505   6.353   0.281 -1.5504 -0.6831 -0.8422
  155MOL0     H20453   0.370   6.328   0.376  1.4237  3.2858 -0.4568
  155MOL0     H20454   0.529   6.185   0.522 -0.1826 -3.5929 -2.4701
  155MOL0     H20455   0.601   6.339   0.476  0.1230  0.0507  1.6097
  155MOL0     H20456   0.689   6.065   0.388  0.3883 -0.7716  1.0396
  155MOL0     H20457   0.735   6.228   0.309  0.7134  0.5281 -0.1820
  155MOL0     H20458   0.957   6.218   0.665 -2.0643  2.9679  2.1452
  155MOL0     H20459   0.398   5.928   0.096  4.1154 -0.4826 -1.0436
  155MOL0     H20460   0.391   5.686   0.044  3.4948 -0.2031  0.6518
  156MOL0     O20461   7.574   2.243   6.055  1.1480 -0.4058 -0.0675
  156MOL0     C20462   7.526   2.205   5.947 -0.0936 -0.5534  0.5012
  156MOL0     O20463   7.593   2.211   5.829 -0.3747  0.8009 -0.1570
  156MOL0     C20464   7.718   2.251   5.825 -0.6132 -0.2135 -0.9888
  156MOL0     C20465   7.819   2.193   5.904  0.1766 -0.0906  0.7819
  156MOL0     C20466   7.946   2.240   5.897  0.1261 -0.4407  0.1388
  156MOL0     C20467   7.985   2.329   5.797 -1.0545  0.3309  0.6277
  156MOL0     O20468   8.113   2.372   5.774  0.3533  0.7972  0.0707
  156MOL0     C20469   8.207   2.374   5.881  0.2317  0.8082 -0.2014
  156MOL0     C20470   8.325   2.459   5.838 -0.2709  0.5899 -0.8286
  156MOL0     C20471   8.436   2.461   5.948  0.2116  0.1296  0.5478
  156MOL0     C20472   8.562   2.531   5.900  1.0415 -0.4333 -0.2785
  156MOL0     C20473   8.682   2.492   5.978  0.2511  0.9754  0.6423
  156MOL0     C20474   8.687   2.554   6.126  0.4129  0.5354 -0.1725
  156MOL0     C20475   8.807   2.524   6.206  0.2696  0.7062 -0.1003
  156MOL0     C20476   8.938   2.537   6.118  0.5174  0.7192  0.6760
  156MOL0     N20477   9.049   2.534   6.213 -0.0791 -0.9771 -0.2632
  156MOL0     C20478   9.157   2.442   6.223  0.0199  0.3235  0.0198
  156MOL0     C20479   9.229   2.498   6.325 -0.0736  0.2530 -0.3700
  156MOL0     C20480   9.351   2.434   6.365  0.1007 -0.0461  0.5300
  156MOL0     C20481   9.351   2.305   6.451 -0.4545 -0.1506 -0.1388
  156MOL0     C20482   9.302   2.331   6.598  0.2854 -0.1584 -0.0168
  156MOL0     C20483   9.157   2.359   6.622  0.6369 -0.3464 -0.0563
  156MOL0     O20484   9.069   2.285   6.519  0.2066 -0.3925  0.0924
  156MOL0     C20485   8.936   2.281   6.551  0.5058  0.3738 -0.1514
  156MOL0     C20486   8.860   2.198   6.466  0.1386 -0.4772  0.5702
  156MOL0     C20487   8.720   2.197   6.465 -0.3988  1.2180  0.0807
  156MOL0     C20488   8.653   2.269   6.557 -0.2385  1.1186 -0.2546
  156MOL0     C20489   8.501   2.269   6.561  0.7049 -0.3858  0.6170
  156MOL0     O20490   8.446   2.341   6.657 -0.0418 -0.3307 -0.9922
  156MOL0     C20491   8.313   2.323   6.686  0.0265  0.3509  0.4553
  156MOL0     C20492   8.284   2.247   6.802  0.4660 -0.6193 -0.5147
  156MOL0     C20493   8.150   2.210   6.831  0.0077 -0.5656  0.1505
  156MOL0     C20494   8.047   2.248   6.747  0.2469 -0.5443  0.6012
  156MOL0     O20495   7.915   2.209   6.756 -0.9083 -0.3419  0.7210
  156MOL0     C20496   7.858   2.206   6.896  0.2003  0.0417  0.3677
  156MOL0     C20497   7.703   2.219   6.893 -0.4477  0.0951  0.0277
  156MOL0     C20498   7.649   2.347   6.836 -0.7500 -0.0371 -0.0983
  156MOL0     C20499   7.509   2.329   6.788  0.6618  0.1410  0.5443
  156MOL0     C20500   7.458   2.448   6.714  0.6336 -0.5480 -0.1103
  156MOL0     C20501   7.429   2.572   6.803 -0.1858  0.0119 -0.0341
  156MOL0     C20502   7.295   2.547   6.894  0.2444 -0.2828 -0.2005
  156MOL0     C20503   7.229   2.675   6.956  0.7464 -0.6872  0.2834
  156MOL0    Cl20504   7.101   2.617   7.060  0.2632 -0.0247  0.3901
  156MOL0     C20505   8.076   2.337   6.637  0.0577  0.9617  0.0738
  156MOL0     C20506   8.203   2.369   6.608  0.5695 -0.6955  0.0297
  156MOL0     O20507   8.442   2.186   6.488 -0.7636  0.0412 -0.2044
  156MOL0     C20508   8.721   2.356   6.643 -1.0483  0.4216  0.1678
  156MOL0     C20509   8.860   2.364   6.634 -0.9640 -0.3361 -0.2934
  156MOL0     N20510   9.183   2.624   6.363  0.3077  0.2494 -0.2625
  156MOL0     N20511   9.088   2.649   6.284 -0.5621  0.5556  0.7074
  156MOL0     C20512   7.895   2.374   5.710  0.4543 -0.8660  0.2548
  156MOL0     C20513   7.758   2.341   5.736 -0.0023 -0.2111  0.5669
  156MOL0     C20514   7.389   2.147   5.932  0.3406  0.5068 -0.4228
  156MOL0     C20515   7.315   2.163   5.816 -0.4669  0.6997  0.2671
  156MOL0     C20516   7.183   2.112   5.806 -0.4438 -0.0870  0.0743
  156MOL0     C20517   7.134   2.031   5.911 -0.1653 -0.5371  1.2378
  156MOL0     O20518   7.016   1.961   5.920 -0.4680 -0.2384  0.0687
  156MOL0     C20519   6.952   1.935   5.789 -0.1404 -0.9205 -0.1539
  156MOL0     C20520   6.828   1.841   5.806 -0.4429 -0.2248  0.3417
  156MOL0     C20521   6.772   1.792   5.670 -1.1000 -0.0233 -0.7132
  156MOL0     C20522   6.682   1.893   5.594  1.2063  0.3824 -0.8377
  156MOL0     C20523   6.674   1.877   5.448 -0.0062  0.2770 -0.5681
  156MOL0     C20524   6.632   1.824   5.346 -0.3988 -0.0380  0.5491
  156MOL0     C20525   7.211   2.021   6.023  0.7604  0.8317 -0.9275
  156MOL0     C20526   7.332   2.074   6.037  0.5411 -0.2548 -1.2979
  156MOL0     H20527   7.789   2.118   5.976 -2.0731 -0.1483 -0.1276
  156MOL0     H20528   8.015   2.200   5.970 -0.7105  0.6430  1.5804
  156MOL0     H20529   8.242   2.272   5.903  1.2278  1.5988  2.2125
  156MOL0     H20530   8.164   2.421   5.970 -2.2434 -0.6734 -0.4959
  156MOL0     H20531   8.297   2.563   5.818  1.4115  1.8668  2.5480
  156MOL0     H20532   8.372   2.416   5.750  0.2128 -1.4646  0.3670
  156MOL0     H20533   8.468   2.357   5.963  2.0173  0.4053 -1.0683
  156MOL0     H20534   8.403   2.490   6.049 -0.3631 -1.2809  0.7987
  156MOL0     H20535   8.575   2.520   5.792 -1.8782  7.0950 -2.0406
  156MOL0     H20536   8.543   2.638   5.911 -3.0000 -1.0017 -0.1171
  156MOL0     H20537   8.765   2.526   5.915  2.4636 -2.6399  1.3815
  156MOL0     H20538   8.689   2.385   5.995  1.5464  1.2549  2.0249
  156MOL0     H20539   8.597   2.529   6.183 -0.0047  2.0534 -0.1071
  156MOL0     H20540   8.687   2.662   6.111 -0.9196  0.1964 -3.4918
  156MOL0     H20541   8.810   2.580   6.300 -0.1952 -0.9968  0.9639
  156MOL0     H20542   8.796   2.419   6.235 -0.2921  0.4528 -1.1942
  156MOL0     H20543   8.931   2.626   6.055 -1.3914 -1.4302 -2.4905
  156MOL0     H20544   8.928   2.452   6.049  0.0357 -0.2644  1.9252
  156MOL0     H20545   9.193   2.365   6.155  2.0535  1.2531 -0.0496
  156MOL0     H20546   9.413   2.512   6.409 -0.2905  1.9145 -2.1403
  156MOL0     H20547   9.400   2.404   6.272  0.6363  0.1589  0.7371
  156MOL0     H20548   9.454   2.271   6.469 -0.6013  0.4806  2.1909
  156MOL0     H20549   9.293   2.232   6.395 -0.7325  0.4787 -0.6953
  156MOL0     H20550   9.308   2.237   6.653 -1.8670 -2.3426 -3.1490
  156MOL0     H20551   9.364   2.412   6.638 -1.1377  0.8250  0.2932
  156MOL0     H20552   9.135   2.466   6.624 -0.0726 -0.3763  4.5899
  156MOL0     H20553   9.129   2.324   6.721 -0.8780  2.0266  0.4305
  156MOL0     H20554   8.907   2.137   6.390  1.6107  2.6570 -1.2717
  156MOL0     H20555   8.663   2.133   6.398 -0.9652  2.7416 -0.9654
  156MOL0     H20556   8.363   2.229   6.873  0.6874  3.9305  0.7232
  156MOL0     H20557   8.134   2.138   6.911 -0.4084  0.5510  1.0947
  156MOL0     H20558   7.896   2.296   6.946  0.2470  0.5618 -0.5847
  156MOL0     H20559   7.892   2.115   6.945  4.1662 -0.1890 -2.3271
  156MOL0     H20560   7.652   2.206   6.990 -1.6062 -0.2843 -0.6137
  156MOL0     H20561   7.674   2.135   6.829  0.6970  0.2693 -0.7396
  156MOL0     H20562   7.712   2.389   6.757  0.3700  0.9251  1.2601
  156MOL0     H20563   7.637   2.422   6.915 -5.1016 -2.7315  2.2126
  156MOL0     H20564   7.494   2.244   6.721  1.6399  0.1855  0.2447
  156MOL0     H20565   7.440   2.320   6.872  1.4271 -2.8298  0.9774
  156MOL0     H20566   7.369   2.428   6.654 -1.5750 -0.3044  2.8642
  156MOL0     H20567   7.541   2.472   6.647 -0.2963 -0.2894 -1.1852
  156MOL0     H20568   7.409   2.659   6.739 -0.7483  1.3188  1.8140
  156MOL0     H20569   7.518   2.604   6.859  1.4463 -0.0422 -2.4747
  156MOL0     H20570   7.218   2.513   6.824 -2.5714  1.2659  1.9672
  156MOL0     H20571   7.296   2.470   6.971 -3.1673  0.9079  1.2329
  156MOL0     H20572   7.176   2.741   6.886 -0.7768 -2.1751 -0.0070
  156MOL0     H20573   7.301   2.731   7.017 -0.1658 -0.3405  1.0673
  156MOL0     H20574   8.004   2.390   6.575  1.9067 -0.2766 -3.4410
  156MOL0     H20575   8.234   2.423   6.520 -1.7088  0.6604 -0.0276
  156MOL0     H20576   8.668   2.421   6.711 -0.2542 -0.0767  1.2863
  156MOL0     H20577   8.915   2.430   6.700 -3.3859 -0.0378  1.5972
  156MOL0     H20578   7.918   2.449   5.635 -3.9983  0.1568 -0.3585
  156MOL0     H20579   7.677   2.379   5.675 -0.8472 -1.2299  1.0239
  156MOL0     H20580   7.362   2.215   5.733 -1.0176  0.5833 -0.1307
  156MOL0     H20581   7.114   2.131   5.725  1.9903  0.7059 -1.9427
  156MOL0     H20582   7.023   1.895   5.716 -0.4618 -0.5454 -0.6770
  156MOL0     H20583   6.928   2.030   5.741  2.3776  0.5547  1.2694
  156MOL0     H20584   6.839   1.753   5.869 -2.5621 -0.9506 -0.2106
  156MOL0     H20585   6.743   1.887   5.858 -1.5999 -3.1780  1.3120
  156MOL0     H20586   6.717   1.697   5.677 -0.8296 -0.2157 -1.2036
  156MOL0     H20587   6.864   1.784   5.612  0.3106  0.3493  1.3490
  156MOL0     H20588   6.585   1.883   5.642  0.5904  4.0745 -1.0322
  156MOL0     H20589   6.726   1.992   5.608 -2.0564  2.1616 -2.0962
  156MOL0     H20590   6.603   1.787   5.249 -3.4453  2.3135  0.4132
  156MOL0     H20591   7.158   1.963   6.098  2.3459 -0.2690 -0.6060
  156MOL0     H20592   7.386   2.066   6.131 -0.5674 -1.2059 -0.7109
  157MOL0     O20593  11.270   0.670   5.692  0.5321  0.5724 -0.0676
  157MOL0     C20594  11.328   0.603   5.776 -1.3752 -0.5535  0.0842
  157MOL0     O20595  11.379   0.655   5.897 -0.9722 -0.0579 -0.0376
  157MOL0     C20596  11.360   0.782   5.941  0.1601  0.3727  0.0525
  157MOL0     C20597  11.383   0.902   5.872  0.3733 -1.0171 -0.2698
  157MOL0     C20598  11.344   1.020   5.933 -0.5873 -0.0446 -0.1956
  157MOL0     C20599  11.288   1.037   6.060  1.1503  0.1462  0.5849
  157MOL0     O20600  11.291   1.152   6.124  0.0169 -0.5867  0.2237
  157MOL0     C20601  11.419   1.223   6.112  0.4719  0.3004 -0.4193
  157MOL0     C20602  11.448   1.291   6.240 -0.4224 -0.1390 -0.4288
  157MOL0     C20603  11.343   1.392   6.286  0.4093  0.4127  0.3078
  157MOL0     C20604  11.368   1.454   6.420 -0.3249  0.1675  0.0571
  157MOL0     C20605  11.249   1.562   6.458 -0.3514  0.4648 -0.3577
  157MOL0     C20606  11.284   1.646   6.575 -0.6192 -0.3759 -0.7178
  157MOL0     C20607  11.165   1.675   6.677  0.2670 -0.3414 -1.2397
  157MOL0     C20608  11.204   1.665   6.819  0.2353  0.1918 -0.2744
  157MOL0     N20609  11.216   1.513   6.847 -0.1531 -0.3914 -0.2945
  157MOL0     C20610  11.333   1.450   6.872  0.2769 -0.0731  0.2803
  157MOL0     C20611  11.295   1.335   6.933  0.1962  0.7366 -1.2728
  157MOL0     C20612  11.378   1.231   7.013  0.2065  0.2746 -0.9174
  157MOL0     C20613  11.453   1.118   6.927  1.0355 -0.4514 -0.5325
  157MOL0     C20614  11.575   1.076   6.992 -0.8940  0.5441 -0.2526
  157MOL0     C20615  11.648   0.974   6.901  0.9947  0.3158  0.7954
  157MOL0     O20616  11.574   0.846   6.883 -0.1176  1.2014  0.3319
  157MOL0     C20617  11.622   0.749   6.795  0.4335 -0.3694 -0.4926
  157MOL0     C20618  11.713   0.771   6.703  0.5720  0.5856  0.0939
  157MOL0     C20619  11.771   0.665   6.625  0.9818  0.4107 -0.2415
  157MOL0     C20620  11.723   0.531   6.643  0.4998  0.6487 -0.2386
  157MOL0     C20621  11.794   0.415   6.569  0.0693  0.8295  0.1441
  157MOL0     O20622  11.901   0.445   6.486 -0.4087 -1.0102 -0.8200
  157MOL0     C20623  11.974   0.356   6.419  0.0790  0.1835  0.4069
  157MOL0     C20624  12.069   0.416   6.345  0.8286  0.1758 -0.4618
  157MOL0     C20625  12.154   0.338   6.261 -0.9775  0.2573  0.1321
  157MOL0     C20626  12.145   0.198   6.249 -1.5684  0.1515 -0.5504
  157MOL0     O20627  12.229   0.123   6.170 -0.4188  0.3741 -0.3523
  157MOL0     C20628  12.242  -0.015   6.192 -0.6821 -0.5517 -0.2002
  157MOL0     C20629  12.358  -0.080   6.110  1.0940 -0.1168 -0.3810
  157MOL0     C20630  12.486   0.006   6.117 -0.0258 -1.5741 -1.7124
  157MOL0     C20631  12.586  -0.028   6.007 -0.2541  0.3839  1.1803
  157MOL0     C20632  12.630  -0.168   6.020 -0.8175 -0.0019 -0.4273
  157MOL0     C20633  12.731  -0.212   6.134 -0.6239 -0.7199  0.8484
  157MOL0     C20634  12.816  -0.087   6.183 -0.0908  0.5863 -0.3581
  157MOL0     C20635  12.894  -0.134   6.311  1.1357 -0.0996 -0.3358
  157MOL0    Cl20636  13.012  -0.015   6.365 -0.7223  0.0360 -0.3190
  157MOL0     C20637  12.044   0.141   6.331 -0.3011  1.0547  0.0427
  157MOL0     C20638  11.956   0.217   6.409 -0.3561  0.9536 -0.1143
  157MOL0     O20639  11.741   0.301   6.581  0.6971 -0.7409 -0.2049
  157MOL0     C20640  11.636   0.508   6.751  1.3498 -0.2957 -0.2874
  157MOL0     C20641  11.589   0.614   6.832  0.2455  0.0792 -0.4559
  157MOL0     N20642  11.156   1.313   6.933 -0.3328  0.3876 -0.6209
  157MOL0     N20643  11.115   1.422   6.872  0.6432 -0.1893  0.1220
  157MOL0     C20644  11.262   0.920   6.130  0.5211  0.0528 -0.4322
  157MOL0     C20645  11.287   0.795   6.065  0.0934  0.0328 -1.5845
  157MOL0     C20646  11.379   0.475   5.724 -0.1502  0.0956 -0.5361
  157MOL0     C20647  11.325   0.412   5.614 -0.8373 -0.4807  0.3515
  157MOL0     C20648  11.394   0.300   5.560 -0.5473 -0.1265  1.7411
  157MOL0     C20649  11.492   0.227   5.627 -0.4070 -0.4954 -0.3215
  157MOL0     O20650  11.564   0.113   5.585  0.0812 -0.4731  1.3336
  157MOL0     C20651  11.514   0.049   5.457 -0.3421 -0.2945 -0.3158
  157MOL0     C20652  11.389  -0.037   5.479 -0.1297 -0.5748  0.1607
  157MOL0     C20653  11.413  -0.133   5.591  0.7484 -0.4739 -1.0292
  157MOL0     C20654  11.286  -0.230   5.602  0.4115  0.2415 -0.5179
  157MOL0     C20655  11.157  -0.177   5.634 -0.0779 -0.9339 -0.5879
  157MOL0     C20656  11.067  -0.116   5.693  0.4806 -0.9428  0.2819
  157MOL0     C20657  11.551   0.303   5.737 -0.4804  0.3316 -0.4717
  157MOL0     C20658  11.496   0.426   5.782 -0.3562 -1.3611 -0.0776
  157MOL0     H20659  11.429   0.890   5.775 -0.6912 -1.4356 -0.7460
  157MOL0     H20660  11.361   1.112   5.877 -0.3752  1.0075  1.5268
  157MOL0     H20661  11.424   1.289   6.025  1.0095  1.0085  0.1365
  157MOL0     H20662  11.503   1.152   6.111 -0.5899 -1.1440  2.7198
  157MOL0     H20663  11.545   1.339   6.239 -0.0247 -0.9190 -0.5031
  157MOL0     H20664  11.466   1.214   6.317  0.4036  2.9990  2.7854
  157MOL0     H20665  11.245   1.343   6.287  1.8288 -2.7005 -0.5144
  157MOL0     H20666  11.325   1.474   6.216 -0.0783  0.0932  0.0567
  157MOL0     H20667  11.375   1.379   6.499  2.0690  1.3905  1.1057
  157MOL0     H20668  11.467   1.500   6.426 -0.3630  0.2627 -0.0378
  157MOL0     H20669  11.164   1.499   6.483  1.7385 -2.8678 -0.9739
  157MOL0     H20670  11.223   1.641   6.386  0.6195 -0.1338 -1.4002
  157MOL0     H20671  11.336   1.732   6.532 -0.7269 -0.1716 -0.4424
  157MOL0     H20672  11.356   1.590   6.634  0.3024  1.9391  0.4940
  157MOL0     H20673  11.133   1.778   6.659 -0.9555 -0.3299  0.7061
  157MOL0     H20674  11.090   1.602   6.647 -1.1517  1.0012 -1.0744
  157MOL0     H20675  11.132   1.719   6.881 -0.1930 -0.0120 -0.5869
  157MOL0     H20676  11.298   1.720   6.836 -0.3301  1.0951  0.0299
  157MOL0     H20677  11.432   1.491   6.859  0.5018 -0.4409  0.8113
  157MOL0     H20678  11.319   1.188   7.094  1.9534 -3.4828 -1.4305
  157MOL0     H20679  11.457   1.287   7.064  1.0425 -2.4274  0.9244
  157MOL0     H20680  11.488   1.156   6.830 -0.6938 -0.5594 -1.2280
  157MOL0     H20681  11.384   1.033   6.918  0.4796 -0.5129  2.9228
  157MOL0     H20682  11.644   1.159   7.009  1.1724 -1.6190  3.3315
  157MOL0     H20683  11.562   1.025   7.088 -0.4172 -0.0938 -0.5177
  157MOL0     H20684  11.746   0.949   6.941  0.3805 -3.9571  0.1177
  157MOL0     H20685  11.649   1.012   6.798  0.3979 -0.5781  0.4426
  157MOL0     H20686  11.748   0.871   6.677  2.1676  0.2322  0.7397
  157MOL0     H20687  11.847   0.687   6.549 -1.4946  2.4226 -2.3326
  157MOL0     H20688  12.081   0.523   6.359  0.3133  0.2962 -0.9025
  157MOL0     H20689  12.227   0.400   6.208  0.4157 -0.3975  1.2213
  157MOL0     H20690  12.148  -0.070   6.180 -2.3870  1.7172  1.8384
  157MOL0     H20691  12.273  -0.032   6.296 -0.4863 -1.6422 -0.4222
  157MOL0     H20692  12.319  -0.093   6.009 -2.2264  1.3865  0.5641
  157MOL0     H20693  12.363  -0.183   6.147  2.1241  0.0789  0.0540
  157MOL0     H20694  12.525  -0.013   6.218 -0.8169  0.8337 -0.8876
  157MOL0     H20695  12.468   0.113   6.108  2.2332 -0.8167  1.1699
  157MOL0     H20696  12.531  -0.003   5.916  0.4562  0.5309  0.7801
  157MOL0     H20697  12.673   0.038   5.998  2.3180 -3.0229 -2.3102
  157MOL0     H20698  12.675  -0.194   5.924 -0.2085 -2.3849  0.4341
  157MOL0     H20699  12.554  -0.245   6.035  0.9304 -1.2341  3.2954
  157MOL0     H20700  12.799  -0.296   6.117  0.2496 -0.7502  3.8782
  157MOL0     H20701  12.666  -0.253   6.213 -1.1171  0.7804  1.2627
  157MOL0     H20702  12.887  -0.058   6.105  1.6071 -1.0173  0.4953
  157MOL0     H20703  12.750  -0.004   6.208  1.3516  1.2664  1.4987
  157MOL0     H20704  12.947  -0.227   6.288 -3.0742 -2.7175 -0.5111
  157MOL0     H20705  12.828  -0.142   6.398 -0.2961  3.9467 -0.8348
  157MOL0     H20706  12.012   0.038   6.317  1.3224  0.7431 -1.6433
  157MOL0     H20707  11.871   0.163   6.448  2.6850 -1.4706  3.9997
  157MOL0     H20708  11.623   0.406   6.786  0.6230 -0.5921 -1.3841
  157MOL0     H20709  11.546   0.580   6.926  0.6363 -3.3655 -1.4030
  157MOL0     H20710  11.225   0.927   6.231 -0.4981 -0.4487 -0.7632
  157MOL0     H20711  11.251   0.708   6.120  2.7160  0.5601  1.2387
  157MOL0     H20712  11.248   0.457   5.551  0.8429  1.7643 -0.2306
  157MOL0     H20713  11.352   0.268   5.465  1.2165 -0.3986  1.0070
  157MOL0     H20714  11.588  -0.014   5.407  0.0691 -0.2926  0.2840
  157MOL0     H20715  11.478   0.127   5.389 -3.6529 -1.1578  0.2778
  157MOL0     H20716  11.313   0.030   5.520  0.3444  0.3488 -0.4477
  157MOL0     H20717  11.350  -0.096   5.396  1.9447 -0.0089 -1.2953
  157MOL0     H20718  11.428  -0.074   5.682  0.5359  0.4726 -1.5943
  157MOL0     H20719  11.499  -0.198   5.579  0.3752 -1.4437  1.0121
  157MOL0     H20720  11.278  -0.291   5.512  0.9487 -1.5164  0.5754
  157MOL0     H20721  11.300  -0.294   5.690  2.8327  1.3407 -0.0293
  157MOL0     H20722  10.999  -0.060   5.754 -2.2201 -1.0419 -2.3861
  157MOL0     H20723  11.632   0.257   5.793 -0.6077 -0.6373 -1.0545
  157MOL0     H20724  11.543   0.480   5.863  1.3848 -1.7714 -0.7747
  158MOL0     O20725   6.939   3.013   2.558 -0.0817  0.1690 -0.4109
  158MOL0     C20726   7.030   2.949   2.610  0.4533 -0.0337 -0.3539
  158MOL0     O20727   7.149   2.918   2.563 -0.1992  0.0171  0.7086
  158MOL0     C20728   7.192   3.001   2.461 -0.6284 -0.8120  0.6073
  158MOL0     C20729   7.264   2.951   2.363 -0.3138 -1.5191  0.7185
  158MOL0     C20730   7.326   3.031   2.271  0.6290  0.1478  0.6361
  158MOL0     C20731   7.319   3.166   2.275 -0.0517 -0.8819  0.0249
  158MOL0     O20732   7.386   3.234   2.182 -0.3691  0.2910 -0.6482
  158MOL0     C20733   7.467   3.347   2.221  1.0762 -0.6152  0.1372
  158MOL0     C20734   7.544   3.410   2.108 -0.3463  0.0366 -0.0544
  158MOL0     C20735   7.613   3.323   2.011  0.3050  0.0040 -0.7317
  158MOL0     C20736   7.709   3.246   2.094  0.7570  0.0294  0.5737
  158MOL0     C20737   7.812   3.153   2.029 -0.2948  0.2601 -0.3710
  158MOL0     C20738   7.916   3.220   1.940  0.4563  0.1929  0.6950
  158MOL0     C20739   8.028   3.290   2.014  0.0308  0.1617  0.2234
  158MOL0     C20740   8.143   3.326   1.921 -0.2088  0.2442 -0.0115
  158MOL0     N20741   8.108   3.450   1.855  0.4026  0.0500  0.5308
  158MOL0     C20742   8.035   3.468   1.741 -0.1481  0.4214  0.4088
  158MOL0     C20743   7.966   3.582   1.758  0.4082 -0.2821  0.9435
  158MOL0     C20744   7.861   3.654   1.677 -0.1226  0.2252  0.7860
  158MOL0     C20745   7.724   3.635   1.743 -0.3321  1.1570  0.0905
  158MOL0     C20746   7.618   3.728   1.683 -1.2429  0.0127  0.4216
  158MOL0     C20747   7.482   3.712   1.756  0.5516  0.1213  1.9575
  158MOL0     O20748   7.484   3.771   1.884  0.5782 -0.7931  0.5003
  158MOL0     C20749   7.401   3.716   1.978  0.1101 -0.5548  0.8597
  158MOL0     C20750   7.277   3.642   1.962 -0.1981 -0.5372  0.0509
  158MOL0     C20751   7.187   3.597   2.071  0.2487 -0.3658 -0.0000
  158MOL0     C20752   7.226   3.643   2.203 -1.0107 -0.5938  0.4790
  158MOL0     C20753   7.138   3.624   2.317  0.1072  0.0624  0.2191
  158MOL0     O20754   7.015   3.584   2.287 -0.4291  0.3128 -0.0985
  158MOL0     C20755   6.918   3.559   2.396 -0.0146 -0.4727  0.4269
  158MOL0     C20756   6.929   3.448   2.471 -0.3826  1.3395  0.1368
  158MOL0     C20757   6.838   3.431   2.568  1.0167  0.2436  0.0737
  158MOL0     C20758   6.721   3.504   2.588  0.0323  0.4610 -1.1769
  158MOL0     O20759   6.630   3.475   2.687  0.8219  0.9719 -0.1384
  158MOL0     C20760   6.593   3.336   2.707 -0.1099  0.9751 -0.4801
  158MOL0     C20761   6.466   3.329   2.787  0.5939 -0.1406  0.5628
  158MOL0     C20762   6.398   3.190   2.784 -0.3242  1.2393  0.0548
  158MOL0     C20763   6.279   3.161   2.869 -0.5758  0.4271 -0.2899
  158MOL0     C20764   6.154   3.197   2.798  0.1578 -0.2751  0.3546
  158MOL0     C20765   6.040   3.148   2.886  0.1493 -0.7422  0.2568
  158MOL0     C20766   5.894   3.195   2.837  0.0824  0.6957 -0.0790
  158MOL0     C20767   5.820   3.084   2.764  0.6436 -0.1544  0.4753
  158MOL0    Cl20768   5.888   3.020   2.616 -0.4833  0.1245  0.4012
  158MOL0     C20769   6.716   3.614   2.506 -0.0350 -0.9066 -0.2198
  158MOL0     C20770   6.820   3.646   2.413  0.8157 -0.4538  0.0910
  158MOL0     O20771   7.183   3.650   2.429  0.6096  0.6790 -0.0086
  158MOL0     C20772   7.359   3.700   2.217 -0.5412  0.0302 -0.8069
  158MOL0     C20773   7.432   3.745   2.108 -0.3241 -0.3288  0.1537
  158MOL0     N20774   8.020   3.647   1.860  0.6439 -1.0098  0.6693
  158MOL0     N20775   8.086   3.565   1.925  0.4458 -0.6274  0.1191
  158MOL0     C20776   7.253   3.225   2.382 -0.5592  0.1389  0.1741
  158MOL0     C20777   7.185   3.140   2.476 -0.3458 -0.5044  0.4505
  158MOL0     C20778   7.011   2.884   2.741 -0.4327  0.2372  0.7237
  158MOL0     C20779   7.114   2.800   2.792  0.8609  0.0538  0.2658
  158MOL0     C20780   7.103   2.746   2.922  0.4296  1.2774 -0.3845
  158MOL0     C20781   6.995   2.772   3.004  0.9938 -0.7653  0.0857
  158MOL0     O20782   6.989   2.723   3.129 -0.1353 -0.7325  0.0287
  158MOL0     C20783   6.868   2.691   3.188  0.6977  0.3890  0.3636
  158MOL0     C20784   6.909   2.577   3.293  0.9433 -0.2490  0.5791
  158MOL0     C20785   6.951   2.643   3.430  0.6566  0.5403  0.2221
  158MOL0     C20786   6.961   2.534   3.538 -0.2412 -0.1779  0.6399
  158MOL0     C20787   6.995   2.609   3.664 -0.3703 -0.8804 -0.6060
  158MOL0     C20788   6.997   2.679   3.766  0.7898  0.4084  0.5837
  158MOL0     C20789   6.891   2.866   2.962 -1.0154  0.5715 -0.6658
  158MOL0     C20790   6.904   2.917   2.831  0.5837 -0.3084  0.3540
  158MOL0     H20791   7.279   2.843   2.364 -1.9080 -1.7660  0.5319
  158MOL0     H20792   7.383   2.979   2.194  2.0805 -2.1972  3.1203
  158MOL0     H20793   7.534   3.317   2.303  1.3244  1.9248  0.9329
  158MOL0     H20794   7.406   3.417   2.278 -0.0163 -1.8662  0.5599
  158MOL0     H20795   7.612   3.477   2.163  0.0958 -2.0327  2.0625
  158MOL0     H20796   7.469   3.463   2.049 -0.9948 -0.8652 -0.0610
  158MOL0     H20797   7.654   3.405   1.951  0.6896 -0.4494 -1.1096
  158MOL0     H20798   7.546   3.253   1.959  2.5964 -2.1617 -0.9817
  158MOL0     H20799   7.755   3.312   2.167 -1.9298  0.7395  1.7669
  158MOL0     H20800   7.646   3.182   2.156  1.9730 -0.8425  0.9440
  158MOL0     H20801   7.762   3.083   1.961  0.7251  0.3021 -1.1945
  158MOL0     H20802   7.858   3.102   2.114  1.4275 -0.9243 -1.9238
  158MOL0     H20803   7.856   3.288   1.879 -2.2646 -1.8956  0.8102
  158MOL0     H20804   7.954   3.132   1.887 -0.0782 -0.3636  1.2153
  158MOL0     H20805   7.980   3.371   2.070  3.9112  1.4629  2.0230
  158MOL0     H20806   8.067   3.220   2.088 -0.3925  1.6019  1.8770
  158MOL0     H20807   8.171   3.248   1.850 -1.6473 -1.5066  1.2691
  158MOL0     H20808   8.234   3.341   1.980  0.2011  2.6189 -1.1233
  158MOL0     H20809   8.025   3.403   1.654 -2.0198 -2.5668  2.6809
  158MOL0     H20810   7.854   3.619   1.574  1.5316 -1.3803  1.1716
  158MOL0     H20811   7.893   3.759   1.679 -2.6711  1.1117  3.8480
  158MOL0     H20812   7.726   3.651   1.851  2.8651  1.1835  0.1177
  158MOL0     H20813   7.705   3.530   1.719  1.2865  0.6673  0.8126
  158MOL0     H20814   7.660   3.829   1.689  3.2300 -1.5096 -0.8131
  158MOL0     H20815   7.608   3.712   1.576 -0.2872  0.5245  0.2406
  158MOL0     H20816   7.458   3.605   1.759 -2.0278  0.6645  2.5149
  158MOL0     H20817   7.406   3.766   1.699  2.2173  0.6876  0.1799
  158MOL0     H20818   7.246   3.617   1.861 -1.7938  0.6956  0.1967
  158MOL0     H20819   7.098   3.541   2.044 -0.6760  0.3131  1.4834
  158MOL0     H20820   7.020   3.389   2.465 -1.6984 -1.1402  2.3253
  158MOL0     H20821   6.851   3.344   2.631 -1.6051 -2.1972 -2.4491
  158MOL0     H20822   6.676   3.282   2.755  1.1225  3.3832  0.2374
  158MOL0     H20823   6.572   3.286   2.612 -4.8203  1.8506 -0.1688
  158MOL0     H20824   6.404   3.404   2.738  1.0733 -1.6540 -2.6001
  158MOL0     H20825   6.489   3.356   2.891  0.0434 -0.4740  0.7725
  158MOL0     H20826   6.485   3.136   2.823  0.3439 -0.5971 -3.5129
  158MOL0     H20827   6.381   3.152   2.682 -1.0759  0.8319  0.3260
  158MOL0     H20828   6.269   3.053   2.882 -0.0487  0.5091  0.9572
  158MOL0     H20829   6.296   3.226   2.956  0.4995  0.0618 -0.2187
  158MOL0     H20830   6.149   3.152   2.698 -0.2562  0.4739  0.0374
  158MOL0     H20831   6.127   3.302   2.786 -3.2105 -1.0338  0.4141
  158MOL0     H20832   6.072   3.185   2.983  3.5914 -1.5374 -0.4364
  158MOL0     H20833   6.039   3.039   2.878  0.4128 -0.8368  1.3878
  158MOL0     H20834   5.839   3.232   2.925 -0.0351 -1.0733  0.6214
  158MOL0     H20835   5.915   3.282   2.774  1.4539  0.6990  0.3646
  158MOL0     H20836   5.726   3.133   2.737  3.2646  3.9157 -2.3059
  158MOL0     H20837   5.812   2.998   2.831  0.3212  0.4947  1.2797
  158MOL0     H20838   6.630   3.677   2.526  1.3855  0.9937  0.2159
  158MOL0     H20839   6.806   3.734   2.351 -0.1291 -1.5477 -1.2948
  158MOL0     H20840   7.394   3.727   2.316 -3.3257 -0.4759  0.4108
  158MOL0     H20841   7.520   3.801   2.137  1.4057 -3.5457  1.6913
  158MOL0     H20842   7.246   3.329   2.411  0.5107  0.0948  0.6448
  158MOL0     H20843   7.143   3.177   2.569 -0.5988  0.5314 -0.0600
  158MOL0     H20844   7.194   2.775   2.723 -0.1104  2.1084 -1.7408
  158MOL0     H20845   7.172   2.667   2.952  0.0873  1.1865  0.1897
  158MOL0     H20846   6.808   2.638   3.114 -0.1218  1.9679 -0.1541
  158MOL0     H20847   6.823   2.779   3.235  2.3866  1.0104  0.8849
  158MOL0     H20848   6.810   2.533   3.308  1.0934 -0.9655 -0.4273
  158MOL0     H20849   6.977   2.500   3.256  1.5288 -0.3729  1.8738
  158MOL0     H20850   6.874   2.714   3.458  0.2239  1.5418 -3.0538
  158MOL0     H20851   7.052   2.685   3.436  1.3686 -1.0349  0.0110
  158MOL0     H20852   6.870   2.475   3.553 -1.5541  0.9327 -2.1985
  158MOL0     H20853   7.039   2.469   3.500 -0.9583 -0.1451 -0.9591
  158MOL0     H20854   6.992   2.758   3.839 -0.2801 -0.6148  1.6699
  158MOL0     H20855   6.801   2.888   3.019  0.6238  3.7612  1.0110
  158MOL0     H20856   6.815   2.966   2.792  0.0996 -1.9796 -0.7931
  159MOL0     O20857   0.375   6.850   3.346  0.7887  0.4295  0.3463
  159MOL0     C20858   0.420   6.856   3.459 -0.2131 -0.4183  0.3716
  159MOL0     O20859   0.511   6.951   3.503  0.0589  0.3567  0.7402
  159MOL0     C20860   0.509   7.065   3.424  0.5970  0.5726 -0.6247
  159MOL0     C20861   0.408   7.147   3.462  0.1304  0.2941 -0.0526
  159MOL0     C20862   0.389   7.271   3.403  0.3700 -0.3482  0.2364
  159MOL0     C20863   0.470   7.308   3.293 -0.0673  0.4054 -0.6831
  159MOL0     O20864   0.447   7.416   3.231  0.2520  0.0077  0.3462
  159MOL0     C20865   0.563   7.499   3.208 -0.6879  0.2421  0.9813
  159MOL0     C20866   0.527   7.585   3.093 -0.6833 -0.3771  0.3782
  159MOL0     C20867   0.640   7.660   3.020  1.2492  0.5344 -0.2227
  159MOL0     C20868   0.587   7.729   2.897  0.5172  0.2129 -1.2823
  159MOL0     C20869   0.690   7.773   2.795  0.3985 -0.7122  0.2751
  159MOL0     C20870   0.790   7.672   2.740  0.4680 -0.5222  0.3206
  159MOL0     C20871   0.712   7.566   2.656  0.1561  1.1590  0.1820
  159MOL0     C20872   0.803   7.460   2.592 -0.5125  0.0784 -0.4132
  159MOL0     N20873   0.736   7.370   2.502 -0.1950  1.0001  0.2598
  159MOL0     C20874   0.603   7.320   2.499 -0.1463 -0.5770  0.2913
  159MOL0     C20875   0.602   7.236   2.396  0.0843 -0.3970  0.0977
  159MOL0     C20876   0.497   7.128   2.355  0.4176  0.3499 -0.1840
  159MOL0     C20877   0.386   7.192   2.264 -0.1095  0.4731 -0.0460
  159MOL0     C20878   0.262   7.096   2.247  0.5784  0.2993 -0.7026
  159MOL0     C20879   0.132   7.163   2.270  0.8968  0.0431  0.4225
  159MOL0     O20880   0.105   7.274   2.174 -0.1488  0.3320 -0.1217
  159MOL0     C20881   0.055   7.242   2.052 -0.1593  0.3886 -0.2994
  159MOL0     C20882   0.023   7.351   1.965  0.3291 -0.3653  0.4598
  159MOL0     C20883  -0.017   7.327   1.835 -0.5643  0.9272  0.1219
  159MOL0     C20884  -0.050   7.199   1.784  0.1910 -0.5132  0.6741
  159MOL0     C20885  -0.110   7.173   1.646 -0.2944 -0.1091 -0.0390
  159MOL0     O20886  -0.145   7.285   1.571  0.3760 -0.5893 -0.0991
  159MOL0     C20887  -0.209   7.262   1.458  0.7058  0.0465  1.9262
  159MOL0     C20888  -0.134   7.260   1.336 -0.3144 -0.3406 -0.0441
  159MOL0     C20889  -0.209   7.244   1.213 -0.6641 -0.1201  0.2457
  159MOL0     C20890  -0.345   7.237   1.210 -0.8975  0.2738 -0.5065
  159MOL0     O20891  -0.417   7.239   1.096 -0.0295 -0.6658 -0.6777
  159MOL0     C20892  -0.406   7.350   1.011 -0.2181  0.5233 -0.0156
  159MOL0     C20893  -0.490   7.480   1.042 -0.2255  0.5915 -0.5466
  159MOL0     C20894  -0.621   7.477   1.109 -0.1917 -0.0071  0.5256
  159MOL0     C20895  -0.723   7.394   1.018  0.5398 -0.2483 -0.8678
  159MOL0     C20896  -0.759   7.456   0.879  1.0723 -0.1784  0.3761
  159MOL0     C20897  -0.715   7.363   0.773 -0.8957 -0.2978 -0.2981
  159MOL0     C20898  -0.735   7.438   0.641  0.0530 -0.8084  0.6916
  159MOL0     C20899  -0.615   7.477   0.562 -0.9591 -0.3360 -0.4456
  159MOL0    Cl20900  -0.495   7.559   0.673  0.1634 -0.1743 -0.0575
  159MOL0     C20901  -0.413   7.255   1.333  0.2406 -0.3540 -0.8079
  159MOL0     C20902  -0.348   7.249   1.450 -0.0531 -0.7309  0.0337
  159MOL0     O20903  -0.120   7.055   1.614  0.1441 -0.1740  0.3830
  159MOL0     C20904  -0.031   7.092   1.873  0.1109  0.0917  0.1182
  159MOL0     C20905   0.026   7.110   2.005  0.2849 -0.6114 -0.5232
  159MOL0     N20906   0.729   7.232   2.329  0.0137  0.6568  0.0589
  159MOL0     N20907   0.805   7.314   2.397  0.3794  0.6316  0.1748
  159MOL0     C20908   0.572   7.216   3.252 -0.4005  0.1939 -0.7704
  159MOL0     C20909   0.594   7.098   3.318  1.2464 -0.7083  0.2546
  159MOL0     C20910   0.395   6.744   3.550 -0.3869 -0.1820 -0.0816
  159MOL0     C20911   0.471   6.743   3.676  0.8134  0.1258 -0.1738
  159MOL0     C20912   0.454   6.636   3.762 -0.5489 -1.2613 -0.2090
  159MOL0     C20913   0.356   6.537   3.747 -1.1289  0.5936  0.0227
  159MOL0     O20914   0.331   6.438   3.839  0.2981  0.2211  0.0309
  159MOL0     C20915   0.359   6.459   3.975  0.3913 -0.1567 -0.2395
  159MOL0     C20916   0.249   6.542   4.047  0.3677  0.3276  0.0506
  159MOL0     C20917   0.274   6.698   4.050 -0.1126 -0.3064  1.3247
  159MOL0     C20918   0.405   6.743   4.122 -0.4282 -0.6282 -0.2989
  159MOL0     C20919   0.397   6.753   4.272  0.3461 -0.1772  0.1260
  159MOL0     C20920   0.373   6.754   4.397 -0.5249 -0.7144  0.1608
  159MOL0     C20921   0.290   6.538   3.627 -0.1289  0.5652  0.7169
  159MOL0     C20922   0.305   6.641   3.535  0.0378 -0.3612 -0.0275
  159MOL0     H20923   0.336   7.117   3.538  0.9414 -0.1440  0.5571
  159MOL0     H20924   0.310   7.336   3.438 -1.1157 -1.4385 -0.9326
  159MOL0     H20925   0.650   7.440   3.179 -1.0944  0.1604 -0.0945
  159MOL0     H20926   0.584   7.578   3.281  1.6984  0.0015  0.6099
  159MOL0     H20927   0.461   7.666   3.127  0.4326 -0.2543  2.4038
  159MOL0     H20928   0.484   7.515   3.021  2.2806 -4.0887  1.8811
  159MOL0     H20929   0.718   7.586   3.000  2.1763  0.7405  2.2471
  159MOL0     H20930   0.680   7.734   3.089  3.2915 -0.9163  0.2286
  159MOL0     H20931   0.519   7.660   2.846  0.5601 -0.9593  0.1908
  159MOL0     H20932   0.531   7.819   2.927  0.5929  0.0833 -0.7335
  159MOL0     H20933   0.741   7.862   2.834 -2.0191  0.6704  0.4961
  159MOL0     H20934   0.641   7.813   2.706  0.3604  0.4556  0.7983
  159MOL0     H20935   0.844   7.617   2.818  0.7585  0.3390  0.7372
  159MOL0     H20936   0.856   7.720   2.668  1.0985  0.4202  1.5048
  159MOL0     H20937   0.633   7.507   2.703 -0.9495  0.4368 -2.4169
  159MOL0     H20938   0.667   7.627   2.577 -0.0517  0.2643 -0.3988
  159MOL0     H20939   0.855   7.406   2.671 -0.1420  2.1369  0.8260
  159MOL0     H20940   0.886   7.504   2.536 -0.7830  0.1188 -0.7846
  159MOL0     H20941   0.518   7.333   2.566  0.0727  1.1188  0.2896
  159MOL0     H20942   0.437   7.100   2.443  1.3146 -4.9545 -0.8916
  159MOL0     H20943   0.552   7.044   2.311 -1.5128 -1.0346 -0.0995
  159MOL0     H20944   0.437   7.212   2.169 -1.6057  3.5161 -0.3306
  159MOL0     H20945   0.364   7.285   2.317  1.8418  1.0082 -0.0909
  159MOL0     H20946   0.249   7.065   2.143  0.6390 -1.6219 -0.1669
  159MOL0     H20947   0.264   7.002   2.303  0.8927 -1.1775 -3.0574
  159MOL0     H20948   0.123   7.210   2.369  1.7757 -0.8812  0.9638
  159MOL0     H20949   0.053   7.088   2.263  0.9817 -0.1549  1.3899
  159MOL0     H20950   0.043   7.455   1.990 -2.5300  1.0273 -2.3430
  159MOL0     H20951  -0.026   7.416   1.772  0.9132  1.6299  0.8614
  159MOL0     H20952  -0.027   7.279   1.337 -0.5548  1.1589 -0.1994
  159MOL0     H20953  -0.147   7.237   1.124  1.0693  0.0753  1.3785
  159MOL0     H20954  -0.451   7.316   0.917 -3.8680 -2.0740  2.3437
  159MOL0     H20955  -0.304   7.387   0.999 -0.2297  0.7149  0.4545
  159MOL0     H20956  -0.496   7.525   0.943 -2.2743  3.2406  0.6508
  159MOL0     H20957  -0.429   7.548   1.103 -1.0297  1.0240 -0.2082
  159MOL0     H20958  -0.654   7.581   1.121  2.8384  1.2215 -0.7552
  159MOL0     H20959  -0.617   7.443   1.213 -2.1988  2.4798  1.5205
  159MOL0     H20960  -0.665   7.304   0.998 -1.6356 -1.3513 -2.5857
  159MOL0     H20961  -0.812   7.375   1.079  0.7345  0.5041 -0.3367
  159MOL0     H20962  -0.716   7.554   0.857 -0.8233  0.5086 -0.4895
  159MOL0     H20963  -0.867   7.470   0.878  0.7774 -1.8445  2.5405
  159MOL0     H20964  -0.777   7.274   0.763  2.9742 -3.0596 -2.6030
  159MOL0     H20965  -0.615   7.317   0.768 -0.5724  0.1166  1.6235
  159MOL0     H20966  -0.795   7.378   0.573  1.2143  0.3020 -1.4007
  159MOL0     H20967  -0.788   7.533   0.650 -0.4839 -1.0990  0.5964
  159MOL0     H20968  -0.663   7.540   0.487 -1.3369 -1.3125 -1.0440
  159MOL0     H20969  -0.576   7.384   0.521 -1.2928 -0.8715  0.4170
  159MOL0     H20970  -0.521   7.248   1.346  0.2033  0.9436 -0.2771
  159MOL0     H20971  -0.401   7.246   1.545  0.1159 -0.4623  0.1370
  159MOL0     H20972  -0.064   6.998   1.831  1.3517  0.6262 -2.2271
  159MOL0     H20973   0.034   7.024   2.071  0.1735  2.4655  3.9063
  159MOL0     H20974   0.628   7.246   3.163  2.9011 -2.2765  0.2986
  159MOL0     H20975   0.674   7.031   3.287  1.7988 -0.5433  1.2800
  159MOL0     H20976   0.531   6.830   3.700 -0.0005  1.2373 -1.9572
  159MOL0     H20977   0.522   6.640   3.846 -1.1375  0.2969  0.2307
  159MOL0     H20978   0.459   6.503   3.982  1.3023 -2.3551  4.4589
  159MOL0     H20979   0.362   6.364   4.029 -1.2145  1.5976  3.2255
  159MOL0     H20980   0.157   6.506   3.999  1.8710 -0.2491 -2.6130
  159MOL0     H20981   0.248   6.497   4.146 -1.5417  0.9782  0.3629
  159MOL0     H20982   0.192   6.763   4.084  0.0502  1.0086 -0.5983
  159MOL0     H20983   0.292   6.725   3.945 -0.9055 -4.2222  0.0001
  159MOL0     H20984   0.482   6.670   4.093  1.5615  0.9586  0.7292
  159MOL0     H20985   0.439   6.839   4.084 -0.1749 -0.4612  0.3383
  159MOL0     H20986   0.342   6.726   4.495 -0.1672 -1.4607  0.0726
  159MOL0     H20987   0.219   6.457   3.613 -1.6425  2.0444 -0.6533
  159MOL0     H20988   0.235   6.648   3.452  2.6011 -0.1755 -2.3089
  160MOL0     O20989  10.947   6.447   8.884 -0.2099 -0.1112  0.1043
  160MOL0     C20990  10.946   6.331   8.919  0.2177  0.1391 -0.1530
  160MOL0     O20991  10.843   6.242   8.915 -0.5227  0.3769  0.4133
  160MOL0     C20992  10.713   6.271   8.882 -0.2611 -0.6898 -0.9224
  160MOL0     C20993  10.657   6.401   8.896 -0.5010  0.8537 -0.6991
  160MOL0     C20994  10.517   6.420   8.879 -0.8253 -0.2171 -1.0017
  160MOL0     C20995  10.439   6.310   8.834 -1.1526 -0.4814 -0.8540
  160MOL0     O20996  10.301   6.321   8.822  1.1067  0.4588 -0.0694
  160MOL0     C20997  10.232   6.441   8.861 -0.2073  0.0647 -0.1979
  160MOL0     C20998  10.076   6.415   8.889  0.3008 -1.0017 -0.0460
  160MOL0     C20999  10.058   6.344   9.029  0.7663 -1.3171  0.5600
  160MOL0     C21000   9.910   6.349   9.075 -0.6586  0.5922  0.8092
  160MOL0     C21001   9.864   6.228   9.151 -0.4066  0.0737 -0.3444
  160MOL0     C21002   9.724   6.266   9.213  0.8278 -0.0435  0.5739
  160MOL0     C21003   9.696   6.165   9.337  1.1716 -0.0752  0.3539
  160MOL0     C21004   9.547   6.196   9.359  0.3040 -0.9550 -0.1636
  160MOL0     N21005   9.508   6.151   9.488  0.4495 -0.5364  0.1446
  160MOL0     C21006   9.460   6.019   9.509 -0.3189 -0.0326 -0.1132
  160MOL0     C21007   9.388   6.026   9.616  1.0913 -0.2369  0.3335
  160MOL0     C21008   9.298   5.927   9.687 -0.7640  0.5647 -0.0372
  160MOL0     C21009   9.168   5.979   9.728  0.4550  0.2402  0.1732
  160MOL0     C21010   9.166   6.052   9.859  0.9304  0.1081  0.2093
  160MOL0     C21011   9.191   5.978   9.999 -0.0033  0.3843  0.0447
  160MOL0     O21012   9.325   5.928  10.009 -0.8925  0.6851 -0.3082
  160MOL0     C21013   9.348   5.829  10.099  0.7928 -0.1280 -0.4590
  160MOL0     C21014   9.299   5.829  10.228  0.4976 -0.2542  0.2587
  160MOL0     C21015   9.314   5.724  10.320  0.3563 -0.1070  0.0342
  160MOL0     C21016   9.403   5.619  10.276  0.3127  0.6308 -0.0091
  160MOL0     C21017   9.432   5.503  10.360  0.3914  0.7248 -0.3111
  160MOL0     O21018   9.402   5.526  10.494 -0.2118 -0.0434  1.0541
  160MOL0     C21019   9.436   5.425  10.579 -0.6983 -1.1206  0.9247
  160MOL0     C21020   9.338   5.374  10.659  0.2520 -0.2152 -1.1209
  160MOL0     C21021   9.377   5.263  10.746  0.2218 -0.2620  0.2872
  160MOL0     C21022   9.505   5.217  10.749  0.7766 -0.7535 -0.0111
  160MOL0     O21023   9.522   5.117  10.831 -0.8862  0.6501 -0.0292
  160MOL0     C21024   9.630   5.018  10.803 -0.4903 -0.4173  0.6125
  160MOL0     C21025   9.609   4.888  10.882  0.3283  0.5696 -0.6681
  160MOL0     C21026   9.724   4.782  10.879 -0.0306 -1.1198  0.7077
  160MOL0     C21027   9.688   4.646  10.948 -0.2217  0.0058  0.1520
  160MOL0     C21028   9.584   4.556  10.878 -0.3478 -0.8930 -0.5163
  160MOL0     C21029   9.592   4.416  10.934 -1.2219 -0.6651 -0.0138
  160MOL0     C21030   9.543   4.310  10.825 -0.7155 -0.3329  0.1712
  160MOL0     C21031   9.585   4.161  10.858  0.4361  0.9975 -0.3789
  160MOL0    Cl21032   9.543   4.113  11.019 -0.3703  0.0867  0.1706
  160MOL0     C21033   9.597   5.261  10.656 -1.2881 -0.3204 -0.5207
  160MOL0     C21034   9.569   5.377  10.579  1.0137 -0.1308 -0.2427
  160MOL0     O21035   9.485   5.402  10.308 -0.4318  0.7581  0.3070
  160MOL0     C21036   9.465   5.623  10.146 -0.2502 -0.4854  0.1091
  160MOL0     C21037   9.448   5.732  10.061  0.2164  0.6664 -0.0821
  160MOL0     N21038   9.385   6.163   9.658  0.7956  1.1918  0.4893
  160MOL0     N21039   9.463   6.235   9.583 -0.6485  0.5454 -0.0833
  160MOL0     C21040  10.499   6.183   8.829 -0.6325  0.0306  0.4358
  160MOL0     C21041  10.634   6.162   8.851  0.6398  0.7140 -0.7694
  160MOL0     C21042  11.083   6.278   8.944 -0.6439 -0.0303 -0.3081
  160MOL0     C21043  11.102   6.146   8.988 -0.0607  0.1093 -0.2999
  160MOL0     C21044  11.227   6.109   9.029  0.8370  0.2723 -0.1291
  160MOL0     C21045  11.341   6.187   8.998 -0.9640  0.1717 -0.7305
  160MOL0     O21046  11.466   6.134   9.044  0.4029 -0.3311 -0.0508
  160MOL0     C21047  11.475   6.080   9.174  0.0573 -0.1093  0.0705
  160MOL0     C21048  11.537   5.943   9.169  0.2071  0.5060  0.8447
  160MOL0     C21049  11.695   5.924   9.127  0.8961 -0.4125  0.7737
  160MOL0     C21050  11.727   5.771   9.157  0.4173 -0.1793 -0.4462
  160MOL0     C21051  11.843   5.777   9.244 -0.9061  0.0387 -0.3242
  160MOL0     C21052  11.946   5.781   9.309  1.9447  0.1670 -0.5176
  160MOL0     C21053  11.330   6.317   8.933 -0.0956  1.0321  0.4723
  160MOL0     C21054  11.200   6.362   8.922 -0.4124 -0.0909 -0.0547
  160MOL0     H21055  10.714   6.484   8.936  0.7470 -0.7383  0.9887
  160MOL0     H21056  10.467   6.514   8.900 -1.8730 -0.6218 -1.6042
  160MOL0     H21057  10.244   6.517   8.783 -1.6429 -0.7962 -1.3045
  160MOL0     H21058  10.272   6.479   8.955 -1.0471 -1.1153  0.6607
  160MOL0     H21059  10.030   6.349   8.815 -2.6616  0.2020  0.5847
  160MOL0     H21060  10.017   6.507   8.895  0.3617 -1.0493  1.8210
  160MOL0     H21061  10.136   6.371   9.101  0.1492 -4.1509  2.4791
  160MOL0     H21062  10.078   6.239   9.004  0.4467 -0.9035 -1.6784
  160MOL0     H21063   9.887   6.438   9.135  0.1779  0.7008  0.9811
  160MOL0     H21064   9.848   6.358   8.985 -1.0253 -0.2793  0.9716
  160MOL0     H21065   9.935   6.213   9.233  0.1127 -1.0226 -0.9692
  160MOL0     H21066   9.858   6.145   9.080 -0.9241 -0.3270  0.1673
  160MOL0     H21067   9.649   6.239   9.138  2.1159  0.0423 -0.7875
  160MOL0     H21068   9.708   6.369   9.244 -4.6443 -0.2264 -0.5747
  160MOL0     H21069   9.709   6.058   9.316 -2.0249 -0.8211  1.5501
  160MOL0     H21070   9.766   6.192   9.416  0.8545  1.9148 -0.0037
  160MOL0     H21071   9.483   6.141   9.289 -4.1633  2.2722  0.9129
  160MOL0     H21072   9.514   6.300   9.346  1.5404 -0.5166  0.1037
  160MOL0     H21073   9.487   5.935   9.447  0.7689 -0.5221  0.9846
  160MOL0     H21074   9.365   5.883   9.761  2.9734  1.5937 -2.5181
  160MOL0     H21075   9.272   5.862   9.603  0.1057 -1.0126  0.8879
  160MOL0     H21076   9.104   5.896   9.759  0.6803  0.5053  1.4159
  160MOL0     H21077   9.126   6.042   9.649  0.4934 -1.9367 -1.6872
  160MOL0     H21078   9.228   6.142   9.847 -0.3970  0.9126 -0.9475
  160MOL0     H21079   9.064   6.093   9.861 -0.6404 -3.3894 -0.5374
  160MOL0     H21080   9.111   5.906  10.021 -1.6915  1.5066 -2.1061
  160MOL0     H21081   9.185   6.050  10.081  0.0909  0.7046 -0.2321
  160MOL0     H21082   9.240   5.908  10.272  1.1143  0.3344  0.0558
  160MOL0     H21083   9.283   5.734  10.424  2.3106  1.5777  0.5229
  160MOL0     H21084   9.237   5.412  10.649  0.6177  1.7039  1.3547
  160MOL0     H21085   9.299   5.224  10.809  0.5650 -0.4206  0.6200
  160MOL0     H21086   9.730   5.054  10.826  0.1512 -2.5563  1.4209
  160MOL0     H21087   9.628   4.993  10.697  2.0423  0.4747  0.2899
  160MOL0     H21088   9.518   4.839  10.847 -1.0700  2.4290  0.1829
  160MOL0     H21089   9.581   4.916  10.984 -3.6220 -1.9251 -0.8571
  160MOL0     H21090   9.807   4.828  10.933 -1.3150  1.2243  0.8168
  160MOL0     H21091   9.752   4.767  10.775  1.7276 -0.5643  1.0843
  160MOL0     H21092   9.781   4.589  10.952  0.2456  0.6548 -1.0235
  160MOL0     H21093   9.653   4.646  11.052 -0.7981 -2.9973  0.0508
  160MOL0     H21094   9.592   4.563  10.769 -1.5581 -1.3654 -0.6571
  160MOL0     H21095   9.488   4.597  10.910  0.1804 -0.3413  0.4209
  160MOL0     H21096   9.517   4.409  11.013 -2.0669 -1.1698 -0.8383
  160MOL0     H21097   9.694   4.392  10.965 -1.1169 -1.8591 -1.1958
  160MOL0     H21098   9.434   4.313  10.817 -0.7694  0.9951  0.9572
  160MOL0     H21099   9.585   4.332  10.726 -0.6820 -4.3589 -0.8889
  160MOL0     H21100   9.693   4.149  10.847  0.7140  1.3683  1.6298
  160MOL0     H21101   9.537   4.093  10.786 -0.3525 -2.0499  2.7810
  160MOL0     H21102   9.697   5.220  10.664 -0.2895  1.9657 -0.4015
  160MOL0     H21103   9.647   5.421  10.518  1.6640  1.6097  1.7533
  160MOL0     H21104   9.538   5.545  10.128  0.5617  0.5405 -1.2898
  160MOL0     H21105   9.483   5.746   9.960 -0.4700  0.1891 -0.3914
  160MOL0     H21106  10.439   6.102   8.789  1.8816 -2.4970  1.4688
  160MOL0     H21107  10.680   6.064   8.859 -2.3665 -0.6660  2.9822
  160MOL0     H21108  11.022   6.074   9.002  0.0363  0.0974  0.2464
  160MOL0     H21109  11.249   6.005   9.051 -0.2984  0.3398  1.5035
  160MOL0     H21110  11.382   6.063   9.230  1.1103  1.2246  2.3837
  160MOL0     H21111  11.535   6.146   9.238 -0.3002  0.2841  0.0069
  160MOL0     H21112  11.539   5.910   9.273  1.8433 -0.6962  0.4762
  160MOL0     H21113  11.478   5.879   9.104  0.6277  1.1922 -0.2472
  160MOL0     H21114  11.748   6.000   9.186  0.4329 -0.1207  0.8248
  160MOL0     H21115  11.709   5.951   9.022 -3.2452 -1.0219 -0.1491
  160MOL0     H21116  11.648   5.714   9.207 -0.4075  1.4542  0.1908
  160MOL0     H21117  11.746   5.733   9.056 -0.6060  0.2747 -0.8343
  160MOL0     H21118  12.026   5.768   9.379  0.0763  0.5385  1.8284
  160MOL0     H21119  11.423   6.373   8.924  0.9276 -0.2699  2.2259
  160MOL0     H21120  11.178   6.463   8.890  2.3897  1.5864  2.7988
  161MOL0     O21121   5.142   3.792  11.348 -0.2714  0.8569  0.8868
  161MOL0     C21122   5.086   3.741  11.248 -0.2696  0.8137 -0.2845
  161MOL0     O21123   4.954   3.740  11.232 -0.2147  0.6488 -0.2470
  161MOL0     C21124   4.858   3.779  11.319  1.2880 -0.8449 -0.9739
  161MOL0     C21125   4.767   3.884  11.279  0.0087  0.4408 -0.4301
  161MOL0     C21126   4.654   3.930  11.356  0.1048  1.1248  0.6889
  161MOL0     C21127   4.622   3.857  11.465  0.3074  0.3206 -0.0725
  161MOL0     O21128   4.503   3.889  11.533 -0.0179 -0.0753 -0.0072
  161MOL0     C21129   4.494   4.026  11.578  0.3460 -0.3260 -0.3953
  161MOL0     C21130   4.364   4.038  11.667 -0.4392 -0.3457  0.3737
  161MOL0     C21131   4.328   4.178  11.707 -0.1590 -0.9917  0.1144
  161MOL0     C21132   4.327   4.282  11.589  0.0064  1.1131  1.0139
  161MOL0     C21133   4.279   4.419  11.615 -0.4971  0.1846 -0.1755
  161MOL0     C21134   4.147   4.438  11.684  0.0012  0.5495 -0.4384
  161MOL0     C21135   4.074   4.572  11.665  0.2967 -0.3845 -0.1264
  161MOL0     C21136   3.954   4.589  11.760  0.6755 -0.0427 -0.0189
  161MOL0     N21137   3.862   4.689  11.703  0.8960  0.1058  0.1058
  161MOL0     C21138   3.751   4.657  11.630 -1.0484  0.5700  0.5458
  161MOL0     C21139   3.720   4.773  11.576  0.0262  0.2858  0.6653
  161MOL0     C21140   3.601   4.779  11.495  0.0252  0.1682  0.4015
  161MOL0     C21141   3.474   4.823  11.573  0.5322 -0.1733 -0.4632
  161MOL0     C21142   3.481   4.964  11.628 -0.4963  0.3898  0.0708
  161MOL0     C21143   3.350   5.012  11.677  0.8852 -0.2134 -0.1601
  161MOL0     O21144   3.361   5.141  11.731 -0.0034  0.1939  0.2876
  161MOL0     C21145   3.325   5.258  11.665  0.0752  0.4909  0.0553
  161MOL0     C21146   3.295   5.272  11.527  0.2571  0.8807 -0.5817
  161MOL0     C21147   3.258   5.391  11.467  0.7471  0.6189 -0.2870
  161MOL0     C21148   3.238   5.503  11.546 -0.5349 -0.2246  0.1433
  161MOL0     C21149   3.211   5.629  11.481  0.2734  0.0545 -0.2438
  161MOL0     O21150   3.293   5.735  11.521 -0.5755 -0.2074  0.0849
  161MOL0     C21151   3.292   5.861  11.460 -0.4976 -0.0259 -0.2969
  161MOL0     C21152   3.254   5.879  11.328 -1.1515 -0.2613  0.1191
  161MOL0     C21153   3.275   6.005  11.269  0.1110 -0.1553  0.3724
  161MOL0     C21154   3.303   6.127  11.346  0.5809  0.3567  0.3356
  161MOL0     O21155   3.311   6.248  11.283  0.8784  0.2537  0.1329
  161MOL0     C21156   3.276   6.366  11.357  0.2476 -0.5926  1.0852
  161MOL0     C21157   3.224   6.481  11.271  0.1691  0.2064 -0.5202
  161MOL0     C21158   3.154   6.584  11.361  0.1702 -0.0885 -0.6262
  161MOL0     C21159   3.171   6.726  11.306  0.3785 -0.8815 -1.1860
  161MOL0     C21160   3.098   6.840  11.389 -0.8082 -0.1824  0.5185
  161MOL0     C21161   3.082   6.970  11.305 -1.1732 -1.1588  0.2348
  161MOL0     C21162   3.047   7.095  11.383  0.1016  0.4459 -1.4993
  161MOL0     C21163   2.910   7.164  11.357 -0.1648  0.4341  0.6960
  161MOL0    Cl21164   2.873   7.274  11.494  0.6053 -0.1252 -0.1340
  161MOL0     C21165   3.352   6.098  11.485  0.6098 -0.0880 -0.4596
  161MOL0     C21166   3.342   5.969  11.536 -0.4079  0.0129 -0.1224
  161MOL0     O21167   3.117   5.636  11.405  0.1405  0.0375  0.0671
  161MOL0     C21168   3.278   5.495  11.675 -1.0410  1.0515  0.3890
  161MOL0     C21169   3.322   5.374  11.739 -0.0159  0.3226 -0.0022
  161MOL0     N21170   3.795   4.873  11.621 -1.5124 -0.1075 -0.3234
  161MOL0     N21171   3.889   4.822  11.690  0.2867  0.2652  0.7234
  161MOL0     C21172   4.712   3.766  11.529  0.2164  0.0015  0.0188
  161MOL0     C21173   4.816   3.711  11.441  0.1269 -0.5082  0.1132
  161MOL0     C21174   5.158   3.688  11.132 -0.7720  0.5029 -0.6074
  161MOL0     C21175   5.295   3.674  11.146 -0.6378  0.0786 -0.0837
  161MOL0     C21176   5.378   3.612  11.048 -1.0463  0.1454 -0.9316
  161MOL0     C21177   5.318   3.577  10.922 -0.4369 -0.7119 -0.2804
  161MOL0     O21178   5.387   3.520  10.817  0.4654  0.1195 -0.6548
  161MOL0     C21179   5.531   3.528  10.805  0.8610  0.6705  0.1840
  161MOL0     C21180   5.576   3.657  10.741  0.4773 -0.6689 -0.0075
  161MOL0     C21181   5.520   3.674  10.596  1.2500 -0.6602 -0.0144
  161MOL0     C21182   5.519   3.820  10.557  0.1412 -0.3120 -0.2475
  161MOL0     C21183   5.419   3.844  10.447 -0.2834  0.3530  0.3001
  161MOL0     C21184   5.350   3.866  10.352  0.0673 -0.1792  1.2551
  161MOL0     C21185   5.177   3.596  10.908  0.2379  0.6853 -0.4493
  161MOL0     C21186   5.108   3.651  11.014 -0.0850  0.5143 -0.3650
  161MOL0     H21187   4.776   3.931  11.182 -1.7920 -0.0165 -0.8507
  161MOL0     H21188   4.585   4.007  11.323 -1.3785  0.0038  1.0357
  161MOL0     H21189   4.484   4.094  11.494 -0.2022  3.2185  2.2893
  161MOL0     H21190   4.577   4.052  11.644 -1.3099  2.2858  0.8089
  161MOL0     H21191   4.373   3.977  11.757  1.4070  1.4508  1.4875
  161MOL0     H21192   4.283   4.000  11.603  1.0112 -0.0913 -1.7433
  161MOL0     H21193   4.389   4.222  11.785 -2.2121 -0.8895  1.7562
  161MOL0     H21194   4.225   4.173  11.746  0.6035 -1.5147  2.1698
  161MOL0     H21195   4.427   4.289  11.544 -1.0120 -1.4581 -1.9896
  161MOL0     H21196   4.271   4.239  11.506  2.4708  1.6627 -1.0911
  161MOL0     H21197   4.278   4.481  11.525  0.9859  0.3351 -0.1146
  161MOL0     H21198   4.344   4.470  11.687 -2.7965  4.8129 -0.9531
  161MOL0     H21199   4.157   4.414  11.790 -4.0617 -0.7391 -0.1651
  161MOL0     H21200   4.083   4.355  11.652 -0.5141  0.8676 -0.2472
  161MOL0     H21201   4.146   4.654  11.671  1.2853 -1.3144  1.7213
  161MOL0     H21202   4.042   4.563  11.561 -1.0997 -0.7191  0.3062
  161MOL0     H21203   3.986   4.619  11.860 -0.8714  0.7778  0.2758
  161MOL0     H21204   3.906   4.490  11.767 -0.6467  0.3735 -2.1987
  161MOL0     H21205   3.702   4.560  11.621  0.1928 -0.1198  0.9633
  161MOL0     H21206   3.576   4.687  11.441 -3.2681 -1.6090  4.3967
  161MOL0     H21207   3.612   4.848  11.411 -2.9281  4.7200  3.2941
  161MOL0     H21208   3.456   4.747  11.649  0.0527 -0.5113 -0.9152
  161MOL0     H21209   3.387   4.832  11.509  1.3437  2.3896 -1.3624
  161MOL0     H21210   3.549   4.953  11.713 -2.2802  1.2965  1.6914
  161MOL0     H21211   3.513   5.034  11.550  0.7349  0.0630  0.2633
  161MOL0     H21212   3.306   4.945  11.751 -1.3217  1.9906  0.6616
  161MOL0     H21213   3.271   5.010  11.600  0.3446 -1.4171  0.4038
  161MOL0     H21214   3.298   5.182  11.466  6.3789 -0.8400  1.5392
  161MOL0     H21215   3.260   5.389  11.358  0.3094  1.1048 -0.3073
  161MOL0     H21216   3.231   5.790  11.270 -0.2232 -1.9154  2.1535
  161MOL0     H21217   3.250   6.021  11.164  0.3821 -0.6266  0.2345
  161MOL0     H21218   3.371   6.392  11.403  2.8772  1.7761 -4.7494
  161MOL0     H21219   3.204   6.336  11.434 -0.2835  2.0815  1.7400
  161MOL0     H21220   3.147   6.436  11.209  1.6062 -0.2255 -2.0814
  161MOL0     H21221   3.307   6.534  11.223  0.1673  1.8251  1.1330
  161MOL0     H21222   3.191   6.580  11.464  2.4997  1.0394 -1.3378
  161MOL0     H21223   3.046   6.567  11.360 -0.5702  3.3639  1.5394
  161MOL0     H21224   3.274   6.760  11.321 -0.1733  0.1799  0.5673
  161MOL0     H21225   3.145   6.738  11.200 -2.5110  1.9458 -0.3338
  161MOL0     H21226   3.166   6.862  11.472  4.4640 -0.5338 -3.2143
  161MOL0     H21227   3.002   6.805  11.430 -0.9497 -0.7419 -0.2674
  161MOL0     H21228   2.997   6.955  11.238 -0.6770  1.8910 -1.2499
  161MOL0     H21229   3.167   6.986  11.237 -1.8552 -2.1932 -0.8985
  161MOL0     H21230   3.055   7.082  11.491 -2.7888 -1.1040 -1.3774
  161MOL0     H21231   3.116   7.173  11.348  1.1081  1.1161  1.6848
  161MOL0     H21232   2.838   7.082  11.364 -2.4521  2.4094  1.2185
  161MOL0     H21233   2.907   7.208  11.257 -1.4498 -0.3183  0.3891
  161MOL0     H21234   3.401   6.180  11.536 -0.6660 -0.6515  1.8502
  161MOL0     H21235   3.369   5.938  11.637 -0.2295  0.4356 -0.0370
  161MOL0     H21236   3.278   5.588  11.730 -0.6888  1.8086 -0.8691
  161MOL0     H21237   3.358   5.368  11.842  0.5166  1.4972 -0.1017
  161MOL0     H21238   4.685   3.704  11.614  1.3421 -0.2497  0.2094
  161MOL0     H21239   4.878   3.633  11.482  3.2770  2.6822  2.0377
  161MOL0     H21240   5.331   3.719  11.238 -0.0198  1.5902 -1.0268
  161MOL0     H21241   5.485   3.592  11.052 -1.2009 -1.1092 -2.1613
  161MOL0     H21242   5.560   3.451  10.732  1.5234 -0.3973  1.5214
  161MOL0     H21243   5.576   3.475  10.890 -0.7848 -0.8071  0.2019
  161MOL0     H21244   5.542   3.744  10.798 -0.7966 -1.8654  1.1214
  161MOL0     H21245   5.686   3.653  10.739  0.4903 -1.3075  1.0671
  161MOL0     H21246   5.423   3.623  10.604 -0.9652  2.9247 -1.4689
  161MOL0     H21247   5.581   3.610  10.531  0.1151 -2.4688  0.6141
  161MOL0     H21248   5.473   3.872  10.642 -4.3023 -1.1113 -1.8456
  161MOL0     H21249   5.619   3.856  10.535 -0.2595  1.0406  0.0567
  161MOL0     H21250   5.308   3.883  10.255  1.1828  1.7418  1.0496
  161MOL0     H21251   5.129   3.558  10.818 -0.3681 -0.9707  0.5397
  161MOL0     H21252   5.000   3.641  11.000 -0.0654  0.7787 -0.7438
  162MOL0     O21253   4.606   3.764   5.627  0.7383  1.1632 -0.1271
  162MOL0     C21254   4.605   3.791   5.510 -0.4836 -0.3148 -0.2735
  162MOL0     O21255   4.632   3.912   5.459  0.1922  0.0772  0.2837
  162MOL0     C21256   4.692   4.011   5.536  0.9378 -0.2743  0.9364
  162MOL0     C21257   4.795   3.986   5.626  0.3093 -0.1095  0.0042
  162MOL0     C21258   4.860   4.095   5.694  0.5096  0.6186  0.1885
  162MOL0     C21259   4.815   4.226   5.686 -0.5885 -0.5091  1.1522
  162MOL0     O21260   4.869   4.320   5.768  0.4758 -0.1964  0.0827
  162MOL0     C21261   4.974   4.401   5.723 -0.9039  0.2951 -0.0557
  162MOL0     C21262   4.913   4.518   5.633 -0.5709 -0.0754 -0.2033
  162MOL0     C21263   4.803   4.606   5.703 -0.7743 -0.0092  0.0787
  162MOL0     C21264   4.853   4.652   5.843 -0.0552  0.0050 -0.7050
  162MOL0     C21265   4.764   4.763   5.895 -0.1929  0.7336  0.0009
  162MOL0     C21266   4.619   4.728   5.906  1.3184 -0.4189 -0.1723
  162MOL0     C21267   4.542   4.851   5.946 -0.0365  0.1280  0.3337
  162MOL0     C21268   4.395   4.817   5.953  0.3546 -1.0493  0.0735
  162MOL0     N21269   4.340   4.772   6.081 -0.2116  0.3746 -0.5277
  162MOL0     C21270   4.337   4.642   6.113 -0.5469 -0.0705 -0.5335
  162MOL0     C21271   4.270   4.637   6.228 -0.2566  0.1884  0.1780
  162MOL0     C21272   4.227   4.514   6.302  0.3471  1.0068  0.8321
  162MOL0     C21273   4.234   4.521   6.452  0.7184  0.7556 -0.5243
  162MOL0     C21274   4.374   4.530   6.511  0.1384 -1.1309 -0.2636
  162MOL0     C21275   4.374   4.571   6.654  0.1341 -0.2409 -0.6868
  162MOL0     O21276   4.512   4.576   6.685 -0.4833  0.7925 -0.4232
  162MOL0     C21277   4.554   4.614   6.808  0.5295 -0.5137  0.2368
  162MOL0     C21278   4.688   4.585   6.841  0.0832  0.1884 -0.6331
  162MOL0     C21279   4.735   4.624   6.965 -0.3058  1.1470  0.8381
  162MOL0     C21280   4.659   4.683   7.060 -0.1386 -1.0690  0.5267
  162MOL0     C21281   4.706   4.699   7.196 -0.2308  0.4143  0.8811
  162MOL0     O21282   4.618   4.752   7.281 -1.0935 -0.3237 -0.5874
  162MOL0     C21283   4.663   4.786   7.408  0.4074  0.4871  0.1261
  162MOL0     C21284   4.627   4.700   7.514 -1.2818 -0.0435  0.6155
  162MOL0     C21285   4.642   4.749   7.647 -0.4650 -0.2505  0.2075
  162MOL0     C21286   4.697   4.882   7.665  0.2653  0.1460 -0.3807
  162MOL0     O21287   4.705   4.941   7.788  0.4653  0.4758 -0.3844
  162MOL0     C21288   4.789   4.862   7.882  0.2751 -0.4345 -0.9434
  162MOL0     C21289   4.802   4.941   8.014 -0.9118  0.1991 -0.1980
  162MOL0     C21290   4.924   5.046   7.990 -0.4309 -1.4899 -0.5980
  162MOL0     C21291   4.914   5.174   8.080 -0.0170 -0.2182 -0.1759
  162MOL0     C21292   5.011   5.278   8.025 -0.7413 -0.7503  0.1552
  162MOL0     C21293   5.156   5.250   8.054 -0.0231  0.3616 -0.3113
  162MOL0     C21294   5.229   5.203   7.928  0.1001  0.2922 -0.8118
  162MOL0     C21295   5.299   5.313   7.843 -0.5258 -0.6611  0.3811
  162MOL0    Cl21296   5.384   5.234   7.711  0.4988 -0.1446  0.1544
  162MOL0     C21297   4.742   4.954   7.556 -0.3267 -0.5713 -0.3566
  162MOL0     C21298   4.736   4.906   7.425  0.3269  1.0043 -0.1693
  162MOL0     O21299   4.818   4.670   7.227 -0.9276 -0.3310 -0.3809
  162MOL0     C21300   4.532   4.730   7.025 -0.0485 -0.3754 -0.7669
  162MOL0     C21301   4.479   4.691   6.899  0.6047 -0.0629  0.1300
  162MOL0     N21302   4.220   4.759   6.254  0.1274 -0.1489  0.0636
  162MOL0     N21303   4.264   4.849   6.162 -0.0797  0.0018  0.5522
  162MOL0     C21304   4.721   4.254   5.582  0.6232 -0.3886 -0.2752
  162MOL0     C21305   4.667   4.150   5.499  0.0738  0.4909 -1.0501
  162MOL0     C21306   4.547   3.687   5.429  1.0441 -0.0389 -1.0052
  162MOL0     C21307   4.482   3.579   5.480 -0.4493  0.5095  1.0083
  162MOL0     C21308   4.417   3.481   5.401 -0.9540  0.1362 -0.1142
  162MOL0     C21309   4.430   3.504   5.262  0.0525 -0.6077 -0.6293
  162MOL0     O21310   4.394   3.396   5.187 -0.0832  0.0231 -0.0174
  162MOL0     C21311   4.293   3.421   5.081 -0.7101  0.1382 -0.1325
  162MOL0     C21312   4.233   3.287   5.036 -0.3942  0.7479  0.3223
  162MOL0     C21313   4.356   3.193   4.999  1.1875 -0.0135  0.3323
  162MOL0     C21314   4.307   3.092   4.894 -0.2194  0.2084 -0.6997
  162MOL0     C21315   4.242   2.975   4.956 -1.1020  0.4688 -0.1773
  162MOL0     C21316   4.211   2.869   5.019  0.4300 -0.7628  0.0222
  162MOL0     C21317   4.490   3.616   5.205 -0.1710  0.2985  0.0006
  162MOL0     C21318   4.550   3.710   5.288 -1.4754  0.8794 -0.3939
  162MOL0     H21319   4.830   3.883   5.628 -0.8529 -0.5347 -0.6240
  162MOL0     H21320   4.954   4.075   5.745 -0.7578 -0.1030  2.4023
  162MOL0     H21321   5.046   4.342   5.666  0.6793  0.1159  2.0098
  162MOL0     H21322   5.040   4.439   5.801 -2.4319 -2.0103  2.5345
  162MOL0     H21323   4.873   4.481   5.538  0.6050  2.2277 -1.6826
  162MOL0     H21324   4.984   4.601   5.625 -0.3791  0.6639  5.3675
  162MOL0     H21325   4.710   4.549   5.705  0.4726 -2.1592 -0.1337
  162MOL0     H21326   4.780   4.693   5.641  1.4877  1.3537  0.9884
  162MOL0     H21327   4.869   4.575   5.919  2.7870  0.1450 -1.0270
  162MOL0     H21328   4.955   4.689   5.828  0.3080 -0.6833 -0.0008
  162MOL0     H21329   4.773   4.846   5.825 -0.3599 -0.3801 -1.3962
  162MOL0     H21330   4.808   4.799   5.989 -1.6098 -0.2214  1.0772
  162MOL0     H21331   4.602   4.652   5.983  1.4423  0.7641  1.0566
  162MOL0     H21332   4.573   4.699   5.811  3.3562 -0.0144 -1.3511
  162MOL0     H21333   4.573   4.902   6.038  2.3183 -2.9225  1.3917
  162MOL0     H21334   4.550   4.920   5.862 -1.3049 -0.0264  0.0556
  162MOL0     H21335   4.380   4.739   5.878  1.8195  1.2925 -2.8597
  162MOL0     H21336   4.338   4.905   5.922  1.8671  0.8842  2.3355
  162MOL0     H21337   4.359   4.553   6.056 -0.6789  0.0375 -0.7521
  162MOL0     H21338   4.282   4.426   6.269 -0.6631  0.2152  1.2104
  162MOL0     H21339   4.121   4.505   6.279  0.4201  2.2866 -0.1125
  162MOL0     H21340   4.183   4.430   6.485  0.6317  0.1673 -2.1595
  162MOL0     H21341   4.178   4.605   6.494 -1.8351 -1.6302  1.2320
  162MOL0     H21342   4.439   4.443   6.494  0.9199 -0.5564 -0.3078
  162MOL0     H21343   4.434   4.615   6.475 -1.4228  0.0709 -0.1332
  162MOL0     H21344   4.334   4.489   6.715  2.9454 -0.9237  0.3917
  162MOL0     H21345   4.322   4.667   6.665 -0.1711 -0.4600 -0.1197
  162MOL0     H21346   4.742   4.536   6.760 -3.3464 -0.9362 -2.4091
  162MOL0     H21347   4.838   4.599   6.987  0.3468  1.4953 -1.6128
  162MOL0     H21348   4.568   4.612   7.491  0.1031 -1.3392  1.8810
  162MOL0     H21349   4.606   4.693   7.732 -2.3565 -0.4451 -0.6716
  162MOL0     H21350   4.881   4.840   7.827 -0.3121 -3.1754 -0.9577
  162MOL0     H21351   4.748   4.767   7.915 -3.8844  1.2726 -0.6111
  162MOL0     H21352   4.821   4.873   8.097  0.0863  1.2523  0.4778
  162MOL0     H21353   4.707   4.993   8.031 -2.8746 -3.4653  0.9644
  162MOL0     H21354   4.925   5.075   7.884  0.4931 -0.8868 -0.4354
  162MOL0     H21355   5.013   4.987   8.011 -0.5322 -2.9465 -3.6890
  162MOL0     H21356   4.814   5.217   8.074  1.3576  3.0747 -3.6150
  162MOL0     H21357   4.939   5.148   8.183  1.7302  2.3162  0.1171
  162MOL0     H21358   4.977   5.370   8.074  1.3833 -0.0541  0.4663
  162MOL0     H21359   4.995   5.288   7.917  0.4528 -2.8202 -0.2766
  162MOL0     H21360   5.168   5.180   8.138  2.1549  2.6188  1.4039
  162MOL0     H21361   5.208   5.341   8.084  0.8073 -0.6676  1.6076
  162MOL0     H21362   5.312   5.135   7.953 -1.4668 -1.0161  1.1748
  162MOL0     H21363   5.163   5.148   7.860  0.8628 -2.5328  0.5812
  162MOL0     H21364   5.375   5.368   7.900  1.3073 -2.6883  0.0497
  162MOL0     H21365   5.229   5.382   7.797 -0.0847 -1.5654 -1.7736
  162MOL0     H21366   4.795   5.048   7.564 -2.6428  1.0050 -2.3112
  162MOL0     H21367   4.757   4.982   7.350  2.6809  4.0562  3.2201
  162MOL0     H21368   4.470   4.794   7.087  1.8429 -0.7915  1.7428
  162MOL0     H21369   4.380   4.715   6.862  1.5654  2.3939 -1.0677
  162MOL0     H21370   4.686   4.353   5.553 -0.1374 -0.9396 -1.3107
  162MOL0     H21371   4.609   4.165   5.408 -0.1190 -1.4147 -1.2791
  162MOL0     H21372   4.471   3.554   5.585  1.6416 -1.6780  0.7987
  162MOL0     H21373   4.384   3.386   5.442  0.9619 -0.2574  0.6109
  162MOL0     H21374   4.331   3.473   4.992  0.7661  1.1940  1.0674
  162MOL0     H21375   4.228   3.499   5.123  0.2617 -1.4453  4.9797
  162MOL0     H21376   4.176   3.250   5.122 -2.1619  1.2857 -0.5603
  162MOL0     H21377   4.154   3.299   4.961  0.2670 -2.1785 -0.9875
  162MOL0     H21378   4.382   3.137   5.089 -0.2557 -1.6381 -0.1862
  162MOL0     H21379   4.438   3.250   4.954  3.0136 -2.8910 -0.2627
  162MOL0     H21380   4.250   3.144   4.817 -0.8314 -0.6425 -0.8325
  162MOL0     H21381   4.386   3.043   4.836  0.8887  0.2481  0.7081
  162MOL0     H21382   4.177   2.787   5.079 -1.2040  0.6011  1.0353
  162MOL0     H21383   4.501   3.605   5.098 -0.2620  1.5533 -0.1435
  162MOL0     H21384   4.598   3.790   5.232  0.7911 -0.6759 -0.7969
  163MOL0     O21385   8.534   7.326   0.298 -0.6935 -0.1315  0.1462
  163MOL0     C21386   8.463   7.385   0.220  0.6070 -0.8305  0.1499
  163MOL0     O21387   8.497   7.439   0.095  0.3108  0.6600 -0.8160
  163MOL0     C21388   8.606   7.372   0.051  0.7852  0.0057  0.4139
  163MOL0     C21389   8.595   7.272  -0.052  0.5094 -0.4219 -0.1740
  163MOL0     C21390   8.705   7.205  -0.102 -0.1945 -0.7071  0.3101
  163MOL0     C21391   8.834   7.232  -0.057 -0.4023 -0.7441  0.8692
  163MOL0     O21392   8.932   7.151  -0.108 -0.7203  0.1000  0.3058
  163MOL0     C21393   9.052   7.226  -0.119 -0.4100 -0.3332  0.7018
  163MOL0     C21394   9.172   7.155  -0.177 -0.7017 -0.9399 -0.1922
  163MOL0     C21395   9.187   7.023  -0.104 -0.3662  0.1205 -0.1774
  163MOL0     C21396   9.334   6.979  -0.131  0.2855  0.2167  0.3737
  163MOL0     C21397   9.371   6.852  -0.058  0.8573  0.1047  0.4526
  163MOL0     C21398   9.519   6.818  -0.059 -0.8831  0.4829 -0.8464
  163MOL0     C21399   9.541   6.689   0.024 -0.2544 -0.4980 -0.8718
  163MOL0     C21400   9.561   6.724   0.176  0.0575  1.0302 -0.2427
  163MOL0     N21401   9.618   6.613   0.244 -0.1106  0.7536 -0.1836
  163MOL0     C21402   9.553   6.498   0.282 -0.0208  0.3751  0.2502
  163MOL0     C21403   9.654   6.418   0.339 -0.2199  0.7171  0.0791
  163MOL0     C21404   9.640   6.290   0.416  0.1941 -0.3320 -0.1728
  163MOL0     C21405   9.628   6.321   0.569  1.1440 -0.6296  1.7430
  163MOL0     C21406   9.611   6.187   0.675 -0.0202  0.1708 -0.0798
  163MOL0     C21407   9.459   6.180   0.696 -0.1499  0.9323  0.9427
  163MOL0     O21408   9.396   6.162   0.572 -0.4393  0.8445 -0.4443
  163MOL0     C21409   9.259   6.148   0.568  0.3197  0.0506 -0.6654
  163MOL0     C21410   9.208   6.123   0.440  0.2681  0.7775 -0.6461
  163MOL0     C21411   9.071   6.117   0.416 -0.5175 -0.8688  0.5323
  163MOL0     C21412   8.981   6.140   0.513  0.5465 -0.4193  0.8236
  163MOL0     C21413   8.831   6.114   0.500 -0.6057  0.4299 -0.5273
  163MOL0     O21414   8.789   6.082   0.376 -0.5750 -0.3016 -0.1390
  163MOL0     C21415   8.661   6.071   0.345 -0.1560 -0.3723 -1.6001
  163MOL0     C21416   8.627   6.097   0.212 -0.5206  0.1477  0.1775
  163MOL0     C21417   8.495   6.069   0.167  0.6137  0.5512 -0.2902
  163MOL0     C21418   8.388   6.013   0.256 -0.1510 -0.7744  0.6524
  163MOL0     O21419   8.264   5.986   0.214  0.0694 -0.3948  1.1754
  163MOL0     C21420   8.257   5.940   0.072  0.6471 -1.1728  0.0132
  163MOL0     C21421   8.151   5.838   0.048  1.2611  0.1201 -0.0125
  163MOL0     C21422   8.009   5.910   0.065 -0.1743 -0.0778  0.1147
  163MOL0     C21423   7.946   5.967  -0.066 -0.0663  0.7802  0.0133
  163MOL0     C21424   7.804   6.001  -0.045  0.5244  0.1375  0.6117
  163MOL0     C21425   7.715   5.879  -0.022 -0.3887 -0.0437  0.0761
  163MOL0     C21426   7.565   5.909  -0.035  0.8741  0.1311  0.4399
  163MOL0     C21427   7.485   5.783  -0.028 -0.0037  0.1978 -0.2450
  163MOL0    Cl21428   7.303   5.832  -0.024 -0.3173  0.4120 -0.2124
  163MOL0     C21429   8.415   5.994   0.385 -0.0731 -0.8206 -0.3261
  163MOL0     C21430   8.551   6.024   0.432  0.1528  0.4667 -0.3223
  163MOL0     O21431   8.770   6.157   0.596  0.0017 -0.6907  1.6512
  163MOL0     C21432   9.024   6.177   0.650 -0.3152  0.6395  0.9294
  163MOL0     C21433   9.163   6.166   0.671 -1.0159  0.9205  0.1152
  163MOL0     N21434   9.769   6.487   0.325  0.3033  0.2473  0.1000
  163MOL0     N21435   9.750   6.598   0.265 -1.0903  0.0101 -0.2747
  163MOL0     C21436   8.841   7.330   0.046 -0.0725  0.8175  0.9048
  163MOL0     C21437   8.731   7.393   0.092 -0.1874 -0.3241  0.3302
  163MOL0     C21438   8.331   7.426   0.276  0.1469  0.4172  0.6191
  163MOL0     C21439   8.228   7.463   0.183 -1.4460  0.4142 -0.2174
  163MOL0     C21440   8.101   7.504   0.239 -0.3376  0.0454  0.2944
  163MOL0     C21441   8.082   7.518   0.379  0.5645  0.0520  0.4152
  163MOL0     O21442   7.984   7.593   0.439  0.5657 -0.1957  0.7319
  163MOL0     C21443   7.873   7.619   0.364  0.7664 -0.4672 -0.3104
  163MOL0     C21444   7.759   7.655   0.450 -0.5492  0.0415 -0.8380
  163MOL0     C21445   7.640   7.687   0.360 -0.3261  0.1476  0.9142
  163MOL0     C21446   7.502   7.680   0.437 -0.1067 -0.0868  0.0178
  163MOL0     C21447   7.501   7.787   0.543 -0.0156 -0.2122  0.2880
  163MOL0     C21448   7.498   7.884   0.622 -0.0787 -0.0473  0.7407
  163MOL0     C21449   8.180   7.475   0.463  0.6749  0.5058  0.6196
  163MOL0     C21450   8.301   7.422   0.415 -0.4768  0.4480 -0.2459
  163MOL0     H21451   8.493   7.247  -0.078  0.3282 -1.0886  1.0790
  163MOL0     H21452   8.702   7.122  -0.172  0.4902 -1.2156  0.8641
  163MOL0     H21453   9.082   7.259  -0.019 -3.9413 -1.4261  2.2714
  163MOL0     H21454   9.032   7.314  -0.181 -0.3509 -1.7361 -1.4220
  163MOL0     H21455   9.259   7.222  -0.176 -0.5207 -1.0483 -2.6717
  163MOL0     H21456   9.139   7.128  -0.277  0.1833 -1.3978 -0.3693
  163MOL0     H21457   9.112   6.948  -0.127 -0.1717 -1.8946  4.7021
  163MOL0     H21458   9.181   7.043   0.003  1.4519  0.9285 -0.1749
  163MOL0     H21459   9.341   6.963  -0.239 -3.0934  1.0859 -0.0832
  163MOL0     H21460   9.403   7.060  -0.106  1.3755 -0.4173 -0.4390
  163MOL0     H21461   9.304   6.771  -0.089  3.2813 -2.4230  1.3500
  163MOL0     H21462   9.327   6.858   0.042 -2.2893  2.2133 -0.8924
  163MOL0     H21463   9.581   6.902  -0.026 -2.0155  1.5650 -1.3892
  163MOL0     H21464   9.546   6.792  -0.162  3.3345 -1.4425  0.5089
  163MOL0     H21465   9.458   6.621   0.006 -2.7106  1.2943  2.4566
  163MOL0     H21466   9.635   6.647  -0.012  1.1659  1.5527  0.2112
  163MOL0     H21467   9.463   6.746   0.219  0.2023  1.3802 -0.0803
  163MOL0     H21468   9.631   6.808   0.180  1.6113 -0.2209 -0.5133
  163MOL0     H21469   9.447   6.478   0.293 -0.6459  3.1950  0.1587
  163MOL0     H21470   9.721   6.217   0.417 -0.1043 -0.9695  4.9508
  163MOL0     H21471   9.553   6.240   0.372  1.1232 -1.1012 -1.1967
  163MOL0     H21472   9.543   6.390   0.577  2.9798  1.6662  2.4342
  163MOL0     H21473   9.718   6.376   0.598 -0.3216  0.7532  3.9924
  163MOL0     H21474   9.646   6.091   0.637 -0.8309 -1.2476  2.5531
  163MOL0     H21475   9.664   6.214   0.767 -1.6047 -0.1553  0.9534
  163MOL0     H21476   9.415   6.274   0.730  0.1267  2.7677 -3.1802
  163MOL0     H21477   9.432   6.097   0.762 -0.1261  1.9836  2.3121
  163MOL0     H21478   9.278   6.130   0.358 -0.8453 -0.6128 -1.7592
  163MOL0     H21479   9.045   6.096   0.313 -1.4565  1.7097  0.1801
  163MOL0     H21480   8.701   6.133   0.141 -2.3513  1.9701 -0.8759
  163MOL0     H21481   8.471   6.098   0.065  0.8730  2.6548  0.1994
  163MOL0     H21482   8.353   5.892   0.051 -0.0162 -2.4068 -0.2639
  163MOL0     H21483   8.256   6.022  -0.001  1.5627 -1.4000 -0.2741
  163MOL0     H21484   8.147   5.761   0.125  1.4615  0.3449  0.2233
  163MOL0     H21485   8.180   5.805  -0.052  2.0061 -1.7196  0.7716
  163MOL0     H21486   8.014   5.977   0.151 -0.7562 -2.3206  1.9953
  163MOL0     H21487   7.944   5.828   0.098  0.1346 -0.4981 -0.3034
  163MOL0     H21488   8.011   6.050  -0.096  2.1120 -0.1679  1.8401
  163MOL0     H21489   7.946   5.890  -0.144  1.0452  0.8599 -0.0795
  163MOL0     H21490   7.772   6.040  -0.142 -0.9301 -2.7160 -0.1456
  163MOL0     H21491   7.791   6.085   0.024 -2.6825  0.0671  0.1980
  163MOL0     H21492   7.727   5.822   0.070  0.4773  1.1438  0.7055
  163MOL0     H21493   7.747   5.803  -0.095  1.9002  1.4401 -0.5508
  163MOL0     H21494   7.548   5.975   0.051  0.1027 -0.6495  0.9067
  163MOL0     H21495   7.547   5.968  -0.125 -1.5493 -2.4575 -0.9415
  163MOL0     H21496   7.513   5.724   0.060  0.0103 -0.4795 -0.6969
  163MOL0     H21497   7.514   5.728  -0.117 -1.6428  1.3347 -1.5489
  163MOL0     H21498   8.348   5.963   0.465  0.4159  1.3421  0.9897
  163MOL0     H21499   8.571   6.028   0.538  2.4438 -0.3176 -0.6765
  163MOL0     H21500   8.960   6.209   0.731 -2.8347  0.3591 -0.8492
  163MOL0     H21501   9.199   6.181   0.773  0.5012 -0.3291 -0.1939
  163MOL0     H21502   8.937   7.342   0.096  0.7525 -3.3041  0.6889
  163MOL0     H21503   8.735   7.480   0.157 -0.4182  0.4775 -0.7007
  163MOL0     H21504   8.241   7.448   0.077 -1.1122  1.5502 -0.3451
  163MOL0     H21505   8.015   7.524   0.177 -2.5504 -1.8104  2.5570
  163MOL0     H21506   7.845   7.526   0.313 -2.5502 -0.4970  1.2871
  163MOL0     H21507   7.899   7.693   0.288 -1.2215 -0.4022 -0.9950
  163MOL0     H21508   7.726   7.585   0.527 -0.1783 -1.9097 -2.3733
  163MOL0     H21509   7.778   7.753   0.495  2.2810  0.5908 -2.9350
  163MOL0     H21510   7.626   7.622   0.273 -4.7030 -1.2452  2.3996
  163MOL0     H21511   7.656   7.792   0.334  2.7535 -0.0897  1.4512
  163MOL0     H21512   7.428   7.695   0.358 -1.1971 -0.3920  0.9647
  163MOL0     H21513   7.472   7.582   0.475 -0.8133 -0.0943 -0.5440
  163MOL0     H21514   7.494   7.959   0.698 -1.2975  0.2855  0.3781
  163MOL0     H21515   8.166   7.489   0.570 -0.6588  3.4016  0.1528
  163MOL0     H21516   8.382   7.391   0.480 -0.3072 -0.3731 -0.8283
  164MOL0     O21517   8.266   0.862   0.655 -0.2874 -0.3125 -0.8979
  164MOL0     C21518   8.297   0.959   0.725 -0.7398 -0.3945 -0.9726
  164MOL0     O21519   8.205   1.047   0.785 -0.5632 -0.1054  0.4729
  164MOL0     C21520   8.071   1.038   0.755  0.4628  0.7017  0.2166
  164MOL0     C21521   7.997   0.912   0.744 -0.5404 -0.0920 -0.8811
  164MOL0     C21522   7.852   0.917   0.736 -0.6233 -0.3339 -0.2120
  164MOL0     C21523   7.782   1.036   0.731 -0.4756 -0.8030 -0.3572
  164MOL0     O21524   7.646   1.037   0.716  0.1367  0.2079 -0.0426
  164MOL0     C21525   7.558   1.101   0.811  0.0513 -0.5954  1.0459
  164MOL0     C21526   7.563   1.034   0.948 -0.6040 -1.0268  1.1930
  164MOL0     C21527   7.677   1.057   1.038 -0.6528 -0.6525 -0.3038
  164MOL0     C21528   7.655   0.980   1.173 -0.2593  0.2543  0.3089
  164MOL0     C21529   7.748   1.031   1.291  0.0557  0.6729  0.6346
  164MOL0     C21530   7.899   1.023   1.265 -0.4417 -0.1171  0.0071
  164MOL0     C21531   7.994   1.089   1.374  0.0796  0.5831  0.7438
  164MOL0     C21532   8.140   1.117   1.327 -0.0554  0.7533  0.0438
  164MOL0     N21533   8.203   0.995   1.280 -0.2429 -0.0546  0.7179
  164MOL0     C21534   8.212   0.946   1.149 -0.7990 -0.5625 -0.4157
  164MOL0     C21535   8.276   0.825   1.158  0.6661 -0.6091  0.6277
  164MOL0     C21536   8.343   0.738   1.058  0.6048  0.4220  0.1854
  164MOL0     C21537   8.493   0.731   1.077 -0.2592  0.3963 -0.5490
  164MOL0     C21538   8.563   0.634   0.980 -0.7042  0.1119 -0.6207
  164MOL0     C21539   8.700   0.593   1.033 -2.0796  0.1893 -0.0188
  164MOL0     O21540   8.793   0.703   1.036  0.1156  0.1087 -0.7925
  164MOL0     C21541   8.920   0.686   1.068  0.1718  0.1322 -0.3159
  164MOL0     C21542   8.983   0.565   1.091 -0.0672 -0.0335  0.4947
  164MOL0     C21543   9.113   0.563   1.141  0.2151  1.2377 -0.2775
  164MOL0     C21544   9.194   0.680   1.141 -0.7316  0.3089  0.1838
  164MOL0     C21545   9.335   0.675   1.167 -0.1411  1.3420 -0.5024
  164MOL0     O21546   9.416   0.765   1.105  0.8791 -0.2364 -0.3375
  164MOL0     C21547   9.542   0.797   1.146 -1.6116  0.0010 -0.5745
  164MOL0     C21548   9.601   0.757   1.260 -0.3683  1.4524 -0.4504
  164MOL0     C21549   9.738   0.785   1.290 -0.6609 -0.0361  0.0253
  164MOL0     C21550   9.816   0.868   1.208  0.1264  0.4689 -0.2339
  164MOL0     O21551   9.938   0.908   1.243  0.3266  0.1445 -0.2370
  164MOL0     C21552   9.988   1.026   1.184  0.2108  0.2816 -0.1838
  164MOL0     C21553  10.121   1.070   1.244 -0.2125  0.3136 -0.2801
  164MOL0     C21554  10.235   0.972   1.214  0.6934  0.8941  0.2895
  164MOL0     C21555  10.369   1.022   1.257 -1.0145  0.3488  0.1400
  164MOL0     C21556  10.392   1.062   1.400 -0.8856 -0.2378 -0.6506
  164MOL0     C21557  10.546   1.057   1.450  0.0822 -0.7175  0.7285
  164MOL0     C21558  10.617   1.194   1.473 -0.2097 -0.4732 -0.0724
  164MOL0     C21559  10.650   1.278   1.346  0.0067 -0.0408 -0.1874
  164MOL0    Cl21560  10.643   1.448   1.382 -0.3549  0.4250 -0.0386
  164MOL0     C21561   9.755   0.902   1.080  0.4420  0.4949 -0.4345
  164MOL0     C21562   9.621   0.866   1.058  0.1803 -0.2069  0.1016
  164MOL0     O21563   9.381   0.579   1.237  0.7262 -0.5560  0.8732
  164MOL0     C21564   9.129   0.797   1.121 -0.0776 -0.0668  0.3697
  164MOL0     C21565   8.996   0.801   1.090  0.0776  0.7831  0.3979
  164MOL0     N21566   8.284   0.796   1.292  0.4185  0.1998 -0.5405
  164MOL0     N21567   8.251   0.899   1.365  0.0768 -0.2193  0.3255
  164MOL0     C21568   7.854   1.159   0.746  0.3196  0.0819 -0.2439
  164MOL0     C21569   7.998   1.162   0.755 -0.0104  0.5792  0.3931
  164MOL0     C21570   8.442   0.981   0.742  0.8219  0.0593  0.1994
  164MOL0     C21571   8.550   0.898   0.703  0.4438 -0.4077 -0.0906
  164MOL0     C21572   8.686   0.917   0.725 -0.8851 -0.5335  0.5096
  164MOL0     C21573   8.719   1.038   0.792  0.2298  0.4360 -0.2259
  164MOL0     O21574   8.845   1.091   0.818 -0.2156  0.4970 -0.5562
  164MOL0     C21575   8.946   1.063   0.722 -0.3189 -0.8160 -0.0833
  164MOL0     C21576   9.076   1.095   0.796  0.3733  0.5756  0.0848
  164MOL0     C21577   9.193   1.032   0.717  0.4539 -0.5599 -0.1779
  164MOL0     C21578   9.247   0.896   0.782  0.1768 -0.0094  0.3806
  164MOL0     C21579   9.382   0.862   0.730  0.0936  0.1999 -0.3054
  164MOL0     C21580   9.487   0.832   0.669 -0.3461  0.4666  0.3074
  164MOL0     C21581   8.608   1.120   0.845 -0.6000  0.4229  0.2914
  164MOL0     C21582   8.476   1.099   0.819  0.6017  0.2628 -0.4772
  164MOL0     H21583   8.047   0.816   0.754  2.1637  1.3368  0.3234
  164MOL0     H21584   7.788   0.830   0.742 -3.5320  1.7800  3.8332
  164MOL0     H21585   7.450   1.102   0.794 -0.2340  1.4571  2.4854
  164MOL0     H21586   7.596   1.204   0.808 -2.3065  0.3166 -0.6239
  164MOL0     H21587   7.548   0.926   0.935 -1.3543 -0.8000  0.0632
  164MOL0     H21588   7.471   1.075   0.989 -0.3473  0.4209  0.3925
  164MOL0     H21589   7.687   1.164   1.056  1.2349 -1.1935  2.5592
  164MOL0     H21590   7.761   1.020   0.979 -0.7510 -0.7329 -0.3938
  164MOL0     H21591   7.555   1.004   1.210  0.9300  1.6737  2.8785
  164MOL0     H21592   7.670   0.873   1.157 -0.0653  0.4528 -0.9266
  164MOL0     H21593   7.710   0.961   1.366 -1.4116 -0.2959 -0.9395
  164MOL0     H21594   7.720   1.134   1.312 -2.7722 -0.4180  3.0040
  164MOL0     H21595   7.917   1.085   1.177  2.7765  0.3196  0.8597
  164MOL0     H21596   7.928   0.918   1.251  0.7180  0.0399  1.0666
  164MOL0     H21597   7.947   1.182   1.409  3.0158  2.7644 -0.6821
  164MOL0     H21598   7.995   1.027   1.464 -2.3641 -2.1174 -0.9099
  164MOL0     H21599   8.221   1.143   1.396  0.8915  1.2460 -1.2133
  164MOL0     H21600   8.140   1.193   1.248  0.3628  1.6772  0.9069
  164MOL0     H21601   8.181   0.998   1.059  0.7358  3.0342  0.9477
  164MOL0     H21602   8.318   0.782   0.961 -1.6280 -0.6649  0.1884
  164MOL0     H21603   8.312   0.633   1.063  0.4498  0.3573 -1.6209
  164MOL0     H21604   8.514   0.704   1.181  1.5578 -2.8599 -1.6192
  164MOL0     H21605   8.540   0.829   1.065 -3.7976  2.2725 -0.4388
  164MOL0     H21606   8.494   0.551   0.965 -0.8419  0.2901 -0.9680
  164MOL0     H21607   8.575   0.693   0.889  1.2376  3.8127  1.7481
  164MOL0     H21608   8.736   0.509   0.972 -1.1393  0.3240  0.3435
  164MOL0     H21609   8.695   0.548   1.133  5.7278 -0.4545  0.6907
  164MOL0     H21610   8.928   0.473   1.108  0.3519 -0.6426 -1.2230
  164MOL0     H21611   9.148   0.467   1.177 -2.8230 -0.8271 -2.3044
  164MOL0     H21612   9.538   0.702   1.328  1.5543 -3.1542 -2.0035
  164MOL0     H21613   9.777   0.744   1.383 -2.0715 -1.0899  0.1812
  164MOL0     H21614   9.913   1.104   1.202  0.5028  0.7852 -1.0774
  164MOL0     H21615   9.995   1.013   1.076 -0.7890 -0.5315 -0.1719
  164MOL0     H21616  10.110   1.075   1.352 -0.0210 -1.7896 -0.1163
  164MOL0     H21617  10.145   1.165   1.195  1.5820 -0.9191 -1.9411
  164MOL0     H21618  10.238   0.957   1.106 -1.1447  2.2049  0.0173
  164MOL0     H21619  10.210   0.877   1.263 -2.9873  1.5064 -0.1369
  164MOL0     H21620  10.429   0.934   1.234 -2.7012 -1.2748  1.6936
  164MOL0     H21621  10.402   1.109   1.198 -2.6623  0.9142 -0.0034
  164MOL0     H21622  10.343   0.994   1.470  0.1271  1.8177  2.2422
  164MOL0     H21623  10.346   1.161   1.410  0.8045  0.4244  1.6235
  164MOL0     H21624  10.609   0.999   1.383 -0.9281  0.1289 -1.0141
  164MOL0     H21625  10.545   0.996   1.541 -2.0440  0.5442  1.6378
  164MOL0     H21626  10.544   1.261   1.519  2.2169  2.3860 -0.0776
  164MOL0     H21627  10.718   1.184   1.515  0.0946  2.1906  0.0057
  164MOL0     H21628  10.577   1.241   1.273  1.7902 -3.0180 -0.6458
  164MOL0     H21629  10.745   1.256   1.295 -1.3080  2.3326 -4.1080
  164MOL0     H21630   9.800   0.965   1.003 -1.8155  0.0488 -2.2274
  164MOL0     H21631   9.575   0.899   0.965 -4.6205  0.0550  2.3019
  164MOL0     H21632   9.190   0.885   1.140  2.1418 -1.9700  2.8085
  164MOL0     H21633   8.945   0.896   1.083 -1.5383  0.0795  1.8535
  164MOL0     H21634   7.790   1.246   0.740 -3.0963 -2.0329  2.2151
  164MOL0     H21635   8.053   1.255   0.765  2.0677 -0.0110 -3.4923
  164MOL0     H21636   8.520   0.801   0.664 -1.5101  0.6730 -1.4539
  164MOL0     H21637   8.756   0.840   0.695 -0.7917 -0.8919  1.5885
  164MOL0     H21638   8.944   1.120   0.629 -2.5342 -2.4838 -1.1545
  164MOL0     H21639   8.950   0.956   0.700  2.6016 -0.5969 -0.9637
  164MOL0     H21640   9.086   1.202   0.816  2.2328  1.2259 -3.4629
  164MOL0     H21641   9.063   1.033   0.885 -0.4319  0.5937 -0.0069
  164MOL0     H21642   9.272   1.106   0.730 -1.8364  2.6358 -2.6104
  164MOL0     H21643   9.184   1.012   0.609 -2.2243 -0.3295 -0.0721
  164MOL0     H21644   9.258   0.902   0.891 -0.9762  1.8302  0.4406
  164MOL0     H21645   9.165   0.826   0.768 -2.9029  3.4283 -0.4283
  164MOL0     H21646   9.575   0.801   0.615 -3.3057 -2.3762 -3.3970
  164MOL0     H21647   8.642   1.209   0.897 -0.7948 -0.6776  2.4098
  164MOL0     H21648   8.403   1.178   0.836  0.1496  0.0992 -1.5502
  165MOL0     O21649   5.380   8.246   0.111 -0.3126  0.0644  0.5793
  165MOL0     C21650   5.325   8.269   0.001  0.0774  1.2145 -0.0599
  165MOL0     O21651   5.240   8.189  -0.071 -0.1327  0.0486 -0.6680
  165MOL0     C21652   5.189   8.068  -0.019 -0.6033  0.1035  0.8054
  165MOL0     C21653   5.182   7.957  -0.108  0.4367  0.5659 -0.4648
  165MOL0     C21654   5.119   7.841  -0.073  0.3404  0.3065 -0.4861
  165MOL0     C21655   5.062   7.835   0.061 -0.2203 -0.4649 -0.0605
  165MOL0     O21656   5.000   7.723   0.110 -0.0687 -0.0716 -0.0294
  165MOL0     C21657   5.001   7.599   0.042 -1.2509  0.3961  0.3115
  165MOL0     C21658   4.877   7.584  -0.037  0.9541 -0.1315  0.2910
  165MOL0     C21659   4.859   7.435  -0.088  0.1136  0.7067  0.0158
  165MOL0     C21660   4.721   7.405  -0.156 -0.7802 -0.4280  0.0575
  165MOL0     C21661   4.737   7.269  -0.234  0.2484 -0.8874 -0.3066
  165MOL0     C21662   4.648   7.174  -0.161  0.2785  0.6717 -0.0390
  165MOL0     C21663   4.673   7.032  -0.204 -0.5375  0.0375 -0.0482
  165MOL0     C21664   4.614   7.002  -0.346  0.4342  0.9409  0.3341
  165MOL0     N21665   4.593   6.855  -0.347  0.4457  0.4946 -0.1824
  165MOL0     C21666   4.687   6.759  -0.333 -0.6440  0.3512  0.3494
  165MOL0     C21667   4.628   6.646  -0.352  0.4201  0.3943  0.2376
  165MOL0     C21668   4.692   6.507  -0.375 -0.1288 -0.8594  0.1094
  165MOL0     C21669   4.620   6.413  -0.488  0.3325  1.0741  0.6928
  165MOL0     C21670   4.687   6.414  -0.625 -0.2094  0.4371 -0.3137
  165MOL0     C21671   4.631   6.307  -0.719  0.2318 -0.5201  0.1266
  165MOL0     O21672   4.693   6.325  -0.847 -1.0681  0.5852  0.2026
  165MOL0     C21673   4.746   6.210  -0.910 -1.6051 -0.5236  0.0204
  165MOL0     C21674   4.735   6.212  -1.047 -0.4062 -0.7019  0.5264
  165MOL0     C21675   4.787   6.107  -1.125 -1.1753 -0.9129  1.1421
  165MOL0     C21676   4.848   5.996  -1.064  0.4718  0.0177 -0.8651
  165MOL0     C21677   4.902   5.886  -1.147 -0.6503 -0.1430 -0.2531
  165MOL0     O21678   4.917   5.764  -1.076 -0.0400 -0.2301 -0.2071
  165MOL0     C21679   4.987   5.657  -1.134  0.4058 -0.1439 -1.3627
  165MOL0     C21680   5.046   5.643  -1.258  0.5704  1.2012 -0.1355
  165MOL0     C21681   5.136   5.533  -1.281 -0.9532 -1.2130 -0.1212
  165MOL0     C21682   5.158   5.426  -1.195 -0.5724  1.4247 -0.3096
  165MOL0     O21683   5.227   5.315  -1.244 -0.0608 -0.5188 -0.0280
  165MOL0     C21684   5.290   5.223  -1.150  0.4628 -0.5001 -0.6978
  165MOL0     C21685   5.369   5.119  -1.223  0.3954  0.0717 -0.3360
  165MOL0     C21686   5.478   5.049  -1.145 -0.3858  0.2326  0.3477
  165MOL0     C21687   5.411   4.930  -1.074  0.0481  1.0436  0.7439
  165MOL0     C21688   5.519   4.855  -0.994 -0.2887  0.4356  0.5083
  165MOL0     C21689   5.571   4.746  -1.093 -0.3503 -0.5452 -0.4348
  165MOL0     C21690   5.706   4.690  -1.030 -0.3793 -0.7756 -0.0318
  165MOL0     C21691   5.831   4.775  -1.069 -0.3253 -0.3150  0.3049
  165MOL0    Cl21692   5.971   4.707  -0.975  0.3886 -0.0268 -0.0948
  165MOL0     C21693   5.091   5.446  -1.071  1.1665 -0.1746 -0.6282
  165MOL0     C21694   5.020   5.566  -1.034 -1.0875  0.4177 -0.8822
  165MOL0     O21695   4.924   5.907  -1.269  0.0577 -0.0019 -0.2832
  165MOL0     C21696   4.867   5.994  -0.928  0.2584  0.2412 -0.0862
  165MOL0     C21697   4.816   6.103  -0.848  0.6830  0.7615 -1.0082
  165MOL0     N21698   4.489   6.673  -0.360  0.4399 -0.4164 -0.0937
  165MOL0     N21699   4.469   6.801  -0.362  0.9674 -0.2915 -0.2280
  165MOL0     C21700   5.058   7.956   0.135  0.4588 -0.0687 -0.3042
  165MOL0     C21701   5.122   8.065   0.100  0.2397  0.0507  1.3705
  165MOL0     C21702   5.350   8.402  -0.055  0.0365 -0.1576  0.3043
  165MOL0     C21703   5.278   8.465  -0.159  0.2401  0.5794  0.8583
  165MOL0     C21704   5.302   8.605  -0.193  0.6256  0.3254 -0.6871
  165MOL0     C21705   5.398   8.680  -0.124 -1.1587 -0.4078  1.2492
  165MOL0     O21706   5.413   8.810  -0.181 -0.2310 -0.0869 -0.0521
  165MOL0     C21707   5.504   8.903  -0.112  0.1270 -0.2610 -0.0971
  165MOL0     C21708   5.507   9.034  -0.181  0.4979  0.5680 -0.1354
  165MOL0     C21709   5.374   9.104  -0.156  0.4087  0.2435 -0.2997
  165MOL0     C21710   5.372   9.244  -0.226  0.2961 -0.3087  0.0807
  165MOL0     C21711   5.501   9.321  -0.219  0.6178 -0.3243 -1.6398
  165MOL0     C21712   5.607   9.371  -0.186  0.1034  0.5658  0.6973
  165MOL0     C21713   5.467   8.623  -0.022  1.1425  0.3298 -0.5195
  165MOL0     C21714   5.453   8.484   0.005  0.1124 -0.2099  0.7507
  165MOL0     H21715   5.226   7.965  -0.206  0.3092 -1.6435 -0.7444
  165MOL0     H21716   5.131   7.744  -0.119  2.3169  0.0483  0.4751
  165MOL0     H21717   4.994   7.520   0.117 -2.0545  0.3246  0.1672
  165MOL0     H21718   5.094   7.587  -0.014 -1.4965  0.9573 -0.2249
  165MOL0     H21719   4.873   7.661  -0.115 -1.8783 -0.1858  0.2809
  165MOL0     H21720   4.792   7.608   0.027 -0.5601 -0.4739 -1.5186
  165MOL0     H21721   4.875   7.364  -0.005  1.9013  1.0205 -0.0089
  165MOL0     H21722   4.946   7.415  -0.151  0.8669 -0.7797  1.4300
  165MOL0     H21723   4.637   7.403  -0.086 -0.2051 -0.6157  0.7495
  165MOL0     H21724   4.711   7.482  -0.233  2.5164 -0.2962 -0.3772
  165MOL0     H21725   4.841   7.236  -0.222  2.1691  3.1351 -3.4285
  165MOL0     H21726   4.725   7.296  -0.340  5.1158  1.4221 -0.5511
  165MOL0     H21727   4.546   7.209  -0.177  0.8421  3.3536  1.5537
  165MOL0     H21728   4.684   7.193  -0.059 -0.3358  2.1666 -0.0698
  165MOL0     H21729   4.778   6.998  -0.204 -0.1729  1.1385  0.0297
  165MOL0     H21730   4.614   6.980  -0.128 -2.4134 -0.0319 -1.4837
  165MOL0     H21731   4.684   7.039  -0.422  1.5430  1.4083  1.5445
  165MOL0     H21732   4.520   7.057  -0.355 -0.5624 -0.5938  1.0582
  165MOL0     H21733   4.794   6.772  -0.320 -0.6312 -0.5378  1.2576
  165MOL0     H21734   4.670   6.437  -0.294 -4.7710 -1.2570 -1.1907
  165MOL0     H21735   4.796   6.530  -0.401 -0.7146  2.7355  0.4195
  165MOL0     H21736   4.517   6.450  -0.496 -0.8137 -1.7726  1.0781
  165MOL0     H21737   4.626   6.306  -0.464 -0.9002  0.4183 -1.6641
  165MOL0     H21738   4.669   6.513  -0.666 -1.7929 -0.2781 -1.4432
  165MOL0     H21739   4.795   6.398  -0.616 -0.4048 -1.9629 -1.5316
  165MOL0     H21740   4.523   6.321  -0.731  0.5627  1.6553 -0.7887
  165MOL0     H21741   4.640   6.209  -0.671 -1.5608 -0.8514 -0.1141
  165MOL0     H21742   4.677   6.292  -1.092 -2.5671 -1.8383  1.1281
  165MOL0     H21743   4.781   6.110  -1.233  0.9613  1.4023  1.0059
  165MOL0     H21744   5.053   5.720  -1.334  3.5135  1.2530  0.0947
  165MOL0     H21745   5.193   5.538  -1.373  0.4943  0.4169  0.8189
  165MOL0     H21746   5.214   5.189  -1.079 -1.3143  1.9536 -1.2649
  165MOL0     H21747   5.363   5.276  -1.087 -2.3773 -0.8970  3.3410
  165MOL0     H21748   5.430   5.158  -1.305 -0.5853  3.1023  0.2434
  165MOL0     H21749   5.300   5.050  -1.272  0.5395  1.7511 -3.1309
  165MOL0     H21750   5.504   5.115  -1.062 -2.3849 -1.6260  2.6176
  165MOL0     H21751   5.568   5.025  -1.202 -0.0580 -1.2158  1.4162
  165MOL0     H21752   5.329   4.965  -1.012 -0.8379  2.6922 -1.2326
  165MOL0     H21753   5.360   4.882  -1.158  3.4015  1.5683 -1.8427
  165MOL0     H21754   5.487   4.807  -0.901  0.1705  1.7399  1.3744
  165MOL0     H21755   5.598   4.926  -0.965 -0.8960  0.3870  2.4490
  165MOL0     H21756   5.585   4.795  -1.190  1.6350  4.6781  2.0732
  165MOL0     H21757   5.498   4.666  -1.109 -0.7707 -0.6586  1.6991
  165MOL0     H21758   5.698   4.685  -0.921  1.6508 -0.5031  0.1685
  165MOL0     H21759   5.715   4.590  -1.073 -2.0750 -1.4858  1.1384
  165MOL0     H21760   5.820   4.882  -1.048 -0.8151 -0.0902 -1.0258
  165MOL0     H21761   5.848   4.759  -1.176 -3.3179 -0.1359 -0.3061
  165MOL0     H21762   5.102   5.373  -0.992 -3.8008  2.3680  3.0122
  165MOL0     H21763   4.983   5.576  -0.933  0.1875 -2.1620 -0.0679
  165MOL0     H21764   4.912   5.910  -0.876 -3.5055 -2.2872 -0.5488
  165MOL0     H21765   4.839   6.095  -0.742  3.3506 -0.3752 -1.5982
  165MOL0     H21766   5.004   7.965   0.229 -1.6963  1.6818 -1.6001
  165MOL0     H21767   5.118   8.154   0.161  3.3699  0.9082  0.5180
  165MOL0     H21768   5.202   8.414  -0.217  1.9965  0.5182 -1.5253
  165MOL0     H21769   5.242   8.660  -0.265 -2.5492  0.2833  1.6570
  165MOL0     H21770   5.605   8.863  -0.100  1.6117  3.4959  1.4025
  165MOL0     H21771   5.466   8.923  -0.011  3.6818  2.4848  0.8934
  165MOL0     H21772   5.599   9.088  -0.155 -0.6463  3.1838 -1.2137
  165MOL0     H21773   5.509   9.025  -0.290  2.7322  1.8986 -0.2678
  165MOL0     H21774   5.363   9.112  -0.048  1.3627  1.4707 -0.2646
  165MOL0     H21775   5.302   9.042  -0.209  0.1314 -0.9829  1.4321
  165MOL0     H21776   5.341   9.219  -0.328 -2.7954  1.6875  0.4104
  165MOL0     H21777   5.296   9.310  -0.186  0.5952  0.2510 -0.2575
  165MOL0     H21778   5.706   9.405  -0.165  0.5709  0.6544 -1.3905
  165MOL0     H21779   5.529   8.694   0.031  1.0845  0.0094 -0.0054
  165MOL0     H21780   5.514   8.445   0.086 -0.2433 -0.3944  0.9333
  166MOL0     O21781   1.066   7.395   2.738 -0.3434 -0.7616 -0.1570
  166MOL0     C21782   1.173   7.394   2.806  0.3245  0.5443  0.9175
  166MOL0     O21783   1.239   7.493   2.864  0.2304 -0.5992  0.8547
  166MOL0     C21784   1.184   7.615   2.859 -0.1159  0.3872 -0.2285
  166MOL0     C21785   1.125   7.679   2.971  0.0181  0.3859 -0.4049
  166MOL0     C21786   1.088   7.810   2.966  0.1816  0.1853 -0.7561
  166MOL0     C21787   1.094   7.883   2.851 -1.3168  0.1346 -0.1433
  166MOL0     O21788   1.061   8.010   2.865  0.4446  0.3696  0.4555
  166MOL0     C21789   1.155   8.114   2.814 -0.8435 -0.1077  0.6889
  166MOL0     C21790   1.280   8.131   2.903 -0.2689  1.1736  0.3568
  166MOL0     C21791   1.298   8.281   2.953  0.0635  1.4749  0.5120
  166MOL0     C21792   1.357   8.376   2.850 -0.2560 -0.6438 -0.1867
  166MOL0     C21793   1.476   8.436   2.913 -0.4623 -0.0656 -0.0904
  166MOL0     C21794   1.549   8.559   2.839  0.2605 -0.1672 -0.7521
  166MOL0     C21795   1.616   8.530   2.708  0.6860  0.3529 -0.3073
  166MOL0     C21796   1.730   8.424   2.737 -0.3636  0.2376 -0.7734
  166MOL0     N21797   1.827   8.420   2.629  0.4874  0.1653  0.5039
  166MOL0     C21798   1.835   8.499   2.524 -0.4037  0.3787 -0.4701
  166MOL0     C21799   1.947   8.457   2.462 -0.3337  0.8464 -1.0715
  166MOL0     C21800   1.995   8.510   2.330  0.3200  0.5759 -0.6864
  166MOL0     C21801   1.875   8.515   2.225 -0.5042  0.2888 -0.1238
  166MOL0     C21802   1.925   8.504   2.077  0.0886 -0.7176 -0.1762
  166MOL0     C21803   1.946   8.369   2.016  0.5663  0.2355 -0.2430
  166MOL0     O21804   1.820   8.303   2.011  0.0482  0.6176 -0.5986
  166MOL0     C21805   1.825   8.161   2.002 -0.8029  0.2427  0.0454
  166MOL0     C21806   1.716   8.092   2.064 -0.6447 -0.6059  0.4582
  166MOL0     C21807   1.732   7.947   2.067 -1.2491 -1.4244 -0.0596
  166MOL0     C21808   1.839   7.879   2.012  0.4413  0.0134 -0.2435
  166MOL0     C21809   1.847   7.729   2.024  0.2532 -0.1186  0.1155
  166MOL0     O21810   1.962   7.685   1.976  0.1140 -0.5751 -0.6525
  166MOL0     C21811   1.979   7.551   1.973  1.3688  0.4706 -0.0756
  166MOL0     C21812   1.885   7.456   1.905  0.5466 -1.2682 -0.2192
  166MOL0     C21813   1.920   7.325   1.885  0.9906  1.1274 -0.0561
  166MOL0     C21814   2.032   7.273   1.944 -0.2615 -0.2172  0.3504
  166MOL0     O21815   2.058   7.146   1.918 -0.2037  0.3938 -1.2501
  166MOL0     C21816   2.111   7.067   2.029 -0.7416 -1.2337 -0.1129
  166MOL0     C21817   2.243   7.004   1.999 -0.4653 -0.4077  0.2251
  166MOL0     C21818   2.270   6.948   1.858 -0.0832 -0.7201  0.5422
  166MOL0     C21819   2.173   6.836   1.825  0.3959 -0.4116 -0.0996
  166MOL0     C21820   2.201   6.783   1.674 -0.0735  0.5556  0.5710
  166MOL0     C21821   2.311   6.682   1.656  0.0716  0.2396 -0.8953
  166MOL0     C21822   2.334   6.654   1.507  0.5228 -0.5591  0.3925
  166MOL0     C21823   2.396   6.515   1.494  0.3223 -0.2824  0.2023
  166MOL0    Cl21824   2.446   6.472   1.340  0.0737  0.3133  0.1441
  166MOL0     C21825   2.125   7.361   2.005  0.2683 -0.1590  0.4344
  166MOL0     C21826   2.099   7.497   2.021  0.8349  0.2492 -0.7040
  166MOL0     O21827   1.749   7.664   2.071  0.3243 -0.9054  0.0999
  166MOL0     C21828   1.934   7.951   1.937 -0.8295 -0.2134 -0.5493
  166MOL0     C21829   1.935   8.089   1.944 -0.1573 -0.6879 -0.2499
  166MOL0     N21830   2.009   8.354   2.542  0.1529 -0.2445  0.7195
  166MOL0     N21831   1.925   8.330   2.633  1.0933 -0.7938  0.2724
  166MOL0     C21832   1.163   7.825   2.746  0.0248 -0.2787  0.0850
  166MOL0     C21833   1.199   7.694   2.746  0.0479  0.3778  0.8173
  166MOL0     C21834   1.250   7.268   2.811 -0.3004 -0.0481 -0.0897
  166MOL0     C21835   1.207   7.168   2.721 -0.4282  0.6264 -0.8086
  166MOL0     C21836   1.286   7.053   2.697  0.0747 -0.1688 -0.2910
  166MOL0     C21837   1.396   7.025   2.779 -1.4729  0.2644  1.1059
  166MOL0     O21838   1.484   6.920   2.767  0.5128  0.1766  0.1686
  166MOL0     C21839   1.504   6.858   2.635  0.5508 -0.0941 -0.2417
  166MOL0     C21840   1.567   6.945   2.519  0.1062  0.3534 -0.2069
  166MOL0     C21841   1.699   7.026   2.560  0.0870  1.0150 -0.6825
  166MOL0     C21842   1.757   7.102   2.434 -1.0935  0.1053 -0.3057
  166MOL0     C21843   1.775   7.031   2.304  1.0063 -0.0127 -0.8801
  166MOL0     C21844   1.783   6.965   2.207  0.0955 -0.4633  0.2036
  166MOL0     C21845   1.428   7.114   2.879 -0.0927  1.4107 -0.2151
  166MOL0     C21846   1.349   7.232   2.899 -0.2799 -0.1479  0.3213
  166MOL0     H21847   1.119   7.625   3.065  0.6314 -2.5226 -1.9190
  166MOL0     H21848   1.063   7.861   3.059 -0.9826  1.7357 -1.8852
  166MOL0     H21849   1.099   8.207   2.805 -0.9766 -0.3878 -2.9570
  166MOL0     H21850   1.183   8.098   2.709 -1.0267  0.7967  0.4932
  166MOL0     H21851   1.373   8.099   2.855 -0.3145  1.4133  0.1017
  166MOL0     H21852   1.276   8.066   2.991  3.5008 -1.0331 -0.8772
  166MOL0     H21853   1.365   8.274   3.040  1.6650 -1.6549 -0.8046
  166MOL0     H21854   1.204   8.319   2.993 -0.8210 -0.3390  0.2923
  166MOL0     H21855   1.400   8.315   2.771  4.6913  2.7630 -0.6229
  166MOL0     H21856   1.291   8.447   2.800 -0.8335 -4.0508 -4.9064
  166MOL0     H21857   1.550   8.357   2.925  0.0107  0.2950 -0.5930
  166MOL0     H21858   1.447   8.471   3.013  0.1006 -0.3777  0.1849
  166MOL0     H21859   1.632   8.592   2.902  2.6153 -2.0997 -2.6278
  166MOL0     H21860   1.483   8.646   2.834 -1.0186 -1.0393 -0.0116
  166MOL0     H21861   1.547   8.495   2.631  0.8353  0.5245 -0.5182
  166MOL0     H21862   1.656   8.622   2.665  0.4025 -0.7301 -3.1107
  166MOL0     H21863   1.695   8.323   2.762 -3.2792  1.1019 -0.9833
  166MOL0     H21864   1.781   8.455   2.828  0.1288 -3.0307  0.1831
  166MOL0     H21865   1.757   8.562   2.481 -0.1282  2.4007  1.7490
  166MOL0     H21866   2.068   8.441   2.288 -0.0494 -0.0048 -0.3855
  166MOL0     H21867   2.035   8.611   2.345  1.2841  0.9535 -4.5694
  166MOL0     H21868   1.814   8.602   2.250  0.1187  0.7657 -0.2485
  166MOL0     H21869   1.803   8.433   2.234 -3.7289  2.6343 -2.2832
  166MOL0     H21870   1.851   8.564   2.023 -0.0996 -0.3626  0.4567
  166MOL0     H21871   2.019   8.554   2.052 -0.3005 -0.0806 -0.4094
  166MOL0     H21872   2.022   8.322   2.079 -1.7603  1.2535  3.6865
  166MOL0     H21873   1.992   8.372   1.917 -2.3561 -0.2537 -1.7375
  166MOL0     H21874   1.629   8.137   2.112 -1.2623 -0.1640 -1.0110
  166MOL0     H21875   1.652   7.889   2.113 -0.2347 -2.1679  0.8354
  166MOL0     H21876   1.791   7.503   1.875  1.1724 -0.0142 -0.2992
  166MOL0     H21877   1.855   7.254   1.836  0.1111  0.7752  1.5440
  166MOL0     H21878   2.042   6.983   2.045 -2.7763  0.0831 -1.4443
  166MOL0     H21879   2.114   7.131   2.117  1.0260  2.2221 -2.4595
  166MOL0     H21880   2.250   6.920   2.068 -1.7960  0.5286  1.5635
  166MOL0     H21881   2.315   7.084   2.022  1.2144 -1.7669 -0.0694
  166MOL0     H21882   2.373   6.921   1.835 -0.3894  0.2834 -2.4514
  166MOL0     H21883   2.253   7.021   1.779 -1.2301 -1.8424 -0.3030
  166MOL0     H21884   2.190   6.754   1.895  0.5836 -1.0006 -0.8212
  166MOL0     H21885   2.072   6.869   1.850  0.1230 -2.0025  1.0318
  166MOL0     H21886   2.179   6.856   1.597 -0.2430 -1.5863 -1.5186
  166MOL0     H21887   2.109   6.725   1.667  0.4249 -0.2709  0.6606
  166MOL0     H21888   2.265   6.596   1.706  0.4442  0.8524  0.5345
  166MOL0     H21889   2.406   6.706   1.704  2.3466 -5.1668 -1.9606
  166MOL0     H21890   2.241   6.659   1.450  3.7121  3.9346 -5.5699
  166MOL0     H21891   2.408   6.731   1.480 -1.0149  1.2920  1.1968
  166MOL0     H21892   2.315   6.447   1.519 -0.6327  0.7896  0.1196
  166MOL0     H21893   2.484   6.512   1.559  2.3002 -0.7069 -2.3602
  166MOL0     H21894   2.222   7.328   2.039  0.1684 -1.0762 -0.1385
  166MOL0     H21895   2.161   7.566   2.078 -2.0358  1.3335  1.3170
  166MOL0     H21896   2.024   7.914   1.889 -0.2460  0.2219  0.1899
  166MOL0     H21897   2.015   8.148   1.900  1.2047 -0.7152  1.9867
  166MOL0     H21898   1.199   7.895   2.671  1.4545 -2.2176 -1.1256
  166MOL0     H21899   1.265   7.662   2.665  0.5304  3.5701 -0.1766
  166MOL0     H21900   1.116   7.176   2.663 -1.4683 -1.6493  0.3615
  166MOL0     H21901   1.266   6.981   2.619  2.7892 -0.2423 -1.0172
  166MOL0     H21902   1.419   6.801   2.597  0.7580  1.1259 -2.7462
  166MOL0     H21903   1.570   6.773   2.655 -1.7890 -1.4927  2.4042
  166MOL0     H21904   1.581   6.872   2.439 -1.6803  3.0536 -3.2674
  166MOL0     H21905   1.495   7.019   2.483 -1.3797  0.5598  2.8708
  166MOL0     H21906   1.769   6.949   2.593  2.9024  3.6328 -0.0318
  166MOL0     H21907   1.700   7.095   2.645  0.9250  0.2150 -0.0186
  166MOL0     H21908   1.681   7.178   2.419 -1.0780 -0.1177 -1.5847
  166MOL0     H21909   1.846   7.163   2.456  1.1260 -2.0180 -2.7063
  166MOL0     H21910   1.811   6.905   2.122 -1.9098 -2.1308  0.6696
  166MOL0     H21911   1.521   7.112   2.935  0.4119 -0.0736 -1.0513
  166MOL0     H21912   1.396   7.297   2.971  2.5796 -4.2983  2.6419
  167MOL0     O21913   7.078   3.977   7.730 -0.2203 -0.0423 -0.2635
  167MOL0     C21914   7.135   3.873   7.727  0.8731 -0.1540 -0.3268
  167MOL0     O21915   7.072   3.743   7.725  0.5777  0.2481 -0.0455
  167MOL0     C21916   6.941   3.721   7.688  1.2559 -0.5898  0.4306
  167MOL0     C21917   6.899   3.590   7.676  0.5164  0.2829  0.3588
  167MOL0     C21918   6.766   3.567   7.634 -0.0682 -0.0576  0.7866
  167MOL0     C21919   6.667   3.666   7.610  0.0007  0.3412  0.0551
  167MOL0     O21920   6.543   3.621   7.576  0.2081 -0.7404  0.8794
  167MOL0     C21921   6.454   3.735   7.558 -0.5854  0.8220 -0.2159
  167MOL0     C21922   6.327   3.670   7.510  0.5577  0.0108  0.2194
  167MOL0     C21923   6.192   3.746   7.553  0.1633  0.7350  0.9324
  167MOL0     C21924   6.213   3.902   7.543 -0.7059 -0.0246 -0.5095
  167MOL0     C21925   6.083   3.970   7.600 -0.6991  0.5648  0.6844
  167MOL0     C21926   6.092   4.116   7.555 -0.8233 -0.1596  0.1032
  167MOL0     C21927   5.973   4.186   7.601  1.3366  0.0111 -0.9290
  167MOL0     C21928   5.990   4.335   7.605 -0.0867  0.1778  0.2894
  167MOL0     N21929   6.085   4.376   7.709 -0.2759  0.3081  0.6300
  167MOL0     C21930   6.199   4.450   7.690  0.3084 -0.5492  0.4873
  167MOL0     C21931   6.263   4.458   7.806 -0.0878  0.1453 -0.6114
  167MOL0     C21932   6.385   4.554   7.831 -0.1583  0.4586  0.1980
  167MOL0     C21933   6.519   4.479   7.836  0.0370  0.0185  0.0741
  167MOL0     C21934   6.527   4.401   7.966 -0.8058 -0.6962 -0.0216
  167MOL0     C21935   6.658   4.406   8.043 -0.1274  0.7840  0.5946
  167MOL0     O21936   6.751   4.339   7.954 -0.0090  0.0946  0.0981
  167MOL0     C21937   6.889   4.341   7.987 -0.4250  0.2521  0.4866
  167MOL0     C21938   6.957   4.437   8.077  0.8450  0.0010 -0.3390
  167MOL0     C21939   7.099   4.416   8.108 -0.1166  0.3021 -1.6472
  167MOL0     C21940   7.171   4.309   8.059  0.1795 -0.9096 -0.4243
  167MOL0     C21941   7.313   4.290   8.100 -0.1745  0.5473  0.2243
  167MOL0     O21942   7.385   4.184   8.039  0.3240 -0.0867  0.2437
  167MOL0     C21943   7.515   4.172   8.081 -0.7946  0.4916  0.6938
  167MOL0     C21944   7.612   4.222   7.998 -0.5810  0.3562  0.3657
  167MOL0     C21945   7.745   4.224   8.030 -0.9631  0.1090 -1.7273
  167MOL0     C21946   7.786   4.174   8.151  0.0763 -0.3354 -0.4009
  167MOL0     O21947   7.921   4.177   8.196  0.4947 -0.0414  0.5082
  167MOL0     C21948   7.936   4.231   8.334  0.1589 -0.3898  0.2157
  167MOL0     C21949   8.084   4.268   8.339 -1.6481 -0.3041 -1.1743
  167MOL0     C21950   8.181   4.166   8.265  0.8407  1.2791 -0.0642
  167MOL0     C21951   8.332   4.195   8.289  0.0358 -0.5870  0.4512
  167MOL0     C21952   8.426   4.095   8.224 -1.3679  0.9793 -0.2659
  167MOL0     C21953   8.580   4.122   8.241 -0.7573  0.2884  0.1183
  167MOL0     C21954   8.682   4.044   8.150 -0.4410  0.6447 -0.0230
  167MOL0     C21955   8.829   4.035   8.200  0.6777  1.3474  0.6639
  167MOL0    Cl21956   8.912   4.199   8.194 -0.6520 -0.2692 -0.4368
  167MOL0     C21957   7.686   4.111   8.229 -0.1663  0.0652 -0.4770
  167MOL0     C21958   7.554   4.105   8.193 -0.1414 -0.0778  0.1709
  167MOL0     O21959   7.353   4.359   8.194 -0.6279  0.0343 -0.2045
  167MOL0     C21960   7.108   4.224   7.971 -0.3870  0.0945 -0.0093
  167MOL0     C21961   6.974   4.244   7.930 -0.3643 -0.6716  0.2769
  167MOL0     N21962   6.187   4.381   7.893 -0.0055  0.2096 -0.1985
  167MOL0     N21963   6.077   4.336   7.840  0.1471  0.0068 -0.7447
  167MOL0     C21964   6.710   3.796   7.625 -0.0181 -0.3638  0.8836
  167MOL0     C21965   6.841   3.825   7.659 -0.2105 -0.5350  0.6548
  167MOL0     C21966   7.293   3.881   7.741 -0.2794 -0.2184 -0.8340
  167MOL0     C21967   7.364   3.761   7.739 -0.1429  0.5233  1.0639
  167MOL0     C21968   7.506   3.757   7.724 -0.3144 -0.8759  0.1866
  167MOL0     C21969   7.580   3.881   7.727  0.3150  0.1832  0.9453
  167MOL0     O21970   7.715   3.871   7.736 -0.2099  0.8430 -0.7006
  167MOL0     C21971   7.786   3.991   7.712  1.1643 -0.2848 -0.2708
  167MOL0     C21972   7.939   3.987   7.722  0.1743 -0.7621  1.3043
  167MOL0     C21973   8.013   4.083   7.632 -0.3280  0.9169 -0.4093
  167MOL0     C21974   8.168   4.079   7.632  0.3123  1.0194 -0.8151
  167MOL0     C21975   8.218   4.189   7.562  1.0439  0.2201 -0.1991
  167MOL0     C21976   8.247   4.293   7.501  0.1239  0.3930 -0.6416
  167MOL0     C21977   7.504   4.005   7.730 -0.2216 -0.3090  0.0724
  167MOL0     C21978   7.364   4.005   7.724 -0.1239 -0.2138 -0.9876
  167MOL0     H21979   6.966   3.510   7.706  0.7081  0.8755  1.5516
  167MOL0     H21980   6.737   3.464   7.620 -0.0226  0.1940 -1.5373
  167MOL0     H21981   6.482   3.796   7.472  1.3261  2.5962  1.5230
  167MOL0     H21982   6.424   3.791   7.648 -2.1609  0.0895 -0.2600
  167MOL0     H21983   6.314   3.568   7.546  0.6061  0.7223  2.4164
  167MOL0     H21984   6.333   3.660   7.401  2.5131 -0.5728  0.3407
  167MOL0     H21985   6.160   3.724   7.655  1.5748  4.8577  2.4823
  167MOL0     H21986   6.119   3.714   7.479  1.3806 -0.8556  0.3783
  167MOL0     H21987   6.307   3.941   7.582  2.1367 -3.1900 -3.4290
  167MOL0     H21988   6.229   3.918   7.436 -0.6011 -1.1887 -0.6808
  167MOL0     H21989   6.081   3.955   7.709  1.4233  1.2079  0.8551
  167MOL0     H21990   5.988   3.932   7.561 -1.7796  4.5628 -1.0219
  167MOL0     H21991   6.095   4.125   7.446 -1.0683  1.6455  0.2092
  167MOL0     H21992   6.181   4.158   7.602 -1.0851  1.4022 -0.7415
  167MOL0     H21993   5.887   4.164   7.538 -0.5075 -0.0771  1.5037
  167MOL0     H21994   5.951   4.141   7.698 -1.0424  0.9888 -0.9656
  167MOL0     H21995   5.893   4.383   7.616  0.7826  2.3789 -0.8793
  167MOL0     H21996   6.018   4.373   7.506 -2.1129  2.0552  0.3619
  167MOL0     H21997   6.229   4.504   7.600 -2.0202 -0.0870 -0.0786
  167MOL0     H21998   6.373   4.615   7.921  2.2389 -1.8227  2.2378
  167MOL0     H21999   6.384   4.619   7.744 -1.8582 -1.1404 -1.0813
  167MOL0     H22000   6.600   4.552   7.834  0.9884 -1.0218 -1.4420
  167MOL0     H22001   6.539   4.415   7.750 -0.2813  1.1727 -0.8710
  167MOL0     H22002   6.447   4.427   8.036 -0.7823  0.6500 -0.4524
  167MOL0     H22003   6.502   4.298   7.941  1.4199 -1.2665 -0.0816
  167MOL0     H22004   6.654   4.364   8.144  0.4925  1.1485  0.7756
  167MOL0     H22005   6.686   4.509   8.068  0.0358  1.0225 -0.4961
  167MOL0     H22006   6.884   4.509   8.113 -0.2592  1.2098 -4.4770
  167MOL0     H22007   7.125   4.482   8.190 -1.8106 -0.2214 -0.6320
  167MOL0     H22008   7.591   4.260   7.899  2.3537 -1.8366 -1.2433
  167MOL0     H22009   7.824   4.261   7.965  1.4290  2.7340  2.1981
  167MOL0     H22010   7.913   4.166   8.419 -4.4986  1.3627  0.5794
  167MOL0     H22011   7.880   4.322   8.356  4.7586  2.5792  0.9244
  167MOL0     H22012   8.114   4.271   8.444 -3.1530 -1.5254 -0.6747
  167MOL0     H22013   8.087   4.369   8.297 -2.3489  0.0778 -0.3267
  167MOL0     H22014   8.166   4.168   8.157 -2.8296  3.0777  0.3138
  167MOL0     H22015   8.159   4.067   8.306  0.1256  1.7070  0.6326
  167MOL0     H22016   8.367   4.293   8.256  0.8430 -1.2808 -0.8502
  167MOL0     H22017   8.357   4.192   8.396  1.4616  0.1552  0.1613
  167MOL0     H22018   8.408   4.107   8.116 -2.2751 -2.7889 -0.6726
  167MOL0     H22019   8.399   3.995   8.261  0.9205  0.8061  1.1342
  167MOL0     H22020   8.614   4.098   8.342 -0.8007  3.1545  0.8978
  167MOL0     H22021   8.590   4.229   8.224 -1.2475  0.3972  0.4901
  167MOL0     H22022   8.655   3.938   8.139 -2.3200  0.4779  4.3899
  167MOL0     H22023   8.691   4.096   8.054 -0.9608  0.3579 -0.2323
  167MOL0     H22024   8.877   3.966   8.130  1.0418  1.1007  1.1439
  167MOL0     H22025   8.831   3.984   8.297  1.1756  0.1238  0.0387
  167MOL0     H22026   7.716   4.053   8.316  2.5793 -0.6679 -1.8180
  167MOL0     H22027   7.481   4.047   8.247  1.3426 -0.2591  2.0718
  167MOL0     H22028   7.163   4.142   7.927 -3.4822 -1.6012 -0.9938
  167MOL0     H22029   6.931   4.180   7.853  3.5100  0.2212 -2.9453
  167MOL0     H22030   6.647   3.883   7.608 -0.3873  0.0424  3.7413
  167MOL0     H22031   6.873   3.929   7.657  0.2483 -0.5166 -4.5996
  167MOL0     H22032   7.320   3.662   7.737  0.9842  0.0079  0.7913
  167MOL0     H22033   7.553   3.659   7.722  3.1819  0.5707  1.9507
  167MOL0     H22034   7.761   4.063   7.791  0.0098  0.9710 -1.7113
  167MOL0     H22035   7.744   4.027   7.618  0.3639  0.8209  0.4833
  167MOL0     H22036   7.971   4.014   7.823 -1.4924 -3.4458  2.6637
  167MOL0     H22037   7.973   3.885   7.708  0.0415 -0.3240 -4.4775
  167MOL0     H22038   7.977   4.182   7.662 -1.6566  1.0949 -2.3760
  167MOL0     H22039   7.975   4.064   7.531 -0.8032 -2.7991  0.3125
  167MOL0     H22040   8.213   4.078   7.732 -0.5090 -0.8951 -0.4220
  167MOL0     H22041   8.212   3.990   7.587  0.5790  0.9850 -0.4934
  167MOL0     H22042   8.279   4.382   7.451 -2.6543  2.6633  1.2558
  167MOL0     H22043   7.552   4.102   7.737 -1.5105  0.3946 -0.6514
  167MOL0     H22044   7.313   4.100   7.715 -0.1918 -0.3500 -2.3110
  168MOL0     O22045   4.536   4.687   0.192 -0.4073 -0.2126  0.1492
  168MOL0     C22046   4.659   4.694   0.165  0.2222  0.0418 -0.0813
  168MOL0     O22047   4.744   4.802   0.177  0.2740 -0.0158 -0.1896
  168MOL0     C22048   4.704   4.917   0.239 -0.2159 -0.0646  0.3638
  168MOL0     C22049   4.715   5.041   0.173 -0.5910  0.1470 -0.0417
  168MOL0     C22050   4.646   5.149   0.239 -0.3892 -0.0970  0.0330
  168MOL0     C22051   4.605   5.144   0.371 -0.3736 -0.5698 -0.5989
  168MOL0     O22052   4.569   5.257   0.445 -0.3244  0.6244  0.7181
  168MOL0     C22053   4.476   5.351   0.390  0.0652  0.6002 -0.2421
  168MOL0     C22054   4.432   5.472   0.481 -0.5069  0.4100 -0.8086
  168MOL0     C22055   4.347   5.418   0.600 -0.5905 -0.1745 -0.0915
  168MOL0     C22056   4.302   5.529   0.692  0.4709 -0.3408  0.5982
  168MOL0     C22057   4.230   5.460   0.811  1.9978 -0.2371  0.0067
  168MOL0     C22058   4.129   5.560   0.877  0.2808  0.1274 -0.6972
  168MOL0     C22059   4.205   5.670   0.960  0.1730 -0.4266  0.1447
  168MOL0     C22060   4.108   5.764   1.016  0.0109  0.0604  0.2252
  168MOL0     N22061   4.039   5.697   1.125 -0.9239 -0.5904 -0.3365
  168MOL0     C22062   4.090   5.687   1.250  0.0889 -0.4931  0.5456
  168MOL0     C22063   3.984   5.654   1.334  0.4517 -0.5994  0.6886
  168MOL0     C22064   3.967   5.665   1.478  1.3501 -0.2089 -0.6552
  168MOL0     C22065   4.030   5.553   1.550  0.2066 -0.7372  0.3367
  168MOL0     C22066   4.045   5.593   1.696 -0.3560 -0.0676 -0.8679
  168MOL0     C22067   4.148   5.496   1.761 -0.0355  0.1670  0.4682
  168MOL0     O22068   4.073   5.375   1.779 -0.5455 -0.4120  0.3689
  168MOL0     C22069   4.147   5.259   1.783  0.3492 -0.5783  0.3833
  168MOL0     C22070   4.273   5.245   1.832 -0.3226  0.0962 -0.4350
  168MOL0     C22071   4.347   5.123   1.839 -0.3368  0.1382 -0.9659
  168MOL0     C22072   4.285   5.003   1.789 -0.0464  0.0419 -0.0189
  168MOL0     C22073   4.346   4.870   1.792 -0.0617 -0.8224 -0.9025
  168MOL0     O22074   4.304   4.783   1.695  0.7088  0.1660 -0.6362
  168MOL0     C22075   4.353   4.660   1.667  0.4918  0.1117  1.7138
  168MOL0     C22076   4.399   4.574   1.763  0.2082  0.7951  0.0437
  168MOL0     C22077   4.465   4.453   1.736 -0.1482  1.3211 -0.8029
  168MOL0     C22078   4.478   4.410   1.604 -0.6242  0.3600  0.0697
  168MOL0     O22079   4.516   4.282   1.584  0.7599  0.3583 -0.3402
  168MOL0     C22080   4.457   4.216   1.465 -0.6347  0.6013 -0.0767
  168MOL0     C22081   4.457   4.065   1.490 -0.2082  0.4731  0.4245
  168MOL0     C22082   4.366   4.016   1.589 -0.2503  0.5820  0.3281
  168MOL0     C22083   4.404   3.874   1.627 -0.1332  0.3325  0.0788
  168MOL0     C22084   4.362   3.841   1.769  0.4630 -0.8715  0.5589
  168MOL0     C22085   4.370   3.689   1.795 -0.2620 -0.0231  0.4970
  168MOL0     C22086   4.325   3.663   1.936 -0.1982 -0.6654 -0.2282
  168MOL0     C22087   4.174   3.655   1.964  0.0827  0.3124  0.4960
  168MOL0    Cl22088   4.112   3.819   1.995 -0.0164  1.0791  0.2680
  168MOL0     C22089   4.432   4.495   1.500  0.0221  0.4033 -0.2036
  168MOL0     C22090   4.364   4.619   1.528 -0.6605  0.9159 -0.5520
  168MOL0     O22091   4.451   4.863   1.861  0.0117 -0.8161  0.8513
  168MOL0     C22092   4.162   5.022   1.734  0.4909 -0.6305 -0.0168
  168MOL0     C22093   4.086   5.142   1.744 -0.0899 -0.5286  1.1801
  168MOL0     N22094   3.873   5.637   1.248 -0.5105  0.5863 -0.2504
  168MOL0     N22095   3.905   5.670   1.126  0.3258  0.3251 -0.1065
  168MOL0     C22096   4.598   5.018   0.436 -0.5793  0.3460  0.3808
  168MOL0     C22097   4.659   4.910   0.370 -0.1032  0.4450 -0.5101
  168MOL0     C22098   4.716   4.568   0.103  1.1015  0.0065  0.2207
  168MOL0     C22099   4.841   4.523   0.144 -1.2024 -1.7164  0.0357
  168MOL0     C22100   4.898   4.400   0.108  0.0946 -0.1891 -0.7793
  168MOL0     C22101   4.826   4.308   0.027 -0.0548  0.7989  0.3619
  168MOL0     O22102   4.853   4.173  -0.000  0.0498 -1.0751 -0.3753
  168MOL0     C22103   4.970   4.123   0.067  0.7452  0.6382 -0.0790
  168MOL0     C22104   4.940   4.093   0.216 -0.3076 -0.6322  1.2661
  168MOL0     C22105   5.048   3.984   0.264 -0.5361  0.1238  1.1077
  168MOL0     C22106   5.016   3.942   0.411  0.2515  0.2495 -0.7084
  168MOL0     C22107   4.878   3.880   0.412  0.7081  0.0614  0.6581
  168MOL0     C22108   4.772   3.829   0.413  0.7945  0.6209 -0.4339
  168MOL0     C22109   4.697   4.360  -0.028 -0.7334  0.5182  0.6441
  168MOL0     C22110   4.642   4.484   0.021 -0.4331  0.7099  0.0642
  168MOL0     H22111   4.764   5.050   0.077  4.1409  0.7257  2.1228
  168MOL0     H22112   4.641   5.230   0.167 -1.1276 -0.3900 -0.2563
  168MOL0     H22113   4.383   5.306   0.354  0.6312  1.2103 -2.6471
  168MOL0     H22114   4.525   5.388   0.299 -1.5599 -0.5504 -1.6432
  168MOL0     H22115   4.373   5.545   0.425 -0.7373 -0.1776 -1.3517
  168MOL0     H22116   4.511   5.539   0.514 -2.0499  2.2078 -0.5537
  168MOL0     H22117   4.419   5.353   0.652  1.9103 -0.3356 -3.3970
  168MOL0     H22118   4.263   5.365   0.555 -1.1611  1.1379 -0.6106
  168MOL0     H22119   4.393   5.581   0.723 -0.8906  1.4176  1.8841
  168MOL0     H22120   4.244   5.598   0.631 -2.3087 -2.9091  0.0870
  168MOL0     H22121   4.299   5.429   0.890  2.3626  0.7100  0.0668
  168MOL0     H22122   4.176   5.378   0.762  2.0717  1.9031 -4.0984
  168MOL0     H22123   4.069   5.509   0.953 -0.1512 -0.2228 -1.2607
  168MOL0     H22124   4.056   5.599   0.805  0.8642 -1.5213 -2.2534
  168MOL0     H22125   4.280   5.636   1.032  0.0025  1.6224  1.3740
  168MOL0     H22126   4.265   5.736   0.897 -0.6322  1.9372  1.6937
  168MOL0     H22127   4.041   5.789   0.934  2.0509 -0.9545 -1.8452
  168MOL0     H22128   4.170   5.845   1.057 -1.5979  0.9559  1.0070
  168MOL0     H22129   4.191   5.722   1.269 -0.0463  0.7977 -0.9438
  168MOL0     H22130   3.865   5.675   1.516  1.2546 -0.8948 -0.7224
  168MOL0     H22131   4.018   5.760   1.494 -0.4937  0.9133 -1.2471
  168MOL0     H22132   4.133   5.550   1.514  1.4558  3.1857  2.9723
  168MOL0     H22133   3.965   5.466   1.533  0.3433 -0.6957 -0.4590
  168MOL0     H22134   4.088   5.693   1.705  1.0138 -0.6475 -0.7584
  168MOL0     H22135   3.950   5.591   1.750 -0.4975 -0.2434 -1.1185
  168MOL0     H22136   4.181   5.533   1.859  0.0783 -0.8929  0.8424
  168MOL0     H22137   4.230   5.475   1.693  0.8454 -1.7606  2.0295
  168MOL0     H22138   4.328   5.331   1.870  0.9450 -1.3220  1.1314
  168MOL0     H22139   4.447   5.119   1.880  0.2197  0.9949 -2.1657
  168MOL0     H22140   4.366   4.602   1.862 -2.9960 -3.6176  0.5063
  168MOL0     H22141   4.512   4.390   1.812 -1.6800 -0.7240 -1.4728
  168MOL0     H22142   4.511   4.236   1.372  1.3129  0.8731  1.0605
  168MOL0     H22143   4.355   4.254   1.461 -0.6199  1.2341  2.8162
  168MOL0     H22144   4.561   4.037   1.510  1.1064  3.8644 -0.9750
  168MOL0     H22145   4.424   4.020   1.396  2.8175 -1.8576  0.3267
  168MOL0     H22146   4.258   4.020   1.567 -0.4680 -1.0845  0.9431
  168MOL0     H22147   4.376   4.075   1.681 -0.3184 -2.3453  2.3981
  168MOL0     H22148   4.356   3.813   1.550  0.6414  0.8002 -0.7938
  168MOL0     H22149   4.511   3.851   1.617  0.3347  1.4076  2.0258
  168MOL0     H22150   4.261   3.879   1.787 -0.0693 -1.5945 -0.7578
  168MOL0     H22151   4.431   3.886   1.841  1.2000 -0.9711 -0.0730
  168MOL0     H22152   4.475   3.663   1.779  0.2268  1.0426  1.7839
  168MOL0     H22153   4.311   3.621   1.734  2.0381 -2.3788  0.7033
  168MOL0     H22154   4.363   3.566   1.968 -1.6638 -0.5573  2.0361
  168MOL0     H22155   4.373   3.738   1.999 -0.1415 -0.5757 -0.3778
  168MOL0     H22156   4.151   3.598   2.055  2.4578  4.1019  3.7884
  168MOL0     H22157   4.117   3.621   1.876  0.8144 -2.7902  1.0945
  168MOL0     H22158   4.442   4.455   1.399 -3.6467 -3.6400  0.7543
  168MOL0     H22159   4.333   4.672   1.439 -0.3565 -0.7939 -1.7174
  168MOL0     H22160   4.118   4.947   1.669 -1.4532  2.8936 -3.1660
  168MOL0     H22161   3.996   5.154   1.685  2.8187 -0.9192 -3.9395
  168MOL0     H22162   4.576   5.011   0.542  1.5644 -0.4118  0.8368
  168MOL0     H22163   4.661   4.814   0.422  0.9703 -0.2467 -1.7703
  168MOL0     H22164   4.889   4.594   0.210 -0.6899  0.8792 -2.8819
  168MOL0     H22165   4.996   4.376   0.148 -0.4499  1.5507  1.8726
  168MOL0     H22166   5.056   4.190   0.073  0.0637  1.4204  1.7174
  168MOL0     H22167   4.999   4.033   0.012 -1.2967 -0.8528  1.1290
  168MOL0     H22168   4.951   4.186   0.273  1.9977 -0.0714  0.0247
  168MOL0     H22169   4.834   4.071   0.229 -0.0297 -4.0335 -1.0001
  168MOL0     H22170   5.149   4.025   0.258 -0.3439 -0.5674 -2.8063
  168MOL0     H22171   5.060   3.901   0.193 -0.6083  0.7186  0.3871
  168MOL0     H22172   5.088   3.866   0.444  1.7955  2.0561  0.2877
  168MOL0     H22173   5.032   4.022   0.484 -2.3041  0.5509 -0.4029
  168MOL0     H22174   4.680   3.773   0.417  1.2558 -0.2567 -1.6663
  168MOL0     H22175   4.639   4.288  -0.084  1.8911  0.1219 -1.8194
  168MOL0     H22176   4.541   4.511  -0.008 -0.0815  2.9187  0.7124
  169MOL0     O22177   6.943   6.723   1.859 -0.1543 -0.4192 -0.7061
  169MOL0     C22178   7.032   6.653   1.812  0.0319 -0.2298  0.4621
  169MOL0     O22179   7.152   6.691   1.766  0.4853  0.0868 -0.3572
  169MOL0     C22180   7.195   6.815   1.812 -0.3509 -0.6558  0.0575
  169MOL0     C22181   7.243   6.908   1.718 -2.5037 -0.8014  0.0698
  169MOL0     C22182   7.297   7.032   1.763 -0.0679 -1.0760  0.8348
  169MOL0     C22183   7.332   7.053   1.894 -0.2164 -0.7161 -0.0710
  169MOL0     O22184   7.412   7.159   1.934 -0.1680  0.5674  0.2639
  169MOL0     C22185   7.557   7.135   1.965  0.1263 -1.1217  0.6204
  169MOL0     C22186   7.576   7.065   2.103  0.2068 -0.6216 -0.0995
  169MOL0     C22187   7.523   7.150   2.219 -0.3913  0.2429 -0.2430
  169MOL0     C22188   7.592   7.103   2.347 -0.7285 -0.9989 -0.2667
  169MOL0     C22189   7.591   7.207   2.462 -0.6134 -0.0177 -0.5500
  169MOL0     C22190   7.439   7.234   2.509  0.0624  0.3436  0.2413
  169MOL0     C22191   7.438   7.324   2.632  0.4325 -0.2987  0.0649
  169MOL0     C22192   7.295   7.376   2.636  0.0309 -0.3006  0.3604
  169MOL0     N22193   7.275   7.505   2.564  0.7401  0.4787  0.1643
  169MOL0     C22194   7.308   7.624   2.620  0.3959 -0.6999  0.7976
  169MOL0     C22195   7.263   7.710   2.520 -0.8992  0.0439 -0.1931
  169MOL0     C22196   7.267   7.856   2.516 -0.4907 -0.2928 -0.0426
  169MOL0     C22197   7.404   7.922   2.522 -0.1840 -0.2618  0.3874
  169MOL0     C22198   7.399   8.075   2.518  1.0250  0.2886  0.0956
  169MOL0     C22199   7.529   8.116   2.477  0.4396 -0.4295  0.1707
  169MOL0     O22200   7.643   8.045   2.547  0.8019 -0.9157 -0.6230
  169MOL0     C22201   7.672   8.077   2.680  0.2914 -0.2555  0.2823
  169MOL0     C22202   7.638   8.196   2.738  0.4061 -0.6745  0.0722
  169MOL0     C22203   7.683   8.223   2.874  0.2621 -0.9095  0.3341
  169MOL0     C22204   7.768   8.132   2.936  0.0419  0.0473  0.1994
  169MOL0     C22205   7.836   8.169   3.062 -0.3566  1.5810 -1.0669
  169MOL0     O22206   7.827   8.300   3.112  0.5191 -0.0513 -0.1712
  169MOL0     C22207   7.856   8.329   3.246 -0.2049  0.3538 -0.0648
  169MOL0     C22208   7.940   8.267   3.336 -0.0520 -0.5603 -0.3385
  169MOL0     C22209   7.973   8.335   3.455 -0.0973 -0.0827 -0.2068
  169MOL0     C22210   7.893   8.444   3.502  0.4177  0.0979 -0.2720
  169MOL0     O22211   7.924   8.517   3.614 -0.8814  1.4187  0.4775
  169MOL0     C22212   8.054   8.516   3.670 -0.0177 -0.4564  0.3443
  169MOL0     C22213   8.031   8.613   3.787 -1.2237 -0.7505  0.2125
  169MOL0     C22214   8.149   8.603   3.877 -0.5854 -0.7261 -0.4293
  169MOL0     C22215   8.152   8.701   3.996 -0.8070 -0.3837  0.9075
  169MOL0     C22216   8.196   8.835   3.939 -0.5958  0.0789  0.7419
  169MOL0     C22217   8.219   8.924   4.055 -0.2438 -0.7672  0.5385
  169MOL0     C22218   8.219   9.069   4.008 -0.8470 -0.0517 -0.0794
  169MOL0     C22219   8.359   9.103   3.951  0.7262  0.6142 -0.1153
  169MOL0    Cl22220   8.376   9.273   3.934  0.3377 -0.6156 -0.0335
  169MOL0     C22221   7.794   8.487   3.425  0.4147 -0.7672 -0.0355
  169MOL0     C22222   7.775   8.431   3.304  0.5524  0.5174  0.6960
  169MOL0     O22223   7.900   8.073   3.105  0.1197 -1.0405 -0.8661
  169MOL0     C22224   7.795   8.009   2.875  0.1378 -0.5328 -0.6202
  169MOL0     C22225   7.747   7.988   2.752  0.3080  0.1892  0.1953
  169MOL0     N22226   7.188   7.641   2.423 -0.1023  0.7286  1.0546
  169MOL0     N22227   7.201   7.518   2.443 -0.3639  0.1213 -0.1029
  169MOL0     C22228   7.275   6.970   1.986  0.0576  0.0406 -0.2755
  169MOL0     C22229   7.200   6.850   1.950 -0.9024  0.3743  0.7383
  169MOL0     C22230   6.989   6.517   1.775  0.5170  0.4941  0.2540
  169MOL0     C22231   6.858   6.464   1.767  0.1120 -0.9386  0.2861
  169MOL0     C22232   6.829   6.328   1.736 -0.5084  0.0274  1.5316
  169MOL0     C22233   6.927   6.239   1.705  0.2442  0.1430 -1.1522
  169MOL0     O22234   6.880   6.113   1.677  0.0987 -0.1717 -0.0072
  169MOL0     C22235   6.974   6.021   1.611  0.2445  0.9082 -0.3490
  169MOL0     C22236   6.876   5.905   1.560  0.0204  0.2323  0.3404
  169MOL0     C22237   6.781   5.945   1.435  0.6678  0.5558 -0.6129
  169MOL0     C22238   6.653   5.862   1.441  1.3842  0.0014  0.8236
  169MOL0     C22239   6.571   5.887   1.563  0.0595  0.2750  0.2940
  169MOL0     C22240   6.496   5.898   1.656  0.1866 -0.5784  0.0706
  169MOL0     C22241   7.055   6.288   1.704  0.0397 -0.5304  0.3703
  169MOL0     C22242   7.089   6.421   1.740  0.0120 -1.0067 -0.8283
  169MOL0     H22243   7.237   6.890   1.612 -0.8623  5.6804 -1.5296
  169MOL0     H22244   7.334   7.098   1.685  0.9926 -2.3149  0.2477
  169MOL0     H22245   7.616   7.226   1.958 -1.0470 -0.4797 -2.7337
  169MOL0     H22246   7.595   7.075   1.882  0.0531 -1.9757  1.1803
  169MOL0     H22247   7.684   7.046   2.105  0.4876  0.8780  0.3971
  169MOL0     H22248   7.529   6.967   2.115  1.8993 -1.3120  1.3315
  169MOL0     H22249   7.415   7.150   2.234 -0.2646 -0.1260  0.7655
  169MOL0     H22250   7.570   7.245   2.194  2.6445 -1.4064 -1.3951
  169MOL0     H22251   7.538   7.014   2.380 -1.6116 -0.2602  0.3464
  169MOL0     H22252   7.697   7.078   2.331 -0.3720  0.6341 -0.6300
  169MOL0     H22253   7.628   7.301   2.422 -1.5657  0.4933 -0.2737
  169MOL0     H22254   7.649   7.160   2.542 -1.2524  1.3373  0.7614
  169MOL0     H22255   7.405   7.133   2.533 -0.0507 -0.3181 -2.4599
  169MOL0     H22256   7.381   7.265   2.421  0.7025 -0.4197 -0.4575
  169MOL0     H22257   7.455   7.261   2.719 -2.2614 -1.5353 -0.1952
  169MOL0     H22258   7.501   7.413   2.635 -1.4249  1.2732 -2.6857
  169MOL0     H22259   7.275   7.401   2.741 -0.2330 -1.6503  0.6502
  169MOL0     H22260   7.228   7.299   2.596  2.1908 -2.1011 -0.0159
  169MOL0     H22261   7.364   7.648   2.710 -1.9105 -0.2614  2.2104
  169MOL0     H22262   7.210   7.900   2.599  2.8244  2.9038  0.8691
  169MOL0     H22263   7.216   7.900   2.430 -0.6158 -1.3455 -0.5172
  169MOL0     H22264   7.448   7.894   2.425 -2.5581  2.6154 -1.6879
  169MOL0     H22265   7.457   7.889   2.612 -0.2831 -0.8988  0.2142
  169MOL0     H22266   7.332   8.120   2.445  2.2354  2.4148  0.2102
  169MOL0     H22267   7.376   8.107   2.620  2.8502 -3.6625  1.9786
  169MOL0     H22268   7.527   8.226   2.476 -1.9526 -0.4030  1.1840
  169MOL0     H22269   7.535   8.091   2.371 -1.9079 -2.1744  0.3561
  169MOL0     H22270   7.587   8.274   2.682  1.1185 -1.1352 -1.2479
  169MOL0     H22271   7.663   8.322   2.912  1.7566 -0.6931  0.6057
  169MOL0     H22272   7.996   8.181   3.302 -1.1427 -1.0406 -0.9635
  169MOL0     H22273   8.062   8.309   3.511  0.1003  0.8143 -0.0775
  169MOL0     H22274   8.133   8.562   3.609 -0.4885  3.1849  2.2073
  169MOL0     H22275   8.085   8.413   3.686  1.2818 -0.1287  0.0569
  169MOL0     H22276   7.937   8.581   3.833 -0.8976 -0.5219  1.0546
  169MOL0     H22277   8.024   8.713   3.742  0.7017 -0.8506 -0.4031
  169MOL0     H22278   8.241   8.605   3.818  0.1757 -0.5224  0.7234
  169MOL0     H22279   8.145   8.510   3.935  0.2516 -0.0490  0.7613
  169MOL0     H22280   8.054   8.687   4.042 -1.8925  0.1443 -1.1297
  169MOL0     H22281   8.225   8.671   4.072  2.3532 -0.1285 -1.7612
  169MOL0     H22282   8.132   8.887   3.867  2.5259  1.6181 -1.1839
  169MOL0     H22283   8.296   8.830   3.894 -1.7456 -1.5190 -1.8233
  169MOL0     H22284   8.303   8.902   4.121  2.5804  3.0185 -1.4339
  169MOL0     H22285   8.128   8.921   4.116 -0.9712  1.3710 -0.3324
  169MOL0     H22286   8.143   9.089   3.932 -1.9215 -4.8249 -0.6054
  169MOL0     H22287   8.191   9.130   4.094 -1.4069 -0.3437 -0.0490
  169MOL0     H22288   8.366   9.056   3.852  3.2011  2.5104 -0.9536
  169MOL0     H22289   8.438   9.068   4.018 -0.0766 -0.9763  0.0355
  169MOL0     H22290   7.720   8.559   3.460 -1.6073 -3.2953  1.3152
  169MOL0     H22291   7.691   8.470   3.248  1.7661  5.5698  1.8171
  169MOL0     H22292   7.852   7.937   2.933 -0.2202  1.0930  1.9084
  169MOL0     H22293   7.772   7.887   2.720 -3.1801 -0.9942  0.6711
  169MOL0     H22294   7.290   6.989   2.092 -0.7496  2.5473 -0.5483
  169MOL0     H22295   7.175   6.772   2.022 -1.1186  0.4814  0.7810
  169MOL0     H22296   6.770   6.527   1.777  1.5812  1.7414 -1.9907
  169MOL0     H22297   6.726   6.294   1.734 -0.0156 -1.5453 -0.1704
  169MOL0     H22298   7.045   5.987   1.686  0.6654  0.8931 -0.7482
  169MOL0     H22299   7.029   6.067   1.528 -0.7220  0.7551 -1.1034
  169MOL0     H22300   6.931   5.818   1.522 -1.4809 -0.5222 -0.2049
  169MOL0     H22301   6.829   5.853   1.643 -1.0599  1.7492  0.7240
  169MOL0     H22302   6.842   5.937   1.345 -0.8478 -1.9016 -1.5013
  169MOL0     H22303   6.770   6.053   1.444  1.9308  1.1462 -4.4099
  169MOL0     H22304   6.593   5.889   1.354  0.7196  1.5810  1.7199
  169MOL0     H22305   6.674   5.755   1.438 -0.1003 -0.3078  0.7130
  169MOL0     H22306   6.409   5.908   1.717  0.8815 -1.6505  1.2846
  169MOL0     H22307   7.133   6.225   1.662 -1.8930 -1.7840 -1.5418
  169MOL0     H22308   7.193   6.451   1.739  0.1732 -1.4038  0.6855
  170MOL0     O22309   2.740   9.646   5.263 -0.7493  0.1668 -0.2957
  170MOL0     C22310   2.785   9.747   5.212 -0.0252 -1.1683 -0.1189
  170MOL0     O22311   2.711   9.854   5.166  0.0895  0.1396  0.6397
  170MOL0     C22312   2.575   9.857   5.191  0.5696 -0.5454 -0.2447
  170MOL0     C22313   2.519   9.839   5.317  0.0483  0.1296  0.2261
  170MOL0     C22314   2.382   9.859   5.344  0.2679 -1.1461 -0.5968
  170MOL0     C22315   2.296   9.873   5.238  0.1439 -0.5097  0.0305
  170MOL0     O22316   2.157   9.853   5.259 -0.9618 -0.3432  0.1268
  170MOL0     C22317   2.122   9.712   5.257  0.6818  0.4877  0.0389
  170MOL0     C22318   1.974   9.696   5.254 -0.0368  0.0662 -0.6986
  170MOL0     C22319   1.934   9.547   5.211 -0.1503 -0.4359  0.3227
  170MOL0     C22320   1.783   9.512   5.198  0.1049  0.3188 -0.4518
  170MOL0     C22321   1.738   9.475   5.060 -0.6411 -0.0763 -0.4445
  170MOL0     C22322   1.794   9.333   5.026 -0.1046  0.0052 -1.0304
  170MOL0     C22323   1.696   9.224   5.081 -1.6380  0.4512  0.8445
  170MOL0     C22324   1.712   9.096   5.007 -0.3802  0.6308 -1.1633
  170MOL0     N22325   1.610   9.094   4.898  0.3612  0.5632  0.3270
  170MOL0     C22326   1.635   9.066   4.770 -0.2059 -0.3033 -0.0290
  170MOL0     C22327   1.521   9.091   4.703  0.8041  0.3874  0.1054
  170MOL0     C22328   1.494   9.073   4.558  0.2766 -0.4596 -0.6970
  170MOL0     C22329   1.437   8.943   4.527 -1.0415 -0.1421 -0.4748
  170MOL0     C22330   1.294   8.917   4.584 -0.0631  0.1733 -0.9586
  170MOL0     C22331   1.243   8.777   4.545 -0.0464  0.2911  0.5008
  170MOL0     O22332   1.100   8.761   4.571 -0.4356 -0.1543 -0.4311
  170MOL0     C22333   1.049   8.758   4.695  0.1266  0.9803 -0.1312
  170MOL0     C22334   1.008   8.633   4.744  0.2497  0.7405  0.9534
  170MOL0     C22335   0.958   8.632   4.877 -0.0082  0.1533 -0.1753
  170MOL0     C22336   0.932   8.750   4.947 -0.5766 -0.4310  0.2352
  170MOL0     C22337   0.855   8.739   5.072 -0.3216 -0.3470  0.1951
  170MOL0     O22338   0.794   8.625   5.106 -0.4593 -0.2038 -0.1420
  170MOL0     C22339   0.730   8.637   5.219  0.6255 -0.3245 -0.3259
  170MOL0     C22340   0.595   8.667   5.216  0.5876  1.4608 -0.1116
  170MOL0     C22341   0.511   8.657   5.328 -0.5454  0.4208 -0.4951
  170MOL0     C22342   0.576   8.649   5.457 -0.1522  0.0249  0.0208
  170MOL0     O22343   0.483   8.643   5.568 -0.2008  0.7124 -0.6252
  170MOL0     C22344   0.540   8.622   5.698 -0.2888 -0.1476  0.2846
  170MOL0     C22345   0.428   8.623   5.806 -0.4338 -0.5857 -0.3491
  170MOL0     C22346   0.339   8.493   5.802  0.1357  0.1957  0.6959
  170MOL0     C22347   0.293   8.446   5.935 -0.0326  0.2829 -0.3202
  170MOL0     C22348   0.227   8.563   6.022  0.1704 -0.3258  0.2711
  170MOL0     C22349   0.105   8.614   5.960  0.1560 -0.1893 -0.3296
  170MOL0     C22350  -0.000   8.676   6.048 -0.3256 -0.0982  0.0380
  170MOL0     C22351  -0.139   8.676   5.995 -0.0258 -0.5488  0.1313
  170MOL0    Cl22352  -0.223   8.811   6.076 -0.3430  0.0227 -0.2621
  170MOL0     C22353   0.715   8.628   5.460  0.6674 -0.0207  0.0840
  170MOL0     C22354   0.795   8.621   5.347 -0.2534 -0.2265  0.0700
  170MOL0     O22355   0.863   8.840   5.143 -0.3689  0.3231 -0.1463
  170MOL0     C22356   0.968   8.872   4.892 -0.6268 -0.2957  0.0069
  170MOL0     C22357   1.029   8.873   4.772 -0.8516 -1.1842 -0.0961
  170MOL0     N22358   1.432   9.146   4.794  0.6578  1.0646 -0.2379
  170MOL0     N22359   1.485   9.129   4.913 -0.8040 -0.6018  0.1036
  170MOL0     C22360   2.346   9.872   5.111  0.0437 -0.2376  0.1839
  170MOL0     C22361   2.487   9.878   5.088  0.0807 -0.0715  0.8474
  170MOL0     C22362   2.931   9.770   5.207 -0.0649  0.4282  0.0766
  170MOL0     C22363   2.985   9.894   5.155 -0.7848 -1.0795  0.8761
  170MOL0     C22364   3.120   9.929   5.159 -0.1366  0.9701 -0.4600
  170MOL0     C22365   3.207   9.836   5.219 -0.4313  1.2234  0.4761
  170MOL0     O22366   3.352   9.849   5.214  0.2837 -0.0386  0.1274
  170MOL0     C22367   3.396   9.969   5.145 -0.7348  0.3347 -0.6211
  170MOL0     C22368   3.553   9.973   5.129 -0.4203  0.0588  0.3263
  170MOL0     C22369   3.595  10.104   5.068  0.5183  0.3138  0.0243
  170MOL0     C22370   3.736  10.103   5.004 -0.9935  0.5339 -0.1924
  170MOL0     C22371   3.840  10.046   5.093  0.2771 -0.1271  0.6819
  170MOL0     C22372   3.923  10.019   5.174  1.0072 -0.2580  0.0528
  170MOL0     C22373   3.157   9.716   5.280 -0.3264  0.8991  0.3772
  170MOL0     C22374   3.018   9.678   5.264 -0.8665  0.3074  1.5464
  170MOL0     H22375   2.583   9.817   5.402  2.6577  1.0912 -1.3732
  170MOL0     H22376   2.345   9.859   5.446 -3.0239 -1.6868 -1.6669
  170MOL0     H22377   2.160   9.668   5.350  0.0421  0.6622  0.3842
  170MOL0     H22378   2.146   9.671   5.159  2.0498  0.1188  0.4952
  170MOL0     H22379   1.934   9.770   5.185  0.8838  0.9259 -0.3360
  170MOL0     H22380   1.931   9.727   5.349  0.4063 -0.3289 -0.3647
  170MOL0     H22381   1.963   9.491   5.300 -1.2174 -1.7445 -0.1043
  170MOL0     H22382   1.994   9.518   5.124 -1.5605  1.2080 -1.2922
  170MOL0     H22383   1.764   9.422   5.258  1.5340  0.2642 -0.0283
  170MOL0     H22384   1.718   9.591   5.236 -2.9727 -2.0220 -0.4835
  170MOL0     H22385   1.764   9.553   4.988  3.5933 -0.5757  0.2706
  170MOL0     H22386   1.629   9.483   5.058 -0.6829  0.3061  1.3354
  170MOL0     H22387   1.896   9.314   5.061 -0.6307  1.3292  1.4486
  170MOL0     H22388   1.794   9.342   4.917  0.8215  0.4835 -1.0017
  170MOL0     H22389   1.733   9.193   5.178 -0.2117 -1.7085 -0.3165
  170MOL0     H22390   1.595   9.268   5.077 -0.6752  2.7792 -2.6401
  170MOL0     H22391   1.700   9.002   5.061  1.4274 -0.1275 -1.9691
  170MOL0     H22392   1.818   9.088   4.981 -0.5083  1.2732 -1.9203
  170MOL0     H22393   1.723   9.020   4.725 -0.9608 -0.7161 -1.1275
  170MOL0     H22394   1.591   9.090   4.510  2.0565 -0.6203  2.5193
  170MOL0     H22395   1.434   9.152   4.513  1.7138  0.7322 -0.6003
  170MOL0     H22396   1.506   8.864   4.558 -0.1383  0.1606 -1.6368
  170MOL0     H22397   1.433   8.949   4.418 -1.4710 -1.4439 -0.5482
  170MOL0     H22398   1.302   8.925   4.693 -2.6708  2.5608 -0.8249
  170MOL0     H22399   1.222   8.996   4.560 -0.1892  1.0216  1.8277
  170MOL0     H22400   1.299   8.693   4.588  1.8099  1.5284  0.6396
  170MOL0     H22401   1.244   8.775   4.436 -0.1803 -0.2254  0.5066
  170MOL0     H22402   1.033   8.543   4.689 -0.3317 -0.6754  2.9257
  170MOL0     H22403   0.928   8.539   4.924 -1.2304  1.1353  1.0699
  170MOL0     H22404   0.556   8.686   5.116  0.2728  0.7738 -0.1294
  170MOL0     H22405   0.405   8.678   5.319 -0.3391  0.9912 -1.8927
  170MOL0     H22406   0.609   8.704   5.720  1.1952 -0.5660 -2.3141
  170MOL0     H22407   0.590   8.524   5.699  0.8886  0.4246 -0.4363
  170MOL0     H22408   0.368   8.713   5.792 -2.2405 -1.6355  0.3865
  170MOL0     H22409   0.467   8.630   5.908  1.8674  0.2808 -1.2130
  170MOL0     H22410   0.384   8.418   5.735  0.0862  3.1904 -3.0130
  170MOL0     H22411   0.252   8.516   5.740 -1.1673 -3.2592  1.0055
  170MOL0     H22412   0.238   8.351   5.941  1.8407 -0.7349  2.5219
  170MOL0     H22413   0.385   8.418   5.987  0.5521  2.4000 -0.1216
  170MOL0     H22414   0.301   8.639   6.048  1.1622 -0.5604 -1.6465
  170MOL0     H22415   0.195   8.528   6.120  2.9445 -1.0333  1.0032
  170MOL0     H22416   0.048   8.530   5.916 -1.6082 -0.8657  2.9361
  170MOL0     H22417   0.128   8.679   5.875  0.8516 -0.6035 -0.4726
  170MOL0     H22418   0.005   8.629   6.146  2.6413  1.4807  0.7716
  170MOL0     H22419   0.041   8.776   6.067  2.0683 -0.9195 -0.5194
  170MOL0     H22420  -0.192   8.585   6.023 -1.9269  0.8088  1.1291
  170MOL0     H22421  -0.154   8.701   5.889 -2.0667  1.4455  0.8047
  170MOL0     H22422   0.753   8.609   5.560 -2.6913 -0.3036  1.4450
  170MOL0     H22423   0.902   8.608   5.357  0.0959  2.8256  1.4547
  170MOL0     H22424   0.926   8.958   4.942 -2.8070 -0.1331 -1.9386
  170MOL0     H22425   1.054   8.965   4.720 -0.9706 -1.8353 -1.3275
  170MOL0     H22426   2.285   9.894   5.024  1.7896  2.0086 -0.5687
  170MOL0     H22427   2.522   9.890   4.986 -3.1772 -1.5276 -0.5651
  170MOL0     H22428   2.919   9.969   5.113  0.2040 -0.6843 -0.0158
  170MOL0     H22429   3.149  10.029   5.129  2.6079  0.7718  1.1968
  170MOL0     H22430   3.374  10.065   5.191  0.4398 -0.3952  1.6124
  170MOL0     H22431   3.350   9.974   5.046 -2.0681 -2.7899 -0.3012
  170MOL0     H22432   3.613   9.959   5.219  0.4466  2.8756  0.2811
  170MOL0     H22433   3.585   9.885   5.073  0.8093 -0.4825  1.7927
  170MOL0     H22434   3.591  10.183   5.143  0.8619 -2.6482  3.3874
  170MOL0     H22435   3.529  10.131   4.985  0.5954  0.4063 -0.0071
  170MOL0     H22436   3.739  10.038   4.916  0.4141 -0.4319  0.5368
  170MOL0     H22437   3.766  10.203   4.971  2.9545  0.0177  1.2833
  170MOL0     H22438   3.991   9.999   5.254  0.4390  2.2685  1.2600
  170MOL0     H22439   3.224   9.652   5.337 -0.0498 -0.1811 -1.1024
  170MOL0     H22440   2.985   9.580   5.299 -0.2966 -0.9535 -1.1558
  171MOL0     O22441   4.781   4.465   7.991 -0.3274  0.0200  0.5136
  171MOL0     C22442   4.869   4.401   7.936  0.0693 -0.0467  0.5263
  171MOL0     O22443   4.892   4.381   7.789 -0.2844  1.1705 -0.3440
  171MOL0     C22444   4.794   4.383   7.690  0.0248 -0.8639  0.3078
  171MOL0     C22445   4.656   4.359   7.713  0.6899  0.7758 -0.5557
  171MOL0     C22446   4.561   4.364   7.608  0.9340  0.3185  0.8451
  171MOL0     C22447   4.603   4.360   7.475 -0.6654  0.4353  0.4372
  171MOL0     O22448   4.492   4.341   7.389 -0.5622  0.3027  0.3916
  171MOL0     C22449   4.525   4.370   7.249 -0.5178 -0.6394 -0.0620
  171MOL0     C22450   4.580   4.248   7.183  0.4507  0.0422  0.7677
  171MOL0     C22451   4.625   4.284   7.039 -0.1518  1.0121  0.2907
  171MOL0     C22452   4.671   4.162   6.951  0.5885 -0.1068  0.2944
  171MOL0     C22453   4.555   4.054   6.938 -0.5415 -0.3802 -0.3464
  171MOL0     C22454   4.412   4.083   6.887 -0.5641  0.3023 -0.3494
  171MOL0     C22455   4.415   4.191   6.778  0.6010  0.2061 -0.1632
  171MOL0     C22456   4.293   4.189   6.679 -0.4176 -0.7010 -0.6605
  171MOL0     N22457   4.159   4.198   6.738 -0.7849  0.0373 -0.2675
  171MOL0     C22458   4.041   4.238   6.675 -1.2927 -0.3212 -0.2690
  171MOL0     C22459   3.946   4.191   6.754  0.3824 -0.2464 -0.1013
  171MOL0     C22460   3.804   4.205   6.731  1.0447 -1.0986  0.1642
  171MOL0     C22461   3.730   4.203   6.874 -0.2154  0.6390  0.5426
  171MOL0     C22462   3.577   4.235   6.867 -0.7043  0.7100 -0.3538
  171MOL0     C22463   3.516   4.182   6.734 -0.2250  0.0784 -0.9490
  171MOL0     O22464   3.510   4.279   6.631 -0.4381 -0.0935 -0.2603
  171MOL0     C22465   3.402   4.267   6.540 -0.5509 -1.1213  0.7391
  171MOL0     C22466   3.436   4.249   6.403  0.9277 -1.1117 -1.2569
  171MOL0     C22467   3.325   4.233   6.316  0.5072  0.1289  0.4299
  171MOL0     C22468   3.191   4.246   6.364  0.4047  0.0202  0.7970
  171MOL0     C22469   3.088   4.242   6.261  0.7441  0.4197  0.1353
  171MOL0     O22470   3.107   4.298   6.139 -0.3277  0.5514 -0.9357
  171MOL0     C22471   3.041   4.250   6.025 -0.2053 -0.7477  0.5136
  171MOL0     C22472   3.036   4.115   5.986 -0.4169 -0.4947 -0.3197
  171MOL0     C22473   2.968   4.076   5.876  0.1251  0.7384  0.7592
  171MOL0     C22474   2.920   4.161   5.777 -0.4866  0.0534  0.1318
  171MOL0     O22475   2.869   4.110   5.657 -0.0043  0.0502 -0.6056
  171MOL0     C22476   2.894   4.190   5.544 -0.3116 -0.9392 -0.5414
  171MOL0     C22477   2.812   4.143   5.438  0.6045  0.2693 -0.3110
  171MOL0     C22478   2.834   4.005   5.377  0.6735 -0.3759  0.0054
  171MOL0     C22479   2.972   3.981   5.317  0.4003  0.8746  0.3533
  171MOL0     C22480   3.014   4.077   5.195  0.3232 -0.7017 -0.3496
  171MOL0     C22481   3.155   4.066   5.135 -0.3659  0.4638 -0.2468
  171MOL0     C22482   3.251   4.025   5.246  0.4117 -0.2142 -0.2899
  171MOL0     C22483   3.401   4.063   5.213  0.3834  0.1111 -0.3630
  171MOL0    Cl22484   3.460   3.994   5.065  0.3698  0.4538 -0.4387
  171MOL0     C22485   2.938   4.300   5.807 -0.3918 -0.5340  0.3099
  171MOL0     C22486   2.997   4.344   5.929  0.1892 -0.1710  0.2722
  171MOL0     O22487   2.993   4.166   6.289 -0.7518  0.4391  0.2109
  171MOL0     C22488   3.169   4.257   6.500 -0.1811  0.1823 -0.2320
  171MOL0     C22489   3.275   4.276   6.585 -0.2820  0.1724  0.0228
  171MOL0     N22490   3.998   4.110   6.861 -0.3138  0.2300 -0.6703
  171MOL0     N22491   4.126   4.122   6.850  0.3822 -0.3693  0.4811
  171MOL0     C22492   4.743   4.389   7.457 -0.8934 -0.0877  0.1424
  171MOL0     C22493   4.833   4.405   7.566  0.3525  0.7254  0.5936
  171MOL0     C22494   4.956   4.327   8.036  0.1214  0.2217 -0.3349
  171MOL0     C22495   5.054   4.246   7.991 -0.3007 -0.3698 -1.0931
  171MOL0     C22496   5.131   4.171   8.084 -1.5895 -0.4598 -1.3233
  171MOL0     C22497   5.124   4.198   8.224 -0.1475 -0.3782  0.8972
  171MOL0     O22498   5.197   4.122   8.322 -0.2132 -0.5539 -0.4054
  171MOL0     C22499   5.223   3.978   8.286  0.0070 -0.6880  1.2358
  171MOL0     C22500   5.236   3.886   8.409  0.3699 -0.3809  0.6451
  171MOL0     C22501   5.094   3.842   8.463  0.2540  0.2312  0.0413
  171MOL0     C22502   5.023   3.949   8.543  0.3555  0.3195  0.5488
  171MOL0     C22503   4.906   3.885   8.607  0.0689 -0.0184 -0.0810
  171MOL0     C22504   4.809   3.837   8.657  0.0244  0.5233 -0.4933
  171MOL0     C22505   5.039   4.301   8.273  0.4272 -0.1102 -0.1889
  171MOL0     C22506   4.955   4.365   8.174  0.2376  0.3953 -0.6221
  171MOL0     H22507   4.612   4.344   7.811  0.9777  1.8028 -0.2584
  171MOL0     H22508   4.452   4.365   7.619  0.7718  1.1843 -0.6325
  171MOL0     H22509   4.603   4.446   7.237  0.3452 -1.0762  2.1297
  171MOL0     H22510   4.432   4.411   7.209 -0.3972  2.0992  2.1344
  171MOL0     H22511   4.515   4.160   7.189 -0.1753  0.5251  1.0874
  171MOL0     H22512   4.664   4.210   7.242  0.1798 -1.6046  0.1410
  171MOL0     H22513   4.701   4.362   7.030  3.5779 -2.2971  0.4080
  171MOL0     H22514   4.536   4.336   7.002 -0.7709  0.1279  0.5128
  171MOL0     H22515   4.701   4.188   6.849  0.4976  0.3650  0.3865
  171MOL0     H22516   4.751   4.110   7.005  0.8742  2.3467  2.4125
  171MOL0     H22517   4.549   4.008   7.037 -1.2073 -2.4977 -1.3308
  171MOL0     H22518   4.592   3.970   6.880  1.8539  0.8238 -0.6792
  171MOL0     H22519   4.350   4.115   6.971 -0.5374 -0.4721 -0.0251
  171MOL0     H22520   4.387   3.986   6.845  0.6294 -1.3015  2.3584
  171MOL0     H22521   4.435   4.290   6.820  0.9728 -0.7425  2.0063
  171MOL0     H22522   4.506   4.170   6.721  1.4382 -0.1092  1.2379
  171MOL0     H22523   4.312   4.109   6.607 -0.5465 -2.7219  1.4527
  171MOL0     H22524   4.308   4.289   6.636  1.2627 -0.6261  0.0566
  171MOL0     H22525   4.042   4.281   6.575  1.3729 -0.9720 -0.6173
  171MOL0     H22526   3.775   4.125   6.663 -3.9596  0.4991  0.0066
  171MOL0     H22527   3.799   4.302   6.681  1.0715 -1.3673 -0.3603
  171MOL0     H22528   3.769   4.282   6.939  2.6941 -0.9878  0.9559
  171MOL0     H22529   3.735   4.110   6.932 -2.2948  0.9393  1.3091
  171MOL0     H22530   3.529   4.177   6.947  2.6908  0.1529  1.4733
  171MOL0     H22531   3.560   4.342   6.887  1.0572  1.5997 -3.0319
  171MOL0     H22532   3.415   4.156   6.768  0.6317 -0.0472  1.7350
  171MOL0     H22533   3.568   4.101   6.683  1.0095  1.1938 -1.5286
  171MOL0     H22534   3.530   4.251   6.350  0.2247 -3.0228 -2.7012
  171MOL0     H22535   3.336   4.245   6.209 -0.9114 -0.6806  0.1655
  171MOL0     H22536   3.085   4.046   6.054 -0.6357 -1.0207 -0.6929
  171MOL0     H22537   2.976   3.970   5.853  1.7999  1.3280 -1.9000
  171MOL0     H22538   3.001   4.177   5.525  0.2134 -0.3631  1.7208
  171MOL0     H22539   2.873   4.297   5.555  1.5386 -0.6571  0.7051
  171MOL0     H22540   2.827   4.207   5.351  1.5890  1.1782  0.4962
  171MOL0     H22541   2.716   4.150   5.489  0.7856  1.2304 -0.0759
  171MOL0     H22542   2.758   3.986   5.302 -0.2261  1.2891  0.4595
  171MOL0     H22543   2.820   3.922   5.447  0.7307 -0.2447  0.1729
  171MOL0     H22544   3.047   3.973   5.396  0.6249  1.6312  0.2250
  171MOL0     H22545   2.950   3.882   5.276  3.1381  1.1978 -2.2835
  171MOL0     H22546   3.014   4.176   5.241 -1.8438 -1.6813  2.0584
  171MOL0     H22547   2.936   4.069   5.119  1.4803 -0.9099 -1.5475
  171MOL0     H22548   3.187   4.153   5.076  1.3136 -0.9793 -1.5531
  171MOL0     H22549   3.155   3.978   5.070  2.0197  1.4311 -1.6949
  171MOL0     H22550   3.218   4.064   5.343  1.7281 -4.6327  2.2091
  171MOL0     H22551   3.247   3.917   5.260  1.2436  0.0745  3.2281
  171MOL0     H22552   3.462   4.058   5.304  0.7563 -1.1184 -0.6662
  171MOL0     H22553   3.399   4.172   5.200 -1.7419  0.7999  3.9901
  171MOL0     H22554   2.893   4.373   5.741 -0.4611 -0.3851  0.5211
  171MOL0     H22555   3.006   4.451   5.942  1.7343 -0.1363 -0.8155
  171MOL0     H22556   3.072   4.258   6.549  1.2656 -3.1822  3.2309
  171MOL0     H22557   3.258   4.297   6.690 -0.9610  2.0923 -0.4143
  171MOL0     H22558   4.781   4.388   7.356  0.1266 -0.7116  0.5136
  171MOL0     H22559   4.936   4.434   7.546 -0.0555  2.6364  1.0618
  171MOL0     H22560   5.068   4.229   7.884  3.1968 -0.5598 -0.7105
  171MOL0     H22561   5.192   4.092   8.039 -2.3344 -1.3959 -0.7400
  171MOL0     H22562   5.324   3.988   8.245 -1.4060 -0.8693 -2.6469
  171MOL0     H22563   5.163   3.947   8.201  0.3461  1.3244  0.1870
  171MOL0     H22564   5.296   3.796   8.392  0.6169  0.0336 -0.8176
  171MOL0     H22565   5.290   3.944   8.485 -3.1519  0.6598  2.5392
  171MOL0     H22566   5.104   3.752   8.524  1.0781 -0.3364 -0.9038
  171MOL0     H22567   5.026   3.814   8.383  1.0555 -1.2428 -0.1608
  171MOL0     H22568   5.090   3.988   8.620 -0.7079 -1.1064  2.2748
  171MOL0     H22569   4.974   4.028   8.486  1.0775  0.6644  0.3916
  171MOL0     H22570   4.729   3.778   8.697  1.6482 -0.8852  0.8677
  171MOL0     H22571   5.029   4.333   8.377  0.2380 -0.6097 -0.0527
  171MOL0     H22572   4.891   4.442   8.216 -2.2045 -1.9247  0.1734
  172MOL0     O22573   0.066   4.772   5.052  0.5595  0.6090 -0.4136
  172MOL0     C22574   0.062   4.769   4.930  0.1203  0.7895  0.7945
  172MOL0     O22575   0.012   4.657   4.857 -0.2836  0.1847  0.1498
  172MOL0     C22576  -0.043   4.549   4.916  0.0600  1.3179 -0.1464
  172MOL0     C22577  -0.082   4.520   5.051 -0.0744  0.9230  0.0371
  172MOL0     C22578  -0.141   4.397   5.079 -1.1556 -0.2251  0.6337
  172MOL0     C22579  -0.144   4.285   4.993  0.0496  0.6329  0.7527
  172MOL0     O22580  -0.197   4.162   5.019 -0.2437 -0.3841 -0.3394
  172MOL0     C22581  -0.186   4.095   5.149 -0.6098  0.2216 -0.2830
  172MOL0     C22582  -0.278   3.973   5.162  1.2549 -0.5432 -0.1145
  172MOL0     C22583  -0.424   4.012   5.165  0.0629 -0.2782  0.4257
  172MOL0     C22584  -0.511   3.892   5.169  0.3726  0.5076 -0.5210
  172MOL0     C22585  -0.665   3.917   5.174  0.2012  0.5193  0.0864
  172MOL0     C22586  -0.747   3.792   5.147  1.0421 -0.3845 -0.0992
  172MOL0     C22587  -0.901   3.805   5.168 -0.6695 -0.1752 -0.3457
  172MOL0     C22588  -0.979   3.924   5.107 -0.0678  0.5698 -0.2035
  172MOL0     N22589  -0.969   3.930   4.960 -0.1610 -0.4778 -0.8005
  172MOL0     C22590  -0.910   4.034   4.894  0.1859  0.8451 -0.4211
  172MOL0     C22591  -0.937   4.024   4.761 -0.5111  0.1951  0.2477
  172MOL0     C22592  -0.877   4.090   4.637  0.8202 -0.9971 -0.3900
  172MOL0     C22593  -0.855   4.002   4.517  0.2345  0.5294  0.2164
  172MOL0     C22594  -0.793   4.093   4.407  0.4016 -1.0680 -0.2169
  172MOL0     C22595  -0.710   4.011   4.306  0.2830  0.5243 -0.8251
  172MOL0     O22596  -0.642   4.109   4.227  0.1780  0.4484  0.4750
  172MOL0     C22597  -0.532   4.068   4.149 -0.2498  0.0364  0.1566
  172MOL0     C22598  -0.403   4.051   4.196 -0.8158 -0.1129  0.1153
  172MOL0     C22599  -0.301   4.027   4.109 -0.9163  0.8937 -0.1250
  172MOL0     C22600  -0.328   4.013   3.966  0.3594 -0.1265 -0.3679
  172MOL0     C22601  -0.220   4.003   3.867  0.0763 -0.1391  0.2937
  172MOL0     O22602  -0.263   3.958   3.740 -0.4944 -0.2332  0.5411
  172MOL0     C22603  -0.166   3.931   3.650 -0.8602  0.3229  0.4892
  172MOL0     C22604  -0.122   3.798   3.630 -0.1528  0.1976  1.0872
  172MOL0     C22605  -0.032   3.768   3.530 -0.5944 -0.1773 -0.5685
  172MOL0     C22606   0.039   3.868   3.457  0.1383  0.1958  0.4172
  172MOL0     O22607   0.141   3.829   3.386  0.6867 -0.1143  0.0919
  172MOL0     C22608   0.212   3.915   3.289  0.5087  0.1995 -0.6273
  172MOL0     C22609   0.329   3.840   3.213 -0.2042  0.0811  0.7471
  172MOL0     C22610   0.428   3.939   3.159  0.0587 -0.1690 -0.2246
  172MOL0     C22611   0.564   3.884   3.115  0.5056 -0.4413 -0.1039
  172MOL0     C22612   0.542   3.800   2.985  0.6300  0.2915  0.0447
  172MOL0     C22613   0.684   3.771   2.918 -0.6970  0.1405  0.5579
  172MOL0     C22614   0.652   3.720   2.771 -0.1651 -0.6014  0.8219
  172MOL0     C22615   0.774   3.688   2.695 -0.7826 -0.7413  0.2379
  172MOL0    Cl22616   0.826   3.526   2.742  0.1244  0.5155 -0.5008
  172MOL0     C22617  -0.011   3.996   3.479  0.9170  0.0442 -0.2344
  172MOL0     C22618  -0.113   4.028   3.575 -0.6094 -1.0500 -0.7145
  172MOL0     O22619  -0.107   4.018   3.908 -0.1308 -0.4101 -0.6369
  172MOL0     C22620  -0.462   4.015   3.924  0.5918 -1.0818 -1.1226
  172MOL0     C22621  -0.556   4.062   4.018 -0.2426 -0.3783  0.4339
  172MOL0     N22622  -1.018   3.909   4.741  0.3220 -0.8578 -0.6811
  172MOL0     N22623  -1.051   3.869   4.866 -0.1979  0.0409  0.0695
  172MOL0     C22624  -0.117   4.321   4.863 -0.3282  0.5959  0.2145
  172MOL0     C22625  -0.064   4.440   4.827  0.8748  0.0859 -0.7856
  172MOL0     C22626   0.116   4.883   4.857 -0.6741  0.2958  0.3086
  172MOL0     C22627   0.079   4.893   4.717 -0.1941 -0.0030  0.2331
  172MOL0     C22628   0.126   5.006   4.644 -0.0918 -0.6185  0.3799
  172MOL0     C22629   0.202   5.104   4.712  1.3940  0.7127  0.6175
  172MOL0     O22630   0.243   5.218   4.647  0.1317  0.4034 -0.1630
  172MOL0     C22631   0.136   5.314   4.628 -0.8849 -1.7271 -0.0513
  172MOL0     C22632   0.151   5.419   4.521  0.3002 -0.6523 -0.2966
  172MOL0     C22633   0.166   5.339   4.397 -0.5826  0.3426 -0.4500
  172MOL0     C22634   0.160   5.428   4.268 -0.5195  0.2515  0.1239
  172MOL0     C22635   0.184   5.336   4.149 -0.3769  0.6724 -0.6020
  172MOL0     C22636   0.181   5.255   4.057 -0.2459  0.1843  0.7203
  172MOL0     C22637   0.236   5.087   4.846 -0.7590  0.5762  0.0858
  172MOL0     C22638   0.198   4.975   4.919  0.0979  0.5934 -0.2854
  172MOL0     H22639  -0.078   4.597   5.127  2.9568 -0.0144  0.9361
  172MOL0     H22640  -0.166   4.391   5.184  0.8880  2.2542  1.3606
  172MOL0     H22641  -0.203   4.168   5.228 -0.1071 -0.9028  0.9018
  172MOL0     H22642  -0.083   4.058   5.151 -0.2862  1.1534  0.8106
  172MOL0     H22643  -0.248   3.908   5.245  1.9160 -0.3533 -0.2012
  172MOL0     H22644  -0.268   3.914   5.070 -3.7707  0.7443 -1.8267
  172MOL0     H22645  -0.452   4.078   5.083 -1.0984  0.6245  1.5202
  172MOL0     H22646  -0.446   4.067   5.257  1.3760 -1.5618  1.5645
  172MOL0     H22647  -0.484   3.820   5.091  2.9284  1.6145 -0.7288
  172MOL0     H22648  -0.491   3.841   5.264  1.5006  0.5306 -0.7390
  172MOL0     H22649  -0.699   3.995   5.104 -2.2016 -2.0393 -1.8399
  172MOL0     H22650  -0.687   3.954   5.274  0.6464  0.3264  0.2567
  172MOL0     H22651  -0.696   3.706   5.190  3.5365  0.5429 -1.0409
  172MOL0     H22652  -0.748   3.770   5.039 -1.6337  0.1072 -0.2488
  172MOL0     H22653  -0.952   3.716   5.129 -3.5763  1.2777 -0.1367
  172MOL0     H22654  -0.922   3.808   5.275  1.1148 -1.1885  0.0691
  172MOL0     H22655  -0.966   4.013   5.169  1.5002 -0.4103  0.9637
  172MOL0     H22656  -1.084   3.894   5.109  1.2881 -5.3471  0.9875
  172MOL0     H22657  -0.864   4.114   4.951  0.0639  0.8121 -0.2773
  172MOL0     H22658  -0.783   4.137   4.667 -0.1463 -0.3683  1.7879
  172MOL0     H22659  -0.942   4.172   4.603  3.4770  0.5281 -2.1896
  172MOL0     H22660  -0.947   3.959   4.475 -0.6347  1.4527  1.1234
  172MOL0     H22661  -0.777   3.929   4.538  0.5254  0.9074  0.4628
  172MOL0     H22662  -0.859   4.164   4.356  2.9187  0.2062 -1.9531
  172MOL0     H22663  -0.724   4.162   4.455 -1.2632  0.0504  0.6529
  172MOL0     H22664  -0.780   3.955   4.243 -6.3798  4.8140  1.6371
  172MOL0     H22665  -0.646   3.933   4.347  0.5508  1.3293  0.3403
  172MOL0     H22666  -0.386   4.063   4.303  1.6738 -2.7516  0.1367
  172MOL0     H22667  -0.198   4.016   4.142 -0.2147 -0.5054 -2.5715
  172MOL0     H22668  -0.169   3.716   3.685 -1.9866 -1.1640 -2.2186
  172MOL0     H22669   0.001   3.665   3.521  2.5780  0.6744 -0.1735
  172MOL0     H22670   0.260   3.996   3.345 -0.4439  1.5823 -1.7316
  172MOL0     H22671   0.140   3.951   3.215 -1.4547  0.8895  1.4599
  172MOL0     H22672   0.287   3.772   3.139  0.0331  0.6794  0.0509
  172MOL0     H22673   0.377   3.791   3.298  1.6042 -1.2638 -0.9926
  172MOL0     H22674   0.448   4.021   3.228  1.3514 -0.0562 -0.6988
  172MOL0     H22675   0.367   3.986   3.081 -5.3678 -2.7214  1.9894
  172MOL0     H22676   0.627   3.971   3.098  3.6732 -1.3256  4.8615
  172MOL0     H22677   0.605   3.830   3.201  0.1498 -0.9120 -0.2230
  172MOL0     H22678   0.485   3.855   2.911  1.7096  1.9486  0.4013
  172MOL0     H22679   0.485   3.711   3.016 -0.2872  1.3710  1.5872
  172MOL0     H22680   0.733   3.694   2.978 -1.3159 -0.6722  0.0483
  172MOL0     H22681   0.750   3.858   2.917  4.2634 -3.1777  1.9607
  172MOL0     H22682   0.588   3.632   2.784 -1.4890  0.3576  0.9781
  172MOL0     H22683   0.592   3.801   2.730  0.1966 -0.6441  0.1967
  172MOL0     H22684   0.854   3.762   2.699 -1.4835  0.0110  0.4984
  172MOL0     H22685   0.757   3.683   2.587  0.9549 -0.4193 -0.0857
  172MOL0     H22686   0.032   4.081   3.427 -2.2413  1.1426 -1.3213
  172MOL0     H22687  -0.136   4.133   3.588  0.3937 -0.8471 -0.5051
  172MOL0     H22688  -0.496   4.021   3.821 -1.6297  1.9034 -0.3789
  172MOL0     H22689  -0.658   4.085   3.990 -0.8324 -0.7797  2.1343
  172MOL0     H22690  -0.139   4.252   4.781 -1.1908 -1.2075  1.8717
  172MOL0     H22691  -0.025   4.446   4.726  2.5627 -2.4872 -0.3928
  172MOL0     H22692   0.007   4.835   4.661 -0.2401  1.4298 -1.2597
  172MOL0     H22693   0.103   5.018   4.539  3.5652  0.6652 -0.4398
  172MOL0     H22694   0.134   5.371   4.722  1.9446  0.6502 -1.2738
  172MOL0     H22695   0.037   5.267   4.626 -0.8429 -1.7741 -1.6449
  172MOL0     H22696   0.059   5.478   4.517 -0.3883 -1.5580  1.3309
  172MOL0     H22697   0.235   5.488   4.531 -0.0263 -0.3102  0.1093
  172MOL0     H22698   0.095   5.256   4.386 -3.5476  2.9562 -3.7696
  172MOL0     H22699   0.268   5.300   4.391 -1.1362 -0.9341 -3.1308
  172MOL0     H22700   0.056   5.464   4.267 -0.5919  0.3225  2.9112
  172MOL0     H22701   0.229   5.512   4.280 -0.4911  0.4877 -1.4720
  172MOL0     H22702   0.189   5.183   3.978  2.7036  0.1548  0.9488
  172MOL0     H22703   0.308   5.154   4.893 -0.6401  4.1030 -4.4034
  172MOL0     H22704   0.225   4.954   5.022 -1.8968 -0.6019  0.0386
  173MOL0     O22705  11.242   4.083   2.479 -0.0982  0.5428  0.2989
  173MOL0     C22706  11.179   3.988   2.518  0.5804  0.5722  0.3099
  173MOL0     O22707  11.137   3.889   2.427 -0.6772  0.9540 -0.3072
  173MOL0     C22708  11.177   3.906   2.295 -0.3240  0.4618  0.0187
  173MOL0     C22709  11.081   3.941   2.201 -1.3480  0.2768 -0.1211
  173MOL0     C22710  11.119   3.961   2.066 -0.7505  0.2650 -0.0950
  173MOL0     C22711  11.257   3.960   2.025  1.1521  1.4196  0.8528
  173MOL0     O22712  11.294   3.987   1.902 -0.5815  0.5576 -0.3977
  173MOL0     C22713  11.418   3.935   1.843  1.0228  0.9040 -0.8137
  173MOL0     C22714  11.428   3.945   1.692 -0.2783  0.6104  0.7541
  173MOL0     C22715  11.557   3.901   1.630 -0.4386  0.1743 -0.3116
  173MOL0     C22716  11.553   3.900   1.477 -0.0222 -0.4578 -0.2047
  173MOL0     C22717  11.678   3.843   1.412  0.3256  0.8556 -0.3272
  173MOL0     C22718  11.658   3.819   1.255  0.0281 -0.6937 -0.2012
  173MOL0     C22719  11.791   3.792   1.191 -0.2328 -0.2510  0.8329
  173MOL0     C22720  11.771   3.781   1.034 -0.0402  0.6646 -0.1659
  173MOL0     N22721  11.692   3.664   0.990  0.1041 -0.4667  0.2381
  173MOL0     C22722  11.564   3.684   0.932 -0.5119  0.4032  0.2899
  173MOL0     C22723  11.527   3.558   0.912  0.2315  0.1839  0.6279
  173MOL0     C22724  11.391   3.518   0.860  0.2345 -0.6574  0.0408
  173MOL0     C22725  11.350   3.573   0.721  0.8848  0.6674  0.7823
  173MOL0     C22726  11.204   3.540   0.666 -0.1950 -0.1067 -1.2247
  173MOL0     C22727  11.157   3.391   0.672 -0.3142  0.0471 -0.7429
  173MOL0     O22728  11.037   3.404   0.601 -0.3090  0.8832 -0.5278
  173MOL0     C22729  10.979   3.288   0.556 -0.2364  0.0822 -0.2215
  173MOL0     C22730  11.000   3.155   0.604 -0.5730  0.0000 -1.1096
  173MOL0     C22731  10.931   3.054   0.533  0.0298  0.3214  0.4373
  173MOL0     C22732  10.841   3.080   0.422  0.0379  0.3254  0.3062
  173MOL0     C22733  10.773   2.968   0.344  1.1389 -0.0965 -0.5522
  173MOL0     O22734  10.663   3.009   0.269 -0.5546 -0.1552 -0.0434
  173MOL0     C22735  10.585   2.920   0.217  0.7878  0.2016 -1.1367
  173MOL0     C22736  10.466   2.882   0.287  0.7407  0.8424  0.1853
  173MOL0     C22737  10.398   2.768   0.243  0.4127  0.4370  0.3732
  173MOL0     C22738  10.438   2.690   0.128  0.5437 -0.3523 -0.6242
  173MOL0     O22739  10.369   2.574   0.110 -0.2448  0.3704  0.2859
  173MOL0     C22740  10.433   2.474   0.018 -0.2065  0.1819  0.1666
  173MOL0     C22741  10.340   2.357   0.015 -0.0138  0.9304 -0.1579
  173MOL0     C22742  10.305   2.274  -0.119  0.3698  0.2332  0.5847
  173MOL0     C22743  10.422   2.184  -0.167 -0.4485 -0.1518 -0.4234
  173MOL0     C22744  10.380   2.132  -0.311 -0.6591  1.0694 -0.3957
  173MOL0     C22745  10.468   2.021  -0.367  0.8380 -0.0129 -0.2753
  173MOL0     C22746  10.601   2.083  -0.415  0.5015  0.4963 -0.0404
  173MOL0     C22747  10.697   1.972  -0.457 -0.2178 -1.4231  0.7367
  173MOL0    Cl22748  10.617   1.863  -0.582 -0.1314  0.5350 -0.1403
  173MOL0     C22749  10.550   2.732   0.061  0.2580  0.0611  0.2586
  173MOL0     C22750  10.614   2.848   0.098 -0.8107  0.1338  0.0880
  173MOL0     O22751  10.809   2.849   0.354  0.5512  0.2648 -0.2859
  173MOL0     C22752  10.816   3.214   0.383 -0.5709  0.6918 -0.4402
  173MOL0     C22753  10.895   3.316   0.441 -0.5522  0.9097 -0.4438
  173MOL0     N22754  11.619   3.466   0.970  0.3816  0.5537 -0.0507
  173MOL0     N22755  11.718   3.535   1.016  0.1963  0.3765 -0.4028
  173MOL0     C22756  11.346   3.934   2.125  0.0517  0.3643  0.0401
  173MOL0     C22757  11.306   3.895   2.254 -0.0004 -0.8235 -1.0606
  173MOL0     C22758  11.149   3.976   2.662 -1.2275  0.0417 -0.2312
  173MOL0     C22759  11.142   4.091   2.740  0.1928  0.2365 -0.1506
  173MOL0     C22760  11.141   4.082   2.872 -0.1278 -0.5970 -0.6979
  173MOL0     C22761  11.154   3.967   2.947  0.4616  1.0257 -1.5305
  173MOL0     O22762  11.174   3.970   3.079 -0.3202  0.5047  0.6256
  173MOL0     C22763  11.121   3.857   3.148  0.8359  0.5711 -0.2930
  173MOL0     C22764  11.070   3.886   3.292  0.1190  0.5861  0.5444
  173MOL0     C22765  10.955   3.993   3.283 -0.4165  0.3794 -0.5316
  173MOL0     C22766  10.906   4.040   3.414  0.1762  0.2578 -0.2955
  173MOL0     C22767  11.004   4.129   3.471  0.3445 -0.6935 -0.2623
  173MOL0     C22768  11.080   4.199   3.533  0.6754  0.2511 -1.0737
  173MOL0     C22769  11.152   3.850   2.868 -0.9189 -0.6640  0.3613
  173MOL0     C22770  11.160   3.855   2.726  0.9295  0.0272 -0.2665
  173MOL0     H22771  10.978   3.942   2.236 -0.8167  0.1050  1.5821
  173MOL0     H22772  11.050   3.974   1.983  0.3765  1.4975 -0.8614
  173MOL0     H22773  11.428   3.831   1.874  2.1026  1.3846  0.5269
  173MOL0     H22774  11.502   3.984   1.892  2.3907 -1.3688 -0.7308
  173MOL0     H22775  11.407   4.051   1.673  0.4751  0.7568  0.6955
  173MOL0     H22776  11.349   3.887   1.644 -1.9457  4.0063 -0.9671
  173MOL0     H22777  11.572   3.797   1.660 -1.6236  0.0162 -0.2143
  173MOL0     H22778  11.639   3.965   1.662 -0.4887  1.1151 -1.9925
  173MOL0     H22779  11.468   3.834   1.456 -1.3351 -0.2461  3.6628
  173MOL0     H22780  11.524   4.000   1.442 -2.5230 -0.6305  1.1235
  173MOL0     H22781  11.706   3.753   1.466 -0.3645  2.0612  2.1786
  173MOL0     H22782  11.760   3.914   1.429  0.7569  1.2074 -3.2413
  173MOL0     H22783  11.607   3.901   1.204  3.4108  0.9498 -1.2831
  173MOL0     H22784  11.594   3.732   1.238 -2.5853  1.0806 -0.0124
  173MOL0     H22785  11.860   3.873   1.215 -0.6177  0.4636 -0.3892
  173MOL0     H22786  11.847   3.704   1.224  2.1383  1.6492  2.1960
  173MOL0     H22787  11.874   3.767   1.000  1.2581  5.0490  1.2573
  173MOL0     H22788  11.725   3.871   0.993 -0.1459  0.0320 -1.4985
  173MOL0     H22789  11.510   3.772   0.902 -0.5595  0.5228  0.7197
  173MOL0     H22790  11.314   3.553   0.930  0.8384 -0.7937  0.7881
  173MOL0     H22791  11.384   3.409   0.859 -2.0421 -0.6262  1.9283
  173MOL0     H22792  11.415   3.530   0.644  0.2047 -0.5210  0.8463
  173MOL0     H22793  11.348   3.682   0.714 -2.7740  0.8633  2.6429
  173MOL0     H22794  11.128   3.594   0.724  0.1762  0.3158 -1.1269
  173MOL0     H22795  11.198   3.573   0.562 -0.6568  1.2868 -0.7802
  173MOL0     H22796  11.145   3.368   0.779  0.0330  0.0612 -0.6992
  173MOL0     H22797  11.219   3.312   0.628 -2.0302 -0.6005 -2.1150
  173MOL0     H22798  11.060   3.128   0.690 -0.2022  0.5818 -1.1826
  173MOL0     H22799  10.966   2.952   0.550  1.7523  1.0960  1.7411
  173MOL0     H22800  10.423   2.926   0.377 -1.4099 -0.9879  0.1290
  173MOL0     H22801  10.309   2.739   0.298  0.3454 -0.9085 -0.4058
  173MOL0     H22802  10.532   2.453   0.062 -0.4292  0.6106  0.8779
  173MOL0     H22803  10.441   2.537  -0.071 -0.1267  2.8281  1.9644
  173MOL0     H22804  10.245   2.384   0.062  0.5582  2.4102  0.2123
  173MOL0     H22805  10.384   2.287   0.086  0.1868  2.1421  0.9400
  173MOL0     H22806  10.272   2.339  -0.200  4.2688 -0.0447 -1.4481
  173MOL0     H22807  10.230   2.202  -0.086 -0.5856 -0.5811 -2.9433
  173MOL0     H22808  10.517   2.237  -0.165 -1.1394  1.1282  1.4040
  173MOL0     H22809  10.436   2.101  -0.097 -0.2594 -0.2612 -0.5902
  173MOL0     H22810  10.387   2.226  -0.368  3.1650  0.9342 -0.3903
  173MOL0     H22811  10.278   2.096  -0.329 -0.8617  1.2472  0.3793
  173MOL0     H22812  10.405   1.988  -0.450 -0.4612  0.3409  0.5315
  173MOL0     H22813  10.485   1.941  -0.295 -0.8876  1.1402  1.5270
  173MOL0     H22814  10.584   2.143  -0.505 -0.0727  0.5120  0.0693
  173MOL0     H22815  10.646   2.140  -0.334 -2.0480  0.2843  1.6426
  173MOL0     H22816  10.727   1.922  -0.365  1.9264 -1.0152  0.2989
  173MOL0     H22817  10.789   2.010  -0.502 -1.1222 -1.9653 -1.7382
  173MOL0     H22818  10.584   2.668  -0.020 -1.4299 -4.1191  2.5058
  173MOL0     H22819  10.697   2.884   0.038  0.4311 -1.6978  0.6209
  173MOL0     H22820  10.746   3.250   0.308  0.9461  0.6985 -1.9168
  173MOL0     H22821  10.885   3.418   0.406  2.9625  1.2499 -0.8271
  173MOL0     H22822  11.454   3.937   2.113  0.0293  1.6108  0.0595
  173MOL0     H22823  11.371   3.882   2.340 -2.2248  3.4421  1.6174
  173MOL0     H22824  11.147   4.185   2.686  0.8528  0.3580  0.1063
  173MOL0     H22825  11.147   4.180   2.919  3.9129  0.4381 -2.8541
  173MOL0     H22826  11.195   3.776   3.157  2.8104  2.5321  4.1503
  173MOL0     H22827  11.023   3.837   3.103  1.1665  1.6692 -1.5591
  173MOL0     H22828  11.040   3.796   3.346  4.6291 -2.3883 -1.2793
  173MOL0     H22829  11.154   3.913   3.355 -0.9992 -1.8242  3.2868
  173MOL0     H22830  10.866   3.952   3.234 -0.5998  1.0196 -0.7402
  173MOL0     H22831  11.002   4.079   3.234  1.2251 -0.8089 -1.1560
  173MOL0     H22832  10.818   4.104   3.402  0.4196  0.9304  1.2401
  173MOL0     H22833  10.879   3.958   3.481 -3.4020  0.1520 -1.6701
  173MOL0     H22834  11.147   4.266   3.583  0.3105  0.9828 -1.5515
  173MOL0     H22835  11.146   3.749   2.908 -1.6322 -0.2875  1.2392
  173MOL0     H22836  11.186   3.766   2.668  4.4539 -1.6201  3.3183
  174MOL0     O22837   8.973   4.561   7.203 -0.5622  0.3014  0.0333
  174MOL0     C22838   8.994   4.577   7.083  0.4641 -0.1444  0.5354
  174MOL0     O22839   8.985   4.700   7.018 -0.2714 -0.5355 -0.2630
  174MOL0     C22840   8.891   4.784   7.073 -1.0549  0.5610  1.0685
  174MOL0     C22841   8.930   4.915   7.089 -0.2965 -0.3952 -0.8836
  174MOL0     C22842   8.848   4.994   7.159  0.1137  0.1297  1.3506
  174MOL0     C22843   8.716   4.956   7.191 -0.2066  0.2759 -0.5279
  174MOL0     O22844   8.628   5.030   7.271  0.3295 -0.3742 -0.0398
  174MOL0     C22845   8.657   5.146   7.352  0.0229  0.4342  0.3679
  174MOL0     C22846   8.633   5.275   7.266  0.2368  0.2386  0.4408
  174MOL0     C22847   8.489   5.310   7.254  0.3287  0.3351 -0.0865
  174MOL0     C22848   8.422   5.353   7.383 -0.6743  0.6100  0.6823
  174MOL0     C22849   8.270   5.378   7.369 -0.6717 -0.6779 -1.4704
  174MOL0     C22850   8.199   5.428   7.510 -0.6019  0.9256  0.0969
  174MOL0     C22851   8.049   5.404   7.497 -0.0416  0.8372 -0.4205
  174MOL0     C22852   8.007   5.459   7.633  0.6890 -0.1088  0.6188
  174MOL0     N22853   7.859   5.478   7.641  0.5565  1.4148 -0.1609
  174MOL0     C22854   7.764   5.377   7.646 -0.0871 -0.1698 -0.4699
  174MOL0     C22855   7.637   5.434   7.628 -0.1255  1.0397  1.2197
  174MOL0     C22856   7.497   5.371   7.614 -0.0815  0.6017  0.2404
  174MOL0     C22857   7.474   5.303   7.470  0.5087 -0.4609  1.0795
  174MOL0     C22858   7.322   5.326   7.433 -0.1036 -0.3280 -0.1607
  174MOL0     C22859   7.292   5.251   7.309  0.7133 -0.5893  0.3089
  174MOL0     O22860   7.171   5.314   7.258  0.2194 -0.9602  0.9680
  174MOL0     C22861   7.112   5.266   7.141 -0.1247 -0.3256 -0.8849
  174MOL0     C22862   6.993   5.322   7.100 -0.0344 -1.0596 -0.0821
  174MOL0     C22863   6.923   5.277   6.989  0.6962 -0.1116 -0.9564
  174MOL0     C22864   6.978   5.174   6.907 -0.7481 -0.0969 -0.7884
  174MOL0     C22865   6.909   5.135   6.781 -0.6859 -0.7251 -0.0647
  174MOL0     O22866   6.781   5.193   6.757 -0.6713 -0.1626  0.4151
  174MOL0     C22867   6.715   5.164   6.645  0.9221  0.9247  0.7807
  174MOL0     C22868   6.663   5.269   6.567 -0.4085  0.1935  0.8126
  174MOL0     C22869   6.574   5.234   6.462 -0.2951  0.0930  1.0129
  174MOL0     C22870   6.539   5.107   6.431 -1.2553  0.4253  0.7024
  174MOL0     O22871   6.449   5.076   6.332  0.6434 -0.8725 -0.0409
  174MOL0     C22872   6.415   5.182   6.222 -0.0990  0.0172 -0.8180
  174MOL0     C22873   6.366   5.087   6.119 -0.7392 -0.5598 -0.1163
  174MOL0     C22874   6.328   5.162   5.993 -0.2221  0.5667  0.1233
  174MOL0     C22875   6.276   5.067   5.891 -0.2061 -0.5882 -0.6161
  174MOL0     C22876   6.265   5.136   5.754 -0.9864  0.5715  0.3122
  174MOL0     C22877   6.399   5.161   5.674  0.2905 -0.5482  0.4234
  174MOL0     C22878   6.372   5.264   5.566 -0.1590  0.5956 -0.3616
  174MOL0     C22879   6.290   5.209   5.453  0.7865 -0.4095 -0.5494
  174MOL0    Cl22880   6.293   5.322   5.311 -0.2280  0.5699 -0.3365
  174MOL0     C22881   6.603   4.999   6.501 -0.2918 -0.0783 -0.2293
  174MOL0     C22882   6.679   5.026   6.606  0.6399  1.2572 -1.6513
  174MOL0     O22883   6.964   5.049   6.714  0.0950  0.5353  0.2960
  174MOL0     C22884   7.103   5.129   6.943 -0.2433 -0.2633  0.4419
  174MOL0     C22885   7.170   5.168   7.062  0.4350  0.2005  0.6306
  174MOL0     N22886   7.660   5.569   7.622 -0.3974 -0.0424 -0.1368
  174MOL0     N22887   7.788   5.597   7.625 -0.8438  0.8153  0.3469
  174MOL0     C22888   8.675   4.834   7.150 -0.2117  0.1666 -0.2020
  174MOL0     C22889   8.757   4.739   7.090 -0.4140 -0.8583  0.2350
  174MOL0     C22890   9.026   4.471   6.986 -1.3553 -0.3007 -0.1442
  174MOL0     C22891   9.029   4.494   6.848  0.9597  0.2400 -0.2769
  174MOL0     C22892   9.062   4.394   6.759  0.8496  0.6671  0.6406
  174MOL0     C22893   9.091   4.268   6.814  0.2791 -0.7393  0.0169
  174MOL0     O22894   9.103   4.163   6.727  0.2778 -0.7244 -0.1492
  174MOL0     C22895   9.118   4.030   6.777  0.2389 -0.1685 -1.1132
  174MOL0     C22896   9.154   3.922   6.670  0.4039 -0.5252 -1.3401
  174MOL0     C22897   9.146   3.788   6.740 -0.2861  0.0418 -0.3341
  174MOL0     C22898   9.202   3.671   6.667  0.1093  0.0261 -0.5755
  174MOL0     C22899   9.097   3.577   6.614  0.2493 -0.5773  0.6211
  174MOL0     C22900   9.028   3.489   6.571  0.9838 -0.8515  0.0744
  174MOL0     C22901   9.109   4.258   6.951  0.1535  0.9711 -0.1046
  174MOL0     C22902   9.072   4.353   7.035  0.4053  0.8581 -0.0350
  174MOL0     H22903   9.028   4.938   7.048  0.1309 -0.4899  0.0523
  174MOL0     H22904   8.893   5.090   7.184 -1.3866  1.4849 -0.8361
  174MOL0     H22905   8.765   5.142   7.372  0.5478  0.7045 -2.0722
  174MOL0     H22906   8.603   5.150   7.447  0.6919 -1.0837  0.8551
  174MOL0     H22907   8.681   5.264   7.169 -0.6466 -0.5221  0.0692
  174MOL0     H22908   8.676   5.356   7.325 -3.7287  2.6665  0.3361
  174MOL0     H22909   8.452   5.213   7.220  2.4847  0.1590 -2.2764
  174MOL0     H22910   8.480   5.393   7.182 -0.9361  0.7055  0.4800
  174MOL0     H22911   8.435   5.277   7.461 -1.4240 -1.2109 -0.9047
  174MOL0     H22912   8.469   5.444   7.421 -1.5482  0.8019  1.3522
  174MOL0     H22913   8.214   5.292   7.331 -1.7180 -1.1850  0.9893
  174MOL0     H22914   8.261   5.456   7.293 -2.2097  0.6694  0.0150
  174MOL0     H22915   8.215   5.536   7.514 -0.3332  0.8839  0.1705
  174MOL0     H22916   8.239   5.369   7.593 -2.9880  0.1197  0.7490
  174MOL0     H22917   8.002   5.471   7.424  0.9292  1.5424 -0.4074
  174MOL0     H22918   8.029   5.297   7.489  0.6862 -0.0225  5.1032
  174MOL0     H22919   8.051   5.558   7.643  1.0729 -0.3079  0.9541
  174MOL0     H22920   8.048   5.390   7.708  1.2450 -1.5045 -0.9178
  174MOL0     H22921   7.788   5.273   7.663 -0.3172 -0.1477  0.0157
  174MOL0     H22922   7.421   5.444   7.645  1.1542  0.3798  4.5646
  174MOL0     H22923   7.481   5.294   7.690 -0.2702  1.0136  0.6268
  174MOL0     H22924   7.500   5.197   7.480  4.2507  0.3914  2.3796
  174MOL0     H22925   7.537   5.357   7.398 -1.3580  3.4459  2.0985
  174MOL0     H22926   7.261   5.294   7.518 -0.8402 -1.1805 -0.9889
  174MOL0     H22927   7.309   5.433   7.415 -0.4177 -0.1454  1.1048
  174MOL0     H22928   7.262   5.148   7.331 -1.6966 -0.1083 -0.4603
  174MOL0     H22929   7.376   5.261   7.240  0.1728 -0.8659 -0.4019
  174MOL0     H22930   6.959   5.407   7.159 -1.7993 -2.3565  0.8401
  174MOL0     H22931   6.824   5.316   6.969  0.1400 -0.5314  0.7958
  174MOL0     H22932   6.681   5.374   6.588 -0.9084  0.6898 -1.0994
  174MOL0     H22933   6.531   5.317   6.408  2.0034  0.0766 -0.9583
  174MOL0     H22934   6.510   5.230   6.197  0.6740 -1.4455 -0.7890
  174MOL0     H22935   6.339   5.255   6.252 -2.4262 -2.4877 -0.3114
  174MOL0     H22936   6.275   5.039   6.158 -0.2755 -1.4058 -0.0324
  174MOL0     H22937   6.436   5.004   6.101 -0.0264  0.1666 -0.7309
  174MOL0     H22938   6.413   5.218   5.951 -1.8133  1.7875 -1.6153
  174MOL0     H22939   6.261   5.246   6.012 -2.1366 -0.3418 -2.1685
  174MOL0     H22940   6.344   4.982   5.889  0.4001 -0.1082 -0.8671
  174MOL0     H22941   6.174   5.036   5.912 -1.3867 -0.6007 -5.3308
  174MOL0     H22942   6.220   5.236   5.762 -2.3618 -0.0079  0.2070
  174MOL0     H22943   6.201   5.080   5.685  1.2104 -1.1453 -0.4430
  174MOL0     H22944   6.440   5.065   5.645 -0.6273 -0.8395  0.0506
  174MOL0     H22945   6.474   5.212   5.736 -0.2546 -0.2947  0.8909
  174MOL0     H22946   6.323   5.355   5.603  1.8638  2.2283 -1.4718
  174MOL0     H22947   6.456   5.317   5.520 -2.7501  1.7339 -4.3434
  174MOL0     H22948   6.186   5.195   5.485  0.6261  3.2932  0.9817
  174MOL0     H22949   6.345   5.125   5.409  0.3805 -0.7608 -0.3917
  174MOL0     H22950   6.584   4.895   6.479 -0.2510  0.1489 -1.4136
  174MOL0     H22951   6.723   4.948   6.667  0.4209  0.1790 -2.8497
  174MOL0     H22952   7.149   5.054   6.881 -0.0575 -0.1221  0.4097
  174MOL0     H22953   7.265   5.117   7.076  1.5682  2.3908  1.6075
  174MOL0     H22954   8.568   4.816   7.158 -0.3541 -0.6213 -2.8181
  174MOL0     H22955   8.719   4.642   7.059 -0.2860 -1.4180  1.7571
  174MOL0     H22956   9.000   4.587   6.799 -0.4356 -0.3765 -0.6620
  174MOL0     H22957   9.054   4.409   6.652  1.2929  0.5689  0.5922
  174MOL0     H22958   9.017   4.005   6.810 -0.1298  2.9092  0.3714
  174MOL0     H22959   9.192   4.013   6.856  0.9125 -1.1804 -1.9241
  174MOL0     H22960   9.080   3.935   6.591 -0.9436  2.0997  0.2259
  174MOL0     H22961   9.255   3.934   6.630  0.8671 -2.1774 -0.7735
  174MOL0     H22962   9.041   3.760   6.748 -0.1161 -1.2505 -2.0953
  174MOL0     H22963   9.197   3.801   6.836 -1.2709 -1.3087  0.3974
  174MOL0     H22964   9.270   3.700   6.586  1.2214  4.3872  1.6558
  174MOL0     H22965   9.250   3.601   6.735  4.4894  1.4226 -1.9062
  174MOL0     H22966   8.961   3.424   6.518 -0.3754  1.8922 -1.8422
  174MOL0     H22967   9.127   4.166   7.006  1.4941 -0.3351 -2.5199
  174MOL0     H22968   9.069   4.333   7.142  2.0904  1.8158  0.2319
  175MOL0     O22969   7.431   3.545   8.158  0.3201  0.6166  0.0390
  175MOL0     C22970   7.468   3.654   8.113  0.5910  0.2258 -0.0979
  175MOL0     O22971   7.395   3.759   8.067 -0.1935 -0.1819 -0.0255
  175MOL0     C22972   7.257   3.741   8.078  0.7190  0.5895  0.2337
  175MOL0     C22973   7.182   3.620   8.042 -0.2292 -0.4958 -0.2022
  175MOL0     C22974   7.043   3.611   8.055 -0.2651  0.7512  0.5693
  175MOL0     C22975   6.968   3.722   8.097  0.3141 -0.3086  0.2194
  175MOL0     O22976   6.839   3.705   8.128  0.2734  0.2568 -0.9361
  175MOL0     C22977   6.754   3.749   8.024 -0.7723  0.8952  0.5285
  175MOL0     C22978   6.646   3.836   8.097 -0.1184 -0.0696  1.1741
  175MOL0     C22979   6.528   3.870   8.010 -0.2397 -0.0349 -0.0945
  175MOL0     C22980   6.459   3.749   7.937 -0.0492 -0.4398  0.6074
  175MOL0     C22981   6.310   3.775   7.913  0.2296  0.7303  0.4123
  175MOL0     C22982   6.221   3.771   8.042 -0.3019  0.4499  0.1567
  175MOL0     C22983   6.178   3.902   8.099 -0.5150  0.1610  0.3532
  175MOL0     C22984   6.041   3.921   8.168  0.3223 -0.0069  0.7039
  175MOL0     N22985   5.943   3.903   8.068 -0.4668  0.5641 -0.0674
  175MOL0     C22986   5.892   4.006   7.992  1.1567  0.1610 -0.3224
  175MOL0     C22987   5.788   3.949   7.924  0.2594 -0.4565  0.4416
  175MOL0     C22988   5.702   4.027   7.833 -0.3323  0.1560  0.1999
  175MOL0     C22989   5.581   4.087   7.900 -0.6569  0.8327  0.8735
  175MOL0     C22990   5.628   4.206   7.989  0.4571 -0.1022  0.7637
  175MOL0     C22991   5.498   4.262   8.047  1.0398  0.2541 -0.4206
  175MOL0     O22992   5.529   4.361   8.153 -0.1392  0.4092 -0.6142
  175MOL0     C22993   5.421   4.436   8.194 -0.4189  0.4037 -0.1400
  175MOL0     C22994   5.337   4.494   8.106  1.0242 -0.1261  1.0481
  175MOL0     C22995   5.232   4.581   8.150 -0.4585 -0.2249  0.9496
  175MOL0     C22996   5.207   4.595   8.290  0.0136 -0.7789 -0.0039
  175MOL0     C22997   5.111   4.685   8.349 -0.0097  0.1864 -0.2738
  175MOL0     O22998   5.161   4.760   8.459 -0.3715  0.3327 -0.5315
  175MOL0     C22999   5.072   4.829   8.544 -0.1663 -0.3092 -1.0005
  175MOL0     C23000   4.996   4.761   8.646 -0.6609 -0.5142 -0.7897
  175MOL0     C23001   4.903   4.841   8.726  0.0909 -0.2342  0.2289
  175MOL0     C23002   4.889   4.978   8.701 -0.5300  0.7654  0.2140
  175MOL0     O23003   4.818   5.060   8.783 -0.0271 -0.1768 -0.1329
  175MOL0     C23004   4.682   5.049   8.751  0.4792 -1.2857  0.1617
  175MOL0     C23005   4.603   5.185   8.794 -0.2629 -0.1611 -0.9406
  175MOL0     C23006   4.456   5.161   8.835 -0.2208  0.1210  0.5120
  175MOL0     C23007   4.371   5.115   8.718 -0.0550 -0.6072  0.3369
  175MOL0     C23008   4.226   5.128   8.755  0.3314  0.7316 -0.5735
  175MOL0     C23009   4.140   5.102   8.631  0.4563 -0.8467 -0.1012
  175MOL0     C23010   3.987   5.088   8.664  0.0769  0.4156  0.3176
  175MOL0     C23011   3.913   5.014   8.554 -0.8576  0.2646  0.6483
  175MOL0    Cl23012   3.958   5.075   8.393 -0.1702  0.0461  0.0650
  175MOL0     C23013   4.961   5.037   8.596 -0.3259  0.8606 -0.0175
  175MOL0     C23014   5.038   4.956   8.510 -0.5283 -0.5527 -0.4550
  175MOL0     O23015   4.998   4.693   8.299  0.1256  0.8347 -0.0668
  175MOL0     C23016   5.296   4.525   8.378 -0.0143 -0.2698 -1.0623
  175MOL0     C23017   5.400   4.451   8.328 -1.1354  0.1430 -0.2878
  175MOL0     N23018   5.790   3.815   7.946 -0.3972 -0.0533 -0.0674
  175MOL0     N23019   5.882   3.783   8.039 -0.6042 -0.2564  0.5376
  175MOL0     C23020   7.031   3.844   8.122 -0.6824  0.2091 -0.2410
  175MOL0     C23021   7.171   3.842   8.109 -0.3889 -1.1033 -1.1282
  175MOL0     C23022   7.611   3.674   8.120 -0.9522 -0.3476 -0.1873
  175MOL0     C23023   7.704   3.583   8.183 -0.5994 -0.1247  0.4490
  175MOL0     C23024   7.839   3.597   8.181  0.2199 -0.1869  0.4065
  175MOL0     C23025   7.900   3.711   8.116  0.4027 -0.2866  0.7303
  175MOL0     O23026   8.036   3.724   8.120  0.7171 -0.1100  0.0922
  175MOL0     C23027   8.076   3.843   8.046 -0.6563 -0.2393  0.8372
  175MOL0     C23028   8.221   3.852   8.007  0.2246  1.0557  0.1407
  175MOL0     C23029   8.276   3.790   7.874 -0.8759 -0.1709  0.6838
  175MOL0     C23030   8.420   3.823   7.847 -0.2488 -1.0462 -0.1754
  175MOL0     C23031   8.453   3.794   7.712 -0.5318 -0.9326  0.3960
  175MOL0     C23032   8.498   3.771   7.597  0.0508 -0.6285  0.2747
  175MOL0     C23033   7.811   3.807   8.054  0.6649  0.8467  0.1352
  175MOL0     C23034   7.672   3.790   8.060  0.8116 -0.4484  0.9520
  175MOL0     H23035   7.237   3.540   7.995 -0.6557  0.8529 -3.2162
  175MOL0     H23036   6.989   3.520   8.028 -1.2546  1.3287  0.5354
  175MOL0     H23037   6.715   3.661   7.973 -0.2249  1.7904 -1.5571
  175MOL0     H23038   6.801   3.806   7.942  0.0143 -0.9827 -0.3875
  175MOL0     H23039   6.689   3.922   8.150  3.0535 -3.4131  4.7624
  175MOL0     H23040   6.625   3.785   8.191  1.9484  0.2196  1.8495
  175MOL0     H23041   6.563   3.939   7.933  1.4767  0.1205  0.7710
  175MOL0     H23042   6.465   3.919   8.085 -1.5095  0.9714 -1.7397
  175MOL0     H23043   6.511   3.738   7.841  1.4301 -0.2524  1.3546
  175MOL0     H23044   6.460   3.653   7.990 -1.0880 -1.9870 -1.9713
  175MOL0     H23045   6.273   3.697   7.845 -0.2590  1.3947 -0.0972
  175MOL0     H23046   6.293   3.864   7.852 -2.5768  1.1576  1.6560
  175MOL0     H23047   6.279   3.713   8.115  2.6676  1.0057 -1.5622
  175MOL0     H23048   6.131   3.718   8.008 -0.1380 -0.3529  0.9434
  175MOL0     H23049   6.243   3.939   8.178 -1.2564 -0.5943  1.3439
  175MOL0     H23050   6.188   3.971   8.015  2.6932 -1.0273 -0.3848
  175MOL0     H23051   6.040   4.019   8.217  0.5488  0.6760 -0.6144
  175MOL0     H23052   6.028   3.853   8.253  1.0984  0.5114  1.2578
  175MOL0     H23053   5.913   4.112   8.001 -3.0793  1.1625  0.0490
  175MOL0     H23054   5.647   3.959   7.767 -0.3316  0.5518 -0.2121
  175MOL0     H23055   5.763   4.097   7.776  1.5194 -0.4609  1.3433
  175MOL0     H23056   5.528   4.018   7.965 -0.5310  0.6985  0.8351
  175MOL0     H23057   5.508   4.114   7.823  0.4486 -0.3405 -0.6559
  175MOL0     H23058   5.686   4.192   8.081  1.5217  0.9293  0.2730
  175MOL0     H23059   5.673   4.280   7.923  0.4438 -2.6383 -2.3030
  175MOL0     H23060   5.437   4.178   8.081 -1.5147  0.7934 -3.1669
  175MOL0     H23061   5.443   4.300   7.960 -1.3642  0.1613  0.9809
  175MOL0     H23062   5.369   4.485   8.003  0.0145  1.2441  0.5898
  175MOL0     H23063   5.173   4.635   8.077  1.0800 -0.7132 -0.7190
  175MOL0     H23064   5.025   4.660   8.670 -1.7231 -1.1600 -2.0927
  175MOL0     H23065   4.853   4.793   8.809 -1.0787  2.5266  1.2681
  175MOL0     H23066   4.644   4.958   8.799  1.3389 -0.9309  1.5712
  175MOL0     H23067   4.665   5.039   8.643  1.9145  1.4181 -0.4104
  175MOL0     H23068   4.609   5.250   8.707 -0.9556  1.5737  0.2429
  175MOL0     H23069   4.644   5.237   8.881 -2.3627 -1.4199  0.9058
  175MOL0     H23070   4.414   5.253   8.879 -0.7508 -1.9097  4.7470
  175MOL0     H23071   4.454   5.084   8.912  2.2810 -0.7361 -0.2120
  175MOL0     H23072   4.392   5.176   8.629  2.3882  1.0980  1.9418
  175MOL0     H23073   4.392   5.008   8.709 -1.3356 -0.6901 -3.1507
  175MOL0     H23074   4.200   5.228   8.791 -2.5287  0.3524 -1.2745
  175MOL0     H23075   4.201   5.057   8.834  1.9816  1.1537  0.3731
  175MOL0     H23076   4.183   5.009   8.592  1.5546 -0.0804 -0.7550
  175MOL0     H23077   4.147   5.186   8.562 -1.9042  1.0910  1.8289
  175MOL0     H23078   3.976   5.029   8.756  0.3662  0.4052  0.3454
  175MOL0     H23079   3.950   5.190   8.673 -0.0695  0.3482  0.4927
  175MOL0     H23080   3.806   5.017   8.576 -0.7069 -0.6690  1.6227
  175MOL0     H23081   3.932   4.906   8.543 -0.8658  0.4594 -2.3292
  175MOL0     H23082   4.944   5.142   8.571 -0.2891  0.3021 -2.7108
  175MOL0     H23083   5.083   4.993   8.419 -2.0594  1.9340 -0.2875
  175MOL0     H23084   5.301   4.545   8.485  2.0021  0.0325 -1.1764
  175MOL0     H23085   5.474   4.406   8.394  3.0438  1.9397 -3.2946
  175MOL0     H23086   6.963   3.927   8.142 -0.4936  0.5425 -0.9466
  175MOL0     H23087   7.203   3.944   8.128 -6.5505  1.0508 -0.2036
  175MOL0     H23088   7.672   3.500   8.244  1.2768  1.3883  3.7606
  175MOL0     H23089   7.906   3.523   8.225 -0.0738 -2.0997 -2.1712
  175MOL0     H23090   8.054   3.930   8.109 -0.0513 -2.1948  4.0058
  175MOL0     H23091   8.026   3.878   7.956 -3.9836  0.1343  2.6842
  175MOL0     H23092   8.252   3.956   8.001  0.6333  0.8832 -0.8705
  175MOL0     H23093   8.268   3.810   8.096 -2.5557 -1.0770  0.7468
  175MOL0     H23094   8.213   3.820   7.789 -0.0751  0.9480  0.4720
  175MOL0     H23095   8.268   3.681   7.875  0.0972 -0.3149 -1.3823
  175MOL0     H23096   8.433   3.927   7.877 -2.2075 -0.0270 -2.5110
  175MOL0     H23097   8.491   3.769   7.910  1.5755 -0.2453 -1.4775
  175MOL0     H23098   8.541   3.755   7.500  0.0039  0.4970  0.0531
  175MOL0     H23099   7.830   3.904   8.009 -1.8329  0.9885 -0.7807
  175MOL0     H23100   7.613   3.865   8.010  1.4499 -0.5961 -0.0445
  176MOL0     O23101   6.818   5.837   0.365 -0.6848 -0.7975  0.5509
  176MOL0     C23102   6.732   5.924   0.354  0.7093  0.3176  1.0106
  176MOL0     O23103   6.618   5.920   0.419  0.2018 -0.7069  0.5759
  176MOL0     C23104   6.584   5.813   0.488 -0.3009  0.1930  0.8121
  176MOL0     C23105   6.598   5.683   0.437  1.2053  0.4063 -0.1684
  176MOL0     C23106   6.568   5.570   0.512  0.1524  1.1275  0.5297
  176MOL0     C23107   6.522   5.587   0.642 -0.4846 -1.4229 -1.2761
  176MOL0     O23108   6.474   5.488   0.718  0.0233  0.1614 -0.5831
  176MOL0     C23109   6.439   5.364   0.647 -0.1980  0.1047 -0.3785
  176MOL0     C23110   6.357   5.273   0.737  0.3462  0.1437 -0.1931
  176MOL0     C23111   6.454   5.219   0.853 -0.8430  0.2019 -0.4298
  176MOL0     C23112   6.377   5.139   0.957  0.4121 -0.1968  0.7075
  176MOL0     C23113   6.453   5.119   1.087  0.0129 -1.0075 -0.1486
  176MOL0     C23114   6.592   5.052   1.076  0.3830  0.4355 -0.1019
  176MOL0     C23115   6.674   5.078   1.209  0.2511 -0.2112  0.4053
  176MOL0     C23116   6.825   5.050   1.190  1.1877 -0.3918 -0.1301
  176MOL0     N23117   6.900   5.092   1.300  0.6699 -0.0310  0.5755
  176MOL0     C23118   6.949   5.216   1.336  0.6225  0.0670  0.2148
  176MOL0     C23119   7.057   5.192   1.407  0.2457 -0.6395  0.0334
  176MOL0     C23120   7.160   5.298   1.434 -0.4802 -0.2144  0.2202
  176MOL0     C23121   7.112   5.389   1.545  0.7657 -0.3298  0.4544
  176MOL0     C23122   7.216   5.494   1.589  0.0176 -0.9269 -0.7562
  176MOL0     C23123   7.277   5.584   1.483 -0.1358 -0.0092  1.0593
  176MOL0     O23124   7.323   5.710   1.530 -0.7338  0.2669  0.8315
  176MOL0     C23125   7.446   5.730   1.587 -0.3562  0.3736 -0.8410
  176MOL0     C23126   7.489   5.859   1.621  0.6201  0.5627 -0.1218
  176MOL0     C23127   7.621   5.883   1.661 -0.1470 -0.3740 -0.4475
  176MOL0     C23128   7.714   5.776   1.672  0.2769  0.0735  0.3255
  176MOL0     C23129   7.861   5.792   1.720  0.0505 -0.3230  0.3855
  176MOL0     O23130   7.888   5.908   1.791 -0.0039  0.3076 -0.8579
  176MOL0     C23131   8.012   5.960   1.793 -0.7924  0.0130 -0.7945
  176MOL0     C23132   8.120   5.937   1.694  0.4826 -0.2803 -0.4205
  176MOL0     C23133   8.245   6.007   1.707 -0.6649 -0.9627 -0.6613
  176MOL0     C23134   8.283   6.062   1.825  0.3733 -0.0291 -0.3900
  176MOL0     O23135   8.406   6.122   1.841  0.2013  0.1688  0.1855
  176MOL0     C23136   8.524   6.044   1.874  0.5479  0.8851  0.9398
  176MOL0     C23137   8.647   6.126   1.849 -0.0600  0.3813  0.1706
  176MOL0     C23138   8.654   6.243   1.945 -0.2805  1.0328  0.2154
  176MOL0     C23139   8.765   6.326   1.887  0.8591 -0.3834  0.6569
  176MOL0     C23140   8.753   6.473   1.940 -0.2049 -0.5534 -0.4972
  176MOL0     C23141   8.835   6.574   1.856 -0.4399 -1.0711 -0.2797
  176MOL0     C23142   8.812   6.726   1.877 -0.4991  0.2058  0.8550
  176MOL0     C23143   8.918   6.807   1.792  1.2947 -0.5044  0.3260
  176MOL0    Cl23144   9.075   6.757   1.844 -0.2582  0.1077 -0.1913
  176MOL0     C23145   8.190   6.077   1.930  0.2581  0.2366  0.5061
  176MOL0     C23146   8.065   6.030   1.913  0.3085  0.1069 -0.3452
  176MOL0     O23147   7.940   5.713   1.678 -0.0032 -0.4333  0.5308
  176MOL0     C23148   7.668   5.648   1.656 -0.5523  0.7034  1.1764
  176MOL0     C23149   7.541   5.630   1.602 -0.1768 -0.7251 -0.3980
  176MOL0     N23150   7.072   5.054   1.429  0.0486  0.5509  0.1082
  176MOL0     N23151   6.968   4.998   1.375  0.6252 -0.3097 -0.5377
  176MOL0     C23152   6.510   5.718   0.700 -0.6027  0.6358 -0.4366
  176MOL0     C23153   6.543   5.826   0.620 -0.6534 -0.0198  0.0032
  176MOL0     C23154   6.770   6.050   0.286  0.6530  0.2061  0.7169
  176MOL0     C23155   6.689   6.165   0.317  0.5948  0.4956  0.3617
  176MOL0     C23156   6.696   6.279   0.241 -0.5033 -0.2086  0.5180
  176MOL0     C23157   6.798   6.300   0.147  0.2907  0.2451  0.7909
  176MOL0     O23158   6.823   6.425   0.091  0.8686 -0.3320  0.2206
  176MOL0     C23159   6.753   6.453  -0.033  0.0085  0.7447 -0.4809
  176MOL0     C23160   6.725   6.603  -0.038 -0.1223 -0.8852 -0.2290
  176MOL0     C23161   6.602   6.653  -0.126 -0.1794 -0.1326 -0.5108
  176MOL0     C23162   6.615   6.599  -0.269 -0.4121 -0.2246 -0.4925
  176MOL0     C23163   6.480   6.583  -0.329 -0.3425  0.3225  0.8594
  176MOL0     C23164   6.370   6.600  -0.381  0.4031  0.1450 -0.8708
  176MOL0     C23165   6.885   6.192   0.117  0.7618  0.2801  0.3625
  176MOL0     C23166   6.874   6.068   0.183  0.2996  1.4643  0.2930
  176MOL0     H23167   6.629   5.674   0.333 -0.4839  1.1229 -0.7773
  176MOL0     H23168   6.589   5.472   0.471  0.6165  1.2611  0.4368
  176MOL0     H23169   6.529   5.308   0.622  0.4774  1.3060 -0.6898
  176MOL0     H23170   6.384   5.387   0.555 -1.1010  2.5194  0.6738
  176MOL0     H23171   6.323   5.183   0.684  1.3628 -0.4110  0.0726
  176MOL0     H23172   6.278   5.335   0.780  0.2935 -0.3785  0.4801
  176MOL0     H23173   6.502   5.302   0.907  1.4257 -1.8885  1.0203
  176MOL0     H23174   6.537   5.172   0.799  0.4869  1.3920  0.5033
  176MOL0     H23175   6.283   5.186   0.986  1.2689  1.3794  1.0510
  176MOL0     H23176   6.370   5.041   0.910  3.6284  0.5136 -1.5692
  176MOL0     H23177   6.388   5.055   1.148  0.7346  1.0464  2.9896
  176MOL0     H23178   6.460   5.214   1.139 -0.3611 -1.5290  0.8741
  176MOL0     H23179   6.649   5.085   0.989 -0.2854 -2.8766 -1.9523
  176MOL0     H23180   6.585   4.943   1.080  1.4008  0.2582 -1.9027
  176MOL0     H23181   6.655   5.176   1.254  0.0024 -0.1505  0.1700
  176MOL0     H23182   6.637   5.007   1.283 -5.4243  1.7692 -0.0682
  176MOL0     H23183   6.867   5.101   1.102  2.4110 -0.3505  0.4527
  176MOL0     H23184   6.844   4.944   1.175  0.9769 -0.2723 -1.3574
  176MOL0     H23185   6.907   5.305   1.293 -2.8852 -0.6353  1.8418
  176MOL0     H23186   7.178   5.362   1.346  0.5103 -1.5682 -0.6105
  176MOL0     H23187   7.254   5.260   1.476  0.0892 -0.3022 -1.0586
  176MOL0     H23188   7.080   5.328   1.630  1.9968 -6.1913 -2.7198
  176MOL0     H23189   7.028   5.448   1.507  3.0662  3.9823  1.3843
  176MOL0     H23190   7.167   5.553   1.667  0.2896 -5.1852  3.0539
  176MOL0     H23191   7.305   5.446   1.629 -0.8692 -0.9077  1.3645
  176MOL0     H23192   7.216   5.605   1.394  0.5975 -0.7434  0.3655
  176MOL0     H23193   7.362   5.532   1.437 -2.6523 -2.9287 -0.6674
  176MOL0     H23194   7.412   5.932   1.597 -2.2141 -2.3232 -0.4361
  176MOL0     H23195   7.655   5.984   1.680  0.6172  0.1667 -4.0359
  176MOL0     H23196   8.092   5.898   1.596 -0.7162  2.3787 -1.2266
  176MOL0     H23197   8.319   6.017   1.629  2.6100 -1.3167  2.1670
  176MOL0     H23198   8.530   5.963   1.801 -4.0760  1.9223 -0.9513
  176MOL0     H23199   8.513   6.010   1.977 -2.8265  0.2973  0.4899
  176MOL0     H23200   8.644   6.152   1.743  3.2037  3.0568  0.5591
  176MOL0     H23201   8.743   6.073   1.856  0.6707  1.4534 -1.2032
  176MOL0     H23202   8.682   6.215   2.047  1.4779  3.1086  0.3628
  176MOL0     H23203   8.559   6.298   1.943  0.2949  2.0284 -0.7222
  176MOL0     H23204   8.861   6.279   1.913  2.3849  1.2383 -1.6825
  176MOL0     H23205   8.761   6.342   1.779 -1.6462 -0.4282  0.6929
  176MOL0     H23206   8.766   6.487   2.048 -0.8324  3.1099 -0.7545
  176MOL0     H23207   8.651   6.512   1.932 -0.3750 -1.2118 -1.7120
  176MOL0     H23208   8.823   6.558   1.748  0.9464  2.6814 -1.1491
  176MOL0     H23209   8.941   6.554   1.871 -0.6271 -2.7574 -1.0326
  176MOL0     H23210   8.708   6.734   1.844  0.6408  1.5277 -2.9014
  176MOL0     H23211   8.833   6.751   1.981  0.3537 -0.3290  0.8252
  176MOL0     H23212   8.894   6.912   1.810  4.0401  0.2029  0.4265
  176MOL0     H23213   8.905   6.790   1.685 -0.6105 -0.4936  0.5270
  176MOL0     H23214   8.221   6.129   2.020  1.2469 -0.2543  0.4635
  176MOL0     H23215   7.992   6.035   1.993 -1.9822  0.0785 -2.3074
  176MOL0     H23216   7.732   5.561   1.672 -0.3410 -0.2144 -3.3545
  176MOL0     H23217   7.509   5.529   1.578  1.5646 -2.2942  3.1879
  176MOL0     H23218   6.487   5.728   0.805 -2.3657 -0.5192 -0.6785
  176MOL0     H23219   6.555   5.924   0.664  1.8173 -0.2451 -0.0468
  176MOL0     H23220   6.618   6.167   0.398  0.2456  0.9976  0.0539
  176MOL0     H23221   6.646   6.373   0.265  1.0254  1.8161 -3.2987
  176MOL0     H23222   6.656   6.404  -0.047  1.8904 -4.2147  1.5060
  176MOL0     H23223   6.821   6.415  -0.109  1.7287  0.6177  1.0523
  176MOL0     H23224   6.701   6.640   0.062  1.3858  1.3895 -0.6309
  176MOL0     H23225   6.820   6.655  -0.053 -1.1678  1.5151  0.9419
  176MOL0     H23226   6.581   6.760  -0.127 -1.1476 -0.3126 -0.1201
  176MOL0     H23227   6.513   6.610  -0.079 -0.3575  0.4360 -0.3299
  176MOL0     H23228   6.668   6.666  -0.336  1.5712 -0.0367  1.1730
  176MOL0     H23229   6.668   6.503  -0.272 -0.3976 -0.2015 -0.9567
  176MOL0     H23230   6.274   6.612  -0.426  0.5019 -0.4725 -1.2597
  176MOL0     H23231   6.963   6.206   0.043  1.3785  0.5217  1.0506
  176MOL0     H23232   6.924   5.976   0.157 -2.3937  0.3403 -1.3406
  177MOL0     O23233  10.449   4.304   5.222  0.0604  1.0172 -0.1780
  177MOL0     C23234  10.361   4.375   5.174 -0.3812 -0.7435  0.3151
  177MOL0     O23235  10.244   4.407   5.239 -0.3967  0.2223  0.4743
  177MOL0     C23236  10.187   4.334   5.343 -0.4249 -0.6909  0.0567
  177MOL0     C23237  10.208   4.198   5.360 -0.0074  0.8688  0.2708
  177MOL0     C23238  10.148   4.125   5.468  0.4201 -0.4457  0.0820
  177MOL0     C23239  10.042   4.188   5.544 -0.4274 -0.4058 -0.9241
  177MOL0     O23240   9.983   4.120   5.644 -0.7466  0.6607  0.5604
  177MOL0     C23241   9.861   4.048   5.614 -1.1340 -1.0892 -0.3411
  177MOL0     C23242   9.816   3.944   5.725 -0.2801 -0.1528 -0.8967
  177MOL0     C23243   9.932   3.859   5.778 -0.6299  1.2275 -0.3257
  177MOL0     C23244   9.976   3.768   5.651 -0.5831 -0.3273  0.4577
  177MOL0     C23245   9.885   3.641   5.624 -0.1778 -1.6296  0.2264
  177MOL0     C23246   9.884   3.543   5.730  0.0238  0.3641  0.6525
  177MOL0     C23247   9.809   3.416   5.690  0.8205 -0.2245 -0.2210
  177MOL0     C23248   9.666   3.446   5.637 -0.6162 -0.8642  0.0476
  177MOL0     N23249   9.571   3.332   5.635 -0.7926 -0.6598 -0.0264
  177MOL0     C23250   9.574   3.241   5.539 -0.3885  0.2404 -0.2031
  177MOL0     C23251   9.462   3.171   5.567 -1.0442 -0.7145 -0.2019
  177MOL0     C23252   9.419   3.063   5.470 -0.1800 -0.5210 -0.5746
  177MOL0     C23253   9.443   2.918   5.529  0.2885  1.2042  0.2608
  177MOL0     C23254   9.354   2.816   5.446  0.1128 -0.9953  0.3501
  177MOL0     C23255   9.389   2.819   5.297 -0.4149  0.3485 -0.1023
  177MOL0     O23256   9.284   2.749   5.230  0.2921  0.7337  0.5625
  177MOL0     C23257   9.254   2.794   5.105  0.4726 -1.4339 -0.2038
  177MOL0     C23258   9.121   2.843   5.090  0.3667 -0.1511 -0.6465
  177MOL0     C23259   9.074   2.886   4.968 -0.1348 -0.9789  0.6365
  177MOL0     C23260   9.161   2.883   4.858 -0.6965  0.0909  0.0518
  177MOL0     C23261   9.114   2.931   4.733 -0.2383 -0.0833  1.0620
  177MOL0     O23262   8.974   2.923   4.707 -0.0475 -0.4309 -0.1197
  177MOL0     C23263   8.902   2.938   4.590 -0.1925 -0.4305  0.2276
  177MOL0     C23264   8.762   2.946   4.599  0.1131  0.8370 -0.6697
  177MOL0     C23265   8.685   2.945   4.479 -0.1494 -0.2578  0.4427
  177MOL0     C23266   8.739   2.962   4.348  0.2656  0.5192 -0.7603
  177MOL0     O23267   8.669   2.960   4.239 -0.0568  0.4660  0.5918
  177MOL0     C23268   8.649   2.832   4.162 -0.4611  0.3276 -1.5300
  177MOL0     C23269   8.543   2.871   4.054 -0.6078 -0.7329 -0.5361
  177MOL0     C23270   8.413   2.923   4.119 -1.3749 -0.3845  0.3575
  177MOL0     C23271   8.330   2.803   4.182 -0.0307  0.1287 -0.6576
  177MOL0     C23272   8.192   2.844   4.182  0.0975  0.3835  0.6889
  177MOL0     C23273   8.151   2.936   4.299  0.6390 -0.1811  0.2899
  177MOL0     C23274   8.024   3.005   4.252  0.8174  0.4786  0.4986
  177MOL0     C23275   7.985   3.090   4.367  0.4773 -0.3720 -0.7656
  177MOL0    Cl23276   7.810   3.118   4.394 -0.1862  0.2273 -0.7466
  177MOL0     C23277   8.879   2.965   4.346  0.2940  0.7722  0.8892
  177MOL0     C23278   8.954   2.940   4.463 -0.0025  0.0293  0.1553
  177MOL0     O23279   9.198   2.963   4.651  1.6665  0.1614  0.3765
  177MOL0     C23280   9.295   2.829   4.877  0.3669  1.4039  0.4556
  177MOL0     C23281   9.341   2.797   5.007  0.8042 -0.1775 -0.3462
  177MOL0     N23282   9.394   3.215   5.679 -0.0940 -0.1823 -0.1489
  177MOL0     N23283   9.469   3.305   5.721 -0.2735 -0.8631  0.6162
  177MOL0     C23284  10.021   4.322   5.524  0.6513  0.1771  0.6173
  177MOL0     C23285  10.099   4.398   5.425  0.1073 -0.6228  0.3535
  177MOL0     C23286  10.391   4.462   5.053 -0.2695  0.2584 -0.6958
  177MOL0     C23287  10.347   4.602   5.040  0.3970  0.7766  0.0948
  177MOL0     C23288  10.360   4.671   4.926 -1.1950  0.0334  0.5013
  177MOL0     C23289  10.429   4.621   4.816 -0.4749  0.6608 -0.5015
  177MOL0     O23290  10.440   4.677   4.688  0.2904 -0.3745 -0.6136
  177MOL0     C23291  10.385   4.803   4.652 -0.3691  0.0967  0.2751
  177MOL0     C23292  10.471   4.848   4.533 -0.7964 -0.0450  0.9063
  177MOL0     C23293  10.446   4.758   4.408  0.4429  0.1225  0.1791
  177MOL0     C23294  10.540   4.808   4.286  0.4486  0.5840 -0.5481
  177MOL0     C23295  10.483   4.938   4.246  0.8056  0.0240  0.6196
  177MOL0     C23296  10.438   5.042   4.197  1.3429  0.1792 -0.6965
  177MOL0     C23297  10.476   4.486   4.831  0.0373  0.2495  0.0286
  177MOL0     C23298  10.456   4.402   4.939  0.3358 -0.1119  0.2768
  177MOL0     H23299  10.272   4.136   5.298 -1.7947 -0.8078 -0.0225
  177MOL0     H23300  10.160   4.017   5.475  1.3566 -0.3736 -0.2477
  177MOL0     H23301   9.868   3.989   5.523 -1.0509 -2.8322  0.7531
  177MOL0     H23302   9.793   4.131   5.592  0.9668  1.1560  1.0625
  177MOL0     H23303   9.743   3.873   5.687 -1.0977  1.1146 -1.7535
  177MOL0     H23304   9.771   4.001   5.807  1.8264 -1.4444  1.3118
  177MOL0     H23305   9.911   3.800   5.868 -1.7204  0.1689 -1.2393
  177MOL0     H23306  10.015   3.925   5.803  0.2550  0.4893 -1.2342
  177MOL0     H23307   9.997   3.826   5.561  1.3653 -3.7964 -1.5335
  177MOL0     H23308  10.079   3.732   5.666  0.6484  1.5085 -2.7231
  177MOL0     H23309   9.937   3.589   5.543  1.0383 -1.1264  0.6515
  177MOL0     H23310   9.784   3.669   5.593 -0.0736 -1.6685 -0.1518
  177MOL0     H23311   9.842   3.583   5.823 -2.0161  0.0235 -0.0640
  177MOL0     H23312   9.989   3.523   5.755  1.3384  2.2027 -2.7351
  177MOL0     H23313   9.849   3.339   5.623 -1.0640  0.6256 -2.4689
  177MOL0     H23314   9.794   3.375   5.791  0.3065  2.8649  1.0932
  177MOL0     H23315   9.676   3.480   5.534 -3.2245  0.2768  0.0820
  177MOL0     H23316   9.617   3.521   5.700  1.0308  1.5036 -1.3168
  177MOL0     H23317   9.629   3.217   5.449  0.6267  1.1765  0.1418
  177MOL0     H23318   9.490   3.059   5.387  2.4571 -2.3529  1.5876
  177MOL0     H23319   9.321   3.085   5.428  0.8417  1.4266 -2.1628
  177MOL0     H23320   9.418   2.917   5.636  2.5229 -0.7620  0.8673
  177MOL0     H23321   9.548   2.889   5.523 -0.0739 -0.3641  0.9008
  177MOL0     H23322   9.361   2.719   5.497 -0.5134 -1.5156 -0.5329
  177MOL0     H23323   9.252   2.855   5.450  0.9903  1.3680  1.0773
  177MOL0     H23324   9.489   2.780   5.277 -0.1022  1.6270 -1.2078
  177MOL0     H23325   9.397   2.923   5.262  1.0932  0.9208  1.7531
  177MOL0     H23326   9.056   2.819   5.173  1.4700 -0.5473  0.1188
  177MOL0     H23327   8.973   2.923   4.951 -0.0836 -1.6549 -1.3073
  177MOL0     H23328   8.715   2.944   4.697 -4.6370  1.3838 -2.7079
  177MOL0     H23329   8.577   2.933   4.475 -0.1924  0.2101  0.1603
  177MOL0     H23330   8.604   2.754   4.224 -1.1945  3.4273  2.2464
  177MOL0     H23331   8.737   2.793   4.110  1.1295  1.8772 -0.1383
  177MOL0     H23332   8.520   2.783   3.993 -0.9293 -1.2641  0.3323
  177MOL0     H23333   8.581   2.951   3.989  2.8211  3.4785  5.6605
  177MOL0     H23334   8.355   2.968   4.038  1.4704 -1.7547 -2.7173
  177MOL0     H23335   8.431   3.008   4.185 -3.0056 -0.2700  0.6728
  177MOL0     H23336   8.359   2.718   4.119 -1.9377 -1.0628  0.0241
  177MOL0     H23337   8.366   2.781   4.283 -3.4256 -0.8733  0.4463
  177MOL0     H23338   8.141   2.747   4.179  2.9649 -1.2487  0.7065
  177MOL0     H23339   8.162   2.882   4.084 -0.2881  1.2702  1.1430
  177MOL0     H23340   8.235   3.002   4.320 -0.1802  0.6110  1.1625
  177MOL0     H23341   8.135   2.870   4.384 -3.4099 -0.6328 -0.6018
  177MOL0     H23342   8.035   3.071   4.165 -2.6586  1.7181  0.8544
  177MOL0     H23343   7.955   2.922   4.234  0.0819  0.8009  1.7224
  177MOL0     H23344   8.048   3.179   4.362  0.9374 -0.5761  0.7630
  177MOL0     H23345   8.010   3.039   4.461  3.1587 -0.0407 -1.2337
  177MOL0     H23346   8.929   2.992   4.254 -0.0003  1.7437  1.0042
  177MOL0     H23347   9.061   2.933   4.445  0.2652 -0.3097  1.7547
  177MOL0     H23348   9.361   2.826   4.792  1.8438  3.9369  1.4022
  177MOL0     H23349   9.446   2.771   5.004  0.9065  0.2766 -1.2952
  177MOL0     H23350   9.959   4.383   5.589 -1.0052  1.4099 -1.9433
  177MOL0     H23351  10.078   4.504   5.414 -1.3655 -1.0669 -1.6348
  177MOL0     H23352  10.303   4.646   5.129  1.0054  1.3974  0.0913
  177MOL0     H23353  10.333   4.775   4.914 -4.1318 -0.8186 -1.4477
  177MOL0     H23354  10.374   4.874   4.734  1.4743 -3.1157  3.6009
  177MOL0     H23355  10.286   4.780   4.612 -0.4669  1.0682 -0.0678
  177MOL0     H23356  10.474   4.954   4.505 -0.7565 -1.0544 -3.8260
  177MOL0     H23357  10.577   4.829   4.551  0.2526  2.6567 -1.4051
  177MOL0     H23358  10.340   4.766   4.381 -0.4699 -2.8106  2.3670
  177MOL0     H23359  10.457   4.653   4.438 -3.1996  0.3893  3.0611
  177MOL0     H23360  10.646   4.808   4.315  0.6452  2.5387 -1.1047
  177MOL0     H23361  10.542   4.751   4.193  1.4380 -3.0522  1.4919
  177MOL0     H23362  10.401   5.130   4.149  0.0770  0.4812  0.7482
  177MOL0     H23363  10.531   4.437   4.751  3.4938  1.8586  1.2185
  177MOL0     H23364  10.505   4.305   4.939 -0.3733 -0.4973 -0.9095
  178MOL0     O23365   1.269   7.108   6.539  0.7229 -0.2565 -0.0227
  178MOL0     C23366   1.303   7.106   6.419  0.4953 -0.8884  0.2369
  178MOL0     O23367   1.225   7.060   6.316 -0.1255 -0.1626  0.0430
  178MOL0     C23368   1.092   7.049   6.347  0.0212  0.2751  0.2554
  178MOL0     C23369   1.016   7.132   6.429  0.4199  0.2712 -1.1072
  178MOL0     C23370   0.873   7.110   6.446  0.0936 -0.4448 -0.0612
  178MOL0     C23371   0.813   6.997   6.389 -0.0499 -0.2379 -0.0208
  178MOL0     O23372   0.687   6.969   6.426 -0.1074 -0.9239 -0.1795
  178MOL0     C23373   0.634   6.842   6.412  0.7409  0.1988 -0.0842
  178MOL0     C23374   0.487   6.839   6.437 -0.3138 -0.3950  0.0312
  178MOL0     C23375   0.403   6.935   6.345 -0.1440 -0.4329  0.1496
  178MOL0     C23376   0.248   6.932   6.392  0.1612 -1.1669 -0.0545
  178MOL0     C23377   0.140   7.006   6.309 -0.5628  0.1716  0.6139
  178MOL0     C23378   0.123   6.945   6.170  0.0797  0.5357  0.3956
  178MOL0     C23379  -0.013   6.978   6.118  0.7626 -0.2832  0.6272
  178MOL0     C23380  -0.142   6.915   6.190 -0.5440 -0.1276 -0.1834
  178MOL0     N23381  -0.115   6.810   6.290 -0.1295 -0.3178  0.5372
  178MOL0     C23382  -0.171   6.814   6.412  0.7308  0.7717 -0.2636
  178MOL0     C23383  -0.157   6.691   6.468  0.3850 -0.0364 -0.2933
  178MOL0     C23384  -0.209   6.635   6.593  0.4220 -0.3018  0.4813
  178MOL0     C23385  -0.200   6.726   6.702 -0.6645 -0.3808  0.2801
  178MOL0     C23386  -0.057   6.761   6.733  0.0401 -1.2970 -0.5562
  178MOL0     C23387  -0.049   6.897   6.813  0.7321 -0.8204  0.4383
  178MOL0     O23388  -0.135   6.894   6.931 -0.5422 -0.1977  0.3073
  178MOL0     C23389  -0.188   7.012   6.974  0.2204 -0.3552 -0.9578
  178MOL0     C23390  -0.121   7.139   6.966  0.3319  0.3559  0.2196
  178MOL0     C23391  -0.189   7.259   7.009 -0.3165 -0.3278 -0.0458
  178MOL0     C23392  -0.316   7.254   7.057 -0.8183  1.0175 -0.6996
  178MOL0     C23393  -0.392   7.380   7.077  1.0083  0.2917 -0.2567
  178MOL0     O23394  -0.504   7.369   7.155  0.6356  0.3064 -0.2177
  178MOL0     C23395  -0.581   7.480   7.186  0.6358 -0.0434  1.0486
  178MOL0     C23396  -0.534   7.573   7.275 -0.2101 -0.0706  0.1519
  178MOL0     C23397  -0.611   7.683   7.312 -0.8026  0.7339  0.5982
  178MOL0     C23398  -0.736   7.700   7.254  0.4828 -0.0054 -0.3574
  178MOL0     O23399  -0.827   7.804   7.274  0.0593 -0.3744 -0.7269
  178MOL0     C23400  -0.791   7.891   7.381 -0.4553 -0.1973  0.8005
  178MOL0     C23401  -0.917   7.966   7.420  0.0996 -0.0584  0.4656
  178MOL0     C23402  -0.895   8.063   7.537  0.1648  0.1653  0.0470
  178MOL0     C23403  -1.027   8.102   7.599 -0.2901  0.1358 -0.3700
  178MOL0     C23404  -1.005   8.170   7.741 -0.1918 -0.3008  0.8949
  178MOL0     C23405  -0.967   8.310   7.720 -0.5428 -0.0953  0.1886
  178MOL0     C23406  -0.936   8.363   7.861  0.6107 -0.1225 -0.5168
  178MOL0     C23407  -0.910   8.513   7.859  0.3885  0.9847 -0.3343
  178MOL0    Cl23408  -1.055   8.597   7.810  0.4260 -0.0205  0.2766
  178MOL0     C23409  -0.783   7.599   7.166 -0.3972 -0.2027 -0.1537
  178MOL0     C23410  -0.707   7.489   7.124 -0.8252 -0.3694 -0.5437
  178MOL0     O23411  -0.351   7.483   7.030 -0.2779 -0.0124  0.8788
  178MOL0     C23412  -0.379   7.127   7.070 -0.4710  0.1210 -0.6555
  178MOL0     C23413  -0.313   7.007   7.032  1.2667  0.2631  0.1528
  178MOL0     N23414  -0.104   6.609   6.370 -0.1684 -0.4252 -0.9749
  178MOL0     N23415  -0.094   6.682   6.263  0.7547  0.6720  0.6818
  178MOL0     C23416   0.888   6.920   6.301  0.0964 -0.0101  0.3615
  178MOL0     C23417   1.024   6.949   6.269  0.8516 -0.3916 -0.3172
  178MOL0     C23418   1.444   7.146   6.386  0.9159  0.6191 -0.3039
  178MOL0     C23419   1.488   7.150   6.249 -0.0753 -0.3856 -0.1009
  178MOL0     C23420   1.619   7.191   6.223  0.4838  0.8038 -0.2681
  178MOL0     C23421   1.708   7.224   6.326 -0.0096  0.8184 -0.5624
  178MOL0     O23422   1.830   7.260   6.285  0.0137  0.0875 -0.2907
  178MOL0     C23423   1.958   7.232   6.356 -0.5726  0.2731 -0.3929
  178MOL0     C23424   1.966   7.082   6.357  0.8066  0.1957  0.2045
  178MOL0     C23425   2.093   7.016   6.300  0.8481 -0.3945  0.2746
  178MOL0     C23426   2.213   6.987   6.390 -0.8818 -0.1890  0.9359
  178MOL0     C23427   2.273   7.107   6.426  0.0304 -0.2525 -1.1423
  178MOL0     C23428   2.323   7.210   6.480 -0.2524  0.3927 -0.4787
  178MOL0     C23429   1.663   7.216   6.459 -0.0281 -0.0407 -0.4146
  178MOL0     C23430   1.530   7.189   6.483 -0.0715 -0.0568 -0.3316
  178MOL0     H23431   1.060   7.214   6.486  1.2450  0.4964 -2.0335
  178MOL0     H23432   0.811   7.179   6.502  2.0274  0.0699  1.5493
  178MOL0     H23433   0.673   6.769   6.485 -0.2275 -1.0155 -0.7371
  178MOL0     H23434   0.641   6.805   6.309  0.1886  0.3582 -0.1831
  178MOL0     H23435   0.455   6.870   6.537  0.2512 -0.0393  0.1058
  178MOL0     H23436   0.445   6.738   6.432 -3.6813  0.8346  0.5374
  178MOL0     H23437   0.422   6.928   6.237 -0.3741  0.3002  0.0530
  178MOL0     H23438   0.434   7.038   6.367 -0.2666 -0.2750 -0.4010
  178MOL0     H23439   0.211   6.829   6.394 -0.3705 -0.9846 -0.2523
  178MOL0     H23440   0.253   6.979   6.491 -1.4221 -0.2214 -0.3880
  178MOL0     H23441   0.156   7.114   6.305  3.2983 -0.2856 -1.8991
  178MOL0     H23442   0.047   6.985   6.363 -0.7733 -0.3566  0.0585
  178MOL0     H23443   0.126   6.835   6.172  1.4043  0.3032 -3.9085
  178MOL0     H23444   0.203   6.975   6.102 -0.1799  1.4310  0.4788
  178MOL0     H23445  -0.032   7.083   6.139 -2.5989 -0.6139 -0.2202
  178MOL0     H23446  -0.011   6.956   6.011  1.6574 -0.8433  0.7458
  178MOL0     H23447  -0.208   6.875   6.113  1.4533  0.7990 -2.5077
  178MOL0     H23448  -0.203   6.992   6.238 -1.0862 -1.8957  2.1432
  178MOL0     H23449  -0.214   6.899   6.466 -3.2056 -1.1882  0.0378
  178MOL0     H23450  -0.165   6.538   6.618 -0.4296 -0.0403  3.2936
  178MOL0     H23451  -0.315   6.614   6.575  1.0913 -0.7748 -4.5484
  178MOL0     H23452  -0.254   6.698   6.793 -0.7971  3.2873  1.4960
  178MOL0     H23453  -0.258   6.815   6.676 -0.1094 -0.0032  0.3181
  178MOL0     H23454  -0.013   6.689   6.803  0.5759 -1.8626 -1.4607
  178MOL0     H23455   0.005   6.784   6.646 -0.2666  1.0844 -0.2073
  178MOL0     H23456  -0.092   6.977   6.752 -0.9312 -0.0233  2.4952
  178MOL0     H23457   0.053   6.925   6.841  0.1535  4.3249 -1.4616
  178MOL0     H23458  -0.019   7.140   6.929  0.0603  1.6371 -0.5566
  178MOL0     H23459  -0.141   7.355   6.991 -1.9219  0.6952  0.8217
  178MOL0     H23460  -0.441   7.541   7.322  0.3519 -1.1341 -1.5636
  178MOL0     H23461  -0.572   7.753   7.386 -0.7628  4.4257 -2.5918
  178MOL0     H23462  -0.706   7.952   7.349  0.0608 -2.7488 -3.5531
  178MOL0     H23463  -0.758   7.837   7.469  1.1080  2.9912  2.3493
  178MOL0     H23464  -1.007   7.903   7.424 -0.5522  0.9098  3.0532
  178MOL0     H23465  -0.929   8.025   7.329  1.7803 -0.2674  0.0840
  178MOL0     H23466  -0.841   8.150   7.498  0.9834 -1.0371 -1.5862
  178MOL0     H23467  -0.837   8.029   7.624 -0.4479  1.9426  1.2084
  178MOL0     H23468  -1.075   8.177   7.535 -0.5183 -0.4140 -0.8461
  178MOL0     H23469  -1.093   8.016   7.612  0.0854 -0.2636 -1.0600
  178MOL0     H23470  -0.927   8.118   7.798  1.1348 -3.7977 -3.5162
  178MOL0     H23471  -1.104   8.184   7.785 -0.7641 -0.8051 -0.1948
  178MOL0     H23472  -1.033   8.381   7.670  0.9523  0.8021 -0.5774
  178MOL0     H23473  -0.873   8.308   7.664 -1.4224  1.7084 -1.4748
  178MOL0     H23474  -1.017   8.343   7.931 -0.8295  2.1902 -1.4041
  178MOL0     H23475  -0.846   8.308   7.890 -0.4445 -1.6386 -0.0203
  178MOL0     H23476  -0.828   8.534   7.791  1.4660 -0.1465  0.5700
  178MOL0     H23477  -0.882   8.542   7.961 -3.1260  0.2740  0.9882
  178MOL0     H23478  -0.880   7.623   7.121  1.4912  1.8270 -3.5905
  178MOL0     H23479  -0.752   7.406   7.071 -2.2130 -0.0215  0.0492
  178MOL0     H23480  -0.475   7.126   7.120 -0.9812 -1.9677 -1.5733
  178MOL0     H23481  -0.367   6.913   7.039 -0.0299  0.9192 -0.7402
  178MOL0     H23482   0.844   6.833   6.253 -0.1547  0.7948 -0.9211
  178MOL0     H23483   1.083   6.889   6.201  1.0106 -1.4035  0.6909
  178MOL0     H23484   1.418   7.125   6.170  0.8133 -1.2227 -0.6345
  178MOL0     H23485   1.657   7.206   6.122  2.5831 -1.3591  0.1316
  178MOL0     H23486   1.932   7.278   6.451 -0.5823 -0.3034 -0.1152
  178MOL0     H23487   2.039   7.279   6.299  1.8745  0.1947  2.7481
  178MOL0     H23488   1.959   7.064   6.464 -0.7781 -1.9295 -0.2101
  178MOL0     H23489   1.885   7.043   6.295 -0.2063  3.2878 -0.6239
  178MOL0     H23490   2.126   7.064   6.208 -1.5286  3.9158  1.4115
  178MOL0     H23491   2.053   6.918   6.270  0.1696 -0.5354  1.5890
  178MOL0     H23492   2.177   6.931   6.477  2.0150 -0.8176  1.8310
  178MOL0     H23493   2.285   6.917   6.347 -2.6001 -2.9736  2.2935
  178MOL0     H23494   2.361   7.297   6.529  2.0578 -0.1965 -1.0638
  178MOL0     H23495   1.732   7.254   6.535 -1.0061  2.0213 -0.4944
  178MOL0     H23496   1.500   7.180   6.587  0.5957 -1.3848 -0.2303
  179MOL0     O23497  10.249   2.641   3.687 -0.8401  0.3090 -0.2000
  179MOL0     C23498  10.152   2.571   3.706 -0.1532 -1.6876 -0.7065
  179MOL0     O23499  10.138   2.485   3.809  0.3219 -0.5515  0.8176
  179MOL0     C23500  10.236   2.476   3.902 -0.4577  0.9614 -0.2728
  179MOL0     C23501  10.246   2.346   3.961  0.2150  0.3512 -0.2220
  179MOL0     C23502  10.337   2.324   4.058 -1.4963 -0.0932  0.2190
  179MOL0     C23503  10.431   2.420   4.108  0.1707  0.6004 -0.0483
  179MOL0     O23504  10.521   2.386   4.206 -0.2827  0.3615  0.6738
  179MOL0     C23505  10.632   2.471   4.246 -0.0281 -0.1835 -0.0135
  179MOL0     C23506  10.755   2.446   4.158 -0.2407  0.2405  0.2948
  179MOL0     C23507  10.867   2.544   4.200 -0.4393  0.4096  0.0793
  179MOL0     C23508  11.003   2.543   4.120 -0.0430 -0.3486  1.3917
  179MOL0     C23509  11.068   2.402   4.105 -0.5534 -0.0826 -0.8757
  179MOL0     C23510  11.182   2.386   4.208 -0.5160  0.1879  0.4396
  179MOL0     C23511  11.229   2.244   4.223 -0.3719  0.3048 -0.2491
  179MOL0     C23512  11.298   2.180   4.105 -0.6510  0.3425 -0.5631
  179MOL0     N23513  11.360   2.050   4.149  0.1380 -0.2689  0.6448
  179MOL0     C23514  11.325   1.935   4.088  0.0158  0.8422 -1.5331
  179MOL0     C23515  11.363   1.841   4.176 -0.0703  0.8369  0.2754
  179MOL0     C23516  11.355   1.692   4.152 -0.5220 -0.3647 -0.1792
  179MOL0     C23517  11.493   1.616   4.160  0.4634 -0.5390  0.2279
  179MOL0     C23518  11.512   1.561   4.305  0.1024 -0.6540 -0.6576
  179MOL0     C23519  11.623   1.458   4.304 -0.6840 -0.0422  0.1174
  179MOL0     O23520  11.747   1.524   4.333 -0.7187  0.4229 -0.2160
  179MOL0     C23521  11.816   1.580   4.236  0.5757 -0.6554  0.8129
  179MOL0     C23522  11.894   1.695   4.268  0.9193  0.0403 -0.0420
  179MOL0     C23523  11.974   1.745   4.166  0.4081  0.1958  0.5224
  179MOL0     C23524  11.996   1.680   4.045  1.1185  0.2395 -0.0338
  179MOL0     C23525  12.075   1.737   3.935  0.5010  0.6409  0.0939
  179MOL0     O23526  12.153   1.836   3.969 -0.8260  0.0013  0.2307
  179MOL0     C23527  12.212   1.915   3.872  0.0680 -0.5185 -0.3027
  179MOL0     C23528  12.178   2.048   3.842  0.0245  0.3642 -0.0416
  179MOL0     C23529  12.230   2.112   3.729  0.0013  0.1674 -0.2150
  179MOL0     C23530  12.335   2.053   3.657  0.1695 -0.6356  0.8140
  179MOL0     O23531  12.396   2.127   3.556  0.9561  0.1778  0.1841
  179MOL0     C23532  12.413   2.061   3.426 -0.4389 -0.2379  0.7956
  179MOL0     C23533  12.514   2.144   3.336 -0.2710 -0.2751 -0.2077
  179MOL0     C23534  12.575   2.053   3.224 -0.3772  0.7248 -0.5287
  179MOL0     C23535  12.673   2.150   3.153  0.0559  0.2254 -0.4905
  179MOL0     C23536  12.761   2.078   3.046  0.8153  0.3092  0.0855
  179MOL0     C23537  12.687   1.995   2.937  0.2762 -0.0076 -0.7751
  179MOL0     C23538  12.782   1.915   2.860  0.0793  0.1752 -0.1998
  179MOL0     C23539  12.722   1.851   2.730  0.3356 -1.0429  0.0757
  179MOL0    Cl23540  12.615   1.722   2.795  0.6576 -0.0751 -0.6416
  179MOL0     C23541  12.372   1.925   3.690 -0.1149  1.4027  0.3864
  179MOL0     C23542  12.313   1.849   3.795  0.5103  0.9115 -0.2511
  179MOL0     O23543  12.060   1.694   3.818 -0.2927 -0.6111 -0.1887
  179MOL0     C23544  11.926   1.557   4.026 -0.0945  0.8096  0.0202
  179MOL0     C23545  11.837   1.513   4.115 -0.1239 -0.1904 -1.0445
  179MOL0     N23546  11.425   1.895   4.289  0.4158  0.8838  0.5115
  179MOL0     N23547  11.408   2.021   4.270 -0.5937 -0.4226 -0.5013
  179MOL0     C23548  10.418   2.546   4.056  0.4108  0.6080 -0.9184
  179MOL0     C23549  10.318   2.573   3.959  0.2116 -0.0582 -0.0107
  179MOL0     C23550  10.052   2.565   3.605 -0.0121  0.0903  0.7973
  179MOL0     C23551   9.929   2.498   3.618 -0.9318  0.3159  0.2510
  179MOL0     C23552   9.827   2.497   3.512  0.1100 -0.4920 -0.5044
  179MOL0     C23553   9.847   2.559   3.399 -0.4225 -0.3626 -0.4364
  179MOL0     O23554   9.750   2.556   3.305  0.9560 -0.0515 -0.0719
  179MOL0     C23555   9.673   2.683   3.297  0.0805  0.2895  0.0609
  179MOL0     C23556   9.561   2.660   3.198  0.6569 -0.1106  0.2978
  179MOL0     C23557   9.448   2.766   3.225  0.9669 -0.2916  0.4559
  179MOL0     C23558   9.387   2.779   3.365 -0.1322 -0.2275 -0.8467
  179MOL0     C23559   9.247   2.830   3.383 -0.7335 -0.6810  0.1200
  179MOL0     C23560   9.133   2.863   3.368  0.0635  0.3477 -0.3096
  179MOL0     C23561   9.968   2.629   3.382 -0.1207  0.6359 -0.5046
  179MOL0     C23562  10.065   2.631   3.480 -0.4002 -0.3333 -0.0400
  179MOL0     H23563  10.176   2.267   3.936  0.5189 -0.8868  2.5295
  179MOL0     H23564  10.333   2.232   4.116 -1.4370  0.5499  1.2825
  179MOL0     H23565  10.650   2.462   4.354  0.3366  2.3899  0.2045
  179MOL0     H23566  10.600   2.574   4.230 -0.8635 -0.6431 -1.4489
  179MOL0     H23567  10.728   2.458   4.053 -2.6356  1.7498  1.0025
  179MOL0     H23568  10.781   2.339   4.159  0.0534  0.3044 -0.2561
  179MOL0     H23569  10.877   2.520   4.307 -1.0279  0.1748  0.0825
  179MOL0     H23570  10.823   2.644   4.193 -2.6092 -0.2312  2.6868
  179MOL0     H23571  10.974   2.578   4.021  2.6759  0.6204  0.8498
  179MOL0     H23572  11.083   2.602   4.166  0.9349 -2.3135  2.3488
  179MOL0     H23573  11.124   2.411   4.012  1.1104  0.1199  0.1004
  179MOL0     H23574  11.000   2.316   4.107  1.4881 -1.8175 -1.9727
  179MOL0     H23575  11.134   2.409   4.304 -0.9281  0.8946  0.0768
  179MOL0     H23576  11.263   2.455   4.184 -0.1635 -0.8297 -1.4503
  179MOL0     H23577  11.307   2.251   4.299 -0.2446  0.5360 -0.4019
  179MOL0     H23578  11.160   2.169   4.265 -0.1871  0.7645  0.9104
  179MOL0     H23579  11.372   2.250   4.063 -2.2252  0.8719 -2.6192
  179MOL0     H23580  11.229   2.176   4.020 -0.9955  0.9183 -0.3148
  179MOL0     H23581  11.271   1.921   3.995 -0.7440  3.5235 -1.5914
  179MOL0     H23582  11.307   1.677   4.055 -0.9076  0.7883 -0.1796
  179MOL0     H23583  11.282   1.647   4.220  0.5865 -0.1602  1.1676
  179MOL0     H23584  11.565   1.683   4.113 -2.5198  1.2554 -2.2448
  179MOL0     H23585  11.487   1.531   4.091 -1.1219 -1.0964  0.9967
  179MOL0     H23586  11.555   1.642   4.365  1.2560 -2.1449  0.5932
  179MOL0     H23587  11.428   1.520   4.361  2.9789 -0.8181  4.0560
  179MOL0     H23588  11.622   1.388   4.220 -0.0731  1.9209 -1.5726
  179MOL0     H23589  11.611   1.388   4.388 -0.4819 -0.8539 -0.5256
  179MOL0     H23590  11.883   1.746   4.363 -2.8163 -0.1986 -0.2070
  179MOL0     H23591  12.020   1.840   4.188  0.7172 -0.1777  1.5873
  179MOL0     H23592  12.105   2.109   3.894 -1.9838 -0.5957 -1.5935
  179MOL0     H23593  12.205   2.214   3.700  3.0353  1.0981  0.1490
  179MOL0     H23594  12.330   2.070   3.355  0.3171  1.2288  0.0574
  179MOL0     H23595  12.434   1.954   3.434  1.3839 -0.0853 -1.0501
  179MOL0     H23596  12.600   2.170   3.399 -0.5011  0.9281 -0.3636
  179MOL0     H23597  12.469   2.238   3.302 -0.4071  1.5808  4.3692
  179MOL0     H23598  12.507   2.004   3.153  0.4614 -1.2426 -0.0514
  179MOL0     H23599  12.627   1.975   3.281 -0.2133  1.6776  0.6600
  179MOL0     H23600  12.613   2.225   3.101  2.5877  1.9652 -1.0786
  179MOL0     H23601  12.747   2.195   3.220  0.3559  1.6370 -1.7189
  179MOL0     H23602  12.815   2.008   3.109  1.4681 -0.7518 -1.5955
  179MOL0     H23603  12.831   2.146   2.996  1.6739  1.1115  2.2583
  179MOL0     H23604  12.628   2.059   2.870  1.9011  1.4571 -0.8942
  179MOL0     H23605  12.612   1.942   2.996  1.3917 -0.8138 -0.0404
  179MOL0     H23606  12.877   1.962   2.833 -0.6066  3.1577  2.1319
  179MOL0     H23607  12.816   1.837   2.930  0.4940  0.2673 -0.2970
  179MOL0     H23608  12.802   1.809   2.668  0.3077  1.9055 -2.1633
  179MOL0     H23609  12.664   1.916   2.664  1.7218 -1.5434 -1.7256
  179MOL0     H23610  12.454   1.880   3.635  1.2898  0.4889  3.0837
  179MOL0     H23611  12.339   1.745   3.810  0.7704  1.3137  2.6867
  179MOL0     H23612  11.932   1.506   3.930 -5.1054 -0.0653 -0.0799
  179MOL0     H23613  11.785   1.419   4.097 -0.3416 -0.4057  0.5090
  179MOL0     H23614  10.474   2.630   4.094 -3.5714  1.6735  3.6754
  179MOL0     H23615  10.317   2.676   3.925 -1.6938 -0.7104 -2.2081
  179MOL0     H23616   9.919   2.452   3.715 -2.0477  2.3586  1.1615
  179MOL0     H23617   9.730   2.451   3.526 -0.3284  1.1203  2.7412
  179MOL0     H23618   9.734   2.772   3.276  1.6972 -1.0028 -0.9935
  179MOL0     H23619   9.632   2.683   3.398  1.5167 -1.7644  0.7172
  179MOL0     H23620   9.608   2.668   3.100 -0.5213 -0.3754 -0.3049
  179MOL0     H23621   9.518   2.560   3.201  0.1575  0.0487 -1.1645
  179MOL0     H23622   9.370   2.727   3.159  1.7158  0.2739 -0.7831
  179MOL0     H23623   9.492   2.858   3.187 -1.2071  0.8386  0.4908
  179MOL0     H23624   9.397   2.677   3.403  0.1169 -0.1442 -0.6836
  179MOL0     H23625   9.448   2.851   3.421  0.7873  0.5508 -2.7459
  179MOL0     H23626   9.033   2.897   3.351 -0.4150 -1.5842 -1.5784
  179MOL0     H23627   9.991   2.685   3.292 -0.0975  1.5255  0.0389
  179MOL0     H23628  10.156   2.686   3.461  0.6292 -1.4122  1.5531
  180MOL0     O23629   3.804   0.018   5.113  0.1976  0.4489 -0.1673
  180MOL0     C23630   3.780  -0.066   5.201 -0.3926 -0.3786 -0.8148
  180MOL0     O23631   3.819  -0.045   5.326 -0.2043  0.3528 -0.3096
  180MOL0     C23632   3.902   0.059   5.354 -0.9680 -1.1189 -0.0447
  180MOL0     C23633   3.988   0.051   5.462 -1.3476  0.5482 -0.8278
  180MOL0     C23634   4.059   0.154   5.513 -0.4508 -0.0091 -0.1802
  180MOL0     C23635   4.051   0.280   5.459  0.0686 -0.9946 -0.1842
  180MOL0     O23636   4.125   0.387   5.518 -0.1288 -0.2721 -0.5349
  180MOL0     C23637   4.158   0.492   5.431 -0.1171  0.0879 -0.0002
  180MOL0     C23638   4.273   0.588   5.457  0.3645  0.0486 -0.5577
  180MOL0     C23639   4.404   0.531   5.427 -1.5351  0.8214  0.4937
  180MOL0     C23640   4.436   0.536   5.275 -0.5835 -0.9623 -0.7383
  180MOL0     C23641   4.564   0.452   5.262 -0.2434 -0.0941 -0.2879
  180MOL0     C23642   4.620   0.467   5.124 -0.2923  0.3669  0.6250
  180MOL0     C23643   4.745   0.374   5.113  0.6373  0.1210 -0.6588
  180MOL0     C23644   4.802   0.359   4.973 -0.9407 -0.7418  0.1587
  180MOL0     N23645   4.934   0.276   4.979 -0.0660  0.0877 -0.6510
  180MOL0     C23646   5.042   0.319   5.052 -0.3959  0.1319 -1.0396
  180MOL0     C23647   5.106   0.203   5.083 -0.5781  0.3778  0.5300
  180MOL0     C23648   5.222   0.192   5.173 -0.3472  0.2587  0.5062
  180MOL0     C23649   5.357   0.171   5.098  0.0734  0.3606  0.9715
  180MOL0     C23650   5.357   0.060   4.998 -0.3396  0.0408 -0.6961
  180MOL0     C23651   5.491   0.048   4.932 -1.4559 -0.6227 -0.4153
  180MOL0     O23652   5.596  -0.004   5.024  0.1554  1.1442  0.2608
  180MOL0     C23653   5.617  -0.136   5.027 -0.1870 -0.7377  0.0945
  180MOL0     C23654   5.734  -0.185   5.097  0.3554 -0.2595 -1.3445
  180MOL0     C23655   5.770  -0.322   5.091 -0.1463 -0.3191  0.6461
  180MOL0     C23656   5.698  -0.413   5.016  0.6979 -0.0298  0.5903
  180MOL0     C23657   5.734  -0.561   5.011  0.5576 -0.4563 -0.3555
  180MOL0     O23658   5.854  -0.597   5.070 -0.4076  0.3403  0.7381
  180MOL0     C23659   5.912  -0.724   5.061  0.2583  0.3697  0.1406
  180MOL0     C23660   6.009  -0.742   5.160  0.5449  1.1872  1.0664
  180MOL0     C23661   6.073  -0.869   5.155 -0.2286 -0.7030 -0.8984
  180MOL0     C23662   6.041  -0.973   5.064  0.5957 -0.2690  0.1496
  180MOL0     O23663   6.116  -1.091   5.078 -0.3797 -1.0864 -0.5522
  180MOL0     C23664   6.070  -1.205   4.997  0.1203 -0.8558  0.3394
  180MOL0     C23665   6.139  -1.210   4.857  0.1092 -0.1733  0.9052
  180MOL0     C23666   6.266  -1.279   4.867 -0.1565 -0.9464 -0.8295
  180MOL0     C23667   6.312  -1.314   4.721 -0.2060 -0.0185  1.1460
  180MOL0     C23668   6.448  -1.385   4.723  0.2987 -0.9088 -1.1182
  180MOL0     C23669   6.476  -1.419   4.585  0.5289 -0.0754 -0.2753
  180MOL0     C23670   6.615  -1.481   4.577 -0.1443  0.7021  0.7553
  180MOL0     C23671   6.653  -1.545   4.452 -0.5889  0.1231  0.0138
  180MOL0    Cl23672   6.707  -1.422   4.337 -0.0754 -0.2549  0.3181
  180MOL0     C23673   5.944  -0.948   4.966 -0.4981  0.2104 -0.3753
  180MOL0     C23674   5.879  -0.829   4.965 -1.3965  0.3084 -0.6148
  180MOL0     O23675   5.662  -0.637   4.942  0.0694 -0.4493  0.3341
  180MOL0     C23676   5.586  -0.361   4.950  0.2286  0.2485  0.0870
  180MOL0     C23677   5.546  -0.230   4.955  0.4377  0.6336  1.0235
  180MOL0     N23678   5.036   0.095   5.025 -0.5530 -0.4792  0.5818
  180MOL0     N23679   4.934   0.141   4.967  0.5951 -0.0851 -0.0543
  180MOL0     C23680   3.965   0.299   5.354 -0.1722  0.5146  0.6538
  180MOL0     C23681   3.892   0.193   5.305  0.3164  0.1715  0.2579
  180MOL0     C23682   3.749  -0.203   5.159  0.1984 -0.5782  0.3090
  180MOL0     C23683   3.728  -0.296   5.250 -0.6609 -0.2921 -0.8902
  180MOL0     C23684   3.705  -0.430   5.217  0.8706  0.1038  0.1325
  180MOL0     C23685   3.696  -0.473   5.084 -0.5146 -1.1391  0.5754
  180MOL0     O23686   3.671  -0.603   5.054 -0.0902 -0.4400 -0.3478
  180MOL0     C23687   3.710  -0.646   4.928 -0.6103 -0.3147  0.1689
  180MOL0     C23688   3.679  -0.804   4.915 -0.0329  0.0521 -0.0280
  180MOL0     C23689   3.714  -0.874   4.784  0.3416  0.6280  0.3339
  180MOL0     C23690   3.731  -1.025   4.823 -0.2725  0.1063  0.1968
  180MOL0     C23691   3.751  -1.112   4.703  0.4833  0.8014  0.3078
  180MOL0     C23692   3.760  -1.193   4.606 -0.7500 -0.5440 -0.8346
  180MOL0     C23693   3.714  -0.377   4.989 -0.3833 -1.1185  0.4142
  180MOL0     C23694   3.735  -0.243   5.022 -0.3137 -1.1200  0.2082
  180MOL0     H23695   4.003  -0.047   5.507 -0.3867 -0.1708 -2.5955
  180MOL0     H23696   4.120   0.144   5.602 -1.3841  0.2158  0.5087
  180MOL0     H23697   4.069   0.555   5.440  0.6247  0.9113  2.4432
  180MOL0     H23698   4.169   0.453   5.329 -0.4626  0.8761 -0.3460
  180MOL0     H23699   4.271   0.619   5.562  1.1861  2.3965 -1.1643
  180MOL0     H23700   4.251   0.676   5.395  2.9129 -0.6420 -2.6623
  180MOL0     H23701   4.404   0.429   5.466 -1.5336  0.1961 -1.0666
  180MOL0     H23702   4.480   0.586   5.483 -2.6624  2.0340  0.8859
  180MOL0     H23703   4.358   0.485   5.218 -0.4678  1.4150 -3.2472
  180MOL0     H23704   4.447   0.641   5.246 -0.5482 -0.2450  1.5951
  180MOL0     H23705   4.540   0.348   5.286 -0.6867  0.1007  0.1296
  180MOL0     H23706   4.643   0.468   5.337  0.6281  1.1766 -1.4505
  180MOL0     H23707   4.649   0.570   5.103 -2.6986  1.1740  1.0135
  180MOL0     H23708   4.549   0.444   5.044  2.8364 -0.5001 -2.1242
  180MOL0     H23709   4.827   0.407   5.177 -0.7715 -1.2020  1.9536
  180MOL0     H23710   4.720   0.277   5.155  1.9874  1.3403  3.3723
  180MOL0     H23711   4.828   0.459   4.937  1.9722 -0.7017  2.1170
  180MOL0     H23712   4.735   0.306   4.904 -1.9559 -1.0641  1.3647
  180MOL0     H23713   5.069   0.415   5.094 -0.8619 -1.3458  3.1171
  180MOL0     H23714   5.204   0.107   5.239 -0.7767  0.9119  1.2472
  180MOL0     H23715   5.226   0.278   5.240  0.6857  0.6431 -0.0224
  180MOL0     H23716   5.439   0.160   5.170 -0.4889  1.0354  1.7362
  180MOL0     H23717   5.370   0.264   5.043  0.4450  0.0672  0.5598
  180MOL0     H23718   5.332  -0.037   5.041  0.9738 -0.0144  0.0032
  180MOL0     H23719   5.281   0.085   4.924 -1.4830 -3.4730 -0.8638
  180MOL0     H23720   5.526   0.136   4.877  1.0623 -3.5372 -3.9145
  180MOL0     H23721   5.487  -0.019   4.846  0.7365 -0.7579 -0.4683
  180MOL0     H23722   5.793  -0.106   5.143  1.8462 -1.5123 -1.0337
  180MOL0     H23723   5.864  -0.351   5.136  4.1516  3.8588 -4.2355
  180MOL0     H23724   6.029  -0.663   5.232 -0.5968 -0.2536  3.0542
  180MOL0     H23725   6.141  -0.893   5.236 -2.9693 -1.2871  1.3970
  180MOL0     H23726   5.961  -1.209   5.003 -0.0779 -2.7562 -2.5403
  180MOL0     H23727   6.099  -1.296   5.050  1.3714 -0.5175  0.2637
  180MOL0     H23728   6.150  -1.110   4.813 -1.5631 -0.7404 -0.9554
  180MOL0     H23729   6.073  -1.271   4.794  2.2967 -0.7225 -0.9907
  180MOL0     H23730   6.250  -1.369   4.926  2.0922 -0.5490  0.5056
  180MOL0     H23731   6.337  -1.209   4.912 -1.0887  1.2182 -2.5130
  180MOL0     H23732   6.233  -1.380   4.683 -1.7519  2.7514 -0.8271
  180MOL0     H23733   6.333  -1.227   4.659  0.3154 -1.8154 -1.3564
  180MOL0     H23734   6.449  -1.473   4.787  2.0523  1.3450  2.2679
  180MOL0     H23735   6.524  -1.315   4.760 -1.4486 -0.4625  1.9369
  180MOL0     H23736   6.455  -1.339   4.514 -0.2905 -0.0668 -0.0261
  180MOL0     H23737   6.408  -1.500   4.557 -0.2755  1.0653 -1.7442
  180MOL0     H23738   6.693  -1.413   4.611 -0.3201  2.4482 -2.0634
  180MOL0     H23739   6.607  -1.577   4.629  2.1042  0.1812  0.2510
  180MOL0     H23740   6.579  -1.616   4.412  0.3426 -3.5133  4.0417
  180MOL0     H23741   6.742  -1.605   4.471 -1.2830 -1.5070 -1.5510
  180MOL0     H23742   5.937  -1.020   4.885 -1.6397 -0.9938  0.7407
  180MOL0     H23743   5.806  -0.811   4.887 -2.4382  0.9084  0.4731
  180MOL0     H23744   5.508  -0.424   4.907 -2.5224  2.5378  1.3938
  180MOL0     H23745   5.450  -0.227   4.903  0.5761 -4.1837  0.0682
  180MOL0     H23746   3.948   0.399   5.315 -0.9796  0.1692  0.1195
  180MOL0     H23747   3.833   0.219   5.217 -0.0986 -3.0474 -0.5379
  180MOL0     H23748   3.728  -0.280   5.357  4.0292  0.4757 -0.7685
  180MOL0     H23749   3.692  -0.499   5.299  0.7183 -3.6300 -2.7605
  180MOL0     H23750   3.818  -0.630   4.926 -0.4784 -1.1783 -0.8519
  180MOL0     H23751   3.658  -0.594   4.847 -1.2145  0.0808  0.7952
  180MOL0     H23752   3.732  -0.846   5.001  1.3079  2.0949  0.2049
  180MOL0     H23753   3.573  -0.820   4.941 -0.1907  1.5907  0.3663
  180MOL0     H23754   3.804  -0.832   4.738 -0.8292  1.2907 -1.4600
  180MOL0     H23755   3.631  -0.863   4.713  1.9915  1.4330 -1.5748
  180MOL0     H23756   3.825  -1.024   4.880  0.5833  1.8941 -1.1210
  180MOL0     H23757   3.653  -1.057   4.892 -2.9403 -0.2394 -2.7163
  180MOL0     H23758   3.744  -1.248   4.515  0.0858 -2.0641 -0.0889
  180MOL0     H23759   3.704  -0.413   4.887 -0.8297 -0.0174  0.0606
  180MOL0     H23760   3.764  -0.167   4.951  0.0762 -0.2895  1.2275
  181MOL0     O23761   8.507  11.201   0.738 -0.4226 -0.2084  0.2332
  181MOL0     C23762   8.427  11.289   0.712  0.3408  0.3993  0.4732
  181MOL0     O23763   8.444  11.428   0.723  1.0974  0.1400  0.0712
  181MOL0     C23764   8.538  11.473   0.797 -0.2501 -0.0579 -0.4461
  181MOL0     C23765   8.605  11.589   0.758 -0.3047 -0.7619  0.0576
  181MOL0     C23766   8.706  11.657   0.835 -0.3749 -0.7486  0.6040
  181MOL0     C23767   8.728  11.602   0.970  0.0558  0.1699 -0.2689
  181MOL0     O23768   8.842  11.659   1.030  1.0734  0.1312 -0.2732
  181MOL0     C23769   8.957  11.577   1.025 -0.6001  0.0799 -1.3055
  181MOL0     C23770   9.016  11.582   1.171 -0.1767  0.0114  0.1218
  181MOL0     C23771   9.168  11.535   1.182 -0.1584 -0.0422  0.7192
  181MOL0     C23772   9.262  11.628   1.114  0.4850 -0.8735  0.5302
  181MOL0     C23773   9.408  11.581   1.143  0.2090  0.3031 -1.0039
  181MOL0     C23774   9.465  11.649   1.264  0.4840  0.2958 -0.3205
  181MOL0     C23775   9.612  11.613   1.262 -0.3351 -0.2952  0.1436
  181MOL0     C23776   9.716  11.716   1.208  0.6485  0.1450 -0.4313
  181MOL0     N23777   9.688  11.753   1.069  0.3723  0.0086  0.1899
  181MOL0     C23778   9.616  11.867   1.028  0.2125  1.0662  0.0342
  181MOL0     C23779   9.650  11.885   0.897 -0.0181  0.0748 -0.4523
  181MOL0     C23780   9.577  11.994   0.811  0.5612  0.2467 -0.8916
  181MOL0     C23781   9.447  11.933   0.743 -0.0335  0.3131 -0.1427
  181MOL0     C23782   9.340  11.892   0.848  0.9741  0.2077  0.4811
  181MOL0     C23783   9.200  11.875   0.791 -0.3827  0.5755 -0.2780
  181MOL0     O23784   9.157  11.994   0.726 -0.0450 -0.5867 -0.0224
  181MOL0     C23785   9.041  11.974   0.660 -0.3743 -0.1618  0.3441
  181MOL0     C23786   9.033  11.906   0.531 -0.9585 -0.4722  0.0652
  181MOL0     C23787   8.906  11.887   0.469 -0.2716 -0.4115 -0.5425
  181MOL0     C23788   8.788  11.929   0.535 -0.9215 -0.2475  1.2490
  181MOL0     C23789   8.668  11.928   0.463 -0.4291  0.4921 -1.1474
  181MOL0     O23790   8.555  11.919   0.543  0.3490  0.3032  0.2139
  181MOL0     C23791   8.436  11.946   0.480  0.5818  0.3636 -0.4072
  181MOL0     C23792   8.331  11.907   0.566 -0.3839  0.4214 -0.0326
  181MOL0     C23793   8.204  11.898   0.513 -0.0797  1.1661 -0.5875
  181MOL0     C23794   8.180  11.964   0.392 -0.3315  1.3318 -0.8878
  181MOL0     O23795   8.053  11.974   0.359  0.1873 -0.0196  0.0182
  181MOL0     C23796   8.007  12.106   0.385 -0.1678 -0.7587 -0.6016
  181MOL0     C23797   7.856  12.097   0.406 -0.4644 -0.9234  0.3115
  181MOL0     C23798   7.771  12.049   0.299  0.6924 -0.2408 -0.0507
  181MOL0     C23799   7.623  12.033   0.339  1.0834  1.0763 -0.5221
  181MOL0     C23800   7.535  11.978   0.220 -0.2100 -0.1631 -0.3726
  181MOL0     C23801   7.402  11.911   0.243  0.8633 -0.6697  0.3420
  181MOL0     C23802   7.341  11.859   0.106  0.1116  0.0815 -0.3369
  181MOL0     C23803   7.349  11.705   0.114 -1.1571  0.7215  0.1132
  181MOL0    Cl23804   7.230  11.622   0.224  0.0039  0.4109 -0.1240
  181MOL0     C23805   8.278  12.007   0.306  0.5843  0.4260  0.9337
  181MOL0     C23806   8.409  11.999   0.349  0.4741 -0.2624  0.1319
  181MOL0     O23807   8.675  11.903   0.343  0.5763 -0.0447 -0.9042
  181MOL0     C23808   8.799  11.994   0.660 -0.2461 -0.3612 -0.4643
  181MOL0     C23809   8.925  12.016   0.718  0.3544 -0.4263 -0.2127
  181MOL0     N23810   9.742  11.788   0.864 -0.5506  0.2946 -0.5590
  181MOL0     N23811   9.766  11.705   0.964  0.1446  0.0878  0.9030
  181MOL0     C23812   8.662  11.481   1.007 -0.3423  0.3188 -0.4186
  181MOL0     C23813   8.559  11.424   0.931  0.2676 -0.4325 -0.3924
  181MOL0     C23814   8.308  11.242   0.643 -0.1106  0.2865  0.1120
  181MOL0     C23815   8.216  11.328   0.595  0.5469 -0.1496  0.3314
  181MOL0     C23816   8.109  11.288   0.517  0.1990 -0.0318  0.3479
  181MOL0     C23817   8.085  11.155   0.492 -0.1217  0.3254  0.1654
  181MOL0     O23818   7.987  11.099   0.409  0.0416  0.6398  0.2853
  181MOL0     C23819   7.932  11.154   0.290 -1.1038 -0.3876 -0.7064
  181MOL0     C23820   8.026  11.217   0.184  0.1589 -0.5054  0.5820
  181MOL0     C23821   7.964  11.231   0.040  0.1942 -0.1876  0.0154
  181MOL0     C23822   8.044  11.338  -0.045  0.0707  0.0730  0.0575
  181MOL0     C23823   7.978  11.330  -0.181  0.8282 -0.8729 -0.0779
  181MOL0     C23824   7.922  11.319  -0.285  0.3201  0.4058  0.8133
  181MOL0     C23825   8.165  11.060   0.563 -0.4187  0.1846  0.1569
  181MOL0     C23826   8.281  11.105   0.633  0.3754 -0.2546 -0.2476
  181MOL0     H23827   8.577  11.616   0.656 -2.5122 -1.8844  0.3137
  181MOL0     H23828   8.757  11.746   0.799 -2.8386  2.0234  3.3128
  181MOL0     H23829   9.016  11.614   0.941 -1.9208 -1.9370 -3.2413
  181MOL0     H23830   8.947  11.470   1.005  2.9335 -0.9546  1.4565
  181MOL0     H23831   8.956  11.512   1.231  2.1777 -0.1795  2.4348
  181MOL0     H23832   9.018  11.686   1.206 -0.6522  0.7919 -2.0379
  181MOL0     H23833   9.187  11.433   1.146  3.3650  1.0308 -0.8517
  181MOL0     H23834   9.192  11.521   1.288 -0.2580 -0.4604  0.6909
  181MOL0     H23835   9.223  11.620   1.012 -2.3936 -0.8643  1.5216
  181MOL0     H23836   9.253  11.733   1.147  0.4295 -1.5285  2.7981
  181MOL0     H23837   9.476  11.608   1.061  4.1830  1.3602  2.3077
  181MOL0     H23838   9.415  11.474   1.163  2.3515  1.0086  3.1946
  181MOL0     H23839   9.398  11.614   1.343  0.6135  1.5175  0.3556
  181MOL0     H23840   9.453  11.758   1.262  0.1624  0.3526  2.3051
  181MOL0     H23841   9.647  11.599   1.365 -0.9979  0.4465  0.4767
  181MOL0     H23842   9.627  11.518   1.210  0.6413  0.1520 -0.4380
  181MOL0     H23843   9.819  11.682   1.221  0.7634  1.1293  1.5761
  181MOL0     H23844   9.703  11.799   1.278  1.0479 -1.7741  2.0442
  181MOL0     H23845   9.538  11.923   1.077 -1.9455  0.1369 -2.1294
  181MOL0     H23846   9.647  12.038   0.739  1.0530  2.7699  1.0023
  181MOL0     H23847   9.532  12.075   0.869 -1.7033  0.5154 -2.8384
  181MOL0     H23848   9.477  11.844   0.687  1.1898  0.7941 -0.2946
  181MOL0     H23849   9.418  12.011   0.673  2.9016  0.5361 -1.2546
  181MOL0     H23850   9.364  11.795   0.890 -3.1470 -1.3100 -0.2235
  181MOL0     H23851   9.329  11.957   0.935 -3.0449 -2.2606  2.0695
  181MOL0     H23852   9.129  11.858   0.872  1.5353 -1.2521  1.1195
  181MOL0     H23853   9.204  11.788   0.725 -0.1300  0.0467  0.4287
  181MOL0     H23854   9.125  11.868   0.488  0.4716  0.0960  2.4095
  181MOL0     H23855   8.905  11.839   0.372  4.5435 -0.8653 -0.5803
  181MOL0     H23856   8.353  11.873   0.667  1.5346 -1.6303 -1.0392
  181MOL0     H23857   8.124  11.865   0.578  1.0119  3.4974  2.1464
  181MOL0     H23858   8.026  12.176   0.304 -1.9052  1.6995  0.9689
  181MOL0     H23859   8.046  12.155   0.475 -3.8730  0.7211  0.4011
  181MOL0     H23860   7.828  12.199   0.433  0.0479 -0.2584 -1.5031
  181MOL0     H23861   7.851  12.033   0.495  0.0610 -0.0631  0.9794
  181MOL0     H23862   7.805  11.951   0.263  3.0860 -0.0297  1.4226
  181MOL0     H23863   7.782  12.127   0.224 -0.2205  1.1358  1.2058
  181MOL0     H23864   7.604  11.969   0.426  1.4629 -0.7323 -1.7225
  181MOL0     H23865   7.585  12.133   0.367 -2.1313  0.5501 -2.4614
  181MOL0     H23866   7.605  11.907   0.176  6.9251  2.4094  4.9704
  181MOL0     H23867   7.523  12.054   0.143  0.2009 -1.3471 -1.6477
  181MOL0     H23868   7.331  11.988   0.275  2.0596 -0.3588  2.3891
  181MOL0     H23869   7.408  11.829   0.314  0.2847 -1.4189 -0.4598
  181MOL0     H23870   7.241  11.901   0.094  0.4094  1.6784  1.9095
  181MOL0     H23871   7.405  11.890   0.023 -1.1542  1.2178 -0.9293
  181MOL0     H23872   7.450  11.673   0.141  0.1001  2.5538 -2.0086
  181MOL0     H23873   7.337  11.668   0.012 -4.5310  1.9862 -0.0878
  181MOL0     H23874   8.252  12.044   0.208 -1.9113 -1.9476  0.6038
  181MOL0     H23875   8.477  12.051   0.283  0.1636  1.6691  1.2751
  181MOL0     H23876   8.716  12.044   0.708 -0.2191  0.8707 -1.6214
  181MOL0     H23877   8.924  12.073   0.811 -3.4754 -1.0103  0.2754
  181MOL0     H23878   8.700  11.431   1.096 -1.6720 -0.8757 -0.4822
  181MOL0     H23879   8.496  11.342   0.966 -0.8149  0.9769  1.0798
  181MOL0     H23880   8.226  11.429   0.634  1.0535  0.3896 -1.1352
  181MOL0     H23881   8.041  11.360   0.473 -0.8656 -0.5137  1.1697
  181MOL0     H23882   7.844  11.214   0.310 -1.6261 -0.7643 -1.7926
  181MOL0     H23883   7.889  11.064   0.245 -1.4122 -0.7389  0.2540
  181MOL0     H23884   8.072  11.311   0.216 -1.5593  0.6508 -0.1832
  181MOL0     H23885   8.114  11.152   0.181 -1.2306 -2.4499 -1.0617
  181MOL0     H23886   7.860  11.266   0.045 -0.2209 -1.1116 -1.4294
  181MOL0     H23887   7.966  11.128   0.005  0.7009 -1.5728  3.6834
  181MOL0     H23888   8.029  11.442  -0.012  0.4357 -0.3779  1.7609
  181MOL0     H23889   8.151  11.317  -0.051  0.7316  2.9860  0.2302
  181MOL0     H23890   7.858  11.307  -0.370  1.0559 -1.7034  0.4941
  181MOL0     H23891   8.129  10.958   0.548 -0.9250  0.4028 -0.1334
  181MOL0     H23892   8.328  11.017   0.676 -1.6568 -0.1758  2.3384
  182MOL0     O23893   2.300   8.396   7.056 -0.3266 -0.9082  0.6478
  182MOL0     C23894   2.259   8.483   7.135 -0.0517 -0.1570 -0.2978
  182MOL0     O23895   2.310   8.507   7.262  0.7129 -0.3214  0.8794
  182MOL0     C23896   2.395   8.416   7.322 -0.1672  0.4269  0.5306
  182MOL0     C23897   2.532   8.425   7.307 -0.2125  0.1368 -0.0107
  182MOL0     C23898   2.621   8.342   7.373  0.4195 -0.1497 -0.2866
  182MOL0     C23899   2.565   8.237   7.446  0.3729  1.3291 -0.6203
  182MOL0     O23900   2.655   8.156   7.507 -0.8865  0.4604  0.1251
  182MOL0     C23901   2.663   8.182   7.648  0.7677 -1.1369  0.7615
  182MOL0     C23902   2.575   8.079   7.715  0.2152  1.1337 -0.2891
  182MOL0     C23903   2.491   8.149   7.821 -0.2088  0.2245 -0.0617
  182MOL0     C23904   2.373   8.214   7.759 -0.7775 -0.1057 -0.5526
  182MOL0     C23905   2.286   8.272   7.866 -1.0960  0.5696  0.1488
  182MOL0     C23906   2.155   8.328   7.808  0.4447 -0.1497 -0.4212
  182MOL0     C23907   2.173   8.473   7.776 -0.4436  0.7122 -0.1458
  182MOL0     C23908   2.174   8.506   7.624 -0.5998  0.5306  1.0590
  182MOL0     N23909   2.051   8.472   7.548  0.6714 -0.1613  0.0978
  182MOL0     C23910   1.932   8.430   7.613 -0.4866 -1.0659 -0.2589
  182MOL0     C23911   1.839   8.428   7.525 -0.3103 -0.8501  0.2385
  182MOL0     C23912   1.702   8.420   7.590  0.0551  0.0705 -0.1149
  182MOL0     C23913   1.596   8.395   7.481  0.0752 -0.1286 -0.9294
  182MOL0     C23914   1.459   8.422   7.534  0.2690  0.2705  1.1057
  182MOL0     C23915   1.349   8.392   7.430 -0.2950 -1.1461  0.4501
  182MOL0     O23916   1.257   8.501   7.423 -0.0841 -0.4294  0.7306
  182MOL0     C23917   1.122   8.490   7.401  0.3026 -0.3370  0.2119
  182MOL0     C23918   1.046   8.608   7.402  0.1904 -0.2823  0.4449
  182MOL0     C23919   0.904   8.604   7.381  0.3156 -0.5104 -0.2022
  182MOL0     C23920   0.839   8.484   7.376 -0.2032  0.6931  0.0162
  182MOL0     C23921   0.696   8.473   7.398 -0.7303 -0.6827  0.0355
  182MOL0     O23922   0.622   8.589   7.377 -0.5452 -0.0717  0.0363
  182MOL0     C23923   0.489   8.558   7.384 -0.0702  0.2070 -0.9626
  182MOL0     C23924   0.399   8.575   7.492  0.2062  0.9885  0.1853
  182MOL0     C23925   0.261   8.553   7.470  0.3515  1.4043  0.2498
  182MOL0     C23926   0.211   8.497   7.353 -0.0257 -0.1594 -1.3988
  182MOL0     O23927   0.076   8.482   7.344  0.2246  1.3540  0.2181
  182MOL0     C23928   0.015   8.355   7.330 -0.7902  0.2218  0.9628
  182MOL0     C23929  -0.134   8.378   7.375 -0.7056 -0.0838  0.9178
  182MOL0     C23930  -0.159   8.430   7.513 -0.2218 -0.5651 -0.3656
  182MOL0     C23931  -0.073   8.362   7.620  0.4727 -0.3648  0.2289
  182MOL0     C23932  -0.165   8.337   7.745 -0.0994  0.1635 -0.4729
  182MOL0     C23933  -0.094   8.258   7.861  0.2586  0.1175 -0.9673
  182MOL0     C23934  -0.207   8.226   7.974  0.4129  0.1640 -0.3991
  182MOL0     C23935  -0.256   8.354   8.050  0.2951 -0.0721 -0.2506
  182MOL0    Cl23936  -0.385   8.314   8.172  0.6719 -0.0876 -0.3921
  182MOL0     C23937   0.301   8.455   7.260 -0.0183 -0.1042 -0.0918
  182MOL0     C23938   0.428   8.489   7.274  0.3439 -0.2294  0.1401
  182MOL0     O23939   0.655   8.370   7.448  0.2512  0.5197  0.8937
  182MOL0     C23940   0.922   8.367   7.371 -0.1083 -0.2744  1.1051
  182MOL0     C23941   1.060   8.371   7.377 -0.5947  1.2321 -0.0827
  182MOL0     N23942   1.894   8.446   7.394 -0.2536  0.1836 -1.1569
  182MOL0     N23943   2.022   8.473   7.415 -0.1868  0.8311 -0.0656
  182MOL0     C23944   2.429   8.210   7.451  0.8097 -0.1457 -0.5661
  182MOL0     C23945   2.340   8.305   7.396 -1.0606  0.6995 -0.0292
  182MOL0     C23946   2.175   8.597   7.073  1.5014  0.5439 -0.7203
  182MOL0     C23947   2.167   8.604   6.936  0.1093 -0.5326 -0.3913
  182MOL0     C23948   2.079   8.692   6.866 -0.3759 -0.4400 -0.4180
  182MOL0     C23949   2.018   8.799   6.939  0.0416  0.5741  0.4576
  182MOL0     O23950   1.961   8.902   6.874 -0.0877  0.1444 -0.5042
  182MOL0     C23951   1.893   9.008   6.943  0.2861 -0.3211 -0.0584
  182MOL0     C23952   1.751   8.980   6.958  0.4015  0.7900  0.1411
  182MOL0     C23953   1.688   9.095   7.030 -1.4947 -0.1103  0.2967
  182MOL0     C23954   1.544   9.034   7.057 -0.2928  0.0647  0.0566
  182MOL0     C23955   1.463   9.137   7.122  0.1316  0.4758  0.0163
  182MOL0     C23956   1.396   9.221   7.186  0.0015  0.2683 -0.3488
  182MOL0     C23957   2.022   8.781   7.078 -0.8642 -0.8221 -0.3401
  182MOL0     C23958   2.104   8.695   7.145 -0.5377  0.3588  0.6423
  182MOL0     H23959   2.583   8.499   7.246  0.5978  0.1848  0.6907
  182MOL0     H23960   2.729   8.349   7.369  0.5846 -0.0044  2.3889
  182MOL0     H23961   2.639   8.288   7.664 -0.8409 -1.6123  1.6624
  182MOL0     H23962   2.769   8.169   7.672  2.0000  0.0627 -3.1484
  182MOL0     H23963   2.635   8.002   7.765  1.7391  1.1710 -1.9525
  182MOL0     H23964   2.514   8.020   7.646  3.1445  1.7252 -3.7075
  182MOL0     H23965   2.543   8.229   7.875  1.6114 -0.8549 -0.1121
  182MOL0     H23966   2.453   8.072   7.889  0.7540  0.5369  0.8611
  182MOL0     H23967   2.401   8.295   7.690  0.1150  0.5416  0.5241
  182MOL0     H23968   2.310   8.149   7.698 -0.4058 -1.4367  0.4357
  182MOL0     H23969   2.346   8.352   7.911 -0.4645  0.6865 -0.8746
  182MOL0     H23970   2.261   8.195   7.939 -0.5963  0.8300  0.6034
  182MOL0     H23971   2.075   8.324   7.883  0.4931  2.2291 -0.1354
  182MOL0     H23972   2.120   8.265   7.726 -1.5968  1.3675 -0.7946
  182MOL0     H23973   2.087   8.525   7.820 -1.0344  1.4095 -2.0189
  182MOL0     H23974   2.257   8.515   7.832 -1.6586  0.4326  1.9765
  182MOL0     H23975   2.261   8.457   7.580  0.8123  2.1754  1.9065
  182MOL0     H23976   2.205   8.610   7.617  1.3808 -0.0545  0.2756
  182MOL0     H23977   1.919   8.407   7.718  0.9379 -0.5476  0.0477
  182MOL0     H23978   1.681   8.517   7.636 -2.5722 -1.7761  2.9467
  182MOL0     H23979   1.697   8.343   7.667 -0.9247 -2.5865 -2.6721
  182MOL0     H23980   1.603   8.292   7.443 -2.0671 -1.5937  2.1325
  182MOL0     H23981   1.618   8.463   7.399  1.5776  4.9340  3.1982
  182MOL0     H23982   1.440   8.368   7.627 -2.5666 -0.7020  0.0843
  182MOL0     H23983   1.460   8.529   7.555  1.5606  0.1821  1.5906
  182MOL0     H23984   1.298   8.302   7.464 -1.6954  0.3012  2.3683
  182MOL0     H23985   1.384   8.375   7.327  0.6573 -1.7826  0.8648
  182MOL0     H23986   1.100   8.698   7.428 -0.1290 -0.7592  3.0347
  182MOL0     H23987   0.848   8.697   7.393 -0.3369 -0.6072 -2.0799
  182MOL0     H23988   0.434   8.627   7.580  1.9803  0.6847 -0.3035
  182MOL0     H23989   0.181   8.589   7.535  2.0023  3.0105  1.5339
  182MOL0     H23990   0.078   8.278   7.374 -2.3630 -1.0984  1.0186
  182MOL0     H23991   0.004   8.332   7.224  0.6075  1.2435  0.5712
  182MOL0     H23992  -0.182   8.282   7.353  1.2248 -0.7649 -0.5658
  182MOL0     H23993  -0.173   8.457   7.310 -0.7943 -0.8494  0.0185
  182MOL0     H23994  -0.266   8.433   7.537 -0.0140 -3.3132  1.3471
  182MOL0     H23995  -0.117   8.531   7.507 -0.7335 -0.0980  2.5307
  182MOL0     H23996  -0.026   8.267   7.591  0.6402 -1.4468  3.6095
  182MOL0     H23997   0.005   8.432   7.649  0.8195  0.7721 -3.0245
  182MOL0     H23998  -0.242   8.270   7.704  0.8822  0.7707 -3.6104
  182MOL0     H23999  -0.199   8.432   7.788 -1.9130 -1.2753  1.4919
  182MOL0     H24000  -0.017   8.326   7.898  1.0732 -1.2479 -0.0873
  182MOL0     H24001  -0.056   8.167   7.815 -1.2340 -0.7524 -0.5702
  182MOL0     H24002  -0.292   8.170   7.933  0.2838 -0.8699  1.1662
  182MOL0     H24003  -0.157   8.156   8.042  2.1981 -0.1069 -1.9451
  182MOL0     H24004  -0.295   8.424   7.976 -0.0008 -2.4269 -2.4876
  182MOL0     H24005  -0.169   8.399   8.097  1.0357 -1.1592 -0.5256
  182MOL0     H24006   0.261   8.402   7.175 -0.3380 -1.4380  0.8533
  182MOL0     H24007   0.502   8.454   7.203  0.2884 -1.4012  0.6466
  182MOL0     H24008   0.891   8.264   7.363 -1.9943  0.4143 -2.1025
  182MOL0     H24009   1.120   8.280   7.378 -0.7370  1.1092  2.4508
  182MOL0     H24010   2.375   8.123   7.488  0.8409  0.0041 -0.1633
  182MOL0     H24011   2.233   8.294   7.409 -0.7477 -1.0407  1.3087
  182MOL0     H24012   2.218   8.529   6.878  3.0855 -0.1015  1.4517
  182MOL0     H24013   2.083   8.687   6.758  0.5716 -0.3991 -0.3932
  182MOL0     H24014   1.884   9.108   6.899 -1.9722  0.7611  2.5813
  182MOL0     H24015   1.943   9.030   7.038  1.6778 -2.3222 -0.2806
  182MOL0     H24016   1.699   8.969   6.863  1.2874 -4.7809  0.0016
  182MOL0     H24017   1.747   8.889   7.019 -0.2974  1.1144  0.6011
  182MOL0     H24018   1.684   9.182   6.963 -0.1683  0.0049  0.3497
  182MOL0     H24019   1.753   9.137   7.107  0.7048 -0.5792 -1.2096
  182MOL0     H24020   1.499   8.993   6.966  2.4944 -0.8324 -1.0328
  182MOL0     H24021   1.551   8.947   7.122  2.7439 -0.3176 -0.6036
  182MOL0     H24022   1.327   9.278   7.244  1.0437  2.1470 -0.8657
  182MOL0     H24023   1.977   8.854   7.145 -1.3460 -1.4716  0.0557
  182MOL0     H24024   2.113   8.707   7.253  0.2628 -0.1721  0.6464
  183MOL0     O24025   4.243   7.223   2.934 -0.4385 -0.4223 -0.8693
  183MOL0     C24026   4.126   7.250   2.904 -0.2235  0.1682  0.8442
  183MOL0     O24027   4.028   7.301   2.978  0.8100 -0.5525 -0.3895
  183MOL0     C24028   4.057   7.345   3.106  0.2870  0.0048  0.4086
  183MOL0     C24029   4.176   7.412   3.144 -0.3014  0.1231 -0.0420
  183MOL0     C24030   4.185   7.479   3.273 -1.4084  0.0366  0.6858
  183MOL0     C24031   4.071   7.492   3.349  0.1033  0.0970  0.1908
  183MOL0     O24032   4.079   7.549   3.472 -0.2580  0.7401  0.0001
  183MOL0     C24033   4.094   7.688   3.464 -0.2199  0.0161  1.4062
  183MOL0     C24034   4.180   7.719   3.594  0.0221 -0.7886  0.3945
  183MOL0     C24035   4.326   7.677   3.600  1.0099  0.7006  0.0797
  183MOL0     C24036   4.399   7.701   3.730 -0.7631 -0.5544 -0.0120
  183MOL0     C24037   4.548   7.644   3.726 -0.8969  0.5339 -1.0861
  183MOL0     C24038   4.640   7.678   3.853 -0.0864 -0.6150  1.0724
  183MOL0     C24039   4.780   7.606   3.854  0.2683 -0.0856  0.5434
  183MOL0     C24040   4.767   7.487   3.941 -0.0459 -0.2364 -0.9617
  183MOL0     N24041   4.898   7.412   3.948  0.0537 -0.6267 -0.2885
  183MOL0     C24042   4.951   7.337   3.840 -0.6205  0.1178 -0.0878
  183MOL0     C24043   5.032   7.252   3.898  0.1998 -0.3728 -0.4970
  183MOL0     C24044   5.101   7.126   3.846  0.5120  0.0277 -0.1428
  183MOL0     C24045   5.235   7.172   3.791 -0.4652 -0.7381 -0.2872
  183MOL0     C24046   5.342   7.209   3.891 -0.2757 -0.9358 -0.8560
  183MOL0     C24047   5.474   7.231   3.827  1.3229  0.1196 -0.0061
  183MOL0     O24048   5.559   7.251   3.938 -0.7516 -0.2479  0.9147
  183MOL0     C24049   5.669   7.332   3.922 -0.0435  0.2083  0.6331
  183MOL0     C24050   5.732   7.357   4.043  0.3198 -0.1055  0.6610
  183MOL0     C24051   5.856   7.428   4.044 -0.7662  0.3853  1.3503
  183MOL0     C24052   5.916   7.469   3.924  0.2503  0.6514  0.5700
  183MOL0     C24053   6.032   7.565   3.932 -0.3048 -0.0761  0.1668
  183MOL0     O24054   6.049   7.624   4.050 -0.1656  0.1954 -0.3177
  183MOL0     C24055   6.161   7.700   4.070  0.2558 -0.1179  0.3288
  183MOL0     C24056   6.174   7.818   3.994  0.0889 -0.4316 -0.2498
  183MOL0     C24057   6.285   7.901   4.010 -0.3817  0.0850 -0.3535
  183MOL0     C24058   6.385   7.869   4.105 -0.7285  0.5477 -0.1195
  183MOL0     O24059   6.492   7.955   4.097  0.9124 -0.0238 -0.3166
  183MOL0     C24060   6.579   7.972   4.214 -0.1586 -0.0217  1.0011
  183MOL0     C24061   6.580   8.108   4.275 -0.0213  0.2782 -1.3017
  183MOL0     C24062   6.435   8.137   4.319  0.5015  0.9127 -0.7042
  183MOL0     C24063   6.417   8.265   4.409 -0.2752  0.7075  0.6316
  183MOL0     C24064   6.274   8.324   4.401 -0.6008  0.8917  0.5080
  183MOL0     C24065   6.268   8.422   4.515 -0.7451 -0.0303 -0.7024
  183MOL0     C24066   6.149   8.516   4.512 -0.2198  0.3683  0.0855
  183MOL0     C24067   6.157   8.607   4.387  0.1633 -0.7402  0.0365
  183MOL0    Cl24068   6.087   8.764   4.437  0.2545  0.3677 -0.5781
  183MOL0     C24069   6.380   7.737   4.168 -0.1551  0.0621  0.6339
  183MOL0     C24070   6.268   7.658   4.143  0.7519 -0.0273 -0.1264
  183MOL0     O24071   6.089   7.595   3.828 -0.2126 -0.3205  0.2673
  183MOL0     C24072   5.857   7.431   3.800  0.0008  0.1408  0.9082
  183MOL0     C24073   5.737   7.351   3.799  0.6436 -0.9800 -0.4350
  183MOL0     N24074   5.041   7.291   4.033 -0.0782 -0.1469 -1.0442
  183MOL0     N24075   4.960   7.383   4.057  0.4759 -0.3966 -0.4498
  183MOL0     C24076   3.954   7.441   3.302  0.5031 -0.1382  0.7914
  183MOL0     C24077   3.951   7.352   3.193  1.2137  0.0834 -0.6333
  183MOL0     C24078   4.087   7.222   2.771  0.0089  0.3466  0.4533
  183MOL0     C24079   3.981   7.297   2.715 -0.6360 -0.2485  0.1275
  183MOL0     C24080   3.954   7.272   2.588  0.1789  0.7940 -0.4927
  183MOL0     C24081   4.036   7.186   2.507 -0.3438 -0.3835  0.4608
  183MOL0     O24082   4.030   7.164   2.374 -0.0463  0.6472 -0.2453
  183MOL0     C24083   3.917   7.228   2.310  0.3439  0.0157  0.8605
  183MOL0     C24084   3.949   7.378   2.278  0.1465 -1.0399  0.1250
  183MOL0     C24085   4.091   7.387   2.225  0.0232 -0.0767 -0.2249
  183MOL0     C24086   4.132   7.310   2.095 -0.2342  0.4451  0.0888
  183MOL0     C24087   4.276   7.320   2.062 -0.2049  0.0164 -0.5912
  183MOL0     C24088   4.396   7.332   2.045 -0.4614  1.0071 -0.5442
  183MOL0     C24089   4.136   7.114   2.565 -0.2955  0.4650  0.0523
  183MOL0     C24090   4.162   7.123   2.701  0.2568 -0.6369  0.3013
  183MOL0     H24091   4.253   7.413   3.068  0.5917  0.3799  0.8492
  183MOL0     H24092   4.275   7.528   3.307  2.5561 -4.0446 -2.6656
  183MOL0     H24093   3.995   7.733   3.471 -1.0320 -0.6924 -2.8644
  183MOL0     H24094   4.144   7.725   3.374 -3.4345 -1.3695 -1.1591
  183MOL0     H24095   4.135   7.660   3.674  0.0635 -2.1335 -0.5162
  183MOL0     H24096   4.171   7.827   3.604 -2.6471 -0.9163  0.0543
  183MOL0     H24097   4.383   7.732   3.524  0.0341  2.7742  0.7688
  183MOL0     H24098   4.312   7.570   3.581 -1.6372  0.2752  3.4808
  183MOL0     H24099   4.407   7.809   3.742 -1.1252 -0.4116 -1.0057
  183MOL0     H24100   4.346   7.658   3.816 -2.0069 -0.0679 -0.5195
  183MOL0     H24101   4.590   7.690   3.636  1.2474 -2.0600 -1.5710
  183MOL0     H24102   4.540   7.538   3.701 -1.5834  0.4185 -0.4184
  183MOL0     H24103   4.585   7.656   3.945  1.0540 -1.7442  1.5048
  183MOL0     H24104   4.664   7.785   3.850  2.9544 -1.2267  0.0608
  183MOL0     H24105   4.820   7.576   3.756  0.4693  2.3465 -0.1828
  183MOL0     H24106   4.855   7.677   3.888  1.1475 -1.3942  1.4576
  183MOL0     H24107   4.684   7.421   3.914 -0.6723 -0.9893  2.3787
  183MOL0     H24108   4.750   7.513   4.045  5.2243  0.1380  0.0524
  183MOL0     H24109   4.919   7.334   3.736  0.5094  2.2619 -0.5649
  183MOL0     H24110   5.042   7.083   3.763  1.6288 -0.0373 -0.9178
  183MOL0     H24111   5.109   7.048   3.923 -2.7249 -0.7791 -0.4317
  183MOL0     H24112   5.225   7.261   3.728  0.3483 -0.5125 -0.1100
  183MOL0     H24113   5.287   7.106   3.721 -1.2172 -0.4124 -1.1818
  183MOL0     H24114   5.306   7.298   3.944 -2.8140 -2.8727  0.8975
  183MOL0     H24115   5.365   7.140   3.972  1.7710 -1.3760 -1.7634
  183MOL0     H24116   5.473   7.316   3.759  2.8967 -1.3236 -1.9562
  183MOL0     H24117   5.500   7.143   3.767 -2.7990 -0.8074 -0.7341
  183MOL0     H24118   5.670   7.329   4.127 -2.6579 -1.7694 -1.8937
  183MOL0     H24119   5.911   7.449   4.135  0.8281 -0.2487  0.5698
  183MOL0     H24120   6.105   7.844   3.915  1.4474  1.5115 -0.9006
  183MOL0     H24121   6.292   7.991   3.951  1.0472  0.0631 -0.2661
  183MOL0     H24122   6.677   7.961   4.167 -0.9489 -0.1622 -0.6866
  183MOL0     H24123   6.555   7.891   4.283 -0.9770 -0.6882 -0.0351
  183MOL0     H24124   6.631   8.178   4.208 -0.5106 -1.7165 -3.8769
  183MOL0     H24125   6.646   8.105   4.363 -1.2723  2.1082 -0.2220
  183MOL0     H24126   6.396   8.053   4.377  1.3957  2.0655  1.6976
  183MOL0     H24127   6.374   8.145   4.229 -1.2104  0.8342  0.3832
  183MOL0     H24128   6.437   8.228   4.510  0.7384 -0.1427  0.1449
  183MOL0     H24129   6.498   8.333   4.382  1.0214 -1.6876 -2.1902
  183MOL0     H24130   6.194   8.251   4.417 -0.9446  1.5996  2.1610
  183MOL0     H24131   6.252   8.375   4.307 -2.4488  0.0103  0.4188
  183MOL0     H24132   6.365   8.469   4.531  0.1012 -1.4904 -1.3606
  183MOL0     H24133   6.273   8.352   4.598 -0.3099 -1.0705 -1.5866
  183MOL0     H24134   6.048   8.477   4.531  0.3410 -0.5355  1.3404
  183MOL0     H24135   6.163   8.568   4.607 -0.1384  0.7099 -0.1142
  183MOL0     H24136   6.101   8.562   4.305 -0.6562  1.5106 -0.7175
  183MOL0     H24137   6.260   8.615   4.351  0.3275 -3.3665 -0.2692
  183MOL0     H24138   6.462   7.702   4.229 -0.9260 -1.9127  0.6068
  183MOL0     H24139   6.262   7.558   4.185  0.5465  0.3158  0.6905
  183MOL0     H24140   5.899   7.467   3.707 -2.3291 -2.2365 -1.2636
  183MOL0     H24141   5.692   7.331   3.703 -2.2902  0.5969  0.4556
  183MOL0     H24142   3.866   7.452   3.365  1.1951  1.7470  1.4998
  183MOL0     H24143   3.853   7.314   3.168  1.0458  0.8875 -1.2349
  183MOL0     H24144   3.940   7.373   2.780 -0.9657 -0.9153  0.7173
  183MOL0     H24145   3.872   7.330   2.548  0.0904 -1.1602 -3.4329
  183MOL0     H24146   3.819   7.236   2.357 -0.2895 -0.0248 -0.3935
  183MOL0     H24147   3.900   7.178   2.214  1.2012 -0.8879  1.1698
  183MOL0     H24148   3.870   7.392   2.204  1.4463 -0.0742 -1.1452
  183MOL0     H24149   3.929   7.450   2.359  0.4655  1.2358 -1.7080
  183MOL0     H24150   4.161   7.360   2.305 -0.7435 -1.5964 -0.0282
  183MOL0     H24151   4.103   7.493   2.202  2.5123 -0.0816  0.6727
  183MOL0     H24152   4.115   7.203   2.107  2.8167 -0.3998 -1.9156
  183MOL0     H24153   4.079   7.355   2.011  1.9821  0.6271 -1.2855
  183MOL0     H24154   4.503   7.330   2.037 -0.2713 -4.5999 -0.8802
  183MOL0     H24155   4.187   7.044   2.500 -0.0359  0.8182 -0.1253
  183MOL0     H24156   4.251   7.077   2.742 -1.2228 -2.1170  2.0479
  184MOL0     O24157   1.530  10.772   1.675 -0.1077  0.0196 -0.5481
  184MOL0     C24158   1.488  10.661   1.707 -0.2137 -0.5361 -0.0315
  184MOL0     O24159   1.464  10.556   1.622  0.3997  0.5272 -0.7733
  184MOL0     C24160   1.473  10.575   1.489  0.2701  0.8286 -0.7567
  184MOL0     C24161   1.375  10.558   1.399  0.1548  0.0599  0.7125
  184MOL0     C24162   1.388  10.551   1.263  0.0418  0.0822  0.6394
  184MOL0     C24163   1.517  10.569   1.207 -0.1603 -1.0999  0.1507
  184MOL0     O24164   1.527  10.570   1.071 -0.0642  0.5963  0.4975
  184MOL0     C24165   1.636  10.483   1.022 -1.1668 -0.3123  0.1471
  184MOL0     C24166   1.750  10.586   0.990  0.1157  0.3251 -0.2067
  184MOL0     C24167   1.715  10.641   0.858  0.0772  0.9329 -0.1849
  184MOL0     C24168   1.809  10.763   0.833  0.4415 -0.7110 -0.0044
  184MOL0     C24169   1.788  10.819   0.694  1.6347 -0.1717  0.5015
  184MOL0     C24170   1.845  10.959   0.677  0.0407 -0.0452  0.3555
  184MOL0     C24171   1.821  11.007   0.533  0.0189 -0.3734  0.2015
  184MOL0     C24172   1.853  11.159   0.510  0.5749  0.7163  0.4172
  184MOL0     N24173   1.987  11.193   0.559 -0.5790  0.4126 -0.0720
  184MOL0     C24174   2.020  11.230   0.684 -0.3932 -0.0098  0.2908
  184MOL0     C24175   2.162  11.241   0.673 -0.1220  0.2801 -0.8203
  184MOL0     C24176   2.239  11.300   0.785  0.9637  0.1065  0.1975
  184MOL0     C24177   2.356  11.393   0.729 -0.3445 -0.1504 -0.1234
  184MOL0     C24178   2.470  11.391   0.845  0.0656  0.6707 -1.1122
  184MOL0     C24179   2.601  11.476   0.822  1.2155  0.0862  0.9928
  184MOL0     O24180   2.627  11.466   0.689 -0.0067 -0.3764  0.6045
  184MOL0     C24181   2.709  11.569   0.634 -0.8501  0.5137  0.1036
  184MOL0     C24182   2.700  11.591   0.503 -0.1268  1.0414 -0.3846
  184MOL0     C24183   2.759  11.693   0.444  0.4144 -0.2899 -0.0493
  184MOL0     C24184   2.841  11.776   0.517  0.7084 -0.8769  0.2992
  184MOL0     C24185   2.916  11.873   0.441  0.3422 -0.1049  0.9354
  184MOL0     O24186   2.912  11.876   0.298  0.2530  0.8367  0.1820
  184MOL0     C24187   3.005  11.942   0.220 -0.7654 -0.4879 -1.1627
  184MOL0     C24188   2.954  12.018   0.119 -1.3327  0.2456  0.9192
  184MOL0     C24189   3.026  12.083   0.016  0.7149 -0.8052 -0.1503
  184MOL0     C24190   3.165  12.093   0.035  0.0401 -0.8234  0.3490
  184MOL0     O24191   3.231  12.187  -0.039  0.6994 -0.2749  1.0875
  184MOL0     C24192   3.320  12.276   0.027  0.9554 -1.0502 -0.7053
  184MOL0     C24193   3.397  12.366  -0.064 -1.5844 -0.0956  0.3288
  184MOL0     C24194   3.493  12.292  -0.160 -0.1244  0.3637 -0.2768
  184MOL0     C24195   3.553  12.385  -0.278  0.1382  0.1064  0.2986
  184MOL0     C24196   3.633  12.313  -0.389  0.2370 -0.2346  0.3004
  184MOL0     C24197   3.673  12.405  -0.510  0.5654  0.5826  0.2781
  184MOL0     C24198   3.551  12.452  -0.583  0.8435 -0.4444  0.6730
  184MOL0     C24199   3.577  12.542  -0.702 -0.1620 -0.7222  0.3285
  184MOL0    Cl24200   3.699  12.468  -0.819  0.4911 -0.3459 -0.3971
  184MOL0     C24201   3.223  12.022   0.142  1.1332 -0.2150 -0.4710
  184MOL0     C24202   3.146  11.942   0.231  0.3818  0.9427  0.6032
  184MOL0     O24203   2.988  11.949   0.511 -0.7851 -0.0113  0.2529
  184MOL0     C24204   2.862  11.755   0.654 -0.2696 -0.0416 -0.8632
  184MOL0     C24205   2.790  11.653   0.709  0.7229  0.2976  0.9538
  184MOL0     N24206   2.202  11.198   0.549  0.7897 -1.3334  0.5938
  184MOL0     N24207   2.094  11.181   0.478  0.4100  0.2197  0.3557
  184MOL0     C24208   1.618  10.602   1.296  0.0814  0.6453 -0.2733
  184MOL0     C24209   1.598  10.604   1.435  0.6403 -0.3091  0.3277
  184MOL0     C24210   1.468  10.630   1.853 -0.3142  0.6374  0.4009
  184MOL0     C24211   1.405  10.718   1.932  0.5634 -0.8549 -0.0932
  184MOL0     C24212   1.388  10.694   2.067  0.3868  0.2496  0.3689
  184MOL0     C24213   1.413  10.572   2.126 -0.1226  0.3988  0.6780
  184MOL0     O24214   1.384  10.531   2.255 -0.0505  0.4068 -0.4021
  184MOL0     C24215   1.434  10.623   2.358 -0.5450 -0.3178  0.4070
  184MOL0     C24216   1.360  10.609   2.490  0.2069  0.1109 -0.1531
  184MOL0     C24217   1.384  10.476   2.550  0.7399  0.3392  0.2577
  184MOL0     C24218   1.258  10.415   2.609  0.8888 -0.0300 -0.1665
  184MOL0     C24219   1.273  10.284   2.685  0.7089 -0.3976 -0.0405
  184MOL0     C24220   1.294  10.188   2.760  0.4739 -1.4375  0.4163
  184MOL0     C24221   1.463  10.476   2.034  0.1410  0.1779 -0.4589
  184MOL0     C24222   1.492  10.504   1.902 -0.2154  1.4683  0.7875
  184MOL0     H24223   1.278  10.532   1.439 -0.5038 -0.2740 -1.0219
  184MOL0     H24224   1.298  10.535   1.204  0.1384 -1.5786  0.8807
  184MOL0     H24225   1.601  10.432   0.932 -0.8477 -3.3169  1.6031
  184MOL0     H24226   1.686  10.410   1.087 -0.6846 -0.5225 -0.4565
  184MOL0     H24227   1.841  10.527   0.975 -0.1052  0.2862 -1.4173
  184MOL0     H24228   1.760  10.670   1.060  0.6348  2.1948 -2.3855
  184MOL0     H24229   1.610  10.672   0.859 -1.5072 -3.3181 -3.7514
  184MOL0     H24230   1.724  10.562   0.784 -2.7775  2.9003 -2.8864
  184MOL0     H24231   1.782  10.834   0.911  0.3897 -2.9510  2.1533
  184MOL0     H24232   1.913  10.737   0.854  0.2038 -1.4670  0.2984
  184MOL0     H24233   1.679  10.822   0.683  0.8079 -3.4336  4.9611
  184MOL0     H24234   1.833  10.746   0.626  1.5636 -0.8436  1.1645
  184MOL0     H24235   1.951  10.959   0.702 -0.1743 -1.3869  1.3646
  184MOL0     H24236   1.795  11.033   0.741  0.4462  2.9712 -2.5036
  184MOL0     H24237   1.875  10.942   0.463 -1.6970 -2.4743  0.7080
  184MOL0     H24238   1.716  10.991   0.507 -0.4271 -2.2919  2.8136
  184MOL0     H24239   1.781  11.223   0.562  1.6593  1.6412  0.7917
  184MOL0     H24240   1.841  11.191   0.406  1.9332  1.4707  0.4765
  184MOL0     H24241   1.948  11.246   0.763 -1.4123  0.9252 -0.7919
  184MOL0     H24242   2.276  11.217   0.846 -3.1605  0.0379  2.9856
  184MOL0     H24243   2.172  11.367   0.838 -0.1967  1.4022 -2.6701
  184MOL0     H24244   2.304  11.483   0.696 -1.8833 -1.0321 -0.1821
  184MOL0     H24245   2.402  11.354   0.638 -0.1968 -3.6335  1.2726
  184MOL0     H24246   2.426  11.426   0.939  0.0259 -2.1033 -0.0016
  184MOL0     H24247   2.500  11.287   0.856  2.6155  1.1207 -2.9107
  184MOL0     H24248   2.690  11.439   0.876  0.5597 -1.3966  1.1075
  184MOL0     H24249   2.583  11.581   0.846 -0.4273  0.2283 -0.6668
  184MOL0     H24250   2.638  11.524   0.444 -0.5271  1.5400 -0.5329
  184MOL0     H24251   2.746  11.699   0.336 -1.9970 -2.6110  0.0263
  184MOL0     H24252   2.850  11.997   0.100 -0.8893 -0.2529 -1.0922
  184MOL0     H24253   2.974  12.134  -0.065  1.1792  0.4084  0.3076
  184MOL0     H24254   3.390  12.209   0.079 -2.0025 -3.0567  1.0218
  184MOL0     H24255   3.271  12.323   0.113 -0.3767 -0.6556 -1.6508
  184MOL0     H24256   3.464  12.425  -0.001 -1.7638  1.4982 -0.9157
  184MOL0     H24257   3.331  12.431  -0.122 -1.7869 -0.4379  0.1678
  184MOL0     H24258   3.448  12.197  -0.189 -2.8335  1.6957 -0.7649
  184MOL0     H24259   3.586  12.271  -0.105 -0.2289  0.1715 -0.1751
  184MOL0     H24260   3.478  12.454  -0.318 -1.1477  0.4544  3.0627
  184MOL0     H24261   3.615  12.458  -0.224 -0.5008  1.5365 -0.8522
  184MOL0     H24262   3.564  12.235  -0.422 -0.2436  0.3147 -0.0196
  184MOL0     H24263   3.718  12.262  -0.343 -0.3187 -2.6311 -1.1401
  184MOL0     H24264   3.739  12.339  -0.567  2.7348 -0.8616  4.1156
  184MOL0     H24265   3.745  12.481  -0.479 -1.7231  1.7295  3.2162
  184MOL0     H24266   3.488  12.369  -0.615  0.5284 -0.2951  0.8942
  184MOL0     H24267   3.489  12.512  -0.516  2.1405  2.6750 -0.7197
  184MOL0     H24268   3.629  12.636  -0.677 -0.3175  0.4083 -3.0997
  184MOL0     H24269   3.482  12.573  -0.747  0.3408 -0.7082 -0.7551
  184MOL0     H24270   3.328  12.026   0.169  0.7774 -3.4010  1.8186
  184MOL0     H24271   3.203  11.874   0.295 -0.7066 -2.7855 -2.0310
  184MOL0     H24272   2.927  11.822   0.709 -0.6561 -1.3285  1.2928
  184MOL0     H24273   2.795  11.626   0.813 -2.3976  0.2591  1.1966
  184MOL0     H24274   1.721  10.622   1.269 -0.9218  4.9435 -1.6246
  184MOL0     H24275   1.687  10.604   1.496 -0.2111 -2.1529  1.6964
  184MOL0     H24276   1.378  10.819   1.901  1.5139 -1.1506 -2.0689
  184MOL0     H24277   1.355  10.777   2.128  2.9217 -1.2755  4.1659
  184MOL0     H24278   1.408  10.724   2.324  0.8420 -0.1391 -0.1992
  184MOL0     H24279   1.541  10.606   2.373 -0.2131  1.2195 -0.0297
  184MOL0     H24280   1.411  10.683   2.553  2.2311  0.1156 -1.6936
  184MOL0     H24281   1.256  10.640   2.476  0.9054  2.9650  0.2780
  184MOL0     H24282   1.467  10.502   2.617  1.9612 -0.6616 -0.8052
  184MOL0     H24283   1.441  10.410   2.484 -1.9617 -1.5062 -0.3568
  184MOL0     H24284   1.207  10.484   2.677 -0.0500 -2.6915  2.0234
  184MOL0     H24285   1.191  10.409   2.523  0.2196  0.5845  0.2941
  184MOL0     H24286   1.320  10.115   2.833  0.6547 -1.5413  0.2485
  184MOL0     H24287   1.487  10.371   2.051  0.0093  0.1512 -0.4352
  184MOL0     H24288   1.519  10.423   1.835  1.6317 -0.8493  4.0467
  185MOL0     O24289   3.843  11.254   5.648  0.5239  0.1018  0.2667
  185MOL0     C24290   3.900  11.154   5.686 -0.7002  0.3952  0.2437
  185MOL0     O24291   4.027  11.144   5.737  0.0203  0.0064  0.3672
  185MOL0     C24292   4.100  11.263   5.743  0.0947  1.1503 -0.5680
  185MOL0     C24293   4.234  11.268   5.694  0.5093  0.3121 -1.8932
  185MOL0     C24294   4.317  11.375   5.721  0.1105 -0.7134  0.4522
  185MOL0     C24295   4.269  11.498   5.777 -0.1393  0.0604  0.2628
  185MOL0     O24296   4.348  11.612   5.753  0.7074 -0.1836 -1.0018
  185MOL0     C24297   4.308  11.736   5.807  0.1909  0.3099  0.0329
  185MOL0     C24298   4.438  11.792   5.858 -0.7611  0.6086 -0.1149
  185MOL0     C24299   4.432  11.947   5.871 -0.0365  0.5193  0.0461
  185MOL0     C24300   4.317  12.003   5.934 -0.1810 -0.6596  0.3599
  185MOL0     C24301   4.312  12.155   5.950  0.7479 -0.3232  0.1730
  185MOL0     C24302   4.443  12.228   6.016  0.0157  0.6675  0.5957
  185MOL0     C24303   4.416  12.364   6.055 -0.0705 -0.6997  0.0996
  185MOL0     C24304   4.373  12.472   5.941 -0.5791  0.5264  1.3528
  185MOL0     N24305   4.304  12.584   5.996  0.0955 -0.0680  0.4206
  185MOL0     C24306   4.338  12.649   6.114  0.7113  0.1322 -0.7092
  185MOL0     C24307   4.300  12.778   6.096  0.2080  0.0185  1.2019
  185MOL0     C24308   4.294  12.882   6.206 -0.2959 -0.2313  0.2118
  185MOL0     C24309   4.252  13.019   6.148 -0.8394 -0.0283  0.1006
  185MOL0     C24310   4.292  13.140   6.245 -0.3985  0.2805  0.3734
  185MOL0     C24311   4.218  13.267   6.210  0.3735  0.5473 -0.0780
  185MOL0     O24312   4.262  13.364   6.308 -0.5124 -1.0861  0.1125
  185MOL0     C24313   4.190  13.385   6.423  0.2719  0.2377  0.3504
  185MOL0     C24314   4.263  13.433   6.534  0.4535 -0.0574  0.5258
  185MOL0     C24315   4.201  13.454   6.653  0.3888 -0.2391  0.2975
  185MOL0     C24316   4.063  13.448   6.662 -0.6801  0.0956 -0.1173
  185MOL0     C24317   4.002  13.486   6.799  0.5540  0.1442  0.1545
  185MOL0     O24318   3.865  13.512   6.793 -0.3232  0.2098 -0.7771
  185MOL0     C24319   3.816  13.597   6.889  0.2866 -0.1726 -0.4260
  185MOL0     C24320   3.871  13.720   6.928  0.0875 -0.6642  0.4134
  185MOL0     C24321   3.809  13.817   7.019 -0.0331 -0.3221  0.1826
  185MOL0     C24322   3.695  13.771   7.086  0.8002  0.6488  0.5278
  185MOL0     O24323   3.649  13.858   7.180  0.6145  0.0766 -0.5411
  185MOL0     C24324   3.511  13.874   7.203 -0.2014  0.1158  0.2057
  185MOL0     C24325   3.498  13.934   7.345 -0.2484 -0.3133  0.7471
  185MOL0     C24326   3.357  13.986   7.344  0.3098 -0.1618  0.1182
  185MOL0     C24327   3.302  13.982   7.480  0.3093 -0.3225 -0.1957
  185MOL0     C24328   3.359  14.106   7.550  0.6424 -0.1458  0.1228
  185MOL0     C24329   3.292  14.137   7.690  0.5875  0.1116 -0.6254
  185MOL0     C24330   3.188  14.253   7.684  0.0226 -0.0884 -0.0831
  185MOL0     C24331   3.181  14.320   7.826 -0.0382 -0.2857 -0.6470
  185MOL0    Cl24332   3.111  14.481   7.809 -0.2512 -0.1205 -0.1743
  185MOL0     C24333   3.635  13.641   7.059 -0.8883 -0.4619 -0.2822
  185MOL0     C24334   3.691  13.557   6.959 -0.2697  0.2583 -0.6435
  185MOL0     O24335   4.080  13.514   6.890 -0.1266  0.0984 -0.7499
  185MOL0     C24336   3.990  13.402   6.556  0.9710  1.0348 -0.4119
  185MOL0     C24337   4.054  13.361   6.442  0.0082 -0.8275 -0.7320
  185MOL0     N24338   4.250  12.790   5.961 -0.5611 -0.1982 -0.3486
  185MOL0     N24339   4.260  12.681   5.904  0.2063 -0.0168 -0.3508
  185MOL0     C24340   4.138  11.484   5.830 -0.1007  0.0785  0.2157
  185MOL0     C24341   4.052  11.370   5.817  0.8742 -0.2248  0.6210
  185MOL0     C24342   3.813  11.034   5.683  1.1338 -0.2455  0.3680
  185MOL0     C24343   3.866  10.907   5.718  0.4642  0.0682  1.0718
  185MOL0     C24344   3.780  10.797   5.718  0.7601 -0.4294  0.2458
  185MOL0     C24345   3.646  10.809   5.685 -0.2074 -0.3788 -0.9111
  185MOL0     O24346   3.574  10.696   5.676 -0.1713  0.2780 -0.0829
  185MOL0     C24347   3.435  10.677   5.721 -0.5725  0.7108  0.3339
  185MOL0     C24348   3.331  10.666   5.609 -1.0911 -0.1929  0.4689
  185MOL0     C24349   3.210  10.596   5.674  0.0430  0.8950 -0.8389
  185MOL0     C24350   3.107  10.544   5.566 -0.4871  0.2087 -0.2985
  185MOL0     C24351   3.085  10.630   5.455  0.8169  0.1100  0.3348
  185MOL0     C24352   3.071  10.716   5.371 -1.0587 -0.6559  0.6952
  185MOL0     C24353   3.594  10.935   5.652  0.3831  0.5499  0.6108
  185MOL0     C24354   3.673  11.052   5.654  0.5168 -0.1028 -0.2407
  185MOL0     H24355   4.285  11.181   5.656 -0.5605 -0.4092 -1.7213
  185MOL0     H24356   4.415  11.369   5.674  0.9779  1.9435  1.7087
  185MOL0     H24357   4.236  11.733   5.890 -1.2143 -0.3555 -1.1743
  185MOL0     H24358   4.270  11.807   5.733 -0.6307  2.2516  2.2038
  185MOL0     H24359   4.513  11.772   5.781 -0.9922  0.1386 -0.2190
  185MOL0     H24360   4.460  11.747   5.955  3.0914  0.2684 -0.9818
  185MOL0     H24361   4.429  11.989   5.770 -0.1659 -3.3898 -1.7570
  185MOL0     H24362   4.525  11.981   5.917 -0.7844 -1.0787  3.0532
  185MOL0     H24363   4.227  11.978   5.877  1.0390 -1.1407 -1.4393
  185MOL0     H24364   4.307  11.969   6.038 -2.1285  2.0180  1.1753
  185MOL0     H24365   4.225  12.164   6.015  1.4942 -2.6823  1.6385
  185MOL0     H24366   4.294  12.190   5.848  1.3264 -1.1575 -0.2264
  185MOL0     H24367   4.538  12.225   5.962  1.2008  0.0558  2.6071
  185MOL0     H24368   4.464  12.183   6.114 -0.7908  2.5329  1.6718
  185MOL0     H24369   4.332  12.353   6.124 -0.5609 -1.7378 -0.6318
  185MOL0     H24370   4.496  12.413   6.111  0.0037  1.8934 -2.0479
  185MOL0     H24371   4.320  12.415   5.864  1.3489 -1.8065  1.6064
  185MOL0     H24372   4.464  12.504   5.889 -1.1739  0.3272  0.1723
  185MOL0     H24373   4.373  12.611   6.209  1.4169  0.3503 -0.8689
  185MOL0     H24374   4.391  12.875   6.255 -0.1445 -5.8882 -0.2021
  185MOL0     H24375   4.220  12.855   6.282 -2.2433 -1.2031 -1.8915
  185MOL0     H24376   4.144  13.023   6.132 -1.1228 -1.6482  1.2569
  185MOL0     H24377   4.297  13.037   6.051  0.5845 -1.5729  0.4223
  185MOL0     H24378   4.283  13.119   6.352 -1.8329  1.5669  0.5335
  185MOL0     H24379   4.396  13.169   6.225  0.2674 -2.4695 -0.6511
  185MOL0     H24380   4.111  13.246   6.226  0.5954  1.1883  2.7957
  185MOL0     H24381   4.238  13.301   6.108  0.5054 -1.1974 -0.6638
  185MOL0     H24382   4.371  13.436   6.525  0.3990 -2.3908 -2.0715
  185MOL0     H24383   4.261  13.475   6.740  0.8072 -1.1969  0.2579
  185MOL0     H24384   3.961  13.746   6.872  0.6351  0.0461  1.5525
  185MOL0     H24385   3.863  13.907   7.046  1.1808 -0.8212 -0.4795
  185MOL0     H24386   3.460  13.778   7.203  1.8772 -1.0696  1.4088
  185MOL0     H24387   3.472  13.928   7.116 -3.5630 -0.8195  0.9835
  185MOL0     H24388   3.563  14.020   7.364 -2.1313  2.0345 -2.4436
  185MOL0     H24389   3.514  13.860   7.424  1.2474 -2.2754 -1.2890
  185MOL0     H24390   3.291  13.912   7.297 -1.9227  1.4295  0.6274
  185MOL0     H24391   3.351  14.085   7.298  1.0330  1.5490  3.4711
  185MOL0     H24392   3.193  13.986   7.470  0.3894  0.1259 -0.9548
  185MOL0     H24393   3.322  13.893   7.542  1.5306  0.3220  0.3620
  185MOL0     H24394   3.351  14.198   7.491 -0.6719  0.0256  0.5489
  185MOL0     H24395   3.467  14.086   7.555  0.6736 -0.3694 -1.2031
  185MOL0     H24396   3.371  14.158   7.763  2.0771 -0.8467 -1.8852
  185MOL0     H24397   3.234  14.051   7.725 -2.4246  2.1057 -0.3412
  185MOL0     H24398   3.210  14.328   7.608  2.7633  1.5000  2.0739
  185MOL0     H24399   3.083  14.223   7.674 -0.4605 -1.3742  5.4428
  185MOL0     H24400   3.281  14.340   7.865 -0.6642 -0.8231  1.3557
  185MOL0     H24401   3.127  14.262   7.902  2.6004 -0.6070  1.1029
  185MOL0     H24402   3.561  13.609   7.131 -0.7649  0.0081  0.0573
  185MOL0     H24403   3.631  13.469   6.939 -0.2834  0.2476 -0.5551
  185MOL0     H24404   3.884  13.382   6.543  1.4466 -0.7748 -1.9164
  185MOL0     H24405   4.001  13.310   6.363  0.3135 -0.1695 -1.3659
  185MOL0     H24406   4.085  11.560   5.885  1.8230  0.9985  0.8911
  185MOL0     H24407   3.950  11.362   5.853 -0.2363  3.6479 -1.1161
  185MOL0     H24408   3.966  10.891   5.757  0.7462 -2.0176 -0.3101
  185MOL0     H24409   3.824  10.701   5.742 -1.0268 -1.5722 -0.8233
  185MOL0     H24410   3.416  10.752   5.798  0.5479 -1.5997  3.0442
  185MOL0     H24411   3.432  10.592   5.789  3.2012  0.1637  0.0846
  185MOL0     H24412   3.303  10.768   5.581 -1.2308  0.5452  3.0249
  185MOL0     H24413   3.367  10.604   5.527  0.4661 -0.4749  1.3352
  185MOL0     H24414   3.163  10.672   5.738  0.2741  3.1798 -3.2336
  185MOL0     H24415   3.237  10.516   5.744 -1.2071  0.3946 -0.9073
  185MOL0     H24416   3.143  10.446   5.533 -2.3011 -0.3291 -0.8308
  185MOL0     H24417   3.021  10.522   5.630  1.0232 -2.8739  0.8692
  185MOL0     H24418   3.071  10.796   5.301  0.1111  1.7441  3.2363
  185MOL0     H24419   3.486  10.933   5.638  0.7180  0.7475 -3.1229
  185MOL0     H24420   3.629  11.147   5.626  1.8801  1.0132  1.2330
  186MOL0     O24421   8.897   1.001   1.452  0.1893  0.3686  0.3918
  186MOL0     C24422   8.835   0.910   1.393 -0.1018 -0.8645 -0.3256
  186MOL0     O24423   8.735   0.926   1.302  0.4487 -0.0196 -0.0241
  186MOL0     C24424   8.691   1.043   1.268 -0.1292  0.0050 -0.0218
  186MOL0     C24425   8.772   1.151   1.223  0.3805 -0.7166 -0.3612
  186MOL0     C24426   8.715   1.275   1.207 -0.2037 -0.3370  0.5150
  186MOL0     C24427   8.574   1.297   1.210  0.4184 -0.0452  0.0961
  186MOL0     O24428   8.525   1.423   1.187  0.5513  0.2172  0.0895
  186MOL0     C24429   8.591   1.521   1.097 -0.3453 -1.0406 -0.6730
  186MOL0     C24430   8.488   1.603   1.022 -0.5829  0.3530  0.2671
  186MOL0     C24431   8.388   1.526   0.933 -0.1331  0.9108  0.2121
  186MOL0     C24432   8.258   1.465   0.987 -0.3010  0.4663 -0.6212
  186MOL0     C24433   8.174   1.569   1.043  0.4004 -1.1940 -1.1176
  186MOL0     C24434   8.043   1.518   1.088  0.9398 -0.7935  0.2501
  186MOL0     C24435   7.965   1.616   1.184  0.6707  0.6010 -0.4936
  186MOL0     C24436   7.832   1.556   1.233 -0.5643  0.1029 -0.5805
  186MOL0     N24437   7.732   1.541   1.119 -0.6805  1.2152  0.6652
  186MOL0     C24438   7.691   1.639   1.035 -0.1363  0.0849 -0.1874
  186MOL0     C24439   7.617   1.576   0.938 -0.5367 -0.4998 -0.0850
  186MOL0     C24440   7.545   1.659   0.832 -0.2251  0.3976 -0.5312
  186MOL0     C24441   7.490   1.586   0.710  0.5677 -1.3722 -0.1449
  186MOL0     C24442   7.589   1.519   0.621  0.5801  0.4157  0.2590
  186MOL0     C24443   7.654   1.616   0.522  0.2130 -0.0666  0.1413
  186MOL0     O24444   7.716   1.542   0.419  0.2769 -0.6757  0.5345
  186MOL0     C24445   7.839   1.490   0.447  0.5990 -0.1186 -0.8169
  186MOL0     C24446   7.906   1.514   0.565  0.2547 -0.3948 -0.6351
  186MOL0     C24447   8.042   1.474   0.582  0.9758  0.0891 -1.2546
  186MOL0     C24448   8.101   1.395   0.477 -0.2315  0.2496  0.6326
  186MOL0     C24449   8.244   1.360   0.483  0.0279  0.1899 -0.7539
  186MOL0     O24450   8.306   1.309   0.378  0.5864  0.5682 -0.1169
  186MOL0     C24451   8.440   1.315   0.378 -0.7033  1.4619 -0.1105
  186MOL0     C24452   8.523   1.230   0.455  1.1891 -0.2014 -0.0978
  186MOL0     C24453   8.663   1.237   0.449  0.2843 -0.2137 -0.1725
  186MOL0     C24454   8.723   1.329   0.360 -0.8063 -0.0585  0.6100
  186MOL0     O24455   8.858   1.324   0.366  0.2809  0.2245  0.8027
  186MOL0     C24456   8.952   1.368   0.269 -0.0245  0.3327  0.0539
  186MOL0     C24457   9.077   1.390   0.362  0.7675 -0.8221  0.6402
  186MOL0     C24458   9.048   1.503   0.462  0.3411 -0.0060  0.0691
  186MOL0     C24459   9.182   1.557   0.524 -0.1047  1.1609  0.2888
  186MOL0     C24460   9.174   1.650   0.643 -0.3465 -0.1295  0.7316
  186MOL0     C24461   9.111   1.575   0.765  0.1257  0.3446  0.5641
  186MOL0     C24462   9.111   1.657   0.888 -1.1962 -0.7413  0.0320
  186MOL0     C24463   9.041   1.604   1.008 -0.1747 -0.0052  0.7409
  186MOL0    Cl24464   9.143   1.481   1.079  0.0790 -0.2478  0.0225
  186MOL0     C24465   8.646   1.406   0.275  0.7277 -0.0580  0.2194
  186MOL0     C24466   8.503   1.406   0.284 -0.6513  0.3061 -0.3204
  186MOL0     O24467   8.290   1.385   0.596  0.5400 -0.6293 -0.1987
  186MOL0     C24468   8.031   1.364   0.354 -0.3929 -0.8585  0.1800
  186MOL0     C24469   7.899   1.411   0.338  0.2072 -0.0088 -0.2668
  186MOL0     N24470   7.608   1.440   0.951 -0.4184  0.0504  0.0278
  186MOL0     N24471   7.677   1.422   1.063  0.1392 -0.2608 -0.6848
  186MOL0     C24472   8.494   1.183   1.232 -0.3029  0.0133  0.0328
  186MOL0     C24473   8.554   1.060   1.267 -0.5141 -0.3406  0.4466
  186MOL0     C24474   8.879   0.780   1.428  0.0960  0.6162 -0.9913
  186MOL0     C24475   8.792   0.672   1.438  0.6001  0.0254  0.2675
  186MOL0     C24476   8.837   0.539   1.452 -0.1016 -0.9668  0.2325
  186MOL0     C24477   8.980   0.513   1.459 -0.4347  0.1240 -0.6137
  186MOL0     O24478   9.014   0.391   1.479 -0.2982 -0.0266  0.5743
  186MOL0     C24479   9.145   0.356   1.518 -0.5251  0.2017 -0.3925
  186MOL0     C24480   9.151   0.207   1.544 -0.2785  0.9098  0.7318
  186MOL0     C24481   9.063   0.156   1.660  0.2961 -0.1296 -0.5908
  186MOL0     C24482   9.066   0.003   1.647 -0.6795 -0.4529 -0.3022
  186MOL0     C24483   9.185  -0.057   1.712 -0.5230  1.0155 -1.0049
  186MOL0     C24484   9.278  -0.097   1.779 -0.4727  0.7162 -0.9399
  186MOL0     C24485   9.066   0.624   1.444 -1.0982  0.5437 -0.1534
  186MOL0     C24486   9.018   0.754   1.426  0.4235 -0.1331 -0.2487
  186MOL0     H24487   8.880   1.145   1.233  0.1267 -2.0680  4.4520
  186MOL0     H24488   8.773   1.366   1.194 -0.6937  0.2962  2.5092
  186MOL0     H24489   8.660   1.474   1.026  1.2691 -0.3840  0.4233
  186MOL0     H24490   8.660   1.574   1.163  0.3082 -2.3656 -0.2644
  186MOL0     H24491   8.548   1.674   0.965 -2.0645  2.1556  0.8685
  186MOL0     H24492   8.434   1.664   1.095  0.2277  0.4017  0.8291
  186MOL0     H24493   8.437   1.438   0.891  0.2803  1.6246 -0.8348
  186MOL0     H24494   8.373   1.595   0.850  3.4630  2.3052  0.5176
  186MOL0     H24495   8.209   1.416   0.903  3.0326 -2.5414 -1.0488
  186MOL0     H24496   8.276   1.389   1.063  2.2471  1.0980 -0.4851
  186MOL0     H24497   8.156   1.653   0.975  2.1273  1.4433  1.4328
  186MOL0     H24498   8.216   1.619   1.131 -3.3138  2.6936 -1.2225
  186MOL0     H24499   8.058   1.421   1.137 -1.9857 -0.6798  1.5356
  186MOL0     H24500   7.982   1.512   0.998  0.8812 -4.3312  0.3891
  186MOL0     H24501   8.028   1.647   1.268  2.6546  4.7263 -3.1846
  186MOL0     H24502   7.938   1.704   1.126 -2.6262 -0.5304 -0.8534
  186MOL0     H24503   7.777   1.608   1.313  1.4238 -0.2722  1.1253
  186MOL0     H24504   7.857   1.455   1.267 -1.2851 -0.5795 -2.0240
  186MOL0     H24505   7.692   1.745   1.056 -1.2231 -0.4370  3.1304
  186MOL0     H24506   7.609   1.740   0.795  0.4314  1.0711  1.9014
  186MOL0     H24507   7.463   1.709   0.885  1.0619  1.4060  0.5985
  186MOL0     H24508   7.427   1.656   0.654  2.6684  1.6003  0.9958
  186MOL0     H24509   7.429   1.497   0.732  0.0575 -1.2226 -0.9210
  186MOL0     H24510   7.660   1.463   0.682  1.8485  0.3395 -1.2232
  186MOL0     H24511   7.535   1.443   0.564 -0.5586  2.2261 -1.2035
  186MOL0     H24512   7.716   1.693   0.569 -1.9009  0.7751  1.6913
  186MOL0     H24513   7.564   1.656   0.475 -1.9835 -2.1416  2.3022
  186MOL0     H24514   7.880   1.581   0.646  3.5189  1.1117 -0.6800
  186MOL0     H24515   8.086   1.494   0.679 -0.0185 -1.2975 -0.4741
  186MOL0     H24516   8.469   1.168   0.526  1.0566  0.1725  0.1316
  186MOL0     H24517   8.718   1.170   0.514  0.5720 -0.3997 -0.5981
  186MOL0     H24518   8.913   1.455   0.214 -2.0239 -0.5033  0.0616
  186MOL0     H24519   8.980   1.290   0.198  0.5455  1.4244 -0.9469
  186MOL0     H24520   9.168   1.418   0.309  1.7372 -2.6255  1.2517
  186MOL0     H24521   9.093   1.296   0.416 -0.7517 -1.6989 -0.3896
  186MOL0     H24522   8.984   1.469   0.544 -0.7967  3.4020  0.7971
  186MOL0     H24523   8.980   1.577   0.417  0.0440 -0.0890  0.3740
  186MOL0     H24524   9.243   1.469   0.544  0.4044  1.4453  0.0215
  186MOL0     H24525   9.243   1.599   0.443  0.4449  0.9379  0.5773
  186MOL0     H24526   9.099   1.722   0.611 -0.2129  0.0031  0.7172
  186MOL0     H24527   9.270   1.699   0.662  0.4736 -1.7668  1.0068
  186MOL0     H24528   9.155   1.478   0.791 -2.2121 -1.1198 -0.5891
  186MOL0     H24529   9.008   1.554   0.734  0.4832 -0.3197 -0.2214
  186MOL0     H24530   9.214   1.676   0.919 -1.9606 -0.7779  2.7975
  186MOL0     H24531   9.060   1.747   0.852 -2.0637 -1.6589 -1.0902
  186MOL0     H24532   8.947   1.560   0.974  0.0192  0.6434 -0.7063
  186MOL0     H24533   9.021   1.688   1.075 -1.7342  0.5358 -0.3519
  186MOL0     H24534   8.677   1.468   0.192 -1.7198  1.7915  0.5775
  186MOL0     H24535   8.442   1.448   0.205 -2.0885 -2.1838 -0.6329
  186MOL0     H24536   8.086   1.319   0.271  3.2379  2.4167  0.5101
  186MOL0     H24537   7.851   1.400   0.242  0.1182 -0.3785 -0.1821
  186MOL0     H24538   8.386   1.192   1.241 -0.4274 -1.1030 -0.2212
  186MOL0     H24539   8.512   0.964   1.294  2.0197 -1.6832 -0.0656
  186MOL0     H24540   8.688   0.697   1.450  1.0128  0.8485  2.6045
  186MOL0     H24541   8.763   0.460   1.450  0.1541 -1.2286 -2.5448
  186MOL0     H24542   9.177   0.410   1.608 -0.0446 -1.7309  0.6301
  186MOL0     H24543   9.209   0.383   1.434 -0.2088  2.5281  0.5029
  186MOL0     H24544   9.118   0.155   1.453  0.6201  2.6297 -0.6418
  186MOL0     H24545   9.256   0.181   1.558 -0.6655 -1.8521 -0.7493
  186MOL0     H24546   8.960   0.188   1.642 -0.4356 -2.1372 -0.2255
  186MOL0     H24547   9.097   0.193   1.757 -1.4512 -0.4670  0.1866
  186MOL0     H24548   8.976  -0.030   1.699 -0.0071 -1.3982  0.2940
  186MOL0     H24549   9.054  -0.030   1.543  0.2501 -1.4850 -0.0990
  186MOL0     H24550   9.357  -0.137   1.839  0.2706 -2.0573 -3.5038
  186MOL0     H24551   9.172   0.612   1.459 -1.4773 -2.8240  0.4657
  186MOL0     H24552   9.084   0.839   1.407 -2.8282  2.3804 -1.2270
  187MOL0     O24553   4.144   4.663  11.040 -1.0496 -0.0682 -0.3840
  187MOL0     C24554   4.104   4.695  11.151  0.1857 -0.1521  0.3652
  187MOL0     O24555   4.112   4.625  11.271 -0.5602 -0.4645 -0.4049
  187MOL0     C24556   4.177   4.502  11.264  0.4139 -0.0879 -0.2930
  187MOL0     C24557   4.093   4.393  11.248 -0.9169  0.9512 -0.6189
  187MOL0     C24558   4.134   4.268  11.224  0.3911  0.6225  0.2130
  187MOL0     C24559   4.268   4.235  11.198  0.4247 -0.0822  0.1210
  187MOL0     O24560   4.317   4.109  11.179  0.5764  0.0809  0.1852
  187MOL0     C24561   4.255   4.024  11.078  0.3639 -0.9188  0.4288
  187MOL0     C24562   4.354   3.923  11.050  0.1283 -0.1442 -1.2034
  187MOL0     C24563   4.300   3.803  10.977 -0.6675  0.3139 -0.0768
  187MOL0     C24564   4.393   3.681  10.996  0.0234 -0.0973  0.7770
  187MOL0     C24565   4.344   3.561  10.924  0.3172 -0.4701 -0.3635
  187MOL0     C24566   4.225   3.484  10.982  0.0972  0.8404 -0.0409
  187MOL0     C24567   4.216   3.337  10.919 -0.4387 -0.8035 -0.1722
  187MOL0     C24568   4.101   3.263  10.994 -0.5789  0.3715  0.9253
  187MOL0     N24569   4.121   3.244  11.136  0.0755  1.0826 -1.0588
  187MOL0     C24570   4.222   3.165  11.191 -0.6438  0.4544  0.7211
  187MOL0     C24571   4.187   3.162  11.328 -0.5407  0.0089  0.3984
  187MOL0     C24572   4.252   3.088  11.431 -0.2180 -0.4208  0.8193
  187MOL0     C24573   4.266   2.944  11.410  0.7233 -0.2299  0.5372
  187MOL0     C24574   4.333   2.883  11.541 -0.3921 -0.1752  0.4201
  187MOL0     C24575   4.324   2.731  11.533 -0.3855  0.7112 -0.0474
  187MOL0     O24576   4.428   2.682  11.451 -0.1164 -0.0456 -0.0879
  187MOL0     C24577   4.410   2.554  11.401 -0.1882  0.4324  0.3234
  187MOL0     C24578   4.528   2.489  11.377  0.1359 -0.1532 -1.2027
  187MOL0     C24579   4.535   2.362  11.331  0.0291  0.0201  0.0813
  187MOL0     C24580   4.424   2.294  11.300  0.8793  0.1095  1.0617
  187MOL0     C24581   4.442   2.165  11.233  0.1066  0.1211  0.8211
  187MOL0     O24582   4.347   2.142  11.138 -0.4799 -0.5068 -0.0798
  187MOL0     C24583   4.345   2.013  11.084  0.2474 -0.6059  0.0568
  187MOL0     C24584   4.327   1.888  11.149 -0.3701  0.7171 -0.7498
  187MOL0     C24585   4.346   1.766  11.080  0.1986  0.0041  0.7439
  187MOL0     C24586   4.350   1.774  10.939 -0.3247  0.1291 -0.0284
  187MOL0     O24587   4.365   1.660  10.868  0.3347  0.2014 -0.3433
  187MOL0     C24588   4.499   1.610  10.872 -0.6571 -0.4171 -0.3512
  187MOL0     C24589   4.519   1.483  10.967 -0.0223 -0.6162 -0.8672
  187MOL0     C24590   4.412   1.373  10.930 -0.3725  0.1747 -0.2661
  187MOL0     C24591   4.430   1.240  11.007  0.5115  1.0136 -0.8244
  187MOL0     C24592   4.570   1.195  11.015 -0.5612  0.8687  0.3377
  187MOL0     C24593   4.646   1.165  10.880 -0.0801  0.7509  0.4550
  187MOL0     C24594   4.796   1.177  10.897  0.1978  0.0218 -0.3246
  187MOL0     C24595   4.873   1.180  10.755 -0.4763  0.8448 -0.0943
  187MOL0    Cl24596   4.871   1.013  10.697 -0.0963  0.1572 -0.0310
  187MOL0     C24597   4.346   1.895  10.873  0.1846 -0.0952 -0.1589
  187MOL0     C24598   4.343   2.012  10.943  0.1103 -1.0427 -0.8250
  187MOL0     O24599   4.538   2.094  11.262  0.1426  0.0879 -0.4460
  187MOL0     C24600   4.298   2.346  11.336 -0.4321  0.9246 -0.3922
  187MOL0     C24601   4.292   2.476  11.388 -0.6051  0.3634 -0.6993
  187MOL0     N24602   4.072   3.239  11.348  0.5577 -0.9956 -0.1165
  187MOL0     N24603   4.027   3.281  11.234 -0.5511 -0.4832 -0.5628
  187MOL0     C24604   4.358   4.337  11.233 -0.0556 -0.7682 -0.3376
  187MOL0     C24605   4.316   4.474  11.265 -0.6547  0.1540  0.5230
  187MOL0     C24606   4.018   4.820  11.164 -0.5596  0.0378 -0.1373
  187MOL0     C24607   4.009   4.918  11.059 -0.1925 -0.0825 -0.2825
  187MOL0     C24608   3.930   5.031  11.084 -0.4534 -0.3836 -0.7468
  187MOL0     C24609   3.878   5.063  11.200  0.0508  0.0322 -0.7089
  187MOL0     O24610   3.805   5.187  11.210  0.0376  0.4445  0.6243
  187MOL0     C24611   3.813   5.262  11.330  0.9314  0.7435  0.1984
  187MOL0     C24612   3.747   5.398  11.313 -0.6436  0.8538 -0.1714
  187MOL0     C24613   3.721   5.485  11.440  0.2760  0.5861  0.2471
  187MOL0     C24614   3.675   5.633  11.415 -0.1538  0.8060 -0.5006
  187MOL0     C24615   3.584   5.642  11.305  0.1756  0.5135  0.5548
  187MOL0     C24616   3.524   5.624  11.199 -0.9924  0.2310  0.7854
  187MOL0     C24617   3.898   4.979  11.310  0.9291  0.8058 -0.0837
  187MOL0     C24618   3.965   4.858  11.287  0.4298 -0.1194  0.2276
  187MOL0     H24619   3.987   4.414  11.256 -2.4907 -5.3829  0.7681
  187MOL0     H24620   4.060   4.190  11.210  1.4056 -0.0528 -1.7091
  187MOL0     H24621   4.253   4.061  10.975 -0.5749 -2.8221 -0.2884
  187MOL0     H24622   4.156   3.992  11.112 -0.4087 -1.2698 -1.9596
  187MOL0     H24623   4.397   3.893  11.146 -1.0263 -2.2768 -1.2881
  187MOL0     H24624   4.444   3.967  11.005  1.6057 -2.9386 -1.2035
  187MOL0     H24625   4.300   3.830  10.871  1.7562  1.6159  0.1887
  187MOL0     H24626   4.199   3.784  11.012 -0.3527  1.0747  1.3045
  187MOL0     H24627   4.494   3.699  10.959 -0.4462 -0.3530 -0.7057
  187MOL0     H24628   4.411   3.655  11.101 -0.9631  1.1614  1.2762
  187MOL0     H24629   4.432   3.496  10.932  1.1372  0.5929 -0.5823
  187MOL0     H24630   4.321   3.575  10.818 -2.2039  1.4136  0.3185
  187MOL0     H24631   4.129   3.533  10.964 -0.8806 -0.5503  1.0693
  187MOL0     H24632   4.246   3.467  11.088  0.2797  2.1894  0.1577
  187MOL0     H24633   4.200   3.336  10.811  0.1653  0.8839 -0.3116
  187MOL0     H24634   4.310   3.283  10.934  0.2189  0.3812  0.1482
  187MOL0     H24635   4.091   3.163  10.950 -2.6217 -0.7979  3.7798
  187MOL0     H24636   4.012   3.321  10.968 -0.5127  0.1727  0.2125
  187MOL0     H24637   4.302   3.106  11.148 -2.1231  0.6905 -2.5952
  187MOL0     H24638   4.188   3.111  11.517 -1.3641 -1.7178  0.3385
  187MOL0     H24639   4.355   3.123  11.447  1.5777 -4.2369 -1.0914
  187MOL0     H24640   4.342   2.932  11.332  1.5131  2.0771  0.8691
  187MOL0     H24641   4.176   2.897  11.371 -0.8868  3.8475 -1.2784
  187MOL0     H24642   4.434   2.925  11.549 -0.0573 -0.6712 -0.8276
  187MOL0     H24643   4.288   2.921  11.633 -0.1572 -0.6260  0.7279
  187MOL0     H24644   4.225   2.715  11.488 -0.3277  0.2324 -0.0119
  187MOL0     H24645   4.331   2.697  11.637  0.8597  4.2571  1.1421
  187MOL0     H24646   4.614   2.551  11.399 -2.5951  3.0818  1.6003
  187MOL0     H24647   4.631   2.316  11.307  1.1506  1.8042  0.9579
  187MOL0     H24648   4.301   1.875  11.253  1.7730  0.8831 -0.1326
  187MOL0     H24649   4.353   1.672  11.134 -0.9405  0.3194  1.4698
  187MOL0     H24650   4.574   1.687  10.890 -0.9065 -1.0318  4.6232
  187MOL0     H24651   4.508   1.578  10.768  1.4095  1.2815 -0.7708
  187MOL0     H24652   4.513   1.504  11.075 -1.3737  0.3616 -1.1073
  187MOL0     H24653   4.622   1.450  10.951  0.7730 -0.3260  2.7670
  187MOL0     H24654   4.421   1.365  10.822  1.6919 -0.5151 -0.0833
  187MOL0     H24655   4.314   1.419  10.947 -0.7756 -0.9436  0.5577
  187MOL0     H24656   4.385   1.240  11.107  1.7720 -3.2982 -0.0296
  187MOL0     H24657   4.366   1.162  10.964 -1.3316 -0.1989  3.5232
  187MOL0     H24658   4.572   1.102  11.072  1.5641 -0.8307 -2.2321
  187MOL0     H24659   4.619   1.267  11.081  1.3393 -0.1334  0.1004
  187MOL0     H24660   4.635   1.253  10.815 -1.4467 -1.1968 -2.1846
  187MOL0     H24661   4.604   1.074  10.835  1.0587 -0.7193  2.2527
  187MOL0     H24662   4.804   1.269  10.956 -0.1284 -0.5938  0.7228
  187MOL0     H24663   4.820   1.087  10.956  2.3023 -0.2905 -1.5506
  187MOL0     H24664   4.975   1.222  10.755 -0.4601  0.8061 -0.0244
  187MOL0     H24665   4.825   1.247  10.684  2.3083  3.4944  0.2698
  187MOL0     H24666   4.350   1.895  10.765 -2.1950 -0.3172 -0.2859
  187MOL0     H24667   4.346   2.101  10.881 -0.9429 -3.7945 -5.2301
  187MOL0     H24668   4.211   2.284  11.320 -0.2499  0.4516  0.3754
  187MOL0     H24669   4.190   2.502  11.414 -1.1308 -1.9911 -0.2189
  187MOL0     H24670   4.461   4.312  11.256  0.3262  2.0007  1.5103
  187MOL0     H24671   4.391   4.549  11.286  0.9275 -1.6943  1.8701
  187MOL0     H24672   4.062   4.928  10.965 -0.8214  4.6289 -0.3589
  187MOL0     H24673   3.897   5.091  11.000 -1.1636 -0.4790 -0.5476
  187MOL0     H24674   3.919   5.283  11.346  2.5162 -5.2919  0.2621
  187MOL0     H24675   3.782   5.199  11.414  5.5242 -2.2036  0.0752
  187MOL0     H24676   3.812   5.447  11.240 -0.2624 -0.7784 -0.9757
  187MOL0     H24677   3.645   5.386  11.276 -1.0672  3.5287 -0.0576
  187MOL0     H24678   3.813   5.497  11.496 -0.8915  0.5180  2.2567
  187MOL0     H24679   3.641   5.436  11.496  1.9218 -0.9959  1.2953
  187MOL0     H24680   3.633   5.661  11.513  2.2676  0.8263  0.6151
  187MOL0     H24681   3.769   5.687  11.399 -0.4319  1.2778 -0.5947
  187MOL0     H24682   3.470   5.599  11.110 -0.4366  1.1174  0.1925
  187MOL0     H24683   3.860   4.999  11.409  1.1545  0.5630  0.0515
  187MOL0     H24684   3.968   4.806  11.382  1.8678  2.6119  1.8024
  188MOL0     O24685   1.273   5.755   3.723 -0.4288  0.4776  0.3261
  188MOL0     C24686   1.345   5.748   3.623  0.6219 -0.5368  0.5653
  188MOL0     O24687   1.363   5.644   3.542 -0.3293  0.2714  0.5093
  188MOL0     C24688   1.254   5.557   3.538 -0.1323 -0.8742 -0.3287
  188MOL0     C24689   1.261   5.430   3.592 -0.2309 -0.4191  0.2796
  188MOL0     C24690   1.142   5.362   3.592  1.0306  1.4638  0.2536
  188MOL0     C24691   1.025   5.404   3.535 -0.5250  0.0197  0.1249
  188MOL0     O24692   0.917   5.323   3.536 -0.5274 -0.4652 -0.7248
  188MOL0     C24693   0.795   5.377   3.463  0.2023  0.4967 -0.2815
  188MOL0     C24694   0.685   5.446   3.546 -0.4106  1.1900  0.5785
  188MOL0     C24695   0.600   5.357   3.641  0.1987 -0.1234  0.5917
  188MOL0     C24696   0.504   5.286   3.553  0.5808  0.3970 -0.0314
  188MOL0     C24697   0.447   5.151   3.617 -0.0784 -0.1063 -0.1091
  188MOL0     C24698   0.310   5.126   3.564  0.3725 -0.7693 -1.3240
  188MOL0     C24699   0.272   4.986   3.619 -0.7423 -0.2919 -0.1442
  188MOL0     C24700   0.141   4.934   3.551  0.8211 -0.5384 -0.1792
  188MOL0     N24701   0.158   4.878   3.415  0.6190  0.1775 -0.0782
  188MOL0     C24702   0.191   4.940   3.295 -0.4891  0.6215  0.7239
  188MOL0     C24703   0.175   4.845   3.204 -0.0521  0.3140  0.5527
  188MOL0     C24704   0.190   4.851   3.055  0.0639 -0.3440 -0.1366
  188MOL0     C24705   0.074   4.914   2.980 -0.9785 -0.0322 -0.1926
  188MOL0     C24706   0.085   4.897   2.830  0.1156 -0.0184 -0.1493
  188MOL0     C24707  -0.035   4.963   2.747  0.3841 -0.3447 -0.9057
  188MOL0     O24708  -0.039   5.107   2.782 -0.3392  0.0683 -0.5709
  188MOL0     C24709  -0.152   5.183   2.760  0.2722 -0.5436 -0.1726
  188MOL0     C24710  -0.148   5.321   2.802 -0.2676  0.7164 -0.1514
  188MOL0     C24711  -0.256   5.401   2.781 -1.1807  0.2739  0.1188
  188MOL0     C24712  -0.387   5.343   2.747 -0.7878 -0.8276 -0.4080
  188MOL0     C24713  -0.504   5.426   2.744 -0.1779 -0.2301 -0.0324
  188MOL0     O24714  -0.608   5.380   2.666 -0.7530  0.2343 -0.0277
  188MOL0     C24715  -0.699   5.453   2.594  1.1295  0.2560  0.4855
  188MOL0     C24716  -0.676   5.579   2.547 -0.0455 -0.0533 -1.3886
  188MOL0     C24717  -0.782   5.651   2.495  0.6018  0.4267  0.6105
  188MOL0     C24718  -0.906   5.590   2.462 -0.7706  0.1436  0.1641
  188MOL0     O24719  -0.995   5.656   2.370 -0.3463  0.2947 -1.0146
  188MOL0     C24720  -1.038   5.786   2.386 -0.3743 -0.4960 -0.4418
  188MOL0     C24721  -1.113   5.835   2.262  0.0918 -0.2754  0.5049
  188MOL0     C24722  -1.269   5.785   2.261 -1.3605  0.6271  0.0971
  188MOL0     C24723  -1.347   5.859   2.164  0.4320 -0.6965  1.0390
  188MOL0     C24724  -1.494   5.805   2.129  1.1429 -0.8884  0.1939
  188MOL0     C24725  -1.505   5.657   2.077 -0.3756 -0.2250  0.2177
  188MOL0     C24726  -1.646   5.615   2.049  0.1616  0.6858  0.2382
  188MOL0     C24727  -1.686   5.592   1.898  0.0395 -1.1130  0.1855
  188MOL0    Cl24728  -1.599   5.467   1.792 -0.4303 -0.0673  0.2004
  188MOL0     C24729  -0.927   5.457   2.497  0.1035  0.0932  0.2110
  188MOL0     C24730  -0.822   5.385   2.560 -0.3634  0.0737 -0.5120
  188MOL0     O24731  -0.494   5.538   2.786 -0.0631 -0.1816  0.3688
  188MOL0     C24732  -0.390   5.209   2.715 -0.3524  0.1276 -0.7240
  188MOL0     C24733  -0.277   5.133   2.721 -0.4729  0.3113 -0.3729
  188MOL0     N24734   0.163   4.719   3.265 -0.4412 -1.2590 -0.3116
  188MOL0     N24735   0.139   4.752   3.387 -0.0772 -0.0543 -0.2792
  188MOL0     C24736   1.020   5.530   3.483  0.2209  0.4388  0.1010
  188MOL0     C24737   1.129   5.604   3.481 -0.1987 -0.8085 -0.9412
  188MOL0     C24738   1.431   5.867   3.606  0.6502 -0.2792 -0.5631
  188MOL0     C24739   1.429   5.970   3.705 -0.6088 -0.4948  0.4514
  188MOL0     C24740   1.527   6.069   3.708  0.1370  0.4944  0.1390
  188MOL0     C24741   1.613   6.090   3.604  0.3647  0.0202  1.5499
  188MOL0     O24742   1.699   6.191   3.596  0.3846  0.1812  0.6243
  188MOL0     C24743   1.779   6.200   3.475  0.2966  0.8433  0.4151
  188MOL0     C24744   1.882   6.317   3.488  0.1009  0.5526  0.2931
  188MOL0     C24745   1.983   6.319   3.375 -0.4786 -0.1346 -0.0767
  188MOL0     C24746   1.919   6.356   3.245 -0.3468 -1.0115  0.1332
  188MOL0     C24747   2.020   6.341   3.139 -0.3780 -0.0635  0.3192
  188MOL0     C24748   2.110   6.322   3.062 -0.2566  0.6913 -0.3020
  188MOL0     C24749   1.604   5.988   3.504  0.9632 -0.8932 -0.1456
  188MOL0     C24750   1.516   5.885   3.500  0.5814  0.5470  0.4043
  188MOL0     H24751   1.352   5.392   3.638  2.4916  3.0168 -1.7588
  188MOL0     H24752   1.155   5.258   3.619  2.1971  1.6070  0.2831
  188MOL0     H24753   0.757   5.278   3.434  1.7601  1.1791 -5.5278
  188MOL0     H24754   0.813   5.425   3.367 -0.2202 -1.7243 -1.5352
  188MOL0     H24755   0.618   5.491   3.472  0.1104 -0.9714 -1.2967
  188MOL0     H24756   0.742   5.519   3.604  1.8745 -0.3338  0.3834
  188MOL0     H24757   0.552   5.423   3.713  0.5993  0.9535 -0.0907
  188MOL0     H24758   0.670   5.293   3.695 -1.2792 -2.3917 -0.0565
  188MOL0     H24759   0.414   5.348   3.544 -0.8371 -1.3873  1.2074
  188MOL0     H24760   0.543   5.276   3.452  0.3013  1.4612 -0.2557
  188MOL0     H24761   0.434   5.161   3.726 -1.2982 -2.0276 -0.0120
  188MOL0     H24762   0.508   5.064   3.590  1.2269  0.4602  0.9157
  188MOL0     H24763   0.292   5.130   3.456  0.6758 -0.5343 -1.3665
  188MOL0     H24764   0.236   5.197   3.603 -0.5609 -1.1951 -2.2517
  188MOL0     H24765   0.346   4.907   3.599 -0.0289  0.4607 -0.5585
  188MOL0     H24766   0.263   4.995   3.727  0.6995 -0.0725 -0.0204
  188MOL0     H24767   0.067   5.014   3.559 -0.6664 -1.9653  1.0693
  188MOL0     H24768   0.098   4.848   3.603 -0.7014 -0.5920 -1.4509
  188MOL0     H24769   0.218   5.044   3.281  2.0742 -0.2396 -1.4994
  188MOL0     H24770   0.197   4.749   3.016 -0.2291 -1.3303  2.2069
  188MOL0     H24771   0.284   4.901   3.031  0.1830  0.6792  2.2217
  188MOL0     H24772   0.058   5.020   3.005  3.0176  1.0246 -1.4050
  188MOL0     H24773  -0.018   4.867   3.016 -1.4759  1.6971  0.9365
  188MOL0     H24774   0.175   4.949   2.796  0.1185  0.0098 -0.0975
  188MOL0     H24775   0.093   4.792   2.799 -0.2731  1.0173 -4.4288
  188MOL0     H24776  -0.125   4.908   2.774  1.2212 -3.3320 -3.5574
  188MOL0     H24777  -0.026   4.949   2.638  1.2604 -1.9199 -0.6571
  188MOL0     H24778  -0.062   5.376   2.838 -0.5630  0.0829  1.5860
  188MOL0     H24779  -0.242   5.504   2.811  1.2140 -0.3933  1.5987
  188MOL0     H24780  -0.589   5.637   2.574  2.6261 -3.0602 -2.9636
  188MOL0     H24781  -0.760   5.749   2.453  2.9260  0.4118  1.6119
  188MOL0     H24782  -0.956   5.855   2.406 -1.8835  0.5013  3.0034
  188MOL0     H24783  -1.107   5.787   2.471 -1.3182  3.1362 -1.1062
  188MOL0     H24784  -1.058   5.813   2.170 -2.7888  3.1926 -2.3543
  188MOL0     H24785  -1.125   5.944   2.273 -1.6224 -0.5540  1.8629
  188MOL0     H24786  -1.312   5.790   2.361 -2.1504 -2.7487  0.0139
  188MOL0     H24787  -1.258   5.679   2.237 -2.2364  0.1157  1.7847
  188MOL0     H24788  -1.341   5.963   2.197 -2.8455  0.5747 -1.7459
  188MOL0     H24789  -1.279   5.845   2.079  3.1906 -1.5328  3.2259
  188MOL0     H24790  -1.535   5.865   2.048  3.1298 -1.7416 -1.5512
  188MOL0     H24791  -1.549   5.805   2.224  0.2087  1.5676 -0.3002
  188MOL0     H24792  -1.462   5.592   2.154 -1.9669 -0.0991  1.2673
  188MOL0     H24793  -1.449   5.644   1.984 -1.3091  1.5754 -0.6356
  188MOL0     H24794  -1.663   5.515   2.090  3.0851 -0.5852 -1.3392
  188MOL0     H24795  -1.709   5.693   2.093  3.0301  1.4871  3.3421
  188MOL0     H24796  -1.668   5.688   1.849  2.6320 -0.7023  1.7670
  188MOL0     H24797  -1.794   5.573   1.897 -0.8615  3.0445 -0.4400
  188MOL0     H24798  -1.020   5.403   2.484 -0.1089  0.4771  0.1135
  188MOL0     H24799  -0.818   5.280   2.587  0.5747 -0.7804 -3.5777
  188MOL0     H24800  -0.486   5.179   2.675 -0.3134  0.8011 -1.3421
  188MOL0     H24801  -0.274   5.027   2.699  1.6062  0.3302 -0.4297
  188MOL0     H24802   0.929   5.574   3.444  0.3908  2.9978  2.3046
  188MOL0     H24803   1.129   5.703   3.435  0.2656  0.2881  1.2917
  188MOL0     H24804   1.363   5.958   3.790 -1.2098  0.7216  0.1927
  188MOL0     H24805   1.535   6.151   3.779 -2.1316  0.4329  0.5440
  188MOL0     H24806   1.727   6.225   3.382 -0.5546 -0.2182  0.5945
  188MOL0     H24807   1.836   6.108   3.457 -1.8224 -0.4372 -0.1170
  188MOL0     H24808   1.841   6.418   3.494  0.9318  1.0124 -1.1760
  188MOL0     H24809   1.936   6.293   3.580 -1.7945 -0.9182  1.0829
  188MOL0     H24810   2.035   6.223   3.362 -1.6667 -0.6561 -1.2732
  188MOL0     H24811   2.062   6.391   3.395 -1.3058  1.4600 -2.1874
  188MOL0     H24812   1.836   6.287   3.231 -0.4762 -1.3317  2.1106
  188MOL0     H24813   1.870   6.454   3.250  1.3020 -0.0629 -1.3312
  188MOL0     H24814   2.192   6.306   2.994 -0.0668 -5.1926  0.8722
  188MOL0     H24815   1.677   5.979   3.425  2.9955  1.8290  1.2440
  188MOL0     H24816   1.524   5.826   3.409  4.1271  3.5704 -1.5469
  189MOL0     O24817   6.908   8.763   7.603  0.0652  0.4496 -0.2263
  189MOL0     C24818   6.864   8.859   7.544  0.3324  1.3839 -0.7983
  189MOL0     O24819   6.848   8.978   7.607 -0.0134  0.1156  0.0291
  189MOL0     C24820   6.943   9.032   7.693 -0.6824 -0.0719 -0.9317
  189MOL0     C24821   7.083   9.027   7.682 -0.4112 -0.2138 -0.7632
  189MOL0     C24822   7.175   9.112   7.757  0.2557 -0.1179 -0.0081
  189MOL0     C24823   7.119   9.201   7.845 -0.5378 -0.0936 -0.2344
  189MOL0     O24824   7.176   9.301   7.906 -0.0959  0.0206 -0.2249
  189MOL0     C24825   7.318   9.292   7.944  0.5526 -0.4890  0.8644
  189MOL0     C24826   7.319   9.368   8.077  0.5514 -1.3479  0.8966
  189MOL0     C24827   7.257   9.273   8.187  0.2428 -0.8239  0.4783
  189MOL0     C24828   7.273   9.357   8.319 -0.7279  0.0746 -0.1751
  189MOL0     C24829   7.194   9.291   8.429 -0.5689  0.3045 -0.8166
  189MOL0     C24830   7.049   9.259   8.407 -0.5210  0.0297  0.6341
  189MOL0     C24831   6.970   9.208   8.532  1.2940  0.4194  0.2522
  189MOL0     C24832   6.815   9.224   8.521  0.2913 -0.2841 -0.1183
  189MOL0     N24833   6.761   9.159   8.397 -0.4433 -0.3599 -1.0774
  189MOL0     C24834   6.696   9.041   8.413 -1.0718  0.5175  0.6276
  189MOL0     C24835   6.640   9.014   8.290 -0.2627  0.0249 -0.4741
  189MOL0     C24836   6.547   8.905   8.246  0.0336  0.0106 -0.2396
  189MOL0     C24837   6.412   8.972   8.217 -0.0824  1.0366  0.7890
  189MOL0     C24838   6.309   8.968   8.334  0.2020  0.6223 -0.2409
  189MOL0     C24839   6.201   9.066   8.311  0.1862 -0.9195  0.4220
  189MOL0     O24840   6.096   9.070   8.413 -1.1357 -0.4129  0.0994
  189MOL0     C24841   5.990   8.978   8.413  0.4769  0.8704 -0.2868
  189MOL0     C24842   5.955   8.925   8.536 -0.3990  0.5235  0.2389
  189MOL0     C24843   5.868   8.823   8.552 -0.0700  0.8934 -0.4527
  189MOL0     C24844   5.785   8.772   8.445  0.4541 -0.1986 -0.7648
  189MOL0     C24845   5.688   8.657   8.461 -1.1346 -0.1059  0.1136
  189MOL0     O24846   5.609   8.638   8.354 -0.6941  1.0860 -0.2235
  189MOL0     C24847   5.543   8.515   8.351  0.7633  0.2897 -0.2428
  189MOL0     C24848   5.623   8.410   8.336  0.7453 -0.1161 -0.5495
  189MOL0     C24849   5.565   8.282   8.342 -0.6629  0.2286 -0.3248
  189MOL0     C24850   5.427   8.262   8.372 -0.1327  0.0470  0.2225
  189MOL0     O24851   5.381   8.136   8.361  0.2828 -0.9103 -0.2892
  189MOL0     C24852   5.243   8.103   8.405 -1.3843 -0.3535  0.1987
  189MOL0     C24853   5.263   8.088   8.547  0.3700 -0.3473  0.2525
  189MOL0     C24854   5.155   8.010   8.621  1.2245 -0.6201 -0.2254
  189MOL0     C24855   5.016   8.056   8.587  0.6432  0.2396 -0.3209
  189MOL0     C24856   4.935   8.044   8.722  1.1194 -0.1469 -0.2760
  189MOL0     C24857   4.905   7.906   8.777  1.0833 -0.2160 -0.6832
  189MOL0     C24858   4.765   7.919   8.850 -1.0623 -0.0342 -0.5573
  189MOL0     C24859   4.731   7.794   8.917 -1.1489  0.9355  0.1820
  189MOL0    Cl24860   4.843   7.768   9.056 -0.1005  0.6216 -0.0877
  189MOL0     C24861   5.348   8.379   8.382  0.2921 -0.1181  0.2700
  189MOL0     C24862   5.405   8.506   8.366  0.7195 -0.3176 -0.5753
  189MOL0     O24863   5.695   8.588   8.555 -0.0848 -0.3176 -0.0979
  189MOL0     C24864   5.813   8.828   8.318  0.3982 -1.3298 -0.0490
  189MOL0     C24865   5.914   8.925   8.308  0.3063  0.7634 -0.5038
  189MOL0     N24866   6.692   9.109   8.204 -0.1466 -0.4199 -0.5706
  189MOL0     N24867   6.756   9.201   8.273  0.1195 -0.9826  0.3961
  189MOL0     C24868   6.988   9.205   7.864 -0.6110 -0.8590  0.6902
  189MOL0     C24869   6.898   9.124   7.792 -0.2080 -0.0088  0.1477
  189MOL0     C24870   6.809   8.848   7.399 -0.1209 -0.6023 -0.1372
  189MOL0     C24871   6.784   8.716   7.343 -0.7148 -0.1723  0.3676
  189MOL0     C24872   6.724   8.713   7.216  0.0896  0.8839  1.0004
  189MOL0     C24873   6.682   8.829   7.144  1.0893  0.5843 -1.4041
  189MOL0     O24874   6.633   8.814   7.020 -0.1962  0.6447 -0.1646
  189MOL0     C24875   6.605   8.928   6.933 -1.0541  0.4680 -1.0817
  189MOL0     C24876   6.556   8.871   6.796  1.3544  0.1329 -0.5546
  189MOL0     C24877   6.663   8.797   6.713  0.3908  0.1220 -0.0669
  189MOL0     C24878   6.711   8.669   6.783 -0.0163  0.6601  0.4074
  189MOL0     C24879   6.796   8.611   6.677  0.2396 -0.5150  0.4134
  189MOL0     C24880   6.875   8.572   6.592  0.3109 -0.4927  0.0021
  189MOL0     C24881   6.721   8.954   7.197 -0.3565 -0.3299  0.0035
  189MOL0     C24882   6.777   8.965   7.321 -1.1736 -0.0761  0.0358
  189MOL0     H24883   7.142   8.968   7.612 -0.4392 -1.4991  0.2625
  189MOL0     H24884   7.281   9.093   7.744  0.3165  0.9058 -1.1562
  189MOL0     H24885   7.381   9.338   7.867 -1.2850  0.4732 -0.1276
  189MOL0     H24886   7.354   9.191   7.963  0.1604 -0.1705  3.7959
  189MOL0     H24887   7.258   9.459   8.073  2.6296  0.0735 -0.4041
  189MOL0     H24888   7.421   9.405   8.089  0.4639  0.6301 -2.9614
  189MOL0     H24889   7.311   9.178   8.190 -2.2099 -2.3286  3.2518
  189MOL0     H24890   7.151   9.252   8.172 -1.5128  5.3791  1.5203
  189MOL0     H24891   7.378   9.359   8.352 -0.6964 -1.5460 -0.0960
  189MOL0     H24892   7.244   9.462   8.307  2.4501  0.8267 -2.5300
  189MOL0     H24893   7.189   9.360   8.514 -4.0773 -1.5827  0.7027
  189MOL0     H24894   7.252   9.202   8.454  4.6107  2.8677 -2.2333
  189MOL0     H24895   7.054   9.164   8.352  1.8395  0.3569  0.1620
  189MOL0     H24896   7.004   9.350   8.364  0.3455  0.0938 -0.1845
  189MOL0     H24897   6.989   9.101   8.537  0.0605 -0.0106 -2.2247
  189MOL0     H24898   7.010   9.250   8.624  2.4264 -4.3770  2.1950
  189MOL0     H24899   6.791   9.330   8.516  3.8239  0.6104 -1.2277
  189MOL0     H24900   6.766   9.186   8.611 -1.6345  2.5404  0.1690
  189MOL0     H24901   6.676   8.978   8.499 -2.3578 -2.3973 -1.6214
  189MOL0     H24902   6.538   8.843   8.336  1.2013  0.5892  0.2897
  189MOL0     H24903   6.597   8.846   8.169  1.1795 -2.7091  2.3612
  189MOL0     H24904   6.360   8.917   8.139 -1.5536  4.8579 -1.1760
  189MOL0     H24905   6.429   9.076   8.185 -2.4155  1.4684  0.8286
  189MOL0     H24906   6.268   8.869   8.357 -5.5688  3.0744  1.6245
  189MOL0     H24907   6.354   8.996   8.430  1.6865 -1.6334 -0.2002
  189MOL0     H24908   6.148   9.043   8.217  0.4194 -0.5363  0.1960
  189MOL0     H24909   6.249   9.163   8.300 -1.9249  0.0296 -1.1413
  189MOL0     H24910   6.024   8.958   8.613  0.2264 -1.9857  0.8468
  189MOL0     H24911   5.866   8.784   8.653 -4.5467  0.7877 -0.3771
  189MOL0     H24912   5.726   8.428   8.306  0.2131  0.1113 -2.3782
  189MOL0     H24913   5.621   8.191   8.321  0.7529  0.2113  2.9166
  189MOL0     H24914   5.225   8.001   8.368  3.5031 -1.6757  0.6893
  189MOL0     H24915   5.169   8.178   8.376 -0.5194  0.8091  0.8825
  189MOL0     H24916   5.263   8.190   8.586 -0.2083 -0.6892  1.1991
  189MOL0     H24917   5.356   8.037   8.571 -1.3120 -3.2052  1.2085
  189MOL0     H24918   5.173   8.035   8.726 -0.0281 -1.9608  0.3444
  189MOL0     H24919   5.162   7.901   8.617  0.8775 -0.6426 -0.2237
  189MOL0     H24920   5.013   8.162   8.557 -1.5457 -0.3135 -2.3935
  189MOL0     H24921   4.965   8.011   8.501 -0.2416  0.7902 -0.1014
  189MOL0     H24922   4.841   8.100   8.710  0.6354 -1.2200 -1.7542
  189MOL0     H24923   4.990   8.090   8.805 -1.7482 -0.4556  1.9485
  189MOL0     H24924   4.976   7.859   8.846  0.5881 -0.3173 -0.2321
  189MOL0     H24925   4.897   7.838   8.692  2.3551 -2.0151  0.5610
  189MOL0     H24926   4.770   8.003   8.920 -0.8082  0.0891 -0.7203
  189MOL0     H24927   4.693   7.952   8.775 -0.3700 -0.7919 -1.5937
  189MOL0     H24928   4.728   7.709   8.848  0.1885  0.9764  0.0487
  189MOL0     H24929   4.632   7.809   8.961  0.1889  1.3354  3.2447
  189MOL0     H24930   5.244   8.359   8.404  0.6146 -3.2322 -0.6533
  189MOL0     H24931   5.352   8.597   8.395  4.1862  2.2967 -1.6970
  189MOL0     H24932   5.761   8.787   8.231 -1.4095 -0.0140  0.3574
  189MOL0     H24933   5.948   8.966   8.213 -1.9091  1.6974 -0.9727
  189MOL0     H24934   6.950   9.272   7.941  1.1188  0.0410  0.8106
  189MOL0     H24935   6.795   9.117   7.825  0.8039 -2.6768  3.3717
  189MOL0     H24936   6.817   8.626   7.392 -0.0377  1.3270  2.8526
  189MOL0     H24937   6.703   8.618   7.169  1.9414 -0.0841  2.0190
  189MOL0     H24938   6.690   8.992   6.906  2.0325 -0.8857  3.9934
  189MOL0     H24939   6.526   8.995   6.968 -2.2937 -1.7951  0.7406
  189MOL0     H24940   6.466   8.814   6.821  0.3903  2.2137  1.0095
  189MOL0     H24941   6.516   8.955   6.739  0.6079  0.0754 -0.1289
  189MOL0     H24942   6.747   8.864   6.695 -0.3235  0.6566 -1.5410
  189MOL0     H24943   6.616   8.770   6.618  1.4174 -1.2161 -0.2151
  189MOL0     H24944   6.752   8.697   6.881  0.2977  4.6684 -0.7020
  189MOL0     H24945   6.627   8.601   6.800 -0.1857  0.0840 -2.3667
  189MOL0     H24946   6.948   8.572   6.514 -1.4092  4.0709 -1.9459
  189MOL0     H24947   6.709   9.040   7.132 -2.2784  2.1220  3.2159
  189MOL0     H24948   6.799   9.061   7.367 -0.5752 -0.3509  0.3346
  190MOL0     O24949   9.336   4.194   8.624 -0.5091  0.3996  0.3540
  190MOL0     C24950   9.404   4.179   8.727 -0.5647 -0.5199  0.2706
  190MOL0     O24951   9.533   4.216   8.730 -0.4913 -0.4135 -1.1242
  190MOL0     C24952   9.596   4.288   8.634  0.1644 -0.0973 -0.0150
  190MOL0     C24953   9.550   4.411   8.591  0.6709 -0.3688 -0.0185
  190MOL0     C24954   9.625   4.484   8.505 -1.0243 -0.7048 -0.5964
  190MOL0     C24955   9.756   4.443   8.461 -0.0332 -0.6201  0.1787
  190MOL0     O24956   9.821   4.537   8.387 -0.2177  0.8929  0.4573
  190MOL0     C24957   9.945   4.508   8.309 -0.7015 -0.0620  0.3627
  190MOL0     C24958   9.931   4.593   8.187 -0.4264 -0.1298  0.7268
  190MOL0     C24959   9.811   4.545   8.109  0.4277  0.4971 -0.1762
  190MOL0     C24960   9.812   4.620   7.980  0.6875 -0.9960 -0.0029
  190MOL0     C24961   9.683   4.575   7.895  0.0665  0.5823 -0.7899
  190MOL0     C24962   9.647   4.682   7.791 -0.1009 -0.0528  0.1532
  190MOL0     C24963   9.514   4.621   7.716  0.6839 -0.2277 -0.2130
  190MOL0     C24964   9.486   4.663   7.569 -0.5481 -0.0443  0.0131
  190MOL0     N24965   9.597   4.677   7.479 -0.3345  0.7963 -0.3310
  190MOL0     C24966   9.668   4.795   7.439 -0.1069  0.2098  0.1476
  190MOL0     C24967   9.765   4.749   7.347 -0.1323  0.6593 -0.0226
  190MOL0     C24968   9.840   4.841   7.247  0.5296 -0.9391  0.2917
  190MOL0     C24969   9.759   4.925   7.148 -0.1615  0.5656  0.0313
  190MOL0     C24970   9.630   4.853   7.100 -0.1191  0.4645 -0.1876
  190MOL0     C24971   9.547   4.930   6.986  0.3293  0.1064  0.1935
  190MOL0     O24972   9.636   4.974   6.877 -0.2038  0.3061  0.7614
  190MOL0     C24973   9.627   4.896   6.770  0.2428 -0.7898 -0.1953
  190MOL0     C24974   9.629   4.760   6.770 -0.8055  0.8741 -0.0018
  190MOL0     C24975   9.616   4.688   6.651 -0.0199 -0.3362 -0.2544
  190MOL0     C24976   9.593   4.756   6.524  0.3890 -0.6401  0.6769
  190MOL0     C24977   9.567   4.687   6.398  0.5358  0.3698 -0.0683
  190MOL0     O24978   9.514   4.751   6.293 -0.5540  0.1300  0.5535
  190MOL0     C24979   9.501   4.679   6.180  0.2891  0.4237  1.3116
  190MOL0     C24980   9.370   4.653   6.135 -0.6463 -1.0204  1.3300
  190MOL0     C24981   9.350   4.568   6.026  0.1588  0.1173 -0.2821
  190MOL0     C24982   9.454   4.507   5.957 -0.2444 -0.2163  0.3648
  190MOL0     O24983   9.420   4.434   5.844  0.6421  0.7651  0.3167
  190MOL0     C24984   9.483   4.303   5.826 -0.9228 -1.0518 -0.0345
  190MOL0     C24985   9.428   4.195   5.910  0.9139  0.0238  0.5342
  190MOL0     C24986   9.279   4.166   5.873 -0.1687 -0.1640 -0.3128
  190MOL0     C24987   9.225   4.042   5.916  0.0792 -0.6284  0.4176
  190MOL0     C24988   9.168   4.046   6.053  0.6813  0.4339 -0.6966
  190MOL0     C24989   9.156   3.895   6.097 -0.3528 -1.3145  0.6131
  190MOL0     C24990   9.069   3.849   6.215  0.0295 -0.6475  0.3580
  190MOL0     C24991   9.090   3.712   6.261  0.2552  0.0282  0.1586
  190MOL0    Cl24992   9.267   3.691   6.293  0.0508  0.3266  0.4017
  190MOL0     C24993   9.586   4.535   6.006 -0.3420  0.8859  0.5382
  190MOL0     C24994   9.613   4.618   6.112  0.1983  0.9015 -0.0152
  190MOL0     O24995   9.600   4.560   6.401  0.2428 -0.4313 -0.5295
  190MOL0     C24996   9.604   4.894   6.527  0.4515 -0.4875 -0.0959
  190MOL0     C24997   9.608   4.964   6.649  0.4142  0.4833 -0.4818
  190MOL0     N24998   9.748   4.616   7.349 -0.3513  0.3077 -1.0559
  190MOL0     N24999   9.659   4.567   7.433  0.4563  0.5199  0.6575
  190MOL0     C25000   9.805   4.319   8.509 -1.2832  0.5530  0.3018
  190MOL0     C25001   9.724   4.246   8.596  0.3555  0.4289 -0.6158
  190MOL0     C25002   9.340   4.129   8.850 -0.4289 -0.3212 -0.4396
  190MOL0     C25003   9.386   4.018   8.913  0.1330 -0.9353 -0.8004
  190MOL0     C25004   9.332   3.981   9.032 -0.2233 -0.7133  0.0861
  190MOL0     C25005   9.235   4.044   9.094 -0.5590 -0.7622 -0.4233
  190MOL0     O25006   9.191   4.005   9.222 -0.1588  0.1885 -0.8127
  190MOL0     C25007   9.176   4.105   9.327 -0.8355  0.7720  0.7704
  190MOL0     C25008   9.149   4.025   9.463 -0.5729 -0.7083 -0.3517
  190MOL0     C25009   9.113   4.121   9.570 -0.7329  0.4529  0.1710
  190MOL0     C25010   8.963   4.171   9.582  0.6592 -0.8741  0.1595
  190MOL0     C25011   8.875   4.085   9.649 -0.1412 -0.6421 -0.3050
  190MOL0     C25012   8.807   4.009   9.718  1.1640 -0.6549  0.5248
  190MOL0     C25013   9.190   4.166   9.029  0.2265  0.4093 -0.3582
  190MOL0     C25014   9.245   4.209   8.907  0.4196 -0.8610 -0.8934
  190MOL0     H25015   9.455   4.453   8.624 -0.2635 -1.6081 -1.0294
  190MOL0     H25016   9.598   4.587   8.481 -0.3425 -0.0876  1.1155
  190MOL0     H25017   9.941   4.405   8.274 -1.3221  0.2930 -0.6533
  190MOL0     H25018  10.042   4.521   8.357 -2.1489  1.3950  3.1847
  190MOL0     H25019  10.021   4.575   8.127 -2.1045 -1.0079 -1.6738
  190MOL0     H25020   9.925   4.699   8.214 -1.1127  0.6957 -2.3249
  190MOL0     H25021   9.722   4.538   8.171  0.0807 -1.1306 -0.8041
  190MOL0     H25022   9.828   4.444   8.071  1.9523  1.0952 -1.2279
  190MOL0     H25023   9.806   4.728   7.995  0.3758 -0.8914 -0.8050
  190MOL0     H25024   9.912   4.604   7.939  2.0487  1.9317  1.8465
  190MOL0     H25025   9.599   4.571   7.965  0.9875  0.8711  0.3496
  190MOL0     H25026   9.685   4.477   7.846 -0.3340  0.9558 -1.5820
  190MOL0     H25027   9.732   4.706   7.726 -2.1612  0.8120 -2.4157
  190MOL0     H25028   9.627   4.782   7.831  6.0037  1.8767 -0.4415
  190MOL0     H25029   9.518   4.512   7.725 -0.9376 -0.3718 -0.8566
  190MOL0     H25030   9.429   4.650   7.780  0.8105 -2.4030  1.0263
  190MOL0     H25031   9.429   4.754   7.549 -1.2711 -0.5881 -0.4629
  190MOL0     H25032   9.421   4.586   7.528 -0.2812 -1.2715  1.8142
  190MOL0     H25033   9.637   4.895   7.468 -0.1994 -0.0552  0.9830
  190MOL0     H25034   9.916   4.773   7.206  2.0794 -0.7604  2.6805
  190MOL0     H25035   9.898   4.906   7.312  1.6971 -0.9071 -0.7333
  190MOL0     H25036   9.819   4.949   7.060 -0.4112 -2.2250 -1.0059
  190MOL0     H25037   9.720   5.021   7.183 -2.7840 -0.4223  0.0797
  190MOL0     H25038   9.647   4.749   7.075 -3.2070  0.0078 -0.8301
  190MOL0     H25039   9.556   4.856   7.181  0.4056  5.9003  0.4771
  190MOL0     H25040   9.504   5.018   7.036  1.7111  0.1302  1.3916
  190MOL0     H25041   9.470   4.858   6.956  2.7588 -1.7022 -2.1720
  190MOL0     H25042   9.658   4.709   6.862  0.4845 -0.0292 -0.8757
  190MOL0     H25043   9.627   4.581   6.662  0.3848 -0.5224 -2.2047
  190MOL0     H25044   9.291   4.714   6.176 -1.7285 -0.5843 -1.2332
  190MOL0     H25045   9.249   4.556   5.989  0.8511  0.0309 -2.2340
  190MOL0     H25046   9.588   4.320   5.850 -1.4754  0.7801  1.4417
  190MOL0     H25047   9.483   4.275   5.721 -2.0055  0.0377 -0.3613
  190MOL0     H25048   9.452   4.208   6.015 -2.0292 -0.7407  1.4088
  190MOL0     H25049   9.482   4.107   5.874 -0.1682 -2.0313  3.5404
  190MOL0     H25050   9.267   4.162   5.765 -4.8012  1.1736 -0.0530
  190MOL0     H25051   9.218   4.239   5.927 -0.2101 -2.6328  3.3270
  190MOL0     H25052   9.149   4.005   5.846  0.1963  0.3347 -0.2383
  190MOL0     H25053   9.304   3.967   5.908  0.5265 -0.0993 -0.1220
  190MOL0     H25054   9.075   4.102   6.064  2.2717  3.1082 -0.0667
  190MOL0     H25055   9.236   4.091   6.126 -1.9500 -1.1756  3.1068
  190MOL0     H25056   9.261   3.873   6.119  0.4333  0.3009 -1.1649
  190MOL0     H25057   9.128   3.837   6.009 -0.3722 -0.1595 -0.1677
  190MOL0     H25058   9.101   3.917   6.295  0.3515 -0.4858  0.0958
  190MOL0     H25059   8.963   3.865   6.191  0.5376 -0.6141 -2.0472
  190MOL0     H25060   9.060   3.635   6.188 -2.2290  1.7093 -0.7227
  190MOL0     H25061   9.040   3.698   6.357  2.0711  2.0185  1.4747
  190MOL0     H25062   9.666   4.494   5.945 -0.1337 -1.6458  2.3366
  190MOL0     H25063   9.706   4.645   6.160  0.0193  1.2689  0.1262
  190MOL0     H25064   9.595   4.951   6.435 -2.6041  3.4633  2.2663
  190MOL0     H25065   9.595   5.071   6.646 -3.2083  0.1529 -0.7645
  190MOL0     H25066   9.896   4.271   8.474 -1.8614  0.9527 -1.9279
  190MOL0     H25067   9.755   4.147   8.628  2.7129  0.7023 -1.8127
  190MOL0     H25068   9.470   3.968   8.866  1.5910  2.3345 -1.9774
  190MOL0     H25069   9.363   3.895   9.090 -1.2446  0.7286  3.0039
  190MOL0     H25070   9.093   4.176   9.319  0.7669  3.0038  2.3991
  190MOL0     H25071   9.270   4.162   9.329  0.9324 -1.6459 -2.9476
  190MOL0     H25072   9.074   3.947   9.446 -1.1312  0.5989 -6.1330
  190MOL0     H25073   9.234   3.970   9.504  0.5222  0.9539 -0.2851
  190MOL0     H25074   9.179   4.208   9.562  1.8860 -1.5197 -1.4215
  190MOL0     H25075   9.136   4.067   9.663 -2.3938 -1.4211 -0.4288
  190MOL0     H25076   8.973   4.265   9.636  0.1955  0.3601 -1.7988
  190MOL0     H25077   8.929   4.187   9.479  0.8753 -1.2992  0.0197
  190MOL0     H25078   8.743   3.939   9.767 -1.7783  1.1320 -0.5129
  190MOL0     H25079   9.125   4.225   9.093  1.6042  3.7025 -1.8073
  190MOL0     H25080   9.218   4.305   8.864  0.6927 -1.3988 -2.3029
  191MOL0     O25081  11.144   2.711   0.139 -0.1898  0.0305 -0.8065
  191MOL0     C25082  11.216   2.759   0.050 -0.7174  0.1454  0.5306
  191MOL0     O25083  11.322   2.700  -0.014  0.4329 -0.0026 -0.0886
  191MOL0     C25084  11.350   2.567   0.022 -0.3396 -0.5192 -0.1055
  191MOL0     C25085  11.479   2.545   0.076 -0.3226  0.4686  0.9571
  191MOL0     C25086  11.524   2.411   0.114  0.1919  0.4959 -0.1378
  191MOL0     C25087  11.435   2.304   0.099  0.2084 -0.4503  0.7494
  191MOL0     O25088  11.457   2.169   0.115 -0.2758  0.9585 -0.5705
  191MOL0     C25089  11.604   2.137   0.147  1.3606 -0.6730  0.5803
  191MOL0     C25090  11.607   1.990   0.160  0.0686  0.7092  0.6913
  191MOL0     C25091  11.754   1.963   0.198  0.7838  0.1197 -0.2189
  191MOL0     C25092  11.787   1.816   0.171 -0.3759  1.0834  0.7700
  191MOL0     C25093  11.901   1.767   0.260 -1.5901 -0.6635  0.1388
  191MOL0     C25094  11.914   1.619   0.275  0.2431  0.1767  0.2701
  191MOL0     C25095  12.023   1.569   0.169  0.2894  0.3343  0.2587
  191MOL0     C25096  12.040   1.418   0.174 -0.3164 -0.2478  0.4993
  191MOL0     N25097  12.144   1.380   0.280  0.0371  0.2727  0.2906
  191MOL0     C25098  12.184   1.459   0.382 -0.0530 -0.2114  1.0503
  191MOL0     C25099  12.288   1.387   0.444 -0.1920 -0.2193  0.4165
  191MOL0     C25100  12.387   1.445   0.544  0.7944 -0.3391 -0.1989
  191MOL0     C25101  12.436   1.354   0.655 -0.0818  0.6032 -0.2130
  191MOL0     C25102  12.326   1.289   0.753 -0.4525  1.1592 -0.5118
  191MOL0     C25103  12.367   1.157   0.822 -0.3450 -0.4670  1.3444
  191MOL0     O25104  12.256   1.105   0.893  0.5655  0.1374  0.8554
  191MOL0     C25105  12.276   0.986   0.966  0.1794  0.3990  0.7698
  191MOL0     C25106  12.170   0.948   1.055  0.7379 -0.1418 -0.7179
  191MOL0     C25107  12.176   0.837   1.146  0.6120 -0.5831 -0.6614
  191MOL0     C25108  12.286   0.756   1.133 -0.4846 -0.0741  0.6540
  191MOL0     C25109  12.302   0.639   1.226 -1.4624 -0.2819  0.2880
  191MOL0     O25110  12.209   0.622   1.320 -0.0335 -0.1479 -0.3542
  191MOL0     C25111  12.167   0.498   1.357  0.5691  0.0247  0.2788
  191MOL0     C25112  12.164   0.392   1.265  0.0002 -0.7018  0.4789
  191MOL0     C25113  12.106   0.267   1.298 -0.9126 -0.8591  0.6292
  191MOL0     C25114  12.062   0.249   1.433  0.0156  0.1001 -0.3631
  191MOL0     O25115  12.010   0.123   1.483 -0.0561 -0.2170  0.9181
  191MOL0     C25116  12.086   0.015   1.442 -0.6088  0.3236 -0.6013
  191MOL0     C25117  11.982  -0.075   1.362 -0.0733 -0.6643 -0.2439
  191MOL0     C25118  11.856  -0.129   1.445  0.0303 -1.0034 -0.1923
  191MOL0     C25119  11.753  -0.182   1.348 -0.2682  0.3698  0.3792
  191MOL0     C25120  11.618  -0.198   1.428  0.1045 -0.9070 -0.9650
  191MOL0     C25121  11.500  -0.253   1.352  0.0842 -0.4792 -0.2713
  191MOL0     C25122  11.512  -0.402   1.319 -0.4641 -0.1194  0.3845
  191MOL0     C25123  11.379  -0.477   1.355 -0.2518  0.0281 -0.2786
  191MOL0    Cl25124  11.347  -0.626   1.256 -0.0828 -0.2649  0.1433
  191MOL0     C25125  12.066   0.356   1.523 -0.0531 -1.4882  0.2670
  191MOL0     C25126  12.121   0.474   1.484 -0.2542 -0.6547  0.6237
  191MOL0     O25127  12.391   0.559   1.190  0.1489 -0.6182 -0.3563
  191MOL0     C25128  12.384   0.781   1.031  0.1198  0.0708 -0.6398
  191MOL0     C25129  12.377   0.898   0.962  0.4040  0.1763 -0.3162
  191MOL0     N25130  12.285   1.257   0.395  0.2628 -1.1284  0.1686
  191MOL0     N25131  12.210   1.261   0.295  0.2184 -0.0242  0.7956
  191MOL0     C25132  11.305   2.328   0.054  1.0264 -0.3397 -1.1191
  191MOL0     C25133  11.261   2.455   0.003  0.6097  0.7161 -0.1886
  191MOL0     C25134  11.175   2.886  -0.007 -0.5357  0.2669 -0.7096
  191MOL0     C25135  11.072   2.963   0.058 -0.3554 -0.0672 -0.0362
  191MOL0     C25136  11.031   3.087   0.000 -1.4088 -1.8489  1.3955
  191MOL0     C25137  11.093   3.128  -0.121  0.2926  0.1954  0.9012
  191MOL0     O25138  11.066   3.248  -0.191 -0.3050  0.6595  0.8737
  191MOL0     C25139  11.004   3.350  -0.111  0.5809 -0.3712  0.0256
  191MOL0     C25140  11.011   3.484  -0.178 -0.8212 -1.1554 -0.1607
  191MOL0     C25141  10.975   3.592  -0.076 -0.6183 -1.1261  0.0426
  191MOL0     C25142  10.947   3.724  -0.140  0.9644  0.2915  0.3829
  191MOL0     C25143  10.827   3.712  -0.223  0.1176 -0.3597 -0.3121
  191MOL0     C25144  10.727   3.688  -0.286  0.0628  0.2751  0.3473
  191MOL0     C25145  11.177   3.052  -0.190 -0.1165  0.0871  0.1923
  191MOL0     C25146  11.232   2.939  -0.126 -0.0124 -1.4992 -0.3311
  191MOL0     H25147  11.559   2.618   0.079  0.6015 -0.4891  0.4582
  191MOL0     H25148  11.628   2.401   0.144  0.7665  3.4564 -0.8405
  191MOL0     H25149  11.616   2.163   0.253  3.3068  2.6933 -0.3145
  191MOL0     H25150  11.669   2.188   0.076 -2.3205  0.2167 -2.4922
  191MOL0     H25151  11.587   1.951   0.060  1.8450  2.2807 -0.3423
  191MOL0     H25152  11.530   1.955   0.230  0.5626 -0.1945  0.8013
  191MOL0     H25153  11.767   1.974   0.306 -1.9036  1.1766  0.0748
  191MOL0     H25154  11.835   2.014   0.145  1.2816  0.8122  1.1501
  191MOL0     H25155  11.698   1.753   0.182 -0.0193 -0.9034 -4.5930
  191MOL0     H25156  11.809   1.802   0.065 -5.0794 -0.5221 -0.2361
  191MOL0     H25157  11.868   1.782   0.363 -1.9800 -1.8417  0.1990
  191MOL0     H25158  11.996   1.821   0.247 -1.0070 -1.1898  1.8690
  191MOL0     H25159  11.819   1.571   0.247 -0.1868  1.7578 -1.1804
  191MOL0     H25160  11.955   1.579   0.368 -1.9115 -0.7508  0.8988
  191MOL0     H25161  11.981   1.580   0.068 -0.5273 -1.3257  0.3724
  191MOL0     H25162  12.107   1.637   0.178 -2.4953  3.8070  3.2845
  191MOL0     H25163  12.069   1.380   0.076 -0.2761 -2.2517  1.2293
  191MOL0     H25164  11.940   1.374   0.184  0.9109 -4.2583 -2.2786
  191MOL0     H25165  12.171   1.566   0.396 -2.2751 -0.3775  0.6144
  191MOL0     H25166  12.341   1.537   0.580 -0.3789 -1.1019  0.3298
  191MOL0     H25167  12.470   1.459   0.474  1.0672  3.3002  0.6883
  191MOL0     H25168  12.491   1.425   0.717 -3.7663  3.0282  0.6482
  191MOL0     H25169  12.487   1.271   0.607 -0.9138  0.6825 -1.2773
  191MOL0     H25170  12.298   1.353   0.838 -0.1507  0.1918  0.3454
  191MOL0     H25171  12.237   1.268   0.693 -1.2951 -1.4343  1.4191
  191MOL0     H25172  12.451   1.180   0.888 -1.5273 -0.3758  2.8645
  191MOL0     H25173  12.409   1.082   0.755  4.4720  0.1265  3.2642
  191MOL0     H25174  12.083   1.010   1.073  0.3258 -0.6906 -0.8017
  191MOL0     H25175  12.087   0.823   1.206  1.4709  2.0573  1.4561
  191MOL0     H25176  12.201   0.406   1.164 -1.3393  1.7268  0.2432
  191MOL0     H25177  12.109   0.190   1.222 -0.0052 -0.4024  0.1914
  191MOL0     H25178  12.135  -0.036   1.526  0.4085  0.0190 -1.3526
  191MOL0     H25179  12.164   0.043   1.371 -0.2615  1.2226  0.1080
  191MOL0     H25180  12.034  -0.153   1.305  2.4852  2.1229 -2.0160
  191MOL0     H25181  11.952   0.003   1.291 -0.2068  0.3329  0.8726
  191MOL0     H25182  11.822  -0.046   1.507  3.1141 -0.7690  1.4221
  191MOL0     H25183  11.883  -0.212   1.512 -3.5106 -3.1344 -1.1698
  191MOL0     H25184  11.731  -0.129   1.254 -1.3098 -2.9962 -1.4560
  191MOL0     H25185  11.779  -0.277   1.299  1.7053  0.7853  0.5364
  191MOL0     H25186  11.578  -0.100   1.454 -0.3508 -0.8203 -1.9373
  191MOL0     H25187  11.643  -0.259   1.515  0.1911 -2.0762 -1.7910
  191MOL0     H25188  11.509  -0.197   1.258  2.2910 -0.8976 -0.3720
  191MOL0     H25189  11.404  -0.235   1.400  1.5015 -0.1148  2.6619
  191MOL0     H25190  11.528  -0.412   1.211 -0.6934  0.5878  0.2813
  191MOL0     H25191  11.588  -0.453   1.378 -2.6124 -1.5157  2.1103
  191MOL0     H25192  11.297  -0.407   1.335  0.1673  0.4231 -0.6430
  191MOL0     H25193  11.369  -0.486   1.463 -0.9779  1.1431 -0.2350
  191MOL0     H25194  12.019   0.336   1.619 -2.8883 -0.4657 -0.7979
  191MOL0     H25195  12.144   0.551   1.557 -1.6815  0.8692 -0.4619
  191MOL0     H25196  12.470   0.716   1.019  0.8350  0.8288  0.1972
  191MOL0     H25197  12.463   0.917   0.898  3.0324 -4.5819  1.3286
  191MOL0     H25198  11.236   2.245   0.041 -0.7955  1.0762 -0.8369
  191MOL0     H25199  11.162   2.466  -0.041  0.7670 -1.0668 -1.0608
  191MOL0     H25200  11.010   2.921   0.137  0.3144 -3.2712 -1.0713
  191MOL0     H25201  10.956   3.147   0.050 -2.0623 -1.7121  0.2808
  191MOL0     H25202  11.057   3.350  -0.015 -1.2500 -0.7312  1.1043
  191MOL0     H25203  10.900   3.315  -0.105  0.2607  0.1706 -1.7119
  191MOL0     H25204  11.110   3.506  -0.219 -0.9201 -1.1295 -0.3861
  191MOL0     H25205  10.955   3.491  -0.271  0.3460 -1.2965 -0.8951
  191MOL0     H25206  11.056   3.623  -0.009 -2.4401  1.3113  1.3076
  191MOL0     H25207  10.887   3.563  -0.017 -2.8410  1.8161 -1.5693
  191MOL0     H25208  10.944   3.798  -0.060  1.6809  2.2549 -1.3112
  191MOL0     H25209  11.028   3.736  -0.212  1.6100  1.2412  1.2565
  191MOL0     H25210  10.640   3.675  -0.347 -0.9016  3.4745  0.8209
  191MOL0     H25211  11.231   3.093  -0.275 -1.9236  0.8319 -0.6517
  191MOL0     H25212  11.320   2.891  -0.168  0.7872 -1.6042  1.3648
  192MOL0     O25213   0.669   2.084   4.377  0.2429  0.9032 -0.5785
  192MOL0     C25214   0.611   2.196   4.360  0.6114 -0.2673  0.1190
  192MOL0     O25215   0.474   2.221   4.385 -0.2382 -0.1964  0.0421
  192MOL0     C25216   0.410   2.128   4.462 -0.9189  0.6304 -0.7723
  192MOL0     C25217   0.333   2.035   4.396  0.4158 -0.2773  0.3243
  192MOL0     C25218   0.267   1.941   4.472 -0.2202  0.4582  0.4524
  192MOL0     C25219   0.281   1.936   4.616  0.3073  0.1842  0.6856
  192MOL0     O25220   0.218   1.837   4.684 -0.0647  0.8160  1.4786
  192MOL0     C25221   0.170   1.711   4.629  0.2431 -0.2552 -0.2879
  192MOL0     C25222   0.124   1.621   4.745  0.6887  0.3949  0.0471
  192MOL0     C25223   0.053   1.503   4.670  0.1557  0.6660 -0.1207
  192MOL0     C25224  -0.009   1.403   4.769  0.0977 -0.7540 -0.3505
  192MOL0     C25225   0.024   1.259   4.710  0.3269  0.5091 -0.1590
  192MOL0     C25226   0.165   1.213   4.748  0.3704  0.3362 -0.2881
  192MOL0     C25227   0.203   1.063   4.714  0.7460 -0.0087 -0.5917
  192MOL0     C25228   0.153   0.959   4.815 -0.4280 -0.0432  0.0902
  192MOL0     N25229   0.200   0.825   4.769 -0.2609 -0.8606  0.9439
  192MOL0     C25230   0.273   0.740   4.840 -0.6825 -0.3783  0.3791
  192MOL0     C25231   0.254   0.619   4.775 -0.2636 -0.5589  0.2635
  192MOL0     C25232   0.327   0.492   4.824  0.7000  0.8895 -0.0277
  192MOL0     C25233   0.470   0.467   4.765  0.8335  0.1589  0.4728
  192MOL0     C25234   0.479   0.387   4.641 -1.0197 -0.2821  0.0241
  192MOL0     C25235   0.627   0.364   4.588  0.2245 -0.1990  0.2103
  192MOL0     O25236   0.714   0.334   4.696  0.0043  0.4261  0.4977
  192MOL0     C25237   0.842   0.308   4.663  0.6461  1.4549  0.8188
  192MOL0     C25238   0.936   0.351   4.754 -0.6076 -1.1049  0.5579
  192MOL0     C25239   1.074   0.338   4.742  0.7798  0.6591 -0.3008
  192MOL0     C25240   1.124   0.265   4.634 -0.1285 -0.3599  0.2370
  192MOL0     C25241   1.273   0.243   4.627  0.1375 -0.2285 -0.2434
  192MOL0     O25242   1.335   0.182   4.525 -0.5697 -0.0077 -0.5752
  192MOL0     C25243   1.460   0.125   4.533  0.3651  0.4234 -0.9490
  192MOL0     C25244   1.540   0.111   4.654  0.2195  0.4643 -0.1178
  192MOL0     C25245   1.658   0.029   4.662  0.2528 -0.4678  0.2563
  192MOL0     C25246   1.700  -0.027   4.541 -0.2850 -1.1630 -0.7347
  192MOL0     O25247   1.803  -0.113   4.523  0.7005  0.2184 -0.1877
  192MOL0     C25248   1.834  -0.208   4.628  1.3346 -0.2664 -1.5841
  192MOL0     C25249   1.927  -0.320   4.590 -0.9421 -0.5962  0.1792
  192MOL0     C25250   2.046  -0.346   4.682  0.5429 -0.5373 -1.1698
  192MOL0     C25251   2.002  -0.399   4.820 -0.0076  0.4896  0.1028
  192MOL0     C25252   2.122  -0.448   4.907  0.5028 -0.3593  0.5185
  192MOL0     C25253   2.066  -0.520   5.034 -0.6719 -0.4813 -0.5738
  192MOL0     C25254   2.178  -0.540   5.131  0.0345  0.3989  0.3554
  192MOL0     C25255   2.133  -0.572   5.277  0.3273 -0.2901 -0.2170
  192MOL0    Cl25256   2.030  -0.725   5.277 -0.2375 -0.2090  0.2179
  192MOL0     C25257   1.638   0.007   4.422  0.7195 -0.5640 -0.5900
  192MOL0     C25258   1.522   0.089   4.426 -0.5443 -0.0065  0.6088
  192MOL0     O25259   1.333   0.291   4.724  0.2235 -0.1531 -0.1541
  192MOL0     C25260   1.027   0.230   4.526 -0.7080 -0.1585 -0.5323
  192MOL0     C25261   0.887   0.236   4.549  0.1435 -0.8533 -1.2287
  192MOL0     N25262   0.189   0.645   4.659 -0.6890 -0.3710 -0.0910
  192MOL0     N25263   0.155   0.768   4.653 -0.7568 -0.4257  0.1557
  192MOL0     C25264   0.370   2.016   4.674 -0.2474 -0.5786  0.5467
  192MOL0     C25265   0.434   2.116   4.603 -0.1941 -0.5855 -0.2350
  192MOL0     C25266   0.678   2.295   4.269 -0.7006 -0.6357 -1.6510
  192MOL0     C25267   0.768   2.260   4.169 -0.9249  0.9198 -0.1798
  192MOL0     C25268   0.816   2.354   4.071  0.1090  0.9714 -0.0365
  192MOL0     C25269   0.783   2.498   4.094 -0.5330 -0.0367 -0.5146
  192MOL0     O25270   0.822   2.610   4.010  0.9079  0.2906  0.0986
  192MOL0     C25271   0.902   2.575   3.897  0.5250 -1.0778  0.8757
  192MOL0     C25272   0.932   2.698   3.816 -0.5199 -0.0461 -0.4120
  192MOL0     C25273   1.049   2.775   3.881  0.0246 -0.6047  0.3600
  192MOL0     C25274   1.008   2.851   4.005 -0.8280  0.0314  0.1446
  192MOL0     C25275   1.119   2.919   4.069 -1.2745  0.0327 -0.1749
  192MOL0     C25276   1.214   2.968   4.136 -0.2505 -0.1875  0.9917
  192MOL0     C25277   0.685   2.531   4.194  0.0336 -0.2957 -0.4067
  192MOL0     C25278   0.637   2.432   4.283  0.2999  0.4933 -0.6362
  192MOL0     H25279   0.307   2.048   4.292 -1.6208  1.2131  0.9598
  192MOL0     H25280   0.179   1.893   4.428 -1.3619  3.0651 -0.3188
  192MOL0     H25281   0.247   1.656   4.572  2.0678  0.5553  1.2931
  192MOL0     H25282   0.078   1.730   4.572 -1.7202  1.4291  3.1580
  192MOL0     H25283   0.041   1.665   4.801 -2.3492 -4.5256  0.0736
  192MOL0     H25284   0.211   1.592   4.806 -0.8129 -0.4686  1.8832
  192MOL0     H25285   0.124   1.453   4.604 -0.2760 -1.5637  1.0222
  192MOL0     H25286  -0.019   1.546   4.600  0.6136 -0.1003 -1.0783
  192MOL0     H25287   0.027   1.413   4.872 -0.7955 -0.3712 -0.0690
  192MOL0     H25288  -0.117   1.414   4.775  0.4061  2.6550  1.9625
  192MOL0     H25289   0.008   1.258   4.602 -2.7717  4.3005  0.0374
  192MOL0     H25290  -0.037   1.182   4.757 -0.0373  1.2228  0.5557
  192MOL0     H25291   0.164   1.222   4.858  2.9424  2.5321 -0.3278
  192MOL0     H25292   0.236   1.286   4.708  0.1839  2.0267  2.1876
  192MOL0     H25293   0.147   1.032   4.625  1.2601 -1.8121 -0.3333
  192MOL0     H25294   0.311   1.053   4.696  0.5302  0.5920 -2.4057
  192MOL0     H25295   0.044   0.961   4.809 -0.5372  0.6859  1.6625
  192MOL0     H25296   0.178   0.975   4.921  0.6033 -1.1741  0.0392
  192MOL0     H25297   0.327   0.750   4.934  1.2209 -1.3043 -0.5490
  192MOL0     H25298   0.273   0.399   4.802  0.8470  0.7365  0.2564
  192MOL0     H25299   0.336   0.495   4.933  1.4598 -1.5149  0.0288
  192MOL0     H25300   0.522   0.402   4.836  0.3085 -1.0458 -0.2203
  192MOL0     H25301   0.529   0.559   4.765  4.7126 -2.0735 -1.9966
  192MOL0     H25302   0.423   0.293   4.644 -0.5916 -0.5427 -0.0427
  192MOL0     H25303   0.434   0.446   4.561  1.2692  3.0764  0.9581
  192MOL0     H25304   0.652   0.463   4.548 -1.1282  0.2373  0.3922
  192MOL0     H25305   0.626   0.297   4.502 -3.0956  0.8572 -0.7319
  192MOL0     H25306   0.888   0.418   4.825  0.1226  0.2788 -0.2245
  192MOL0     H25307   1.131   0.384   4.822  1.3006 -1.9664  0.9237
  192MOL0     H25308   1.516   0.151   4.752  0.7533 -0.5622  0.4552
  192MOL0     H25309   1.718   0.013   4.751  3.2023  5.5390 -0.1573
  192MOL0     H25310   1.746  -0.266   4.656  2.6958 -2.8201 -2.2607
  192MOL0     H25311   1.868  -0.144   4.710 -0.0483  0.0095 -1.2140
  192MOL0     H25312   1.957  -0.298   4.487 -2.0048  0.2236  0.0226
  192MOL0     H25313   1.876  -0.416   4.578  2.1247 -2.0662 -2.3861
  192MOL0     H25314   2.114  -0.266   4.714 -2.6997  0.6421  3.9479
  192MOL0     H25315   2.104  -0.417   4.622  1.4929 -2.2915  1.6581
  192MOL0     H25316   1.954  -0.313   4.866 -1.3917  0.0844 -0.5142
  192MOL0     H25317   1.931  -0.482   4.813  2.9208 -2.4517  2.1802
  192MOL0     H25318   2.183  -0.360   4.933  0.1077 -0.2033  0.9322
  192MOL0     H25319   2.179  -0.521   4.849  0.9940 -0.1475  0.7208
  192MOL0     H25320   2.016  -0.615   5.015  1.2850 -2.1567  1.8759
  192MOL0     H25321   2.002  -0.452   5.090  1.3393  0.6342  0.4948
  192MOL0     H25322   2.255  -0.606   5.088  1.7018  2.4611  0.0151
  192MOL0     H25323   2.237  -0.448   5.138  0.1791  0.4953 -1.6420
  192MOL0     H25324   2.067  -0.487   5.300 -1.9505 -1.6562 -1.3079
  192MOL0     H25325   2.204  -0.584   5.359 -0.3309 -1.2414  0.2260
  192MOL0     H25326   1.680  -0.051   4.341  4.2760 -0.3414  0.9235
  192MOL0     H25327   1.476   0.108   4.330 -0.0692 -0.0541  0.3686
  192MOL0     H25328   1.068   0.184   4.436  0.4699 -1.0840  0.4297
  192MOL0     H25329   0.818   0.186   4.481  0.6308 -4.1694  0.5100
  192MOL0     H25330   0.386   2.012   4.782  2.3722 -0.4883  0.2240
  192MOL0     H25331   0.493   2.191   4.656 -2.3331 -0.1833  1.7712
  192MOL0     H25332   0.799   2.159   4.145  1.9489  1.0556  2.4587
  192MOL0     H25333   0.891   2.333   3.996  0.6443  0.4510  0.6262
  192MOL0     H25334   0.837   2.516   3.831 -0.8646  1.4831 -0.1539
  192MOL0     H25335   0.997   2.526   3.923  1.8293 -0.7167 -2.6238
  192MOL0     H25336   0.971   2.673   3.717  1.7033 -1.0606  0.6407
  192MOL0     H25337   0.843   2.761   3.811  0.0872  0.7754 -1.2133
  192MOL0     H25338   1.098   2.852   3.820 -2.7091 -0.2969 -1.6499
  192MOL0     H25339   1.130   2.705   3.904  3.2593  2.5183 -0.6130
  192MOL0     H25340   0.925   2.918   3.980 -0.8147  0.0659  0.1913
  192MOL0     H25341   0.981   2.768   4.070  1.6513  0.0953  1.3735
  192MOL0     H25342   1.289   3.018   4.193 -0.6347  3.2175 -1.1712
  192MOL0     H25343   0.678   2.637   4.217  3.8252  0.0881 -0.4964
  192MOL0     H25344   0.558   2.475   4.345  0.1763 -0.5182 -0.0764
  193MOL0     O25345   3.152   6.099   6.575 -0.6434 -0.4243 -0.4820
  193MOL0     C25346   3.196   6.015   6.494  0.4878 -0.4485 -0.2305
  193MOL0     O25347   3.218   5.888   6.523  0.1985  0.1593 -0.4712
  193MOL0     C25348   3.194   5.842   6.651  0.7724 -0.1909 -0.3962
  193MOL0     C25349   3.087   5.879   6.729  0.5833  0.0788  0.1106
  193MOL0     C25350   3.056   5.813   6.845  0.2504  0.8063  0.1706
  193MOL0     C25351   3.140   5.723   6.904  0.2972 -0.0689 -0.4137
  193MOL0     O25352   3.109   5.659   7.026  0.4442 -0.1439  0.0187
  193MOL0     C25353   3.108   5.758   7.135 -0.3029 -0.0570  0.1096
  193MOL0     C25354   2.968   5.787   7.169 -0.2431 -0.9605 -0.4757
  193MOL0     C25355   2.947   5.929   7.236  0.0251  0.5312  0.6596
  193MOL0     C25356   2.901   5.940   7.386 -0.5262  0.3580  0.7280
  193MOL0     C25357   2.990   5.858   7.477  0.3472  0.8012  0.3209
  193MOL0     C25358   3.139   5.898   7.484  0.4164 -0.1789 -0.2488
  193MOL0     C25359   3.232   5.780   7.528  0.1545  0.7796 -0.4033
  193MOL0     C25360   3.232   5.751   7.682  0.1634 -0.0553  0.6681
  193MOL0     N25361   3.342   5.651   7.718  0.8371 -0.2207 -0.1096
  193MOL0     C25362   3.354   5.591   7.845  0.1653  0.0188 -0.0781
  193MOL0     C25363   3.466   5.526   7.844 -0.8658  0.6419 -0.8713
  193MOL0     C25364   3.506   5.426   7.955 -0.8364  0.1005 -0.5360
  193MOL0     C25365   3.602   5.480   8.055 -0.5614  0.0609  0.2525
  193MOL0     C25366   3.550   5.590   8.146 -0.1085 -0.1158  0.9795
  193MOL0     C25367   3.465   5.554   8.269  0.8325  0.0634  0.5362
  193MOL0     O25368   3.537   5.461   8.353 -0.2931 -1.2396 -0.2511
  193MOL0     C25369   3.656   5.498   8.425  0.8427 -0.5021  0.6137
  193MOL0     C25370   3.742   5.395   8.426 -0.0486  0.1033  0.5054
  193MOL0     C25371   3.871   5.408   8.477 -0.5527  0.1842  1.1449
  193MOL0     C25372   3.911   5.531   8.535  0.3458  0.6335 -0.7042
  193MOL0     C25373   4.045   5.540   8.600  0.3009 -0.3160 -0.2373
  193MOL0     O25374   4.143   5.469   8.556  0.6110  0.2581  0.1130
  193MOL0     C25375   4.267   5.485   8.603  0.1296 -0.9613 -0.9024
  193MOL0     C25376   4.289   5.492   8.743 -0.6844  0.2587 -0.4072
  193MOL0     C25377   4.425   5.517   8.801  1.0220  0.1224  0.0949
  193MOL0     C25378   4.527   5.527   8.706  0.3853  0.7304  0.3356
  193MOL0     O25379   4.657   5.551   8.741 -0.6872 -1.2298 -0.5064
  193MOL0     C25380   4.700   5.528   8.881  0.1946 -0.3096  0.5553
  193MOL0     C25381   4.844   5.541   8.887 -0.9784 -0.7045 -0.2621
  193MOL0     C25382   4.923   5.477   9.007 -0.3740 -0.8602 -0.8129
  193MOL0     C25383   4.894   5.337   9.045  1.0380 -0.3477  0.3390
  193MOL0     C25384   5.001   5.285   9.143 -0.6838  0.4624  0.1843
  193MOL0     C25385   4.935   5.167   9.203  0.4696 -0.1694 -0.1896
  193MOL0     C25386   4.833   5.184   9.312 -0.0807  0.5019 -0.8214
  193MOL0     C25387   4.824   5.058   9.394  0.5468 -0.3928 -0.2618
  193MOL0    Cl25388   4.947   5.043   9.528  0.3236 -0.3930  0.3312
  193MOL0     C25389   4.508   5.537   8.564  0.3951 -0.3968  0.6027
  193MOL0     C25390   4.375   5.509   8.520 -0.3139 -0.0581  0.8055
  193MOL0     O25391   4.053   5.627   8.688 -0.8897 -0.2015  0.2849
  193MOL0     C25392   3.827   5.640   8.533  0.2712  0.0239  0.2930
  193MOL0     C25393   3.696   5.620   8.476  0.2790  0.8493  0.5645
  193MOL0     N25394   3.536   5.556   7.734 -0.1269  0.7273  0.5784
  193MOL0     N25395   3.456   5.631   7.654 -0.6890  0.5757 -0.1589
  193MOL0     C25396   3.256   5.695   6.836  0.5402 -0.3228  0.1929
  193MOL0     C25397   3.291   5.761   6.717 -0.3168 -0.1736  0.0093
  193MOL0     C25398   3.199   6.059   6.352 -0.2162  0.2689 -0.6692
  193MOL0     C25399   3.264   5.972   6.261  0.2081 -0.1011  0.3219
  193MOL0     C25400   3.254   5.987   6.119  0.9581 -1.2140  0.3396
  193MOL0     C25401   3.180   6.101   6.069  0.4721 -0.3949  0.1866
  193MOL0     O25402   3.184   6.146   5.934 -0.6603  0.1858  0.2025
  193MOL0     C25403   3.184   6.035   5.836  0.0487  0.4779  0.3132
  193MOL0     C25404   3.051   5.997   5.778 -0.9578  0.5781  0.4033
  193MOL0     C25405   3.004   6.107   5.676 -0.5091 -0.3570 -0.2325
  193MOL0     C25406   3.061   6.082   5.535 -0.0114  0.4221  0.0769
  193MOL0     C25407   2.984   6.170   5.448  0.5906 -0.1571  0.1149
  193MOL0     C25408   2.930   6.236   5.355 -0.1418 -0.0666 -0.4586
  193MOL0     C25409   3.113   6.182   6.160 -0.1616  0.1609  0.0063
  193MOL0     C25410   3.120   6.168   6.300  0.9983 -0.6621 -0.3703
  193MOL0     H25411   3.006   5.928   6.675  1.9541  2.4414  0.0801
  193MOL0     H25412   2.960   5.828   6.893  0.2615 -0.6545  0.6813
  193MOL0     H25413   3.151   5.852   7.098  0.4272 -0.4999 -0.2011
  193MOL0     H25414   3.171   5.726   7.219  0.3184 -0.6191 -0.5586
  193MOL0     H25415   2.926   5.718   7.242 -1.2299  0.2409  0.1321
  193MOL0     H25416   2.902   5.779   7.082 -1.1084 -0.4581  0.1186
  193MOL0     H25417   2.878   5.978   7.168  2.2941 -0.7146 -2.8190
  193MOL0     H25418   3.028   6.002   7.221 -2.1905  2.9856 -0.0871
  193MOL0     H25419   2.907   6.042   7.425 -1.7722  0.6160  0.2767
  193MOL0     H25420   2.795   5.914   7.384 -0.9766  2.0703 -1.5047
  193MOL0     H25421   2.980   5.757   7.435  1.0642 -0.2442  2.5362
  193MOL0     H25422   2.941   5.856   7.575 -3.7190 -0.3280 -1.5268
  193MOL0     H25423   3.153   5.984   7.551  0.1152  0.6435 -1.2229
  193MOL0     H25424   3.174   5.937   7.388  1.7656  0.3534  0.4309
  193MOL0     H25425   3.211   5.688   7.473 -0.0301  1.7666 -2.0510
  193MOL0     H25426   3.335   5.808   7.503  0.4396 -2.5686 -4.0673
  193MOL0     H25427   3.132   5.712   7.702  0.6998 -1.1859  1.2642
  193MOL0     H25428   3.252   5.844   7.736  1.3123 -2.1953  4.3014
  193MOL0     H25429   3.276   5.571   7.918 -0.3048  0.4880 -0.4348
  193MOL0     H25430   3.536   5.330   7.911 -1.0463  0.0011 -0.4639
  193MOL0     H25431   3.432   5.395   8.030  1.7928  0.6565  2.4923
  193MOL0     H25432   3.692   5.522   8.010  0.8352 -2.0051  0.9813
  193MOL0     H25433   3.638   5.398   8.118 -1.2348 -0.1727  0.3361
  193MOL0     H25434   3.641   5.631   8.191 -0.0225  2.2802 -1.1465
  193MOL0     H25435   3.516   5.675   8.086  1.1357  0.8809  1.6400
  193MOL0     H25436   3.364   5.520   8.244  1.5843 -0.8868 -1.4699
  193MOL0     H25437   3.441   5.638   8.334  2.2613 -1.8070  3.7874
  193MOL0     H25438   3.707   5.301   8.386 -0.7174  0.0377  1.2303
  193MOL0     H25439   3.937   5.323   8.482 -2.9289 -2.1274 -2.1484
  193MOL0     H25440   4.203   5.479   8.808 -1.3320  3.5644 -0.4241
  193MOL0     H25441   4.428   5.508   8.909 -3.6554  0.5907  0.4828
  193MOL0     H25442   4.667   5.426   8.904  3.5967 -1.8903 -0.9255
  193MOL0     H25443   4.654   5.601   8.949  0.0372 -0.4026  0.5518
  193MOL0     H25444   4.874   5.646   8.879  2.7833 -1.3886  2.1461
  193MOL0     H25445   4.891   5.494   8.800 -0.7712 -2.8015  0.9179
  193MOL0     H25446   4.923   5.539   9.097  0.7661 -1.3102 -0.4916
  193MOL0     H25447   5.025   5.468   8.971 -0.0026  0.1621 -0.0664
  193MOL0     H25448   4.797   5.328   9.094  0.1062 -1.7724 -1.6219
  193MOL0     H25449   4.884   5.271   8.958 -0.3120 -0.0825  0.2794
  193MOL0     H25450   5.019   5.353   9.227  0.8262 -0.6419  0.8001
  193MOL0     H25451   5.097   5.256   9.100 -1.6204  1.0441 -2.5191
  193MOL0     H25452   5.006   5.098   9.249 -2.4692 -1.8539  2.2441
  193MOL0     H25453   4.886   5.107   9.126  0.0218 -0.7489  0.5311
  193MOL0     H25454   4.871   5.259   9.383  0.6097 -0.4928 -0.1081
  193MOL0     H25455   4.732   5.215   9.286 -1.0220 -3.0902 -2.0399
  193MOL0     H25456   4.836   4.972   9.328 -0.1334 -0.3314 -0.4651
  193MOL0     H25457   4.727   5.069   9.442  0.8457 -0.8977  0.4690
  193MOL0     H25458   4.591   5.549   8.495 -1.8122 -2.5692 -2.7007
  193MOL0     H25459   4.350   5.509   8.414 -2.5002  2.0771  1.2152
  193MOL0     H25460   3.858   5.739   8.566  1.0128 -0.7266  1.9595
  193MOL0     H25461   3.632   5.702   8.446 -0.0262 -0.0494 -1.3889
  193MOL0     H25462   3.330   5.637   6.889 -0.4364 -1.9921 -0.2038
  193MOL0     H25463   3.383   5.745   6.663 -0.6896  0.6504 -0.9025
  193MOL0     H25464   3.315   5.879   6.283  0.5940 -1.1100 -3.9161
  193MOL0     H25465   3.325   5.934   6.057  3.2901  0.4724  1.4069
  193MOL0     H25466   3.241   5.946   5.866 -1.0536 -0.3157  0.1267
  193MOL0     H25467   3.232   6.073   5.745  0.0487  0.4328  0.2939
  193MOL0     H25468   3.055   5.895   5.740  0.5130  0.5349  0.6197
  193MOL0     H25469   2.982   5.989   5.863  2.8009  3.3053  4.1439
  193MOL0     H25470   3.034   6.204   5.718  1.0713 -1.8097  2.2822
  193MOL0     H25471   2.895   6.099   5.675 -0.4583 -4.0513  2.2022
  193MOL0     H25472   3.167   6.107   5.526 -0.4235  2.8012  1.1781
  193MOL0     H25473   3.035   5.979   5.509  1.8561 -1.1876  3.8022
  193MOL0     H25474   2.904   6.298   5.272 -1.1916 -0.7961 -0.6963
  193MOL0     H25475   3.042   6.256   6.126 -1.2250 -0.9816 -0.3601
  193MOL0     H25476   3.051   6.227   6.360  4.1966  0.8922  2.0920
  194MOL0     O25477   6.523   3.489   3.864 -0.4123 -0.0071 -0.4497
  194MOL0     C25478   6.564   3.374   3.840 -0.4478 -1.1918 -0.4206
  194MOL0     O25479   6.590   3.316   3.721 -0.1975  0.2800  0.1062
  194MOL0     C25480   6.562   3.393   3.613 -0.1243  0.1845  0.4545
  194MOL0     C25481   6.459   3.358   3.527 -0.2838  0.0187  0.7877
  194MOL0     C25482   6.452   3.423   3.408 -0.2318  0.3473  0.1602
  194MOL0     C25483   6.543   3.516   3.355 -1.1953  0.7640 -0.0091
  194MOL0     O25484   6.511   3.558   3.231  0.2905 -0.8213 -0.5243
  194MOL0     C25485   6.611   3.617   3.159 -0.2755  0.4038 -0.3241
  194MOL0     C25486   6.571   3.634   3.012 -0.5602  0.1487 -0.3543
  194MOL0     C25487   6.584   3.780   2.949 -0.0675 -0.2730  0.4170
  194MOL0     C25488   6.721   3.812   2.874  0.3863  0.1401  0.4872
  194MOL0     C25489   6.700   3.933   2.787  0.3490  0.3812 -1.3283
  194MOL0     C25490   6.825   4.004   2.736  0.1919  0.1379 -0.0226
  194MOL0     C25491   6.784   4.122   2.657 -0.0872 -1.3924  0.0362
  194MOL0     C25492   6.709   4.234   2.751  0.2189 -0.5277  0.1721
  194MOL0     N25493   6.791   4.273   2.869 -0.6789 -0.2666  1.6537
  194MOL0     C25494   6.921   4.318   2.878  0.2552  0.0987 -0.4664
  194MOL0     C25495   6.929   4.368   3.006  0.0063 -0.5393 -1.0750
  194MOL0     C25496   7.044   4.451   3.048  0.3818 -0.8130 -0.0547
  194MOL0     C25497   7.092   4.553   2.945  0.6517 -0.5277 -0.1755
  194MOL0     C25498   7.186   4.653   3.008 -0.0425 -0.1851  0.1911
  194MOL0     C25499   7.316   4.579   3.060  0.2634 -0.7087 -1.3508
  194MOL0     O25500   7.409   4.546   2.947  0.9367 -0.3611  0.4288
  194MOL0     C25501   7.537   4.575   2.968  0.2279  0.4518  0.0380
  194MOL0     C25502   7.625   4.461   2.961  1.1710 -0.3947 -0.2338
  194MOL0     C25503   7.760   4.482   2.973 -0.2645 -0.3731  0.0204
  194MOL0     C25504   7.821   4.609   3.001  0.8957 -0.4535  0.2962
  194MOL0     C25505   7.961   4.618   3.028 -0.4243  0.5673 -0.2004
  194MOL0     O25506   8.034   4.508   3.027  1.0452  0.5877 -0.2309
  194MOL0     C25507   8.169   4.485   3.015 -0.8455 -0.5798 -0.9931
  194MOL0     C25508   8.204   4.350   2.991  0.5279 -0.2340 -0.4690
  194MOL0     C25509   8.336   4.322   2.992 -0.0321  0.5412 -0.3852
  194MOL0     C25510   8.438   4.410   3.022 -0.6152 -0.6131  0.3776
  194MOL0     O25511   8.561   4.354   3.057 -0.2526 -0.1133  0.1506
  194MOL0     C25512   8.658   4.437   3.121  0.1092 -0.2111  1.0926
  194MOL0     C25513   8.800   4.385   3.085 -0.8856  0.0082  0.3950
  194MOL0     C25514   8.907   4.491   3.117  0.0700  0.1633  0.6284
  194MOL0     C25515   9.044   4.434   3.092  0.5758 -0.7205  0.1107
  194MOL0     C25516   9.154   4.532   3.145 -0.4516  1.1884 -0.3305
  194MOL0     C25517   9.163   4.657   3.061 -0.8319 -0.2144  0.0302
  194MOL0     C25518   9.288   4.734   3.093  0.2835  1.0976  0.2910
  194MOL0     C25519   9.413   4.675   3.026 -0.3156  0.2643  0.2088
  194MOL0    Cl25520   9.420   4.702   2.840 -0.0617 -0.2680  0.1844
  194MOL0     C25521   8.402   4.545   3.021  0.0191 -0.6265  0.1792
  194MOL0     C25522   8.269   4.584   3.026 -0.2892  0.2719 -0.5016
  194MOL0     O25523   8.009   4.730   3.042  0.8363  0.6272 -0.3110
  194MOL0     C25524   7.726   4.721   3.011 -0.7058  0.0044  1.0404
  194MOL0     C25525   7.587   4.705   2.999  0.5358 -0.9799  0.3666
  194MOL0     N25526   6.826   4.328   3.085  0.6404  0.5951 -1.0635
  194MOL0     N25527   6.745   4.273   2.998 -0.7808 -0.6673  0.2792
  194MOL0     C25528   6.647   3.544   3.444  0.0872 -0.9963  0.3425
  194MOL0     C25529   6.655   3.494   3.571 -0.8156 -0.8374  0.7669
  194MOL0     C25530   6.610   3.296   3.964  0.2464  0.7505  0.0078
  194MOL0     C25531   6.649   3.350   4.084  0.3127  0.3388 -0.0627
  194MOL0     C25532   6.686   3.277   4.199 -0.0022  0.0369 -0.0731
  194MOL0     C25533   6.668   3.144   4.195 -0.2278  0.3347  0.4696
  194MOL0     O25534   6.701   3.071   4.308  0.7340  0.7207 -0.1799
  194MOL0     C25535   6.619   3.090   4.425  0.3116 -0.6442 -0.3312
  194MOL0     C25536   6.604   2.960   4.495 -0.2119  0.1119 -0.4845
  194MOL0     C25537   6.731   2.888   4.535  0.1031 -0.4025  0.2920
  194MOL0     C25538   6.822   2.982   4.626  0.8448 -1.0415 -0.9245
  194MOL0     C25539   6.929   2.905   4.682  0.7410 -0.8455  0.2718
  194MOL0     C25540   7.024   2.858   4.731 -0.9426 -0.0790  0.2212
  194MOL0     C25541   6.644   3.077   4.069 -0.3376 -1.2653  0.0426
  194MOL0     C25542   6.608   3.152   3.957  0.7393  1.5351  0.5071
  194MOL0     H25543   6.387   3.279   3.546 -1.2428  0.6552 -0.0604
  194MOL0     H25544   6.374   3.399   3.336 -0.1729 -0.9306  0.5042
  194MOL0     H25545   6.696   3.550   3.173 -0.7966 -0.1051  0.4581
  194MOL0     H25546   6.638   3.715   3.200  0.6457 -0.5253  1.3993
  194MOL0     H25547   6.465   3.608   3.001 -1.0721  0.8762  2.1894
  194MOL0     H25548   6.617   3.560   2.946  0.5809  2.6954 -2.6147
  194MOL0     H25549   6.563   3.846   3.034 -2.4266  0.7394 -0.8344
  194MOL0     H25550   6.499   3.804   2.884 -1.7509 -1.5269  2.0641
  194MOL0     H25551   6.799   3.819   2.950  2.1698 -0.0130 -1.2337
  194MOL0     H25552   6.746   3.728   2.808 -2.2287 -1.8263  1.7891
  194MOL0     H25553   6.642   4.004   2.847 -0.6055 -0.3908 -1.3149
  194MOL0     H25554   6.648   3.898   2.697 -1.2555 -5.8440  1.4745
  194MOL0     H25555   6.884   3.938   2.673  0.4045  0.3706 -0.0679
  194MOL0     H25556   6.882   4.033   2.825 -0.3648 -0.9488  0.7167
  194MOL0     H25557   6.866   4.177   2.610 -2.1675  0.0344 -2.2004
  194MOL0     H25558   6.715   4.084   2.580 -1.1104 -1.6466  1.0537
  194MOL0     H25559   6.613   4.204   2.794  0.8537 -3.6445 -0.3658
  194MOL0     H25560   6.691   4.322   2.689 -1.0668 -1.2739 -0.5305
  194MOL0     H25561   7.000   4.331   2.805  1.2710 -0.3482  0.5327
  194MOL0     H25562   7.124   4.378   3.062 -0.5414 -1.5663  1.7996
  194MOL0     H25563   7.019   4.506   3.140  2.2105  0.0888 -0.0690
  194MOL0     H25564   7.001   4.597   2.904 -0.0465 -1.2691  0.5315
  194MOL0     H25565   7.155   4.507   2.869  1.4545 -3.8203  2.2206
  194MOL0     H25566   7.212   4.731   2.936  0.9132 -1.3482 -0.7714
  194MOL0     H25567   7.134   4.689   3.097  2.1095  0.2979  1.3156
  194MOL0     H25568   7.293   4.490   3.119  0.0542  0.6866  0.8237
  194MOL0     H25569   7.352   4.652   3.134 -4.8676 -0.3367  1.1885
  194MOL0     H25570   7.593   4.358   2.949  0.3460 -0.1624 -0.1243
  194MOL0     H25571   7.824   4.394   2.982  2.7321  1.6988  0.4644
  194MOL0     H25572   8.137   4.266   2.975  2.1394 -1.6585  0.0314
  194MOL0     H25573   8.356   4.215   2.986  1.5059  0.7611  0.4915
  194MOL0     H25574   8.641   4.440   3.229  0.4228 -0.0564  1.1397
  194MOL0     H25575   8.646   4.538   3.081 -2.4329  0.2848  2.8738
  194MOL0     H25576   8.817   4.366   2.978  4.1731 -0.9066  1.0830
  194MOL0     H25577   8.825   4.289   3.132  1.6699  0.8664  0.9336
  194MOL0     H25578   8.900   4.501   3.226  1.1270 -0.5214  0.7750
  194MOL0     H25579   8.880   4.587   3.072 -1.8349 -0.8619 -0.5500
  194MOL0     H25580   9.063   4.341   3.147 -0.1215 -0.8852  0.0828
  194MOL0     H25581   9.053   4.412   2.986 -1.6980 -3.4307  0.3725
  194MOL0     H25582   9.250   4.481   3.131 -1.1565 -0.3773  0.3309
  194MOL0     H25583   9.149   4.557   3.252 -1.1604  0.2438 -0.1253
  194MOL0     H25584   9.067   4.706   3.081 -2.5370 -3.9650  1.9663
  194MOL0     H25585   9.164   4.646   2.952 -1.4618  2.6424 -0.3514
  194MOL0     H25586   9.281   4.839   3.064  2.2226  0.8762 -1.2302
  194MOL0     H25587   9.302   4.742   3.201  3.9667 -2.3169  0.2800
  194MOL0     H25588   9.416   4.569   3.054  3.9678  0.3389  0.6392
  194MOL0     H25589   9.501   4.729   3.061 -1.1346  2.4481 -0.9027
  194MOL0     H25590   8.476   4.617   3.055 -0.0620  0.4431 -1.7358
  194MOL0     H25591   8.241   4.683   3.061 -3.2410 -1.2176  1.8095
  194MOL0     H25592   7.760   4.821   3.039  0.1428 -0.2050  0.7905
  194MOL0     H25593   7.521   4.791   2.996  2.5756  0.7739  2.6924
  194MOL0     H25594   6.716   3.616   3.401 -0.3296  0.1905  1.5996
  194MOL0     H25595   6.739   3.524   3.633 -0.6049 -0.5006  0.3220
  194MOL0     H25596   6.651   3.458   4.079  1.2486  0.2647 -1.8245
  194MOL0     H25597   6.715   3.322   4.294  4.0776 -0.8173 -0.7314
  194MOL0     H25598   6.517   3.120   4.398  1.0315  2.4468 -0.0841
  194MOL0     H25599   6.658   3.167   4.493  1.9942  0.0982 -2.0495
  194MOL0     H25600   6.550   2.976   4.589 -3.2976  0.7573 -2.2214
  194MOL0     H25601   6.546   2.892   4.431  0.5567 -0.2613 -0.8009
  194MOL0     H25602   6.777   2.842   4.448 -0.0337  2.2747 -1.3015
  194MOL0     H25603   6.685   2.808   4.595 -1.5999 -1.2706 -2.0085
  194MOL0     H25604   6.869   3.067   4.575  3.4083 -0.9842  1.3326
  194MOL0     H25605   6.771   3.029   4.711  0.7101 -2.8139  0.0078
  194MOL0     H25606   7.105   2.808   4.779  0.6032  0.3462 -1.7897
  194MOL0     H25607   6.634   2.969   4.065  0.7961 -1.3438 -1.6473
  194MOL0     H25608   6.594   3.089   3.870 -2.1933  1.5848  0.8391
  195MOL0     O25609  10.409   9.691   1.124  0.0674  0.1823  0.5038
  195MOL0     C25610  10.361   9.671   1.239  0.3500 -0.6119  0.1665
  195MOL0     O25611  10.390   9.559   1.314 -0.0223  0.7027 -0.4039
  195MOL0     C25612  10.484   9.466   1.287  0.3837  1.5381 -0.0120
  195MOL0     C25613  10.444   9.332   1.256  0.1771 -0.4308 -0.1571
  195MOL0     C25614  10.534   9.237   1.210  1.1430 -0.2617 -0.3065
  195MOL0     C25615  10.666   9.263   1.208 -0.0416  0.8829 -0.3735
  195MOL0     O25616  10.756   9.166   1.157  0.1005  0.0483  0.1538
  195MOL0     C25617  10.895   9.188   1.177 -0.1954 -0.4040 -0.5212
  195MOL0     C25618  10.984   9.074   1.145 -0.8479  0.0733 -0.0120
  195MOL0     C25619  11.139   9.093   1.169  0.6274  0.8638  0.1697
  195MOL0     C25620  11.223   8.971   1.131  0.3783 -0.9949  0.1206
  195MOL0     C25621  11.345   8.964   1.221 -0.4011  0.3858  0.2535
  195MOL0     C25622  11.475   8.906   1.159  0.4721  0.5884 -0.9521
  195MOL0     C25623  11.604   8.965   1.215 -1.0232 -0.4432 -1.1804
  195MOL0     C25624  11.737   8.923   1.145  0.8871  0.5443  0.0846
  195MOL0     N25625  11.751   8.774   1.143 -0.1808 -0.3824 -0.6854
  195MOL0     C25626  11.708   8.700   1.031  0.1539 -0.1731 -0.0578
  195MOL0     C25627  11.768   8.576   1.050 -0.4403 -0.1454 -0.1714
  195MOL0     C25628  11.736   8.460   0.950 -0.5902 -0.0549  0.4623
  195MOL0     C25629  11.831   8.443   0.827 -0.5885 -0.8491  0.4198
  195MOL0     C25630  11.961   8.408   0.876 -0.2566  0.0613 -1.2478
  195MOL0     C25631  12.061   8.356   0.761  0.1973 -0.0183  0.7797
  195MOL0     O25632  12.087   8.474   0.683  0.5793  0.3294  0.1128
  195MOL0     C25633  12.172   8.461   0.572  0.9112 -0.1290 -0.4691
  195MOL0     C25634  12.280   8.533   0.575 -1.1538 -0.2733 -1.4304
  195MOL0     C25635  12.370   8.519   0.470 -0.0320  0.2808  0.9030
  195MOL0     C25636  12.362   8.417   0.373  0.2639 -0.1670  0.2133
  195MOL0     C25637  12.481   8.397   0.286  0.7826  0.3223  1.1573
  195MOL0     O25638  12.606   8.430   0.338  0.7472 -0.1219  0.0965
  195MOL0     C25639  12.698   8.450   0.239  0.6436 -0.3083 -0.4923
  195MOL0     C25640  12.693   8.552   0.145 -0.0876 -0.4570  0.3555
  195MOL0     C25641  12.800   8.597   0.066 -0.2239 -1.0038  0.5129
  195MOL0     C25642  12.919   8.525   0.069 -0.9231 -0.3331  0.7407
  195MOL0     O25643  13.015   8.559  -0.023  0.3387 -0.3437 -0.3470
  195MOL0     C25644  13.141   8.585   0.042  0.1274 -0.6303  0.1957
  195MOL0     C25645  13.246   8.582  -0.073  0.0771 -1.4322  0.4925
  195MOL0     C25646  13.259   8.432  -0.106 -0.0285 -1.2752 -0.0344
  195MOL0     C25647  13.356   8.421  -0.220 -0.1711  0.7205 -0.4357
  195MOL0     C25648  13.376   8.274  -0.249 -0.6667 -0.3043 -0.2838
  195MOL0     C25649  13.486   8.247  -0.355  0.8372  0.4617 -0.3880
  195MOL0     C25650  13.622   8.267  -0.303 -0.4884 -1.0670  0.6616
  195MOL0     C25651  13.719   8.281  -0.410 -0.1096  0.0486  0.1502
  195MOL0    Cl25652  13.749   8.114  -0.493  0.1989 -0.2758 -0.4787
  195MOL0     C25653  12.922   8.406   0.147 -0.0139  0.8874  0.0248
  195MOL0     C25654  12.813   8.371   0.226  0.2019 -1.0354  0.6235
  195MOL0     O25655  12.456   8.347   0.177  0.0074  0.5015 -0.0132
  195MOL0     C25656  12.240   8.341   0.364 -0.2414  0.8067 -0.9163
  195MOL0     C25657  12.143   8.361   0.467 -0.8685  0.4846  0.5776
  195MOL0     N25658  11.822   8.571   1.176  0.1918 -0.8411  0.0343
  195MOL0     N25659  11.822   8.692   1.227  0.1106 -0.3371  0.1228
  195MOL0     C25660  10.702   9.392   1.232  0.0042 -0.2053 -0.4672
  195MOL0     C25661  10.618   9.491   1.273 -0.2338 -0.4056 -0.5128
  195MOL0     C25662  10.260   9.761   1.300 -0.2752  0.0963  0.2317
  195MOL0     C25663  10.203   9.873   1.236 -1.7266 -0.4272 -0.6660
  195MOL0     C25664  10.122   9.963   1.308  0.2962  0.6033 -0.4340
  195MOL0     C25665  10.085   9.941   1.446 -0.1406  1.1188  0.4334
  195MOL0     O25666  10.005  10.017   1.526  0.1023 -0.2431  0.7306
  195MOL0     C25667  10.024  10.157   1.515 -0.6164 -0.3434 -0.2418
  195MOL0     C25668   9.971  10.203   1.654  0.5052 -0.8561  0.0996
  195MOL0     C25669   9.880  10.322   1.620 -0.0683 -1.0438 -0.2804
  195MOL0     C25670   9.834  10.399   1.746 -0.5743  0.1516 -0.2457
  195MOL0     C25671   9.952  10.472   1.812 -0.3871 -0.7517  0.5359
  195MOL0     C25672  10.050  10.530   1.855  0.6823 -0.6169 -0.8308
  195MOL0     C25673  10.129   9.823   1.503 -0.2449  1.0867  0.5591
  195MOL0     C25674  10.229   9.740   1.432 -0.0862 -0.4012 -0.1401
  195MOL0     H25675  10.338   9.308   1.266  0.3426 -2.4751 -2.3826
  195MOL0     H25676  10.489   9.142   1.184  0.0670 -0.0888  0.8196
  195MOL0     H25677  10.899   9.209   1.284  3.0787 -0.2994 -0.5499
  195MOL0     H25678  10.931   9.276   1.124  1.8402  0.0161  1.4040
  195MOL0     H25679  10.974   9.050   1.038  0.7286  0.3885 -0.2564
  195MOL0     H25680  10.945   8.986   1.196 -2.4646 -1.7172 -3.9038
  195MOL0     H25681  11.144   9.108   1.277 -2.8027 -3.0832  1.1737
  195MOL0     H25682  11.175   9.188   1.128  1.8897  1.3091  2.2021
  195MOL0     H25683  11.181   8.872   1.152 -0.3263 -0.4620  1.3250
  195MOL0     H25684  11.244   8.980   1.024 -2.0645 -1.9861 -0.5276
  195MOL0     H25685  11.312   8.919   1.315 -0.8629 -2.0015 -0.9887
  195MOL0     H25686  11.371   9.066   1.252 -3.0450  1.0239  0.6111
  195MOL0     H25687  11.479   8.947   1.057 -0.9045  1.7003 -0.5821
  195MOL0     H25688  11.487   8.798   1.168 -0.8383  0.1198 -3.6276
  195MOL0     H25689  11.605   9.075   1.215 -1.8741 -0.3887 -3.0335
  195MOL0     H25690  11.612   8.930   1.318 -1.0947 -0.5946 -1.2264
  195MOL0     H25691  11.811   8.960   1.216 -0.6427  1.8602  1.0287
  195MOL0     H25692  11.742   8.958   1.041 -3.9314 -3.1407 -1.7966
  195MOL0     H25693  11.655   8.731   0.942 -3.5055 -0.6113  1.7657
  195MOL0     H25694  11.636   8.488   0.916 -0.5769  1.9994  1.9439
  195MOL0     H25695  11.736   8.361   0.997  1.0102 -0.5632 -0.5564
  195MOL0     H25696  11.824   8.535   0.768 -0.6260 -1.8010 -1.1191
  195MOL0     H25697  11.797   8.362   0.763 -0.2829  1.0431 -2.2919
  195MOL0     H25698  12.011   8.494   0.921 -0.3083 -0.3682 -0.3398
  195MOL0     H25699  11.967   8.332   0.955  0.0163  0.9878 -0.3561
  195MOL0     H25700  12.001   8.284   0.705 -2.4399  2.0246  0.8057
  195MOL0     H25701  12.151   8.312   0.805  1.6076 -1.4182 -3.0383
  195MOL0     H25702  12.306   8.602   0.654 -3.7921 -0.3630 -0.3600
  195MOL0     H25703  12.458   8.582   0.473 -0.5995  1.0912  0.9665
  195MOL0     H25704  12.609   8.620   0.136  1.2143  1.3027  0.9571
  195MOL0     H25705  12.787   8.686   0.004 -2.6268  0.6661  3.1626
  195MOL0     H25706  13.165   8.521   0.127  0.4109  1.2887  1.6213
  195MOL0     H25707  13.141   8.690   0.074  1.2229 -0.9281  1.2447
  195MOL0     H25708  13.338   8.633  -0.042  0.8033 -0.2701 -3.1091
  195MOL0     H25709  13.205   8.645  -0.152  2.4782  2.7428  2.1886
  195MOL0     H25710  13.160   8.385  -0.114 -2.0148  2.0822  2.1603
  195MOL0     H25711  13.293   8.381  -0.016  2.5393  0.7363  0.2693
  195MOL0     H25712  13.314   8.467  -0.309 -0.5641 -2.7538 -2.2095
  195MOL0     H25713  13.447   8.478  -0.198 -0.5292  1.5727 -1.0979
  195MOL0     H25714  13.280   8.245  -0.293 -1.1374 -0.1593  0.6371
  195MOL0     H25715  13.398   8.215  -0.160  0.0900 -0.3765 -0.5065
  195MOL0     H25716  13.470   8.311  -0.442 -0.7435  2.6249  1.3942
  195MOL0     H25717  13.489   8.140  -0.380  2.3601  0.2488  0.5851
  195MOL0     H25718  13.627   8.348  -0.229 -2.2418  0.9665 -1.3177
  195MOL0     H25719  13.654   8.176  -0.252 -0.2225 -1.1538  0.3414
  195MOL0     H25720  13.811   8.314  -0.360  0.3321 -0.0602 -0.5805
  195MOL0     H25721  13.689   8.357  -0.483 -1.8018 -2.0080 -1.4053
  195MOL0     H25722  13.006   8.339   0.134 -1.8047 -1.0839 -2.5809
  195MOL0     H25723  12.825   8.281   0.285  0.1864 -0.9386  0.7751
  195MOL0     H25724  12.239   8.277   0.276  2.8046 -0.5040 -0.1157
  195MOL0     H25725  12.045   8.315   0.457 -1.1336  1.5182 -5.1127
  195MOL0     H25726  10.801   9.437   1.230 -1.5366  3.7155  1.2694
  195MOL0     H25727  10.665   9.577   1.321  0.3552 -1.0722  0.1176
  195MOL0     H25728  10.228   9.887   1.131  0.3638  0.2116 -0.1375
  195MOL0     H25729  10.079  10.050   1.259  2.8060  1.8382 -0.6318
  195MOL0     H25730   9.960  10.196   1.436 -1.2971 -0.5137  0.2145
  195MOL0     H25731  10.128  10.182   1.492  0.5298 -4.3749 -0.2710
  195MOL0     H25732   9.913  10.128   1.708 -2.3870  0.8193 -0.4750
  195MOL0     H25733  10.046  10.246   1.721 -0.0846 -1.0570  0.9059
  195MOL0     H25734   9.801  10.276   1.560  2.2527 -1.6413 -3.0787
  195MOL0     H25735   9.927  10.392   1.549 -2.2631  0.0501 -0.7601
  195MOL0     H25736   9.751  10.463   1.713 -1.0912 -0.6834 -0.5934
  195MOL0     H25737   9.795  10.321   1.811  0.6442 -0.2811  0.0040
  195MOL0     H25738  10.139  10.555   1.909 -0.4573  0.7180  0.5126
  195MOL0     H25739  10.090   9.808   1.603 -2.0011  1.8773  0.0448
  195MOL0     H25740  10.254   9.652   1.490 -1.7030 -0.8220 -0.0371
  196MOL0     O25741   0.694   8.542   8.425 -0.3215  0.6493 -0.3623
  196MOL0     C25742   0.745   8.653   8.416  0.0673  1.2406 -0.7400
  196MOL0     O25743   0.677   8.768   8.411 -0.4137 -0.3351 -0.2952
  196MOL0     C25744   0.541   8.780   8.419 -1.0784  0.0420 -0.4217
  196MOL0     C25745   0.459   8.705   8.498 -0.4862  0.3145  0.1543
  196MOL0     C25746   0.321   8.709   8.508 -0.7648  0.7583 -0.3093
  196MOL0     C25747   0.255   8.802   8.432 -0.0076  0.7525  0.1063
  196MOL0     O25748   0.122   8.796   8.450  0.4298  0.1538  0.3480
  196MOL0     C25749   0.040   8.896   8.395 -0.3338  0.3816 -0.1712
  196MOL0     C25750  -0.102   8.880   8.455 -0.9629 -0.2718 -0.2919
  196MOL0     C25751  -0.097   8.920   8.600  0.3353  0.0074  0.6379
  196MOL0     C25752  -0.216   8.864   8.681 -0.0887 -0.6904  0.9419
  196MOL0     C25753  -0.178   8.897   8.828 -0.9762  0.2046 -0.8328
  196MOL0     C25754  -0.274   8.860   8.942  0.3949  0.4614  0.2090
  196MOL0     C25755  -0.252   8.933   9.085 -0.0085  0.3568 -0.0859
  196MOL0     C25756  -0.324   8.855   9.199 -0.5396  0.5881  0.0769
  196MOL0     N25757  -0.463   8.849   9.175  0.2351 -0.0505  0.2702
  196MOL0     C25758  -0.526   8.754   9.096  0.8588 -0.8766  0.7009
  196MOL0     C25759  -0.655   8.790   9.078  0.0479  0.5889 -1.0626
  196MOL0     C25760  -0.756   8.732   8.986  1.0765  0.5468  0.1511
  196MOL0     C25761  -0.793   8.588   9.017  0.2779  0.3369 -0.4694
  196MOL0     C25762  -0.866   8.583   9.150  0.3268 -0.2364 -0.5133
  196MOL0     C25763  -0.882   8.439   9.189 -0.7610  0.5958  0.4248
  196MOL0     O25764  -0.897   8.434   9.334 -0.1042  0.0891 -1.5539
  196MOL0     C25765  -1.013   8.385   9.387 -0.2981  1.1350  0.0410
  196MOL0     C25766  -1.141   8.382   9.308  0.0150 -0.1573 -0.4175
  196MOL0     C25767  -1.266   8.338   9.368  0.3729  0.3731 -0.5065
  196MOL0     C25768  -1.281   8.324   9.502 -0.9702  0.7868 -0.7727
  196MOL0     C25769  -1.404   8.297   9.565  0.0570 -0.6052  0.2381
  196MOL0     O25770  -1.409   8.290   9.702  0.7774  0.0844  0.0017
  196MOL0     C25771  -1.535   8.288   9.761  1.4858  0.0933 -0.1538
  196MOL0     C25772  -1.625   8.388   9.727 -0.2605  0.8393  0.2787
  196MOL0     C25773  -1.755   8.399   9.794 -0.4243 -0.0999 -0.4682
  196MOL0     C25774  -1.778   8.310   9.904 -0.6480 -0.6348 -0.2334
  196MOL0     O25775  -1.896   8.326   9.977  0.5469  0.7735 -0.2985
  196MOL0     C25776  -1.880   8.435  10.077  0.0147  0.1880  0.1846
  196MOL0     C25777  -1.988   8.428  10.185  0.2655 -1.0758 -0.4734
  196MOL0     C25778  -1.977   8.312  10.281  0.9662  0.5755  0.3501
  196MOL0     C25779  -2.075   8.339  10.392 -0.5202  1.0186 -0.0827
  196MOL0     C25780  -2.054   8.235  10.515  0.1690  0.1557  0.6546
  196MOL0     C25781  -2.186   8.230  10.602 -0.2023  0.2037  0.4533
  196MOL0     C25782  -2.151   8.148  10.727  0.4595  0.4156  0.1569
  196MOL0     C25783  -2.257   8.142  10.837  0.5258  0.0341  0.1071
  196MOL0    Cl25784  -2.223   8.014  10.946 -0.2317 -0.2000 -0.0010
  196MOL0     C25785  -1.696   8.207   9.931  0.8246 -0.7084 -1.3125
  196MOL0     C25786  -1.579   8.191   9.861 -0.2013  0.1819  0.1541
  196MOL0     O25787  -1.499   8.279   9.486 -0.1736  1.2547 -0.2236
  196MOL0     C25788  -1.157   8.337   9.578  0.3433  0.6626 -0.2098
  196MOL0     C25789  -1.035   8.360   9.522 -1.5144 -0.7862  1.2301
  196MOL0     N25790  -0.678   8.894   9.172 -0.3735 -0.0285  0.4305
  196MOL0     N25791  -0.560   8.930   9.219  0.5210  0.1597 -0.7247
  196MOL0     C25792   0.331   8.887   8.346 -0.1883 -0.1269 -0.9256
  196MOL0     C25793   0.473   8.878   8.348 -0.0817  0.9805  0.1329
  196MOL0     C25794   0.889   8.648   8.392 -0.7970 -0.1598  0.4770
  196MOL0     C25795   0.965   8.535   8.376  0.1532 -0.2777 -0.5136
  196MOL0     C25796   1.106   8.544   8.370 -0.1916 -0.2445 -0.2887
  196MOL0     C25797   1.174   8.664   8.353  0.1167  0.4331  0.1794
  196MOL0     O25798   1.313   8.659   8.365  0.1551  0.1735 -0.0668
  196MOL0     C25799   1.399   8.771   8.349 -0.7418  0.2331  0.2922
  196MOL0     C25800   1.541   8.736   8.352  0.1892 -0.1574  0.1902
  196MOL0     C25801   1.623   8.851   8.411  0.1491  0.1890 -0.2004
  196MOL0     C25802   1.651   8.978   8.323 -0.6337 -0.3199 -1.0991
  196MOL0     C25803   1.709   9.077   8.405 -0.8206 -0.4687  0.9859
  196MOL0     C25804   1.761   9.160   8.477 -0.4430 -0.0900  0.6113
  196MOL0     C25805   1.097   8.777   8.365  0.0449  0.7322 -0.2024
  196MOL0     C25806   0.964   8.767   8.379  0.7442  0.7658  0.4118
  196MOL0     H25807   0.510   8.644   8.571  0.0048  1.1257  0.5035
  196MOL0     H25808   0.262   8.643   8.571 -2.8375  0.5354 -2.3535
  196MOL0     H25809   0.036   8.876   8.288  1.7372  2.0369 -0.6185
  196MOL0     H25810   0.086   8.994   8.411  0.1950  0.5698 -2.4553
  196MOL0     H25811  -0.134   8.776   8.448  2.0318 -1.5752  2.5187
  196MOL0     H25812  -0.176   8.943   8.404  0.6410  1.3581 -0.7149
  196MOL0     H25813  -0.077   9.028   8.603  1.9540 -0.2911  2.6447
  196MOL0     H25814   0.003   8.886   8.629  1.8204  0.3237 -3.4497
  196MOL0     H25815  -0.307   8.918   8.652  2.4090  1.0850 -5.0971
  196MOL0     H25816  -0.230   8.757   8.666  1.1387 -0.4164 -3.6338
  196MOL0     H25817  -0.161   9.005   8.834  0.6776 -0.0824  3.7873
  196MOL0     H25818  -0.083   8.843   8.841 -0.2189  1.7432  0.2899
  196MOL0     H25819  -0.265   8.753   8.959  1.0361  0.3041 -0.9861
  196MOL0     H25820  -0.374   8.879   8.901  0.6202  3.1752  0.7286
  196MOL0     H25821  -0.144   8.941   9.104  0.5001  0.7911 -2.6864
  196MOL0     H25822  -0.290   9.035   9.087  0.7688  0.6427  1.0524
  196MOL0     H25823  -0.307   8.895   9.300 -0.3004 -1.5603  0.9462
  196MOL0     H25824  -0.282   8.755   9.205  0.8169  1.1592  0.4712
  196MOL0     H25825  -0.470   8.688   9.029 -0.0472 -1.8744  0.9033
  196MOL0     H25826  -0.704   8.744   8.890 -0.5329  4.2552 -0.4132
  196MOL0     H25827  -0.849   8.789   8.976  0.0669 -0.6216  2.3147
  196MOL0     H25828  -0.709   8.519   9.031  0.3244  0.2239 -1.3002
  196MOL0     H25829  -0.865   8.555   8.942 -0.4963  0.7670  0.0800
  196MOL0     H25830  -0.812   8.638   9.227 -0.8215  1.1267 -0.6461
  196MOL0     H25831  -0.960   8.633   9.125  0.9331  3.1437  3.0318
  196MOL0     H25832  -0.781   8.400   9.169 -0.4472  2.5455 -2.3292
  196MOL0     H25833  -0.955   8.377   9.135 -1.0619  0.6016  0.8261
  196MOL0     H25834  -1.154   8.401   9.202  0.2148  1.3767 -0.1954
  196MOL0     H25835  -1.345   8.328   9.294  0.3105 -0.1476 -0.3719
  196MOL0     H25836  -1.595   8.458   9.650  0.8532 -2.5214 -2.5963
  196MOL0     H25837  -1.811   8.487   9.766  2.6551  3.1696  2.4844
  196MOL0     H25838  -1.896   8.528  10.021 -1.4179 -0.9878 -1.4746
  196MOL0     H25839  -1.779   8.425  10.117  1.0866  1.3370 -2.0742
  196MOL0     H25840  -2.089   8.432  10.143 -0.2681 -1.4905  0.7205
  196MOL0     H25841  -1.970   8.519  10.244  0.8018 -1.0318 -0.7079
  196MOL0     H25842  -1.878   8.300  10.326  0.4789  2.1119  1.9354
  196MOL0     H25843  -1.999   8.215  10.234  0.3317  1.0344 -0.3105
  196MOL0     H25844  -2.065   8.439  10.436 -0.2737  1.1521 -0.4390
  196MOL0     H25845  -2.178   8.339  10.354 -0.1480 -2.0745 -1.3359
  196MOL0     H25846  -1.969   8.262  10.579  0.2775  0.4792  0.3736
  196MOL0     H25847  -2.025   8.139  10.470 -1.5015  0.2151 -0.6649
  196MOL0     H25848  -2.264   8.172  10.551 -1.0416  0.2288  1.6698
  196MOL0     H25849  -2.226   8.331  10.616 -0.7359  0.6659 -3.2527
  196MOL0     H25850  -2.136   8.046  10.691 -0.0165  0.0777  0.8769
  196MOL0     H25851  -2.057   8.180  10.774 -0.4916 -0.1142  2.6005
  196MOL0     H25852  -2.356   8.129  10.792  0.0224 -3.5001  1.8810
  196MOL0     H25853  -2.255   8.233  10.897  1.1635  0.1329 -0.0544
  196MOL0     H25854  -1.712   8.138  10.013 -3.0706 -0.9987 -2.1339
  196MOL0     H25855  -1.518   8.104   9.880 -1.1066 -0.0728  2.3043
  196MOL0     H25856  -1.154   8.325   9.686 -1.0991 -0.5116 -0.2618
  196MOL0     H25857  -0.943   8.359   9.580 -0.3765 -3.2186 -0.4363
  196MOL0     H25858   0.268   8.956   8.291  1.8580  0.6172 -2.4397
  196MOL0     H25859   0.537   8.934   8.280  3.8022 -2.7856  0.2353
  196MOL0     H25860   0.930   8.433   8.386  3.7166 -1.4743  1.9003
  196MOL0     H25861   1.162   8.451   8.371 -0.9004 -0.7141  1.9136
  196MOL0     H25862   1.361   8.830   8.433 -2.7233 -0.2842 -0.1863
  196MOL0     H25863   1.381   8.813   8.250 -0.0330  0.0565  0.0829
  196MOL0     H25864   1.565   8.660   8.427  2.1461  1.4411  1.2950
  196MOL0     H25865   1.575   8.714   8.250 -1.2570  0.0723 -0.3575
  196MOL0     H25866   1.720   8.821   8.450  0.9039  1.7036 -0.7811
  196MOL0     H25867   1.576   8.882   8.504  1.4028  2.0685 -0.1146
  196MOL0     H25868   1.730   8.952   8.251  1.4696  0.4457  0.8305
  196MOL0     H25869   1.562   9.023   8.277 -3.2679 -3.5689  0.3912
  196MOL0     H25870   1.812   9.223   8.547 -0.5883 -1.3281  1.8681
  196MOL0     H25871   1.145   8.874   8.376 -1.0599  1.2234  0.4664
  196MOL0     H25872   0.916   8.863   8.393  0.7325  1.4158 -3.1407
  197MOL0     O25873  11.133   9.515   1.994  0.7942 -0.9793  0.4202
  197MOL0     C25874  11.193   9.437   2.065  0.0880 -0.7139 -0.2317
  197MOL0     O25875  11.238   9.473   2.190  0.2897  0.2475  0.0019
  197MOL0     C25876  11.206   9.596   2.228 -0.2599 -0.4514 -0.5319
  197MOL0     C25877  11.279   9.708   2.206  0.2314 -0.6201 -0.0545
  197MOL0     C25878  11.249   9.836   2.255  1.2621 -0.1921 -0.3531
  197MOL0     C25879  11.132   9.846   2.343  0.6367  0.5235  0.4826
  197MOL0     O25880  11.089   9.962   2.396 -0.3460 -0.0271  1.2970
  197MOL0     C25881  11.178  10.075   2.408 -0.5624 -0.2714  0.1101
  197MOL0     C25882  11.102  10.180   2.488 -0.5593 -0.7821 -0.9031
  197MOL0     C25883  11.208  10.255   2.577  0.3437 -0.5593 -0.0101
  197MOL0     C25884  11.140  10.355   2.666  0.0805  0.7489  0.3634
  197MOL0     C25885  11.257  10.417   2.743  0.4044  0.5936  0.2440
  197MOL0     C25886  11.209  10.507   2.859  0.1995  0.2141 -0.3924
  197MOL0     C25887  11.138  10.422   2.964 -0.1931  0.1454 -0.2297
  197MOL0     C25888  11.219  10.317   3.041 -0.2003 -0.7951 -0.5073
  197MOL0     N25889  11.139  10.240   3.137 -0.0525 -0.0423 -0.3906
  197MOL0     C25890  11.030  10.156   3.120 -0.0577  0.3143 -0.1702
  197MOL0     C25891  11.004  10.110   3.248  0.5266 -0.0052  0.0231
  197MOL0     C25892  10.916  10.002   3.292 -0.6514 -0.3706 -0.1323
  197MOL0     C25893  10.782  10.053   3.321 -0.1500 -0.2680 -0.4992
  197MOL0     C25894  10.768  10.140   3.441 -0.3763 -0.0707  0.6665
  197MOL0     C25895  10.755  10.074   3.578 -1.2747 -0.8146 -0.1815
  197MOL0     O25896  10.648   9.982   3.587  0.4501 -0.1615 -0.5726
  197MOL0     C25897  10.569  10.003   3.703  0.7868  0.0009 -0.5177
  197MOL0     C25898  10.441  10.055   3.679 -0.3805  0.3369  0.4956
  197MOL0     C25899  10.343  10.062   3.774  0.5828  0.0476 -0.6790
  197MOL0     C25900  10.361  10.018   3.911 -0.8883 -0.6872  0.2563
  197MOL0     C25901  10.255  10.000   4.011  0.6524 -0.4731 -0.1132
  197MOL0     O25902  10.128  10.020   3.972  0.2720  0.1779  0.1834
  197MOL0     C25903  10.032  10.004   4.074 -0.1764 -0.7007 -1.1356
  197MOL0     C25904   9.945  10.110   4.094  0.7610 -0.6894  0.1401
  197MOL0     C25905   9.852  10.092   4.192 -0.4244  0.8545  1.1852
  197MOL0     C25906   9.836   9.985   4.281 -0.0932 -0.6238  0.0448
  197MOL0     O25907   9.733   9.985   4.368  0.1962  1.0472  0.2239
  197MOL0     C25908   9.777  10.025   4.498 -1.1216  0.0388  0.2934
  197MOL0     C25909   9.676  10.050   4.603  0.5649 -0.1314  0.1899
  197MOL0     C25910   9.556  10.118   4.526 -0.4884  0.1546  0.2275
  197MOL0     C25911   9.584  10.267   4.489  0.0564  0.1302  0.1167
  197MOL0     C25912   9.465  10.326   4.413 -0.3331  0.3522 -0.2472
  197MOL0     C25913   9.446  10.257   4.283 -0.0750  0.8193 -0.2037
  197MOL0     C25914   9.325  10.310   4.209  0.7039 -0.0407  0.6839
  197MOL0     C25915   9.308  10.261   4.063  0.2253 -0.4075  0.8203
  197MOL0    Cl25916   9.458  10.293   3.965 -0.6547  0.3466 -0.4379
  197MOL0     C25917   9.927   9.883   4.268 -0.1479  0.2864  0.1022
  197MOL0     C25918  10.024   9.894   4.161  0.3348  0.0901  0.1861
  197MOL0     O25919  10.292   9.974   4.121  0.4415 -0.3525 -0.3214
  197MOL0     C25920  10.494   9.978   3.931  0.8112  0.3719  0.3398
  197MOL0     C25921  10.594   9.966   3.832  0.0853  0.3080 -0.3689
  197MOL0     N25922  11.094  10.166   3.333 -0.8363 -0.1807  0.0421
  197MOL0     N25923  11.174  10.245   3.268 -1.0866 -0.6290  0.5359
  197MOL0     C25924  11.041   9.729   2.350  0.9997  0.4336 -0.4337
  197MOL0     C25925  11.092   9.611   2.306 -0.0936  0.0405 -0.0676
  197MOL0     C25926  11.233   9.299   2.015  0.0949 -0.0747 -0.4733
  197MOL0     C25927  11.204   9.249   1.892  0.0186  0.2262  0.2125
  197MOL0     C25928  11.264   9.138   1.837  0.5833 -0.1423 -0.0106
  197MOL0     C25929  11.351   9.060   1.916 -0.6944 -0.3010 -0.3818
  197MOL0     O25930  11.440   8.971   1.858 -0.1609  0.0970  1.1549
  197MOL0     C25931  11.411   8.890   1.740 -0.2191  0.3081 -0.0631
  197MOL0     C25932  11.535   8.888   1.655  0.5835  0.5747 -0.3966
  197MOL0     C25933  11.606   9.017   1.638  0.0013 -0.4776 -0.2972
  197MOL0     C25934  11.518   9.131   1.574 -0.6955 -0.3263 -0.3201
  197MOL0     C25935  11.617   9.216   1.496  0.5860  0.7580 -0.2690
  197MOL0     C25936  11.700   9.277   1.441  0.4793  0.4719  0.0517
  197MOL0     C25937  11.382   9.108   2.044  0.2416  0.2445 -0.0573
  197MOL0     C25938  11.321   9.223   2.097  0.8788 -0.0423  0.2749
  197MOL0     H25939  11.373   9.695   2.153  1.0218 -2.0529  1.5988
  197MOL0     H25940  11.320   9.917   2.247  1.7382 -0.4635  0.9221
  197MOL0     H25941  11.196  10.124   2.312 -1.6785 -0.4299 -0.1908
  197MOL0     H25942  11.275  10.050   2.452  1.4663  0.4118 -3.6048
  197MOL0     H25943  11.020  10.143   2.550 -1.9903  2.5472 -0.5992
  197MOL0     H25944  11.051  10.255   2.427 -1.3190  2.0414  2.8231
  197MOL0     H25945  11.275  10.300   2.504 -1.1422  1.0717 -0.4287
  197MOL0     H25946  11.255  10.180   2.641  2.2719 -1.4898 -2.3666
  197MOL0     H25947  11.072  10.426   2.618  0.7016  0.2538 -1.3044
  197MOL0     H25948  11.082  10.295   2.737 -1.5084  2.8383  0.9504
  197MOL0     H25949  11.309  10.472   2.664  0.1845  0.2642 -0.1315
  197MOL0     H25950  11.318  10.332   2.775 -1.3798 -2.5287 -3.7815
  197MOL0     H25951  11.126  10.570   2.826 -0.3589 -0.7876 -0.9215
  197MOL0     H25952  11.287  10.576   2.894  1.5991  0.9121 -4.3760
  197MOL0     H25953  11.102  10.478   3.051 -0.3163 -1.1760  0.5912
  197MOL0     H25954  11.042  10.387   2.925 -1.2840  0.5465  1.9480
  197MOL0     H25955  11.291  10.380   3.094 -3.3047  2.5319  0.1410
  197MOL0     H25956  11.275  10.245   2.980  1.0276 -1.2979  1.1365
  197MOL0     H25957  10.992  10.135   3.021  0.6844  0.5260 -0.5037
  197MOL0     H25958  10.953   9.961   3.387  1.3648  0.3847 -0.5427
  197MOL0     H25959  10.917   9.925   3.215 -0.0557  0.2859 -0.7890
  197MOL0     H25960  10.708   9.972   3.319 -0.9989  0.4853 -0.6028
  197MOL0     H25961  10.745  10.116   3.240 -1.0222  0.6500  0.5767
  197MOL0     H25962  10.853  10.209   3.436  0.0353 -0.6177 -3.6492
  197MOL0     H25963  10.679  10.199   3.418 -0.4728 -1.0362 -1.7248
  197MOL0     H25964  10.773  10.147   3.656 -0.9969  0.9795 -1.8528
  197MOL0     H25965  10.844  10.009   3.578 -1.3212 -0.9728 -2.2908
  197MOL0     H25966  10.425  10.074   3.574 -1.0774 -0.1843  0.4976
  197MOL0     H25967  10.242  10.092   3.747  0.3323 -0.5465 -0.4210
  197MOL0     H25968   9.953  10.194   4.026 -0.3105 -1.8256 -1.4879
  197MOL0     H25969   9.783  10.176   4.199  1.3496  2.4494  0.2973
  197MOL0     H25970   9.828  10.121   4.490  1.2389 -0.9063  2.5102
  197MOL0     H25971   9.850   9.960   4.547 -0.5548  1.8185  1.9387
  197MOL0     H25972   9.716  10.111   4.684 -0.9006 -0.1550  0.9691
  197MOL0     H25973   9.638   9.957   4.647 -0.8416  0.1146 -0.4390
  197MOL0     H25974   9.478  10.112   4.601 -0.6134 -0.6679  0.0418
  197MOL0     H25975   9.539  10.060   4.435 -1.2295 -1.3533  1.2976
  197MOL0     H25976   9.580  10.324   4.582  3.2769 -0.0504  0.4597
  197MOL0     H25977   9.682  10.278   4.443  0.6165 -1.6369  0.7848
  197MOL0     H25978   9.478  10.434   4.405  0.7023  0.1728 -1.3994
  197MOL0     H25979   9.383  10.312   4.483  0.6170 -1.5186  0.5978
  197MOL0     H25980   9.432  10.150   4.300  1.8028  0.4802 -0.6136
  197MOL0     H25981   9.538  10.270   4.226  1.1067 -0.3351  1.3539
  197MOL0     H25982   9.235  10.280   4.264 -0.2426 -0.1930 -0.8844
  197MOL0     H25983   9.336  10.418   4.211  0.3608  0.1250 -2.0368
  197MOL0     H25984   9.216  10.314   4.033 -2.5397 -2.4998  4.8012
  197MOL0     H25985   9.289  10.154   4.050  2.5504 -0.7019 -0.8349
  197MOL0     H25986   9.922   9.797   4.335  1.0271  0.5983  0.6273
  197MOL0     H25987  10.099   9.818   4.142  2.1984  1.5691  1.2824
  197MOL0     H25988  10.521   9.947   4.031  1.8851  1.8721  0.5669
  197MOL0     H25989  10.688   9.918   3.858 -0.7642 -1.1423  0.0835
  197MOL0     H25990  10.941   9.738   2.392  0.8204  0.2049 -0.8071
  197MOL0     H25991  11.044   9.514   2.309 -0.7096  0.3105 -0.9253
  197MOL0     H25992  11.131   9.314   1.844  0.6980  1.8744  1.3465
  197MOL0     H25993  11.236   9.107   1.737  1.6482  1.1749 -0.7560
  197MOL0     H25994  11.330   8.926   1.676 -1.1776 -5.1051 -2.4629
  197MOL0     H25995  11.385   8.790   1.778  0.7185 -0.6265 -1.7470
  197MOL0     H25996  11.603   8.815   1.699 -0.0875  1.7021  2.7451
  197MOL0     H25997  11.497   8.847   1.560 -3.6138 -3.3844  2.5688
  197MOL0     H25998  11.688   9.000   1.568  0.3661  2.6198 -0.7923
  197MOL0     H25999  11.640   9.054   1.735  0.0949  0.6303 -0.7387
  197MOL0     H26000  11.429   9.085   1.531 -1.8663  0.2556  1.3751
  197MOL0     H26001  11.479   9.191   1.657  1.2976 -1.9359  1.9452
  197MOL0     H26002  11.782   9.330   1.395 -0.4568  0.4780 -1.7149
  197MOL0     H26003  11.445   9.047   2.107  0.5491  0.8209  0.2071
  197MOL0     H26004  11.346   9.266   2.193  1.2020  1.1990 -0.3354
  198MOL0     O26005  10.764   5.484   0.917  0.1973 -0.1721  0.6445
  198MOL0     C26006  10.782   5.389   0.839 -0.6827  0.4713 -0.3586
  198MOL0     O26007  10.846   5.275   0.873 -0.7377 -0.3653  0.3344
  198MOL0     C26008  10.940   5.274   0.978  0.4219  1.0099  0.4996
  198MOL0     C26009  10.931   5.164   1.067 -0.0373 -0.8994 -0.2127
  198MOL0     C26010  11.006   5.171   1.191 -1.3473  0.6175  0.4455
  198MOL0     C26011  11.107   5.266   1.212 -1.3290 -0.6070 -1.0801
  198MOL0     O26012  11.184   5.260   1.328 -0.3886  0.5243 -0.1101
  198MOL0     C26013  11.272   5.364   1.357  0.6587 -0.0262 -1.0834
  198MOL0     C26014  11.355   5.311   1.478  0.3628 -0.9671 -0.4523
  198MOL0     C26015  11.445   5.420   1.527 -0.0755 -0.1245  0.7040
  198MOL0     C26016  11.539   5.350   1.627  0.3354 -0.0759  0.4889
  198MOL0     C26017  11.637   5.441   1.689 -0.4876  0.6858 -0.4413
  198MOL0     C26018  11.559   5.508   1.807 -0.2214  0.2209 -0.0564
  198MOL0     C26019  11.639   5.624   1.837  0.0586  0.2531 -0.1510
  198MOL0     C26020  11.646   5.670   1.985 -0.3976 -1.0032  0.1442
  198MOL0     N26021  11.707   5.572   2.074  0.0994 -0.1683 -0.4930
  198MOL0     C26022  11.645   5.463   2.128 -0.1790 -0.3770 -0.4822
  198MOL0     C26023  11.736   5.404   2.214 -0.2972  0.9816 -0.2904
  198MOL0     C26024  11.734   5.281   2.302  0.3427 -0.4032  0.8862
  198MOL0     C26025  11.693   5.312   2.449 -0.0498 -0.2597 -0.4913
  198MOL0     C26026  11.551   5.257   2.489  1.2769 -0.4245  0.1074
  198MOL0     C26027  11.434   5.315   2.416 -0.4340  0.3076 -0.2817
  198MOL0     O26028  11.435   5.274   2.282 -0.5975 -0.3397  0.1208
  198MOL0     C26029  11.310   5.273   2.214 -0.1381  0.0393 -0.2903
  198MOL0     C26030  11.175   5.279   2.262  0.5688  0.1724  0.0520
  198MOL0     C26031  11.062   5.285   2.177 -0.1107  0.0934  0.4915
  198MOL0     C26032  11.091   5.298   2.031  0.5720  1.0635 -0.7813
  198MOL0     C26033  10.973   5.305   1.930 -0.1552  0.4138  0.4723
  198MOL0     O26034  10.995   5.325   1.801 -0.4652 -0.2390 -0.0630
  198MOL0     C26035  10.901   5.363   1.707 -0.5056 -0.6984  0.0428
  198MOL0     C26036  10.961   5.384   1.581 -0.5566 -0.7929  0.5331
  198MOL0     C26037  10.897   5.447   1.477  0.4678 -0.1367 -0.3631
  198MOL0     C26038  10.778   5.514   1.500 -1.0139  0.1237 -0.2479
  198MOL0     O26039  10.718   5.589   1.398  0.3703 -0.3940  0.6835
  198MOL0     C26040  10.696   5.512   1.274 -0.3492  0.0684 -0.4868
  198MOL0     C26041  10.573   5.417   1.297 -0.5679 -0.4482  0.0502
  198MOL0     C26042  10.490   5.367   1.168 -0.3917 -1.1218  1.0207
  198MOL0     C26043  10.417   5.478   1.091 -0.6692  0.3302 -0.1797
  198MOL0     C26044  10.385   5.443   0.945 -0.1436  0.7626  0.4318
  198MOL0     C26045  10.314   5.313   0.925  0.9865 -0.7042 -1.1013
  198MOL0     C26046  10.264   5.284   0.788 -0.2069  1.2190 -0.0013
  198MOL0     C26047  10.376   5.263   0.699 -1.2153 -0.9188  0.4189
  198MOL0    Cl26048  10.336   5.199   0.542 -0.6077 -0.2911 -0.3085
  198MOL0     C26049  10.718   5.498   1.623 -0.1471  0.0684  0.0491
  198MOL0     C26050  10.772   5.431   1.726  0.2227  0.0390 -0.5288
  198MOL0     O26051  10.862   5.307   1.982  0.4927  0.2025 -0.3022
  198MOL0     C26052  11.223   5.289   1.984  0.2250  0.7526  1.0531
  198MOL0     C26053  11.327   5.278   2.073  0.3541 -0.2974  0.0484
  198MOL0     N26054  11.851   5.483   2.212  0.3756 -0.6578 -0.1320
  198MOL0     N26055  11.823   5.590   2.134  0.2464  0.3195 -0.2291
  198MOL0     C26056  11.120   5.368   1.114  0.6357 -0.8174  0.6665
  198MOL0     C26057  11.032   5.382   1.001  0.2465  0.2554  0.9167
  198MOL0     C26058  10.722   5.382   0.707  0.0705  0.0445 -0.3931
  198MOL0     C26059  10.654   5.492   0.657  0.8683  0.1971  0.5820
  198MOL0     C26060  10.600   5.492   0.536  0.7664 -0.3214  0.9179
  198MOL0     C26061  10.609   5.381   0.450  0.1792 -1.1013  0.2558
  198MOL0     O26062  10.556   5.382   0.326 -0.1383 -0.2760  0.6614
  198MOL0     C26063  10.496   5.491   0.260  0.1365  0.3746 -0.2565
  198MOL0     C26064  10.348   5.497   0.314  0.0498  0.5230  0.2376
  198MOL0     C26065  10.285   5.629   0.297  0.5869 -0.2912  0.3536
  198MOL0     C26066  10.266   5.650   0.141 -0.8621 -0.4472  1.1554
  198MOL0     C26067  10.204   5.779   0.109  0.3072 -0.4677 -0.3597
  198MOL0     C26068  10.143   5.883   0.093  0.0509 -0.3740 -0.2762
  198MOL0     C26069  10.672   5.267   0.499  0.6595 -0.6255 -0.3257
  198MOL0     C26070  10.728   5.269   0.631  0.7803  0.0212  0.3631
  198MOL0     H26071  10.864   5.082   1.041  2.0730 -1.6927 -3.9891
  198MOL0     H26072  11.004   5.086   1.258 -1.4127 -0.2531 -0.6323
  198MOL0     H26073  11.208   5.447   1.388 -1.7740 -1.2921 -2.4044
  198MOL0     H26074  11.352   5.393   1.288  1.2307  1.8038  0.2850
  198MOL0     H26075  11.403   5.224   1.432 -3.2449 -3.3249 -0.1744
  198MOL0     H26076  11.276   5.296   1.553 -0.2602  2.0389 -0.3515
  198MOL0     H26077  11.395   5.506   1.572 -0.9123 -0.6396  0.7712
  198MOL0     H26078  11.505   5.462   1.446 -0.8196  0.6362  0.5362
  198MOL0     H26079  11.505   5.291   1.712  3.6135 -1.2708  1.1077
  198MOL0     H26080  11.597   5.281   1.566 -0.1396  1.9120 -2.4553
  198MOL0     H26081  11.671   5.513   1.615  1.5287 -0.7802 -1.0275
  198MOL0     H26082  11.721   5.383   1.728 -0.3972 -0.1706 -1.8358
  198MOL0     H26083  11.550   5.433   1.886  3.1623 -0.0068  0.2727
  198MOL0     H26084  11.457   5.537   1.780 -1.1554 -1.6947  1.1785
  198MOL0     H26085  11.743   5.624   1.804  0.2258 -1.9694  0.2538
  198MOL0     H26086  11.599   5.704   1.775 -1.7640 -0.4166  0.1181
  198MOL0     H26087  11.545   5.681   2.025  0.6085 -1.0560  2.9143
  198MOL0     H26088  11.705   5.762   1.979  1.5021 -2.2439 -2.9375
  198MOL0     H26089  11.543   5.438   2.100 -0.2776  1.1977 -1.6829
  198MOL0     H26090  11.835   5.240   2.301  0.3366 -0.4468 -1.0189
  198MOL0     H26091  11.665   5.205   2.265 -2.2800  1.7097  1.1770
  198MOL0     H26092  11.683   5.419   2.468 -2.1187 -0.4712 -0.1390
  198MOL0     H26093  11.760   5.276   2.528  0.2858  1.2642 -0.0475
  198MOL0     H26094  11.544   5.148   2.487  0.1387 -0.3696 -1.5555
  198MOL0     H26095  11.546   5.294   2.592  1.1949  2.7766 -0.9642
  198MOL0     H26096  11.440   5.424   2.429  0.6233  0.0899  1.3322
  198MOL0     H26097  11.344   5.287   2.471  0.7146  0.3967  1.7345
  198MOL0     H26098  11.164   5.293   2.369  0.9938 -0.5229  0.1927
  198MOL0     H26099  10.962   5.280   2.217  0.5545 -0.3462  2.2062
  198MOL0     H26100  11.059   5.345   1.558 -0.9491 -1.3360 -0.2744
  198MOL0     H26101  10.940   5.467   1.380 -2.6978  4.6245 -1.0975
  198MOL0     H26102  10.785   5.458   1.242 -0.7198  0.5462 -2.4569
  198MOL0     H26103  10.683   5.591   1.199  1.0809  0.8857  0.0811
  198MOL0     H26104  10.511   5.477   1.364  2.5146  1.9696  0.9684
  198MOL0     H26105  10.612   5.330   1.352  5.0100  0.4903 -1.7475
  198MOL0     H26106  10.412   5.292   1.189  1.0398 -3.4673 -1.3079
  198MOL0     H26107  10.556   5.307   1.105  1.7667  1.2978  0.8351
  198MOL0     H26108  10.319   5.483   1.140  0.1210 -0.5137  1.5644
  198MOL0     H26109  10.460   5.579   1.089  0.4415 -0.1198 -2.8976
  198MOL0     H26110  10.478   5.438   0.888 -0.4637 -2.3536 -0.0328
  198MOL0     H26111  10.317   5.519   0.907 -1.1390  0.3742  1.3585
  198MOL0     H26112  10.226   5.304   0.990  1.8464  0.2088  0.2533
  198MOL0     H26113  10.384   5.234   0.953  0.1998 -0.6500  1.2266
  198MOL0     H26114  10.206   5.193   0.809  0.6483  1.5201  4.7018
  198MOL0     H26115  10.196   5.360   0.748 -0.5646 -0.8783 -3.8935
  198MOL0     H26116  10.451   5.192   0.735 -0.5157 -1.2026 -1.4784
  198MOL0     H26117  10.420   5.362   0.683 -3.1007 -0.0607  0.2501
  198MOL0     H26118  10.625   5.552   1.641  0.0781  0.5542 -0.2016
  198MOL0     H26119  10.722   5.443   1.822  1.1292  0.6272 -0.1172
  198MOL0     H26120  11.261   5.287   1.882 -0.2347 -0.5636  0.8884
  198MOL0     H26121  11.426   5.282   2.027  1.2090 -3.5966  1.2591
  198MOL0     H26122  11.185   5.454   1.131 -0.1365 -0.5491  2.4325
  198MOL0     H26123  11.054   5.456   0.925  0.1543 -1.8166 -1.2445
  198MOL0     H26124  10.637   5.583   0.713 -2.0975 -0.4972  0.9730
  198MOL0     H26125  10.546   5.582   0.510 -1.7787 -1.7386  0.8759
  198MOL0     H26126  10.501   5.463   0.154 -0.1260 -0.4381 -0.0620
  198MOL0     H26127  10.549   5.585   0.279  1.6793 -0.3259 -0.9367
  198MOL0     H26128  10.292   5.414   0.269  1.9907 -1.0392  0.5320
  198MOL0     H26129  10.337   5.492   0.422 -1.1517 -2.1772  0.0662
  198MOL0     H26130  10.349   5.701   0.348  5.0283 -3.0557 -0.7356
  198MOL0     H26131  10.184   5.631   0.340  0.3643  0.1090 -0.1676
  198MOL0     H26132  10.363   5.651   0.090 -2.9983  2.3816 -3.4423
  198MOL0     H26133  10.214   5.564   0.098  1.8618 -1.3294 -0.6156
  198MOL0     H26134  10.095   5.976   0.072  3.3629  1.4976 -0.3901
  198MOL0     H26135  10.680   5.174   0.444 -0.1021 -0.8382 -0.0927
  198MOL0     H26136  10.791   5.187   0.665  0.3188 -0.7415 -0.5811
  199MOL0     O26137   2.398   2.357   8.870  0.0037  1.0001 -0.0767
  199MOL0     C26138   2.495   2.279   8.857  0.7790 -0.0706 -0.7964
  199MOL0     O26139   2.504   2.165   8.783  0.4065 -0.2396 -0.0017
  199MOL0     C26140   2.376   2.119   8.754 -0.1523  0.2142 -0.0812
  199MOL0     C26141   2.277   2.092   8.850 -0.6037  0.1702  1.1154
  199MOL0     C26142   2.151   2.041   8.806 -0.1301 -0.3156  0.2210
  199MOL0     C26143   2.123   2.016   8.675  0.3884 -0.4449  0.6099
  199MOL0     O26144   2.000   1.963   8.646  0.4718  0.3145  0.3822
  199MOL0     C26145   1.972   1.904   8.514 -0.1734 -0.1266 -0.5658
  199MOL0     C26146   1.839   1.828   8.542  0.1888  0.2021 -0.1619
  199MOL0     C26147   1.800   1.757   8.421 -0.1719 -0.0477 -0.9954
  199MOL0     C26148   1.690   1.655   8.450  0.6611 -0.4387 -0.2935
  199MOL0     C26149   1.666   1.569   8.322 -0.3168 -0.6314 -0.5573
  199MOL0     C26150   1.621   1.648   8.201 -0.5896  0.0071 -0.6907
  199MOL0     C26151   1.462   1.675   8.205  0.0119 -0.2858 -0.2998
  199MOL0     C26152   1.400   1.756   8.095  0.7753 -0.0961  0.8298
  199MOL0     N26153   1.384   1.695   7.956 -1.1620  0.3102  0.5354
  199MOL0     C26154   1.484   1.682   7.854  1.0613 -0.9206  0.1689
  199MOL0     C26155   1.421   1.618   7.756 -0.0953 -0.3482 -0.0441
  199MOL0     C26156   1.456   1.533   7.635  1.6781 -0.7616 -0.4770
  199MOL0     C26157   1.542   1.622   7.539  0.4118  0.0307 -0.4013
  199MOL0     C26158   1.548   1.588   7.393  0.1792 -0.3780 -0.6902
  199MOL0     C26159   1.601   1.447   7.374 -0.6776 -0.7746 -0.1054
  199MOL0     O26160   1.726   1.403   7.433  0.8333  0.1909  0.5028
  199MOL0     C26161   1.843   1.465   7.401 -0.6513 -0.6608  0.0285
  199MOL0     C26162   1.948   1.443   7.485  0.7748  1.0664 -0.9174
  199MOL0     C26163   2.067   1.500   7.453 -0.5189 -0.6152 -0.8469
  199MOL0     C26164   2.092   1.578   7.342 -0.2823 -1.1388 -0.0372
  199MOL0     C26165   2.214   1.665   7.312  1.0090  0.0915 -1.9085
  199MOL0     O26166   2.221   1.762   7.220  0.0248  0.3335  0.1967
  199MOL0     C26167   2.342   1.799   7.170  1.1648 -0.3722 -0.7985
  199MOL0     C26168   2.329   1.903   7.078  0.7433 -0.0732  0.0450
  199MOL0     C26169   2.437   1.944   7.002  1.4711 -0.3843  0.5570
  199MOL0     C26170   2.566   1.891   7.031 -0.3799 -0.4634 -0.5436
  199MOL0     O26171   2.682   1.943   6.971  0.3788  0.3630 -0.3306
  199MOL0     C26172   2.674   1.923   6.831  0.7925  1.1451 -0.1156
  199MOL0     C26173   2.766   2.006   6.750  0.8966  0.0909  0.7288
  199MOL0     C26174   2.772   1.944   6.604 -1.2949  0.6373  0.2588
  199MOL0     C26175   2.894   1.854   6.573 -0.5530  1.4207 -0.4478
  199MOL0     C26176   2.907   1.812   6.426  0.6017  0.0385 -0.1951
  199MOL0     C26177   2.943   1.936   6.332 -0.4847 -0.7592 -0.2862
  199MOL0     C26178   3.056   2.023   6.373 -0.1344  0.3778  0.2102
  199MOL0     C26179   3.092   2.118   6.259 -0.4436 -0.0123  0.2189
  199MOL0    Cl26180   3.226   2.226   6.302  0.2279  0.4206 -0.4398
  199MOL0     C26181   2.587   1.800   7.141  0.3917 -0.8876  1.3746
  199MOL0     C26182   2.476   1.751   7.201  0.8372  0.8061  0.1357
  199MOL0     O26183   2.306   1.631   7.381 -0.8499 -0.2224 -0.1647
  199MOL0     C26184   1.981   1.606   7.266 -0.3907  0.7013 -0.2163
  199MOL0     C26185   1.863   1.550   7.294 -0.3321  0.3268  0.2968
  199MOL0     N26186   1.286   1.600   7.790  0.1557 -0.1040 -0.3633
  199MOL0     N26187   1.272   1.638   7.920  0.0056  0.0183  0.9603
  199MOL0     C26188   2.232   2.041   8.585  0.2287  0.5505  0.5341
  199MOL0     C26189   2.359   2.085   8.617 -0.7080 -0.4225  0.5104
  199MOL0     C26190   2.612   2.312   8.929  0.3203 -1.2148  0.3738
  199MOL0     C26191   2.735   2.254   8.903 -0.4979  0.2196 -0.8331
  199MOL0     C26192   2.852   2.266   8.979 -1.1891 -0.0776 -0.0501
  199MOL0     C26193   2.849   2.351   9.090  0.4738  0.6389 -0.1595
  199MOL0     O26194   2.974   2.387   9.136 -0.2010 -0.5070 -0.8008
  199MOL0     C26195   2.993   2.361   9.276  0.4668  0.3330 -0.5539
  199MOL0     C26196   3.126   2.407   9.308  0.1130 -0.7288  0.2603
  199MOL0     C26197   3.149   2.549   9.344  0.6012 -0.7139  0.6786
  199MOL0     C26198   3.299   2.575   9.356 -0.2160 -0.7773 -1.0840
  199MOL0     C26199   3.375   2.492   9.453  0.0727  0.0137 -0.4270
  199MOL0     C26200   3.435   2.425   9.531 -0.0072  0.1987 -0.7381
  199MOL0     C26201   2.722   2.416   9.122  0.4098 -0.3064 -0.8027
  199MOL0     C26202   2.605   2.397   9.041 -0.3529  1.2249  0.3817
  199MOL0     H26203   2.300   2.120   8.952 -1.2989  1.5959  0.9059
  199MOL0     H26204   2.074   2.024   8.880 -1.2645  1.1586 -0.5621
  199MOL0     H26205   2.049   1.836   8.477  0.7738  1.7944 -2.3449
  199MOL0     H26206   1.965   1.981   8.437  1.2216 -1.7094 -2.3809
  199MOL0     H26207   1.757   1.886   8.585 -0.6489  0.9805 -2.6298
  199MOL0     H26208   1.869   1.751   8.614  0.8172 -0.7628 -1.4114
  199MOL0     H26209   1.883   1.696   8.383  0.9643  0.2054  0.9261
  199MOL0     H26210   1.776   1.832   8.345 -1.8448  1.0363  0.5311
  199MOL0     H26211   1.728   1.580   8.520 -2.2881 -1.1679  0.7094
  199MOL0     H26212   1.596   1.705   8.474 -0.3704  0.3678 -4.9525
  199MOL0     H26213   1.606   1.481   8.347 -1.1307  0.3592  1.1126
  199MOL0     H26214   1.760   1.517   8.298 -0.5011 -0.5061 -1.5754
  199MOL0     H26215   1.650   1.609   8.103  2.4527  0.4865 -0.0835
  199MOL0     H26216   1.676   1.742   8.204  0.7038 -0.7099  2.3227
  199MOL0     H26217   1.413   1.576   8.203 -0.3419 -0.1120 -2.2569
  199MOL0     H26218   1.453   1.717   8.306  0.4471 -1.9640  0.4761
  199MOL0     H26219   1.472   1.838   8.080  2.6020 -1.8735 -0.7308
  199MOL0     H26220   1.305   1.806   8.114  1.0914  0.9364 -0.1278
  199MOL0     H26221   1.593   1.692   7.858  1.0018 -0.5362  2.1822
  199MOL0     H26222   1.372   1.506   7.570  0.4582  2.6485 -0.4961
  199MOL0     H26223   1.492   1.434   7.665  2.2548 -0.1567  0.9030
  199MOL0     H26224   1.643   1.628   7.580  0.5308  0.4869 -0.7536
  199MOL0     H26225   1.496   1.720   7.555  1.9203  0.6962  0.0454
  199MOL0     H26226   1.448   1.592   7.348  1.4304  0.1508 -3.6396
  199MOL0     H26227   1.613   1.667   7.355 -0.0339  0.9718  1.5946
  199MOL0     H26228   1.610   1.423   7.268  0.2261  0.5142 -0.3457
  199MOL0     H26229   1.525   1.379   7.412 -1.1306  0.7026  1.8270
  199MOL0     H26230   1.935   1.380   7.572 -0.6639 -0.1961 -1.9938
  199MOL0     H26231   2.153   1.485   7.517 -0.3679  0.8217 -0.6670
  199MOL0     H26232   2.235   1.956   7.071  1.0825  0.6102  0.5485
  199MOL0     H26233   2.442   2.022   6.927  3.2923 -1.2934 -0.3408
  199MOL0     H26234   2.573   1.934   6.790 -0.4808 -2.0854  1.7722
  199MOL0     H26235   2.698   1.817   6.817  0.2725  0.8097  1.3397
  199MOL0     H26236   2.864   2.005   6.798  0.4636  0.2081  1.6252
  199MOL0     H26237   2.729   2.109   6.747 -0.8079 -0.3054  3.8109
  199MOL0     H26238   2.795   2.028   6.538  1.8077 -1.1537 -1.1886
  199MOL0     H26239   2.677   1.907   6.565 -1.0696  2.4197 -2.1967
  199MOL0     H26240   2.986   1.903   6.608 -0.1595  0.2335  0.2604
  199MOL0     H26241   2.875   1.772   6.643  1.9801  2.5708  1.7779
  199MOL0     H26242   2.818   1.773   6.377  1.1856 -2.0942  0.3530
  199MOL0     H26243   2.989   1.741   6.417 -1.3325 -2.3124 -0.2267
  199MOL0     H26244   2.851   1.994   6.329 -1.5577 -2.2365  1.4894
  199MOL0     H26245   2.971   1.900   6.232  2.5349  3.9931 -1.4734
  199MOL0     H26246   3.028   2.069   6.468 -1.2492 -0.3001  0.2289
  199MOL0     H26247   3.150   1.972   6.396  0.2342  0.7758 -0.3717
  199MOL0     H26248   3.003   2.178   6.239 -1.8089 -1.6911  0.9098
  199MOL0     H26249   3.112   2.067   6.165 -1.4265 -1.1610  0.6040
  199MOL0     H26250   2.685   1.770   7.174  1.1707 -2.9742 -2.2381
  199MOL0     H26251   2.503   1.668   7.265  3.3474  1.6471  0.2735
  199MOL0     H26252   1.987   1.690   7.197  2.5131  2.0308  1.5062
  199MOL0     H26253   1.778   1.593   7.242  1.4663  1.6713 -1.7855
  199MOL0     H26254   2.219   2.039   8.478  0.6363  2.9131  0.3913
  199MOL0     H26255   2.433   2.092   8.539  1.6389 -0.0668  2.6240
  199MOL0     H26256   2.751   2.198   8.811  1.0723  0.2236 -0.5782
  199MOL0     H26257   2.949   2.224   8.956  0.1179  1.4709  2.2405
  199MOL0     H26258   2.976   2.257   9.304 -2.2384  1.3367  2.0119
  199MOL0     H26259   2.919   2.420   9.329  0.1936  0.7853 -1.4172
  199MOL0     H26260   3.150   2.356   9.402 -1.6291  0.8712  1.6535
  199MOL0     H26261   3.191   2.365   9.231  0.3111 -0.9041  0.5170
  199MOL0     H26262   3.110   2.563   9.445 -0.5875 -0.6311  0.2178
  199MOL0     H26263   3.090   2.603   9.269 -3.2887 -6.0438 -0.7255
  199MOL0     H26264   3.331   2.553   9.254 -1.2260 -1.5159 -1.2616
  199MOL0     H26265   3.310   2.682   9.375 -2.7054 -0.4425 -1.1812
  199MOL0     H26266   3.486   2.372   9.609 -2.6653 -1.8277 -0.2549
  199MOL0     H26267   2.729   2.483   9.207  0.5607 -0.5133 -0.6522
  199MOL0     H26268   2.518   2.447   9.081 -1.4048 -1.1586  1.2796
  200MOL0     O26269   2.665   6.604   5.296 -0.2318  0.0023  1.5078
  200MOL0     C26270   2.710   6.702   5.359 -0.0171 -0.0212  0.0693
  200MOL0     O26271   2.639   6.808   5.413  0.7008  0.2579 -0.5212
  200MOL0     C26272   2.506   6.810   5.407  0.0196  0.7224  0.1618
  200MOL0     C26273   2.435   6.907   5.332 -0.1192 -0.2707 -0.5139
  200MOL0     C26274   2.293   6.910   5.317 -0.3893  1.2140  0.4300
  200MOL0     C26275   2.222   6.816   5.393  0.8152  0.2933  0.1721
  200MOL0     O26276   2.083   6.825   5.384  0.2661  0.0856  0.3547
  200MOL0     C26277   2.001   6.736   5.460  0.0047  0.1552 -0.0197
  200MOL0     C26278   1.859   6.752   5.405 -0.6085 -0.0119  0.9655
  200MOL0     C26279   1.754   6.649   5.456  0.6590 -0.3607 -0.5128
  200MOL0     C26280   1.808   6.509   5.475  0.1354 -1.3225 -0.9013
  200MOL0     C26281   1.693   6.402   5.469 -0.6418 -0.2693  0.1022
  200MOL0     C26282   1.758   6.264   5.491 -0.0358 -1.2783  0.0114
  200MOL0     C26283   1.661   6.161   5.462  0.7636  0.4926 -0.1469
  200MOL0     C26284   1.705   6.074   5.343 -0.3448  0.7862  0.7117
  200MOL0     N26285   1.595   6.012   5.278 -0.0583 -0.4976 -0.3270
  200MOL0     C26286   1.539   6.068   5.175  0.1776  0.1197 -1.1326
  200MOL0     C26287   1.434   5.992   5.142  0.6710  0.3184 -0.3800
  200MOL0     C26288   1.347   6.029   5.027  0.0036  0.1818 -0.0296
  200MOL0     C26289   1.270   5.909   4.974 -0.0435  0.7282  0.5691
  200MOL0     C26290   1.148   5.970   4.903  0.8339  0.3239  0.3414
  200MOL0     C26291   1.168   6.020   4.759 -0.2896 -0.0676  0.2728
  200MOL0     O26292   1.281   6.112   4.764 -0.7293 -0.1524 -0.8035
  200MOL0     C26293   1.339   6.155   4.645  0.6361  0.2514  0.0302
  200MOL0     C26294   1.284   6.160   4.514  0.6035 -0.5559  0.6911
  200MOL0     C26295   1.347   6.212   4.402  0.0787 -0.7395  0.0527
  200MOL0     C26296   1.484   6.269   4.422  0.4384  0.1699  0.0199
  200MOL0     C26297   1.548   6.346   4.307  0.1571  0.0050 -0.0163
  200MOL0     O26298   1.472   6.344   4.196  1.2716  0.0060 -0.1092
  200MOL0     C26299   1.504   6.422   4.092 -0.4576 -1.0914 -0.9688
  200MOL0     C26300   1.614   6.400   4.003 -0.0038 -0.0739 -0.4898
  200MOL0     C26301   1.628   6.462   3.879  0.4327  0.5953 -0.6356
  200MOL0     C26302   1.532   6.561   3.843 -0.9975  0.2735 -0.2988
  200MOL0     O26303   1.549   6.628   3.722  0.8626  0.2937  0.1226
  200MOL0     C26304   1.567   6.773   3.731 -0.3074  0.5705 -0.0090
  200MOL0     C26305   1.692   6.810   3.818 -0.4302 -0.3689  0.4743
  200MOL0     C26306   1.707   6.967   3.817 -0.8124  0.7166  0.5772
  200MOL0     C26307   1.841   7.020   3.867 -0.8337  0.1433 -0.2148
  200MOL0     C26308   1.854   7.172   3.847 -0.1686  0.1424 -0.2126
  200MOL0     C26309   1.763   7.253   3.950 -0.0744 -1.4391  0.6222
  200MOL0     C26310   1.746   7.406   3.902  0.3956  0.7599 -0.9567
  200MOL0     C26311   1.652   7.485   3.996  0.0351 -0.4139 -0.9604
  200MOL0    Cl26312   1.494   7.400   4.008  0.0828 -0.1579  0.0315
  200MOL0     C26313   1.430   6.598   3.927  0.3514 -0.2973 -1.4083
  200MOL0     C26314   1.419   6.531   4.056 -0.4093 -0.5340  0.2424
  200MOL0     O26315   1.660   6.400   4.315  0.3493 -0.7446 -0.1075
  200MOL0     C26316   1.529   6.263   4.558 -1.0730 -0.4049  1.0472
  200MOL0     C26317   1.465   6.199   4.656  0.7438 -0.8419 -0.4966
  200MOL0     N26318   1.431   5.881   5.229  0.2734  0.5091 -0.8648
  200MOL0     N26319   1.533   5.901   5.314  1.1100 -0.2876  0.2819
  200MOL0     C26320   2.292   6.722   5.471 -0.4849 -0.3672  0.3427
  200MOL0     C26321   2.432   6.714   5.473 -0.0364 -0.1275 -0.9741
  200MOL0     C26322   2.861   6.710   5.378 -0.2137  0.3814 -0.1532
  200MOL0     C26323   2.948   6.618   5.328 -1.4373 -0.6986  0.1253
  200MOL0     C26324   3.085   6.617   5.342 -0.2470 -1.1442  0.2549
  200MOL0     C26325   3.134   6.715   5.422 -0.4124  0.5426  0.3519
  200MOL0     O26326   3.268   6.737   5.442  0.5888 -0.1589  0.2210
  200MOL0     C26327   3.355   6.651   5.369 -0.6048 -0.0656 -0.1073
  200MOL0     C26328   3.492   6.707   5.398  0.8633  1.1842  0.4673
  200MOL0     C26329   3.514   6.857   5.335  0.3682 -0.0308  0.2352
  200MOL0     C26330   3.658   6.890   5.374 -0.0431  0.4659  1.2213
  200MOL0     C26331   3.683   7.036   5.385  0.7782 -0.0360  0.5091
  200MOL0     C26332   3.718   7.152   5.388  0.0740  0.3431  0.4818
  200MOL0     C26333   3.054   6.815   5.485 -0.1320  0.1344  0.0405
  200MOL0     C26334   2.916   6.816   5.453 -0.6376  0.2236  0.1092
  200MOL0     H26335   2.499   6.971   5.273 -0.3042 -1.7623 -2.4296
  200MOL0     H26336   2.237   6.987   5.263 -2.5939 -1.4059 -1.3377
  200MOL0     H26337   2.003   6.771   5.564 -0.0808  1.3415 -0.4054
  200MOL0     H26338   2.033   6.631   5.455 -1.4002 -0.2654 -0.7100
  200MOL0     H26339   1.864   6.758   5.295 -3.0665  1.8564  0.8655
  200MOL0     H26340   1.817   6.851   5.424 -1.0183  0.2248 -0.9184
  200MOL0     H26341   1.675   6.635   5.381 -0.7465 -0.5525  0.9521
  200MOL0     H26342   1.694   6.669   5.545 -1.3284 -2.8428 -1.1709
  200MOL0     H26343   1.879   6.464   5.405 -1.1229 -3.3192 -0.9877
  200MOL0     H26344   1.859   6.507   5.571  0.1565 -1.9344 -0.9171
  200MOL0     H26345   1.638   6.400   5.375  1.9162 -1.1849 -1.4978
  200MOL0     H26346   1.619   6.423   5.546  0.8871 -0.5310  1.7197
  200MOL0     H26347   1.781   6.252   5.598  0.3638 -1.1668 -0.0612
  200MOL0     H26348   1.849   6.251   5.432 -0.6811 -0.4895 -1.1732
  200MOL0     H26349   1.666   6.088   5.543  2.5278 -0.4109 -1.0080
  200MOL0     H26350   1.561   6.205   5.464  0.7975  0.5532  0.7545
  200MOL0     H26351   1.771   5.992   5.373 -1.2761 -0.1695  0.1756
  200MOL0     H26352   1.759   6.136   5.271 -0.1237  2.5913  2.3186
  200MOL0     H26353   1.569   6.163   5.132 -1.6596  1.1728 -0.2474
  200MOL0     H26354   1.414   6.069   4.950 -1.2219 -1.8391 -2.2717
  200MOL0     H26355   1.291   6.120   5.050 -1.2196 -0.9218  1.5483
  200MOL0     H26356   1.249   5.842   5.057 -1.5272  0.6509  0.1632
  200MOL0     H26357   1.328   5.861   4.894  0.0955 -1.1284  1.7241
  200MOL0     H26358   1.071   5.893   4.894  5.0586 -4.2929 -0.9098
  200MOL0     H26359   1.110   6.059   4.954 -1.6038 -0.3653 -0.1422
  200MOL0     H26360   1.079   6.069   4.719 -2.9957 -2.0292  3.4560
  200MOL0     H26361   1.185   5.931   4.697 -0.8861 -1.1603  1.6409
  200MOL0     H26362   1.180   6.130   4.504  0.6846 -0.1516 -2.0231
  200MOL0     H26363   1.293   6.215   4.308 -1.5264 -4.6617  0.6607
  200MOL0     H26364   1.674   6.315   4.034  0.9821  1.3006  1.6238
  200MOL0     H26365   1.701   6.437   3.802 -0.7514  0.1748 -1.6541
  200MOL0     H26366   1.474   6.814   3.770 -0.0589  1.7747 -0.6432
  200MOL0     H26367   1.576   6.801   3.625 -1.9084  1.8906  0.1579
  200MOL0     H26368   1.782   6.769   3.771  0.8580  1.4332  1.2533
  200MOL0     H26369   1.686   6.775   3.922 -0.8917  0.0809  0.6045
  200MOL0     H26370   1.625   7.007   3.877  1.2748  1.0828  3.3675
  200MOL0     H26371   1.703   7.003   3.713  2.1672  4.2636  1.4642
  200MOL0     H26372   1.858   6.984   3.968  0.3024  0.7478 -0.1770
  200MOL0     H26373   1.925   6.969   3.819 -1.4754 -1.6140  0.4345
  200MOL0     H26374   1.818   7.215   3.753  2.8917  1.0106 -1.1162
  200MOL0     H26375   1.959   7.201   3.858  0.2151  0.0984 -3.0329
  200MOL0     H26376   1.796   7.244   4.054  0.5742 -1.8862  0.3861
  200MOL0     H26377   1.657   7.223   3.947 -0.2211 -0.9213  0.5261
  200MOL0     H26378   1.845   7.449   3.885  1.0378 -1.1751 -2.4226
  200MOL0     H26379   1.689   7.401   3.809  1.0254 -1.0056 -1.2859
  200MOL0     H26380   1.644   7.586   3.956 -0.4866  0.2347  0.7029
  200MOL0     H26381   1.690   7.494   4.098 -0.6220 -1.7193 -0.5689
  200MOL0     H26382   1.354   6.670   3.900 -2.3798 -3.7742 -3.8675
  200MOL0     H26383   1.333   6.565   4.113 -1.0713  1.5654 -1.8514
  200MOL0     H26384   1.623   6.317   4.568 -0.9361  0.1920 -2.2646
  200MOL0     H26385   1.507   6.185   4.755 -0.2191  3.4136  0.6912
  200MOL0     H26386   2.245   6.644   5.530 -3.3170 -0.2330 -1.5596
  200MOL0     H26387   2.488   6.634   5.520  0.2235 -0.1742 -1.3565
  200MOL0     H26388   2.917   6.540   5.259  2.3805 -1.7067 -0.6712
  200MOL0     H26389   3.142   6.537   5.296  0.5635 -1.7862  2.2739
  200MOL0     H26390   3.353   6.662   5.260  0.2204  4.7120  0.1013
  200MOL0     H26391   3.361   6.548   5.406  6.5136  0.0016  0.4278
  200MOL0     H26392   3.509   6.704   5.506  2.8335 -1.6179  0.1790
  200MOL0     H26393   3.553   6.633   5.346 -1.4473 -0.2209 -0.4056
  200MOL0     H26394   3.453   6.935   5.381  0.4627  0.7663 -0.9463
  200MOL0     H26395   3.499   6.862   5.227  1.4228 -3.4977 -0.2042
  200MOL0     H26396   3.689   6.836   5.464 -0.4213 -1.6180  0.1680
  200MOL0     H26397   3.714   6.837   5.297 -2.3214  0.8715 -0.8261
  200MOL0     H26398   3.759   7.248   5.363  1.4224 -0.3327 -0.0493
  200MOL0     H26399   3.093   6.900   5.539  1.0024  0.1495 -0.7699
  200MOL0     H26400   2.855   6.898   5.488 -1.0708  0.3587 -0.9262
  201MOL0     O26401   7.476  11.073   4.264 -0.3873 -0.5664 -0.4235
  201MOL0     C26402   7.543  11.151   4.336 -0.6565 -0.6017  0.2395
  201MOL0     O26403   7.571  11.131   4.469  0.5981  0.1669  0.2290
  201MOL0     C26404   7.485  11.043   4.536 -0.3999  0.5717  1.5566
  201MOL0     C26405   7.362  11.087   4.573 -0.2637  0.4832 -0.5448
  201MOL0     C26406   7.270  10.988   4.621  0.0881 -0.6186 -0.4270
  201MOL0     C26407   7.321  10.850   4.659 -0.2244 -0.8537 -1.1283
  201MOL0     O26408   7.243  10.746   4.719 -0.1481  0.2930  0.0082
  201MOL0     C26409   7.127  10.766   4.801  0.7896 -0.5380 -0.2308
  201MOL0     C26410   7.145  10.779   4.959  0.2544  0.3698 -0.5842
  201MOL0     C26411   7.222  10.664   5.029 -0.0508 -0.3780  0.1487
  201MOL0     C26412   7.356  10.634   4.971 -0.2325  0.1611 -0.3606
  201MOL0     C26413   7.469  10.582   5.076  0.4222 -0.3522  0.5017
  201MOL0     C26414   7.596  10.665   5.074 -0.7535 -0.5568 -0.7187
  201MOL0     C26415   7.671  10.654   4.938 -0.6863 -0.8920 -0.0339
  201MOL0     C26416   7.812  10.722   4.949  0.3500  0.8340  0.0922
  201MOL0     N26417   7.891  10.699   4.824  0.0037  0.0763  0.1761
  201MOL0     C26418   7.842  10.746   4.702  0.8460 -0.4683  0.2454
  201MOL0     C26419   7.952  10.743   4.625 -1.0763 -0.2164 -0.7706
  201MOL0     C26420   7.964  10.798   4.485 -0.6343  0.1195  0.1800
  201MOL0     C26421   8.054  10.922   4.472  0.6101 -0.4275  0.5378
  201MOL0     C26422   8.019  11.064   4.500  0.5670 -0.5384  0.4057
  201MOL0     C26423   7.922  11.068   4.619  0.8519  0.1533 -0.1377
  201MOL0     O26424   7.896  11.199   4.666  0.1843 -0.1433 -0.3321
  201MOL0     C26425   7.794  11.202   4.751  0.2662  0.4262 -0.4592
  201MOL0     C26426   7.784  11.115   4.861 -0.4784 -0.3796  0.1678
  201MOL0     C26427   7.669  11.105   4.933  0.0307 -0.7035  0.5937
  201MOL0     C26428   7.571  11.205   4.919  0.1233  0.0581  0.5214
  201MOL0     C26429   7.451  11.221   5.006 -0.0280  0.0429 -0.7560
  201MOL0     O26430   7.415  11.104   5.071  0.0498  0.4614  0.4985
  201MOL0     C26431   7.305  11.081   5.154  0.1656 -0.5163  0.5183
  201MOL0     C26432   7.317  10.948   5.221  0.0578 -1.0359  0.0100
  201MOL0     C26433   7.217  10.908   5.310 -0.1229 -0.7147 -0.2354
  201MOL0     C26434   7.116  10.998   5.339 -0.6800 -0.2993 -0.0973
  201MOL0     O26435   7.025  10.941   5.425  0.4210 -0.3286  0.2654
  201MOL0     C26436   6.897  11.008   5.439 -1.1023 -0.6510 -0.5485
  201MOL0     C26437   6.810  10.909   5.519  0.3596 -0.2088 -0.0503
  201MOL0     C26438   6.779  10.782   5.441 -0.6694 -0.4251  0.5890
  201MOL0     C26439   6.870  10.666   5.495  0.9523  1.0220 -0.2598
  201MOL0     C26440   6.990  10.611   5.409  0.9813 -0.8605  0.1213
  201MOL0     C26441   7.073  10.509   5.495  0.2996 -0.8381  0.4465
  201MOL0     C26442   7.185  10.446   5.412 -0.3313  0.2441 -0.2279
  201MOL0     C26443   7.155  10.325   5.323  0.0208  0.5183  0.7286
  201MOL0    Cl26444   7.035  10.210   5.399 -0.4944  0.4918 -0.1993
  201MOL0     C26445   7.104  11.125   5.286 -0.4784 -0.9202 -0.4462
  201MOL0     C26446   7.208  11.173   5.198  0.9191  0.5294 -0.2295
  201MOL0     O26447   7.389  11.320   5.003 -0.1399  0.2844 -0.1390
  201MOL0     C26448   7.578  11.298   4.813 -0.7064 -0.0477 -1.0274
  201MOL0     C26449   7.687  11.289   4.721  0.0569 -0.4697 -0.0575
  201MOL0     N26450   8.059  10.693   4.697 -0.6677  0.9430 -0.0484
  201MOL0     N26451   8.022  10.676   4.822  0.0413  0.5703 -0.0086
  201MOL0     C26452   7.450  10.826   4.643 -1.3168  0.1800  0.4855
  201MOL0     C26453   7.531  10.913   4.564 -0.3183 -0.8402 -0.5021
  201MOL0     C26454   7.610  11.276   4.274 -0.4382 -0.6218  0.1539
  201MOL0     C26455   7.560  11.328   4.151  0.8960  0.2230  0.1712
  201MOL0     C26456   7.608  11.446   4.111 -0.0352 -0.3482  0.2693
  201MOL0     C26457   7.727  11.505   4.169 -0.2514 -0.5811  0.6802
  201MOL0     O26458   7.788  11.618   4.118  0.0561 -0.2915 -0.5034
  201MOL0     C26459   7.734  11.687   3.999 -0.8517 -0.2634  0.4404
  201MOL0     C26460   7.754  11.601   3.868 -0.8119 -0.3761  0.2245
  201MOL0     C26461   7.904  11.571   3.839  0.5503 -0.2941  0.2915
  201MOL0     C26462   7.929  11.519   3.693  0.1625 -0.1454 -0.8037
  201MOL0     C26463   7.899  11.379   3.670 -1.3588 -0.3165 -0.1794
  201MOL0     C26464   7.898  11.263   3.639 -0.8460  0.7560 -0.1129
  201MOL0     C26465   7.781  11.445   4.279  0.2771  0.3014 -0.3441
  201MOL0     C26466   7.733  11.327   4.337  0.1925 -0.7242  0.3066
  201MOL0     H26467   7.332  11.188   4.548  1.2242  0.6255 -1.9062
  201MOL0     H26468   7.164  11.012   4.628 -0.0339 -0.0830 -2.9497
  201MOL0     H26469   7.073  10.675   4.775  1.1035 -0.0441 -2.9031
  201MOL0     H26470   7.072  10.857   4.773  3.9692  1.9163  0.9604
  201MOL0     H26471   7.043  10.783   4.999  0.2871  2.8627 -0.6118
  201MOL0     H26472   7.191  10.876   4.980 -0.5055  0.7949 -0.8645
  201MOL0     H26473   7.160  10.574   5.022  2.4133 -2.0013 -4.5173
  201MOL0     H26474   7.231  10.684   5.137  0.7386  0.3590 -0.0363
  201MOL0     H26475   7.337  10.563   4.889  1.4626  0.4431 -1.0525
  201MOL0     H26476   7.395  10.719   4.914  0.3126 -0.2771 -0.6545
  201MOL0     H26477   7.477  10.477   5.046 -1.0870 -0.8159  1.6444
  201MOL0     H26478   7.429  10.588   5.177  4.9416 -1.2886  2.6106
  201MOL0     H26479   7.666  10.635   5.153 -3.1613 -1.9193  1.0278
  201MOL0     H26480   7.570  10.768   5.097 -1.2102 -0.6100 -0.9844
  201MOL0     H26481   7.678  10.552   4.901 -1.4875 -1.0431  0.2351
  201MOL0     H26482   7.607  10.695   4.860 -0.0812 -1.2686 -0.7362
  201MOL0     H26483   7.864  10.680   5.035  1.7127  0.8404 -0.7048
  201MOL0     H26484   7.801  10.829   4.969 -0.3492  0.6987  0.5105
  201MOL0     H26485   7.745  10.784   4.672  0.4366 -1.1748  0.6477
  201MOL0     H26486   7.867  10.822   4.440 -0.9161 -1.9476 -0.4133
  201MOL0     H26487   8.004  10.717   4.423 -1.5900 -0.1169 -0.1320
  201MOL0     H26488   8.077  10.917   4.365  0.8163 -4.1296  0.6048
  201MOL0     H26489   8.148  10.893   4.521 -0.5398  1.4956  4.2242
  201MOL0     H26490   8.101  11.135   4.507  2.2819 -2.0188 -2.4996
  201MOL0     H26491   7.955  11.097   4.417 -2.7513  0.0144  2.9730
  201MOL0     H26492   7.982  11.018   4.696  0.5114 -3.2571 -1.9153
  201MOL0     H26493   7.832  11.011   4.597  0.3339  1.0774 -0.4560
  201MOL0     H26494   7.875  11.059   4.882  1.4130  1.5418 -2.2769
  201MOL0     H26495   7.646  11.031   5.010 -1.6325  0.4804  1.2846
  201MOL0     H26496   7.405  10.891   5.195  1.6295  1.3610 -0.2639
  201MOL0     H26497   7.230  10.808   5.350 -2.6024  0.1582  3.1828
  201MOL0     H26498   6.859  11.047   5.344 -0.8757  0.0148 -0.3708
  201MOL0     H26499   6.914  11.094   5.504 -1.6049 -1.1349  0.2482
  201MOL0     H26500   6.713  10.956   5.536  1.7059  2.6218  0.5529
  201MOL0     H26501   6.851  10.886   5.618 -1.0604  0.6705  0.7754
  201MOL0     H26502   6.795  10.811   5.337 -0.6728  1.2247  1.0175
  201MOL0     H26503   6.680  10.746   5.473 -0.9007  1.5138  2.2144
  201MOL0     H26504   6.906  10.692   5.595  1.2133  2.5584 -0.7273
  201MOL0     H26505   6.797  10.588   5.520  0.9834  1.9651  3.3595
  201MOL0     H26506   7.053  10.694   5.376  2.0378 -0.7091  2.3576
  201MOL0     H26507   6.957  10.553   5.322  0.8958 -1.8999  0.8356
  201MOL0     H26508   7.012  10.425   5.529  0.5219 -0.3898  2.0299
  201MOL0     H26509   7.098  10.571   5.581  3.9688 -0.1062 -0.9421
  201MOL0     H26510   7.236  10.528   5.362  0.3489  0.1196  0.2432
  201MOL0     H26511   7.255  10.408   5.487 -0.7264 -0.8059 -0.3653
  201MOL0     H26512   7.247  10.281   5.284 -2.2708 -5.1605  0.7580
  201MOL0     H26513   7.097  10.353   5.234 -1.2827  0.7452  1.6195
  201MOL0     H26514   7.021  11.186   5.320 -0.9688 -1.7040 -0.2114
  201MOL0     H26515   7.208  11.275   5.161 -0.4381  0.3702 -0.7226
  201MOL0     H26516   7.511  11.381   4.793  1.2180  1.6584 -0.7867
  201MOL0     H26517   7.670  11.355   4.637 -3.5363  0.5056  1.2894
  201MOL0     H26518   7.492  10.727   4.662 -1.1869 -0.4446 -2.5371
  201MOL0     H26519   7.630  10.871   4.547 -0.3648 -1.0158 -0.3506
  201MOL0     H26520   7.475  11.291   4.095 -1.2088 -0.8676  3.8066
  201MOL0     H26521   7.565  11.507   4.032 -0.9283 -2.3996 -0.9029
  201MOL0     H26522   7.770  11.790   4.001 -1.7580  0.1086  3.6309
  201MOL0     H26523   7.627  11.708   4.012 -0.3484  3.8075 -0.7269
  201MOL0     H26524   7.705  11.503   3.878 -0.9641 -0.3019  0.2069
  201MOL0     H26525   7.710  11.658   3.786  1.3365  0.6620 -0.2787
  201MOL0     H26526   7.936  11.496   3.913  0.4402 -0.8800 -0.2491
  201MOL0     H26527   7.962  11.662   3.850  2.0088 -0.8991 -1.8301
  201MOL0     H26528   7.864  11.580   3.629  1.2015  1.2796 -0.5704
  201MOL0     H26529   8.032  11.538   3.661 -0.5870  2.7828 -1.8061
  201MOL0     H26530   7.889  11.159   3.613 -1.0422  0.9088 -0.6786
  201MOL0     H26531   7.876  11.485   4.313  0.0039 -2.2035  3.9654
  201MOL0     H26532   7.777  11.268   4.417 -1.4865 -1.1362  0.9505
  202MOL0     O26533  10.267   9.417   0.101 -0.0886 -0.0508 -0.6256
  202MOL0     C26534  10.296   9.528   0.058  0.0752 -0.4533  0.2876
  202MOL0     O26535  10.211   9.635   0.056 -0.8984  0.5285 -0.2038
  202MOL0     C26536  10.114   9.647   0.149 -0.3403  0.2844  0.3903
  202MOL0     C26537  10.149   9.680   0.274  0.1016 -0.5390 -0.0434
  202MOL0     C26538  10.051   9.700   0.372  0.4960  0.2848 -0.9964
  202MOL0     C26539   9.913   9.670   0.348  0.3213  0.3436 -0.2397
  202MOL0     O26540   9.803   9.679   0.432 -0.5453  0.2277 -0.0496
  202MOL0     C26541   9.827   9.706   0.571 -0.4433  0.2044 -0.2904
  202MOL0     C26542   9.692   9.733   0.651 -0.2580  0.3026 -0.3399
  202MOL0     C26543   9.718   9.814   0.792  0.0183 -0.2515  0.4956
  202MOL0     C26544   9.817   9.731   0.879  0.7058  1.5750  0.4077
  202MOL0     C26545   9.854   9.805   1.012  0.2946 -0.2039 -0.0411
  202MOL0     C26546   9.890   9.701   1.121 -0.0478  1.1944 -0.1137
  202MOL0     C26547   9.998   9.594   1.079  0.6435  0.3702 -0.2440
  202MOL0     C26548  10.027   9.495   1.199  0.9704  0.7354 -1.4802
  202MOL0     N26549  10.083   9.373   1.142 -0.4732 -0.1978  0.3929
  202MOL0     C26550  10.171   9.374   1.038 -0.0664  0.3895 -0.7584
  202MOL0     C26551  10.190   9.241   1.017  1.1430  1.1493 -0.9600
  202MOL0     C26552  10.299   9.184   0.934  0.5389 -0.5670  0.3740
  202MOL0     C26553  10.247   9.167   0.790 -0.0814 -0.2447 -0.1335
  202MOL0     C26554  10.114   9.101   0.764 -0.2529 -0.6063  0.5720
  202MOL0     C26555  10.119   8.960   0.807  0.3796 -0.2924 -1.3115
  202MOL0     O26556  10.220   8.902   0.729 -0.2668  0.2113 -0.1117
  202MOL0     C26557  10.279   8.790   0.774 -0.7631  0.5355  0.2746
  202MOL0     C26558  10.405   8.757   0.717  0.7026  0.0988 -0.5357
  202MOL0     C26559  10.464   8.634   0.748 -1.2380 -0.3173  0.9738
  202MOL0     C26560  10.408   8.540   0.837 -0.5680 -0.2387  0.8105
  202MOL0     C26561  10.474   8.404   0.856 -0.1869  0.3045 -1.1133
  202MOL0     O26562  10.406   8.300   0.908 -0.0803 -0.1325  0.3304
  202MOL0     C26563  10.439   8.173   0.865  0.4821  0.4212 -0.6656
  202MOL0     C26564  10.547   8.099   0.915  0.6105 -0.6159 -0.4475
  202MOL0     C26565  10.560   7.964   0.890 -0.5458  0.3021 -0.4079
  202MOL0     C26566  10.469   7.913   0.794  0.4805 -0.0848  0.1070
  202MOL0     O26567  10.486   7.779   0.752  0.6846 -0.0167  0.0458
  202MOL0     C26568  10.377   7.714   0.663 -0.6478 -0.0238 -0.0216
  202MOL0     C26569  10.406   7.577   0.618  0.3979 -0.0829  0.3960
  202MOL0     C26570  10.290   7.528   0.525  0.2309 -0.5209  0.2771
  202MOL0     C26571  10.315   7.377   0.518  0.1520  0.2455 -0.7510
  202MOL0     C26572  10.207   7.319   0.421 -0.4725  0.3824  0.5176
  202MOL0     C26573  10.230   7.172   0.377  0.4755 -0.0742  0.6165
  202MOL0     C26574  10.206   7.071   0.492  0.3019  0.4239  0.6443
  202MOL0     C26575  10.171   6.934   0.427 -0.1379  0.2001 -0.0615
  202MOL0    Cl26576  10.192   6.789   0.542  0.0737  0.0542  0.0885
  202MOL0     C26577  10.356   7.990   0.748 -0.2844 -0.1129  0.4052
  202MOL0     C26578  10.336   8.120   0.790 -0.7613  0.3888 -1.0877
  202MOL0     O26579  10.589   8.397   0.817 -0.6423 -0.4809 -0.4373
  202MOL0     C26580  10.290   8.580   0.902  0.2455  0.0268 -0.0009
  202MOL0     C26581  10.229   8.699   0.865 -0.2171 -0.3955 -0.0159
  202MOL0     N26582  10.125   9.168   1.114 -0.1849 -0.1480 -0.5207
  202MOL0     N26583  10.054   9.246   1.191 -0.2708 -0.3373  0.1589
  202MOL0     C26584   9.887   9.615   0.224  1.4729  0.4916 -0.2002
  202MOL0     C26585   9.983   9.612   0.125  0.2788 -0.3094 -0.6747
  202MOL0     C26586  10.439   9.554   0.015  0.3284 -0.2339  0.0934
  202MOL0     C26587  10.524   9.450   0.021 -0.0925 -0.0306 -0.5978
  202MOL0     C26588  10.648   9.449  -0.038 -0.3495 -0.0924 -0.2333
  202MOL0     C26589  10.697   9.568  -0.095 -0.3597 -1.6869 -0.1833
  202MOL0     O26590  10.814   9.583  -0.160 -1.7191 -0.1360 -0.1472
  202MOL0     C26591  10.920   9.508  -0.117  0.3350 -0.7162 -0.4611
  202MOL0     C26592  10.997   9.597  -0.018  0.5432 -1.1579 -1.1916
  202MOL0     C26593  11.096   9.509   0.072 -0.0844 -0.9323 -0.0593
  202MOL0     C26594  11.147   9.600   0.189 -0.2332  0.3578  0.3948
  202MOL0     C26595  11.218   9.721   0.145  0.0823 -0.0038 -0.6708
  202MOL0     C26596  11.285   9.818   0.120 -0.2629  0.3481  0.6537
  202MOL0     C26597  10.613   9.682  -0.090 -0.1213 -0.0397 -0.0936
  202MOL0     C26598  10.485   9.682  -0.037  1.0401 -0.6719 -0.3084
  202MOL0     H26599  10.252   9.701   0.299  0.4736 -1.2719 -0.9121
  202MOL0     H26600  10.077   9.737   0.470  2.7022 -0.4752 -1.2374
  202MOL0     H26601   9.883   9.800   0.576 -0.1461  0.0833 -1.1316
  202MOL0     H26602   9.893   9.628   0.610  3.0962  2.2620 -1.6280
  202MOL0     H26603   9.639   9.642   0.681  2.1262 -1.4850 -1.2464
  202MOL0     H26604   9.631   9.795   0.585  0.0768  0.6081 -0.3673
  202MOL0     H26605   9.627   9.846   0.842  0.5038  1.9999  0.0386
  202MOL0     H26606   9.774   9.906   0.770 -1.5037  0.6195  0.1799
  202MOL0     H26607   9.768   9.636   0.903  0.9061  1.5438  0.6913
  202MOL0     H26608   9.908   9.707   0.824  0.1890  2.0101 -0.6687
  202MOL0     H26609   9.765   9.852   1.055  0.0254 -0.3344 -0.4418
  202MOL0     H26610   9.942   9.868   0.999  0.9798 -0.7780  1.5444
  202MOL0     H26611   9.800   9.649   1.154  0.3795 -0.4601 -1.3927
  202MOL0     H26612   9.930   9.750   1.211  1.0890 -2.0156  1.2741
  202MOL0     H26613   9.954   9.537   0.997 -1.0667  0.6356  0.4333
  202MOL0     H26614  10.085   9.650   1.043  0.2839  1.4941  0.5709
  202MOL0     H26615   9.949   9.470   1.271  3.2859 -0.9734  0.6392
  202MOL0     H26616  10.097   9.551   1.263  0.9643 -1.5452  0.6574
  202MOL0     H26617  10.219   9.467   1.008  0.8380  0.4101  0.6396
  202MOL0     H26618  10.334   9.088   0.974 -0.6699 -0.8301  0.8342
  202MOL0     H26619  10.378   9.259   0.927  1.1502 -1.1084  1.3226
  202MOL0     H26620  10.312   9.117   0.717  1.1358  1.4034 -0.2587
  202MOL0     H26621  10.238   9.268   0.748 -0.1422  0.2758  1.0864
  202MOL0     H26622  10.030   9.156   0.807 -1.4727 -2.0630  0.1839
  202MOL0     H26623  10.093   9.092   0.657  1.2283 -2.8176  0.3918
  202MOL0     H26624  10.029   8.902   0.785  1.3559 -1.3827 -2.6447
  202MOL0     H26625  10.138   8.944   0.913 -0.1699 -2.9737 -1.5547
  202MOL0     H26626  10.453   8.833   0.656 -0.7316  0.0336 -1.7972
  202MOL0     H26627  10.556   8.605   0.698 -1.8104 -0.3526 -0.0821
  202MOL0     H26628  10.620   8.145   0.981  0.8856 -3.5023  1.4504
  202MOL0     H26629  10.652   7.915   0.917 -0.4454  1.0308  0.6074
  202MOL0     H26630  10.384   7.776   0.573  1.0726 -3.4794 -2.5056
  202MOL0     H26631  10.289   7.714   0.727 -1.4395  1.9813 -1.0085
  202MOL0     H26632  10.410   7.511   0.706 -2.8167  0.6915  1.2485
  202MOL0     H26633  10.496   7.550   0.562 -0.6190 -0.9458 -0.8967
  202MOL0     H26634  10.296   7.580   0.429 -1.3194  3.5895  2.1998
  202MOL0     H26635  10.187   7.539   0.560  0.2035  0.0057  0.0350
  202MOL0     H26636  10.419   7.353   0.494  0.0707 -1.3956  0.3885
  202MOL0     H26637  10.298   7.316   0.607  1.2917 -0.4522 -0.9903
  202MOL0     H26638  10.232   7.375   0.331 -3.5396  0.4984 -0.3806
  202MOL0     H26639  10.105   7.337   0.456 -1.7848  0.1802 -2.8527
  202MOL0     H26640  10.330   7.150   0.338 -1.7650 -5.2471 -3.6516
  202MOL0     H26641  10.162   7.140   0.297  0.6656  0.5071  0.2161
  202MOL0     H26642  10.303   7.066   0.542  1.0248  1.0358 -0.6465
  202MOL0     H26643  10.135   7.106   0.566 -2.5349  1.2581 -2.2310
  202MOL0     H26644  10.240   6.916   0.344  2.0960  0.6680  1.6002
  202MOL0     H26645  10.072   6.938   0.380  0.3912  3.6052 -1.1722
  202MOL0     H26646  10.293   7.961   0.664  0.0174  2.0795 -0.6342
  202MOL0     H26647  10.270   8.193   0.746  1.1794  1.5539 -2.2225
  202MOL0     H26648  10.250   8.501   0.964 -0.2834 -2.6824 -3.4864
  202MOL0     H26649  10.133   8.732   0.906  0.7759 -0.2476  2.3559
  202MOL0     H26650   9.789   9.574   0.206  0.3324  3.4947 -1.5936
  202MOL0     H26651   9.942   9.570   0.033 -3.0535 -2.1446  1.4732
  202MOL0     H26652  10.495   9.356   0.066  2.5598 -0.1952  0.9526
  202MOL0     H26653  10.701   9.354  -0.040  0.1553  0.1895 -0.7698
  202MOL0     H26654  10.975   9.461  -0.199 -3.0624  0.9240 -4.0484
  202MOL0     H26655  10.892   9.424  -0.052 -1.9465  0.4212  0.1166
  202MOL0     H26656  11.056   9.668  -0.077 -1.0374  0.2189 -1.1893
  202MOL0     H26657  10.927   9.650   0.048  0.1343 -2.0179 -0.9270
  202MOL0     H26658  11.179   9.473   0.010 -0.2306 -1.3440 -0.0151
  202MOL0     H26659  11.050   9.422   0.118  1.7227 -0.1144  3.7212
  202MOL0     H26660  11.057   9.632   0.241  0.2266  1.5608  0.4604
  202MOL0     H26661  11.212   9.530   0.243 -1.3923 -3.2374 -2.4176
  202MOL0     H26662  11.371   9.881   0.114  1.7583 -2.2358  0.7377
  202MOL0     H26663  10.659   9.775  -0.120  1.1011 -1.0571 -1.4914
  202MOL0     H26664  10.422   9.770  -0.026  3.0557  0.8918 -0.6448
  203MOL0     O26665   1.993   0.665   9.236  0.1493 -0.6807  0.2227
  203MOL0     C26666   1.923   0.573   9.250  1.0169 -0.0392 -0.3360
  203MOL0     O26667   1.796   0.556   9.191  0.8252 -0.3867 -0.2886
  203MOL0     C26668   1.750   0.652   9.103  0.6739 -0.9891  0.6339
  203MOL0     C26669   1.767   0.795   9.113 -0.0469 -0.2361 -0.5743
  203MOL0     C26670   1.699   0.878   9.018  0.3568 -0.9102  0.2289
  203MOL0     C26671   1.603   0.824   8.928 -0.4607 -0.1751 -0.3559
  203MOL0     O26672   1.542   0.926   8.850 -0.6197 -0.8545 -0.5965
  203MOL0     C26673   1.400   0.912   8.829 -0.5510 -0.0879 -0.9759
  203MOL0     C26674   1.359   0.873   8.687  0.0359  0.5448 -0.3784
  203MOL0     C26675   1.385   0.982   8.585  0.5846  0.0605 -0.4797
  203MOL0     C26676   1.335   0.922   8.451 -0.1653  0.2122 -0.4253
  203MOL0     C26677   1.191   0.891   8.444  1.3088 -0.3751 -0.7997
  203MOL0     C26678   1.146   0.875   8.294 -0.3288  0.3716 -1.2056
  203MOL0     C26679   0.986   0.871   8.289  0.9548  0.2732  0.3731
  203MOL0     C26680   0.927   0.879   8.149  0.0470  0.4183 -0.7749
  203MOL0     N26681   0.961   0.999   8.071  0.0498 -0.6073 -0.4292
  203MOL0     C26682   0.987   0.993   7.935 -1.1072 -0.3206 -0.9937
  203MOL0     C26683   1.002   1.131   7.910  0.0499  0.1924 -1.6184
  203MOL0     C26684   1.029   1.213   7.780 -0.8871 -0.5089  0.1418
  203MOL0     C26685   1.171   1.235   7.755 -0.7032  0.4550 -0.3312
  203MOL0     C26686   1.263   1.108   7.798  1.3367 -0.5425 -0.8022
  203MOL0     C26687   1.413   1.142   7.775 -0.8918  0.3650 -0.1310
  203MOL0     O26688   1.488   1.070   7.681  1.0203  0.8817  0.6305
  203MOL0     C26689   1.618   1.079   7.647 -1.4890  0.2154 -0.3791
  203MOL0     C26690   1.701   1.152   7.719 -0.4702 -0.4773 -0.3332
  203MOL0     C26691   1.835   1.172   7.690  0.1855 -0.9357  0.0084
  203MOL0     C26692   1.893   1.107   7.576  0.2942  0.5878  0.1228
  203MOL0     C26693   2.035   1.125   7.538  0.1921  0.5199  0.1569
  203MOL0     O26694   2.067   1.075   7.416 -0.3705 -0.5756  0.4263
  203MOL0     C26695   2.200   1.042   7.390  0.1872 -0.9604  0.1367
  203MOL0     C26696   2.287   1.149   7.344  0.9724 -0.8875  0.3074
  203MOL0     C26697   2.417   1.107   7.295 -0.4906 -0.7747 -0.4220
  203MOL0     C26698   2.447   0.976   7.278  0.3398 -0.0223 -0.4790
  203MOL0     O26699   2.568   0.958   7.217  0.5765 -0.6327 -0.0953
  203MOL0     C26700   2.605   0.826   7.190 -0.6337  0.5992  0.2985
  203MOL0     C26701   2.737   0.843   7.116 -1.1031 -0.1093 -0.2879
  203MOL0     C26702   2.809   0.713   7.094  0.1094 -0.5665  0.6225
  203MOL0     C26703   2.932   0.724   7.004  0.1766  0.5508 -0.4507
  203MOL0     C26704   3.002   0.579   7.004  0.5285 -0.7699 -0.0217
  203MOL0     C26705   3.140   0.584   6.945  0.3266 -0.3360  0.6788
  203MOL0     C26706   3.239   0.623   7.063  0.2566 -0.6732  0.1053
  203MOL0     C26707   3.383   0.626   7.019 -0.3207 -0.0981  0.4974
  203MOL0    Cl26708   3.479   0.718   7.139  0.0468 -0.2173 -0.6184
  203MOL0     C26709   2.363   0.874   7.328 -0.2357 -0.4870 -0.9848
  203MOL0     C26710   2.233   0.908   7.380  0.4103  0.4800  0.6855
  203MOL0     O26711   2.113   1.172   7.618 -0.0614  0.7254  0.3216
  203MOL0     C26712   1.810   1.019   7.510  0.0357 -0.3100 -0.7778
  203MOL0     C26713   1.676   1.002   7.543  0.6911  0.4645 -0.3717
  203MOL0     N26714   0.993   1.204   8.026  1.0195  0.7193 -0.4813
  203MOL0     N26715   0.980   1.123   8.126  0.1233  0.1618  0.0961
  203MOL0     C26716   1.591   0.683   8.925 -0.1202  0.3216  0.0741
  203MOL0     C26717   1.665   0.605   9.003  0.0582  0.2592  0.1392
  203MOL0     C26718   1.980   0.459   9.328  0.8857 -0.2965 -0.2840
  203MOL0     C26719   2.120   0.442   9.342 -0.6097 -0.2918 -0.7100
  203MOL0     C26720   2.171   0.324   9.404 -0.2159 -0.6492 -0.1550
  203MOL0     C26721   2.087   0.236   9.462 -0.2621  0.9614  0.9242
  203MOL0     O26722   2.144   0.117   9.513  0.6132 -0.0914  0.1064
  203MOL0     C26723   2.071   0.016   9.585 -0.3476 -0.4770  0.5317
  203MOL0     C26724   2.157  -0.050   9.684  0.4801  0.3539  1.1131
  203MOL0     C26725   2.286  -0.114   9.609 -0.3817 -1.3435  0.4011
  203MOL0     C26726   2.274  -0.248   9.543 -0.1923  0.4618 -0.4800
  203MOL0     C26727   2.213  -0.341   9.637  0.6799  0.8303 -0.9273
  203MOL0     C26728   2.165  -0.417   9.723 -0.5490  0.0164  0.0253
  203MOL0     C26729   1.948   0.255   9.456 -0.1627 -0.2155 -0.1551
  203MOL0     C26730   1.900   0.366   9.385  0.4116 -0.6543 -0.4345
  203MOL0     H26731   1.836   0.837   9.185 -2.5946  1.2019  1.1643
  203MOL0     H26732   1.723   0.984   9.020 -0.2891 -0.7527  2.3017
  203MOL0     H26733   1.354   1.005   8.861 -1.5734 -0.6658 -0.7250
  203MOL0     H26734   1.361   0.835   8.896  1.8151 -2.8420 -2.5129
  203MOL0     H26735   1.251   0.853   8.684  0.1371 -0.0566 -0.1334
  203MOL0     H26736   1.402   0.775   8.663 -0.1144  0.1112  0.9864
  203MOL0     H26737   1.491   1.008   8.573 -0.2806  4.3917 -0.0934
  203MOL0     H26738   1.326   1.071   8.606  2.7109  0.7704  3.5083
  203MOL0     H26739   1.348   0.996   8.371 -0.6436  1.1219  0.3244
  203MOL0     H26740   1.397   0.837   8.420  2.9586  1.7593  1.1132
  203MOL0     H26741   1.124   0.961   8.494  0.0663 -1.7548 -0.4661
  203MOL0     H26742   1.188   0.788   8.482  1.3050 -1.7151 -4.0090
  203MOL0     H26743   1.196   0.786   8.256  2.2369  1.9875 -1.9102
  203MOL0     H26744   1.185   0.967   8.248  2.8718 -0.0198  0.4610
  203MOL0     H26745   0.940   0.782   8.332  4.3044 -2.2854 -0.8731
  203MOL0     H26746   0.943   0.953   8.346 -1.5869 -2.6052  2.9496
  203MOL0     H26747   0.822   0.848   8.144 -0.2899  1.4996 -0.7428
  203MOL0     H26748   0.973   0.804   8.084 -1.9095 -0.2172 -1.5088
  203MOL0     H26749   0.987   0.907   7.869 -0.5233 -0.5503 -0.7051
  203MOL0     H26750   0.981   1.311   7.784  0.0625 -0.0629  1.9117
  203MOL0     H26751   0.984   1.160   7.696 -3.0831  2.0444 -0.3914
  203MOL0     H26752   1.195   1.313   7.828  1.3299  1.4425 -1.9554
  203MOL0     H26753   1.194   1.266   7.653  1.0047  3.5036  0.8294
  203MOL0     H26754   1.247   1.102   7.906  1.5952  1.4108 -0.6285
  203MOL0     H26755   1.232   1.017   7.744 -1.7697  0.9551 -1.8215
  203MOL0     H26756   1.465   1.112   7.866 -1.1973  0.8992  0.2293
  203MOL0     H26757   1.425   1.251   7.767  1.3750  0.1984  0.5058
  203MOL0     H26758   1.662   1.207   7.804 -0.3320 -0.2397 -0.4226
  203MOL0     H26759   1.889   1.234   7.761 -3.4161  1.3058  1.0452
  203MOL0     H26760   2.245   1.248   7.352 -1.2811 -1.7216 -0.3638
  203MOL0     H26761   2.499   1.177   7.283 -0.8641  0.2090  2.1585
  203MOL0     H26762   2.528   0.776   7.131 -0.5288  1.9641 -1.0713
  203MOL0     H26763   2.622   0.769   7.282  1.4212 -0.5888 -0.7566
  203MOL0     H26764   2.801   0.905   7.180  0.3411 -2.9210  1.1969
  203MOL0     H26765   2.715   0.893   7.022 -0.4916 -3.9568 -2.6941
  203MOL0     H26766   2.746   0.633   7.055 -1.6240 -1.9220  5.5199
  203MOL0     H26767   2.856   0.684   7.188  2.3509  2.0673  0.4513
  203MOL0     H26768   2.899   0.753   6.904 -0.6165  0.3857 -0.2438
  203MOL0     H26769   2.992   0.808   7.038 -0.9069  1.0583  0.2628
  203MOL0     H26770   2.946   0.511   6.938  1.7766 -1.2571 -0.6106
  203MOL0     H26771   3.005   0.540   7.106  0.9359  1.2033  0.7492
  203MOL0     H26772   3.135   0.652   6.859 -0.6859 -1.4768 -0.2024
  203MOL0     H26773   3.162   0.486   6.902  4.5384  0.7903 -0.1989
  203MOL0     H26774   3.206   0.708   7.123 -1.9692 -1.9669  0.8385
  203MOL0     H26775   3.235   0.545   7.140  1.9267  1.6962  2.7759
  203MOL0     H26776   3.385   0.662   6.916 -1.6854 -3.1217 -0.7167
  203MOL0     H26777   3.422   0.524   7.012 -0.6646 -0.2571  0.9031
  203MOL0     H26778   2.408   0.775   7.327  2.5887  0.6789  0.1783
  203MOL0     H26779   2.160   0.836   7.416  0.7455 -0.0079  0.4066
  203MOL0     H26780   1.862   0.966   7.432  2.2781 -0.0696  0.4662
  203MOL0     H26781   1.624   0.927   7.484  3.1073  0.0458 -2.1383
  203MOL0     H26782   1.523   0.639   8.852  2.4730 -0.2636 -2.1407
  203MOL0     H26783   1.658   0.497   9.014 -0.4854  0.2442 -0.2881
  203MOL0     H26784   2.181   0.517   9.291 -1.1768  0.0545 -0.8998
  203MOL0     H26785   2.278   0.306   9.407  0.0318  0.5211  3.3994
  203MOL0     H26786   2.049  -0.058   9.507  1.3068 -1.6607  1.1409
  203MOL0     H26787   1.976   0.054   9.623 -1.4655 -2.0065 -0.5744
  203MOL0     H26788   2.194   0.022   9.758 -1.7643  0.8354  1.8424
  203MOL0     H26789   2.093  -0.122   9.735 -0.6288  0.8668  0.4674
  203MOL0     H26790   2.364  -0.121   9.685 -1.1222 -0.2898  1.2930
  203MOL0     H26791   2.321  -0.052   9.527 -1.1660 -0.3402  0.8011
  203MOL0     H26792   2.203  -0.227   9.462 -1.0150  2.6156  0.6963
  203MOL0     H26793   2.372  -0.289   9.517 -0.3511 -1.2576  1.3798
  203MOL0     H26794   2.141  -0.492   9.796 -0.6789  2.2322  2.3704
  203MOL0     H26795   1.872   0.186   9.490 -1.7999  2.7696  2.8026
  203MOL0     H26796   1.792   0.366   9.372  0.5127  1.0138 -1.5538
  204MOL0     O26797   4.625   5.220   3.202  0.3120 -0.2877 -0.8787
  204MOL0     C26798   4.670   5.235   3.313  0.1771  0.5898 -0.4757
  204MOL0     O26799   4.750   5.141   3.378  0.5100 -0.5962  0.0055
  204MOL0     C26800   4.827   5.047   3.317 -1.5618  0.0448 -0.1831
  204MOL0     C26801   4.822   5.008   3.176 -0.1550 -1.5833  0.0663
  204MOL0     C26802   4.920   4.922   3.135  0.4430  0.1837 -0.2852
  204MOL0     C26803   5.003   4.842   3.217 -0.1870  0.8713 -1.1701
  204MOL0     O26804   5.099   4.753   3.158  0.0870  0.3681  0.6632
  204MOL0     C26805   5.137   4.645   3.249 -0.2278 -0.1272  0.0069
  204MOL0     C26806   5.032   4.539   3.282  0.7876  0.3294  0.2814
  204MOL0     C26807   5.092   4.423   3.367 -0.1844  0.2244  0.4109
  204MOL0     C26808   4.985   4.309   3.381  0.1451 -1.2900 -1.0772
  204MOL0     C26809   5.056   4.180   3.429  0.5904 -1.2391 -0.0605
  204MOL0     C26810   4.951   4.073   3.440  0.1259  1.2104  0.6255
  204MOL0     C26811   5.020   3.950   3.490  0.6502  1.7230  0.4126
  204MOL0     C26812   5.121   3.877   3.406 -0.3811 -0.4156  0.3257
  204MOL0     N26813   5.065   3.827   3.284  0.5045  0.1164  0.2726
  204MOL0     C26814   5.049   3.886   3.160  0.4781 -0.1547 -0.7350
  204MOL0     C26815   5.008   3.788   3.076 -0.0573  0.1825 -0.4494
  204MOL0     C26816   4.984   3.812   2.937 -0.3524 -0.2190 -0.4646
  204MOL0     C26817   5.113   3.841   2.855 -0.5475  0.4590  0.7234
  204MOL0     C26818   5.095   3.890   2.713  0.5973 -0.1995  0.0009
  204MOL0     C26819   5.057   3.771   2.620 -0.2007 -0.6394  0.1802
  204MOL0     O26820   5.006   3.822   2.489 -0.4041 -0.0134  0.5669
  204MOL0     C26821   4.873   3.833   2.463 -0.2892  0.0080  0.3562
  204MOL0     C26822   4.822   3.806   2.336  0.2386 -0.2261 -0.7375
  204MOL0     C26823   4.684   3.819   2.303 -0.6239 -0.0965 -0.2246
  204MOL0     C26824   4.598   3.871   2.399 -1.3442 -0.4036 -0.3887
  204MOL0     C26825   4.460   3.894   2.360 -0.3350 -0.1867 -0.6362
  204MOL0     O26826   4.389   3.990   2.434  1.1031 -1.0674  0.2859
  204MOL0     C26827   4.255   3.997   2.412 -0.9245  0.0052 -0.1609
  204MOL0     C26828   4.210   4.138   2.407 -1.4731  1.4132 -0.6830
  204MOL0     C26829   4.077   4.158   2.400  0.0016 -1.3671 -0.4949
  204MOL0     C26830   3.985   4.056   2.414  0.1819 -0.0385 -0.9365
  204MOL0     O26831   3.849   4.088   2.403  0.2319 -0.4324 -0.0183
  204MOL0     C26832   3.771   4.034   2.296  0.3826  0.5776 -0.0235
  204MOL0     C26833   3.742   4.134   2.177  0.8030 -0.0051  0.0660
  204MOL0     C26834   3.685   4.268   2.234  0.4259 -0.5315 -0.5640
  204MOL0     C26835   3.658   4.361   2.128  0.3757  0.4439  0.3388
  204MOL0     C26836   3.529   4.439   2.132  0.8058  0.6552  1.1659
  204MOL0     C26837   3.504   4.526   2.006  1.0784 -0.0919 -0.0330
  204MOL0     C26838   3.500   4.464   1.866  1.6492 -0.2915 -0.0037
  204MOL0     C26839   3.420   4.556   1.773 -0.4000  0.9188  0.4210
  204MOL0    Cl26840   3.241   4.569   1.789  0.0724  0.1598 -0.2529
  204MOL0     C26841   4.032   3.924   2.435  0.5336 -0.9122 -0.2729
  204MOL0     C26842   4.170   3.892   2.436  0.4930  0.0707  0.4541
  204MOL0     O26843   4.411   3.820   2.275  0.3429 -0.0999  0.9149
  204MOL0     C26844   4.650   3.917   2.524 -0.3882  0.8184  0.0349
  204MOL0     C26845   4.787   3.890   2.558 -0.1165  0.5315 -0.7438
  204MOL0     N26846   4.995   3.670   3.141 -0.3780 -0.8178  0.1414
  204MOL0     N26847   5.025   3.694   3.262  0.1048  0.5042 -0.8380
  204MOL0     C26848   5.000   4.876   3.353 -0.5093 -0.0272 -0.0400
  204MOL0     C26849   4.925   4.980   3.398  0.5208  0.1556  0.8490
  204MOL0     C26850   4.639   5.361   3.395  0.4317  0.1973  0.6378
  204MOL0     C26851   4.699   5.377   3.513  0.0513  0.3027 -1.2744
  204MOL0     C26852   4.638   5.480   3.596 -1.2306 -0.1611  1.2544
  204MOL0     C26853   4.540   5.571   3.548 -0.0704  0.7161 -0.9463
  204MOL0     O26854   4.497   5.674   3.622  0.0007 -0.9743  0.1608
  204MOL0     C26855   4.583   5.735   3.734  1.4196  0.5393 -0.6608
  204MOL0     C26856   4.532   5.679   3.869 -0.3426  1.3153  0.2981
  204MOL0     C26857   4.598   5.742   4.001  0.3487 -0.0124 -0.8997
  204MOL0     C26858   4.574   5.888   4.018  0.9209 -1.2101 -0.0771
  204MOL0     C26859   4.571   5.938   4.154 -0.1829 -0.7142 -0.4407
  204MOL0     C26860   4.556   5.994   4.268 -0.5899 -0.0865  0.7229
  204MOL0     C26861   4.490   5.547   3.428 -0.4049  0.2640  0.5035
  204MOL0     C26862   4.528   5.443   3.351 -0.3772 -0.3857  0.0451
  204MOL0     H26863   4.776   5.068   3.098 -2.1827 -2.8177  0.2222
  204MOL0     H26864   4.930   4.908   3.028 -3.5039 -3.9731 -0.4744
  204MOL0     H26865   5.168   4.695   3.341  0.9135  0.5821 -0.7364
  204MOL0     H26866   5.230   4.611   3.203  1.3701  1.9752  1.4933
  204MOL0     H26867   4.989   4.500   3.190 -3.5017  0.1891  2.0759
  204MOL0     H26868   4.949   4.583   3.339 -0.1574  1.5305 -1.9108
  204MOL0     H26869   5.117   4.448   3.471 -1.3753 -1.9843  1.3117
  204MOL0     H26870   5.180   4.379   3.319  0.3661 -0.3249  1.8530
  204MOL0     H26871   4.921   4.337   3.465  0.0708 -2.9770 -0.5324
  204MOL0     H26872   4.934   4.299   3.285 -1.5215  0.4678 -0.4433
  204MOL0     H26873   5.097   4.204   3.528 -0.5630  0.4799  0.0441
  204MOL0     H26874   5.128   4.166   3.348  0.0166  4.1543 -1.9055
  204MOL0     H26875   4.891   4.056   3.349 -0.1138  2.6362  0.5023
  204MOL0     H26876   4.876   4.112   3.509 -0.3615 -0.6383  1.1879
  204MOL0     H26877   5.066   3.962   3.588  1.1622 -4.2573  1.3191
  204MOL0     H26878   4.931   3.887   3.502 -0.5037  2.4913 -3.0205
  204MOL0     H26879   5.163   3.790   3.458  0.3775 -1.2674 -1.5899
  204MOL0     H26880   5.204   3.946   3.387 -0.2674 -0.5124  0.4719
  204MOL0     H26881   5.072   3.990   3.138  3.0106 -0.4315  0.2091
  204MOL0     H26882   4.906   3.889   2.933 -2.2461 -2.0734 -1.1613
  204MOL0     H26883   4.922   3.732   2.894  0.7902 -2.2529  1.5138
  204MOL0     H26884   5.179   3.754   2.861  1.4482  1.9755  2.2368
  204MOL0     H26885   5.163   3.917   2.916 -0.3839  0.1639  0.9578
  204MOL0     H26886   5.026   3.974   2.722  2.6565  1.4263  1.6167
  204MOL0     H26887   5.185   3.931   2.666  1.5223 -3.7756 -1.7446
  204MOL0     H26888   4.986   3.711   2.677  0.2496  0.5922  2.1244
  204MOL0     H26889   5.142   3.705   2.605  0.3710  0.5689 -2.5031
  204MOL0     H26890   4.900   3.768   2.271  1.1363  0.3678 -0.0311
  204MOL0     H26891   4.648   3.789   2.206 -3.0288 -0.0351  0.5861
  204MOL0     H26892   4.276   4.221   2.386 -2.8859  1.8038 -4.2437
  204MOL0     H26893   4.021   4.251   2.403 -0.7545 -1.7855  3.0861
  204MOL0     H26894   3.674   4.006   2.339 -0.0010 -0.1518 -1.3291
  204MOL0     H26895   3.817   3.943   2.256  0.6010 -1.0929  3.5818
  204MOL0     H26896   3.666   4.095   2.110 -3.1247  0.1505  3.9878
  204MOL0     H26897   3.832   4.156   2.118  0.2295  0.6365 -0.5829
  204MOL0     H26898   3.754   4.316   2.304  1.6565 -0.6683 -1.6255
  204MOL0     H26899   3.591   4.246   2.284  0.5427  1.0578  0.4293
  204MOL0     H26900   3.734   4.439   2.136 -0.7691  1.5153  1.0575
  204MOL0     H26901   3.657   4.316   2.028 -1.3897  0.2137  0.4369
  204MOL0     H26902   3.528   4.510   2.216 -1.1218  0.9896  0.9016
  204MOL0     H26903   3.444   4.374   2.153 -0.1726  1.7980  0.8625
  204MOL0     H26904   3.581   4.602   1.996  1.0481 -0.2894 -2.3728
  204MOL0     H26905   3.408   4.575   2.026  1.5247  0.5326  0.5947
  204MOL0     H26906   3.600   4.443   1.827  2.1616  2.0228 -0.0526
  204MOL0     H26907   3.454   4.365   1.864 -1.5414  0.9573  2.8209
  204MOL0     H26908   3.429   4.497   1.681  0.7781 -2.1412  2.3310
  204MOL0     H26909   3.464   4.657   1.769  1.7897  0.0106 -0.1727
  204MOL0     H26910   3.972   3.835   2.454  3.9391 -3.2331  0.4011
  204MOL0     H26911   4.211   3.792   2.452  2.1944  1.1118  3.1872
  204MOL0     H26912   4.588   3.945   2.609 -0.5184 -1.5818  0.8156
  204MOL0     H26913   4.816   3.937   2.651  2.5432 -0.7204 -0.8284
  204MOL0     H26914   5.055   4.820   3.428  1.8188 -2.6073 -3.3673
  204MOL0     H26915   4.931   5.004   3.504  2.4432  0.6437  0.6681
  204MOL0     H26916   4.769   5.299   3.541 -0.1323 -0.3944 -2.6807
  204MOL0     H26917   4.673   5.507   3.695 -1.2548  1.5368  0.8281
  204MOL0     H26918   4.581   5.844   3.740 -0.4410  0.5354 -0.3555
  204MOL0     H26919   4.689   5.712   3.724  1.3711 -2.7300  3.3826
  204MOL0     H26920   4.423   5.687   3.857 -0.1068  0.1667 -4.7742
  204MOL0     H26921   4.560   5.573   3.872  1.1425  1.6998  1.2248
  204MOL0     H26922   4.704   5.717   4.003  0.3380 -0.7237  4.2522
  204MOL0     H26923   4.555   5.687   4.086 -1.9521  1.3805 -1.0929
  204MOL0     H26924   4.659   5.932   3.964  1.0339 -2.0069 -0.5590
  204MOL0     H26925   4.477   5.910   3.970  0.7759 -3.5008 -0.9597
  204MOL0     H26926   4.539   6.032   4.367 -0.4285  1.2343  0.2526
  204MOL0     H26927   4.419   5.618   3.386 -0.8600  1.4579  3.0910
  204MOL0     H26928   4.490   5.437   3.249 -1.1267  1.2097  0.2032
  205MOL0     O26929   1.377   4.730   5.782  0.4002  0.0268 -0.0794
  205MOL0     C26930   1.341   4.822   5.857 -0.5620  0.1971  0.2015
  205MOL0     O26931   1.215   4.858   5.903  0.1025  0.1464  0.1532
  205MOL0     C26932   1.102   4.788   5.854 -0.2600 -0.5147  0.1862
  205MOL0     C26933   1.097   4.714   5.734  1.0566  1.6578 -0.8543
  205MOL0     C26934   0.972   4.651   5.714  0.0872  0.7269  0.7626
  205MOL0     C26935   0.860   4.670   5.786  0.6481 -0.8750 -0.3325
  205MOL0     O26936   0.741   4.608   5.762 -0.7182 -0.1808 -0.0646
  205MOL0     C26937   0.714   4.591   5.621  0.2415 -0.2416  0.1765
  205MOL0     C26938   0.557   4.589   5.606 -0.3671 -0.0197  0.4164
  205MOL0     C26939   0.503   4.569   5.456  0.2341  1.2080 -0.1587
  205MOL0     C26940   0.526   4.689   5.365  0.0209  0.6343 -1.1594
  205MOL0     C26941   0.463   4.665   5.231 -0.3811  0.6122  1.0404
  205MOL0     C26942   0.547   4.733   5.120 -0.4172  0.2143 -0.0172
  205MOL0     C26943   0.534   4.884   5.132  0.3113 -0.0049  0.6507
  205MOL0     C26944   0.627   4.955   5.027  0.3923 -0.6157 -1.2308
  205MOL0     N26945   0.638   5.095   5.055 -0.4930  0.5015  0.4189
  205MOL0     C26946   0.735   5.181   5.010  0.3926 -0.9881 -0.7655
  205MOL0     C26947   0.688   5.301   5.067 -0.7321  0.0634 -0.5320
  205MOL0     C26948   0.749   5.438   5.066  0.3204  0.1756  0.7423
  205MOL0     C26949   0.883   5.434   5.123 -0.3443 -0.3611 -0.0161
  205MOL0     C26950   0.898   5.350   5.254 -0.3556 -0.8734  1.1732
  205MOL0     C26951   1.040   5.362   5.321 -0.1659  0.2376  0.5028
  205MOL0     O26952   1.041   5.279   5.433  0.7860  0.1664 -0.3194
  205MOL0     C26953   1.056   5.325   5.557  0.0635 -0.4209 -0.2495
  205MOL0     C26954   1.114   5.243   5.649  0.4086 -0.9852  0.6830
  205MOL0     C26955   1.110   5.260   5.787 -0.2894 -0.9530  0.5443
  205MOL0     C26956   1.059   5.381   5.832  0.1753 -0.3427  1.1536
  205MOL0     C26957   1.019   5.393   5.976  0.1850  0.8156 -1.1294
  205MOL0     O26958   1.070   5.298   6.060  0.2890 -0.4090 -0.6046
  205MOL0     C26959   1.063   5.322   6.192  0.0467  0.5711  0.5311
  205MOL0     C26960   1.192   5.316   6.254  1.1554 -0.0803 -0.5632
  205MOL0     C26961   1.196   5.329   6.396  0.8136  0.1527  0.4029
  205MOL0     C26962   1.082   5.341   6.471 -0.3348  0.6257  0.2007
  205MOL0     O26963   1.086   5.357   6.605 -0.5203 -0.8030  0.0778
  205MOL0     C26964   1.040   5.250   6.675  0.2967  0.6827 -0.2352
  205MOL0     C26965   1.128   5.233   6.808  0.3160 -0.4507  0.5668
  205MOL0     C26966   1.085   5.317   6.933  0.6968  1.0214  0.1456
  205MOL0     C26967   1.102   5.465   6.928  0.7258 -0.5392  0.9410
  205MOL0     C26968   1.061   5.532   7.057  0.3336 -0.1097  0.4658
  205MOL0     C26969   1.071   5.684   7.051  0.0631 -0.5792  0.2257
  205MOL0     C26970   0.982   5.746   7.158  0.2233 -0.9465 -0.5724
  205MOL0     C26971   1.007   5.897   7.183 -0.5585 -0.3612  0.0526
  205MOL0    Cl26972   0.851   5.976   7.220 -0.0047 -0.3501 -0.5065
  205MOL0     C26973   0.955   5.329   6.410  0.1791 -0.2572 -0.1823
  205MOL0     C26974   0.947   5.324   6.267  0.5443  0.0666 -0.2665
  205MOL0     O26975   0.948   5.483   6.011  0.1488  0.7611 -0.5025
  205MOL0     C26976   1.019   5.479   5.739  0.5677 -0.2965  0.2654
  205MOL0     C26977   1.002   5.446   5.600  0.1364 -0.7903 -0.3411
  205MOL0     N26978   0.564   5.278   5.124  0.3821 -1.3470  0.0084
  205MOL0     N26979   0.533   5.154   5.114 -0.3272  0.9106  0.5068
  205MOL0     C26980   0.871   4.748   5.902  0.5497  0.4819 -0.2689
  205MOL0     C26981   0.989   4.806   5.929 -0.5202  0.1488 -0.2117
  205MOL0     C26982   1.452   4.907   5.924  0.7033 -0.1117  0.3703
  205MOL0     C26983   1.429   5.048   5.935 -0.5297  0.4627 -0.6603
  205MOL0     C26984   1.506   5.129   6.020 -0.0111  1.0817  0.4838
  205MOL0     C26985   1.624   5.087   6.090 -0.8046  1.0191  0.3919
  205MOL0     O26986   1.699   5.178   6.154  0.6078 -0.7023 -0.0779
  205MOL0     C26987   1.835   5.182   6.115 -0.8356  0.1282  0.9460
  205MOL0     C26988   1.865   5.291   6.003  0.2055  0.1471  0.4751
  205MOL0     C26989   1.814   5.241   5.858  0.3011 -0.8029 -0.7718
  205MOL0     C26990   1.874   5.332   5.755  0.6918 -0.2758 -1.1639
  205MOL0     C26991   1.823   5.266   5.628  0.5150  0.5555 -0.0597
  205MOL0     C26992   1.747   5.204   5.544 -0.2939 -1.2517  0.6838
  205MOL0     C26993   1.651   4.943   6.062 -0.5377 -0.2985  0.4622
  205MOL0     C26994   1.573   4.863   5.976  0.5222 -1.3877 -0.2837
  205MOL0     H26995   1.176   4.692   5.663  1.4363  1.6133 -0.4208
  205MOL0     H26996   0.964   4.586   5.627  0.0285 -1.4365  2.3332
  205MOL0     H26997   0.757   4.496   5.588  3.2357  1.0185  0.1584
  205MOL0     H26998   0.740   4.675   5.555  1.1558  1.9210  3.0898
  205MOL0     H26999   0.522   4.692   5.620 -1.2591  0.1719 -2.4657
  205MOL0     H27000   0.506   4.522   5.675  0.9484 -0.8098  0.6726
  205MOL0     H27001   0.395   4.556   5.465  0.3219 -0.9608 -1.3998
  205MOL0     H27002   0.553   4.481   5.414  0.5362  0.3397  1.8910
  205MOL0     H27003   0.484   4.781   5.408  0.0432  0.7805 -1.4460
  205MOL0     H27004   0.634   4.703   5.360  0.0597  0.4732 -0.7803
  205MOL0     H27005   0.366   4.715   5.231  0.5689  2.5668  0.2566
  205MOL0     H27006   0.450   4.559   5.208  0.9399  0.7816 -0.7370
  205MOL0     H27007   0.502   4.708   5.023  0.7170  3.1838 -1.4320
  205MOL0     H27008   0.650   4.699   5.132 -0.9996 -2.7591 -2.2155
  205MOL0     H27009   0.431   4.917   5.125 -0.3526 -2.0504  0.0616
  205MOL0     H27010   0.562   4.906   5.236 -1.1205 -1.2401  1.3353
  205MOL0     H27011   0.604   4.935   4.922 -2.0493 -3.4618 -0.3041
  205MOL0     H27012   0.726   4.910   5.043  0.3625  0.1603  1.7346
  205MOL0     H27013   0.819   5.172   4.941  0.0125  0.3758 -1.4460
  205MOL0     H27014   0.677   5.505   5.114 -0.9933  0.5936 -1.6537
  205MOL0     H27015   0.751   5.460   4.959  1.2919 -5.2692 -0.6484
  205MOL0     H27016   0.906   5.539   5.145  0.5595 -0.2489 -1.3992
  205MOL0     H27017   0.953   5.406   5.044  2.8471  1.6772  1.8411
  205MOL0     H27018   0.814   5.371   5.321  0.7235  1.7966  1.8188
  205MOL0     H27019   0.886   5.245   5.224  1.8383 -0.4002 -1.8622
  205MOL0     H27020   1.060   5.468   5.343 -1.5954  0.5502  0.3562
  205MOL0     H27021   1.124   5.332   5.257  1.2340 -0.3753  2.5281
  205MOL0     H27022   1.168   5.150   5.629 -1.7478 -2.4851  1.4601
  205MOL0     H27023   1.156   5.191   5.857 -0.1166 -0.1410  1.2478
  205MOL0     H27024   1.279   5.294   6.194 -1.1952 -1.7522 -3.5911
  205MOL0     H27025   1.294   5.339   6.441  1.0388 -0.7280  0.1305
  205MOL0     H27026   1.045   5.154   6.623 -0.9184  1.9384 -2.8684
  205MOL0     H27027   0.934   5.261   6.699  0.0322 -0.2093 -0.9815
  205MOL0     H27028   1.233   5.250   6.786  0.6327 -3.5271 -0.8221
  205MOL0     H27029   1.120   5.126   6.827  4.6571 -0.9022  0.7461
  205MOL0     H27030   1.131   5.274   7.023  1.1610 -1.2648 -1.0982
  205MOL0     H27031   0.977   5.304   6.943  0.8159  1.7786  3.3230
  205MOL0     H27032   1.204   5.499   6.908  0.0444  0.9472 -0.2273
  205MOL0     H27033   1.036   5.489   6.844  0.6902 -0.1028  1.0922
  205MOL0     H27034   1.115   5.496   7.145 -0.0588 -0.6981  0.4719
  205MOL0     H27035   0.956   5.506   7.074  0.1309 -0.4160 -1.1236
  205MOL0     H27036   1.032   5.717   6.955 -2.4227 -1.4255  0.8644
  205MOL0     H27037   1.173   5.712   7.078 -0.6211  1.0336  1.2885
  205MOL0     H27038   0.880   5.731   7.121  1.0232  0.4236 -3.6410
  205MOL0     H27039   0.986   5.689   7.251  5.3855 -0.1138  0.0295
  205MOL0     H27040   1.062   5.958   7.112 -3.0196  1.3503 -0.5048
  205MOL0     H27041   1.063   5.906   7.277 -1.9286 -2.9366  1.2437
  205MOL0     H27042   0.860   5.343   6.461 -0.4479  2.8871 -1.9931
  205MOL0     H27043   0.853   5.328   6.212 -1.2167  0.2233  2.5243
  205MOL0     H27044   0.984   5.575   5.776 -0.2868  0.5269 -2.3843
  205MOL0     H27045   0.948   5.514   5.535 -2.0587  0.2917  2.4423
  205MOL0     H27046   0.780   4.780   5.952 -0.8900  2.7881 -3.8636
  205MOL0     H27047   0.991   4.871   6.015 -1.6887  1.2987 -1.0084
  205MOL0     H27048   1.348   5.105   5.891 -0.2443 -0.1213 -1.9957
  205MOL0     H27049   1.464   5.229   6.028  0.6242  1.7200 -2.8293
  205MOL0     H27050   1.889   5.092   6.087  2.7755  2.8831 -1.9284
  205MOL0     H27051   1.891   5.217   6.203 -2.0486  2.7963  0.7562
  205MOL0     H27052   1.813   5.382   6.034 -1.2402 -0.9368  1.3519
  205MOL0     H27053   1.973   5.307   6.007  0.4445 -0.5019 -1.8252
  205MOL0     H27054   1.706   5.260   5.860  0.4723  0.2493 -0.9702
  205MOL0     H27055   1.836   5.135   5.845  3.0141 -0.4921  0.6455
  205MOL0     H27056   1.841   5.436   5.754  2.5385  0.4100 -4.4429
  205MOL0     H27057   1.982   5.338   5.770  0.6353  0.7432 -1.0989
  205MOL0     H27058   1.674   5.150   5.487 -3.8958  3.4976  0.1501
  205MOL0     H27059   1.743   4.892   6.089  2.1601  2.8751 -1.9318
  205MOL0     H27060   1.611   4.762   5.962  0.1808 -1.8124  1.6349
  206MOL0     O27061   8.925   0.289   2.837 -0.1630 -0.2392  0.0107
  206MOL0     C27062   8.864   0.378   2.903  0.5431  0.4254 -0.6511
  206MOL0     O27063   8.926   0.483   2.971 -0.8611 -0.1733  0.3089
  206MOL0     C27064   9.055   0.524   2.952  0.1443  0.1471  1.6048
  206MOL0     C27065   9.130   0.510   2.833  0.5078  0.5925 -0.0616
  206MOL0     C27066   9.256   0.574   2.823  1.0263  0.5833 -0.7851
  206MOL0     C27067   9.304   0.661   2.926  0.3022  1.1020 -0.3534
  206MOL0     O27068   9.426   0.739   2.920  0.1975  0.1973  0.2133
  206MOL0     C27069   9.497   0.759   2.794 -0.0242  0.8578 -0.5911
  206MOL0     C27070   9.418   0.838   2.687  0.1834 -0.3526  0.6652
  206MOL0     C27071   9.451   0.992   2.691  0.6968 -0.1910 -0.7676
  206MOL0     C27072   9.392   1.066   2.572  1.4824  1.0177  0.5366
  206MOL0     C27073   9.426   1.216   2.571  0.5472  0.2479  0.4713
  206MOL0     C27074   9.424   1.291   2.703 -0.8299  1.0122  1.1473
  206MOL0     C27075   9.288   1.284   2.768  0.1478 -0.0550  0.3625
  206MOL0     C27076   9.265   1.374   2.885  0.8376 -0.3419 -0.1039
  206MOL0     N27077   9.271   1.510   2.846  0.4703 -0.3367 -0.1093
  206MOL0     C27078   9.389   1.585   2.848 -0.2923  1.1656 -0.0525
  206MOL0     C27079   9.352   1.704   2.786 -0.4028  1.0411 -0.8176
  206MOL0     C27080   9.428   1.808   2.733  0.5281 -0.4936  0.1243
  206MOL0     C27081   9.426   1.938   2.821  0.1334  0.8363  0.6973
  206MOL0     C27082   9.521   1.931   2.936  0.1768 -0.1135 -0.0873
  206MOL0     C27083   9.662   1.936   2.903 -0.3381 -0.5983 -0.0570
  206MOL0     O27084   9.746   1.934   3.016  0.9671  0.4726 -0.2335
  206MOL0     C27085   9.875   1.900   3.018 -0.1187 -0.4200  0.2136
  206MOL0     C27086   9.922   1.806   3.113 -0.1414 -0.2036  0.9045
  206MOL0     C27087  10.060   1.791   3.120  0.0888 -0.1613  0.5303
  206MOL0     C27088  10.150   1.843   3.023 -0.2099 -0.1501 -1.2232
  206MOL0     C27089  10.295   1.817   3.045 -0.4981 -0.1523 -0.1721
  206MOL0     O27090  10.341   1.706   3.117 -0.7629 -0.4486 -1.1516
  206MOL0     C27091  10.473   1.693   3.137 -0.4573 -0.6533  0.0153
  206MOL0     C27092  10.566   1.663   3.038  1.2365 -0.7229 -0.6941
  206MOL0     C27093  10.703   1.665   3.054 -0.2417  0.7600 -0.6806
  206MOL0     C27094  10.755   1.683   3.184  0.0839 -0.3509  0.2310
  206MOL0     O27095  10.882   1.641   3.208  0.0888  0.3285  0.4513
  206MOL0     C27096  10.923   1.620   3.342 -0.2395 -0.7389  0.4126
  206MOL0     C27097  10.859   1.503   3.415  0.7396 -0.3310 -0.1840
  206MOL0     C27098  10.881   1.515   3.561  0.3550 -0.1744 -0.5003
  206MOL0     C27099  10.787   1.422   3.648  0.6574  0.8695 -0.8738
  206MOL0     C27100  10.811   1.452   3.795 -0.7855  0.6492 -0.2794
  206MOL0     C27101  10.926   1.377   3.877 -0.3270 -0.5492 -0.0413
  206MOL0     C27102  10.878   1.231   3.905  0.3345 -1.0042 -0.3040
  206MOL0     C27103  10.766   1.212   4.011  0.3662  0.1522  0.3750
  206MOL0    Cl27104  10.801   1.292   4.161 -0.6480  0.6722 -0.0105
  206MOL0     C27105  10.668   1.741   3.280 -0.1824 -0.0968 -0.0294
  206MOL0     C27106  10.529   1.749   3.257 -0.0178  1.1280  0.0764
  206MOL0     O27107  10.370   1.903   2.995 -0.8540 -0.1675 -0.5516
  206MOL0     C27108  10.101   1.934   2.932 -0.4967 -1.0552  0.0166
  206MOL0     C27109   9.959   1.969   2.932 -0.3958  1.1128  0.9299
  206MOL0     N27110   9.215   1.705   2.777 -0.0357 -0.6561  0.8030
  206MOL0     N27111   9.177   1.586   2.804 -0.5858 -0.3421 -0.0924
  206MOL0     C27112   9.217   0.677   3.043 -0.1682 -0.4414  1.2342
  206MOL0     C27113   9.099   0.607   3.050  0.4519  0.2733 -0.1264
  206MOL0     C27114   8.719   0.370   2.913  0.1197  0.7837  0.1665
  206MOL0     C27115   8.660   0.256   2.840 -0.0536  0.0149  0.7123
  206MOL0     C27116   8.523   0.254   2.832  0.8918 -0.6930 -0.8918
  206MOL0     C27117   8.442   0.354   2.890 -0.0884 -0.0620  0.3413
  206MOL0     O27118   8.313   0.378   2.855  1.2420 -0.3861  0.3974
  206MOL0     C27119   8.220   0.266   2.866 -0.0747  0.1498 -0.2626
  206MOL0     C27120   8.081   0.326   2.900  0.0649  1.2734  0.0370
  206MOL0     C27121   8.069   0.395   3.041 -0.0772  0.8390  0.1937
  206MOL0     C27122   7.922   0.449   3.045  0.7083 -0.1956 -1.1727
  206MOL0     C27123   7.821   0.346   3.088 -0.5467  1.6279 -0.5477
  206MOL0     C27124   7.724   0.258   3.089  0.2293 -0.6067 -0.2475
  206MOL0     C27125   8.503   0.446   2.969 -0.8965 -1.2759 -0.3991
  206MOL0     C27126   8.646   0.447   2.999  0.1437 -0.0072 -0.6775
  206MOL0     H27127   9.086   0.454   2.752 -0.8001  0.8463  0.4567
  206MOL0     H27128   9.310   0.558   2.730  2.2682 -2.8349  0.3585
  206MOL0     H27129   9.528   0.663   2.751  1.9807  2.7200 -3.7049
  206MOL0     H27130   9.589   0.815   2.816  2.4156 -2.2901 -1.9111
  206MOL0     H27131   9.311   0.816   2.695 -0.4721  2.1875 -0.0034
  206MOL0     H27132   9.442   0.816   2.583  2.1407  2.1303  0.4843
  206MOL0     H27133   9.558   1.015   2.685  0.2668  1.9566 -1.0137
  206MOL0     H27134   9.426   1.026   2.792  3.2681  0.6295 -0.3175
  206MOL0     H27135   9.411   1.024   2.473 -0.5236  1.9557 -0.3114
  206MOL0     H27136   9.283   1.068   2.576  1.3768  2.9315 -1.3436
  206MOL0     H27137   9.365   1.256   2.490  2.4607  1.9622 -0.2092
  206MOL0     H27138   9.527   1.211   2.530  0.6666  2.2377  0.3892
  206MOL0     H27139   9.457   1.393   2.680 -0.0074  0.5334  0.1535
  206MOL0     H27140   9.495   1.242   2.771  0.6896 -0.5009 -1.3937
  206MOL0     H27141   9.216   1.302   2.688  1.2842  0.1740 -0.6418
  206MOL0     H27142   9.274   1.185   2.813  1.8295  0.0321  1.1933
  206MOL0     H27143   9.334   1.354   2.968  1.1820  1.7157  0.1558
  206MOL0     H27144   9.160   1.360   2.912  0.2493 -1.4279 -2.6167
  206MOL0     H27145   9.488   1.549   2.873 -0.7492  0.1480  0.3496
  206MOL0     H27146   9.372   1.843   2.646  1.8425 -1.7552 -1.3018
  206MOL0     H27147   9.525   1.772   2.699 -2.1957 -4.7520 -4.5749
  206MOL0     H27148   9.324   1.965   2.850 -0.9928  2.1195 -3.5732
  206MOL0     H27149   9.443   2.022   2.752 -5.1178  1.3814 -0.3452
  206MOL0     H27150   9.494   2.010   3.007 -1.6204 -0.5881 -0.1974
  206MOL0     H27151   9.503   1.837   2.991 -0.5332 -0.0579 -0.2147
  206MOL0     H27152   9.688   2.029   2.851 -1.1038 -0.3617 -0.0219
  206MOL0     H27153   9.695   1.850   2.842  2.6608 -0.6863  1.5087
  206MOL0     H27154   9.862   1.746   3.179 -0.2555 -2.7803 -1.3693
  206MOL0     H27155  10.101   1.730   3.199 -0.4510 -1.4438 -0.1466
  206MOL0     H27156  10.534   1.643   2.936  0.8048 -2.0229 -0.3187
  206MOL0     H27157  10.768   1.631   2.975 -1.3199  0.1836 -1.3409
  206MOL0     H27158  10.909   1.717   3.391 -2.9451  0.6851 -2.7666
  206MOL0     H27159  11.032   1.615   3.351  0.2319  2.7293 -1.4006
  206MOL0     H27160  10.904   1.407   3.384  1.4805  0.0655 -0.3688
  206MOL0     H27161  10.752   1.494   3.396  1.0186 -0.9469 -1.6624
  206MOL0     H27162  10.851   1.615   3.593  2.9220 -0.0765  1.9432
  206MOL0     H27163  10.985   1.495   3.586  1.1787  0.2981 -3.3090
  206MOL0     H27164  10.680   1.445   3.643  0.1345 -1.1536  0.1779
  206MOL0     H27165  10.788   1.314   3.631 -2.9262  0.5308  0.3497
  206MOL0     H27166  10.723   1.439   3.857  0.7938 -3.2862  1.4492
  206MOL0     H27167  10.839   1.557   3.808  0.2263  0.3393  0.2118
  206MOL0     H27168  10.931   1.432   3.972 -0.9512  2.3290 -1.5662
  206MOL0     H27169  11.027   1.371   3.835 -0.0971 -1.2250  0.5770
  206MOL0     H27170  10.851   1.178   3.814  1.5705  1.2629 -2.0856
  206MOL0     H27171  10.961   1.180   3.954 -0.1939 -0.5357  1.1384
  206MOL0     H27172  10.755   1.105   4.031  4.2784  0.0403  2.9923
  206MOL0     H27173  10.674   1.255   3.969 -0.3464 -2.1479 -0.6115
  206MOL0     H27174  10.700   1.758   3.382 -1.2102  0.4016  0.2241
  206MOL0     H27175  10.469   1.785   3.340 -0.5336 -3.4449  1.9301
  206MOL0     H27176  10.178   1.970   2.865 -0.8361  0.8187  0.6036
  206MOL0     H27177   9.907   2.031   2.860 -2.2192 -0.9204  0.3838
  206MOL0     H27178   9.253   0.739   3.124  4.3821 -1.2318  0.1209
  206MOL0     H27179   9.028   0.617   3.132 -0.6511  1.1728 -1.1588
  206MOL0     H27180   8.705   0.181   2.777 -4.6172  0.0257 -3.1002
  206MOL0     H27181   8.481   0.169   2.780 -0.2380  2.0237 -4.9478
  206MOL0     H27182   8.254   0.187   2.935  0.9916  1.5724  0.9207
  206MOL0     H27183   8.203   0.219   2.769 -0.6746 -0.5026  0.1465
  206MOL0     H27184   8.046   0.409   2.837  2.2509  1.4142 -1.0672
  206MOL0     H27185   8.011   0.245   2.878 -2.3025  3.7977 -2.7914
  206MOL0     H27186   8.144   0.476   3.046  1.3798 -0.4464  0.0052
  206MOL0     H27187   8.081   0.321   3.121 -1.8969  0.6067  0.2778
  206MOL0     H27188   7.925   0.520   3.128  4.7139  0.6080 -1.8191
  206MOL0     H27189   7.890   0.506   2.957 -0.9480  1.3969  0.3721
  206MOL0     H27190   7.642   0.190   3.095 -1.1101  0.9595  0.1713
  206MOL0     H27191   8.454   0.532   3.015 -0.9937 -2.2634  1.4221
  206MOL0     H27192   8.695   0.523   3.059 -0.5530  0.4699 -0.7085
  207MOL0     O27193   9.939   1.559   4.117 -0.3790 -0.1025 -0.3154
  207MOL0     C27194  10.020   1.512   4.201 -0.1119  0.4158  0.9343
  207MOL0     O27195  10.017   1.387   4.268 -0.5740  0.1964  0.0021
  207MOL0     C27196   9.919   1.295   4.238 -0.6130 -0.3118 -0.1165
  207MOL0     C27197   9.887   1.266   4.104  0.5213 -0.0891 -0.4149
  207MOL0     C27198   9.804   1.166   4.070  0.1474 -1.1004  0.0322
  207MOL0     C27199   9.744   1.086   4.176  0.3620 -0.3189 -0.0277
  207MOL0     O27200   9.659   0.986   4.138 -0.6104 -0.9356 -0.1360
  207MOL0     C27201   9.645   0.865   4.204 -0.2536 -0.0019  0.7062
  207MOL0     C27202   9.779   0.795   4.213 -0.6845  0.7918 -0.5491
  207MOL0     C27203   9.765   0.652   4.289  0.1383  0.3297 -0.6401
  207MOL0     C27204   9.681   0.541   4.218  0.3189  0.4204  0.2826
  207MOL0     C27205   9.721   0.398   4.247  0.5635 -0.8559  1.4817
  207MOL0     C27206   9.660   0.349   4.376  0.3985  0.8852 -0.2670
  207MOL0     C27207   9.682   0.188   4.384  0.6415 -0.2308 -0.2791
  207MOL0     C27208   9.588   0.126   4.500 -0.0845  0.7965 -0.3570
  207MOL0     N27209   9.449   0.155   4.476  0.0927 -0.5306  0.2178
  207MOL0     C27210   9.382   0.106   4.368 -0.0988  0.0117  0.6680
  207MOL0     C27211   9.271   0.173   4.354 -0.4655 -0.3484  0.3629
  207MOL0     C27212   9.198   0.137   4.231  0.9662 -0.8151  0.4286
  207MOL0     C27213   9.094   0.023   4.259 -0.2274 -0.6188 -0.6803
  207MOL0     C27214   8.992   0.058   4.375 -0.6374  1.1713 -0.2540
  207MOL0     C27215   8.848  -0.001   4.350 -0.1482 -0.0746  0.0965
  207MOL0     O27216   8.755   0.034   4.453 -0.0720  0.1728 -0.2236
  207MOL0     C27217   8.670  -0.061   4.496  0.7876  0.9081  0.5517
  207MOL0     C27218   8.703  -0.116   4.619 -0.4471  0.8019 -0.6358
  207MOL0     C27219   8.619  -0.204   4.683  0.1537  0.1645  0.1668
  207MOL0     C27220   8.491  -0.233   4.632  0.1677  0.7198 -0.1250
  207MOL0     C27221   8.400  -0.332   4.700 -0.1954 -0.0875 -0.1410
  207MOL0     O27222   8.457  -0.380   4.818  0.3368  0.5180  0.4407
  207MOL0     C27223   8.371  -0.400   4.923 -0.2851  0.6435  0.4366
  207MOL0     C27224   8.235  -0.362   4.931  0.6470  0.3749  0.1998
  207MOL0     C27225   8.157  -0.407   5.037  0.3743  0.6001  0.7373
  207MOL0     C27226   8.214  -0.485   5.131 -0.3540 -1.3704 -0.3552
  207MOL0     O27227   8.129  -0.522   5.234 -0.9387  0.5776 -0.8637
  207MOL0     C27228   8.132  -0.672   5.256 -0.5147 -0.2534 -0.3189
  207MOL0     C27229   8.104  -0.694   5.413  0.0460 -0.7189 -0.6777
  207MOL0     C27230   8.085  -0.836   5.465  0.0106 -0.2375  0.0567
  207MOL0     C27231   8.223  -0.909   5.465  0.0334 -0.1527 -0.5179
  207MOL0     C27232   8.231  -1.028   5.557  0.0501  0.0999  0.2878
  207MOL0     C27233   8.153  -1.152   5.508  0.2820 -0.2573  0.6922
  207MOL0     C27234   8.208  -1.279   5.583  0.9978 -1.1099 -0.0837
  207MOL0     C27235   8.107  -1.328   5.685 -1.5380 -0.3836  0.5046
  207MOL0    Cl27236   8.173  -1.481   5.744 -0.2468  0.0097 -0.1412
  207MOL0     C27237   8.347  -0.503   5.135 -0.1007  0.9930  0.2499
  207MOL0     C27238   8.428  -0.466   5.024  0.5622 -0.1084 -0.1651
  207MOL0     O27239   8.302  -0.378   4.647  0.1888 -0.7875  0.6868
  207MOL0     C27240   8.457  -0.176   4.502 -0.3316  0.2972 -0.1913
  207MOL0     C27241   8.548  -0.100   4.434  0.1025 -0.0297  0.1504
  207MOL0     N27242   9.261   0.270   4.463  0.1161 -0.1097  0.8906
  207MOL0     N27243   9.370   0.252   4.531 -0.7232 -0.0857  0.6514
  207MOL0     C27244   9.764   1.115   4.306  0.6116  0.5304 -0.3222
  207MOL0     C27245   9.860   1.220   4.341  0.7582 -1.3067  0.3798
  207MOL0     C27246  10.129   1.610   4.240 -0.0636  0.2570 -0.3638
  207MOL0     C27247  10.154   1.731   4.165  0.3473  0.9603  0.3691
  207MOL0     C27248  10.238   1.828   4.215 -0.1037 -0.5794  0.1061
  207MOL0     C27249  10.310   1.817   4.331 -1.1647 -0.0037  0.6478
  207MOL0     O27250  10.398   1.908   4.352 -0.5560 -0.2569 -0.0566
  207MOL0     C27251  10.482   1.898   4.471 -0.5642  0.0177  0.1103
  207MOL0     C27252  10.536   2.038   4.514  0.0570 -0.2221 -0.4332
  207MOL0     C27253  10.648   2.096   4.427 -0.2529 -0.1311 -0.0197
  207MOL0     C27254  10.711   2.218   4.483 -0.0219  0.0151 -0.4681
  207MOL0     C27255  10.815   2.196   4.581 -0.3753  0.2167  0.2324
  207MOL0     C27256  10.894   2.158   4.670 -0.1570 -0.2687  0.0107
  207MOL0     C27257  10.286   1.705   4.414 -0.3344  0.2361  0.0865
  207MOL0     C27258  10.194   1.610   4.364  0.7744  0.3948  0.2943
  207MOL0     H27259   9.935   1.323   4.025  3.8641 -3.2619 -0.9775
  207MOL0     H27260   9.791   1.165   3.962  3.6591  1.4191 -0.5664
  207MOL0     H27261   9.579   0.798   4.149  0.9792  0.5725 -1.6325
  207MOL0     H27262   9.602   0.882   4.303 -3.7647  0.4635 -0.7291
  207MOL0     H27263   9.852   0.854   4.269 -0.9257 -1.1448  1.9828
  207MOL0     H27264   9.824   0.776   4.115 -0.2612  0.7291 -0.3449
  207MOL0     H27265   9.715   0.670   4.385 -2.2063 -0.5856 -1.6329
  207MOL0     H27266   9.864   0.609   4.308 -0.6984 -1.3422  0.1468
  207MOL0     H27267   9.580   0.575   4.240  0.2180 -1.1165  2.4330
  207MOL0     H27268   9.700   0.553   4.111 -2.9909 -0.5968 -0.5399
  207MOL0     H27269   9.830   0.391   4.247  0.7741  1.5809  1.1993
  207MOL0     H27270   9.677   0.351   4.158 -1.4906  2.7873  0.3514
  207MOL0     H27271   9.553   0.365   4.392  0.3871 -0.7332  1.6917
  207MOL0     H27272   9.711   0.395   4.462  1.7185  0.3313 -0.7331
  207MOL0     H27273   9.656   0.136   4.291 -1.1925 -0.1846  0.1731
  207MOL0     H27274   9.786   0.172   4.416  1.0420  2.2703 -0.1460
  207MOL0     H27275   9.614   0.180   4.591 -1.6057  2.1039 -0.6577
  207MOL0     H27276   9.600   0.018   4.516 -2.2907  0.7988  2.0056
  207MOL0     H27277   9.417   0.022   4.309  1.3434  0.4727  0.8196
  207MOL0     H27278   9.268   0.109   4.152  0.7194 -5.4342  1.5630
  207MOL0     H27279   9.137   0.227   4.213 -0.1042 -1.8443 -1.3265
  207MOL0     H27280   9.135  -0.074   4.288  0.6526  0.3004  1.3102
  207MOL0     H27281   9.042   0.010   4.164 -3.1798  1.6088  0.4479
  207MOL0     H27282   9.024   0.024   4.474 -0.1605  3.5757  0.4815
  207MOL0     H27283   8.975   0.166   4.386  1.6894  1.6454 -0.8555
  207MOL0     H27284   8.861  -0.108   4.335 -0.2030 -0.0561 -0.0898
  207MOL0     H27285   8.814   0.047   4.257  1.0468  0.1732 -0.2406
  207MOL0     H27286   8.800  -0.091   4.659  0.4529 -3.3551  0.1921
  207MOL0     H27287   8.641  -0.249   4.780  0.3613 -0.1003 -0.0006
  207MOL0     H27288   8.184  -0.302   4.856 -1.8171 -3.4181 -1.4972
  207MOL0     H27289   8.051  -0.392   5.054  0.6359  0.8992  2.1946
  207MOL0     H27290   8.225  -0.721   5.227  0.5636 -0.3818  2.9236
  207MOL0     H27291   8.049  -0.719   5.202 -1.8963  0.4478  1.0801
  207MOL0     H27292   8.009  -0.645   5.434 -0.5601 -2.5169  1.0035
  207MOL0     H27293   8.181  -0.644   5.472  0.2793 -0.4221 -1.2238
  207MOL0     H27294   8.025  -0.903   5.403  0.8519  0.5106 -1.6157
  207MOL0     H27295   8.039  -0.828   5.564 -0.1330  3.2399 -0.1597
  207MOL0     H27296   8.250  -0.937   5.363 -2.0622 -2.1838 -0.5915
  207MOL0     H27297   8.300  -0.840   5.500  0.4005 -0.8677  0.1016
  207MOL0     H27298   8.188  -1.000   5.654 -1.7594 -1.9282  0.1562
  207MOL0     H27299   8.335  -1.061   5.568  0.0553 -0.0168 -0.1138
  207MOL0     H27300   8.155  -1.174   5.401 -1.7801  1.1955  0.2900
  207MOL0     H27301   8.046  -1.147   5.525  0.0921 -2.5562  0.5388
  207MOL0     H27302   8.234  -1.365   5.520 -0.3996 -1.4561 -0.2254
  207MOL0     H27303   8.301  -1.257   5.636  1.2707  3.0763 -1.9461
  207MOL0     H27304   8.010  -1.344   5.636  0.0549 -2.2683 -2.3378
  207MOL0     H27305   8.090  -1.253   5.763  1.9283  1.5639 -0.3888
  207MOL0     H27306   8.399  -0.572   5.202  0.3266  1.9823  0.9578
  207MOL0     H27307   8.533  -0.488   5.013 -0.0754 -2.8297 -1.7298
  207MOL0     H27308   8.367  -0.213   4.455 -0.7832  2.0953 -0.8289
  207MOL0     H27309   8.527  -0.059   4.336 -0.3529 -2.4769 -0.8340
  207MOL0     H27310   9.708   1.052   4.374 -1.6663  1.9833 -0.7267
  207MOL0     H27311   9.880   1.241   4.446  1.1623 -0.4690  0.1438
  207MOL0     H27312  10.094   1.767   4.081  2.0938  4.3154  0.3705
  207MOL0     H27313  10.231   1.929   4.174 -1.8305  0.3979  2.5331
  207MOL0     H27314  10.567   1.833   4.454 -0.8079  0.1590 -1.8334
  207MOL0     H27315  10.427   1.864   4.560  2.1206  1.3423  2.4561
  207MOL0     H27316  10.451   2.106   4.527 -0.3821 -0.5948 -1.2252
  207MOL0     H27317  10.576   2.015   4.613  1.1932 -1.5917 -1.1644
  207MOL0     H27318  10.601   2.134   4.336 -1.1873 -0.3047  0.3815
  207MOL0     H27319  10.721   2.021   4.395 -1.0976 -0.9737 -0.0040
  207MOL0     H27320  10.756   2.268   4.397  1.0093 -1.0009 -0.5400
  207MOL0     H27321  10.637   2.281   4.531  1.2076  1.7801 -0.8104
  207MOL0     H27322  10.963   2.122   4.744  0.4732  1.2644  0.2028
  207MOL0     H27323  10.337   1.692   4.509  2.1070 -0.0152 -1.1734
  207MOL0     H27324  10.155   1.536   4.434 -2.8232  1.6151 -0.2067
  208MOL0     O27325   6.990  11.069   3.176 -0.4731 -0.0440  0.0039
  208MOL0     C27326   6.978  11.137   3.276  0.8308  0.2429 -0.7089
  208MOL0     O27327   6.865  11.203   3.319  0.3187  0.2373  0.4721
  208MOL0     C27328   6.765  11.213   3.227  0.2213  0.9325 -1.0402
  208MOL0     C27329   6.635  11.192   3.267  0.1353 -1.1275 -0.8125
  208MOL0     C27330   6.520  11.201   3.177  0.1001  0.9479 -0.7788
  208MOL0     C27331   6.543  11.245   3.046 -0.5247 -0.4495 -0.4908
  208MOL0     O27332   6.454  11.256   2.947  0.3465 -0.0189  0.2070
  208MOL0     C27333   6.316  11.232   2.978  0.6529 -0.0840  0.0010
  208MOL0     C27334   6.238  11.242   2.857  0.1038 -0.7300  0.5816
  208MOL0     C27335   6.094  11.250   2.875 -0.5010  0.0402 -0.2906
  208MOL0     C27336   6.024  11.260   2.736  1.1967  0.1615  0.0507
  208MOL0     C27337   5.883  11.205   2.736 -0.6929  0.1805 -0.4715
  208MOL0     C27338   5.781  11.296   2.794 -0.2581  0.1285 -0.6440
  208MOL0     C27339   5.741  11.419   2.723  0.2434 -0.2422  1.0888
  208MOL0     C27340   5.641  11.504   2.806 -0.3920 -0.6499  0.6281
  208MOL0     N27341   5.716  11.599   2.889 -1.4997 -0.6330 -0.8056
  208MOL0     C27342   5.734  11.729   2.859  0.1500 -0.3252 -0.0232
  208MOL0     C27343   5.808  11.777   2.965  0.2883 -0.0543  0.6446
  208MOL0     C27344   5.851  11.915   2.990  0.3162  0.4188 -0.7689
  208MOL0     C27345   5.956  11.934   3.099  0.6651 -0.2364  1.0889
  208MOL0     C27346   5.970  12.081   3.114  0.1427  0.0982  0.1835
  208MOL0     C27347   6.075  12.116   3.216  0.9163 -1.1804 -0.5069
  208MOL0     O27348   6.036  12.073   3.346  0.7549 -0.2553  0.0539
  208MOL0     C27349   6.138  12.040   3.437  0.1502 -0.1739  0.5148
  208MOL0     C27350   6.278  12.040   3.416 -0.5644  0.2526  0.5236
  208MOL0     C27351   6.357  11.978   3.521 -0.8193 -0.0892 -0.8304
  208MOL0     C27352   6.307  11.947   3.644  0.5192  0.9751 -0.6196
  208MOL0     C27353   6.386  11.896   3.747  0.9503 -0.1817  0.2820
  208MOL0     O27354   6.320  11.836   3.848 -0.4488  0.6859 -0.4257
  208MOL0     C27355   6.398  11.767   3.943 -0.0675  0.1565  0.2259
  208MOL0     C27356   6.508  11.694   3.921 -0.6583  0.5213  0.8106
  208MOL0     C27357   6.578  11.639   4.025  0.6507  0.3551 -0.2631
  208MOL0     C27358   6.528  11.654   4.159  0.1323 -0.5220  1.1635
  208MOL0     O27359   6.594  11.578   4.260  0.0556 -0.3172 -0.6003
  208MOL0     C27360   6.743  11.583   4.260 -0.9559 -1.2343  0.5401
  208MOL0     C27361   6.803  11.726   4.295 -0.5192  0.3843 -0.0379
  208MOL0     C27362   6.812  11.738   4.454 -0.7688  0.3993  0.5030
  208MOL0     C27363   6.908  11.858   4.475 -0.1280  0.9477 -0.7150
  208MOL0     C27364   6.950  11.875   4.628  0.9879 -0.2384  0.5806
  208MOL0     C27365   6.996  12.015   4.675 -0.7143  0.5988  0.3507
  208MOL0     C27366   7.005  12.017   4.828 -0.7666 -1.0905  0.4463
  208MOL0     C27367   6.990  12.156   4.882 -0.4242 -0.4077  0.1745
  208MOL0    Cl27368   6.827  12.206   4.842  0.1623 -0.3670 -0.7731
  208MOL0     C27369   6.410  11.724   4.189  0.5625  0.2603  0.8945
  208MOL0     C27370   6.354  11.781   4.076  1.1230  0.6097  0.6822
  208MOL0     O27371   6.509  11.924   3.745  0.4080 -0.5672 -0.1589
  208MOL0     C27372   6.171  11.962   3.656 -0.8524  1.0785 -0.2659
  208MOL0     C27373   6.088  11.993   3.552 -0.2359 -0.4641  0.1940
  208MOL0     N27374   5.830  11.671   3.056  0.3536  0.0941 -1.1931
  208MOL0     N27375   5.775  11.567   3.009 -0.9676  0.5410 -0.0268
  208MOL0     C27376   6.670  11.284   3.013 -0.5610 -0.5965  0.4430
  208MOL0     C27377   6.777  11.264   3.102  0.3220 -0.6461 -0.4353
  208MOL0     C27378   7.090  11.120   3.378  0.1838 -0.0586 -0.3861
  208MOL0     C27379   7.079  11.164   3.509 -0.3371 -0.4215 -0.9178
  208MOL0     C27380   7.172  11.132   3.607 -0.3337  0.0761  0.2333
  208MOL0     C27381   7.294  11.067   3.571  0.7777 -0.0036  0.5150
  208MOL0     O27382   7.401  11.038   3.659  0.6896  1.2086  0.5259
  208MOL0     C27383   7.409  11.073   3.794 -0.3551  0.2540  0.0974
  208MOL0     C27384   7.308  10.983   3.861 -0.2165  0.8553 -0.3461
  208MOL0     C27385   7.355  10.840   3.874 -0.4987 -0.0016  0.7376
  208MOL0     C27386   7.257  10.764   3.968  0.2215 -0.2018 -0.2968
  208MOL0     C27387   7.314  10.624   3.975  0.9079  0.2099 -0.1296
  208MOL0     C27388   7.347  10.505   3.979  0.1048  0.0046  0.1769
  208MOL0     C27389   7.304  11.019   3.439 -0.1658 -0.1968  0.2831
  208MOL0     C27390   7.201  11.041   3.343 -0.3775  0.2814 -0.6428
  208MOL0     H27391   6.609  11.150   3.363  5.0330  0.7915  1.7476
  208MOL0     H27392   6.423  11.163   3.208  1.8683 -1.9602  1.8259
  208MOL0     H27393   6.272  11.307   3.044 -0.4876 -0.8496  0.1392
  208MOL0     H27394   6.300  11.136   3.028 -1.8843 -0.1831 -0.8371
  208MOL0     H27395   6.256  11.160   2.787 -3.2694 -1.8960  0.8628
  208MOL0     H27396   6.282  11.326   2.802  0.5300  0.0826  2.1173
  208MOL0     H27397   6.072  11.345   2.924  0.2825  0.4922 -0.7916
  208MOL0     H27398   6.073  11.163   2.938  3.6387 -1.1794 -0.3043
  208MOL0     H27399   6.021  11.365   2.704 -4.5325  0.0985 -0.6576
  208MOL0     H27400   6.079  11.205   2.659 -2.0270  1.3629 -3.4438
  208MOL0     H27401   5.898  11.108   2.785 -2.0464 -1.3000 -2.7741
  208MOL0     H27402   5.862  11.182   2.631 -2.4714 -0.8564  0.0610
  208MOL0     H27403   5.815  11.326   2.893  1.7915 -0.3554 -1.1478
  208MOL0     H27404   5.698  11.225   2.802 -1.8269  2.0252  0.6949
  208MOL0     H27405   5.826  11.482   2.694  0.4479 -1.4160 -1.1265
  208MOL0     H27406   5.696  11.386   2.629  2.5095 -0.6429  0.0586
  208MOL0     H27407   5.576  11.441   2.867 -0.2938 -2.3303 -0.9009
  208MOL0     H27408   5.574  11.555   2.736 -0.5886  0.1678  1.3987
  208MOL0     H27409   5.703  11.767   2.763  1.5986 -1.4426 -0.9749
  208MOL0     H27410   5.766  11.975   3.021  1.2346  0.7132  1.3340
  208MOL0     H27411   5.881  11.949   2.890 -2.6772  0.9885 -1.5814
  208MOL0     H27412   6.049  11.892   3.059 -0.4381 -1.9605  0.1644
  208MOL0     H27413   5.939  11.886   3.196  3.4417 -2.8684  0.4330
  208MOL0     H27414   5.996  12.122   3.017 -0.0824  4.1609  1.6300
  208MOL0     H27415   5.874  12.122   3.150 -1.2639 -3.3162  0.6904
  208MOL0     H27416   6.082  12.224   3.228 -0.0022 -1.3638  2.2568
  208MOL0     H27417   6.177  12.081   3.197  1.6408  0.0279  0.9418
  208MOL0     H27418   6.334  12.082   3.333 -0.0283 -2.3935 -0.5430
  208MOL0     H27419   6.465  11.981   3.517 -0.8424  0.8685 -1.0044
  208MOL0     H27420   6.546  11.680   3.820  1.4653 -3.9165  1.9526
  208MOL0     H27421   6.649  11.560   4.002 -1.2524 -1.9214  1.2616
  208MOL0     H27422   6.779  11.548   4.163 -3.6782 -0.4556 -0.8522
  208MOL0     H27423   6.779  11.510   4.333  1.3177  0.6043  1.3798
  208MOL0     H27424   6.751  11.808   4.245  1.7694  1.6100 -0.5589
  208MOL0     H27425   6.904  11.708   4.256 -1.1714 -1.4095 -1.0057
  208MOL0     H27426   6.849  11.640   4.487 -2.9717 -1.2171 -1.5547
  208MOL0     H27427   6.712  11.752   4.494 -0.1869 -0.5386  2.4283
  208MOL0     H27428   6.995  11.844   4.410  0.4912  1.0740  0.0762
  208MOL0     H27429   6.862  11.950   4.438  0.1075  1.2924 -0.1514
  208MOL0     H27430   7.025  11.799   4.652  0.0630 -1.4874 -0.3482
  208MOL0     H27431   6.864  11.856   4.694 -0.3456  2.5503 -0.2163
  208MOL0     H27432   6.930  12.088   4.627  0.4242  0.3892 -1.6602
  208MOL0     H27433   7.100  12.026   4.642 -0.2185 -1.6355  1.0152
  208MOL0     H27434   6.940  11.946   4.879  0.8281 -2.2667  0.9156
  208MOL0     H27435   7.101  11.974   4.857 -1.6797 -2.5577  1.3685
  208MOL0     H27436   7.075  12.216   4.852  1.9058 -3.7328 -0.4861
  208MOL0     H27437   6.996  12.181   4.988  4.9008 -2.0875  0.5337
  208MOL0     H27438   6.377  11.740   4.291  3.5470  0.3076  1.9508
  208MOL0     H27439   6.257  11.824   4.098 -0.3062 -0.7879 -2.3135
  208MOL0     H27440   6.117  11.918   3.740  1.0571 -1.4926 -0.2622
  208MOL0     H27441   5.981  11.976   3.560 -0.0895 -1.4964  0.0706
  208MOL0     H27442   6.681  11.327   2.914  1.4497 -1.8425  0.0603
  208MOL0     H27443   6.874  11.303   3.072 -2.0730  4.2174 -3.0828
  208MOL0     H27444   6.995  11.225   3.541  0.9443  0.8201  0.2364
  208MOL0     H27445   7.166  11.170   3.709 -0.6095 -1.6268  0.8836
  208MOL0     H27446   7.376  11.177   3.801 -2.1825 -0.3535  1.2447
  208MOL0     H27447   7.512  11.062   3.828  0.2069  0.8886 -1.2841
  208MOL0     H27448   7.287  11.028   3.958  0.5313  3.7263 -1.4340
  208MOL0     H27449   7.217  10.979   3.800  1.0342 -1.7482 -2.2711
  208MOL0     H27450   7.451  10.838   3.926  0.1168  2.2616 -0.1722
  208MOL0     H27451   7.345  10.800   3.773  1.2571 -0.2648  0.6513
  208MOL0     H27452   7.240  10.804   4.068  2.0180  0.2033 -0.1107
  208MOL0     H27453   7.161  10.769   3.916  1.5329  1.8857 -2.7523
  208MOL0     H27454   7.356  10.399   3.993 -2.1312  0.0154  2.4983
  208MOL0     H27455   7.397  10.977   3.401 -0.3771 -0.7036  0.3102
  208MOL0     H27456   7.216  10.989   3.248 -0.8657 -2.5974  0.7550
  209MOL0     O27457   6.556   1.190   5.728  0.7996 -0.6567 -0.3001
  209MOL0     C27458   6.668   1.163   5.752  0.0597 -0.0545 -0.0647
  209MOL0     O27459   6.774   1.179   5.670 -0.0461  0.5219  0.0704
  209MOL0     C27460   6.759   1.248   5.554  0.5445 -1.2162 -0.1990
  209MOL0     C27461   6.713   1.391   5.541 -0.0368  0.3961 -0.5091
  209MOL0     C27462   6.714   1.458   5.416  0.2184  0.0201 -0.5036
  209MOL0     C27463   6.742   1.386   5.300 -0.0418 -0.7739 -0.4628
  209MOL0     O27464   6.725   1.450   5.177 -0.7619 -0.1887 -0.1109
  209MOL0     C27465   6.767   1.382   5.053  0.5692 -0.4185 -0.0036
  209MOL0     C27466   6.790   1.475   4.941  0.1805  0.3478  0.5957
  209MOL0     C27467   6.912   1.558   4.960  0.4448  0.2791 -1.2084
  209MOL0     C27468   6.893   1.665   5.067  0.3257 -0.6836  0.1701
  209MOL0     C27469   7.023   1.753   5.079  0.7317  0.9572 -0.6701
  209MOL0     C27470   6.995   1.866   5.172  0.2862 -1.0461 -0.0121
  209MOL0     C27471   7.108   1.963   5.214 -0.4445  0.8350  0.0599
  209MOL0     C27472   7.146   1.923   5.345  0.5415 -0.0758 -0.8303
  209MOL0     N27473   7.271   1.990   5.388  0.4235 -0.7450 -0.1249
  209MOL0     C27474   7.394   1.940   5.408  0.3194 -0.1541 -0.5244
  209MOL0     C27475   7.475   2.046   5.444 -0.7143  0.3003 -0.6340
  209MOL0     C27476   7.614   2.034   5.480 -0.4617 -0.5909  0.2218
  209MOL0     C27477   7.700   2.129   5.400 -0.2583  0.0392  0.1491
  209MOL0     C27478   7.859   2.117   5.413  0.6143 -1.1526 -0.5161
  209MOL0     C27479   7.925   2.236   5.348  1.0498 -0.8304  0.0350
  209MOL0     O27480   8.068   2.213   5.357  0.0048  1.0050 -0.5167
  209MOL0     C27481   8.153   2.304   5.305 -0.2077  0.2604  0.4852
  209MOL0     C27482   8.191   2.414   5.377  0.4315  1.0054 -0.3780
  209MOL0     C27483   8.272   2.512   5.326  0.5167  0.1857 -0.7435
  209MOL0     C27484   8.325   2.501   5.200 -0.0875 -0.2040  1.0073
  209MOL0     C27485   8.423   2.600   5.155  0.7257 -0.6725  0.2856
  209MOL0     O27486   8.458   2.708   5.232  1.0848  0.0503 -0.0762
  209MOL0     C27487   8.518   2.808   5.160 -0.3611  1.2427 -0.0742
  209MOL0     C27488   8.473   2.867   5.039  0.5368 -0.3500  0.6461
  209MOL0     C27489   8.552   2.965   4.973 -0.1304 -0.2790  0.3322
  209MOL0     C27490   8.679   2.998   5.022 -0.7057  0.4804 -0.7301
  209MOL0     O27491   8.761   3.088   4.953  0.5418  0.4319 -0.1691
  209MOL0     C27492   8.708   3.223   4.942  0.6628  0.8353  0.3353
  209MOL0     C27493   8.747   3.328   5.040  0.4723 -0.8509  0.5555
  209MOL0     C27494   8.899   3.357   5.039 -0.6491  0.8092  0.0799
  209MOL0     C27495   8.932   3.497   5.084 -0.4375  0.7658  0.0813
  209MOL0     C27496   8.873   3.539   5.213  0.3720  0.0756  0.4262
  209MOL0     C27497   8.951   3.655   5.277  0.4890 -0.4091 -0.5736
  209MOL0     C27498   8.898   3.782   5.212 -0.1186  0.0277 -0.5656
  209MOL0     C27499   8.963   3.908   5.261 -0.8003  0.1557  0.6869
  209MOL0    Cl27500   8.845   4.049   5.264  0.4058 -0.0962  0.0612
  209MOL0     C27501   8.728   2.918   5.128 -0.2161  0.2948 -0.7945
  209MOL0     C27502   8.651   2.822   5.181 -0.2806 -0.9479 -0.5007
  209MOL0     O27503   8.457   2.587   5.043 -0.4599  1.1111  0.1651
  209MOL0     C27504   8.295   2.380   5.121  0.2242  0.6145 -0.6007
  209MOL0     C27505   8.205   2.293   5.171 -0.2766  1.2201 -1.1101
  209MOL0     N27506   7.396   2.156   5.450 -0.3106  0.3686  0.1591
  209MOL0     N27507   7.276   2.121   5.426  0.1648  0.2958  0.3748
  209MOL0     C27508   6.781   1.250   5.317  0.6370  0.6585 -0.0165
  209MOL0     C27509   6.785   1.177   5.436  0.3845  0.8642  0.4621
  209MOL0     C27510   6.685   1.092   5.879  0.3970  0.2792  0.4930
  209MOL0     C27511   6.570   1.062   5.970 -1.0269 -0.0364  1.1881
  209MOL0     C27512   6.591   0.989   6.079  0.1401  0.2360 -0.8856
  209MOL0     C27513   6.718   0.929   6.109 -0.3809 -0.7012 -0.8051
  209MOL0     O27514   6.719   0.868   6.232  0.1728  0.6030 -0.1793
  209MOL0     C27515   6.851   0.831   6.287  0.5302  1.1236  0.5071
  209MOL0     C27516   6.886   0.685   6.238 -0.2738 -0.7547  0.0402
  209MOL0     C27517   7.022   0.637   6.285 -0.4293 -0.4149 -0.2076
  209MOL0     C27518   7.053   0.492   6.234 -0.4334 -0.1127 -0.4459
  209MOL0     C27519   6.966   0.385   6.297 -0.9342 -0.4271  0.7468
  209MOL0     C27520   6.894   0.303   6.346 -0.7864  0.1641 -0.7196
  209MOL0     C27521   6.826   0.951   6.016  0.8266 -0.7033  0.0074
  209MOL0     C27522   6.814   1.038   5.904 -1.3188 -0.9005 -0.5843
  209MOL0     H27523   6.680   1.446   5.628  0.8184 -0.6035  0.4758
  209MOL0     H27524   6.677   1.560   5.412 -4.1644 -1.1477  2.5149
  209MOL0     H27525   6.685   1.319   5.017 -0.0003  1.1066 -1.4907
  209MOL0     H27526   6.858   1.324   5.071  0.5176  0.5705  4.5165
  209MOL0     H27527   6.702   1.538   4.928  2.3286  3.9200  1.8816
  209MOL0     H27528   6.812   1.424   4.846 -0.9387  0.9737 -0.0198
  209MOL0     H27529   6.926   1.611   4.865 -2.0742  1.2283 -1.1097
  209MOL0     H27530   6.994   1.496   4.998  0.2246  0.5190 -0.3470
  209MOL0     H27531   6.804   1.717   5.030  0.1896 -2.0872 -1.6082
  209MOL0     H27532   6.881   1.621   5.167 -2.1539 -0.8984 -0.1487
  209MOL0     H27533   7.057   1.799   4.986  0.7912  1.5105 -0.3787
  209MOL0     H27534   7.096   1.679   5.114 -0.4393  0.8058  1.6560
  209MOL0     H27535   6.934   1.839   5.258  2.1152  2.1786  2.5235
  209MOL0     H27536   6.934   1.933   5.111  1.5351  0.8767  0.7297
  209MOL0     H27537   7.193   1.946   5.146 -0.3087 -0.4172  0.5192
  209MOL0     H27538   7.070   2.064   5.227  0.0187  0.6862  3.7693
  209MOL0     H27539   7.154   1.814   5.355  0.5732 -0.1851 -1.9677
  209MOL0     H27540   7.068   1.953   5.415  2.7267 -0.0126  1.7465
  209MOL0     H27541   7.433   1.840   5.389 -0.9380 -0.5129 -1.3697
  209MOL0     H27542   7.646   1.933   5.450 -0.0728 -1.1039  2.2295
  209MOL0     H27543   7.627   2.053   5.587 -2.0297  0.4507  0.2540
  209MOL0     H27544   7.676   2.234   5.422  0.1752  0.4110 -1.0879
  209MOL0     H27545   7.676   2.123   5.294 -1.2246  1.3364  0.2596
  209MOL0     H27546   7.880   2.118   5.521  0.7643 -1.6206 -0.5367
  209MOL0     H27547   7.897   2.031   5.358  0.7735 -0.5804 -1.3158
  209MOL0     H27548   7.907   2.327   5.406  0.3013 -0.6412 -0.4918
  209MOL0     H27549   7.889   2.238   5.245  0.0827 -0.4621  0.3630
  209MOL0     H27550   8.141   2.396   5.472  2.0947 -1.9504  0.0692
  209MOL0     H27551   8.296   2.592   5.395 -2.4415  0.1757  0.4368
  209MOL0     H27552   8.368   2.852   5.019 -0.1597  1.4663  2.5881
  209MOL0     H27553   8.515   3.005   4.879 -0.4699 -2.1327 -0.3685
  209MOL0     H27554   8.599   3.223   4.934  0.6762 -1.3867 -0.5840
  209MOL0     H27555   8.746   3.262   4.847  2.4311  4.9845  2.4988
  209MOL0     H27556   8.728   3.310   5.146  2.4268 -1.0287  0.9132
  209MOL0     H27557   8.697   3.423   5.018  0.1367 -0.6476  2.0648
  209MOL0     H27558   8.943   3.353   4.939 -0.1404  3.3250  0.1353
  209MOL0     H27559   8.944   3.280   5.103 -4.4571 -0.9677  0.8937
  209MOL0     H27560   9.040   3.509   5.092 -0.4600  1.3482 -0.3949
  209MOL0     H27561   8.902   3.567   5.005  2.9597  3.2133  0.7432
  209MOL0     H27562   8.899   3.463   5.286  5.4567  2.8321  1.9647
  209MOL0     H27563   8.765   3.553   5.208  0.5380  2.9384  2.5229
  209MOL0     H27564   9.058   3.638   5.266  0.4684  0.8306 -3.3767
  209MOL0     H27565   8.935   3.657   5.386  1.2103 -0.1744 -0.4713
  209MOL0     H27566   8.903   3.772   5.103  1.2983  1.1884 -0.6340
  209MOL0     H27567   8.793   3.793   5.239 -0.9107 -0.3211 -3.2135
  209MOL0     H27568   9.047   3.918   5.190 -2.0841 -1.0674 -1.0774
  209MOL0     H27569   9.006   3.907   5.361  0.4332  1.8822  0.2433
  209MOL0     H27570   8.828   2.943   5.162 -0.5037 -0.6870  0.8615
  209MOL0     H27571   8.701   2.761   5.256  0.8032 -4.3044 -3.6492
  209MOL0     H27572   8.347   2.362   5.027  1.1561 -3.1160  0.4519
  209MOL0     H27573   8.181   2.203   5.114 -0.8520  0.1058  0.8113
  209MOL0     H27574   6.777   1.174   5.239  0.1021 -0.2128  0.8381
  209MOL0     H27575   6.797   1.070   5.447 -1.7110  0.7761  2.6305
  209MOL0     H27576   6.466   1.086   5.947 -1.7939 -3.7434  0.0211
  209MOL0     H27577   6.512   0.994   6.154  0.4448  1.7922 -0.6400
  209MOL0     H27578   6.853   0.823   6.396  3.0142  3.8091  0.7663
  209MOL0     H27579   6.931   0.900   6.260  0.9187  0.1528 -0.9425
  209MOL0     H27580   6.812   0.610   6.265 -0.6693 -0.2809  0.2733
  209MOL0     H27581   6.891   0.690   6.128  0.2344  2.5434  0.1144
  209MOL0     H27582   7.012   0.644   6.394 -0.5558 -0.7317 -0.1990
  209MOL0     H27583   7.095   0.710   6.250 -0.0421 -0.9965 -0.6208
  209MOL0     H27584   7.048   0.483   6.125 -0.2383  1.2533 -0.5930
  209MOL0     H27585   7.157   0.472   6.262 -0.0816 -2.9022 -3.2147
  209MOL0     H27586   6.834   0.222   6.382 -0.8739  0.0822 -1.0484
  209MOL0     H27587   6.927   0.918   6.036  1.1602  1.4612  2.4111
  209MOL0     H27588   6.901   1.052   5.840 -0.2489  1.0513  1.1508
  210MOL0     O27589   5.107  10.717   5.371  0.1261  0.0944 -0.0617
  210MOL0     C27590   5.200  10.648   5.337  0.5049  0.1368 -0.0708
  210MOL0     O27591   5.337  10.657   5.375  0.6312 -0.7640 -0.2281
  210MOL0     C27592   5.354  10.737   5.483 -0.3141  0.3978  0.0843
  210MOL0     C27593   5.306  10.865   5.505 -0.5974  0.4037  1.3725
  210MOL0     C27594   5.320  10.936   5.625 -0.0527  0.2060 -0.3207
  210MOL0     C27595   5.389  10.865   5.727  0.3809 -0.0708 -0.0416
  210MOL0     O27596   5.407  10.921   5.847  0.3771  0.2942  0.2986
  210MOL0     C27597   5.469  11.050   5.848  0.6316 -0.0697 -0.9219
  210MOL0     C27598   5.380  11.157   5.913  0.1970 -0.7247  1.2335
  210MOL0     C27599   5.326  11.106   6.044  0.3280  0.1520  0.1225
  210MOL0     C27600   5.242  11.215   6.116 -0.2191  0.3909  1.0335
  210MOL0     C27601   5.165  11.162   6.235 -0.1601 -0.3812 -0.1027
  210MOL0     C27602   5.021  11.141   6.209  0.6499  0.2274  0.9644
  210MOL0     C27603   4.954  11.064   6.330  0.3766 -0.4724 -0.7955
  210MOL0     C27604   4.812  11.016   6.295 -0.0437 -1.3183  0.5418
  210MOL0     N27605   4.757  10.912   6.383  0.0344  0.2172 -0.4046
  210MOL0     C27606   4.649  10.838   6.338 -0.0712  0.6993 -0.4059
  210MOL0     C27607   4.621  10.768   6.448  0.3877 -0.2873  0.6219
  210MOL0     C27608   4.504  10.669   6.484 -0.0424 -0.3338 -0.1970
  210MOL0     C27609   4.510  10.546   6.395  0.6358  0.6572  0.5134
  210MOL0     C27610   4.407  10.437   6.452 -0.4039  0.4196 -0.5678
  210MOL0     C27611   4.400  10.325   6.362  0.4291 -1.2178  0.3504
  210MOL0     O27612   4.290  10.341   6.272  0.1010  0.9474  0.3809
  210MOL0     C27613   4.257  10.220   6.202  0.5826 -0.3644 -0.2198
  210MOL0     C27614   4.141  10.227   6.120 -0.4004 -0.6826 -0.8425
  210MOL0     C27615   4.095  10.108   6.055 -0.0259  0.1641 -0.4069
  210MOL0     C27616   4.167   9.986   6.060  1.3074 -0.5202  0.2930
  210MOL0     C27617   4.141   9.877   5.961 -0.3780 -0.7297  0.7205
  210MOL0     O27618   4.091   9.921   5.838  0.2457 -0.0733 -0.9030
  210MOL0     C27619   4.083   9.820   5.747 -0.1841  0.2962  0.5164
  210MOL0     C27620   4.202   9.776   5.692  0.1873  0.1821 -0.0397
  210MOL0     C27621   4.201   9.672   5.597 -0.2750  0.1174 -0.0171
  210MOL0     C27622   4.078   9.619   5.567  0.4797  0.8586 -0.5737
  210MOL0     O27623   4.069   9.506   5.491  0.5804  0.6103  0.2184
  210MOL0     C27624   4.178   9.414   5.470 -0.2206 -0.3314 -1.3696
  210MOL0     C27625   4.134   9.292   5.392 -0.3008  0.8652 -0.7577
  210MOL0     C27626   4.018   9.209   5.455  0.1650 -2.0540  0.1373
  210MOL0     C27627   3.930   9.152   5.350 -1.0185  0.3218 -0.0539
  210MOL0     C27628   3.992   9.037   5.274  0.2574 -0.0974 -0.6941
  210MOL0     C27629   3.897   8.968   5.169 -0.3098 -0.6575 -0.1424
  210MOL0     C27630   3.763   8.928   5.226 -0.2584 -0.0421 -0.2358
  210MOL0     C27631   3.657   9.000   5.148  0.2101 -0.0846  0.1982
  210MOL0    Cl27632   3.667   9.184   5.149 -0.2424 -0.1326 -0.0432
  210MOL0     C27633   3.951   9.663   5.618  0.2851 -0.3871  0.8052
  210MOL0     C27634   3.958   9.774   5.708 -0.8088 -0.1484 -0.7486
  210MOL0     O27635   4.181   9.763   5.987 -0.6755 -0.4773 -0.2480
  210MOL0     C27636   4.269   9.979   6.147 -0.7881 -0.4511 -0.1636
  210MOL0     C27637   4.308  10.092   6.223  0.3651 -0.2604  0.2692
  210MOL0     N27638   4.697  10.813   6.554  0.3822 -0.2628 -0.1325
  210MOL0     N27639   4.779  10.904   6.519 -0.6225 -0.0759 -0.5310
  210MOL0     C27640   5.432  10.737   5.712 -0.6070  0.9318 -0.2354
  210MOL0     C27641   5.422  10.673   5.590  0.6391  0.4567 -0.6327
  210MOL0     C27642   5.181  10.555   5.222 -0.5120  1.0349 -0.1865
  210MOL0     C27643   5.275  10.526   5.121 -1.1550 -0.2432 -0.5330
  210MOL0     C27644   5.244  10.426   5.030 -1.2915  0.5478 -0.8563
  210MOL0     C27645   5.119  10.356   5.028  0.3807 -0.2399 -0.0429
  210MOL0     O27646   5.068  10.255   4.945 -0.1982 -0.0315 -0.4962
  210MOL0     C27647   5.053  10.287   4.804 -0.7510  0.4463 -0.0952
  210MOL0     C27648   5.183  10.305   4.715 -0.5422  0.4110 -0.6136
  210MOL0     C27649   5.145  10.302   4.565  0.0707  0.6122 -0.1854
  210MOL0     C27650   5.254  10.265   4.466 -0.5675  0.3296 -0.2443
  210MOL0     C27651   5.318  10.145   4.513  0.8499 -0.6818  0.2084
  210MOL0     C27652   5.357  10.044   4.553  0.3361 -0.0960  0.2786
  210MOL0     C27653   5.028  10.396   5.117  0.3478  0.8488  0.4409
  210MOL0     C27654   5.058  10.493   5.213  1.1343 -0.7769 -0.1344
  210MOL0     H27655   5.250  10.914   5.426 -0.4843  0.0594  1.0741
  210MOL0     H27656   5.264  11.027   5.642 -1.0161 -0.5112  0.5450
  210MOL0     H27657   5.496  11.080   5.746  0.2923 -1.8146 -1.5414
  210MOL0     H27658   5.556  11.053   5.914 -1.3271 -0.7649  1.8908
  210MOL0     H27659   5.300  11.187   5.845  1.5717  5.3183  1.7113
  210MOL0     H27660   5.431  11.252   5.931 -2.4905  1.0245  0.2120
  210MOL0     H27661   5.411  11.083   6.109  1.1343  3.8859  0.6371
  210MOL0     H27662   5.264  11.022   6.012  1.6659 -0.4949 -0.8474
  210MOL0     H27663   5.306  11.295   6.153 -2.1270  3.3972 -1.6078
  210MOL0     H27664   5.179  11.275   6.049 -3.5369 -2.3497  1.4130
  210MOL0     H27665   5.185  11.239   6.311  2.5480 -0.6029 -0.4849
  210MOL0     H27666   5.214  11.071   6.270 -4.3869 -1.9537  2.4483
  210MOL0     H27667   5.001  11.076   6.124 -0.5587  0.1714  1.2720
  210MOL0     H27668   4.976  11.239   6.192 -0.2117  0.2420  3.0175
  210MOL0     H27669   5.026  10.995   6.374  3.2477  3.1645  0.7415
  210MOL0     H27670   4.954  11.142   6.407  2.2931  1.6997 -2.8409
  210MOL0     H27671   4.804  10.986   6.190 -2.7059  0.6421  0.0446
  210MOL0     H27672   4.745  11.103   6.305  0.8898 -0.0614 -2.6324
  210MOL0     H27673   4.595  10.837   6.244  2.9032 -2.5385 -2.3165
  210MOL0     H27674   4.408  10.721   6.486  0.8125  1.4468 -1.9883
  210MOL0     H27675   4.519  10.634   6.587 -0.1441  2.7610  0.9883
  210MOL0     H27676   4.609  10.499   6.399 -0.1644 -1.0671  0.5954
  210MOL0     H27677   4.480  10.562   6.291  2.6059  1.6338  0.0265
  210MOL0     H27678   4.446  10.387   6.541 -3.5396  1.7402  1.7392
  210MOL0     H27679   4.308  10.478   6.476 -0.1809  0.2027  0.8030
  210MOL0     H27680   4.390  10.228   6.412 -0.9213 -0.9775  0.5853
  210MOL0     H27681   4.494  10.313   6.307 -0.9409 -0.9410 -2.1845
  210MOL0     H27682   4.076  10.314   6.114 -1.3070 -1.4497 -2.8739
  210MOL0     H27683   4.012  10.113   5.985 -0.6006 -0.2845  0.2264
  210MOL0     H27684   4.296   9.814   5.732  0.1656 -0.7547  0.9408
  210MOL0     H27685   4.289   9.620   5.562  1.5485  2.8338  0.2046
  210MOL0     H27686   4.219   9.388   5.568  2.5273  2.6572 -1.5737
  210MOL0     H27687   4.262   9.463   5.421  0.2667 -1.7854 -2.0508
  210MOL0     H27688   4.218   9.223   5.379  1.1517  1.7498  2.8001
  210MOL0     H27689   4.098   9.321   5.293 -0.0091  0.7079 -0.9125
  210MOL0     H27690   3.961   9.287   5.506  0.5339  0.3625 -2.8637
  210MOL0     H27691   4.066   9.140   5.525  1.8962 -0.7726  0.2649
  210MOL0     H27692   3.835   9.124   5.397 -0.8391 -2.1126 -0.9760
  210MOL0     H27693   3.898   9.224   5.274  2.0402 -0.1603 -1.9814
  210MOL0     H27694   4.026   8.959   5.342 -1.1162 -1.4285 -1.4754
  210MOL0     H27695   4.077   9.081   5.222 -0.0640 -1.6500 -2.6914
  210MOL0     H27696   3.952   8.880   5.135  1.4981  0.3447  0.0314
  210MOL0     H27697   3.886   9.028   5.078  0.0795 -0.3580  0.0051
  210MOL0     H27698   3.734   8.823   5.227  0.6316 -0.2977  0.9022
  210MOL0     H27699   3.768   8.946   5.334 -1.4810 -1.1294  0.0252
  210MOL0     H27700   3.565   8.959   5.190  1.8486 -0.0493  4.2982
  210MOL0     H27701   3.669   8.973   5.042 -2.0940  1.6802 -0.6111
  210MOL0     H27702   3.856   9.611   5.609 -0.5447  1.3983 -2.1017
  210MOL0     H27703   3.872   9.818   5.757 -1.0417 -0.9673 -0.4072
  210MOL0     H27704   4.331   9.890   6.155  0.3885  0.4470  1.4964
  210MOL0     H27705   4.391  10.087   6.293  0.4440 -0.4709  0.1607
  210MOL0     H27706   5.475  10.692   5.802 -0.5475 -0.7714 -1.0755
  210MOL0     H27707   5.467  10.575   5.576  1.6200  0.3728  2.4259
  210MOL0     H27708   5.376  10.565   5.120 -0.4976 -1.7390  1.3214
  210MOL0     H27709   5.322  10.423   4.954  1.2097  2.6276  1.4037
  210MOL0     H27710   5.005  10.385   4.796 -2.0311  0.0512  2.0975
  210MOL0     H27711   4.986  10.219   4.751 -2.6467  3.3103 -1.6684
  210MOL0     H27712   5.231  10.400   4.739  1.7442 -0.6218 -0.8589
  210MOL0     H27713   5.257  10.228   4.740  0.9640  1.4557 -1.6912
  210MOL0     H27714   5.104  10.401   4.544 -0.7035  0.0263 -1.5674
  210MOL0     H27715   5.071  10.222   4.556  1.4010 -0.5774 -0.9714
  210MOL0     H27716   5.221  10.246   4.363 -1.5364  0.3241  0.0658
  210MOL0     H27717   5.329  10.343   4.450 -1.1447  0.7638 -0.8895
  210MOL0     H27718   5.386   9.949   4.594  0.8563  0.2496  0.7191
  210MOL0     H27719   4.932  10.351   5.094 -0.5785  3.6379 -1.8808
  210MOL0     H27720   4.987  10.526   5.288  1.4827 -1.4071  0.4808
  211MOL0     O27721   0.291   9.977   3.630 -0.1583 -0.0151  0.7769
  211MOL0     C27722   0.377  10.055   3.579  0.2032 -0.6190 -0.7017
  211MOL0     O27723   0.396  10.186   3.625  0.4652 -0.0935 -0.0158
  211MOL0     C27724   0.312  10.225   3.724 -0.1438  0.7738 -0.7219
  211MOL0     C27725   0.344  10.223   3.864  0.4037 -0.4213  0.6162
  211MOL0     C27726   0.248  10.268   3.960  0.6387  0.6483 -0.3598
  211MOL0     C27727   0.125  10.314   3.921  0.0774  0.6302 -0.5118
  211MOL0     O27728   0.043  10.372   4.001 -0.0447  0.8471 -0.5107
  211MOL0     C27729   0.036  10.312   4.132  0.6019  0.2187 -0.0508
  211MOL0     C27730  -0.093  10.375   4.209 -0.0879 -0.7717  0.5628
  211MOL0     C27731  -0.129  10.277   4.311 -0.1737  0.0578 -0.0407
  211MOL0     C27732  -0.236  10.352   4.398  0.8994  0.1954  0.3967
  211MOL0     C27733  -0.289  10.262   4.504  0.1806  0.3211  0.6203
  211MOL0     C27734  -0.187  10.227   4.616 -0.6905 -0.1091  0.3419
  211MOL0     C27735  -0.227  10.093   4.674 -1.0283 -0.1855  0.0401
  211MOL0     C27736  -0.350  10.112   4.760  0.5303 -0.3305  1.1466
  211MOL0     N27737  -0.368  10.224   4.854 -0.4449 -0.4429  0.3847
  211MOL0     C27738  -0.456  10.324   4.828 -0.7451 -0.7609 -0.1653
  211MOL0     C27739  -0.431  10.411   4.930  0.3084  0.0427 -0.7024
  211MOL0     C27740  -0.498  10.534   4.961  0.4751  0.1975  0.0824
  211MOL0     C27741  -0.654  10.506   4.973 -0.6945 -0.4493 -0.3098
  211MOL0     C27742  -0.703  10.447   5.104 -0.3684 -0.2529  1.3289
  211MOL0     C27743  -0.680  10.533   5.229  0.4540  0.0523 -0.3789
  211MOL0     O27744  -0.717  10.464   5.347  0.5510  0.2567 -0.6457
  211MOL0     C27745  -0.702  10.526   5.470 -0.1374 -0.7525 -0.6180
  211MOL0     C27746  -0.589  10.485   5.554 -0.0266 -0.2784 -0.8053
  211MOL0     C27747  -0.567  10.555   5.667 -0.5204  0.1377 -0.5923
  211MOL0     C27748  -0.653  10.657   5.709  0.8056  1.4715 -0.1666
  211MOL0     C27749  -0.638  10.723   5.839 -0.0298  0.2721 -0.2232
  211MOL0     O27750  -0.546  10.664   5.918  0.6931  0.1677 -0.6903
  211MOL0     C27751  -0.522  10.704   6.050  0.1469  0.2308 -0.0297
  211MOL0     C27752  -0.610  10.777   6.126  0.4078  0.9118  0.4848
  211MOL0     C27753  -0.579  10.805   6.256 -0.3004 -0.1701  0.4045
  211MOL0     C27754  -0.443  10.803   6.293 -0.4930 -0.2547  0.0477
  211MOL0     O27755  -0.414  10.851   6.419  0.0495  0.0265  0.2661
  211MOL0     C27756  -0.282  10.817   6.461 -0.0630  0.2973 -1.0866
  211MOL0     C27757  -0.268  10.842   6.621  0.6586 -0.3794  0.9572
  211MOL0     C27758  -0.126  10.841   6.673  1.1001  0.5467 -0.7579
  211MOL0     C27759  -0.145  10.847   6.824 -0.8169  0.0061 -0.0583
  211MOL0     C27760  -0.202  10.714   6.901 -0.2903 -0.4668  0.8907
  211MOL0     C27761  -0.170  10.576   6.840 -0.8720  0.7635 -0.4652
  211MOL0     C27762  -0.191  10.469   6.955  0.2180  0.1866  0.1667
  211MOL0     C27763  -0.147  10.323   6.931 -0.2792  0.3187  0.0602
  211MOL0    Cl27764   0.034  10.327   6.940 -0.8148 -0.1073  0.4539
  211MOL0     C27765  -0.354  10.730   6.214  0.8028  0.4248  0.0877
  211MOL0     C27766  -0.399  10.668   6.098  0.3540  0.0691  0.2099
  211MOL0     O27767  -0.686  10.839   5.852 -0.1158 -0.2166 -0.7922
  211MOL0     C27768  -0.766  10.685   5.631  0.0068 -0.1123 -0.9843
  211MOL0     C27769  -0.787  10.629   5.508  0.1036 -0.3948  0.0775
  211MOL0     N27770  -0.329  10.362   5.014  0.1446 -0.2899 -0.0827
  211MOL0     N27771  -0.294  10.247   4.968 -0.3939  0.2952  0.3712
  211MOL0     C27772   0.085  10.310   3.788  0.2677 -0.1802 -1.3675
  211MOL0     C27773   0.176  10.263   3.696 -0.2124  0.9053 -0.4446
  211MOL0     C27774   0.456   9.995   3.471  0.0369  0.0632  0.3300
  211MOL0     C27775   0.422   9.877   3.406  0.1483 -0.1955  0.1461
  211MOL0     C27776   0.492   9.821   3.291 -0.5304 -0.3659 -0.5372
  211MOL0     C27777   0.611   9.885   3.252 -0.0983  0.5738 -0.3473
  211MOL0     O27778   0.679   9.815   3.144 -0.1624 -0.1618 -0.0568
  211MOL0     C27779   0.765   9.895   3.067  0.2914  0.4332 -0.3130
  211MOL0     C27780   0.704  10.015   2.990 -0.3884  0.5341  0.3832
  211MOL0     C27781   0.806  10.069   2.892 -0.0325 -0.2992 -0.0026
  211MOL0     C27782   0.750  10.194   2.812  0.7711 -1.3639  0.2371
  211MOL0     C27783   0.627  10.174   2.754  0.6377  0.8422 -0.0744
  211MOL0     C27784   0.519  10.141   2.712  0.4126 -0.1868  0.7011
  211MOL0     C27785   0.653  10.002   3.320  0.1196 -0.4012  0.0599
  211MOL0     C27786   0.572  10.059   3.426  0.0633 -1.0550 -0.6442
  211MOL0     H27787   0.436  10.176   3.899  2.8391  0.3783 -4.0007
  211MOL0     H27788   0.274  10.260   4.065 -0.9278 -1.5679 -0.0662
  211MOL0     H27789   0.123  10.327   4.197  0.8682 -0.9677 -0.1186
  211MOL0     H27790   0.032  10.204   4.118  2.3564  0.1817 -0.5040
  211MOL0     H27791  -0.181  10.388   4.146  0.5810 -1.0933 -0.4615
  211MOL0     H27792  -0.068  10.472   4.252  0.0158 -0.0261 -1.1147
  211MOL0     H27793  -0.044  10.254   4.376  1.2447  2.1133 -1.0533
  211MOL0     H27794  -0.173  10.190   4.261  1.7100 -1.7516  1.3013
  211MOL0     H27795  -0.176  10.424   4.454  1.7437  0.4023 -0.7367
  211MOL0     H27796  -0.315  10.394   4.334  1.5988 -0.4637 -0.9502
  211MOL0     H27797  -0.323  10.170   4.456 -1.4394  2.0781 -1.8847
  211MOL0     H27798  -0.363  10.321   4.561  0.4691 -0.0774  1.4246
  211MOL0     H27799  -0.180  10.311   4.684 -0.2562  1.2391 -1.2891
  211MOL0     H27800  -0.084  10.211   4.580 -0.4675  1.0436  0.4507
  211MOL0     H27801  -0.243  10.017   4.597  0.6543 -1.0818  0.5191
  211MOL0     H27802  -0.144  10.064   4.740  1.0102 -0.8154 -2.6303
  211MOL0     H27803  -0.371  10.020   4.816  0.5889 -1.7642 -1.0390
  211MOL0     H27804  -0.422  10.119   4.678 -0.7669 -0.9321  2.1924
  211MOL0     H27805  -0.540  10.339   4.761 -0.4482  1.1751 -0.1508
  211MOL0     H27806  -0.486  10.603   4.876  2.2636  2.4012  1.9812
  211MOL0     H27807  -0.453  10.590   5.044  0.1196  2.3335 -1.0827
  211MOL0     H27808  -0.679  10.443   4.887 -2.5908  0.4945 -0.5053
  211MOL0     H27809  -0.712  10.597   4.957 -4.7739 -2.2960  2.2176
  211MOL0     H27810  -0.810  10.425   5.093 -0.2783  0.2318 -1.0366
  211MOL0     H27811  -0.643  10.357   5.115  0.5440 -0.0494 -1.1764
  211MOL0     H27812  -0.740  10.622   5.205 -0.3590 -0.1661  0.7864
  211MOL0     H27813  -0.575  10.564   5.234  0.2320  0.6016  1.2592
  211MOL0     H27814  -0.529  10.403   5.514 -0.6911 -1.2627  0.1481
  211MOL0     H27815  -0.477  10.548   5.727 -0.6076 -0.7890 -0.5551
  211MOL0     H27816  -0.713  10.791   6.096 -0.9572 -0.8966  3.8516
  211MOL0     H27817  -0.657  10.845   6.321 -0.4032 -1.7334  1.2921
  211MOL0     H27818  -0.211  10.893   6.426  0.6337  0.4961  0.6959
  211MOL0     H27819  -0.237  10.724   6.424  1.5582  1.1328 -1.3189
  211MOL0     H27820  -0.315  10.754   6.666 -1.2971  0.5060  0.7388
  211MOL0     H27821  -0.320  10.934   6.651 -0.2499 -0.2652 -0.8576
  211MOL0     H27822  -0.067  10.926   6.638 -0.7966  1.8547 -0.9756
  211MOL0     H27823  -0.066  10.751   6.653  0.3317  0.0028 -0.6678
  211MOL0     H27824  -0.043  10.865   6.859 -0.7929  0.9123 -0.5621
  211MOL0     H27825  -0.208  10.930   6.856 -0.2331 -0.5242  2.6892
  211MOL0     H27826  -0.309  10.728   6.918  0.2637  1.5830  3.3315
  211MOL0     H27827  -0.154  10.715   6.999  1.2876  1.4033  0.1807
  211MOL0     H27828  -0.063  10.579   6.817 -0.4659  1.0473  1.2722
  211MOL0     H27829  -0.227  10.551   6.750 -0.3307 -4.3187  0.3301
  211MOL0     H27830  -0.141  10.514   7.041  2.6914  2.0279 -2.0656
  211MOL0     H27831  -0.298  10.473   6.975  0.0418 -1.5140 -0.2479
  211MOL0     H27832  -0.190  10.290   6.836 -0.3836 -1.8292  0.8113
  211MOL0     H27833  -0.178  10.256   7.012  0.3215  1.9366  1.7076
  211MOL0     H27834  -0.246  10.725   6.225  1.4658 -0.2698 -4.5184
  211MOL0     H27835  -0.328  10.634   6.024  2.1721  0.8117  1.5475
  211MOL0     H27836  -0.843  10.744   5.680  0.5358 -0.8744  0.8411
  211MOL0     H27837  -0.877  10.642   5.449 -1.2961 -2.3350  1.6042
  211MOL0     H27838  -0.011  10.352   3.760  0.8539  1.5590 -0.9576
  211MOL0     H27839   0.143  10.263   3.593  0.1539  1.7929 -0.5744
  211MOL0     H27840   0.329   9.829   3.433 -0.2893 -0.0034 -0.9459
  211MOL0     H27841   0.470   9.717   3.267 -4.0562 -1.3777  5.2443
  211MOL0     H27842   0.817   9.833   2.994  3.0014  0.9304  1.0422
  211MOL0     H27843   0.846   9.930   3.132  3.1392 -2.4367 -2.0067
  211MOL0     H27844   0.612   9.983   2.941  0.9896  0.3970 -2.2871
  211MOL0     H27845   0.699  10.094   3.066  4.6911 -0.9038  2.6572
  211MOL0     H27846   0.837   9.982   2.834 -0.1630 -1.6390  1.8460
  211MOL0     H27847   0.891  10.093   2.956 -1.8408 -0.4233  2.6006
  211MOL0     H27848   0.734  10.276   2.883  1.3235  0.6622 -1.8389
  211MOL0     H27849   0.816  10.215   2.727 -1.4934 -1.3845 -1.6257
  211MOL0     H27850   0.425  10.126   2.662  1.2481 -2.4409 -0.3284
  211MOL0     H27851   0.741  10.058   3.289  0.1194  1.4576  2.9670
  211MOL0     H27852   0.604  10.152   3.471 -0.2311 -1.9739  1.6092
  212MOL0     O27853   0.476  10.862   2.410  0.0686  0.4227  0.4469
  212MOL0     C27854   0.474  10.922   2.305 -1.3370  1.0115  0.3849
  212MOL0     O27855   0.376  11.005   2.266  0.4452  0.3078  0.1371
  212MOL0     C27856   0.288  11.046   2.361  0.1673 -1.2675 -0.1945
  212MOL0     C27857   0.169  10.984   2.378 -0.0365 -0.3471 -0.1716
  212MOL0     C27858   0.091  11.009   2.492  0.7599 -0.2685  0.2398
  212MOL0     C27859   0.140  11.102   2.586  0.4460 -0.6407 -0.6007
  212MOL0     O27860   0.075  11.103   2.712 -1.0712 -0.6012 -0.7508
  212MOL0     C27861  -0.036  11.192   2.714  0.5356 -0.5544  0.3825
  212MOL0     C27862  -0.127  11.183   2.841 -0.0275 -0.3591 -0.0331
  212MOL0     C27863  -0.064  11.246   2.962  0.5804  0.5690  0.5950
  212MOL0     C27864  -0.113  11.170   3.090 -0.1146 -0.3109 -0.5897
  212MOL0     C27865  -0.053  11.236   3.220 -0.1048  0.2613  0.1892
  212MOL0     C27866  -0.114  11.178   3.347  0.6017  0.7316 -0.3061
  212MOL0     C27867  -0.136  11.023   3.368  0.5106  0.7028  1.0937
  212MOL0     C27868  -0.165  11.001   3.520 -0.0303  1.6546  0.1400
  212MOL0     N27869  -0.245  11.099   3.592  1.3357 -0.1239  0.8056
  212MOL0     C27870  -0.382  11.113   3.603 -0.0544 -0.0881 -0.1323
  212MOL0     C27871  -0.400  11.227   3.677  0.1145  0.1406 -0.3583
  212MOL0     C27872  -0.531  11.273   3.734  0.0458  0.0471  0.2165
  212MOL0     C27873  -0.538  11.209   3.877 -1.3660 -1.2610  0.8503
  212MOL0     C27874  -0.650  11.251   3.962 -0.4293 -0.0254  0.7436
  212MOL0     C27875  -0.791  11.178   3.924 -0.4104  0.0868  0.6368
  212MOL0     O27876  -0.885  11.179   4.036  0.4738 -0.4079 -0.2938
  212MOL0     C27877  -0.940  11.305   4.071  0.0609 -0.7435  0.1927
  212MOL0     C27878  -1.003  11.315   4.201 -0.2361 -0.1812  0.3497
  212MOL0     C27879  -1.080  11.419   4.241  0.1056 -0.7164 -0.5709
  212MOL0     C27880  -1.082  11.536   4.162 -0.1092 -0.2112  0.7643
  212MOL0     C27881  -1.145  11.658   4.219 -0.0475  1.3660  0.9740
  212MOL0     O27882  -1.212  11.652   4.334 -0.4235  0.4819 -0.7710
  212MOL0     C27883  -1.261  11.771   4.380  0.3147  0.6244  0.2624
  212MOL0     C27884  -1.165  11.878   4.419  0.0133  0.2637 -0.6405
  212MOL0     C27885  -1.217  11.998   4.470  0.4449  0.0708 -0.0435
  212MOL0     C27886  -1.356  12.017   4.489 -0.1092 -0.7575  0.0307
  212MOL0     O27887  -1.409  12.132   4.542  0.7350  0.5133  0.3401
  212MOL0     C27888  -1.335  12.229   4.616  0.2963 -0.0111  0.1336
  212MOL0     C27889  -1.438  12.324   4.674  0.1635  0.2605  0.4437
  212MOL0     C27890  -1.384  12.419   4.776 -0.5828 -0.1754  0.4396
  212MOL0     C27891  -1.260  12.515   4.733  0.5747  1.3072  0.6299
  212MOL0     C27892  -1.275  12.600   4.616  0.0129  0.2361 -0.0878
  212MOL0     C27893  -1.389  12.702   4.633 -0.3920 -0.5565  0.2277
  212MOL0     C27894  -1.367  12.803   4.753  0.3863 -0.1969 -0.2982
  212MOL0     C27895  -1.233  12.877   4.745  0.2515  0.2845  0.5881
  212MOL0    Cl27896  -1.248  13.028   4.852 -0.5165  0.0611  0.6025
  212MOL0     C27897  -1.436  11.913   4.447 -0.2781  0.2791 -0.7297
  212MOL0     C27898  -1.397  11.782   4.404  0.3621 -0.6469  0.6698
  212MOL0     O27899  -1.136  11.753   4.150 -0.2816  0.3596 -0.1323
  212MOL0     C27900  -1.017  11.538   4.032 -0.4276 -0.0782 -0.1729
  212MOL0     C27901  -0.949  11.423   3.988 -0.4439  0.1135 -0.4346
  212MOL0     N27902  -0.274  11.280   3.709  0.7866 -0.4216 -0.3182
  212MOL0     N27903  -0.184  11.208   3.648 -0.8636 -0.8754 -0.2649
  212MOL0     C27904   0.264  11.158   2.576 -0.6396  0.3368  0.0456
  212MOL0     C27905   0.335  11.137   2.460  0.2995  0.3512 -0.2457
  212MOL0     C27906   0.579  10.892   2.208  0.3974 -0.8940 -0.3048
  212MOL0     C27907   0.572  10.946   2.084 -0.0798 -0.0675  0.3393
  212MOL0     C27908   0.668  10.919   1.988  0.3145  0.9330  0.1614
  212MOL0     C27909   0.772  10.833   2.009 -0.4737  0.7964 -0.7722
  212MOL0     O27910   0.871  10.832   1.916 -0.0275  0.1799 -0.3526
  212MOL0     C27911   0.993  10.891   1.936  0.8192  0.1428 -0.4671
  212MOL0     C27912   1.100  10.839   1.830  0.9501  0.8408 -0.0230
  212MOL0     C27913   1.035  10.806   1.694 -0.6969 -0.2201 -0.7782
  212MOL0     C27914   1.139  10.733   1.598  0.4328  0.1748  0.1688
  212MOL0     C27915   1.073  10.703   1.474  0.9114  0.6132  0.1203
  212MOL0     C27916   1.015  10.680   1.365 -0.3450  0.3994 -0.0964
  212MOL0     C27917   0.786  10.780   2.144  1.1425  0.2458 -0.6002
  212MOL0     C27918   0.694  10.814   2.242 -0.0768 -0.2355 -0.7760
  212MOL0     H27919   0.126  10.904   2.319  0.6888 -1.7169  1.0880
  212MOL0     H27920   0.001  10.956   2.519  1.5142 -2.2329 -0.8963
  212MOL0     H27921  -0.100  11.180   2.626  1.2336 -0.3371 -0.1702
  212MOL0     H27922   0.007  11.291   2.694 -0.3347 -0.5426 -1.7614
  212MOL0     H27923  -0.140  11.075   2.851  3.4434 -1.1285 -2.0776
  212MOL0     H27924  -0.223  11.227   2.811  1.9582  2.9055 -2.3496
  212MOL0     H27925  -0.111  11.344   2.969  0.0407  0.2206  2.7212
  212MOL0     H27926   0.045  11.244   2.954  0.5355  0.6984 -0.1067
  212MOL0     H27927  -0.222  11.175   3.096 -0.1398 -0.4615 -0.9330
  212MOL0     H27928  -0.092  11.063   3.082 -0.0063 -0.4014  0.6716
  212MOL0     H27929  -0.082  11.341   3.230  1.8532  0.7728  0.9657
  212MOL0     H27930   0.054  11.218   3.211 -0.2063 -1.7480  2.1668
  212MOL0     H27931  -0.203  11.231   3.381 -0.6386 -1.8400  0.7047
  212MOL0     H27932  -0.040  11.207   3.422  1.7041 -4.6181  1.0754
  212MOL0     H27933  -0.215  10.986   3.303  1.1298  1.3839 -0.0767
  212MOL0     H27934  -0.054  10.958   3.338 -0.2363  0.9550 -1.8420
  212MOL0     H27935  -0.066  11.001   3.565  0.4435  1.8850 -0.8727
  212MOL0     H27936  -0.208  10.901   3.529  1.9294  0.9118  2.2764
  212MOL0     H27937  -0.464  11.051   3.569 -1.5153  1.2677  0.8452
  212MOL0     H27938  -0.605  11.224   3.670 -0.0687  1.8777 -1.1075
  212MOL0     H27939  -0.547  11.380   3.723  0.1571  0.2170  1.4843
  212MOL0     H27940  -0.443  11.240   3.921  1.2616 -1.0764 -4.2942
  212MOL0     H27941  -0.529  11.100   3.876 -1.3982 -1.2606  0.5952
  212MOL0     H27942  -0.618  11.243   4.067  0.0752 -0.6732  0.5404
  212MOL0     H27943  -0.659  11.360   3.951 -0.1828 -0.0302  0.5076
  212MOL0     H27944  -0.777  11.077   3.883 -1.6666  0.0800  0.1738
  212MOL0     H27945  -0.835  11.239   3.844  1.6495 -0.0626 -0.6905
  212MOL0     H27946  -0.987  11.229   4.266  1.3391 -1.0753 -1.1553
  212MOL0     H27947  -1.134  11.423   4.335  1.9182 -0.5838  0.5269
  212MOL0     H27948  -1.059  11.861   4.406 -0.5078 -1.8678 -2.9915
  212MOL0     H27949  -1.155  12.085   4.489  0.9991 -0.0258 -1.2821
  212MOL0     H27950  -1.269  12.271   4.540  0.2360  0.6598  0.4494
  212MOL0     H27951  -1.276  12.190   4.700 -1.0483 -0.1217  1.0473
  212MOL0     H27952  -1.509  12.260   4.729 -1.0595  2.2521  1.3236
  212MOL0     H27953  -1.495  12.378   4.598  0.1983 -1.6501 -1.0053
  212MOL0     H27954  -1.360  12.352   4.859  1.8494 -1.6460 -1.3116
  212MOL0     H27955  -1.462  12.489   4.809  1.7283  0.2662  6.1945
  212MOL0     H27956  -1.231  12.575   4.819  0.1319  1.3842  0.7304
  212MOL0     H27957  -1.176  12.447   4.721  0.0765  0.5103  1.5033
  212MOL0     H27958  -1.281  12.537   4.527  0.7079 -1.9418  1.3533
  212MOL0     H27959  -1.183  12.657   4.599 -1.9871  4.2752  1.1112
  212MOL0     H27960  -1.479  12.642   4.646  1.1392 -3.8187 -2.7563
  212MOL0     H27961  -1.395  12.749   4.535 -1.7955 -1.1250  0.0160
  212MOL0     H27962  -1.454  12.869   4.758 -2.1194 -3.1865 -1.0816
  212MOL0     H27963  -1.362  12.745   4.845  3.4672 -1.8391 -1.3499
  212MOL0     H27964  -1.216  12.915   4.644 -1.9532  1.0728  0.4685
  212MOL0     H27965  -1.155  12.812   4.787  0.4704 -0.7668 -1.3336
  212MOL0     H27966  -1.541  11.937   4.461 -0.9763 -3.1747  1.0183
  212MOL0     H27967  -1.462  11.696   4.396 -5.0977  2.5995  3.5372
  212MOL0     H27968  -1.028  11.629   3.974 -0.1887 -1.1893 -2.0498
  212MOL0     H27969  -0.906  11.433   3.889 -1.2919 -0.2622 -0.8458
  212MOL0     H27970   0.304  11.222   2.654  0.7052 -0.1638 -0.2048
  212MOL0     H27971   0.440  11.162   2.464  0.3955 -0.0759 -0.0150
  212MOL0     H27972   0.490  11.010   2.053  0.4768  0.2672 -0.4724
  212MOL0     H27973   0.664  10.970   1.892  0.5171 -1.0384 -0.9370
  212MOL0     H27974   1.040  10.856   2.029  4.7240  0.4771 -2.0998
  212MOL0     H27975   0.972  10.998   1.936 -2.7862 -0.4229 -1.8257
  212MOL0     H27976   1.171  10.921   1.822  2.0332 -0.1703 -1.2955
  212MOL0     H27977   1.137  10.744   1.869 -2.1388 -1.5534 -2.3104
  212MOL0     H27978   1.006  10.908   1.666  4.1952  1.0507 -2.2215
  212MOL0     H27979   0.944  10.749   1.714 -1.3902  1.2638  0.4759
  212MOL0     H27980   1.224  10.800   1.579  1.8330 -2.1966 -2.6609
  212MOL0     H27981   1.179  10.641   1.643  0.9177  0.5534  0.5237
  212MOL0     H27982   0.967  10.679   1.269  0.0689  1.5945 -0.3325
  212MOL0     H27983   0.867  10.714   2.173  0.8558  0.7298  1.4952
  212MOL0     H27984   0.705  10.786   2.346 -0.7626  2.7368  0.1957
  213MOL0     O27985   5.714   4.186   2.227 -0.0189  0.5120  0.1819
  213MOL0     C27986   5.770   4.233   2.322  0.5480  0.1339 -0.6541
  213MOL0     O27987   5.895   4.280   2.329  0.7122  0.1845 -0.8693
  213MOL0     C27988   5.982   4.266   2.232 -0.6002 -0.5945  0.8272
  213MOL0     C27989   5.959   4.265   2.088 -0.5359 -0.4252 -0.1122
  213MOL0     C27990   6.065   4.256   1.998 -0.0795 -0.1390 -0.4581
  213MOL0     C27991   6.197   4.233   2.042  0.6252 -0.0403  0.3231
  213MOL0     O27992   6.293   4.218   1.949 -0.0537  0.0246 -1.3124
  213MOL0     C27993   6.426   4.176   1.995  0.0919 -1.2485  0.1143
  213MOL0     C27994   6.523   4.168   1.878  0.2140  1.6990  0.3226
  213MOL0     C27995   6.675   4.148   1.902 -0.5931  0.7717 -0.3528
  213MOL0     C27996   6.742   4.278   1.953 -0.2519 -0.4315 -0.5809
  213MOL0     C27997   6.727   4.306   2.098  0.1172  0.4323  0.0625
  213MOL0     C27998   6.856   4.324   2.176 -1.0421  0.8727 -0.5732
  213MOL0     C27999   6.827   4.373   2.326 -0.4215 -0.4702  0.8877
  213MOL0     C28000   6.820   4.521   2.325  0.1827 -0.2624  0.1569
  213MOL0     N28001   6.811   4.553   2.469 -0.2627 -0.5893 -0.1597
  213MOL0     C28002   6.691   4.559   2.541 -0.0299  0.3994  0.0171
  213MOL0     C28003   6.733   4.576   2.675 -0.9375 -0.0752  0.2878
  213MOL0     C28004   6.651   4.579   2.797 -0.5536  0.7999 -0.0073
  213MOL0     C28005   6.612   4.721   2.848  0.5635 -0.6979  0.4917
  213MOL0     C28006   6.715   4.837   2.817  0.9314 -0.1145  0.8886
  213MOL0     C28007   6.670   4.978   2.844  0.7176  0.8624 -0.2492
  213MOL0     O28008   6.570   5.030   2.757  0.5506  0.8199  0.0135
  213MOL0     C28009   6.534   5.162   2.774 -0.4037 -0.6570  0.1310
  213MOL0     C28010   6.415   5.185   2.839  0.0324  0.8874  0.9019
  213MOL0     C28011   6.372   5.318   2.853  0.1574  0.8390 -0.0278
  213MOL0     C28012   6.459   5.423   2.808  0.0173  0.4139  0.1805
  213MOL0     C28013   6.410   5.563   2.820  0.0675 -1.0331 -0.5445
  213MOL0     O28014   6.293   5.597   2.897 -0.1986 -0.2701 -0.2840
  213MOL0     C28015   6.259   5.730   2.910  0.8321  0.7278 -0.2892
  213MOL0     C28016   6.130   5.758   2.913  0.4810  0.4656  0.8879
  213MOL0     C28017   6.086   5.892   2.940 -0.3313 -0.4632  0.3936
  213MOL0     C28018   6.168   5.997   2.937  0.4311  0.3875  0.0491
  213MOL0     O28019   6.113   6.121   2.947 -0.9329 -0.0729  0.3486
  213MOL0     C28020   6.114   6.192   2.823  0.0893  1.2000  0.0565
  213MOL0     C28021   6.125   6.334   2.849 -0.2237 -1.0258  0.8114
  213MOL0     C28022   6.011   6.394   2.937  1.1831 -0.5312 -0.1657
  213MOL0     C28023   6.010   6.543   2.946 -0.0712 -0.7437 -0.3428
  213MOL0     C28024   6.128   6.591   3.043 -0.1703  0.2003 -0.9489
  213MOL0     C28025   6.101   6.596   3.191  0.1675 -0.2201  0.1542
  213MOL0     C28026   5.997   6.706   3.220  0.4219  0.6578  0.6341
  213MOL0     C28027   5.917   6.689   3.356  1.0344  0.0766 -0.5934
  213MOL0    Cl28028   6.027   6.668   3.496  0.5397  0.0198  0.1208
  213MOL0     C28029   6.303   5.973   2.921 -0.0732  0.4977 -0.2613
  213MOL0     C28030   6.346   5.837   2.915  0.6120 -0.4555 -0.3113
  213MOL0     O28031   6.473   5.646   2.750 -0.2525  0.5563 -0.3215
  213MOL0     C28032   6.585   5.397   2.755 -0.0866 -0.4602  0.4947
  213MOL0     C28033   6.618   5.261   2.734  0.0261 -0.2887  0.2687
  213MOL0     N28034   6.870   4.565   2.678  0.1488  0.1550 -0.6574
  213MOL0     N28035   6.916   4.566   2.557 -0.7082  0.0010  0.5098
  213MOL0     C28036   6.216   4.218   2.176 -0.4203 -0.3716 -0.2171
  213MOL0     C28037   6.112   4.245   2.274 -0.2816  0.6095 -0.1850
  213MOL0     C28038   5.677   4.249   2.435 -0.5272 -0.7165 -0.5953
  213MOL0     C28039   5.724   4.316   2.554 -0.1148  0.5683  0.6184
  213MOL0     C28040   5.630   4.318   2.660  0.2583  0.2404  0.6316
  213MOL0     C28041   5.500   4.275   2.658 -0.9328  0.7213 -0.1416
  213MOL0     O28042   5.424   4.306   2.768 -0.1986 -0.0811  0.4207
  213MOL0     C28043   5.282   4.318   2.745  0.7589 -0.3782  0.2644
  213MOL0     C28044   5.217   4.411   2.851  0.7878 -0.7869 -0.4618
  213MOL0     C28045   5.213   4.368   3.003  0.4522 -0.0697 -1.3042
  213MOL0     C28046   5.144   4.238   3.036 -1.0985  0.9075  0.0340
  213MOL0     C28047   5.002   4.241   3.016 -0.5745  0.8507  0.5148
  213MOL0     C28048   4.887   4.206   2.998  0.2221 -0.6099  1.0245
  213MOL0     C28049   5.460   4.211   2.538 -0.9607  0.3248  0.0522
  213MOL0     C28050   5.545   4.195   2.432 -0.3960 -0.0736 -0.7632
  213MOL0     H28051   5.869   4.311   2.048  0.7563  0.3655 -2.2835
  213MOL0     H28052   6.053   4.284   1.894 -1.3755 -1.5524 -0.7258
  213MOL0     H28053   6.423   4.079   2.044 -0.2589 -1.2196  0.1544
  213MOL0     H28054   6.461   4.249   2.068  2.8916 -2.4929  0.1289
  213MOL0     H28055   6.505   4.261   1.823 -1.1685  1.1065 -0.2749
  213MOL0     H28056   6.492   4.094   1.803 -0.1455 -0.1663  2.2257
  213MOL0     H28057   6.726   4.117   1.810 -0.1427  0.1457  0.0964
  213MOL0     H28058   6.692   4.067   1.973 -1.3419 -1.9292 -3.0247
  213MOL0     H28059   6.851   4.273   1.942 -0.3782  0.0689 -2.4106
  213MOL0     H28060   6.718   4.363   1.890 -1.1156 -0.4081 -0.2386
  213MOL0     H28061   6.680   4.216   2.139  1.3109  0.9349  2.8153
  213MOL0     H28062   6.653   4.385   2.116  0.6267  0.4870  2.2935
  213MOL0     H28063   6.922   4.397   2.127  3.4051 -2.3407  0.0107
  213MOL0     H28064   6.911   4.229   2.175  2.1197  2.4821  1.6279
  213MOL0     H28065   6.736   4.336   2.374 -0.4052 -1.7272 -0.0214
  213MOL0     H28066   6.910   4.340   2.388 -0.7458 -0.2789  1.4304
  213MOL0     H28067   6.730   4.538   2.266  0.2466  0.0933  0.1582
  213MOL0     H28068   6.896   4.582   2.277 -1.3412  1.0358 -0.7069
  213MOL0     H28069   6.585   4.565   2.518  0.3272  4.2819 -1.2287
  213MOL0     H28070   6.724   4.547   2.871 -1.1254 -0.2200  0.1341
  213MOL0     H28071   6.574   4.501   2.792  0.0043  0.2626 -0.3812
  213MOL0     H28072   6.615   4.717   2.957  3.0283 -2.4325  0.4155
  213MOL0     H28073   6.515   4.753   2.808  0.7861  1.7589  1.7035
  213MOL0     H28074   6.810   4.815   2.867  0.1416  3.3136  4.4229
  213MOL0     H28075   6.738   4.843   2.711 -1.6039 -1.7630  0.1669
  213MOL0     H28076   6.756   5.045   2.853  1.3890 -0.1527  1.3180
  213MOL0     H28077   6.633   4.978   2.947  1.5783  2.2029  0.0772
  213MOL0     H28078   6.351   5.102   2.868 -0.5441 -0.5606 -3.7386
  213MOL0     H28079   6.267   5.335   2.876  0.3314  2.5333 -0.3793
  213MOL0     H28080   6.060   5.676   2.900 -0.1169  1.2885 -1.4354
  213MOL0     H28081   5.985   5.920   2.970 -0.9237 -2.3661  0.3078
  213MOL0     H28082   6.018   6.173   2.774  0.9383  1.9414 -2.0020
  213MOL0     H28083   6.200   6.174   2.757 -1.4405  0.7698 -1.9110
  213MOL0     H28084   6.131   6.388   2.754 -3.1410  3.4785  2.8597
  213MOL0     H28085   6.222   6.350   2.896  1.3957  0.1094 -2.6072
  213MOL0     H28086   6.018   6.349   3.036  1.7538  0.1590  0.1096
  213MOL0     H28087   5.918   6.354   2.894  1.2720 -0.8683 -0.0466
  213MOL0     H28088   6.022   6.591   2.848 -0.8942  2.2019  0.8909
  213MOL0     H28089   5.914   6.587   2.975 -0.3514 -0.5974 -1.4236
  213MOL0     H28090   6.158   6.693   3.019  0.0386  0.2753 -0.3971
  213MOL0     H28091   6.215   6.526   3.041  1.6303  2.3992  0.6812
  213MOL0     H28092   6.187   6.617   3.256  0.7477  1.1382 -0.9861
  213MOL0     H28093   6.071   6.495   3.218 -0.5735  0.9575  4.5580
  213MOL0     H28094   6.044   6.805   3.218  0.0983  0.8056  0.1581
  213MOL0     H28095   5.915   6.711   3.147 -1.6417  0.5560  2.7964
  213MOL0     H28096   5.857   6.597   3.354  1.4075 -0.1778 -0.3082
  213MOL0     H28097   5.848   6.773   3.366 -2.3399 -2.5049 -0.3938
  213MOL0     H28098   6.382   6.046   2.915 -0.9728  1.4059 -1.8925
  213MOL0     H28099   6.454   5.837   2.907  0.6437 -0.0846  0.0700
  213MOL0     H28100   6.642   5.475   2.704 -1.1435 -0.3516 -0.5645
  213MOL0     H28101   6.706   5.227   2.680 -0.6948 -1.9073  0.0430
  213MOL0     H28102   6.313   4.204   2.223  0.4984 -0.8659 -2.1660
  213MOL0     H28103   6.130   4.259   2.380  0.1300 -2.3377  0.2392
  213MOL0     H28104   5.820   4.364   2.566 -0.7896  1.5544  2.6409
  213MOL0     H28105   5.669   4.379   2.742  2.6258 -0.0610 -0.1999
  213MOL0     H28106   5.238   4.219   2.757  3.6111 -1.9290 -1.2583
  213MOL0     H28107   5.259   4.356   2.645  0.3207 -3.1679 -0.7861
  213MOL0     H28108   5.263   4.509   2.834 -1.8481 -0.0458 -4.9375
  213MOL0     H28109   5.113   4.428   2.822  0.5959 -0.1801  0.5445
  213MOL0     H28110   5.171   4.442   3.072 -0.1838 -0.3390 -1.3948
  213MOL0     H28111   5.318   4.355   3.031  0.0632  1.6304  1.3423
  213MOL0     H28112   5.179   4.150   2.981  3.7332  0.6591  2.8379
  213MOL0     H28113   5.166   4.224   3.143  1.1333 -0.0348 -0.4890
  213MOL0     H28114   4.787   4.176   2.976 -0.3445  1.5878  0.3335
  213MOL0     H28115   5.361   4.166   2.530  0.6148 -3.8667  1.1787
  213MOL0     H28116   5.506   4.160   2.337 -0.9570  0.3464 -0.6933
  214MOL0     O28117   7.840   1.456   3.699 -0.7979 -1.3215  0.3504
  214MOL0     C28118   7.722   1.474   3.676 -0.1056  0.4048  0.0807
  214MOL0     O28119   7.673   1.515   3.554  0.0579  0.1830 -1.0032
  214MOL0     C28120   7.761   1.549   3.452  0.3224  0.2023 -0.1958
  214MOL0     C28121   7.837   1.666   3.462  1.1453 -0.1383  0.5471
  214MOL0     C28122   7.931   1.699   3.358  0.5368 -0.2272  0.0094
  214MOL0     C28123   7.939   1.620   3.244 -0.5861 -0.3906  0.3733
  214MOL0     O28124   8.024   1.660   3.142 -0.0784  0.7449 -0.1276
  214MOL0     C28125   8.106   1.560   3.087 -0.8177  0.4543  0.2626
  214MOL0     C28126   8.228   1.548   3.190 -0.6763 -0.1376 -0.2424
  214MOL0     C28127   8.314   1.673   3.207 -0.4828  0.9791  0.4200
  214MOL0     C28128   8.425   1.648   3.317  0.0178  0.6159  0.5471
  214MOL0     C28129   8.531   1.760   3.328  0.5005  0.3113  0.3937
  214MOL0     C28130   8.488   1.896   3.378  1.1258 -0.1129 -0.7693
  214MOL0     C28131   8.590   2.020   3.363 -0.1614  0.3875 -0.7353
  214MOL0     C28132   8.629   2.035   3.223  0.6218 -0.2105 -0.1658
  214MOL0     N28133   8.517   2.072   3.125  0.2115 -0.1702  0.5102
  214MOL0     C28134   8.404   2.159   3.134  0.6066  0.7100 -1.0928
  214MOL0     C28135   8.346   2.141   3.015 -0.2875  0.4608  0.8667
  214MOL0     C28136   8.222   2.210   2.975  0.1113 -0.1699  0.7173
  214MOL0     C28137   8.101   2.189   3.069 -0.5507  0.0566 -0.6339
  214MOL0     C28138   8.043   2.044   3.064  0.8975 -1.1080  0.5536
  214MOL0     C28139   7.938   2.021   3.173  0.6349 -0.3507 -0.0156
  214MOL0     O28140   7.820   2.101   3.163 -0.5036  0.1115 -0.3582
  214MOL0     C28141   7.691   2.052   3.141 -1.0819  0.5907 -0.3769
  214MOL0     C28142   7.601   2.149   3.092 -0.7400 -0.3246  0.9312
  214MOL0     C28143   7.484   2.104   3.028  0.1665 -0.6715  0.4374
  214MOL0     C28144   7.459   1.965   3.038 -0.8768 -1.2322 -0.1899
  214MOL0     C28145   7.334   1.912   2.988 -0.4864 -0.3587 -0.0280
  214MOL0     O28146   7.309   1.780   3.005  0.0920 -0.0077 -0.6282
  214MOL0     C28147   7.205   1.715   2.938 -0.2869 -0.4397 -0.3798
  214MOL0     C28148   7.076   1.772   2.949  0.4088  0.5806 -0.3386
  214MOL0     C28149   6.974   1.691   2.888 -0.2711 -0.0506 -0.6235
  214MOL0     C28150   6.999   1.583   2.801  0.3882 -0.5826  0.1371
  214MOL0     O28151   6.898   1.512   2.731 -0.4535 -0.7514 -0.1118
  214MOL0     C28152   6.793   1.591   2.677  0.0190 -0.2440  1.2812
  214MOL0     C28153   6.668   1.493   2.664 -0.7473  1.3340 -0.9019
  214MOL0     C28154   6.654   1.415   2.799  0.6816  0.4866  0.2757
  214MOL0     C28155   6.523   1.327   2.812  0.1884  0.5707 -0.3929
  214MOL0     C28156   6.493   1.225   2.702 -0.8766 -0.7971  0.4140
  214MOL0     C28157   6.622   1.131   2.696 -0.3206  0.0478 -0.6377
  214MOL0     C28158   6.644   1.053   2.823 -0.2021  0.2207 -0.8249
  214MOL0     C28159   6.734   0.927   2.794 -1.0987  0.2896  0.4453
  214MOL0    Cl28160   6.800   0.880   2.956 -0.0845  0.7785  0.2824
  214MOL0     C28161   7.125   1.526   2.801 -0.0242 -0.0122  0.1974
  214MOL0     C28162   7.234   1.591   2.871 -0.5413  0.1805  0.7348
  214MOL0     O28163   7.261   1.989   2.928  0.5155 -0.0114 -0.3050
  214MOL0     C28164   7.538   1.874   3.119  0.3979 -0.5126  0.5126
  214MOL0     C28165   7.656   1.920   3.171 -0.0638  1.3633  0.5167
  214MOL0     N28166   8.405   2.039   2.945  0.1001 -0.1535  0.3715
  214MOL0     N28167   8.512   2.004   3.007 -0.3978  0.2255  0.7133
  214MOL0     C28168   7.875   1.500   3.244 -1.6509  0.1132 -0.0855
  214MOL0     C28169   7.787   1.458   3.348  0.0221  1.2479 -0.4568
  214MOL0     C28170   7.620   1.438   3.779  0.7421 -0.1433  1.1345
  214MOL0     C28171   7.656   1.413   3.908  0.9084 -1.1428  0.3959
  214MOL0     C28172   7.552   1.398   4.002  0.4022 -0.9858  0.8021
  214MOL0     C28173   7.419   1.402   3.967 -0.0886 -0.1275 -0.1930
  214MOL0     O28174   7.314   1.398   4.062  0.2361  0.0206  0.9939
  214MOL0     C28175   7.343   1.419   4.204 -0.2178  0.3529  0.3618
  214MOL0     C28176   7.389   1.559   4.248 -0.0524 -0.0293 -0.3956
  214MOL0     C28177   7.297   1.666   4.185  0.1455  0.0461 -0.0541
  214MOL0     C28178   7.368   1.797   4.193  0.9516 -1.4637  0.5231
  214MOL0     C28179   7.276   1.910   4.164 -0.0810  0.8644  0.2321
  214MOL0     C28180   7.187   1.998   4.150  0.0576 -0.0109 -0.0625
  214MOL0     C28181   7.384   1.417   3.835 -0.0500 -0.3830 -0.3763
  214MOL0     C28182   7.485   1.430   3.738 -0.3138  0.1247  0.8713
  214MOL0     H28183   7.831   1.734   3.546  0.0318  1.6443 -0.8958
  214MOL0     H28184   7.984   1.794   3.358  2.2604 -1.1562 -0.3635
  214MOL0     H28185   8.151   1.595   2.994 -0.6671 -0.9297 -0.2112
  214MOL0     H28186   8.057   1.464   3.069 -0.2358  0.2319 -0.1657
  214MOL0     H28187   8.300   1.474   3.153 -0.4818  0.2725 -0.7026
  214MOL0     H28188   8.201   1.505   3.287  3.4386  2.2190  2.2366
  214MOL0     H28189   8.254   1.759   3.236 -1.7084  0.5220 -0.6651
  214MOL0     H28190   8.353   1.699   3.108 -1.6683  2.2751  0.2687
  214MOL0     H28191   8.371   1.627   3.410 -0.3498 -3.4227 -0.3876
  214MOL0     H28192   8.475   1.557   3.283  1.4374  0.4536  2.8447
  214MOL0     H28193   8.578   1.777   3.231 -0.3237  0.2961 -0.0164
  214MOL0     H28194   8.615   1.722   3.388 -1.4183 -0.4211  2.7932
  214MOL0     H28195   8.468   1.883   3.485  1.9245 -1.3826 -0.7395
  214MOL0     H28196   8.392   1.918   3.331  1.8620  1.4116 -1.6359
  214MOL0     H28197   8.540   2.109   3.404  0.4231 -0.2254  1.4286
  214MOL0     H28198   8.680   1.997   3.422  1.0723 -0.5149 -2.8675
  214MOL0     H28199   8.683   1.950   3.181  0.3038 -0.8262  0.6677
  214MOL0     H28200   8.701   2.117   3.221  0.3561  0.0589 -3.0095
  214MOL0     H28201   8.377   2.222   3.218  0.8490  0.7828 -1.0688
  214MOL0     H28202   8.199   2.174   2.874  2.3265  1.1188 -0.3074
  214MOL0     H28203   8.237   2.318   2.979 -2.6723  0.2567  2.9954
  214MOL0     H28204   8.022   2.262   3.049 -0.4207  0.6677  0.9479
  214MOL0     H28205   8.141   2.207   3.170 -1.1991 -1.4737 -0.0803
  214MOL0     H28206   8.005   2.026   2.963  1.4633 -2.5836  0.5706
  214MOL0     H28207   8.118   1.964   3.074  1.4303 -0.8994 -1.2820
  214MOL0     H28208   7.978   2.028   3.275 -3.6753  0.0419  1.9063
  214MOL0     H28209   7.925   1.913   3.177  2.5971 -0.6022  3.7120
  214MOL0     H28210   7.624   2.255   3.093 -1.5077 -0.1534  1.8435
  214MOL0     H28211   7.421   2.172   2.971 -1.2373 -0.1139  2.5352
  214MOL0     H28212   7.051   1.866   2.997  1.4684  0.8743 -0.3465
  214MOL0     H28213   6.874   1.729   2.908 -1.4156 -1.7546 -2.5757
  214MOL0     H28214   6.820   1.632   2.580 -0.4265 -1.1802  0.7543
  214MOL0     H28215   6.759   1.670   2.744 -4.3261 -0.9211  0.1528
  214MOL0     H28216   6.680   1.425   2.580  0.3163  1.2562 -0.7032
  214MOL0     H28217   6.573   1.547   2.666 -1.7881 -0.3789  1.6156
  214MOL0     H28218   6.627   1.489   2.874 -3.7839 -0.2929 -0.2418
  214MOL0     H28219   6.735   1.349   2.831  0.1980  0.4202  1.4152
  214MOL0     H28220   6.508   1.272   2.905 -0.7901  1.9447  0.2806
  214MOL0     H28221   6.435   1.391   2.812 -0.1119  0.2310  1.7476
  214MOL0     H28222   6.478   1.275   2.605 -0.5023  0.0219  0.7703
  214MOL0     H28223   6.405   1.167   2.733 -0.6201 -0.1344  2.4887
  214MOL0     H28224   6.713   1.176   2.654 -1.2212 -0.8995 -3.9074
  214MOL0     H28225   6.596   1.060   2.617 -1.4993  1.8641 -1.9667
  214MOL0     H28226   6.711   1.120   2.877  0.1317  0.5806 -1.6718
  214MOL0     H28227   6.555   1.035   2.884  1.9243 -2.8941  1.6541
  214MOL0     H28228   6.817   0.951   2.727  0.3901  1.3494  2.5816
  214MOL0     H28229   6.680   0.843   2.748  0.6356 -2.8225  3.5396
  214MOL0     H28230   7.122   1.426   2.760 -0.6465  0.0136  0.1709
  214MOL0     H28231   7.330   1.542   2.868  0.1673  1.5544 -0.3234
  214MOL0     H28232   7.523   1.767   3.132 -0.4126 -0.7113 -1.6096
  214MOL0     H28233   7.726   1.854   3.222  0.3623 -0.8929 -2.6456
  214MOL0     H28234   7.884   1.426   3.164 -3.6112 -0.9739  0.6172
  214MOL0     H28235   7.740   1.360   3.348  1.9559  0.2509 -0.5720
  214MOL0     H28236   7.761   1.400   3.934  1.7534  3.5845  0.1912
  214MOL0     H28237   7.572   1.364   4.103 -1.3914 -2.7878  0.6049
  214MOL0     H28238   7.413   1.345   4.244  0.1422 -0.1284 -1.0888
  214MOL0     H28239   7.247   1.414   4.256  0.1199 -1.7636  0.8633
  214MOL0     H28240   7.390   1.571   4.357 -0.7721  2.3118 -0.6002
  214MOL0     H28241   7.489   1.582   4.212 -1.0262  0.5905 -2.9313
  214MOL0     H28242   7.212   1.668   4.254  1.8237  0.1005  2.1268
  214MOL0     H28243   7.273   1.644   4.080  2.0269 -0.9431 -0.3203
  214MOL0     H28244   7.413   1.805   4.292  1.5928  0.1102  0.1279
  214MOL0     H28245   7.433   1.809   4.106 -3.7318  2.2235 -3.0823
  214MOL0     H28246   7.103   2.058   4.121  1.3909  2.2271  0.4862
  214MOL0     H28247   7.276   1.415   3.822 -0.0248  0.2916 -0.7488
  214MOL0     H28248   7.457   1.430   3.634 -0.8440 -0.4585  1.0013
  215MOL0     O28249   4.842  10.794   8.151 -0.1242  0.6093 -0.1103
  215MOL0     C28250   4.737  10.834   8.107  0.1856  0.3813  0.0624
  215MOL0     O28251   4.719  10.947   8.033 -0.1281  0.0118 -0.5651
  215MOL0     C28252   4.830  11.007   7.961  0.2828  0.5699 -0.4182
  215MOL0     C28253   4.973  10.981   7.958  0.0258  0.2270  0.0367
  215MOL0     C28254   5.050  11.059   7.866  0.2132 -0.0932 -0.6656
  215MOL0     C28255   4.990  11.146   7.780  0.5777  0.4278 -0.1976
  215MOL0     O28256   5.047  11.209   7.672  0.9710 -0.5269  0.3970
  215MOL0     C28257   5.171  11.154   7.626 -0.4769  0.3258 -0.3524
  215MOL0     C28258   5.183  11.200   7.489 -0.3059 -0.6980 -0.5835
  215MOL0     C28259   5.193  11.354   7.486 -0.2689  0.1796  0.8704
  215MOL0     C28260   5.183  11.393   7.342  0.4541 -0.0785 -0.3979
  215MOL0     C28261   5.202  11.547   7.299  0.7533 -0.1170 -0.5045
  215MOL0     C28262   5.334  11.600   7.244 -0.2513  0.4691 -0.3826
  215MOL0     C28263   5.464  11.538   7.311 -0.3567  0.8937  0.1543
  215MOL0     C28264   5.601  11.575   7.252 -0.3094 -0.4945  0.6918
  215MOL0     N28265   5.636  11.519   7.116  0.0003 -0.1714  0.3506
  215MOL0     C28266   5.570  11.422   7.032  0.4798  0.3958  0.5433
  215MOL0     C28267   5.654  11.393   6.931  0.2964  0.1618  0.2699
  215MOL0     C28268   5.629  11.312   6.804 -0.8865 -0.4574  0.1855
  215MOL0     C28269   5.766  11.275   6.729 -0.3256  0.2749 -0.1106
  215MOL0     C28270   5.751  11.208   6.591 -0.3660 -0.2947  0.5103
  215MOL0     C28271   5.638  11.108   6.573  0.1319 -0.3478  0.5038
  215MOL0     O28272   5.645  11.062   6.438  0.1601 -0.0875  0.3445
  215MOL0     C28273   5.696  10.934   6.424 -0.0496 -0.0799 -0.1240
  215MOL0     C28274   5.830  10.904   6.435  0.4232 -0.6302 -0.8633
  215MOL0     C28275   5.872  10.777   6.407 -0.1036 -0.2725  0.2274
  215MOL0     C28276   5.781  10.675   6.375 -0.7140 -0.1964 -0.2676
  215MOL0     C28277   5.831  10.535   6.354  0.4587 -0.5093 -0.3968
  215MOL0     O28278   5.943  10.484   6.415  0.4477  0.5955 -0.2782
  215MOL0     C28279   5.982  10.356   6.381  0.1104 -0.0997  0.4869
  215MOL0     C28280   6.020  10.269   6.481  0.7492 -0.3623  0.1365
  215MOL0     C28281   6.062  10.133   6.443 -1.0340 -0.0055 -0.3600
  215MOL0     C28282   6.041  10.070   6.319  1.0823  0.2116  0.6414
  215MOL0     O28283   6.048   9.936   6.310 -0.1542  0.4605  0.0322
  215MOL0     C28284   5.963   9.873   6.213  0.4158  0.2454  0.3220
  215MOL0     C28285   5.887   9.771   6.299 -0.7998 -0.3666  0.4080
  215MOL0     C28286   5.766   9.827   6.366  1.2824  0.5165 -0.5083
  215MOL0     C28287   5.701   9.711   6.453  0.5219 -0.4617 -0.1965
  215MOL0     C28288   5.576   9.759   6.533  0.0795  0.4140  0.2627
  215MOL0     C28289   5.597   9.889   6.617  0.8368  0.7504  0.0774
  215MOL0     C28290   5.718   9.892   6.711 -1.1569 -0.1982  0.1853
  215MOL0     C28291   5.787  10.031   6.713 -0.3398  1.4124  0.0335
  215MOL0    Cl28292   5.961  10.029   6.746  0.1611 -0.1136 -0.0154
  215MOL0     C28293   6.002  10.155   6.216 -0.9808 -0.1119 -0.5726
  215MOL0     C28294   5.981  10.295   6.244  0.0827  0.2385 -0.3537
  215MOL0     O28295   5.759  10.479   6.276  0.1937  0.3176 -0.1242
  215MOL0     C28296   5.645  10.703   6.386  0.0737  0.0542  1.1085
  215MOL0     C28297   5.598  10.841   6.404 -0.4244  0.3431 -0.1088
  215MOL0     N28298   5.776  11.463   6.952 -0.4457 -0.3500 -0.4356
  215MOL0     N28299   5.760  11.542   7.059  0.1008  0.4451 -0.3201
  215MOL0     C28300   4.847  11.153   7.778  0.0428 -1.2858  0.4799
  215MOL0     C28301   4.766  11.092   7.868 -0.4980 -0.0016 -0.9104
  215MOL0     C28302   4.616  10.781   8.168  0.7398 -0.4388  0.6355
  215MOL0     C28303   4.627  10.682   8.265 -0.1059  0.0675 -0.8278
  215MOL0     C28304   4.515  10.612   8.312  0.2070  0.2336 -0.6659
  215MOL0     C28305   4.391  10.630   8.254 -0.2174 -0.8085  0.8240
  215MOL0     O28306   4.278  10.561   8.277  0.9508 -0.2569 -0.7355
  215MOL0     C28307   4.275  10.430   8.334 -1.7822  0.1315 -0.2665
  215MOL0     C28308   4.136  10.404   8.401 -0.0399  0.6286 -0.0690
  215MOL0     C28309   4.097  10.493   8.518  0.0711  0.1741  0.0901
  215MOL0     C28310   3.936  10.490   8.553 -0.5210  0.6163  0.4509
  215MOL0     C28311   3.909  10.561   8.670 -0.8063 -0.2760 -0.5097
  215MOL0     C28312   3.872  10.615   8.778  1.3951 -0.2879  0.6122
  215MOL0     C28313   4.382  10.733   8.157 -0.5713 -0.6083  0.2255
  215MOL0     C28314   4.489  10.804   8.112  0.3190  0.3501  0.5127
  215MOL0     H28315   5.020  10.912   8.027 -1.0011  0.2390  0.7814
  215MOL0     H28316   5.158  11.044   7.869  0.2063 -0.1855  2.6701
  215MOL0     H28317   5.175  11.045   7.623 -0.5554  0.2964 -4.1319
  215MOL0     H28318   5.253  11.194   7.687  0.6865 -0.5971 -1.2609
  215MOL0     H28319   5.110  11.156   7.420  1.1559 -0.6672 -2.2384
  215MOL0     H28320   5.276  11.160   7.447 -0.1005 -0.6457 -0.1786
  215MOL0     H28321   5.290  11.386   7.526  0.7926 -3.0419  1.1711
  215MOL0     H28322   5.110  11.406   7.535 -2.7374 -0.2570 -2.5183
  215MOL0     H28323   5.229  11.327   7.268  1.3436 -1.6340  1.4501
  215MOL0     H28324   5.076  11.371   7.335  0.3128 -1.0287  2.8063
  215MOL0     H28325   5.170  11.604   7.387 -0.0211 -1.9128  0.4253
  215MOL0     H28326   5.134  11.581   7.220  0.6030  0.1703 -0.2573
  215MOL0     H28327   5.325  11.708   7.261  0.0004  0.4088  0.1466
  215MOL0     H28328   5.334  11.603   7.135  1.5111  0.3931 -0.4115
  215MOL0     H28329   5.462  11.555   7.419 -0.8862 -1.3222  0.5502
  215MOL0     H28330   5.465  11.429   7.301 -1.0414  0.9649 -0.7981
  215MOL0     H28331   5.663  11.527   7.328  0.5734  0.6207  0.6956
  215MOL0     H28332   5.626  11.681   7.257 -1.7881 -0.0031 -1.1231
  215MOL0     H28333   5.474  11.375   7.051  1.2870 -2.0281 -0.9179
  215MOL0     H28334   5.575  11.371   6.729  0.2402 -0.6015 -0.7767
  215MOL0     H28335   5.578  11.223   6.842 -0.3182 -0.6591  0.4837
  215MOL0     H28336   5.830  11.215   6.794 -1.3362 -0.6152  0.0887
  215MOL0     H28337   5.823  11.366   6.710 -0.5138  0.3725 -0.2090
  215MOL0     H28338   5.750  11.289   6.518  0.9565 -1.0213 -0.3500
  215MOL0     H28339   5.848  11.161   6.573  1.3697  2.7102  1.4359
  215MOL0     H28340   5.546  11.162   6.595  0.8013  0.7003  0.8039
  215MOL0     H28341   5.645  11.032   6.651 -2.1264 -0.7154  0.4036
  215MOL0     H28342   5.904  10.981   6.454 -0.6758 -0.3882  3.3131
  215MOL0     H28343   5.980  10.767   6.413 -0.1302  0.2978  2.5037
  215MOL0     H28344   6.011  10.305   6.583  1.3992  0.2948 -0.0316
  215MOL0     H28345   6.090  10.075   6.531  4.4208  2.6623  0.0910
  215MOL0     H28346   6.011   9.822   6.129 -0.7482  1.2464 -1.0037
  215MOL0     H28347   5.891   9.943   6.169 -0.3882 -1.3313 -0.9931
  215MOL0     H28348   5.953   9.721   6.371 -0.7274 -1.1638 -0.1959
  215MOL0     H28349   5.856   9.694   6.228 -0.6472 -1.3284  1.3550
  215MOL0     H28350   5.682   9.867   6.309 -0.2513 -0.5593  0.8981
  215MOL0     H28351   5.795   9.906   6.435 -0.8241  2.5329 -1.7725
  215MOL0     H28352   5.649   9.633   6.396 -1.8928  0.7135  0.3029
  215MOL0     H28353   5.781   9.674   6.518  1.7836  2.9619  0.3871
  215MOL0     H28354   5.540   9.692   6.611  1.4771 -3.0017 -1.7730
  215MOL0     H28355   5.493   9.771   6.461  2.5657 -0.0351 -2.9199
  215MOL0     H28356   5.506   9.920   6.669 -0.6236  0.6157 -2.2337
  215MOL0     H28357   5.612   9.969   6.544 -1.2099 -1.3457 -2.8991
  215MOL0     H28358   5.688   9.869   6.813 -0.6231  1.2328  0.6943
  215MOL0     H28359   5.792   9.813   6.691 -0.4495  0.2975  0.7774
  215MOL0     H28360   5.739  10.082   6.797 -0.5495 -0.1609  0.9186
  215MOL0     H28361   5.775  10.095   6.625  3.6733  2.8120  0.2918
  215MOL0     H28362   5.977  10.119   6.116 -2.3444  4.3256 -2.1007
  215MOL0     H28363   5.963  10.367   6.164  1.2323 -1.0972 -1.8861
  215MOL0     H28364   5.575  10.623   6.368  0.8352 -0.2625 -0.6159
  215MOL0     H28365   5.496  10.875   6.417  0.9187  5.2907 -0.4233
  215MOL0     H28366   4.802  11.212   7.698  1.9832 -2.1207 -1.3268
  215MOL0     H28367   4.658  11.102   7.867 -0.5160  1.8054 -5.3551
  215MOL0     H28368   4.723  10.659   8.311  0.1098  1.3119 -0.6310
  215MOL0     H28369   4.526  10.527   8.378 -1.3990  0.0599 -0.5744
  215MOL0     H28370   4.356  10.418   8.407  0.1101  2.7867 -1.7615
  215MOL0     H28371   4.297  10.359   8.254 -1.1347 -3.3347  2.7292
  215MOL0     H28372   4.057  10.431   8.329 -1.4031  2.6157  2.0456
  215MOL0     H28373   4.132  10.299   8.431 -0.2184 -0.7448 -4.1682
  215MOL0     H28374   4.129  10.595   8.497  0.7062  0.1630  0.9597
  215MOL0     H28375   4.146  10.452   8.607  2.0635 -0.4723 -1.2413
  215MOL0     H28376   3.890  10.544   8.470  1.8085 -3.4389 -3.9696
  215MOL0     H28377   3.902  10.386   8.556  1.8984 -0.2258  1.0024
  215MOL0     H28378   3.854  10.671   8.868  2.1910 -1.1970  1.3536
  215MOL0     H28379   4.295  10.758   8.096  2.7258  0.7931 -4.4781
  215MOL0     H28380   4.473  10.880   8.036 -0.8369  0.1575  0.5554
  216MOL0     O28381  10.790   5.361   8.419 -0.1325  0.5018 -0.7628
  216MOL0     C28382  10.869   5.287   8.355  0.1037  0.3877 -0.2671
  216MOL0     O28383  10.870   5.150   8.353  0.5922  0.2844 -0.7064
  216MOL0     C28384  10.784   5.102   8.443 -0.2192 -0.9027 -0.7605
  216MOL0     C28385  10.817   5.114   8.572  1.0637  1.3423  0.6601
  216MOL0     C28386  10.740   5.051   8.672 -1.0855  0.3218  0.8997
  216MOL0     C28387  10.627   4.975   8.646  0.6782 -0.2500  0.2957
  216MOL0     O28388  10.542   4.932   8.746 -0.3094 -0.4591  0.7346
  216MOL0     C28389  10.579   4.940   8.883 -0.0242  1.0457 -0.1330
  216MOL0     C28390  10.448   4.925   8.961 -0.2118  0.9740  0.1100
  216MOL0     C28391  10.448   4.867   9.111 -0.5237  0.7574  0.0082
  216MOL0     C28392  10.348   4.926   9.208  0.4678  0.0693  0.3954
  216MOL0     C28393  10.208   4.879   9.179  0.8062  0.3915  0.8058
  216MOL0     C28394  10.176   4.724   9.166 -1.1057 -0.4027  0.4342
  216MOL0     C28395  10.034   4.709   9.202 -0.2549  0.6055 -0.3066
  216MOL0     C28396   9.999   4.683   9.344 -0.6519 -0.6033 -0.7202
  216MOL0     N28397   9.993   4.815   9.420 -1.5734  0.6474  0.5321
  216MOL0     C28398  10.096   4.860   9.505 -0.5053 -0.2401 -1.0631
  216MOL0     C28399  10.035   4.963   9.573 -0.0609 -0.2214  0.4534
  216MOL0     C28400  10.112   5.072   9.641  0.3962 -1.2552  0.1597
  216MOL0     C28401  10.197   5.033   9.760 -0.8875 -0.4603  0.4969
  216MOL0     C28402  10.302   4.920   9.750  0.0767  0.9084 -0.4049
  216MOL0     C28403  10.425   4.951   9.671  0.0244  0.3953  0.0533
  216MOL0     O28404  10.524   4.846   9.723  0.6312  0.6676 -0.0580
  216MOL0     C28405  10.634   4.824   9.658  0.0645  0.0230  0.3189
  216MOL0     C28406  10.717   4.713   9.696  0.2277  0.0061 -0.1313
  216MOL0     C28407  10.827   4.682   9.624 -0.5107  1.1170 -0.2462
  216MOL0     C28408  10.872   4.747   9.512 -0.5437  0.1523  0.3128
  216MOL0     C28409  10.990   4.700   9.441 -0.4431 -1.0598  0.3849
  216MOL0     O28410  11.057   4.581   9.469  0.2821  0.1784  0.3234
  216MOL0     C28411  11.174   4.536   9.416 -0.3005 -0.6848  0.3710
  216MOL0     C28412  11.183   4.394   9.402 -0.0633 -0.9977 -0.1695
  216MOL0     C28413  11.295   4.338   9.343  0.4252 -0.5103  0.3953
  216MOL0     C28414  11.396   4.425   9.285 -0.6576  0.6482 -1.0919
  216MOL0     O28415  11.501   4.366   9.213  0.4484 -1.0995 -0.1022
  216MOL0     C28416  11.564   4.452   9.119  0.0787 -0.3951  0.8116
  216MOL0     C28417  11.515   4.441   8.975  0.8653  0.1970  0.9742
  216MOL0     C28418  11.368   4.465   8.942 -0.6832 -1.0904 -0.6970
  216MOL0     C28419  11.347   4.469   8.789 -0.3581  0.3678  0.7466
  216MOL0     C28420  11.208   4.435   8.729  0.7354  0.9741  0.3364
  216MOL0     C28421  11.128   4.548   8.670  0.0169  0.2880  0.0701
  216MOL0     C28422  11.094   4.655   8.767  0.1000 -0.4250  0.2339
  216MOL0     C28423  10.963   4.736   8.743  0.5972 -0.7742  0.4102
  216MOL0    Cl28424  10.911   4.832   8.891  0.3433 -0.1145  0.0100
  216MOL0     C28425  11.390   4.562   9.318  0.5139 -0.4949 -0.1800
  216MOL0     C28426  11.270   4.617   9.372  0.1651  0.0157  0.2525
  216MOL0     O28427  11.018   4.773   9.348  0.7373 -0.2277 -1.1784
  216MOL0     C28428  10.801   4.869   9.487 -0.0485  0.2523  0.4863
  216MOL0     C28429  10.682   4.903   9.542  0.1213 -0.5126 -0.6511
  216MOL0     N28430   9.902   4.965   9.542  0.1343  0.4228  0.2139
  216MOL0     N28431   9.878   4.879   9.453 -0.0342  0.5418 -0.5655
  216MOL0     C28432  10.594   4.954   8.513 -0.5914 -1.7205 -0.8891
  216MOL0     C28433  10.673   5.020   8.418  0.1614 -0.2623 -0.3520
  216MOL0     C28434  10.978   5.361   8.296 -0.3157  1.0134 -0.5713
  216MOL0     C28435  10.959   5.488   8.254 -0.6022  1.1045 -0.0869
  216MOL0     C28436  11.064   5.575   8.229  0.7206  0.0172  0.7299
  216MOL0     C28437  11.192   5.539   8.243 -1.2206  0.2593 -0.5818
  216MOL0     O28438  11.314   5.617   8.241  0.4550 -0.1166  0.0860
  216MOL0     C28439  11.296   5.760   8.215  0.2167 -0.1192 -0.3774
  216MOL0     C28440  11.417   5.822   8.158  0.6721  0.3162 -0.2268
  216MOL0     C28441  11.415   5.978   8.121  0.3792  0.9946 -0.2240
  216MOL0     C28442  11.550   6.038   8.138  0.6256  0.3402  0.4570
  216MOL0     C28443  11.652   5.964   8.065 -0.0123  0.1840  0.4393
  216MOL0     C28444  11.730   5.915   7.987 -0.1410  0.2624 -0.3105
  216MOL0     C28445  11.216   5.404   8.264 -0.1754 -0.5924 -0.3778
  216MOL0     C28446  11.110   5.316   8.301  0.3541  0.2265 -0.3135
  216MOL0     H28447  10.907   5.167   8.601 -0.6702  4.7739  0.2663
  216MOL0     H28448  10.777   5.084   8.768 -1.5505  2.2038  0.4805
  216MOL0     H28449  10.646   5.024   8.904  0.4487  0.6587 -0.0755
  216MOL0     H28450  10.632   4.850   8.916 -2.1272 -0.2249 -0.0269
  216MOL0     H28451  10.395   4.842   8.914  1.3302  0.6005 -1.0543
  216MOL0     H28452  10.392   5.017   8.940 -0.1882  1.0745  0.4851
  216MOL0     H28453  10.553   4.886   9.134  0.6921  0.3044 -4.2913
  216MOL0     H28454  10.437   4.758   9.121 -0.0998  0.6127 -0.9908
  216MOL0     H28455  10.375   4.909   9.313  3.8390  0.0273 -0.3746
  216MOL0     H28456  10.342   5.033   9.188  0.8886  0.2699  1.2768
  216MOL0     H28457  10.188   4.927   9.083  0.3032 -0.1389  0.6414
  216MOL0     H28458  10.143   4.923   9.256  0.0100  0.2591  0.2196
  216MOL0     H28459  10.238   4.652   9.220  0.2589 -2.2067 -3.2113
  216MOL0     H28460  10.198   4.693   9.064  2.3900  0.2862  0.8581
  216MOL0     H28461   9.973   4.798   9.181 -2.4915 -1.2174 -2.2704
  216MOL0     H28462   9.994   4.632   9.135 -1.4652 -0.5352  1.6166
  216MOL0     H28463  10.075   4.611   9.375 -1.2614 -0.3279  1.5464
  216MOL0     H28464   9.893   4.658   9.338 -1.5504  2.8852 -1.2537
  216MOL0     H28465  10.202   4.838   9.503 -0.3459  0.3477 -4.6189
  216MOL0     H28466  10.028   5.130   9.680 -0.5946 -2.6404  0.1535
  216MOL0     H28467  10.165   5.141   9.574 -0.7780  0.4131  0.8544
  216MOL0     H28468  10.128   5.003   9.839 -0.2577 -0.1775  1.1601
  216MOL0     H28469  10.255   5.118   9.797  0.3752 -0.7531 -0.7158
  216MOL0     H28470  10.329   4.889   9.851 -1.5320  1.2159  0.1617
  216MOL0     H28471  10.249   4.831   9.715 -0.6540  0.3706  1.9322
  216MOL0     H28472  10.463   5.052   9.689 -0.8202  0.0144  6.5043
  216MOL0     H28473  10.411   4.948   9.563  1.6782  0.0482 -0.1690
  216MOL0     H28474  10.686   4.661   9.786  3.5420  1.1281  1.8432
  216MOL0     H28475  10.877   4.593   9.663 -3.6709  0.0078  1.7570
  216MOL0     H28476  11.095   4.337   9.430 -1.8452  1.7782  0.3123
  216MOL0     H28477  11.299   4.230   9.343 -1.4834 -0.6133  0.4190
  216MOL0     H28478  11.663   4.408   9.112 -0.7250 -3.2485  4.3050
  216MOL0     H28479  11.584   4.556   9.147  3.0064  0.0341 -2.3208
  216MOL0     H28480  11.522   4.334   8.951 -3.5186  0.3411 -2.3657
  216MOL0     H28481  11.572   4.494   8.899 -0.8070 -0.0534 -0.5456
  216MOL0     H28482  11.353   4.569   8.971  3.2942  0.2219 -2.5923
  216MOL0     H28483  11.298   4.405   9.001  0.3914  0.2169  2.1171
  216MOL0     H28484  11.386   4.563   8.748  1.1334  0.0639  1.4260
  216MOL0     H28485  11.420   4.398   8.751 -1.1866  0.4409 -1.1153
  216MOL0     H28486  11.157   4.377   8.806 -1.4305  1.7468 -0.4397
  216MOL0     H28487  11.239   4.371   8.646  2.1348  2.1358 -0.0827
  216MOL0     H28488  11.031   4.510   8.637 -0.3434  1.5104 -0.3314
  216MOL0     H28489  11.175   4.592   8.581  0.1011  3.9442  1.7393
  216MOL0     H28490  11.093   4.610   8.866  0.9526 -2.0094 -0.4414
  216MOL0     H28491  11.179   4.723   8.763 -0.8452  0.7754 -0.1835
  216MOL0     H28492  10.883   4.669   8.711 -0.1113  0.3640 -0.2475
  216MOL0     H28493  10.975   4.797   8.653  1.3914  1.6554  2.0515
  216MOL0     H28494  11.463   4.634   9.282 -1.4428  2.0101  0.5709
  216MOL0     H28495  11.275   4.726   9.381  0.4463 -0.1763  4.6201
  216MOL0     H28496  10.842   4.936   9.411  0.4406 -0.2378  0.3123
  216MOL0     H28497  10.633   4.999   9.527 -1.1239 -0.6720  1.8180
  216MOL0     H28498  10.507   4.894   8.488  1.3296 -4.9982 -0.2939
  216MOL0     H28499  10.655   4.986   8.316 -2.2097 -1.3592  0.3535
  216MOL0     H28500  10.862   5.535   8.265 -1.6770 -1.4344  2.8414
  216MOL0     H28501  11.027   5.676   8.213 -0.1219 -0.2077  1.1755
  216MOL0     H28502  11.274   5.817   8.306  3.3540  1.8716 -0.7178
  216MOL0     H28503  11.222   5.792   8.141 -2.6814  3.8038  3.6520
  216MOL0     H28504  11.489   5.806   8.238  1.4517 -0.5005 -1.0684
  216MOL0     H28505  11.444   5.768   8.067  1.7366  0.8599 -0.2451
  216MOL0     H28506  11.340   6.021   8.188 -0.5974 -0.9195 -0.0347
  216MOL0     H28507  11.373   5.993   8.021 -0.6312 -0.6739 -0.0915
  216MOL0     H28508  11.542   6.139   8.096 -0.4896  0.1353  0.1439
  216MOL0     H28509  11.588   6.038   8.240  3.8398  0.7771 -0.6164
  216MOL0     H28510  11.807   5.888   7.918  2.6163  0.7882  2.3279
  216MOL0     H28511  11.315   5.361   8.256 -0.4173 -1.5248  1.1460
  216MOL0     H28512  11.118   5.212   8.328 -1.5456 -0.0960 -0.8771
  217MOL0     O28513   9.955   6.235   1.507 -0.6890  0.5525 -0.5179
  217MOL0     C28514   9.926   6.158   1.412  0.3001  0.9623 -0.4257
  217MOL0     O28515   9.966   6.169   1.278  0.8913 -0.4162 -0.4957
  217MOL0     C28516  10.049   6.273   1.247  0.1242 -0.2943 -0.4397
  217MOL0     C28517  10.011   6.355   1.144  0.2350 -0.1612 -0.0563
  217MOL0     C28518  10.104   6.440   1.084  0.0684 -0.5103 -0.2676
  217MOL0     C28519  10.244   6.450   1.130 -0.2392 -0.5814  0.4978
  217MOL0     O28520  10.326   6.543   1.066  0.2240 -0.7115  0.7860
  217MOL0     C28521  10.453   6.583   1.112  0.0520 -0.2628  0.0427
  217MOL0     C28522  10.460   6.719   1.183 -0.2545  1.1170  0.1183
  217MOL0     C28523  10.428   6.705   1.330 -0.9128 -0.6038 -0.3767
  217MOL0     C28524  10.549   6.673   1.413 -0.1939  0.6509 -0.4169
  217MOL0     C28525  10.509   6.598   1.537  1.2140 -0.1307 -0.0305
  217MOL0     C28526  10.618   6.536   1.622 -0.6373 -0.7895  0.5204
  217MOL0     C28527  10.670   6.623   1.733 -0.2792  0.3723 -0.2654
  217MOL0     C28528  10.593   6.608   1.854 -0.6105 -0.2923 -1.0632
  217MOL0     N28529  10.632   6.690   1.965  0.3671  0.0863 -0.2360
  217MOL0     C28530  10.760   6.704   2.019  0.7021  1.3359 -0.0130
  217MOL0     C28531  10.740   6.779   2.123 -0.7228 -0.1097 -0.8719
  217MOL0     C28532  10.831   6.812   2.234 -0.7066 -0.5014  0.5111
  217MOL0     C28533  10.779   6.791   2.373 -0.0767 -0.7749 -0.0204
  217MOL0     C28534  10.693   6.905   2.430  0.7631  0.7094  0.7693
  217MOL0     C28535  10.684   6.922   2.581 -0.2701 -0.1392  0.1384
  217MOL0     O28536  10.550   6.980   2.611  0.2590  0.5335  0.3044
  217MOL0     C28537  10.555   7.111   2.582  0.1449  0.3924 -0.4528
  217MOL0     C28538  10.597   7.193   2.681  0.2022 -0.5554 -0.2890
  217MOL0     C28539  10.596   7.335   2.656 -0.0594 -0.1656  0.6997
  217MOL0     C28540  10.571   7.377   2.526  0.2216  0.2344  0.4077
  217MOL0     C28541  10.592   7.513   2.481  0.4972 -0.5076 -0.1320
  217MOL0     O28542  10.605   7.598   2.588 -0.0046 -0.2207 -0.1971
  217MOL0     C28543  10.618   7.733   2.590 -0.3213 -0.7376  1.0976
  217MOL0     C28544  10.725   7.795   2.523  1.0830  0.5561 -0.4485
  217MOL0     C28545  10.747   7.930   2.556 -0.7578  1.0776 -0.7523
  217MOL0     C28546  10.661   8.003   2.633  0.7767 -0.5138  0.3037
  217MOL0     O28547  10.687   8.139   2.646 -0.6653 -0.1501  0.3110
  217MOL0     C28548  10.594   8.237   2.675 -0.1210 -0.2402  0.0330
  217MOL0     C28549  10.669   8.371   2.695 -0.5996  0.4542 -0.9571
  217MOL0     C28550  10.560   8.466   2.731 -0.1900 -0.0543 -0.4282
  217MOL0     C28551  10.628   8.575   2.800  0.6337  0.5094 -0.4513
  217MOL0     C28552  10.533   8.688   2.864 -0.5935  0.1845  1.1688
  217MOL0     C28553  10.577   8.734   3.001  0.2199  0.4030  0.3156
  217MOL0     C28554  10.511   8.869   3.026  0.0599 -0.6059 -0.2775
  217MOL0     C28555  10.487   8.909   3.167 -0.3878 -0.0931 -0.3749
  217MOL0    Cl28556  10.378   8.803   3.277  0.0479  0.2189 -0.3963
  217MOL0     C28557  10.544   7.942   2.685  0.1983  0.0197  1.2491
  217MOL0     C28558  10.532   7.807   2.673  0.8041 -0.9719 -0.5107
  217MOL0     O28559  10.598   7.548   2.366 -0.5422 -0.7003  0.3119
  217MOL0     C28560  10.523   7.289   2.436  0.4251  0.4303 -1.1256
  217MOL0     C28561  10.513   7.156   2.457  0.5786  0.5802 -0.6966
  217MOL0     N28562  10.618   6.827   2.125  0.0081  1.0783 -0.7396
  217MOL0     N28563  10.551   6.782   2.026  0.6695 -0.4373 -0.2700
  217MOL0     C28564  10.285   6.367   1.232 -0.3014 -0.2370  0.7434
  217MOL0     C28565  10.183   6.275   1.292 -0.4553 -0.5058 -0.9184
  217MOL0     C28566   9.859   6.036   1.453  0.1449  0.0753 -1.0760
  217MOL0     C28567   9.780   6.030   1.577  0.4246 -0.1688  0.3754
  217MOL0     C28568   9.729   5.903   1.622  0.4078 -0.2992  0.2383
  217MOL0     C28569   9.745   5.786   1.542 -0.1883  0.0039 -0.3946
  217MOL0     O28570   9.696   5.671   1.586  0.5814 -0.0507  0.1147
  217MOL0     C28571   9.677   5.558   1.502  0.5058 -0.0311 -0.4243
  217MOL0     C28572   9.568   5.484   1.577  0.4055  0.3497 -0.6522
  217MOL0     C28573   9.451   5.577   1.618  0.4252  0.8498 -0.1341
  217MOL0     C28574   9.357   5.610   1.506  0.2213 -0.4366  0.1465
  217MOL0     C28575   9.296   5.495   1.432  0.5110  0.0306  0.2726
  217MOL0     C28576   9.232   5.408   1.392  0.7120 -0.2999  0.3516
  217MOL0     C28577   9.818   5.802   1.425  0.6685 -0.5455 -0.8378
  217MOL0     C28578   9.885   5.926   1.390 -0.2905 -0.0753  1.1031
  217MOL0     H28579   9.906   6.352   1.115  0.2513 -4.3035 -0.2138
  217MOL0     H28580  10.081   6.511   1.005 -0.5185 -0.3360  0.0544
  217MOL0     H28581  10.508   6.616   1.023 -0.3372  2.0376  0.5722
  217MOL0     H28582  10.509   6.497   1.150  0.9349 -1.2596 -3.2213
  217MOL0     H28583  10.398   6.787   1.125  1.0756  1.7548 -0.5687
  217MOL0     H28584  10.561   6.759   1.174  0.2280 -0.2730 -1.1357
  217MOL0     H28585  10.349   6.630   1.339 -0.6728 -0.9142 -0.8217
  217MOL0     H28586  10.399   6.808   1.355 -2.7582 -0.7824 -1.5963
  217MOL0     H28587  10.619   6.610   1.357 -0.6138 -1.3039  1.1339
  217MOL0     H28588  10.596   6.767   1.444 -2.4987  1.6729  0.1630
  217MOL0     H28589  10.447   6.511   1.516  1.0037  0.0176 -0.0241
  217MOL0     H28590  10.464   6.678   1.596  2.6286  1.1412 -0.5919
  217MOL0     H28591  10.703   6.528   1.554  1.1954  0.2734  2.5566
  217MOL0     H28592  10.600   6.436   1.664  1.5321 -0.3720  2.6595
  217MOL0     H28593  10.775   6.604   1.758  0.2062  1.8468 -1.0705
  217MOL0     H28594  10.674   6.730   1.712  0.3150  0.6260  1.0581
  217MOL0     H28595  10.592   6.504   1.889  3.3876  0.6092  2.5012
  217MOL0     H28596  10.489   6.634   1.829 -0.9549 -1.8738 -1.3720
  217MOL0     H28597  10.844   6.641   1.993  0.7963  0.5317  1.9772
  217MOL0     H28598  10.864   6.916   2.240 -2.4070 -0.0099  5.1936
  217MOL0     H28599  10.917   6.746   2.218 -0.4515  0.1032 -0.7517
  217MOL0     H28600  10.863   6.794   2.444 -0.9707 -0.9239  1.0793
  217MOL0     H28601  10.729   6.694   2.379 -1.5075 -0.1142 -0.9514
  217MOL0     H28602  10.732   7.005   2.406  0.4858  0.6642  0.1018
  217MOL0     H28603  10.594   6.891   2.386  1.8054 -2.1410 -0.8709
  217MOL0     H28604  10.765   6.983   2.621  0.2315 -0.8963  0.2933
  217MOL0     H28605  10.693   6.823   2.628  2.9461 -0.6817 -1.3758
  217MOL0     H28606  10.640   7.153   2.772 -0.4212  2.2434  1.3704
  217MOL0     H28607  10.629   7.415   2.723  2.2578  3.0591 -3.7427
  217MOL0     H28608  10.779   7.748   2.441  1.3278  2.3013 -1.3408
  217MOL0     H28609  10.839   7.981   2.528 -0.7011  0.0267 -2.6364
  217MOL0     H28610  10.553   8.196   2.768 -2.2684 -0.6394 -1.0358
  217MOL0     H28611  10.515   8.251   2.600 -0.2651 -0.2550  0.1812
  217MOL0     H28612  10.707   8.406   2.599 -2.2310  1.6452 -1.2169
  217MOL0     H28613  10.738   8.351   2.776 -3.2539  2.0818  1.9398
  217MOL0     H28614  10.481   8.435   2.801  3.0324 -0.9589  3.1527
  217MOL0     H28615  10.511   8.510   2.644  0.0848  3.0684  0.8441
  217MOL0     H28616  10.692   8.537   2.881  4.8263  3.4494 -2.0611
  217MOL0     H28617  10.699   8.625   2.734  0.8393  4.0194  2.1093
  217MOL0     H28618  10.431   8.649   2.861  0.5233 -3.1157  1.5209
  217MOL0     H28619  10.530   8.778   2.803 -1.8009  0.4410  1.5704
  217MOL0     H28620  10.685   8.737   3.017 -0.0717 -0.9338  3.2068
  217MOL0     H28621  10.533   8.660   3.069  0.6507 -1.5596 -1.4513
  217MOL0     H28622  10.563   8.952   2.977 -0.7371  1.7129  2.5049
  217MOL0     H28623  10.407   8.853   2.996  0.4883 -2.8519 -0.7403
  217MOL0     H28624  10.445   9.010   3.163 -0.9207 -0.3125 -0.4741
  217MOL0     H28625  10.576   8.933   3.225 -2.4282  1.8357  2.2214
  217MOL0     H28626  10.467   7.996   2.739 -1.1580  0.7040 -1.2125
  217MOL0     H28627  10.461   7.756   2.737 -1.3003 -0.3809 -2.2629
  217MOL0     H28628  10.491   7.329   2.340 -2.4735  4.7887  1.3046
  217MOL0     H28629  10.468   7.099   2.377 -0.2697 -0.6386  0.5862
  217MOL0     H28630  10.390   6.370   1.259 -0.1335  2.1950  0.0777
  217MOL0     H28631  10.214   6.209   1.373  1.0481  2.3849  1.0669
  217MOL0     H28632   9.770   6.119   1.638  1.5143 -1.1440  2.0403
  217MOL0     H28633   9.661   5.889   1.705 -0.0365 -1.1263 -0.2528
  217MOL0     H28634   9.756   5.483   1.488  0.5703  0.0735 -0.6351
  217MOL0     H28635   9.644   5.590   1.403 -1.6749 -1.8473 -0.3771
  217MOL0     H28636   9.541   5.397   1.516 -0.8792  0.2765 -0.0124
  217MOL0     H28637   9.605   5.446   1.673 -1.0754 -0.1765 -0.2652
  217MOL0     H28638   9.473   5.668   1.673  0.2915 -0.3266  1.9566
  217MOL0     H28639   9.394   5.525   1.696  4.3229 -2.4663  0.8356
  217MOL0     H28640   9.268   5.666   1.536 -1.3449 -3.3518  1.3218
  217MOL0     H28641   9.427   5.661   1.439  4.1217 -3.6484  1.3957
  217MOL0     H28642   9.170   5.332   1.348 -1.8499  1.8514 -0.0056
  217MOL0     H28643   9.841   5.710   1.372 -0.2255 -3.2765  3.0883
  217MOL0     H28644   9.941   5.927   1.298 -0.9243 -1.1524  0.6753
  218MOL0     O28645   0.108   1.282   0.434  1.1393 -0.0507 -0.0152
  218MOL0     C28646   0.224   1.308   0.465  0.3955  0.1389  0.1192
  218MOL0     O28647   0.276   1.431   0.495 -0.8241  0.1704  0.2660
  218MOL0     C28648   0.187   1.545   0.485 -0.2874  0.4568  0.4818
  218MOL0     C28649   0.235   1.663   0.559  0.4246  0.2484 -0.6632
  218MOL0     C28650   0.165   1.783   0.547  0.0534  0.0133 -0.6272
  218MOL0     C28651   0.046   1.792   0.475 -0.2559 -0.7298  0.8309
  218MOL0     O28652  -0.036   1.899   0.471 -0.6482 -0.8588  0.8096
  218MOL0     C28653  -0.025   2.006   0.564 -0.2301 -0.1877 -0.4363
  218MOL0     C28654  -0.136   2.103   0.538 -0.2507  0.1569 -0.3493
  218MOL0     C28655  -0.274   2.030   0.517 -0.2823  0.3087 -0.2275
  218MOL0     C28656  -0.390   2.130   0.504  0.0808  0.3034 -0.1089
  218MOL0     C28657  -0.391   2.191   0.363  1.0509  0.1799  0.3172
  218MOL0     C28658  -0.519   2.261   0.357  0.1500  0.4373 -0.0791
  218MOL0     C28659  -0.523   2.350   0.220 -0.3262 -0.3659  0.0980
  218MOL0     C28660  -0.657   2.418   0.204  0.4807 -0.5861 -0.0615
  218MOL0     N28661  -0.655   2.473   0.068  0.2610  0.6802  0.4948
  218MOL0     C28662  -0.612   2.592   0.032 -0.5051  0.5439  0.0211
  218MOL0     C28663  -0.640   2.603  -0.100  0.0859 -0.7457  0.5328
  218MOL0     C28664  -0.612   2.726  -0.193  0.2059 -0.4379  0.0434
  218MOL0     C28665  -0.590   2.692  -0.337  0.5248  0.4112 -0.0062
  218MOL0     C28666  -0.489   2.784  -0.400  0.1638 -0.7977  0.1671
  218MOL0     C28667  -0.541   2.927  -0.402  0.8751 -0.7831 -0.1070
  218MOL0     O28668  -0.667   2.936  -0.476  0.0381 -0.1625 -0.0029
  218MOL0     C28669  -0.709   3.061  -0.506  0.1992  0.8985 -0.1510
  218MOL0     C28670  -0.809   3.070  -0.597  0.6410 -0.5376  0.7430
  218MOL0     C28671  -0.852   3.195  -0.641  0.3458  0.2340 -0.1590
  218MOL0     C28672  -0.823   3.312  -0.579 -0.7277  0.3188 -0.0043
  218MOL0     C28673  -0.880   3.444  -0.613 -0.6347 -0.3377 -0.0970
  218MOL0     O28674  -0.992   3.440  -0.693  0.1449  0.8910 -1.1976
  218MOL0     C28675  -1.087   3.540  -0.710 -1.4342  0.0751 -0.4888
  218MOL0     C28676  -1.175   3.518  -0.815 -0.3094  0.2739  0.0824
  218MOL0     C28677  -1.280   3.600  -0.830 -0.2709  0.4711  0.1600
  218MOL0     C28678  -1.310   3.709  -0.748  0.6127  0.5669  0.8180
  218MOL0     O28679  -1.408   3.788  -0.793  0.4716 -0.4421  0.0281
  218MOL0     C28680  -1.465   3.886  -0.693  0.8351  0.2856  0.8318
  218MOL0     C28681  -1.568   3.970  -0.766 -0.2913 -0.2518  0.4120
  218MOL0     C28682  -1.704   3.905  -0.800  0.2190  0.5320 -0.4029
  218MOL0     C28683  -1.772   3.818  -0.698  0.4684 -0.2117  0.8028
  218MOL0     C28684  -1.920   3.796  -0.719 -0.3485  0.6706  1.0831
  218MOL0     C28685  -1.994   3.737  -0.593  0.9402  0.9279 -1.0712
  218MOL0     C28686  -1.936   3.602  -0.544  0.0390 -0.4099  0.3430
  218MOL0     C28687  -2.015   3.532  -0.424  0.3167  0.1563  0.3319
  218MOL0    Cl28688  -2.192   3.510  -0.446  0.4169 -0.2164 -0.2088
  218MOL0     C28689  -1.219   3.733  -0.644  0.0161 -0.4000  0.4248
  218MOL0     C28690  -1.105   3.656  -0.624  0.0827  0.2221  0.1141
  218MOL0     O28691  -0.823   3.550  -0.577  0.2932  0.6410 -0.8109
  218MOL0     C28692  -0.728   3.302  -0.473  0.0092 -0.6394 -0.5575
  218MOL0     C28693  -0.658   3.182  -0.445  0.3082 -0.3728  0.3967
  218MOL0     N28694  -0.705   2.491  -0.140  0.4498 -0.4236  0.4466
  218MOL0     N28695  -0.711   2.407  -0.048 -0.5655 -0.4276  0.3154
  218MOL0     C28696   0.010   1.685   0.401 -0.1591  0.2804  0.8360
  218MOL0     C28697   0.084   1.565   0.401  0.0152  0.4921  0.7173
  218MOL0     C28698   0.326   1.193   0.456  0.1516 -0.3597  0.4291
  218MOL0     C28699   0.280   1.071   0.407 -0.5962  0.5193 -0.5392
  218MOL0     C28700   0.371   0.964   0.395 -0.0837  0.9031 -0.9537
  218MOL0     C28701   0.498   0.970   0.455  0.6309  0.9928  0.1976
  218MOL0     O28702   0.573   0.855   0.450  0.1579 -0.3264  0.3689
  218MOL0     C28703   0.704   0.850   0.496  0.2351 -0.4867  0.2156
  218MOL0     C28704   0.781   0.728   0.478  0.1985  0.3141 -0.1319
  218MOL0     C28705   0.931   0.756   0.473 -0.3363  1.1103  0.1769
  218MOL0     C28706   1.006   0.619   0.493 -0.6374  0.2976 -0.0446
  218MOL0     C28707   1.054   0.590   0.634  0.6796 -0.5604 -0.0649
  218MOL0     C28708   1.077   0.557   0.747  0.3695  0.2272 -0.1801
  218MOL0     C28709   0.536   1.094   0.501  0.4058  0.9644 -0.3944
  218MOL0     C28710   0.454   1.214   0.495  0.2342 -0.7765  0.0384
  218MOL0     H28711   0.326   1.662   0.618 -1.2981 -1.3717  2.1930
  218MOL0     H28712   0.207   1.870   0.597 -1.5617 -1.0231  2.8040
  218MOL0     H28713   0.075   2.050   0.576 -0.4703  0.1289  0.5461
  218MOL0     H28714  -0.031   1.944   0.654  2.7764 -2.5567 -1.6936
  218MOL0     H28715  -0.105   2.160   0.450 -0.6833 -1.6499 -1.7371
  218MOL0     H28716  -0.143   2.181   0.615 -0.8701  1.0424 -1.2661
  218MOL0     H28717  -0.302   1.981   0.612  0.5934  1.8958  0.8900
  218MOL0     H28718  -0.262   1.957   0.436 -0.2981  1.2882 -1.1227
  218MOL0     H28719  -0.478   2.066   0.506  2.0394 -2.6439 -0.8787
  218MOL0     H28720  -0.397   2.200   0.588 -1.0341  0.7240 -0.5427
  218MOL0     H28721  -0.398   2.122   0.278  1.2348  0.9561 -0.3362
  218MOL0     H28722  -0.315   2.267   0.344  1.3455  0.2794  1.7848
  218MOL0     H28723  -0.537   2.321   0.447 -0.2421  1.1618 -0.6237
  218MOL0     H28724  -0.594   2.182   0.354 -1.1107  1.5706  0.4047
  218MOL0     H28725  -0.440   2.422   0.218 -0.0387 -0.6729  0.6399
  218MOL0     H28726  -0.506   2.278   0.140 -1.3503 -0.6913  0.1642
  218MOL0     H28727  -0.658   2.493   0.284 -1.2132  1.0343 -1.5103
  218MOL0     H28728  -0.737   2.343   0.209 -0.7189  0.6810  0.5218
  218MOL0     H28729  -0.566   2.668   0.094  0.0750 -0.0344  0.3094
  218MOL0     H28730  -0.526   2.787  -0.162 -1.4295  2.1659 -0.1848
  218MOL0     H28731  -0.702   2.787  -0.181  0.6126  1.0044 -3.2217
  218MOL0     H28732  -0.687   2.696  -0.388 -2.6956 -0.7235  5.2236
  218MOL0     H28733  -0.560   2.587  -0.350 -0.7703  0.0469 -0.2032
  218MOL0     H28734  -0.401   2.776  -0.336  1.6703 -2.2984 -1.9416
  218MOL0     H28735  -0.463   2.748  -0.500 -1.0414 -4.3660  0.9786
  218MOL0     H28736  -0.473   2.991  -0.460  0.2923 -2.6474 -3.0879
  218MOL0     H28737  -0.548   2.965  -0.300 -1.0809 -0.4037 -0.3413
  218MOL0     H28738  -0.855   2.982  -0.638 -1.3209  0.9588 -0.4264
  218MOL0     H28739  -0.931   3.185  -0.715  0.3268  0.2025 -0.1334
  218MOL0     H28740  -1.155   3.436  -0.884 -1.0780  0.3015 -0.1830
  218MOL0     H28741  -1.335   3.594  -0.923  0.3256  3.1945 -0.4431
  218MOL0     H28742  -1.380   3.948  -0.662  1.2177  0.1188  0.1494
  218MOL0     H28743  -1.505   3.821  -0.615 -0.3082  1.6597  1.4203
  218MOL0     H28744  -1.532   4.016  -0.858 -0.9662 -0.7738 -0.1217
  218MOL0     H28745  -1.592   4.058  -0.705  0.5124 -1.4108  2.5129
  218MOL0     H28746  -1.681   3.832  -0.878 -0.6901 -4.5088  3.4805
  218MOL0     H28747  -1.784   3.967  -0.841 -2.0094 -2.2583 -0.6612
  218MOL0     H28748  -1.719   3.722  -0.696 -0.6425 -0.8393  2.2812
  218MOL0     H28749  -1.765   3.878  -0.607 -2.7877  1.4381  0.1193
  218MOL0     H28750  -1.927   3.730  -0.806  5.7465 -1.6252  1.8168
  218MOL0     H28751  -1.967   3.894  -0.731 -1.4636  0.4123  3.0169
  218MOL0     H28752  -2.103   3.728  -0.603  0.8513  1.2911 -0.4753
  218MOL0     H28753  -1.965   3.808  -0.515  2.6537  0.8831 -1.6239
  218MOL0     H28754  -1.938   3.524  -0.620 -0.1764 -0.5408  0.4824
  218MOL0     H28755  -1.831   3.617  -0.515  0.8701 -0.1614 -2.4893
  218MOL0     H28756  -1.994   3.581  -0.329 -1.1845  1.3133  0.1055
  218MOL0     H28757  -1.986   3.427  -0.411 -1.1923  0.0509  4.1052
  218MOL0     H28758  -1.230   3.812  -0.570 -2.4207 -0.3737  0.1205
  218MOL0     H28759  -1.037   3.691  -0.547  1.1195 -0.2651 -0.5626
  218MOL0     H28760  -0.696   3.395  -0.428  2.1639 -1.9091  0.6723
  218MOL0     H28761  -0.581   3.179  -0.368  1.3377  4.3781 -0.1629
  218MOL0     H28762  -0.078   1.699   0.339 -0.0550  0.6050  0.7617
  218MOL0     H28763   0.062   1.476   0.343 -1.0987 -1.6942  4.1684
  218MOL0     H28764   0.181   1.053   0.369 -0.7412 -3.7815  1.2802
  218MOL0     H28765   0.323   0.876   0.354 -0.9949  0.5799  0.7106
  218MOL0     H28766   0.716   0.881   0.601  0.0253 -1.9321  0.6845
  218MOL0     H28767   0.757   0.932   0.446 -2.7791  0.8956 -0.9275
  218MOL0     H28768   0.750   0.654   0.553 -0.2153 -2.0351 -2.4594
  218MOL0     H28769   0.744   0.686   0.384 -0.1755 -2.9386  1.3152
  218MOL0     H28770   0.954   0.821   0.557 -0.6159  0.2287  0.9588
  218MOL0     H28771   0.965   0.782   0.372 -1.5884 -4.0626 -1.9075
  218MOL0     H28772   0.938   0.535   0.475  2.2836 -1.9208 -1.7408
  218MOL0     H28773   1.081   0.609   0.414 -1.7762  0.0858 -1.1346
  218MOL0     H28774   1.101   0.528   0.847 -3.1128  1.0573  1.0111
  218MOL0     H28775   0.634   1.110   0.545  0.2858 -0.0474  0.2666
  218MOL0     H28776   0.487   1.311   0.529 -0.4405 -0.8230  0.8455
  219MOL0     O28777   9.511   5.625   8.505 -0.6551 -0.9541 -0.3346
  219MOL0     C28778   9.434   5.597   8.410 -0.5631  0.2915 -0.3422
  219MOL0     O28779   9.309   5.639   8.393  0.1047  0.4741  0.3387
  219MOL0     C28780   9.205   5.668   8.484 -0.0338 -0.4209 -0.0477
  219MOL0     C28781   9.090   5.726   8.423  0.8409  0.7577 -0.1291
  219MOL0     C28782   8.985   5.768   8.502  0.2495  1.5308  0.2582
  219MOL0     C28783   8.996   5.764   8.642  0.2076 -0.9603  0.3516
  219MOL0     O28784   8.902   5.841   8.719  0.6984 -0.4593 -0.2633
  219MOL0     C28785   8.929   5.890   8.852 -0.0783 -0.1640 -0.3734
  219MOL0     C28786   8.794   5.948   8.911  0.0938  0.5129 -0.1591
  219MOL0     C28787   8.770   6.100   8.860 -0.0127  0.3969  0.0333
  219MOL0     C28788   8.644   6.167   8.923  0.6501  0.1470  0.2038
  219MOL0     C28789   8.585   6.295   8.850  0.6313 -0.6308  0.0064
  219MOL0     C28790   8.660   6.419   8.889 -1.0454  0.3672 -0.4045
  219MOL0     C28791   8.592   6.549   8.837  0.4753 -0.0535  0.0590
  219MOL0     C28792   8.680   6.670   8.883 -0.6626  0.9263 -0.0425
  219MOL0     N28793   8.812   6.684   8.812  0.0886 -0.2346 -0.5114
  219MOL0     C28794   8.837   6.716   8.681 -0.8782  0.0851 -0.6974
  219MOL0     C28795   8.971   6.683   8.676  2.1821  0.3615 -1.1841
  219MOL0     C28796   9.046   6.700   8.553  0.2015  0.0885  0.4060
  219MOL0     C28797   9.004   6.604   8.449  0.3714  0.5044 -0.4418
  219MOL0     C28798   9.053   6.638   8.311  1.4998 -0.0848 -0.3141
  219MOL0     C28799   9.206   6.616   8.280  0.4860 -1.3641  0.1136
  219MOL0     O28800   9.242   6.480   8.305 -0.4998 -0.0338  0.4492
  219MOL0     C28801   9.376   6.458   8.298  1.1528  0.6984 -0.1228
  219MOL0     C28802   9.481   6.538   8.232  0.2892  0.4402 -0.1424
  219MOL0     C28803   9.617   6.508   8.259  0.0938 -0.4879  0.3573
  219MOL0     C28804   9.656   6.397   8.331 -0.3073  0.6176 -0.1924
  219MOL0     C28805   9.796   6.360   8.347 -0.1983  0.2332  1.0542
  219MOL0     O28806   9.818   6.232   8.394 -0.3177 -0.0933  0.3328
  219MOL0     C28807   9.947   6.186   8.387 -0.6574 -0.9382  0.5211
  219MOL0     C28808  10.026   6.186   8.498 -0.5764  0.1653  0.0023
  219MOL0     C28809  10.163   6.155   8.480 -0.3745 -0.7958  0.2130
  219MOL0     C28810  10.218   6.125   8.353 -0.0662 -0.4103  0.1145
  219MOL0     O28811  10.355   6.103   8.335 -0.2927  0.1092 -0.6096
  219MOL0     C28812  10.448   6.168   8.419  0.3031 -0.3486  0.2171
  219MOL0     C28813  10.548   6.242   8.330  1.1669 -0.2400  0.0357
  219MOL0     C28814  10.620   6.125   8.254 -0.5872 -0.1592  0.2489
  219MOL0     C28815  10.732   6.185   8.160 -0.1836  0.5321 -1.3819
  219MOL0     C28816  10.785   6.072   8.072  0.3722 -0.4919 -0.0686
  219MOL0     C28817  10.919   6.007   8.121  0.3530 -0.1037 -0.1392
  219MOL0     C28818  11.035   6.116   8.095  0.8968  0.9825 -0.6051
  219MOL0     C28819  11.070   6.134   7.959 -0.2911  0.0877  0.0777
  219MOL0    Cl28820  11.130   5.995   7.868  0.1399 -0.0871  0.3411
  219MOL0     C28821  10.137   6.111   8.241  0.4282  1.4690  0.9131
  219MOL0     C28822   9.995   6.138   8.264 -0.4003  0.6517  1.0166
  219MOL0     O28823   9.882   6.439   8.312  1.0164 -0.0748  0.0458
  219MOL0     C28824   9.551   6.317   8.383 -0.4930  0.1553 -0.3555
  219MOL0     C28825   9.415   6.339   8.369 -0.2284 -0.1490 -0.8791
  219MOL0     N28826   9.024   6.638   8.791  0.2367  0.2173 -0.3364
  219MOL0     N28827   8.923   6.645   8.875  0.2812 -0.3370 -0.8893
  219MOL0     C28828   9.109   5.703   8.704 -0.7817 -0.6830  0.1861
  219MOL0     C28829   9.219   5.667   8.619 -0.0658 -0.8430  0.1586
  219MOL0     C28830   9.495   5.505   8.299  1.1059  0.2777 -0.1273
  219MOL0     C28831   9.628   5.506   8.273 -0.0749 -0.2736 -0.4809
  219MOL0     C28832   9.690   5.431   8.181 -0.1390 -0.1220  0.5482
  219MOL0     C28833   9.612   5.346   8.104  0.6619 -0.0036  0.9242
  219MOL0     O28834   9.674   5.255   8.021  0.0010 -0.1247 -0.1065
  219MOL0     C28835   9.590   5.189   7.925 -0.2523 -0.7749 -0.1931
  219MOL0     C28836   9.684   5.100   7.848  0.7107 -0.1030 -0.2654
  219MOL0     C28837   9.627   5.052   7.714 -0.0181  0.2983  0.3308
  219MOL0     C28838   9.623   5.169   7.610  0.0558 -0.2230  1.0920
  219MOL0     C28839   9.535   5.128   7.503  0.3122 -0.0555 -0.1351
  219MOL0     C28840   9.458   5.091   7.413 -0.0030 -0.1195 -0.3524
  219MOL0     C28841   9.473   5.355   8.116  0.3033  0.0090  1.1446
  219MOL0     C28842   9.412   5.435   8.212 -0.8691 -0.2270 -0.2474
  219MOL0     H28843   9.073   5.749   8.318 -1.3128  2.1841  0.4557
  219MOL0     H28844   8.894   5.808   8.458 -1.6136 -2.0577  0.4364
  219MOL0     H28845   9.018   5.954   8.848  0.3533 -0.7445 -0.3310
  219MOL0     H28846   8.955   5.808   8.920 -0.3580 -1.4396 -1.7253
  219MOL0     H28847   8.810   5.950   9.020  0.2625 -1.6395 -0.1079
  219MOL0     H28848   8.704   5.887   8.899  1.7511 -1.6423 -2.6260
  219MOL0     H28849   8.754   6.094   8.752  0.5090  1.5608 -0.1278
  219MOL0     H28850   8.863   6.156   8.871 -0.3065  1.0844 -0.8490
  219MOL0     H28851   8.565   6.092   8.935 -2.6085  3.3539  0.8064
  219MOL0     H28852   8.679   6.193   9.023 -0.3843 -0.3873  0.7170
  219MOL0     H28853   8.478   6.293   8.875  0.4538 -3.1642 -0.7309
  219MOL0     H28854   8.591   6.307   8.742  1.9672 -0.7417  0.0548
  219MOL0     H28855   8.765   6.398   8.864  0.3048  2.0551  3.1009
  219MOL0     H28856   8.662   6.422   8.999  1.7140  2.9453 -0.3813
  219MOL0     H28857   8.562   6.542   8.732  0.5711 -3.5975  0.1329
  219MOL0     H28858   8.494   6.555   8.885 -0.7675 -1.6533 -2.1021
  219MOL0     H28859   8.708   6.646   8.986  2.2624 -2.5841 -1.4218
  219MOL0     H28860   8.629   6.766   8.870 -0.0498  1.0184 -2.1431
  219MOL0     H28861   8.769   6.750   8.603 -3.0541  0.0700  1.0916
  219MOL0     H28862   9.146   6.665   8.582  0.3100  1.1195  1.3508
  219MOL0     H28863   9.045   6.801   8.512  2.4176  1.0723  2.5461
  219MOL0     H28864   8.895   6.609   8.440  0.5142  1.8280 -1.7193
  219MOL0     H28865   9.042   6.504   8.470 -0.5818  0.0468 -0.8595
  219MOL0     H28866   8.995   6.569   8.248  0.0100  0.8833 -0.0578
  219MOL0     H28867   9.015   6.734   8.275 -0.2703 -1.0786 -1.2273
  219MOL0     H28868   9.268   6.682   8.341 -1.5579  1.9797 -1.1240
  219MOL0     H28869   9.213   6.654   8.178 -4.4412  3.8109  1.1582
  219MOL0     H28870   9.455   6.621   8.166 -1.7355 -0.8441 -1.0780
  219MOL0     H28871   9.701   6.559   8.212 -0.4286 -1.5709 -1.8639
  219MOL0     H28872   9.988   6.206   8.597 -0.5848  0.2468 -0.0178
  219MOL0     H28873  10.227   6.156   8.567 -0.9905  1.6677  0.6956
  219MOL0     H28874  10.493   6.096   8.488  1.6006  0.3402  0.1264
  219MOL0     H28875  10.403   6.247   8.480  0.2470  0.1323 -0.4348
  219MOL0     H28876  10.621   6.305   8.382  3.5549 -1.2565 -1.8744
  219MOL0     H28877  10.492   6.293   8.251  1.7532 -1.4289 -1.1681
  219MOL0     H28878  10.547   6.062   8.202  0.2257  0.2071 -1.4042
  219MOL0     H28879  10.670   6.060   8.326 -1.8264 -1.7855 -0.3008
  219MOL0     H28880  10.700   6.262   8.089  0.2206  0.4727 -1.6301
  219MOL0     H28881  10.803   6.240   8.222 -3.1338  0.8581  2.0095
  219MOL0     H28882  10.778   6.096   7.965 -0.8415  0.0566  0.1121
  219MOL0     H28883  10.713   5.989   8.071 -1.8586  1.2654  1.7479
  219MOL0     H28884  10.923   5.909   8.072 -3.9246 -0.0210 -1.0613
  219MOL0     H28885  10.910   5.980   8.227 -1.1457 -1.3726 -0.5565
  219MOL0     H28886  11.001   6.209   8.142 -0.7138  0.5487 -0.8544
  219MOL0     H28887  11.125   6.082   8.148 -0.7169  0.2316  1.7888
  219MOL0     H28888  11.144   6.215   7.967  0.0961  0.4136 -4.4433
  219MOL0     H28889  10.985   6.164   7.897 -0.4849 -1.4960 -0.4625
  219MOL0     H28890  10.189   6.090   8.148  1.3067  2.9648  1.0248
  219MOL0     H28891   9.923   6.151   8.184 -1.7423  2.9141  2.4798
  219MOL0     H28892   9.580   6.232   8.444  2.3957  0.9517 -0.4754
  219MOL0     H28893   9.348   6.270   8.419 -1.4303  2.3228  1.1657
  219MOL0     H28894   9.108   5.699   8.813 -1.6212 -2.5419  0.1415
  219MOL0     H28895   9.320   5.652   8.657  0.0044 -0.9018 -0.0512
  219MOL0     H28896   9.688   5.564   8.342  0.7833 -1.9339  0.2259
  219MOL0     H28897   9.797   5.430   8.165 -0.2451  2.7752 -0.9870
  219MOL0     H28898   9.545   5.271   7.869  1.5378  1.5320  1.5084
  219MOL0     H28899   9.507   5.133   7.969 -1.9707  0.4034 -1.7709
  219MOL0     H28900   9.773   5.163   7.840  0.9804 -0.5319 -0.7262
  219MOL0     H28901   9.709   5.020   7.919 -1.6626  0.5108  1.3749
  219MOL0     H28902   9.527   5.010   7.732 -0.3076  1.1220  0.6908
  219MOL0     H28903   9.678   4.964   7.674 -1.0763  0.4200 -1.4051
  219MOL0     H28904   9.580   5.261   7.650  0.6232 -0.5859  2.6253
  219MOL0     H28905   9.719   5.200   7.567  2.3105 -0.3418  5.4506
  219MOL0     H28906   9.399   5.051   7.332  0.7874  0.6086 -1.3044
  219MOL0     H28907   9.401   5.286   8.072 -1.0327  1.0093  1.6693
  219MOL0     H28908   9.304   5.430   8.225 -0.8058 -0.1038  0.3775
  220MOL0     O28909   7.488   8.336   2.127  0.1381 -0.2530  0.3534
  220MOL0     C28910   7.511   8.347   2.010 -0.3413 -1.5174  1.2235
  220MOL0     O28911   7.636   8.388   1.962 -0.3752 -0.3725  0.4245
  220MOL0     C28912   7.739   8.437   2.037 -0.2929 -0.2757 -0.1566
  220MOL0     C28913   7.877   8.409   2.010 -0.4311  0.0860  1.0100
  220MOL0     C28914   7.969   8.466   2.094  0.1268  0.7441 -0.2999
  220MOL0     C28915   7.936   8.548   2.203  0.4916  0.4779 -0.9562
  220MOL0     O28916   8.035   8.604   2.271  0.4581 -0.7840  1.3051
  220MOL0     C28917   8.027   8.638   2.406  0.1404  1.0415  0.4351
  220MOL0     C28918   8.147   8.733   2.458 -0.1391  0.3577  0.0879
  220MOL0     C28919   8.138   8.869   2.395  0.9218 -0.1149 -0.2665
  220MOL0     C28920   8.272   8.942   2.401  0.2744  0.3495 -0.3345
  220MOL0     C28921   8.339   8.963   2.531 -0.2765  0.9547 -0.6070
  220MOL0     C28922   8.267   9.064   2.615 -0.0897 -0.3631 -0.2670
  220MOL0     C28923   8.350   9.199   2.638 -0.9787  0.1184 -0.0797
  220MOL0     C28924   8.495   9.165   2.690  1.1909 -0.3557 -0.5650
  220MOL0     N28925   8.531   9.262   2.803 -0.0538 -0.6823  0.3740
  220MOL0     C28926   8.450   9.280   2.914 -0.7458 -0.6844 -0.9322
  220MOL0     C28927   8.510   9.383   2.983  0.1975  0.7589  0.8590
  220MOL0     C28928   8.488   9.423   3.121  0.3907  0.1335 -0.4569
  220MOL0     C28929   8.563   9.554   3.161  0.0900 -0.6683 -0.2981
  220MOL0     C28930   8.476   9.630   3.258  0.7366  0.1597  0.0012
  220MOL0     C28931   8.385   9.715   3.176  0.3222 -1.1453 -0.7462
  220MOL0     O28932   8.316   9.803   3.258 -0.3253 -0.5902 -0.4432
  220MOL0     C28933   8.208   9.887   3.216 -1.6700  0.6420  0.1781
  220MOL0     C28934   8.189   9.999   3.296  0.2821 -0.2688 -1.1337
  220MOL0     C28935   8.080  10.087   3.265 -0.5019  0.8666 -1.2681
  220MOL0     C28936   8.004  10.066   3.151  0.7597  0.0249 -0.8300
  220MOL0     C28937   7.888  10.164   3.118  0.7537 -0.3457 -0.3299
  220MOL0     O28938   7.812  10.214   3.217 -0.1791 -0.0537  0.8660
  220MOL0     C28939   7.721  10.308   3.194 -0.2946 -0.1429  0.4747
  220MOL0     C28940   7.759  10.445   3.201  0.8390 -0.4163  0.4071
  220MOL0     C28941   7.666  10.545   3.176  0.4049  0.2057 -0.5404
  220MOL0     C28942   7.535  10.512   3.154  0.1627  0.8278 -0.0421
  220MOL0     O28943   7.461  10.621   3.121 -0.1845  0.0576  0.0098
  220MOL0     C28944   7.320  10.611   3.149 -0.6424  0.5239  1.3342
  220MOL0     C28945   7.264  10.742   3.105  0.2825 -0.7469 -0.0970
  220MOL0     C28946   7.119  10.763   3.105 -0.1677  0.6144 -0.6217
  220MOL0     C28947   7.041  10.656   3.015  0.8350  0.4740 -0.2872
  220MOL0     C28948   6.884  10.661   3.049  0.3488  0.3751  0.7353
  220MOL0     C28949   6.809  10.532   3.004 -0.5197 -0.1975 -0.0644
  220MOL0     C28950   6.671  10.519   3.074  0.0367 -0.5669  0.1922
  220MOL0     C28951   6.621  10.382   3.061 -0.7698  0.1790 -0.1421
  220MOL0    Cl28952   6.443  10.367   3.113 -0.1191 -0.4935  0.2115
  220MOL0     C28953   7.495  10.382   3.144  0.0530  0.5144  0.1111
  220MOL0     C28954   7.590  10.274   3.156 -0.3403 -0.0793 -0.0714
  220MOL0     O28955   7.868  10.181   2.997 -0.4409 -0.0907 -0.6539
  220MOL0     C28956   8.030   9.956   3.072 -0.3229  0.1407  0.1541
  220MOL0     C28957   8.139   9.861   3.100  0.7366  0.6049 -0.7413
  220MOL0     N28958   8.611   9.431   2.899 -0.0006  0.3423 -0.7938
  220MOL0     N28959   8.633   9.354   2.796  0.5609  0.0091  0.0269
  220MOL0     C28960   7.802   8.581   2.222  0.5221 -0.3770 -0.8722
  220MOL0     C28961   7.708   8.534   2.139  0.8665  0.3358  0.0244
  220MOL0     C28962   7.403   8.330   1.905  0.7816 -0.5662  0.0982
  220MOL0     C28963   7.433   8.276   1.779 -0.1741  0.1599 -0.5165
  220MOL0     C28964   7.328   8.243   1.694  0.8683 -0.2611  0.0180
  220MOL0     C28965   7.192   8.267   1.725 -0.8798 -0.2965 -1.0101
  220MOL0     O28966   7.099   8.235   1.627  0.1925 -0.6829  0.1783
  220MOL0     C28967   6.983   8.182   1.690  0.5879  0.5041 -0.2167
  220MOL0     C28968   6.931   8.059   1.615  0.1304 -0.5501  0.5129
  220MOL0     C28969   6.791   8.015   1.659  0.0238  0.6199  0.6046
  220MOL0     C28970   6.731   7.933   1.545 -0.1232 -0.0667 -0.1254
  220MOL0     C28971   6.603   7.865   1.585 -0.4459  0.4248  0.2510
  220MOL0     C28972   6.491   7.813   1.610  0.3005 -0.2851 -0.3006
  220MOL0     C28973   7.163   8.323   1.845  0.0253  0.7909 -0.1176
  220MOL0     C28974   7.268   8.358   1.930 -0.0618  0.1126  0.1130
  220MOL0     H28975   7.913   8.336   1.937  0.3826  0.3131  1.1707
  220MOL0     H28976   8.074   8.442   2.080 -0.1588  0.5916 -2.5128
  220MOL0     H28977   8.049   8.543   2.455  5.2962  0.6373 -2.0277
  220MOL0     H28978   7.933   8.684   2.438 -2.3245 -3.4182  0.3842
  220MOL0     H28979   8.243   8.684   2.436 -0.1821 -0.3997  1.4513
  220MOL0     H28980   8.146   8.739   2.567  1.2711 -0.2639  0.1647
  220MOL0     H28981   8.063   8.923   2.454  1.5246  1.8347 -1.2001
  220MOL0     H28982   8.111   8.855   2.290 -1.5223 -0.4015  0.3329
  220MOL0     H28983   8.339   8.886   2.334  1.1395 -1.1499  1.6483
  220MOL0     H28984   8.273   9.043   2.359  0.6877  0.4522 -0.0887
  220MOL0     H28985   8.443   8.991   2.507  0.1231 -1.0182 -1.3150
  220MOL0     H28986   8.343   8.871   2.590 -0.3946  1.5343  0.3263
  220MOL0     H28987   8.236   9.030   2.714 -0.5335  1.0296  0.1000
  220MOL0     H28988   8.172   9.093   2.569 -0.1777 -0.4902 -0.1688
  220MOL0     H28989   8.360   9.261   2.549  0.6682  2.1212  1.3998
  220MOL0     H28990   8.295   9.262   2.708  1.5758  2.4554  0.0023
  220MOL0     H28991   8.559   9.188   2.605  0.8817  1.1896 -0.4126
  220MOL0     H28992   8.511   9.060   2.718 -1.3814 -1.1194 -1.6748
  220MOL0     H28993   8.370   9.222   2.958 -0.6776  0.7240  1.2024
  220MOL0     H28994   8.518   9.336   3.181 -1.4159  0.7292  1.4250
  220MOL0     H28995   8.383   9.414   3.147 -0.2863  2.8612 -1.8599
  220MOL0     H28996   8.587   9.614   3.073  1.0468  0.5477  0.7509
  220MOL0     H28997   8.662   9.527   3.200  1.2974  1.4296 -1.7225
  220MOL0     H28998   8.416   9.565   3.323  0.0975 -0.8573 -1.5583
  220MOL0     H28999   8.533   9.691   3.329  1.1482  0.0259 -0.2153
  220MOL0     H29000   8.322   9.655   3.109 -1.1525 -1.4443  0.8201
  220MOL0     H29001   8.453   9.775   3.115 -0.4296  0.2878 -0.2348
  220MOL0     H29002   8.249  10.002   3.387 -2.1805  0.3006  0.5566
  220MOL0     H29003   8.038  10.163   3.330 -4.9563 -1.1333 -1.3942
  220MOL0     H29004   7.859  10.478   3.225  0.3401  1.9880 -0.5557
  220MOL0     H29005   7.692  10.650   3.174 -2.6123  1.0643  0.1902
  220MOL0     H29006   7.288  10.590   3.251 -1.3602 -2.1590  0.6295
  220MOL0     H29007   7.287  10.530   3.084  1.5472  1.3224 -0.9676
  220MOL0     H29008   7.299  10.749   3.002  0.2076 -0.0457 -0.0746
  220MOL0     H29009   7.313  10.819   3.165 -2.6184  1.3351 -0.1780
  220MOL0     H29010   7.101  10.864   3.065 -1.1552  1.6921  2.2888
  220MOL0     H29011   7.089  10.741   3.208  1.4679 -1.3585 -0.5126
  220MOL0     H29012   7.066  10.688   2.914  2.1728  0.2573 -0.0433
  220MOL0     H29013   7.072  10.552   3.029 -2.5356 -0.6124  0.0953
  220MOL0     H29014   6.851  10.750   2.996  0.9157  0.2593  0.1667
  220MOL0     H29015   6.872  10.691   3.153  0.6301  1.2929  0.5158
  220MOL0     H29016   6.870  10.445   3.030 -2.3805 -1.3524  0.6369
  220MOL0     H29017   6.796  10.530   2.896 -0.0832  1.7574 -0.1850
  220MOL0     H29018   6.687  10.536   3.181  0.2409 -1.6722  0.3484
  220MOL0     H29019   6.604  10.595   3.031  0.8989  0.0245 -0.1465
  220MOL0     H29020   6.680  10.314   3.123  3.2458  2.5134 -1.0640
  220MOL0     H29021   6.629  10.338   2.961 -1.3646 -2.1213  0.7615
  220MOL0     H29022   7.394  10.348   3.124  0.0039 -0.9561  2.5203
  220MOL0     H29023   7.550  10.174   3.140 -2.8487  0.9213 -0.5046
  220MOL0     H29024   7.961   9.962   2.988 -3.4445 -2.1668  2.3153
  220MOL0     H29025   8.148   9.777   3.032  2.5426 -0.3673  0.6106
  220MOL0     H29026   7.773   8.661   2.291  1.7610  0.2413 -1.0407
  220MOL0     H29027   7.604   8.553   2.159  1.1552 -0.5961  2.8777
  220MOL0     H29028   7.539   8.258   1.768  0.0829 -0.2071  1.9731
  220MOL0     H29029   7.353   8.201   1.597 -1.1378 -2.2435  0.2825
  220MOL0     H29030   6.906   8.260   1.690  0.7117  0.7738  2.9193
  220MOL0     H29031   6.988   8.151   1.795 -1.0839  1.5176  0.2080
  220MOL0     H29032   6.915   8.089   1.511 -3.1155  1.1450  1.3691
  220MOL0     H29033   6.997   7.972   1.618 -1.6936 -2.0213  3.9276
  220MOL0     H29034   6.726   8.100   1.680 -1.2406 -0.1322 -0.1067
  220MOL0     H29035   6.812   7.948   1.744  0.4766 -1.6830 -1.2148
  220MOL0     H29036   6.713   7.985   1.450 -1.4383  0.3477  0.3249
  220MOL0     H29037   6.804   7.853   1.529  1.1016  1.0059 -0.0792
  220MOL0     H29038   6.402   7.778   1.658  0.7774 -0.4696  0.4681
  220MOL0     H29039   7.061   8.346   1.873 -1.1269 -1.6975 -1.9075
  220MOL0     H29040   7.251   8.382   2.034 -2.0329 -3.9801  0.9510
  221MOL0     O29041  11.283   8.665  10.065 -0.3480 -0.2803  0.6632
  221MOL0     C29042  11.340   8.769  10.023 -1.5939  0.0194  0.4415
  221MOL0     O29043  11.285   8.889   9.985  0.1827  0.6580  0.0441
  221MOL0     C29044  11.154   8.922  10.022  0.1220 -0.1775  0.2632
  221MOL0     C29045  11.079   8.951   9.910  0.9056  0.9729  0.4059
  221MOL0     C29046  10.941   8.961   9.920 -0.0115 -0.5131 -0.6550
  221MOL0     C29047  10.876   8.957  10.047 -0.6173 -0.2835  0.2338
  221MOL0     O29048  10.736   8.971  10.040 -0.2193  0.3346 -0.3809
  221MOL0     C29049  10.671   8.995  10.169  0.2766  0.2087 -0.0023
  221MOL0     C29050  10.524   9.024  10.145 -0.2483  0.3322  1.0410
  221MOL0     C29051  10.526   9.167  10.088 -0.3985  0.5102  0.4258
  221MOL0     C29052  10.382   9.194  10.039  0.1545 -0.4586 -0.1666
  221MOL0     C29053  10.302   9.240  10.149  0.1227 -0.3667  0.2479
  221MOL0     C29054  10.153   9.237  10.108 -0.3021  0.1670  0.3996
  221MOL0     C29055  10.071   9.104  10.116  1.0896  0.5182  0.2896
  221MOL0     C29056  10.032   9.056  10.256  0.4584  1.0609  0.1102
  221MOL0     N29057  10.133   8.951  10.301  1.0169  0.2582  0.5564
  221MOL0     C29058  10.156   8.827  10.245 -0.5147  0.7007  0.1325
  221MOL0     C29059  10.273   8.778  10.299 -0.5218 -0.3493  0.5615
  221MOL0     C29060  10.353   8.654  10.266  0.0942 -0.1827  0.5610
  221MOL0     C29061  10.318   8.564  10.143 -0.4308 -0.4668  0.0952
  221MOL0     C29062  10.373   8.609  10.007  0.0319 -0.3412  0.7044
  221MOL0     C29063  10.518   8.643  10.008 -0.5222  0.3925  0.6674
  221MOL0     O29064  10.549   8.692   9.878 -0.0996  0.0864 -0.7019
  221MOL0     C29065  10.670   8.685   9.826  0.4664 -0.6887  1.1451
  221MOL0     C29066  10.684   8.680   9.689  1.3244  0.3138 -0.0816
  221MOL0     C29067  10.804   8.646   9.630 -1.0548  0.1430  0.1402
  221MOL0     C29068  10.920   8.612   9.706 -0.0231  0.2785  0.0552
  221MOL0     C29069  11.030   8.556   9.630 -0.1793  0.9656 -0.7628
  221MOL0     O29070  11.016   8.539   9.495 -0.5229 -0.4117 -0.5210
  221MOL0     C29071  11.126   8.507   9.416 -0.5829 -1.2389  1.0396
  221MOL0     C29072  11.086   8.463   9.293 -0.0936 -0.3299 -0.7984
  221MOL0     C29073  11.186   8.421   9.198  0.1552  0.5201  0.6220
  221MOL0     C29074  11.325   8.421   9.229 -0.2412 -0.4881 -0.7796
  221MOL0     O29075  11.406   8.382   9.129 -0.0372 -0.2868 -0.3739
  221MOL0     C29076  11.517   8.281   9.163  0.7901  0.0799 -1.1105
  221MOL0     C29077  11.545   8.164   9.064 -0.8775 -0.9582  0.6486
  221MOL0     C29078  11.665   8.070   9.108  0.9140 -0.6735 -0.4262
  221MOL0     C29079  11.631   7.984   9.232  0.0782 -0.9413 -0.1604
  221MOL0     C29080  11.749   7.987   9.333 -0.0290  0.5381  0.4532
  221MOL0     C29081  11.742   8.096   9.436 -1.0888  0.2379 -0.8003
  221MOL0     C29082  11.880   8.132   9.494 -0.0793 -0.0351  0.4212
  221MOL0     C29083  11.887   8.215   9.618  0.1246  0.7612  0.1296
  221MOL0    Cl29084  12.051   8.249   9.676  0.3581 -0.0966 -0.0900
  221MOL0     C29085  11.361   8.467   9.356  0.3358 -0.0053 -0.0949
  221MOL0     C29086  11.267   8.509   9.447  1.0480 -0.4933  0.9161
  221MOL0     O29087  11.133   8.535   9.690 -0.2066  0.0562 -0.3034
  221MOL0     C29088  10.903   8.633   9.843 -0.2161  0.5697  0.4846
  221MOL0     C29089  10.781   8.666   9.895  0.1780 -0.1147 -0.1487
  221MOL0     N29090  10.312   8.871  10.397 -0.7478  0.5903  0.3199
  221MOL0     N29091  10.224   8.973  10.392  0.9414 -0.3005  0.5498
  221MOL0     C29092  10.961   8.928  10.164  0.6806  0.1799  0.1879
  221MOL0     C29093  11.098   8.922  10.147 -0.1988 -0.4092  0.2866
  221MOL0     C29094  11.487   8.769  10.015  0.7971 -0.0533 -0.3634
  221MOL0     C29095  11.572   8.646  10.016  0.4406  0.2913  0.0463
  221MOL0     C29096  11.705   8.661  10.049 -0.6060  0.5963 -0.4417
  221MOL0     C29097  11.764   8.782  10.057  1.0957 -0.4133  0.5279
  221MOL0     O29098  11.892   8.798  10.070  0.7418 -0.1419  0.4300
  221MOL0     C29099  11.930   8.802  10.205  0.6303 -0.9872  0.0884
  221MOL0     C29100  12.079   8.830  10.219  0.8738  0.4388  0.1705
  221MOL0     C29101  12.105   8.977  10.204  0.1442  0.5767 -0.2784
  221MOL0     C29102  12.115   9.058  10.341 -0.1271 -0.0970 -0.2302
  221MOL0     C29103  12.233   9.030  10.407 -0.2753  0.6602 -0.4382
  221MOL0     C29104  12.348   8.997  10.456  0.5816  0.4710  0.6485
  221MOL0     C29105  11.685   8.901  10.056 -0.0058  0.6668 -0.1944
  221MOL0     C29106  11.552   8.895  10.034  0.2907 -0.2858 -0.3371
  221MOL0     H29107  11.124   8.958   9.812  1.0145  0.6673  0.4319
  221MOL0     H29108  10.881   8.980   9.831 -2.0719  0.6069  0.8812
  221MOL0     H29109  10.714   9.078  10.225 -1.8514  1.5814 -0.3072
  221MOL0     H29110  10.666   8.899  10.223 -2.1907 -0.5112 -1.3360
  221MOL0     H29111  10.457   9.021  10.231 -0.8518  0.1882  0.5756
  221MOL0     H29112  10.498   8.944  10.076  3.8324 -2.5950  2.5370
  221MOL0     H29113  10.600   9.187  10.010 -0.6742  1.4755  0.3874
  221MOL0     H29114  10.550   9.231  10.173  1.5572  0.5433 -0.1166
  221MOL0     H29115  10.375   9.278   9.969 -1.2543 -1.6310 -1.5328
  221MOL0     H29116  10.331   9.109   9.991 -1.9249  1.2029 -1.0581
  221MOL0     H29117  10.335   9.344  10.157  1.9511 -1.0000  1.5603
  221MOL0     H29118  10.327   9.185  10.240 -1.5825 -1.0888  0.3117
  221MOL0     H29119  10.139   9.275  10.006 -2.4208  0.4326  0.7433
  221MOL0     H29120  10.103   9.310  10.173 -1.8020  1.6592 -2.2414
  221MOL0     H29121   9.978   9.119  10.061 -0.4033 -0.2763  2.4521
  221MOL0     H29122  10.119   9.032  10.050  2.2304  1.8396 -0.3651
  221MOL0     H29123   9.937   9.002  10.250  2.2389 -2.1276 -2.1636
  221MOL0     H29124  10.024   9.137  10.329  0.9130  1.7509 -0.5874
  221MOL0     H29125  10.094   8.778  10.170  1.0489  1.0308 -1.4566
  221MOL0     H29126  10.337   8.588  10.352  0.8112 -0.6664  0.3363
  221MOL0     H29127  10.460   8.677  10.273  1.5651 -3.6801 -4.2156
  221MOL0     H29128  10.210   8.564  10.127 -0.2986  1.0672 -0.9761
  221MOL0     H29129  10.358   8.464  10.165 -1.3060 -0.1655  3.6175
  221MOL0     H29130  10.362   8.530   9.932  0.9740 -1.3236  1.5571
  221MOL0     H29131  10.320   8.701   9.981  1.5348 -0.1529 -2.1475
  221MOL0     H29132  10.573   8.553  10.035  1.0006  1.2197  0.4656
  221MOL0     H29133  10.558   8.710  10.086  1.2951 -2.9165  2.8222
  221MOL0     H29134  10.599   8.700   9.625 -1.5328 -1.6304  2.7720
  221MOL0     H29135  10.811   8.645   9.522  2.3107 -2.0382  0.2021
  221MOL0     H29136  10.983   8.456   9.258  0.9754 -4.1944 -3.8070
  221MOL0     H29137  11.163   8.396   9.095  2.0039 -0.5319  0.4245
  221MOL0     H29138  11.488   8.238   9.259 -0.8542  1.6086 -0.8742
  221MOL0     H29139  11.610   8.337   9.174  0.0272  1.2276 -0.1699
  221MOL0     H29140  11.585   8.202   8.969 -1.6739 -3.1955 -0.6452
  221MOL0     H29141  11.452   8.108   9.052 -1.4814  0.0840  0.3027
  221MOL0     H29142  11.758   8.125   9.122  0.2758  0.7919 -1.6331
  221MOL0     H29143  11.679   7.990   9.035 -0.0956 -2.3478  1.1451
  221MOL0     H29144  11.534   8.014   9.272  0.7338 -0.6204  1.2776
  221MOL0     H29145  11.622   7.882   9.195  2.2545 -0.7016 -1.5306
  221MOL0     H29146  11.839   8.006   9.275  1.5724 -0.5002  2.4855
  221MOL0     H29147  11.768   7.889   9.378  0.5061  0.8338  0.8770
  221MOL0     H29148  11.680   8.053   9.516  0.2728 -3.0535 -1.3883
  221MOL0     H29149  11.680   8.180   9.402 -2.7574  0.4768  2.4110
  221MOL0     H29150  11.936   8.043   9.524  2.1471  0.9774 -0.5147
  221MOL0     H29151  11.939   8.176   9.413  2.2537 -4.5920 -0.6296
  221MOL0     H29152  11.829   8.168   9.698 -2.0147  0.7797 -1.3382
  221MOL0     H29153  11.851   8.316   9.597  1.6087  1.0059 -1.5586
  221MOL0     H29154  11.467   8.457   9.381  0.8237  0.8487 -1.6845
  221MOL0     H29155  11.290   8.534   9.550 -0.8270  2.9851  0.6371
  221MOL0     H29156  10.992   8.619   9.904  0.4654  2.7845  0.0931
  221MOL0     H29157  10.775   8.678  10.003 -0.5723  3.0232 -0.4401
  221MOL0     H29158  10.907   8.920  10.257 -0.2287  1.1726 -0.2302
  221MOL0     H29159  11.163   8.920  10.234  0.7099  2.0657 -0.2559
  221MOL0     H29160  11.531   8.547  10.000  0.2291  0.5458 -1.0363
  221MOL0     H29161  11.762   8.569  10.059  0.9366  1.4355 -1.1039
  221MOL0     H29162  11.901   8.708  10.254  0.8075 -1.6090 -0.9737
  221MOL0     H29163  11.880   8.885  10.255  2.1814  0.0736 -0.0803
  221MOL0     H29164  12.125   8.791  10.311  1.4041  0.2361 -0.1742
  221MOL0     H29165  12.116   8.774  10.132 -0.7405 -3.4317  1.7230
  221MOL0     H29166  12.027   9.022  10.141 -0.2567 -2.0631 -1.8257
  221MOL0     H29167  12.202   8.992  10.156 -0.4753  0.6582 -1.5538
  221MOL0     H29168  12.109   9.162  10.306 -1.4926 -0.8534 -2.4455
  221MOL0     H29169  12.027   9.024  10.396 -1.5189 -0.3074 -2.4530
  221MOL0     H29170  12.433   8.970  10.515  0.1212  2.9564  2.5925
  221MOL0     H29171  11.730   8.999  10.060  1.8077  0.1653 -4.1240
  221MOL0     H29172  11.502   8.990  10.050  2.0281  0.8508 -1.3325
  222MOL0     O29173   8.673   7.432   1.348 -1.0041 -0.1518  0.7362
  222MOL0     C29174   8.638   7.382   1.238 -0.1876  0.6300 -0.0183
  222MOL0     O29175   8.666   7.427   1.115  0.3217  0.5295 -0.2664
  222MOL0     C29176   8.754   7.530   1.111  0.3203 -0.3110 -0.0941
  222MOL0     C29177   8.718   7.661   1.077 -0.8729 -0.9475  0.6936
  222MOL0     C29178   8.815   7.759   1.068  1.0846 -0.3724  0.3796
  222MOL0     C29179   8.948   7.728   1.082  0.4518  0.3531  0.8032
  222MOL0     O29180   9.032   7.837   1.075 -0.5742 -0.1401 -0.4733
  222MOL0     C29181   9.168   7.806   1.030  0.0057  0.4126  0.4492
  222MOL0     C29182   9.261   7.922   1.034 -0.6173  0.5685 -0.3159
  222MOL0     C29183   9.282   7.960   1.180  0.0666  0.2821  0.4095
  222MOL0     C29184   9.361   8.097   1.177 -0.2657 -0.7357  0.3003
  222MOL0     C29185   9.371   8.161   1.313 -0.7088 -0.3748  0.1526
  222MOL0     C29186   9.476   8.275   1.323 -0.0187  0.1200 -0.4174
  222MOL0     C29187   9.480   8.346   1.456  1.3869  0.2039  1.0303
  222MOL0     C29188   9.357   8.433   1.469 -0.1282  0.0562 -0.5894
  222MOL0     N29189   9.359   8.495   1.603  0.5640  0.1349 -0.0585
  222MOL0     C29190   9.299   8.441   1.708 -0.1780 -0.1243  0.3268
  222MOL0     C29191   9.323   8.518   1.809 -0.4697 -0.0268 -0.0424
  222MOL0     C29192   9.295   8.487   1.953  0.2157  0.3770 -0.6155
  222MOL0     C29193   9.417   8.472   2.039  0.2350  0.0606  0.9812
  222MOL0     C29194   9.381   8.460   2.186 -0.2492 -0.4338 -0.8196
  222MOL0     C29195   9.274   8.368   2.240 -0.3011  0.7048 -0.4480
  222MOL0     O29196   9.313   8.329   2.372  0.4701  0.8495  0.2692
  222MOL0     C29197   9.213   8.264   2.440 -0.0786 -0.2733 -0.1778
  222MOL0     C29198   9.076   8.270   2.419 -0.2972 -0.2775  0.2936
  222MOL0     C29199   8.977   8.211   2.501 -0.0412 -0.6244 -0.2727
  222MOL0     C29200   9.019   8.128   2.598 -0.6810  0.4072 -0.6782
  222MOL0     C29201   8.930   8.050   2.690  0.1370 -0.0959  0.5208
  222MOL0     O29202   8.979   7.949   2.774 -0.2185 -0.4040 -0.1924
  222MOL0     C29203   8.903   7.876   2.858 -0.5653 -0.5642 -0.5668
  222MOL0     C29204   8.808   7.932   2.943 -1.0129  1.0579  0.1096
  222MOL0     C29205   8.727   7.847   3.022 -0.1444 -0.1000 -0.1357
  222MOL0     C29206   8.757   7.713   3.029  0.0270  0.2411 -0.9366
  222MOL0     O29207   8.687   7.629   3.121 -0.8696 -0.7562  0.2663
  222MOL0     C29208   8.548   7.639   3.096  0.0228 -1.3794 -0.1303
  222MOL0     C29209   8.466   7.523   3.138  0.5063  0.4564 -0.9249
  222MOL0     C29210   8.534   7.392   3.130  0.3881 -0.3101 -1.2516
  222MOL0     C29211   8.441   7.281   3.173 -0.0929  1.6160 -0.2828
  222MOL0     C29212   8.498   7.139   3.163  0.5650 -0.4381 -0.4154
  222MOL0     C29213   8.543   7.108   3.022 -0.5480 -0.6011 -0.0865
  222MOL0     C29214   8.574   6.962   3.003 -0.5062 -0.2252 -0.3985
  222MOL0     C29215   8.610   6.924   2.861  0.2797 -0.4678 -0.4373
  222MOL0    Cl29216   8.693   6.771   2.874 -0.1450 -0.2084  0.2296
  222MOL0     C29217   8.868   7.654   2.965 -0.2499 -0.1682  0.1890
  222MOL0     C29218   8.932   7.741   2.876 -0.2246 -0.3214  0.1016
  222MOL0     O29219   8.807   8.086   2.677 -1.1282  0.6330  0.2223
  222MOL0     C29220   9.162   8.124   2.624  0.1615 -0.4431  0.3545
  222MOL0     C29221   9.254   8.178   2.541  0.0363 -0.6528 -1.2516
  222MOL0     N29222   9.400   8.627   1.759  0.4803 -0.2175 -0.8455
  222MOL0     N29223   9.411   8.611   1.632  1.0545 -0.6918 -0.2728
  222MOL0     C29224   8.984   7.592   1.111 -0.3378  0.2353  0.3490
  222MOL0     C29225   8.886   7.498   1.127  0.1314  0.5172 -0.3701
  222MOL0     C29226   8.553   7.257   1.245 -0.2369 -0.5371  0.2443
  222MOL0     C29227   8.480   7.220   1.132 -0.4496 -0.5721  0.1312
  222MOL0     C29228   8.410   7.097   1.128 -1.2679  0.4815  1.3343
  222MOL0     C29229   8.410   7.004   1.237 -0.6636 -0.3607 -1.6072
  222MOL0     O29230   8.339   6.884   1.236  0.5590  0.1409 -0.2198
  222MOL0     C29231   8.221   6.884   1.324  0.4032  0.1190  0.2113
  222MOL0     C29232   8.098   6.869   1.237 -0.4411  0.3449 -0.9651
  222MOL0     C29233   8.049   7.000   1.158 -1.1185 -0.2642  0.0789
  222MOL0     C29234   7.902   7.029   1.170 -0.1040 -0.3502 -0.2880
  222MOL0     C29235   7.810   6.923   1.128 -0.5351  0.6203  0.3646
  222MOL0     C29236   7.735   6.845   1.081 -0.8666  0.8799  0.0542
  222MOL0     C29237   8.478   7.048   1.358  1.3917 -0.1610  0.4880
  222MOL0     C29238   8.547   7.171   1.363 -0.6763  0.0344 -0.3440
  222MOL0     H29239   8.616   7.693   1.058 -0.3250  1.0675  0.8692
  222MOL0     H29240   8.779   7.860   1.052  1.5772 -0.5240 -2.1189
  222MOL0     H29241   9.176   7.780   0.924  3.9137 -0.4001  0.7855
  222MOL0     H29242   9.200   7.728   1.099 -0.0880  0.0781  0.1131
  222MOL0     H29243   9.210   8.003   0.981 -1.5680 -0.9636 -1.8527
  222MOL0     H29244   9.356   7.910   0.980 -0.9286  0.0954 -0.7680
  222MOL0     H29245   9.327   7.882   1.242 -0.4034 -0.9931 -0.7904
  222MOL0     H29246   9.187   7.985   1.228  0.4770  2.8740  0.0338
  222MOL0     H29247   9.457   8.080   1.127 -0.7103  0.1012 -0.8783
  222MOL0     H29248   9.296   8.154   1.111 -0.2449 -2.8138 -1.6348
  222MOL0     H29249   9.401   8.072   1.369 -0.1086 -0.1586  0.1778
  222MOL0     H29250   9.277   8.207   1.345 -0.0685  1.3241 -0.3140
  222MOL0     H29251   9.469   8.346   1.240 -0.8031  0.2302 -0.2699
  222MOL0     H29252   9.572   8.223   1.317 -1.2964 -2.1812 -2.2848
  222MOL0     H29253   9.467   8.283   1.544 -1.0408 -0.6731  0.1266
  222MOL0     H29254   9.566   8.411   1.471  2.0814 -1.0220  2.6432
  222MOL0     H29255   9.266   8.371   1.464  0.3405 -0.5729 -1.5947
  222MOL0     H29256   9.344   8.516   1.399 -1.8452  0.2565 -0.0878
  222MOL0     H29257   9.232   8.355   1.717 -4.5420  2.9451  0.6748
  222MOL0     H29258   9.239   8.394   1.940  0.2970  0.6127 -3.2524
  222MOL0     H29259   9.233   8.570   1.989 -0.4006  0.9879 -2.9261
  222MOL0     H29260   9.486   8.555   2.024 -1.1919  1.0076 -0.7894
  222MOL0     H29261   9.475   8.387   2.003  0.5714  1.5909 -2.4804
  222MOL0     H29262   9.468   8.432   2.245 -1.5640 -0.5532  1.1744
  222MOL0     H29263   9.354   8.560   2.222 -2.2896  0.4640 -4.3578
  222MOL0     H29264   9.263   8.282   2.173  2.9852 -0.7134  0.6377
  222MOL0     H29265   9.179   8.423   2.237  0.3565  1.8180 -2.0001
  222MOL0     H29266   9.030   8.338   2.348  2.1707  0.5044 -0.6821
  222MOL0     H29267   8.870   8.230   2.493  0.0539 -0.5514 -1.6023
  222MOL0     H29268   8.766   8.032   2.939 -3.0322  0.2405 -0.4625
  222MOL0     H29269   8.653   7.903   3.077 -1.3945  0.7133 -2.5020
  222MOL0     H29270   8.538   7.657   2.989  2.1601  2.5992  0.1530
  222MOL0     H29271   8.506   7.721   3.155 -0.9142 -0.6820 -1.7115
  222MOL0     H29272   8.384   7.530   3.066  0.6569 -2.0728 -1.4233
  222MOL0     H29273   8.432   7.536   3.241  1.3387  0.0277 -0.5802
  222MOL0     H29274   8.609   7.396   3.210  1.1518 -0.0695 -1.9691
  222MOL0     H29275   8.589   7.377   3.037  0.1655  3.7198 -2.1981
  222MOL0     H29276   8.414   7.290   3.278  1.7727  0.1271  0.3696
  222MOL0     H29277   8.360   7.294   3.100  0.9777  1.2979 -1.5881
  222MOL0     H29278   8.414   7.072   3.183 -0.1078  0.5721  0.2133
  222MOL0     H29279   8.574   7.120   3.240 -2.0159  0.2052  2.4607
  222MOL0     H29280   8.639   7.161   3.019  0.0389 -1.4164  2.2960
  222MOL0     H29281   8.481   7.140   2.938  1.2384 -2.0111 -2.0376
  222MOL0     H29282   8.655   6.916   3.061 -0.6132  1.1099  0.8784
  222MOL0     H29283   8.490   6.899   3.033  0.3675 -1.5774 -0.6910
  222MOL0     H29284   8.667   7.001   2.808 -1.0618  1.2111  0.4560
  222MOL0     H29285   8.520   6.906   2.802  0.0443 -1.3757  0.1856
  222MOL0     H29286   8.910   7.557   2.989 -1.9205 -1.7742 -2.7863
  222MOL0     H29287   9.017   7.700   2.821  0.9481  1.6645  0.3565
  222MOL0     H29288   9.197   8.080   2.716 -1.8653  0.1324  1.4713
  222MOL0     H29289   9.358   8.170   2.572 -0.6438 -2.2967  0.9107
  222MOL0     H29290   9.090   7.576   1.127  0.1855  2.9235 -0.0045
  222MOL0     H29291   8.913   7.397   1.157 -1.6625  0.3965  0.9950
  222MOL0     H29292   8.465   7.296   1.057  0.5397 -0.3014  0.1892
  222MOL0     H29293   8.362   7.068   1.035  1.8654  1.4800 -0.7435
  222MOL0     H29294   8.211   6.965   1.396 -0.3438  1.2417 -1.0987
  222MOL0     H29295   8.223   6.800   1.394  2.7400 -1.8762 -1.9810
  222MOL0     H29296   8.124   6.780   1.178  0.5544 -0.6587  0.8925
  222MOL0     H29297   8.022   6.841   1.311 -1.7001  2.6305 -1.3229
  222MOL0     H29298   8.072   6.990   1.052  1.2903  1.9491  0.2953
  222MOL0     H29299   8.101   7.086   1.201  2.5435 -1.4164 -1.6205
  222MOL0     H29300   7.877   7.052   1.274 -0.1878  0.7026 -0.5274
  222MOL0     H29301   7.876   7.117   1.111 -0.5315  0.7579  1.4957
  222MOL0     H29302   7.669   6.769   1.043 -0.6704 -0.0354  1.4616
  222MOL0     H29303   8.452   6.986   1.443  0.3271  0.6612  0.7845
  222MOL0     H29304   8.607   7.194   1.450 -0.7371  1.4231 -0.6472
  223MOL0     O29305   5.219   0.913   0.092  0.0116 -0.4430  0.2551
  223MOL0     C29306   5.168   0.934  -0.023 -1.0048 -0.6962 -0.4029
  223MOL0     O29307   5.203   0.873  -0.143  0.1767  0.1522 -0.6152
  223MOL0     C29308   5.283   0.760  -0.118  1.1547 -0.8675 -0.7616
  223MOL0     C29309   5.418   0.759  -0.068 -0.0006  0.1085 -0.3592
  223MOL0     C29310   5.485   0.637  -0.064  0.5312 -0.2981 -0.4297
  223MOL0     C29311   5.413   0.515  -0.093 -1.0276 -0.5149 -0.2964
  223MOL0     O29312   5.475   0.393  -0.080  0.6251  0.6178  0.4943
  223MOL0     C29313   5.521   0.361   0.052  0.3696 -0.7751  0.1075
  223MOL0     C29314   5.522   0.206   0.062 -0.8650  0.7164 -0.1836
  223MOL0     C29315   5.386   0.151   0.036  0.0508  0.9781  0.0688
  223MOL0     C29316   5.399   0.057  -0.088  0.3111  0.2325  0.8211
  223MOL0     C29317   5.316  -0.070  -0.048  0.0261 -0.1431 -0.2321
  223MOL0     C29318   5.330  -0.203  -0.126 -0.0631 -0.0603 -1.1294
  223MOL0     C29319   5.269  -0.215  -0.265  0.1735  0.4769  0.3378
  223MOL0     C29320   5.119  -0.252  -0.260  0.3820  0.2238 -0.3230
  223MOL0     N29321   5.030  -0.158  -0.185 -0.4450  0.1346  0.1908
  223MOL0     C29322   5.002  -0.026  -0.222 -0.5954  0.1113  0.5756
  223MOL0     C29323   4.918   0.023  -0.133  0.1255  0.6863  0.2019
  223MOL0     C29324   4.853   0.159  -0.109 -0.7427  0.3315  0.2074
  223MOL0     C29325   4.820   0.251  -0.225 -0.3465  0.0751 -0.7502
  223MOL0     C29326   4.676   0.246  -0.290 -1.0704  0.7692 -0.0886
  223MOL0     C29327   4.661   0.112  -0.354 -0.3248 -0.3465 -0.0470
  223MOL0     O29328   4.757   0.123  -0.465 -0.2923  0.6866 -0.5550
  223MOL0     C29329   4.774   0.007  -0.534  0.5773  0.3238 -0.0311
  223MOL0     C29330   4.907  -0.047  -0.545  1.0455 -0.7436  0.4361
  223MOL0     C29331   4.932  -0.167  -0.612 -0.5739 -0.0289  0.4081
  223MOL0     C29332   4.824  -0.246  -0.665  0.2881 -0.0663  0.6132
  223MOL0     C29333   4.845  -0.380  -0.731 -1.1608  0.0513  0.4669
  223MOL0     O29334   4.737  -0.466  -0.771  0.4460 -0.2869 -0.1342
  223MOL0     C29335   4.753  -0.593  -0.806 -1.1379  0.3505  1.2329
  223MOL0     C29336   4.794  -0.702  -0.726  0.3946 -0.2758 -0.2981
  223MOL0     C29337   4.790  -0.831  -0.785 -0.1471  0.1891 -0.2951
  223MOL0     C29338   4.742  -0.861  -0.914 -0.2545 -0.1735 -0.0535
  223MOL0     O29339   4.743  -0.984  -0.972 -0.3667 -0.3908 -0.3575
  223MOL0     C29340   4.768  -1.090  -0.874  0.9426 -0.0770 -1.1621
  223MOL0     C29341   4.782  -1.225  -0.946  0.6916 -0.4363 -0.6272
  223MOL0     C29342   4.838  -1.333  -0.848  0.5669 -0.3098  0.0654
  223MOL0     C29343   4.995  -1.331  -0.838  0.4659  0.1774 -0.3607
  223MOL0     C29344   5.056  -1.433  -0.740  0.0152 -0.3530  0.0195
  223MOL0     C29345   5.083  -1.562  -0.814 -0.3956 -0.6165  0.0004
  223MOL0     C29346   5.231  -1.601  -0.832  0.0539 -0.4375 -0.2710
  223MOL0     C29347   5.258  -1.748  -0.868 -0.2479  0.3674 -0.1728
  223MOL0    Cl29348   5.287  -1.851  -0.724 -0.1192  0.0422 -0.3642
  223MOL0     C29349   4.729  -0.749  -0.999 -0.1354 -0.9162  0.9254
  223MOL0     C29350   4.721  -0.621  -0.945  0.0283  0.2309 -0.6388
  223MOL0     O29351   4.966  -0.415  -0.742  0.2332 -0.4468 -0.3775
  223MOL0     C29352   4.695  -0.197  -0.645 -0.2506 -0.4749  0.1191
  223MOL0     C29353   4.670  -0.068  -0.596 -0.0591  0.3012  0.3997
  223MOL0     N29354   4.888  -0.076  -0.044  0.7290  0.4422  0.2459
  223MOL0     N29355   4.950  -0.189  -0.074 -0.0641 -0.3216 -0.3373
  223MOL0     C29356   5.283   0.523  -0.145 -0.1546  0.1988 -0.2317
  223MOL0     C29357   5.219   0.645  -0.159  0.3990  0.2510 -0.1705
  223MOL0     C29358   5.064   1.035  -0.030  0.0126  0.1153 -0.8555
  223MOL0     C29359   4.995   1.052  -0.155  0.1756 -0.2022  0.3409
  223MOL0     C29360   4.890   1.143  -0.169 -0.6844 -0.1029  0.7424
  223MOL0     C29361   4.852   1.227  -0.062 -0.6801  0.4227 -0.3289
  223MOL0     O29362   4.736   1.305  -0.071  0.3579 -0.3133 -0.2029
  223MOL0     C29363   4.751   1.413  -0.163  0.2698  1.4332  0.2522
  223MOL0     C29364   4.765   1.545  -0.086  0.2497 -0.5480  0.5468
  223MOL0     C29365   4.640   1.594  -0.006  0.8081  0.8559 -0.6791
  223MOL0     C29366   4.671   1.587   0.152  0.2955 -0.2529  0.9904
  223MOL0     C29367   4.785   1.681   0.186 -0.6145 -0.3293  1.2324
  223MOL0     C29368   4.873   1.745   0.243 -0.0322 -0.5407  1.1003
  223MOL0     C29369   4.908   1.197   0.068 -0.3783  0.7989  0.1906
  223MOL0     C29370   5.012   1.105   0.080  0.2634  0.3989 -0.3075
  223MOL0     H29371   5.453   0.857  -0.036 -0.7419  0.3145 -0.1742
  223MOL0     H29372   5.591   0.628  -0.045  1.6401  3.8750 -3.2747
  223MOL0     H29373   5.460   0.409   0.130  3.5465  2.2336  0.9802
  223MOL0     H29374   5.620   0.406   0.064 -0.2749  1.0885 -1.2167
  223MOL0     H29375   5.554   0.171   0.160  2.7026 -2.0499 -2.0884
  223MOL0     H29376   5.600   0.167  -0.004  0.7483  4.0971 -0.4909
  223MOL0     H29377   5.310   0.229   0.028 -0.5190  0.4610  0.3113
  223MOL0     H29378   5.358   0.093   0.125  0.9015 -0.1951 -0.4198
  223MOL0     H29379   5.354   0.101  -0.177 -2.6585 -3.6934  0.1095
  223MOL0     H29380   5.500   0.015  -0.099 -1.0520 -4.9976  4.3151
  223MOL0     H29381   5.211  -0.040  -0.042 -1.6584 -5.1020 -1.0454
  223MOL0     H29382   5.343  -0.101   0.054  0.7804  1.0789 -0.0350
  223MOL0     H29383   5.283  -0.281  -0.065 -0.8009  2.3755  1.5955
  223MOL0     H29384   5.435  -0.233  -0.130 -0.0841 -0.0127 -3.2482
  223MOL0     H29385   5.284  -0.124  -0.324 -0.1477  0.1280 -0.2875
  223MOL0     H29386   5.329  -0.293  -0.313 -1.4500  1.3672 -3.5113
  223MOL0     H29387   5.102  -0.346  -0.206 -3.0565 -0.2249 -1.9430
  223MOL0     H29388   5.063  -0.277  -0.350 -4.1648  4.6019  0.8595
  223MOL0     H29389   5.049   0.027  -0.305  0.7184 -0.3231  1.0295
  223MOL0     H29390   4.926   0.211  -0.046 -1.2366  1.4772 -0.1457
  223MOL0     H29391   4.773   0.133  -0.040  1.5247 -1.2449  2.4227
  223MOL0     H29392   4.900   0.238  -0.298 -0.8322  1.1778 -1.5175
  223MOL0     H29393   4.826   0.354  -0.187  1.8772 -1.1563  2.7135
  223MOL0     H29394   4.602   0.260  -0.210 -1.0628 -0.5280  0.1668
  223MOL0     H29395   4.661   0.324  -0.364 -2.3821  2.1537  1.5473
  223MOL0     H29396   4.559   0.104  -0.392 -1.4528  2.3695  2.0928
  223MOL0     H29397   4.685   0.039  -0.277  1.1152  0.1467  0.0039
  223MOL0     H29398   4.986   0.012  -0.500 -0.3497 -0.7637  3.1212
  223MOL0     H29399   5.029  -0.213  -0.601 -1.7195 -2.5055  0.9599
  223MOL0     H29400   4.810  -0.669  -0.624  1.4835  1.8870 -1.0884
  223MOL0     H29401   4.813  -0.905  -0.709  0.4593  1.3951  0.7264
  223MOL0     H29402   4.684  -1.105  -0.807  0.0512  0.5018 -2.1237
  223MOL0     H29403   4.861  -1.074  -0.819  0.8199  1.2421 -1.3087
  223MOL0     H29404   4.859  -1.209  -1.022  1.4771  1.0680  0.4487
  223MOL0     H29405   4.685  -1.247  -0.992  1.9661 -0.6867 -3.3542
  223MOL0     H29406   4.811  -1.433  -0.884 -3.6081 -0.2144  2.3568
  223MOL0     H29407   4.788  -1.331  -0.751  1.6384 -2.8503  0.7705
  223MOL0     H29408   5.059  -1.330  -0.927  0.8322 -0.9628 -0.1298
  223MOL0     H29409   5.023  -1.238  -0.788 -1.5310 -0.9659  3.2625
  223MOL0     H29410   4.992  -1.463  -0.657 -0.6288 -4.4747 -1.7244
  223MOL0     H29411   5.151  -1.387  -0.712  1.3393 -1.1277 -2.7926
  223MOL0     H29412   5.027  -1.576  -0.906  0.2858 -2.1424 -0.2104
  223MOL0     H29413   5.044  -1.632  -0.739 -2.7675  1.9980  1.3776
  223MOL0     H29414   5.273  -1.537  -0.909  2.3040 -0.2426  1.0309
  223MOL0     H29415   5.285  -1.569  -0.742 -1.4603 -0.2898  0.6259
  223MOL0     H29416   5.348  -1.748  -0.930 -0.1419 -0.5978 -0.0385
  223MOL0     H29417   5.178  -1.782  -0.935  0.9369 -1.4659 -0.7283
  223MOL0     H29418   4.714  -0.753  -1.107  1.6861 -1.1236  0.6396
  223MOL0     H29419   4.671  -0.540  -0.996  1.5365  1.4526 -0.2738
  223MOL0     H29420   4.605  -0.258  -0.657 -0.6451  0.3342 -1.2887
  223MOL0     H29421   4.564  -0.048  -0.584 -0.2094 -0.0028 -0.3590
  223MOL0     H29422   5.239   0.436  -0.194 -3.4290  2.4442 -1.6332
  223MOL0     H29423   5.122   0.647  -0.208  0.8388  2.2281 -1.1013
  223MOL0     H29424   5.036   1.000  -0.241 -1.1664  2.4469 -2.0804
  223MOL0     H29425   4.845   1.150  -0.268  3.8504 -0.5981 -1.6143
  223MOL0     H29426   4.681   1.421  -0.247  0.2461  1.0120  0.2313
  223MOL0     H29427   4.845   1.399  -0.219  1.8206  1.5955  2.6827
  223MOL0     H29428   4.853   1.529  -0.023  0.7627 -1.3212 -0.3219
  223MOL0     H29429   4.788   1.612  -0.169 -1.8955  1.3956  1.4304
  223MOL0     H29430   4.553   1.527  -0.011  1.3482 -0.0359  0.8983
  223MOL0     H29431   4.607   1.694  -0.034 -1.8019  0.6042  1.1128
  223MOL0     H29432   4.575   1.611   0.199 -1.0231 -0.8259 -1.2631
  223MOL0     H29433   4.703   1.487   0.184  0.3438  0.8457  4.9269
  223MOL0     H29434   4.948   1.777   0.312 -3.0891  0.6858  4.2009
  223MOL0     H29435   4.871   1.241   0.160 -1.4967  0.9970 -0.3341
  223MOL0     H29436   5.055   1.091   0.179 -2.6010  1.4991  1.1924
  224MOL0     O29437   2.543   4.943   0.654  0.2952  0.4298  0.0740
  224MOL0     C29438   2.555   4.826   0.619  0.1755 -0.4881 -0.5847
  224MOL0     O29439   2.527   4.792   0.490 -0.3967  0.6333 -0.6411
  224MOL0     C29440   2.486   4.887   0.395 -0.6247  0.3717  0.4024
  224MOL0     C29441   2.355   4.882   0.353 -0.7591 -0.6588  0.5096
  224MOL0     C29442   2.322   4.941   0.231 -0.0070 -0.3658  0.1729
  224MOL0     C29443   2.420   5.003   0.143 -0.9931  0.4121  0.6619
  224MOL0     O29444   2.383   5.057   0.023 -0.2893 -0.3104 -0.0863
  224MOL0     C29445   2.487   5.100  -0.078 -0.7508 -0.1597 -0.7517
  224MOL0     C29446   2.550   5.240  -0.044 -0.7830  0.4564 -0.1519
  224MOL0     C29447   2.449   5.347   0.004  0.6847 -0.2158  0.2171
  224MOL0     C29448   2.528   5.466   0.064 -0.0463  0.4714 -0.3991
  224MOL0     C29449   2.595   5.435   0.201  0.4560  0.9566  0.9488
  224MOL0     C29450   2.676   5.550   0.257  0.3706 -0.2962  0.5390
  224MOL0     C29451   2.778   5.506   0.369  0.8027  0.4316  1.0622
  224MOL0     C29452   2.909   5.438   0.319 -0.0802 -0.0839  0.1954
  224MOL0     N29453   2.906   5.296   0.311 -0.0329 -0.2579 -1.2466
  224MOL0     C29454   2.932   5.215   0.415 -0.1866  0.7773 -0.7158
  224MOL0     C29455   2.951   5.087   0.358 -1.7148 -0.7066 -0.6512
  224MOL0     C29456   2.985   4.955   0.432  0.3713  0.0793 -0.1960
  224MOL0     C29457   3.094   4.971   0.541  0.6752 -0.2011 -0.0831
  224MOL0     C29458   3.108   4.843   0.617 -0.0746  0.3308  0.2380
  224MOL0     C29459   3.155   4.714   0.551 -0.1749  0.5551  0.1563
  224MOL0     O29460   3.283   4.716   0.492 -0.1284  0.5649  1.3587
  224MOL0     C29461   3.362   4.600   0.478 -0.1551  0.2300  0.4127
  224MOL0     C29462   3.326   4.469   0.509 -0.3636 -1.7172 -0.8241
  224MOL0     C29463   3.407   4.356   0.494 -0.3087 -1.2936 -0.4112
  224MOL0     C29464   3.530   4.371   0.441  0.6979 -0.3929  0.1237
  224MOL0     C29465   3.608   4.249   0.405  0.2912  0.4080  0.6216
  224MOL0     O29466   3.541   4.134   0.430  0.5057 -0.1243 -0.1256
  224MOL0     C29467   3.580   4.005   0.386 -0.2635  0.0443  0.0691
  224MOL0     C29468   3.689   3.970   0.302  0.0497 -0.7039  0.0416
  224MOL0     C29469   3.726   3.847   0.286 -0.1199  1.2345 -0.1476
  224MOL0     C29470   3.667   3.741   0.341  0.6514 -0.1441 -0.9012
  224MOL0     O29471   3.723   3.621   0.314  0.2571 -0.1875  0.5380
  224MOL0     C29472   3.766   3.524   0.410  0.0592 -0.1393  0.1660
  224MOL0     C29473   3.877   3.434   0.358 -0.5334 -0.8463  1.7107
  224MOL0     C29474   4.012   3.491   0.395 -0.3337  0.2410 -0.0648
  224MOL0     C29475   4.118   3.402   0.323 -0.0347 -0.1437  1.0750
  224MOL0     C29476   4.254   3.377   0.400 -0.4537 -0.2432 -0.1563
  224MOL0     C29477   4.315   3.522   0.404  0.1027  1.1325  0.2321
  224MOL0     C29478   4.461   3.520   0.448  0.3425 -0.0150 -0.2685
  224MOL0     C29479   4.470   3.489   0.601 -0.0910  0.0957 -0.9798
  224MOL0    Cl29480   4.621   3.544   0.667  0.2205 -0.1332 -0.1389
  224MOL0     C29481   3.554   3.768   0.427 -0.6478  1.0678  0.5306
  224MOL0     C29482   3.519   3.908   0.461  0.0512  1.2987  0.9501
  224MOL0     O29483   3.722   4.262   0.374 -0.1641  1.1655  0.2306
  224MOL0     C29484   3.576   4.504   0.413  0.2622  0.2446  0.3188
  224MOL0     C29485   3.498   4.619   0.428 -0.5044 -0.3722  0.0352
  224MOL0     N29486   2.942   5.105   0.215  0.7264  0.0324 -0.9568
  224MOL0     N29487   2.917   5.227   0.192  0.6157 -0.0300 -0.4757
  224MOL0     C29488   2.552   4.992   0.189 -0.2528  0.6629 -0.1490
  224MOL0     C29489   2.587   4.947   0.319  0.6527 -0.7449  0.1063
  224MOL0     C29490   2.606   4.729   0.727  0.3488 -0.0532  1.0821
  224MOL0     C29491   2.591   4.761   0.866  0.0103  0.8676 -0.4324
  224MOL0     C29492   2.632   4.675   0.972 -1.0085  0.7331 -0.0161
  224MOL0     C29493   2.682   4.552   0.939  0.4389  0.6297 -0.5146
  224MOL0     O29494   2.715   4.467   1.036 -0.4729  0.3377 -0.0709
  224MOL0     C29495   2.685   4.474   1.180 -0.8259  0.3424 -0.4765
  224MOL0     C29496   2.540   4.428   1.209 -0.0725  0.1361 -0.5847
  224MOL0     C29497   2.528   4.351   1.337 -0.3210  0.8362  0.8784
  224MOL0     C29498   2.387   4.362   1.400 -0.0866  0.0774  0.6269
  224MOL0     C29499   2.287   4.309   1.306 -0.0513  0.0983 -0.0933
  224MOL0     C29500   2.204   4.260   1.222 -0.4561 -0.5597 -0.1609
  224MOL0     C29501   2.697   4.515   0.809  0.3596  0.6566  0.1377
  224MOL0     C29502   2.666   4.605   0.702  0.0863  1.0428  0.5369
  224MOL0     H29503   2.274   4.839   0.410  1.1534 -5.1352  0.3047
  224MOL0     H29504   2.216   4.950   0.207 -0.4848 -0.8479  1.9180
  224MOL0     H29505   2.451   5.103  -0.181  2.2226 -3.3993 -2.1203
  224MOL0     H29506   2.571   5.029  -0.078  0.1984  0.9294 -0.8138
  224MOL0     H29507   2.603   5.284  -0.129  1.0845  1.4865  1.4366
  224MOL0     H29508   2.628   5.229   0.033 -0.8240  1.6514  0.0884
  224MOL0     H29509   2.389   5.303   0.085 -0.0374 -0.1130 -0.2578
  224MOL0     H29510   2.390   5.395  -0.074  1.7823  1.8342  0.6005
  224MOL0     H29511   2.587   5.501  -0.021 -2.4001  2.1338 -1.4612
  224MOL0     H29512   2.459   5.547   0.087 -0.1422  0.0715  0.8059
  224MOL0     H29513   2.654   5.342   0.196 -1.5754 -0.3479 -3.0741
  224MOL0     H29514   2.509   5.406   0.262  0.3834 -0.6371  0.1509
  224MOL0     H29515   2.615   5.621   0.312 -1.7545 -1.5976 -0.0088
  224MOL0     H29516   2.732   5.598   0.175 -1.5239  1.3475  0.1267
  224MOL0     H29517   2.801   5.603   0.413 -3.2151  2.2603 -0.3531
  224MOL0     H29518   2.723   5.449   0.445  0.2903  1.4606  1.4923
  224MOL0     H29519   2.979   5.465   0.399  2.1206 -1.4636 -1.1740
  224MOL0     H29520   2.941   5.476   0.222 -2.7972 -1.0976 -1.2193
  224MOL0     H29521   2.956   5.243   0.517 -1.0333  0.1096 -0.3224
  224MOL0     H29522   3.023   4.885   0.356  0.5404 -1.9497  1.6466
  224MOL0     H29523   2.896   4.907   0.474  0.8048  0.7174  1.5098
  224MOL0     H29524   3.068   5.056   0.605 -1.1472  0.9209 -2.1989
  224MOL0     H29525   3.189   5.000   0.495  0.8806 -2.9858 -1.6314
  224MOL0     H29526   3.183   4.856   0.696  0.3819 -2.8720  0.4571
  224MOL0     H29527   3.010   4.833   0.666  0.6034  0.9666  1.7854
  224MOL0     H29528   3.074   4.674   0.489 -0.2043 -1.9636  1.6748
  224MOL0     H29529   3.166   4.649   0.638  1.9675  1.7234  0.8436
  224MOL0     H29530   3.226   4.466   0.553  0.8759  0.1711  2.4887
  224MOL0     H29531   3.352   4.266   0.522 -0.4768 -1.1415 -0.2506
  224MOL0     H29532   3.740   4.052   0.252  1.6856  1.3187  4.4770
  224MOL0     H29533   3.816   3.836   0.227  0.1389  1.3047  0.2278
  224MOL0     H29534   3.678   3.459   0.414  0.4732 -0.9388 -2.2193
  224MOL0     H29535   3.781   3.566   0.510 -0.6955 -3.0179  1.5970
  224MOL0     H29536   3.882   3.414   0.251  2.3857 -6.7011  2.5117
  224MOL0     H29537   3.866   3.336   0.407 -2.1487 -1.5055  0.1347
  224MOL0     H29538   4.038   3.494   0.502  3.6932  1.6009 -0.9202
  224MOL0     H29539   4.019   3.595   0.364  1.1627  0.3327  0.4635
  224MOL0     H29540   4.067   3.310   0.293 -2.3066  1.6201 -0.9970
  224MOL0     H29541   4.132   3.443   0.222 -3.0156  0.8841  0.9584
  224MOL0     H29542   4.316   3.307   0.344 -1.2619 -2.3599  1.4695
  224MOL0     H29543   4.239   3.332   0.498 -3.4108 -0.8125 -0.7599
  224MOL0     H29544   4.258   3.583   0.475  2.8800  0.4517  3.2804
  224MOL0     H29545   4.318   3.559   0.301  0.0935 -4.5466 -2.2096
  224MOL0     H29546   4.515   3.448   0.386 -0.3170 -0.5248 -0.2682
  224MOL0     H29547   4.500   3.621   0.431 -0.3869  0.2259 -0.5544
  224MOL0     H29548   4.454   3.383   0.627  1.6816 -0.7432 -3.0082
  224MOL0     H29549   4.396   3.548   0.656  0.9758  1.2903 -0.7803
  224MOL0     H29550   3.492   3.695   0.477 -2.8923  2.6606  0.2663
  224MOL0     H29551   3.444   3.927   0.538  1.7799 -0.5119  3.2568
  224MOL0     H29552   3.677   4.517   0.374  0.9475 -0.3228  1.8114
  224MOL0     H29553   3.539   4.719   0.419 -3.7978  1.0678 -0.1693
  224MOL0     H29554   2.636   5.036   0.136  0.2043  1.3264  1.0931
  224MOL0     H29555   2.681   4.950   0.373  1.2527 -0.9085 -0.9112
  224MOL0     H29556   2.539   4.850   0.900 -3.2049 -0.8010 -0.6728
  224MOL0     H29557   2.626   4.706   1.076  2.2582 -1.6281  1.0272
  224MOL0     H29558   2.703   4.571   1.226  3.6744 -0.7161  0.4773
  224MOL0     H29559   2.752   4.402   1.228 -0.0087  2.5668  1.9159
  224MOL0     H29560   2.489   4.524   1.223  0.5950  0.2522  1.2950
  224MOL0     H29561   2.489   4.369   1.132 -0.0719  1.2634 -1.4854
  224MOL0     H29562   2.599   4.386   1.412 -1.3955 -0.9264  2.8324
  224MOL0     H29563   2.560   4.248   1.325  1.1321  0.9833  2.9536
  224MOL0     H29564   2.393   4.312   1.497  3.6245  1.4081  1.2690
  224MOL0     H29565   2.365   4.467   1.423  0.7962  1.1334 -2.7772
  224MOL0     H29566   2.147   4.214   1.144  2.5425 -2.4595 -1.3890
  224MOL0     H29567   2.729   4.414   0.784 -1.2234 -0.0487  0.8107
  224MOL0     H29568   2.672   4.571   0.600 -0.5454 -0.5737  1.0052
  225MOL0     O29569   9.609   7.874   1.626 -0.4718 -0.2185 -0.3133
  225MOL0     C29570   9.609   7.825   1.508 -0.4501  0.6681  0.0206
  225MOL0     O29571   9.705   7.846   1.407  0.0324  0.8679 -0.0438
  225MOL0     C29572   9.807   7.938   1.421  0.4044  0.4240 -0.6118
  225MOL0     C29573   9.781   8.071   1.439 -0.3400  0.3569  0.4230
  225MOL0     C29574   9.881   8.166   1.408  0.4479  0.1308 -0.3625
  225MOL0     C29575  10.011   8.130   1.384  0.0049 -0.0852 -0.0306
  225MOL0     O29576  10.099   8.235   1.378  0.4311 -0.1717  0.3081
  225MOL0     C29577  10.223   8.220   1.453  0.1461  0.5147  0.2427
  225MOL0     C29578  10.307   8.337   1.488 -0.9509 -0.4162 -0.4775
  225MOL0     C29579  10.364   8.390   1.358 -0.0871 -0.9609  0.3861
  225MOL0     C29580  10.467   8.496   1.379 -0.8501 -0.3241 -0.7043
  225MOL0     C29581  10.518   8.563   1.249 -0.6870 -0.6479  0.0259
  225MOL0     C29582  10.619   8.688   1.267 -0.2282  0.8463 -0.3907
  225MOL0     C29583  10.635   8.789   1.159 -0.3361  1.0526  0.2404
  225MOL0     C29584  10.709   8.731   1.034  0.6477  0.0607 -0.3382
  225MOL0     N29585  10.724   8.833   0.926  0.5039 -0.3684 -1.6360
  225MOL0     C29586  10.626   8.912   0.882 -0.0411 -1.2137  0.2524
  225MOL0     C29587  10.693   8.984   0.782  0.4072 -0.0234 -0.9238
  225MOL0     C29588  10.650   9.119   0.734  0.8840 -0.8355  0.3436
  225MOL0     C29589  10.700   9.222   0.832  0.1101  0.8801  0.3775
  225MOL0     C29590  10.667   9.365   0.789  0.2668 -0.1190  0.1710
  225MOL0     C29591  10.688   9.477   0.904  0.2993  0.0744 -0.6645
  225MOL0     O29592  10.655   9.609   0.845 -0.7951 -0.3853  0.3065
  225MOL0     C29593  10.763   9.687   0.871  1.8844  0.2359 -0.4075
  225MOL0     C29594  10.753   9.768   0.980 -1.8829 -0.2140 -0.5317
  225MOL0     C29595  10.855   9.862   1.017  0.0814  0.0661 -0.1728
  225MOL0     C29596  10.975   9.858   0.945 -0.1748  0.2323  0.0346
  225MOL0     C29597  11.084   9.951   0.988  1.0072 -0.9940  0.3180
  225MOL0     O29598  11.204   9.937   0.927 -0.0706  0.1973  0.5597
  225MOL0     C29599  11.293  10.037   0.946  0.6674  0.1491  0.3429
  225MOL0     C29600  11.273  10.166   0.887  0.3411 -0.1854 -0.3008
  225MOL0     C29601  11.369  10.263   0.907 -0.2387  0.3494  0.0618
  225MOL0     C29602  11.478  10.235   1.006  1.2439 -0.0446 -0.5541
  225MOL0     O29603  11.563  10.333   1.053 -0.0930 -0.2279  0.5787
  225MOL0     C29604  11.548  10.459   0.994  0.0205  0.7401 -0.1516
  225MOL0     C29605  11.647  10.570   1.059 -0.1635 -0.0149 -1.0951
  225MOL0     C29606  11.643  10.565   1.215  1.0196  0.7825  0.6036
  225MOL0     C29607  11.685  10.684   1.285 -0.9251  0.3613 -0.0161
  225MOL0     C29608  11.698  10.663   1.435  0.2710  0.0893 -0.4604
  225MOL0     C29609  11.562  10.646   1.498  1.1681 -0.7522 -1.3159
  225MOL0     C29610  11.566  10.678   1.644 -0.3578  0.3937 -1.5160
  225MOL0     C29611  11.437  10.617   1.710  0.4718 -0.4297  0.7810
  225MOL0    Cl29612  11.354  10.723   1.823 -0.0244 -0.4882  0.1077
  225MOL0     C29613  11.484  10.107   1.063  0.1601 -0.4618 -0.2803
  225MOL0     C29614  11.396  10.004   1.030  0.8020  0.1987 -0.1338
  225MOL0     O29615  11.062  10.032   1.079  0.2168 -0.0518 -0.1415
  225MOL0     C29616  10.982   9.774   0.835 -0.2516 -0.0699  0.6550
  225MOL0     C29617  10.878   9.702   0.791 -0.1438 -0.2173 -0.0619
  225MOL0     N29618  10.812   8.917   0.759 -0.5937 -0.7439  0.1844
  225MOL0     N29619  10.824   8.824   0.836 -0.2025 -0.3477  0.2625
  225MOL0     C29620  10.037   7.998   1.350 -0.1314 -0.6468 -0.2258
  225MOL0     C29621   9.938   7.899   1.370  0.1737  0.0355  0.6215
  225MOL0     C29622   9.508   7.728   1.462 -0.6201  0.3101  0.4092
  225MOL0     C29623   9.387   7.688   1.534  0.0550  0.0511 -0.2240
  225MOL0     C29624   9.291   7.608   1.479 -0.4449 -0.2657 -0.0064
  225MOL0     C29625   9.309   7.547   1.357  0.0974 -0.3043 -0.2375
  225MOL0     O29626   9.216   7.454   1.308 -0.1164  0.1253 -0.4015
  225MOL0     C29627   9.253   7.334   1.248 -0.2504 -0.4052  0.4639
  225MOL0     C29628   9.231   7.213   1.336  0.6473  0.1408 -0.0730
  225MOL0     C29629   9.281   7.078   1.274 -0.0271 -0.7329  0.1301
  225MOL0     C29630   9.291   6.963   1.376  0.5857 -0.1892  0.0117
  225MOL0     C29631   9.199   6.982   1.492  0.4882 -0.6919 -0.4933
  225MOL0     C29632   9.153   7.010   1.600  0.8092  0.3681  0.7297
  225MOL0     C29633   9.420   7.591   1.287  0.2856 -0.9001  0.6021
  225MOL0     C29634   9.517   7.675   1.335 -0.3998 -0.0242 -0.2054
  225MOL0     H29635   9.683   8.112   1.458 -0.9214 -0.7779 -0.0605
  225MOL0     H29636   9.868   8.271   1.431  2.7289  0.8226 -1.8175
  225MOL0     H29637  10.283   8.153   1.391 -1.6539 -0.0142 -0.9982
  225MOL0     H29638  10.204   8.182   1.554 -0.7190  0.0292 -0.0923
  225MOL0     H29639  10.387   8.305   1.555 -0.3661 -1.7197 -1.7548
  225MOL0     H29640  10.254   8.413   1.546  1.9953 -0.9596  3.3410
  225MOL0     H29641  10.293   8.433   1.286  2.5249  2.3389 -0.5045
  225MOL0     H29642  10.411   8.307   1.305 -1.9968 -1.0266 -1.3463
  225MOL0     H29643  10.421   8.573   1.442  1.6943  0.7640 -0.0503
  225MOL0     H29644  10.550   8.443   1.426  1.1031 -1.4417 -4.9202
  225MOL0     H29645  10.429   8.599   1.197  0.7863  0.0269 -2.1350
  225MOL0     H29646  10.570   8.484   1.194  1.2464 -0.7640  1.8734
  225MOL0     H29647  10.716   8.659   1.309  1.5423  4.3532 -1.6051
  225MOL0     H29648  10.579   8.748   1.350 -4.3236  0.7194 -2.0368
  225MOL0     H29649  10.537   8.832   1.135 -0.6775  0.8176  1.1760
  225MOL0     H29650  10.694   8.872   1.199  0.3052  0.3749  0.7175
  225MOL0     H29651  10.647   8.651   0.994  0.9168 -1.0505  1.3707
  225MOL0     H29652  10.808   8.688   1.051  0.9472  0.6574 -0.5163
  225MOL0     H29653  10.527   8.935   0.922 -0.6995  0.2754 -2.0316
  225MOL0     H29654  10.542   9.132   0.723  0.6110 -2.0301  1.4278
  225MOL0     H29655  10.691   9.133   0.633 -1.9931 -3.8935 -1.4590
  225MOL0     H29656  10.800   9.198   0.870 -0.5274  0.0204  1.5913
  225MOL0     H29657  10.644   9.207   0.924  3.3307  2.6538  2.8286
  225MOL0     H29658  10.723   9.400   0.702 -0.0306 -4.1686 -1.8469
  225MOL0     H29659  10.566   9.365   0.749  1.0642 -2.2312 -2.0676
  225MOL0     H29660  10.792   9.476   0.938 -0.1766 -0.9702  0.8636
  225MOL0     H29661  10.634   9.443   0.993  1.0664 -0.6472 -0.4568
  225MOL0     H29662  10.665   9.756   1.044  0.7884 -3.4474  3.0493
  225MOL0     H29663  10.838   9.918   1.109 -2.1378 -0.3901 -0.2554
  225MOL0     H29664  11.195  10.187   0.814 -3.5607  0.2987  3.5930
  225MOL0     H29665  11.358  10.356   0.851 -2.9741  2.0490  3.0782
  225MOL0     H29666  11.449  10.496   1.023 -1.6959 -2.4580 -1.4341
  225MOL0     H29667  11.556  10.451   0.885  0.9938 -1.0273  0.0277
  225MOL0     H29668  11.598  10.663   1.029  1.5053  0.5602 -2.2041
  225MOL0     H29669  11.751  10.561   1.025  0.9849  3.2196  1.1255
  225MOL0     H29670  11.711  10.481   1.234 -0.6219 -1.5221 -2.6332
  225MOL0     H29671  11.542  10.553   1.253  0.1029  3.3444 -0.8104
  225MOL0     H29672  11.785  10.719   1.256 -1.3054  0.9642 -0.6369
  225MOL0     H29673  11.618  10.770   1.273 -1.8551 -0.0520  1.8291
  225MOL0     H29674  11.753  10.750   1.472  1.8570 -1.3156  0.6338
  225MOL0     H29675  11.764  10.578   1.454 -0.5875 -0.7922 -1.2907
  225MOL0     H29676  11.524  10.547   1.470 -0.2214 -0.5072 -0.4017
  225MOL0     H29677  11.489  10.716   1.455 -1.1096 -1.6887  0.7940
  225MOL0     H29678  11.659  10.643   1.690 -1.3466  2.4273  2.4586
  225MOL0     H29679  11.565  10.786   1.660 -0.3982 -0.1016  3.5175
  225MOL0     H29680  11.455  10.522   1.761 -0.7585  0.3750  2.8139
  225MOL0     H29681  11.366  10.585   1.633  0.2330 -0.8110  1.1575
  225MOL0     H29682  11.557  10.095   1.142  0.3443  2.1657  0.0342
  225MOL0     H29683  11.403   9.901   1.066 -0.3740 -0.1701 -0.9172
  225MOL0     H29684  11.068   9.774   0.769  0.9606  3.4714  1.9935
  225MOL0     H29685  10.879   9.633   0.707 -2.9695 -1.5497  0.8815
  225MOL0     H29686  10.135   7.976   1.307  2.0108  3.7991  1.6725
  225MOL0     H29687   9.958   7.792   1.361 -0.9228 -0.3216  2.1642
  225MOL0     H29688   9.371   7.729   1.633  2.8091  1.6726 -0.3315
  225MOL0     H29689   9.200   7.590   1.535 -1.1146 -0.4837 -1.1429
  225MOL0     H29690   9.359   7.342   1.220 -0.6899 -3.2178 -2.6282
  225MOL0     H29691   9.197   7.317   1.156 -1.0649 -3.0956  1.3437
  225MOL0     H29692   9.285   7.217   1.431  2.0448  0.9438 -0.8565
  225MOL0     H29693   9.122   7.211   1.349  0.4358 -0.6251 -1.6752
  225MOL0     H29694   9.376   7.082   1.219 -0.7071 -0.9369 -1.0998
  225MOL0     H29695   9.204   7.060   1.198 -1.3444  2.1457  0.6495
  225MOL0     H29696   9.266   6.866   1.332  3.1760 -0.7195 -0.4967
  225MOL0     H29697   9.397   6.947   1.397  1.0848 -0.3165 -2.2927
  225MOL0     H29698   9.105   7.028   1.694 -2.4138  1.3861 -0.9490
  225MOL0     H29699   9.438   7.551   1.188  3.1977 -0.1581  0.7511
  225MOL0     H29700   9.599   7.702   1.268 -1.2122 -1.6872 -1.9471
  226MOL0     O29701   2.152   4.634  10.556  0.7810  0.2031 -0.7372
  226MOL0     C29702   2.148   4.664  10.432  1.3343 -0.1784 -0.2312
  226MOL0     O29703   2.038   4.654  10.355 -0.0626 -0.5030 -0.1830
  226MOL0     C29704   1.918   4.614  10.407  0.5192 -1.0586 -0.6108
  226MOL0     C29705   1.889   4.515  10.503 -0.0900  0.4878  0.7255
  226MOL0     C29706   1.759   4.459  10.524  0.4350 -0.1864 -0.2422
  226MOL0     C29707   1.651   4.491  10.439  0.6367 -1.0121 -0.5708
  226MOL0     O29708   1.533   4.414  10.466 -0.0921  0.3623  0.2586
  226MOL0     C29709   1.415   4.425  10.383 -0.2837 -0.3354 -1.0886
  226MOL0     C29710   1.410   4.360  10.246  0.4008  0.3373 -0.2864
  226MOL0     C29711   1.378   4.214  10.248  0.0637 -0.0600 -0.1369
  226MOL0     C29712   1.340   4.166  10.113  0.6030  0.4738  0.1436
  226MOL0     C29713   1.392   4.019  10.073 -0.7827 -0.1206 -0.4131
  226MOL0     C29714   1.380   3.989   9.923  0.2847 -0.2857 -0.0666
  226MOL0     C29715   1.424   3.847   9.885  0.3673  1.2143 -0.0987
  226MOL0     C29716   1.565   3.857   9.829  0.1889 -0.5607 -0.8872
  226MOL0     N29717   1.625   3.728   9.812 -0.1961  0.4522  0.1926
  226MOL0     C29718   1.648   3.679   9.688  0.8371  1.0615  0.7686
  226MOL0     C29719   1.708   3.556   9.717  0.2632  0.1497 -0.0917
  226MOL0     C29720   1.772   3.451   9.613 -0.9430  0.6245 -1.1422
  226MOL0     C29721   1.692   3.416   9.495 -0.7261  0.2877  0.3902
  226MOL0     C29722   1.551   3.356   9.526  0.5117  0.5072  0.3773
  226MOL0     C29723   1.483   3.273   9.420  0.2163 -0.0754 -0.1355
  226MOL0     O29724   1.449   3.368   9.311  0.0173  0.6019 -0.1178
  226MOL0     C29725   1.390   3.316   9.193 -0.8108  0.4308  0.2933
  226MOL0     C29726   1.376   3.405   9.088  1.0816 -0.2321  0.3861
  226MOL0     C29727   1.300   3.373   8.972 -1.7063 -0.5973  0.2337
  226MOL0     C29728   1.247   3.244   8.953  0.0933  0.8618 -0.0603
  226MOL0     C29729   1.176   3.191   8.832 -0.5900  0.5691 -0.0348
  226MOL0     O29730   1.112   3.076   8.844 -0.5260 -1.0062 -0.1539
  226MOL0     C29731   1.112   2.997   8.739  0.3940 -0.0125  0.5351
  226MOL0     C29732   0.987   2.957   8.679 -0.3297  0.3553 -0.0254
  226MOL0     C29733   0.992   2.875   8.566  0.1218  0.2853  1.3087
  226MOL0     C29734   1.113   2.835   8.506  0.1806 -0.3616 -0.6505
  226MOL0     O29735   1.128   2.732   8.418 -0.0589 -0.6432  0.5579
  226MOL0     C29736   1.030   2.642   8.364  0.5699 -0.3902  0.3743
  226MOL0     C29737   1.040   2.506   8.432 -0.2614 -0.3008 -0.5898
  226MOL0     C29738   1.181   2.435   8.438 -0.0882 -0.0011 -0.9917
  226MOL0     C29739   1.176   2.313   8.538  0.6829 -0.1301 -0.6593
  226MOL0     C29740   1.315   2.247   8.563 -0.0102 -0.0460  0.5339
  226MOL0     C29741   1.297   2.102   8.618  0.9341  0.4268 -0.4230
  226MOL0     C29742   1.430   2.033   8.627 -0.0996  0.8587 -0.5410
  226MOL0     C29743   1.426   1.892   8.698 -0.9429 -0.0846  0.0194
  226MOL0    Cl29744   1.349   1.773   8.597 -0.1556 -0.1802 -0.0217
  226MOL0     C29745   1.234   2.880   8.567  0.6683 -0.1827  0.5736
  226MOL0     C29746   1.230   2.958   8.681  0.3938 -0.6455 -1.0555
  226MOL0     O29747   1.182   3.258   8.732  0.3878 -0.4227  0.3201
  226MOL0     C29748   1.277   3.156   9.058 -0.3039  0.0778 -0.5440
  226MOL0     C29749   1.344   3.186   9.174 -0.6845 -0.4274  0.1416
  226MOL0     N29750   1.695   3.526   9.852 -0.2060 -0.7696 -0.5714
  226MOL0     N29751   1.650   3.634   9.913  0.1832  0.4877  0.1310
  226MOL0     C29752   1.683   4.594  10.345 -0.3692 -0.0772  0.3150
  226MOL0     C29753   1.809   4.650  10.329  0.2989 -0.2370 -0.2438
  226MOL0     C29754   2.265   4.732  10.371  0.8083  1.0745 -1.4189
  226MOL0     C29755   2.371   4.777  10.447 -0.0409  0.7007 -0.9087
  226MOL0     C29756   2.479   4.842  10.385  0.8549  0.0858  0.5950
  226MOL0     C29757   2.492   4.867  10.246 -0.4668 -0.3440 -0.7333
  226MOL0     O29758   2.607   4.920  10.198 -0.7589  0.6198  0.4841
  226MOL0     C29759   2.635   4.946  10.059 -0.0859  0.0486 -0.8968
  226MOL0     C29760   2.548   5.063  10.005 -0.5404  1.2011  0.9640
  226MOL0     C29761   2.550   5.198  10.073 -0.9611  0.9726 -0.0456
  226MOL0     C29762   2.452   5.293  10.016 -0.8726  0.3748  0.1661
  226MOL0     C29763   2.486   5.423  10.072  0.3082 -0.1952 -0.3839
  226MOL0     C29764   2.540   5.526  10.100  0.8998 -0.7538  0.0495
  226MOL0     C29765   2.374   4.831  10.182  0.2991 -0.1311  0.7015
  226MOL0     C29766   2.265   4.767  10.244 -0.2408 -0.5957 -0.3601
  226MOL0     H29767   1.973   4.485  10.565 -0.3536  3.7190  2.8970
  226MOL0     H29768   1.744   4.386  10.603  1.3562 -2.0061 -1.6750
  226MOL0     H29769   1.404   4.534  10.390  0.5195 -0.3548  0.8870
  226MOL0     H29770   1.334   4.385  10.444 -0.7934  0.5400 -1.1672
  226MOL0     H29771   1.501   4.379  10.188  0.4919  0.5315 -0.0782
  226MOL0     H29772   1.325   4.404  10.192  0.3612  1.4903  0.6897
  226MOL0     H29773   1.313   4.180  10.330  0.4270  0.5415  0.4071
  226MOL0     H29774   1.475   4.168  10.271  0.2979  0.0464 -0.9042
  226MOL0     H29775   1.230   4.166  10.108  0.5685  1.2746  0.7819
  226MOL0     H29776   1.379   4.240  10.043  0.7386  1.9825  1.7423
  226MOL0     H29777   1.331   3.947  10.127 -2.8878 -0.8562 -3.4680
  226MOL0     H29778   1.499   4.013  10.095 -0.3233 -2.0319 -2.7196
  226MOL0     H29779   1.420   4.059   9.849  3.4904 -0.2841  1.4981
  226MOL0     H29780   1.272   4.000   9.909  0.2379 -0.5589  0.0679
  226MOL0     H29781   1.406   3.773   9.964 -2.9039  2.1330  0.1605
  226MOL0     H29782   1.347   3.819   9.812 -1.8776  0.4277  2.3944
  226MOL0     H29783   1.626   3.926   9.888  0.7322 -0.5692 -1.4331
  226MOL0     H29784   1.555   3.906   9.731 -1.3602  0.2981 -0.3239
  226MOL0     H29785   1.636   3.730   9.593 -1.5962  1.1549  1.0602
  226MOL0     H29786   1.810   3.362   9.663  0.4390  1.2302 -1.0457
  226MOL0     H29787   1.869   3.482   9.573 -0.0823 -0.0473  0.3611
  226MOL0     H29788   1.759   3.347   9.442  0.9216  0.3545  2.2363
  226MOL0     H29789   1.687   3.511   9.441  0.4772 -0.4685 -1.1479
  226MOL0     H29790   1.582   3.284   9.601  0.2365 -0.8199 -0.7403
  226MOL0     H29791   1.480   3.430   9.564 -1.4207 -0.2899 -1.4157
  226MOL0     H29792   1.396   3.232   9.472 -1.2209  4.2404  1.2947
  226MOL0     H29793   1.538   3.192   9.372 -2.3667 -2.2134  0.3201
  226MOL0     H29794   1.425   3.502   9.085  0.4475  0.1724  1.8945
  226MOL0     H29795   1.300   3.445   8.891  1.8796 -1.3107 -0.5682
  226MOL0     H29796   0.887   2.992   8.702 -2.5092 -1.7522 -4.8944
  226MOL0     H29797   0.894   2.836   8.538  0.3212 -0.9045  2.1983
  226MOL0     H29798   1.050   2.614   8.260  1.9465 -1.8990  0.9959
  226MOL0     H29799   0.929   2.684   8.364  1.7380  2.6315  0.1178
  226MOL0     H29800   0.970   2.439   8.381 -0.8402 -0.6237  0.5992
  226MOL0     H29801   1.007   2.522   8.535  0.8631  0.8789 -0.3909
  226MOL0     H29802   1.257   2.507   8.469 -0.9036  1.0763 -1.4024
  226MOL0     H29803   1.224   2.402   8.343  0.3773 -0.4354 -0.6367
  226MOL0     H29804   1.141   2.345   8.637  3.8545 -1.5140  1.0586
  226MOL0     H29805   1.117   2.233   8.495  1.3517 -0.5385 -0.8300
  226MOL0     H29806   1.373   2.302   8.638  1.9852 -1.0248 -0.2233
  226MOL0     H29807   1.371   2.250   8.469  1.9092  0.6323  1.6346
  226MOL0     H29808   1.233   2.043   8.552  2.1020 -0.8282 -0.4758
  226MOL0     H29809   1.264   2.113   8.722  4.0865 -0.0528  0.7520
  226MOL0     H29810   1.483   2.008   8.534  3.0455 -0.9404  1.5329
  226MOL0     H29811   1.491   2.097   8.692 -1.0602  0.6630  0.5925
  226MOL0     H29812   1.372   1.898   8.793  0.1614  0.5104  0.6389
  226MOL0     H29813   1.529   1.857   8.715 -0.1678  2.2003  0.2979
  226MOL0     H29814   1.328   2.848   8.523 -0.3709 -1.0805 -1.0891
  226MOL0     H29815   1.327   2.984   8.723 -0.4868 -0.3918  0.9677
  226MOL0     H29816   1.242   3.053   9.066 -1.1847  0.5264  3.4669
  226MOL0     H29817   1.369   3.116   9.253  0.2389  3.6406  3.9169
  226MOL0     H29818   1.605   4.614  10.272 -0.6354  2.5594  1.2263
  226MOL0     H29819   1.816   4.721  10.248  1.9131  0.9213  0.8571
  226MOL0     H29820   2.372   4.754  10.553  2.7906  1.1242 -0.7633
  226MOL0     H29821   2.555   4.890  10.447  2.4351 -0.6593 -0.6696
  226MOL0     H29822   2.624   4.856   9.998 -2.0248  0.4528 -1.2037
  226MOL0     H29823   2.735   4.986  10.042 -0.1228  0.7185  0.3916
  226MOL0     H29824   2.580   5.080   9.902 -2.5271  3.0989  0.5821
  226MOL0     H29825   2.445   5.026  10.006 -0.8745  2.0912  1.5126
  226MOL0     H29826   2.654   5.231  10.075 -0.4507 -0.5520  1.0227
  226MOL0     H29827   2.530   5.194  10.181  0.3076  1.3668  0.2177
  226MOL0     H29828   2.455   5.292   9.907  3.2748  1.6824  0.1019
  226MOL0     H29829   2.350   5.268  10.046 -0.6563 -1.2677 -0.3933
  226MOL0     H29830   2.597   5.610  10.135  3.5525 -0.8416 -3.4178
  226MOL0     H29831   2.360   4.843  10.075 -0.4532 -1.2116  0.6659
  226MOL0     H29832   2.178   4.745  10.183 -0.1132  0.9237 -1.1573
  227MOL0     O29833   0.077   1.385   6.675 -0.0084 -0.4522 -0.6241
  227MOL0     C29834   0.197   1.391   6.679 -0.3121  0.6089 -0.8963
  227MOL0     O29835   0.275   1.493   6.728 -0.1421 -0.8902 -0.1407
  227MOL0     C29836   0.212   1.614   6.758  0.1814 -0.3290 -0.2446
  227MOL0     C29837   0.170   1.695   6.655 -0.5476  0.5947 -0.1822
  227MOL0     C29838   0.093   1.805   6.688 -0.9385 -0.5328 -0.1655
  227MOL0     C29839   0.074   1.854   6.818 -0.6425  0.2641 -0.0842
  227MOL0     O29840   0.000   1.970   6.846 -0.4861  0.7697 -0.1490
  227MOL0     C29841   0.058   2.061   6.941  0.4641  0.3274  0.2437
  227MOL0     C29842  -0.050   2.160   6.993  0.1541  0.3302 -0.0690
  227MOL0     C29843  -0.103   2.271   6.907  0.0355  0.3390 -0.1969
  227MOL0     C29844  -0.239   2.245   6.838 -0.4433 -0.1545  0.8500
  227MOL0     C29845  -0.276   2.360   6.745  0.5296 -0.6409 -0.0942
  227MOL0     C29846  -0.397   2.333   6.661  0.2561  0.6252  0.2971
  227MOL0     C29847  -0.408   2.419   6.536  0.5132  0.1135  0.3855
  227MOL0     C29848  -0.543   2.420   6.479  0.6024 -1.0467 -0.2931
  227MOL0     N29849  -0.543   2.461   6.336  0.1876  0.3707 -0.2221
  227MOL0     C29850  -0.508   2.580   6.285 -0.4677  0.3577 -0.2930
  227MOL0     C29851  -0.493   2.563   6.151  0.4566 -0.5698 -0.2819
  227MOL0     C29852  -0.430   2.674   6.061  0.9024 -0.6806 -0.7492
  227MOL0     C29853  -0.304   2.736   6.113 -1.0007 -0.5094  0.0545
  227MOL0     C29854  -0.313   2.860   6.206 -0.1754 -1.1534  0.8270
  227MOL0     C29855  -0.177   2.872   6.291  0.6789 -0.3917  0.6226
  227MOL0     O29856  -0.148   2.760   6.385 -0.2176  0.5279  0.1522
  227MOL0     C29857  -0.027   2.762   6.446 -0.0514  0.2711 -1.0558
  227MOL0     C29858  -0.010   2.664   6.548 -0.0566 -0.5042  0.8495
  227MOL0     C29859   0.111   2.662   6.622 -0.0665 -0.1148  0.1045
  227MOL0     C29860   0.207   2.760   6.602  0.0479 -0.2087  0.5161
  227MOL0     C29861   0.349   2.743   6.662  0.4962  0.0787  0.7316
  227MOL0     O29862   0.421   2.857   6.670  0.1940 -0.0891 -0.6594
  227MOL0     C29863   0.552   2.849   6.712  1.3263  0.5807  0.2234
  227MOL0     C29864   0.642   2.757   6.669  0.0274 -0.3378  1.0786
  227MOL0     C29865   0.775   2.764   6.719  0.9378  0.0824  0.4165
  227MOL0     C29866   0.811   2.868   6.803 -0.2078 -0.7370  0.5875
  227MOL0     O29867   0.931   2.876   6.868 -0.2360 -0.4949 -0.8669
  227MOL0     C29868   1.000   2.750   6.883  0.1135  0.0680 -0.8016
  227MOL0     C29869   1.098   2.756   6.991 -0.4281  0.8520  0.3420
  227MOL0     C29870   1.158   2.625   7.047  0.2233  0.6700 -0.5512
  227MOL0     C29871   1.210   2.541   6.927  0.0573 -0.5069  0.8753
  227MOL0     C29872   1.291   2.424   6.974  0.1290 -0.6673  0.4456
  227MOL0     C29873   1.323   2.327   6.850 -0.4512  0.0271 -0.5463
  227MOL0     C29874   1.423   2.213   6.883  1.3941 -0.1487  0.4108
  227MOL0     C29875   1.455   2.121   6.767  0.0400 -0.1738 -0.2247
  227MOL0    Cl29876   1.543   2.192   6.633 -0.3218  0.0834 -0.2355
  227MOL0     C29877   0.717   2.968   6.833  0.1072 -0.3695  1.2959
  227MOL0     C29878   0.590   2.952   6.784  0.3944  0.4757  0.6555
  227MOL0     O29879   0.374   2.635   6.706 -0.8484  0.4027  0.0613
  227MOL0     C29880   0.188   2.863   6.506 -0.3836 -0.6305 -0.7128
  227MOL0     C29881   0.075   2.867   6.425 -0.9405  0.5731 -0.6097
  227MOL0     N29882  -0.532   2.437   6.124 -0.3276 -0.4669  1.0360
  227MOL0     N29883  -0.547   2.370   6.231 -0.2885 -0.5518  0.1564
  227MOL0     C29884   0.118   1.773   6.922 -1.0939  0.5218  0.1360
  227MOL0     C29885   0.182   1.654   6.884 -0.1716  0.0118 -0.2811
  227MOL0     C29886   0.279   1.271   6.648 -0.2318  0.5741 -0.2902
  227MOL0     C29887   0.224   1.180   6.561 -0.3004  0.0725 -0.7686
  227MOL0     C29888   0.304   1.078   6.520  0.9715  0.8924 -0.1476
  227MOL0     C29889   0.431   1.057   6.571 -0.0122  0.0018 -0.1605
  227MOL0     O29890   0.512   0.949   6.523 -0.3629  0.2274 -0.6164
  227MOL0     C29891   0.653   0.960   6.506 -0.3461 -0.2112 -0.5080
  227MOL0     C29892   0.686   0.910   6.365 -1.8385 -0.0276  0.0800
  227MOL0     C29893   0.842   0.903   6.341  0.7800  0.0464 -0.5151
  227MOL0     C29894   0.891   0.774   6.409 -0.5875 -0.6582  0.0911
  227MOL0     C29895   1.027   0.746   6.376 -0.7537  0.5398 -0.4293
  227MOL0     C29896   1.145   0.709   6.351  0.6517 -0.2681 -0.3154
  227MOL0     C29897   0.472   1.137   6.676  0.0018 -0.5104  1.0223
  227MOL0     C29898   0.405   1.249   6.705 -0.3407  0.1386  0.2139
  227MOL0     H29899   0.174   1.657   6.554  0.6971 -0.2951  0.1884
  227MOL0     H29900   0.033   1.849   6.609 -1.4889 -0.7472  0.1220
  227MOL0     H29901   0.143   2.108   6.891  1.0385 -2.2396 -1.3469
  227MOL0     H29902   0.099   2.008   7.027 -0.4788  1.7170  1.6083
  227MOL0     H29903  -0.020   2.210   7.085 -0.0437  2.2629 -0.9988
  227MOL0     H29904  -0.134   2.093   7.017  1.6924 -0.8435  2.3958
  227MOL0     H29905  -0.026   2.294   6.833  1.2409  0.0283  0.9312
  227MOL0     H29906  -0.116   2.361   6.969 -1.4336 -0.2222  0.3451
  227MOL0     H29907  -0.225   2.147   6.791 -1.5699  0.0378  0.0766
  227MOL0     H29908  -0.314   2.240   6.918 -1.6027  0.7429 -0.1313
  227MOL0     H29909  -0.200   2.387   6.670  3.3779 -0.3248  2.6869
  227MOL0     H29910  -0.298   2.448   6.807 -0.4187 -0.9215 -0.0183
  227MOL0     H29911  -0.483   2.354   6.725 -0.3124 -0.1886 -0.1838
  227MOL0     H29912  -0.411   2.227   6.641 -1.9909  0.8631  0.3455
  227MOL0     H29913  -0.385   2.521   6.566  1.0179  0.1890 -0.2191
  227MOL0     H29914  -0.329   2.388   6.466  0.7597 -0.2396  0.8178
  227MOL0     H29915  -0.614   2.492   6.522 -0.3869 -0.3651 -2.8734
  227MOL0     H29916  -0.587   2.321   6.493  2.7324 -2.0794 -0.5310
  227MOL0     H29917  -0.507   2.678   6.332 -2.8228  1.4902 -2.3586
  227MOL0     H29918  -0.509   2.748   6.046  1.4238 -0.7790 -6.1335
  227MOL0     H29919  -0.406   2.616   5.970 -0.3102 -2.0335 -0.2520
  227MOL0     H29920  -0.246   2.785   6.034  0.2158  0.3410  1.4283
  227MOL0     H29921  -0.238   2.660   6.157 -2.0465 -0.7734  1.2368
  227MOL0     H29922  -0.331   2.956   6.157  1.6409 -0.0810  2.1367
  227MOL0     H29923  -0.391   2.843   6.281  0.0995 -0.3384  1.3102
  227MOL0     H29924  -0.183   2.963   6.351 -3.0131 -1.4750  2.2126
  227MOL0     H29925  -0.101   2.882   6.214 -0.1646 -2.1409 -0.5026
  227MOL0     H29926  -0.094   2.603   6.580 -0.8395 -0.5674 -1.2203
  227MOL0     H29927   0.140   2.587   6.694  0.9682  0.2569  0.0901
  227MOL0     H29928   0.613   2.680   6.597  0.5052  0.6170 -0.1810
  227MOL0     H29929   0.833   2.675   6.695  0.3203 -0.7705  1.9144
  227MOL0     H29930   1.058   2.729   6.792  0.6567  0.4904 -0.5616
  227MOL0     H29931   0.927   2.670   6.895 -1.0033  1.2429  0.5247
  227MOL0     H29932   1.050   2.810   7.072 -2.3002 -0.4473  0.1634
  227MOL0     H29933   1.195   2.799   6.964 -0.7156  2.6853  2.0535
  227MOL0     H29934   1.085   2.564   7.101  0.2574 -0.9905 -2.2891
  227MOL0     H29935   1.244   2.636   7.114 -1.0822  2.2096  0.9889
  227MOL0     H29936   1.123   2.499   6.875  0.4170 -2.0964  1.5054
  227MOL0     H29937   1.253   2.605   6.849 -2.6455  1.9540  1.2454
  227MOL0     H29938   1.229   2.365   7.043 -1.3099 -0.9658 -1.0416
  227MOL0     H29939   1.387   2.464   7.009  0.9055 -0.8230 -1.3745
  227MOL0     H29940   1.356   2.395   6.771 -0.6299  0.7357 -0.0222
  227MOL0     H29941   1.233   2.283   6.806  0.3112 -0.1311 -2.0122
  227MOL0     H29942   1.523   2.242   6.917  1.2034 -0.4986  1.3023
  227MOL0     H29943   1.382   2.141   6.954  1.4304 -0.6998 -0.1172
  227MOL0     H29944   1.359   2.081   6.735  0.4782  1.3434 -4.0547
  227MOL0     H29945   1.507   2.035   6.811 -1.8889  0.2129  3.1625
  227MOL0     H29946   0.744   3.049   6.900  2.5728  0.8874 -0.9969
  227MOL0     H29947   0.512   3.025   6.806  1.6336  1.0392  3.6551
  227MOL0     H29948   0.268   2.937   6.507 -2.1284  1.5110 -3.8861
  227MOL0     H29949   0.077   2.949   6.353  1.5999  1.2596  0.1354
  227MOL0     H29950   0.106   1.794   7.028 -1.2211 -1.3098  0.5100
  227MOL0     H29951   0.233   1.589   6.955  4.4868 -1.9525 -4.7145
  227MOL0     H29952   0.122   1.192   6.528 -0.5761  0.6394  0.2387
  227MOL0     H29953   0.276   1.016   6.436 -0.6546  3.6937 -1.8414
  227MOL0     H29954   0.710   0.905   6.581 -1.5194  1.1448  1.4801
  227MOL0     H29955   0.678   1.067   6.503 -3.6252  0.6686 -3.2911
  227MOL0     H29956   0.638   0.819   6.329 -3.3985  2.1579 -4.0023
  227MOL0     H29957   0.650   0.990   6.299 -0.0452 -0.6127 -1.7081
  227MOL0     H29958   0.884   0.990   6.392 -1.9511  1.9937 -1.4018
  227MOL0     H29959   0.860   0.908   6.233  1.9335 -0.6318 -0.3763
  227MOL0     H29960   0.891   0.794   6.516 -1.6888  0.4818 -0.0981
  227MOL0     H29961   0.836   0.682   6.385  0.2471 -1.4982  1.3237
  227MOL0     H29962   1.243   0.666   6.344 -0.7934 -4.1217  0.6718
  227MOL0     H29963   0.562   1.111   6.731  0.2359 -1.4556  0.2375
  227MOL0     H29964   0.433   1.326   6.778 -3.7265  0.7773  1.0106
  228MOL0     O29965   7.070   8.752   4.989  0.0666  0.7834 -0.3063
  228MOL0     C29966   6.996   8.806   5.064  0.3881 -1.3722  0.0658
  228MOL0     O29967   6.866   8.770   5.090  0.6609 -0.5827  0.2290
  228MOL0     C29968   6.805   8.668   5.023  0.2572 -0.2192 -1.0846
  228MOL0     C29969   6.814   8.644   4.886 -0.1436 -0.5633 -0.1762
  228MOL0     C29970   6.752   8.529   4.834  0.8043  0.1991  0.2062
  228MOL0     C29971   6.682   8.439   4.913 -0.5529  0.5678  0.1851
  228MOL0     O29972   6.631   8.313   4.885 -0.3151  0.4518 -0.6910
  228MOL0     C29973   6.689   8.242   4.770  0.2475  0.9879 -1.5973
  228MOL0     C29974   6.839   8.202   4.802  0.0673 -0.4914  0.0052
  228MOL0     C29975   6.903   8.105   4.711  0.0312  0.1945 -0.5065
  228MOL0     C29976   6.896   8.140   4.564  0.2951 -0.2266  0.3903
  228MOL0     C29977   6.984   8.056   4.471  0.6703  0.6600  0.3227
  228MOL0     C29978   6.963   8.084   4.317  0.0429  0.8277  0.2564
  228MOL0     C29979   7.057   8.183   4.254 -0.2280 -0.1273 -0.1235
  228MOL0     C29980   7.193   8.129   4.265 -0.7545  0.3246  0.6093
  228MOL0     N29981   7.287   8.249   4.252 -0.9535 -0.3312  0.4763
  228MOL0     C29982   7.388   8.274   4.165  0.1677 -0.1302  0.5611
  228MOL0     C29983   7.465   8.370   4.223  0.0583  0.3983  0.0984
  228MOL0     C29984   7.592   8.431   4.167  0.2623  0.3445 -0.0765
  228MOL0     C29985   7.702   8.450   4.275 -0.3617 -0.5336 -0.3400
  228MOL0     C29986   7.833   8.414   4.223 -0.3680 -0.1797 -0.2742
  228MOL0     C29987   7.950   8.481   4.292 -0.7738 -0.9942 -0.3785
  228MOL0     O29988   8.066   8.473   4.203 -0.5761  0.0286  0.7189
  228MOL0     C29989   8.146   8.354   4.224 -0.4263 -0.0822 -0.0757
  228MOL0     C29990   8.272   8.357   4.161 -0.0660  0.2842 -0.0764
  228MOL0     C29991   8.361   8.244   4.188 -0.6136  0.3904  0.5093
  228MOL0     C29992   8.317   8.133   4.252 -0.0313 -0.0490 -0.2668
  228MOL0     C29993   8.414   8.022   4.290  0.3876  0.0301 -0.3390
  228MOL0     O29994   8.371   7.956   4.403 -0.5381  1.5795  0.5290
  228MOL0     C29995   8.470   7.886   4.465  0.2387  1.1208 -0.9883
  228MOL0     C29996   8.429   7.762   4.514  0.0530  0.3461 -0.4222
  228MOL0     C29997   8.516   7.686   4.598 -0.1197 -0.8144 -0.3049
  228MOL0     C29998   8.646   7.729   4.614 -0.3880 -0.1199  0.9739
  228MOL0     O29999   8.723   7.634   4.680  0.1830 -0.1974  0.4734
  228MOL0     C30000   8.862   7.636   4.681 -1.2402 -0.4752  0.4154
  228MOL0     C30001   8.906   7.712   4.800  0.4775 -0.2492 -0.5567
  228MOL0     C30002   9.010   7.629   4.883 -0.4201 -0.0233  0.2826
  228MOL0     C30003   8.966   7.505   4.966 -0.7403 -1.1292  0.4322
  228MOL0     C30004   9.089   7.426   5.022 -0.2413  0.2309 -0.0488
  228MOL0     C30005   9.216   7.502   5.051  0.1743 -0.9965 -0.4029
  228MOL0     C30006   9.328   7.415   5.121  0.2559 -0.0810  0.4946
  228MOL0     C30007   9.472   7.441   5.077  0.0141 -0.1034 -0.5046
  228MOL0    Cl30008   9.586   7.389   5.202 -0.6794  0.4739  0.2311
  228MOL0     C30009   8.676   7.856   4.577 -0.5131  0.0204  0.1992
  228MOL0     C30010   8.593   7.936   4.498  0.3590  0.0486  0.7188
  228MOL0     O30011   8.522   8.019   4.235 -0.1993  0.5376  0.3966
  228MOL0     C30012   8.183   8.129   4.291 -0.6283 -0.2924 -0.4029
  228MOL0     C30013   8.097   8.236   4.283 -0.1012 -0.1894 -0.7880
  228MOL0     N30014   7.410   8.404   4.343  0.5761 -0.7358  0.3773
  228MOL0     N30015   7.308   8.335   4.361 -0.6459 -0.1121 -0.3401
  228MOL0     C30016   6.666   8.466   5.043  0.7606 -0.4713 -0.9355
  228MOL0     C30017   6.729   8.578   5.102 -0.7827  1.1704  0.6750
  228MOL0     C30018   7.055   8.922   5.125 -0.9761  0.5917 -0.0893
  228MOL0     C30019   7.135   9.004   5.049 -0.6419 -0.3954 -0.6564
  228MOL0     C30020   7.202   9.111   5.099  0.2501  0.2694  0.6885
  228MOL0     C30021   7.176   9.160   5.232 -0.1257 -0.0700 -0.0620
  228MOL0     O30022   7.231   9.276   5.282  0.1341  0.4416  0.4851
  228MOL0     C30023   7.239   9.382   5.183 -0.7321 -0.8043  0.2222
  228MOL0     C30024   7.118   9.476   5.177 -0.4333 -0.0311  0.6164
  228MOL0     C30025   7.018   9.457   5.290 -0.5819  0.3018 -0.5987
  228MOL0     C30026   7.015   9.556   5.401 -1.0170  0.3136  0.0886
  228MOL0     C30027   6.889   9.528   5.471 -0.0758 -1.4893  1.3502
  228MOL0     C30028   6.781   9.515   5.531 -0.1384 -0.1643  1.0237
  228MOL0     C30029   7.099   9.073   5.312 -0.3903 -0.6115 -0.3153
  228MOL0     C30030   7.036   8.959   5.256  0.4836  0.0902  0.4805
  228MOL0     H30031   6.871   8.701   4.812 -0.8003  0.9557  0.4643
  228MOL0     H30032   6.780   8.500   4.733 -1.5958 -0.0610 -0.4554
  228MOL0     H30033   6.682   8.304   4.680  0.2797 -0.4462 -2.6369
  228MOL0     H30034   6.639   8.151   4.733  0.5712  1.0578 -2.2256
  228MOL0     H30035   6.825   8.161   4.903 -2.7497  0.0350 -0.0852
  228MOL0     H30036   6.909   8.285   4.810  2.1725 -1.8942 -2.2706
  228MOL0     H30037   6.867   8.004   4.732  1.6323 -0.2007  0.4427
  228MOL0     H30038   7.009   8.109   4.736  0.0451  3.2461 -0.6711
  228MOL0     H30039   6.791   8.129   4.535 -0.8397  1.4905  3.4048
  228MOL0     H30040   6.922   8.245   4.548 -0.6650  0.6655  3.9203
  228MOL0     H30041   6.931   7.962   4.488 -1.4311  1.7903  0.3673
  228MOL0     H30042   7.085   8.057   4.513 -0.1827  2.5277  2.5364
  228MOL0     H30043   6.864   8.112   4.281 -1.3821  1.8331  4.4127
  228MOL0     H30044   6.997   7.991   4.270  0.0476 -0.0280  1.8431
  228MOL0     H30045   7.041   8.204   4.148  1.1318  4.1810  0.3476
  228MOL0     H30046   7.036   8.281   4.297  0.2256  1.4685 -3.2552
  228MOL0     H30047   7.214   8.061   4.182 -2.6752 -3.4670  2.9365
  228MOL0     H30048   7.208   8.076   4.359 -3.4944  2.7059  2.5412
  228MOL0     H30049   7.426   8.223   4.077  1.0351  0.0442  0.8164
  228MOL0     H30050   7.555   8.530   4.140  1.0096  1.8530  3.7742
  228MOL0     H30051   7.619   8.372   4.078 -0.8783 -2.9959  1.6040
  228MOL0     H30052   7.681   8.380   4.356 -0.1977  0.0432  0.2109
  228MOL0     H30053   7.694   8.555   4.306 -1.5158 -0.6143 -0.3207
  228MOL0     H30054   7.828   8.306   4.237 -0.0604  0.2035  4.1460
  228MOL0     H30055   7.827   8.450   4.120 -0.8061  1.5979  0.3278
  228MOL0     H30056   7.966   8.437   4.391 -0.8227 -0.9671 -0.3586
  228MOL0     H30057   7.943   8.590   4.301  2.7275 -0.6818 -0.1437
  228MOL0     H30058   8.300   8.441   4.099  0.1153  0.7004  0.5563
  228MOL0     H30059   8.463   8.235   4.151 -2.0318 -1.9536 -3.5026
  228MOL0     H30060   8.330   7.726   4.488 -0.3761 -0.1745  1.7080
  228MOL0     H30061   8.492   7.593   4.649  1.7260 -1.2248 -0.1175
  228MOL0     H30062   8.910   7.676   4.591  0.9790 -1.4925  1.0804
  228MOL0     H30063   8.889   7.530   4.678 -1.1742 -0.5108  1.8346
  228MOL0     H30064   8.816   7.733   4.858  1.8399  2.0646  0.8820
  228MOL0     H30065   8.954   7.804   4.766 -0.3998  0.2777 -0.3874
  228MOL0     H30066   9.051   7.702   4.953 -0.2508 -2.6619  3.1631
  228MOL0     H30067   9.088   7.594   4.814 -2.2844  0.7068 -2.3679
  228MOL0     H30068   8.906   7.535   5.052  0.8544  1.9304  0.5887
  228MOL0     H30069   8.902   7.444   4.901 -2.8128  1.2048  0.1622
  228MOL0     H30070   9.118   7.341   4.959  2.4300  2.0834 -1.5417
  228MOL0     H30071   9.051   7.389   5.118  0.9661  0.7440  0.6629
  228MOL0     H30072   9.200   7.589   5.114 -1.0087  0.9877 -3.2342
  228MOL0     H30073   9.259   7.545   4.960 -3.2411  1.0611 -1.2109
  228MOL0     H30074   9.338   7.431   5.229  3.0283 -2.6403  0.7604
  228MOL0     H30075   9.301   7.311   5.099 -2.1998  0.3037  1.3514
  228MOL0     H30076   9.466   7.546   5.047 -0.1570  0.1602  0.3923
  228MOL0     H30077   9.503   7.386   4.988  2.0235  2.7212 -1.7084
  228MOL0     H30078   8.766   7.898   4.620  1.3385  0.7513 -3.9011
  228MOL0     H30079   8.633   8.033   4.472 -0.5482  1.3844  3.8744
  228MOL0     H30080   8.137   8.059   4.360  1.1067 -2.8042 -1.6670
  228MOL0     H30081   7.998   8.238   4.328  0.7654  1.9894  1.2479
  228MOL0     H30082   6.610   8.414   5.120  1.6958 -0.4292 -0.2140
  228MOL0     H30083   6.724   8.594   5.209 -0.5029  0.8811  0.7311
  228MOL0     H30084   7.149   8.984   4.943  0.4845  0.2984 -0.6563
  228MOL0     H30085   7.266   9.165   5.030  0.0956 -0.0905  0.2644
  228MOL0     H30086   7.262   9.364   5.077 -0.7789  1.9004 -0.3285
  228MOL0     H30087   7.323   9.445   5.213  0.8211 -3.0667  0.8172
  228MOL0     H30088   7.142   9.580   5.154  0.6156 -0.5041 -0.5347
  228MOL0     H30089   7.054   9.435   5.099 -1.5628 -0.3137  1.6584
  228MOL0     H30090   7.015   9.355   5.329  0.3717  0.5945  0.2982
  228MOL0     H30091   6.919   9.454   5.242 -0.0296 -1.3595 -1.7262
  228MOL0     H30092   7.101   9.538   5.467 -1.9656  1.2343  1.6351
  228MOL0     H30093   7.015   9.662   5.376  1.1753  0.3546  0.0453
  228MOL0     H30094   6.687   9.488   5.576  0.4499 -2.4172  1.0393
  228MOL0     H30095   7.080   9.095   5.417 -0.1687  2.5104 -0.8264
  228MOL0     H30096   6.966   8.907   5.321 -1.9980 -0.0494 -2.0617
  229MOL0     O30097  10.175   6.145   6.801  0.5445 -0.3832 -0.1281
  229MOL0     C30098  10.132   6.110   6.911  1.0124 -0.2124  0.1139
  229MOL0     O30099  10.208   6.020   6.992  0.5493 -0.1729 -0.8202
  229MOL0     C30100  10.305   5.938   6.936  0.1797 -0.2444  0.4382
  229MOL0     C30101  10.271   5.834   6.834 -1.2219 -1.3655  0.1840
  229MOL0     C30102  10.376   5.752   6.794  0.2719 -0.5421 -0.7116
  229MOL0     C30103  10.505   5.774   6.829 -0.2996  0.8101 -0.1853
  229MOL0     O30104  10.588   5.695   6.751 -0.9705  0.0937  0.3472
  229MOL0     C30105  10.727   5.692   6.784 -0.5008  1.0360  0.0139
  229MOL0     C30106  10.824   5.631   6.681  0.0871  0.2347  0.0871
  229MOL0     C30107  10.803   5.477   6.685 -0.0395  0.8219 -0.2462
  229MOL0     C30108  10.910   5.404   6.601  0.3238  0.0669  0.5406
  229MOL0     C30109  10.881   5.262   6.592 -0.9614 -0.0813 -0.0673
  229MOL0     C30110  10.885   5.203   6.737 -0.5008 -0.7939 -0.6292
  229MOL0     C30111  10.894   5.043   6.722  0.1428 -0.3719  0.0542
  229MOL0     C30112  10.927   4.985   6.855  0.8756 -0.4182 -0.2064
  229MOL0     N30113  10.805   4.977   6.940  0.0169  0.1070  0.1576
  229MOL0     C30114  10.723   4.860   6.942  0.6315 -0.4277 -0.1834
  229MOL0     C30115  10.639   4.880   7.048  1.2690  0.1967  0.2694
  229MOL0     C30116  10.534   4.777   7.107 -0.9183 -0.4428 -0.2965
  229MOL0     C30117  10.404   4.845   7.126  0.5645 -0.2504 -0.1937
  229MOL0     C30118  10.384   4.970   7.220  0.1391  0.7543  0.1754
  229MOL0     C30119  10.250   5.028   7.236 -0.8355 -0.2410  0.1980
  229MOL0     O30120  10.167   4.927   7.290 -0.5891 -0.3323 -0.0210
  229MOL0     C30121  10.152   4.906   7.421 -0.0042 -0.8833  0.0910
  229MOL0     C30122  10.093   4.993   7.519  0.4455 -0.3023  0.3740
  229MOL0     C30123  10.097   4.966   7.655  0.0063 -0.4463  0.1840
  229MOL0     C30124  10.151   4.847   7.712  0.5997  0.5698  0.1788
  229MOL0     C30125  10.152   4.831   7.852  0.7325  0.3826 -0.6212
  229MOL0     O30126  10.136   4.948   7.915 -0.6026 -0.3406  0.3374
  229MOL0     C30127  10.163   4.948   8.050 -0.0400 -0.1177  0.3923
  229MOL0     C30128  10.271   4.885   8.109  0.2377  0.3254 -0.5137
  229MOL0     C30129  10.278   4.875   8.245 -0.0707 -0.3538  0.0851
  229MOL0     C30130  10.174   4.916   8.322 -0.2281 -0.7653  0.6059
  229MOL0     O30131  10.188   4.895   8.456 -0.0652  0.3415  0.5341
  229MOL0     C30132  10.092   4.799   8.499  0.3565 -0.0849 -0.8279
  229MOL0     C30133  10.156   4.740   8.637  0.5265 -0.0910  0.6069
  229MOL0     C30134  10.291   4.665   8.608 -0.3869  0.5889 -0.5137
  229MOL0     C30135  10.262   4.562   8.496 -0.7328 -0.4904 -0.4441
  229MOL0     C30136  10.376   4.462   8.465 -0.8410 -0.8024  1.0310
  229MOL0     C30137  10.499   4.532   8.410 -0.0826 -0.5319  0.4779
  229MOL0     C30138  10.608   4.435   8.370 -0.8905  0.3478  0.0241
  229MOL0     C30139  10.732   4.488   8.297 -0.0058  1.1964 -0.1931
  229MOL0    Cl30140  10.822   4.607   8.373 -0.1040  0.1998  0.2047
  229MOL0     C30141  10.065   4.979   8.264 -0.2750 -0.6216  0.1842
  229MOL0     C30142  10.061   4.994   8.130 -0.0751  0.0302 -0.4937
  229MOL0     O30143  10.146   4.717   7.896  0.6030  0.1724 -0.6524
  229MOL0     C30144  10.199   4.756   7.612  1.3406 -1.1890 -0.1725
  229MOL0     C30145  10.202   4.793   7.475 -0.0605 -0.3921 -0.4119
  229MOL0     N30146  10.686   5.003   7.120 -0.8662  0.2390 -0.1940
  229MOL0     N30147  10.778   5.049   7.047 -0.1401 -0.1538  0.9417
  229MOL0     C30148  10.543   5.876   6.922  0.5514 -0.1313 -1.1838
  229MOL0     C30149  10.442   5.950   6.986  0.9816  0.5484  1.2331
  229MOL0     C30150  10.009   6.168   6.965  0.4990  0.3505 -0.0694
  229MOL0     C30151   9.926   6.228   6.878  0.5385 -0.4678  0.2573
  229MOL0     C30152   9.794   6.249   6.916  0.4260  0.5777  0.2754
  229MOL0     C30153   9.755   6.231   7.043 -0.3665 -0.7225 -1.3650
  229MOL0     O30154   9.616   6.261   7.071 -0.1587 -0.0396  0.7346
  229MOL0     C30155   9.517   6.170   7.025  0.0430 -0.6695  0.0280
  229MOL0     C30156   9.528   6.059   7.135 -0.1333  0.0048  0.3935
  229MOL0     C30157   9.463   5.933   7.081 -0.3108 -0.2180 -1.0313
  229MOL0     C30158   9.526   5.811   7.142 -0.0512 -0.3728  0.8714
  229MOL0     C30159   9.526   5.825   7.293  0.5457  0.4160 -0.0848
  229MOL0     C30160   9.494   5.842   7.405 -0.7301 -0.0332 -0.7943
  229MOL0     C30161   9.851   6.185   7.144 -0.5097  0.0852 -0.1577
  229MOL0     C30162   9.978   6.151   7.098  0.2563 -0.8278  0.3302
  229MOL0     H30163  10.173   5.838   6.789 -0.5854  1.3336 -1.1818
  229MOL0     H30164  10.348   5.693   6.707  0.3090  0.9604 -1.7820
  229MOL0     H30165  10.752   5.652   6.882 -0.0557  2.6214  0.5800
  229MOL0     H30166  10.758   5.797   6.791 -0.7695  1.2138 -1.2366
  229MOL0     H30167  10.926   5.665   6.701 -0.7138  1.5918  2.2064
  229MOL0     H30168  10.803   5.663   6.579  1.2977  2.4494  0.4735
  229MOL0     H30169  10.701   5.462   6.650 -0.0100 -2.2439  0.6952
  229MOL0     H30170  10.799   5.450   6.791 -1.0195  0.3803 -0.3831
  229MOL0     H30171  10.918   5.450   6.503  0.3163  0.6648  0.8176
  229MOL0     H30172  11.012   5.423   6.635  0.7076 -1.5764  0.4205
  229MOL0     H30173  10.964   5.220   6.534  1.7932  2.3725  1.7840
  229MOL0     H30174  10.786   5.250   6.539 -0.4235 -1.2521 -0.8185
  229MOL0     H30175  10.790   5.223   6.788  1.5095  2.5156  2.3277
  229MOL0     H30176  10.968   5.253   6.789 -1.4881 -0.9301  1.1582
  229MOL0     H30177  10.802   5.007   6.675 -0.8162  1.3264  0.5082
  229MOL0     H30178  10.983   5.030   6.661  0.1241 -0.4809  0.0514
  229MOL0     H30179  11.003   5.047   6.903 -0.9122  1.3616  0.4121
  229MOL0     H30180  10.968   4.883   6.858 -3.0887 -2.3575 -2.7419
  229MOL0     H30181  10.742   4.778   6.874  0.2479 -2.1409  1.6950
  229MOL0     H30182  10.578   4.741   7.201 -0.4836  0.3905 -0.1669
  229MOL0     H30183  10.521   4.697   7.035  0.7329 -0.5600 -0.5126
  229MOL0     H30184  10.337   4.767   7.163  2.9712 -2.9482 -1.1443
  229MOL0     H30185  10.369   4.883   7.030  1.8703  3.5130  0.6585
  229MOL0     H30186  10.429   4.950   7.318 -1.1560 -0.2502  0.6027
  229MOL0     H30187  10.443   5.047   7.170  0.1530 -0.0215 -1.0432
  229MOL0     H30188  10.214   5.062   7.139  1.6971 -1.8584 -1.4321
  229MOL0     H30189  10.260   5.119   7.296 -0.3642  1.6363 -2.5562
  229MOL0     H30190  10.041   5.084   7.489 -0.9547 -0.6629  1.5577
  229MOL0     H30191  10.050   5.043   7.715 -0.2856 -1.2271  0.9670
  229MOL0     H30192  10.345   4.834   8.049 -2.0179 -2.2971 -1.2255
  229MOL0     H30193  10.359   4.826   8.298  1.3465  0.9182 -0.8100
  229MOL0     H30194  10.064   4.720   8.428 -1.6649  0.0029 -0.1872
  229MOL0     H30195  10.010   4.859   8.538  2.3239  2.0169  0.2971
  229MOL0     H30196  10.089   4.665   8.679  0.6019 -0.3889  0.2033
  229MOL0     H30197  10.166   4.819   8.713  0.3898  1.8173 -1.2478
  229MOL0     H30198  10.305   4.609   8.701 -1.4076 -0.4006 -0.9248
  229MOL0     H30199  10.368   4.735   8.576 -0.3027  0.3645 -0.8064
  229MOL0     H30200  10.177   4.503   8.530 -0.5309  0.3611  1.7129
  229MOL0     H30201  10.239   4.621   8.407 -1.2326 -1.4871 -0.9858
  229MOL0     H30202  10.345   4.391   8.388  4.2244 -0.1803 -2.0521
  229MOL0     H30203  10.406   4.404   8.554 -0.7311 -1.5945  0.4930
  229MOL0     H30204  10.558   4.589   8.483  1.9818 -0.6541 -1.0086
  229MOL0     H30205  10.473   4.594   8.323  2.4464 -3.1325 -2.3606
  229MOL0     H30206  10.637   4.379   8.459  0.5626  2.2414  0.7949
  229MOL0     H30207  10.562   4.363   8.300 -1.1217 -1.1963  1.6937
  229MOL0     H30208  10.712   4.538   8.201 -2.2206 -0.6514 -0.7885
  229MOL0     H30209  10.795   4.403   8.270  1.2845  1.5514  1.5266
  229MOL0     H30210   9.977   5.009   8.319  0.3796  1.4038  0.1787
  229MOL0     H30211   9.974   5.042   8.086 -0.1089 -1.2847 -1.9714
  229MOL0     H30212  10.230   4.659   7.649  1.6631 -1.9048 -2.1852
  229MOL0     H30213  10.248   4.713   7.418  1.6376 -1.3688  2.1199
  229MOL0     H30214  10.646   5.883   6.956  1.2712 -1.5711 -2.8870
  229MOL0     H30215  10.459   6.016   7.070  1.1898  3.2309 -0.7962
  229MOL0     H30216   9.949   6.248   6.774 -0.3858 -1.1582 -0.1000
  229MOL0     H30217   9.716   6.287   6.850  0.1030 -1.5037 -0.6265
  229MOL0     H30218   9.541   6.132   6.925  0.4395  0.1039 -0.1791
  229MOL0     H30219   9.417   6.213   7.027  0.1852 -0.3178 -0.3066
  229MOL0     H30220   9.631   6.043   7.166 -0.1452  1.0590  1.0380
  229MOL0     H30221   9.465   6.088   7.220  0.1522 -1.9639  1.3181
  229MOL0     H30222   9.470   5.926   6.972 -3.4629  2.0712 -1.5060
  229MOL0     H30223   9.355   5.934   7.099 -0.0184 -1.7925  1.1701
  229MOL0     H30224   9.459   5.726   7.123  0.9803 -1.7051  2.8327
  229MOL0     H30225   9.621   5.781   7.096 -0.0892 -1.2085  1.3130
  229MOL0     H30226   9.471   5.865   7.507 -1.7645 -0.4602 -0.9195
  229MOL0     H30227   9.843   6.173   7.252  0.0302 -0.2239 -0.1484
  229MOL0     H30228  10.047   6.116   7.174  0.9714  4.1819  2.4382
  230MOL0     O30229  10.256   8.462   3.832  0.7870  0.0399  0.3873
  230MOL0     C30230  10.325   8.372   3.876 -0.3167 -0.7741  0.5460
  230MOL0     O30231  10.335   8.240   3.834  0.1132 -0.4355 -1.0127
  230MOL0     C30232  10.255   8.185   3.731 -0.4783 -0.9815  0.1791
  230MOL0     C30233  10.325   8.090   3.656  0.0993 -0.2027 -0.0807
  230MOL0     C30234  10.260   8.032   3.544 -0.6792 -0.4218  0.3000
  230MOL0     C30235  10.134   8.074   3.501  0.1165  0.0738  0.6797
  230MOL0     O30236  10.069   8.023   3.386 -0.0417 -0.0157 -1.0530
  230MOL0     C30237  10.143   7.995   3.260 -0.5566 -1.0688 -0.1993
  230MOL0     C30238  10.190   8.129   3.210 -1.3436  0.0289 -0.3889
  230MOL0     C30239  10.219   8.149   3.066 -0.6304 -0.0276  1.5141
  230MOL0     C30240  10.336   8.071   3.002 -0.2419 -0.5774 -0.2849
  230MOL0     C30241  10.477   8.097   3.077  0.7522 -0.0433 -0.6231
  230MOL0     C30242  10.521   8.243   3.079  0.4585 -0.8287 -0.2482
  230MOL0     C30243  10.640   8.265   3.173  0.5585  0.6338  0.5619
  230MOL0     C30244  10.745   8.356   3.121 -0.3389  1.0570  0.7208
  230MOL0     N30245  10.832   8.399   3.232  0.4271 -0.3859  0.6432
  230MOL0     C30246  10.901   8.519   3.238 -0.2881 -0.6883 -0.4207
  230MOL0     C30247  10.974   8.512   3.354 -0.4941 -0.3889  0.0465
  230MOL0     C30248  11.075   8.614   3.395 -0.5775  0.6837  0.3945
  230MOL0     C30249  11.203   8.561   3.468  0.1079 -0.3729 -0.7483
  230MOL0     C30250  11.298   8.678   3.510 -0.7379  0.3064  0.3500
  230MOL0     C30251  11.227   8.800   3.586 -0.4808  0.4198 -0.4220
  230MOL0     O30252  11.140   8.760   3.687  0.3552 -0.2489  0.7741
  230MOL0     C30253  11.065   8.862   3.751 -0.3999  0.0526  0.9067
  230MOL0     C30254  11.093   9.006   3.750 -0.1454 -0.2014 -0.0488
  230MOL0     C30255  11.009   9.091   3.824  0.0452 -0.9212  0.3078
  230MOL0     C30256  10.902   9.045   3.904  0.0955 -0.2297 -0.0346
  230MOL0     C30257  10.813   9.140   3.968  0.5834 -0.0468 -0.9993
  230MOL0     O30258  10.815   9.267   3.926  0.2116 -0.3397 -0.1915
  230MOL0     C30259  10.764   9.360   4.015  1.2274 -1.1474 -0.0083
  230MOL0     C30260  10.764   9.366   4.157 -1.0023 -0.0808  0.0825
  230MOL0     C30261  10.711   9.475   4.235 -0.0735  0.4755  0.9144
  230MOL0     C30262  10.640   9.573   4.165 -1.8939 -0.4183  0.1193
  230MOL0     O30263  10.591   9.689   4.218  0.8466 -0.9851 -0.7287
  230MOL0     C30264  10.552   9.675   4.353 -1.2772 -0.4744  0.9791
  230MOL0     C30265  10.432   9.772   4.387 -0.6184 -0.5967  0.9400
  230MOL0     C30266  10.388   9.742   4.528 -0.0400  0.6637  0.2732
  230MOL0     C30267  10.284   9.834   4.569 -0.7895  0.2557  0.4113
  230MOL0     C30268  10.253   9.808   4.719 -0.4357  0.3066 -0.4591
  230MOL0     C30269  10.155   9.915   4.776  0.0077  0.3931 -0.2000
  230MOL0     C30270  10.144   9.889   4.926 -0.0548 -0.4158  0.6696
  230MOL0     C30271  10.021   9.799   4.961  1.0166 -0.6154  0.5833
  230MOL0    Cl30272   9.881   9.907   4.975  0.0842 -0.3780  0.1560
  230MOL0     C30273  10.630   9.563   4.025 -0.6972  0.8531  0.7276
  230MOL0     C30274  10.688   9.460   3.949 -1.0621 -0.2994 -0.9888
  230MOL0     O30275  10.742   9.094   4.063  0.5385  0.2546 -0.0390
  230MOL0     C30276  10.863   8.914   3.878  1.0425 -1.1079 -0.5129
  230MOL0     C30277  10.949   8.823   3.812  0.1404 -0.1482 -0.2320
  230MOL0     N30278  10.947   8.401   3.420 -0.3771  0.2970  0.7393
  230MOL0     N30279  10.858   8.333   3.344 -0.6198  0.2526 -0.5438
  230MOL0     C30280  10.070   8.166   3.579  0.2668  0.0705  1.2522
  230MOL0     C30281  10.128   8.226   3.685 -1.1453  0.1856 -1.0409
  230MOL0     C30282  10.425   8.421   3.971 -0.1089 -0.2620 -0.7850
  230MOL0     C30283  10.569   8.408   3.949  0.1941  0.0927  0.5842
  230MOL0     C30284  10.660   8.455   4.039  0.3422  0.3282  0.2652
  230MOL0     C30285  10.621   8.522   4.157  0.5559  1.0374 -0.5089
  230MOL0     O30286  10.700   8.581   4.249  0.3305  0.3310  0.1468
  230MOL0     C30287  10.783   8.485   4.315  0.1363 -0.6714 -0.8233
  230MOL0     C30288  10.867   8.573   4.415  0.1296 -0.0145  0.3635
  230MOL0     C30289  10.964   8.483   4.494  0.1646 -0.5466 -0.0073
  230MOL0     C30290  10.892   8.385   4.582  0.6036 -0.3203  0.4441
  230MOL0     C30291  10.934   8.417   4.717 -0.2266 -0.0601 -1.0370
  230MOL0     C30292  10.985   8.450   4.821 -0.3398  0.0409  0.5802
  230MOL0     C30293  10.477   8.531   4.183 -0.6768 -0.0686  0.4097
  230MOL0     C30294  10.382   8.474   4.098  0.2546 -1.2845  0.7943
  230MOL0     H30295  10.428   8.067   3.683 -0.6705 -0.3009  3.2352
  230MOL0     H30296  10.325   7.961   3.493  1.9799  0.3092  2.4110
  230MOL0     H30297  10.077   7.954   3.184 -0.5256 -0.9330 -0.2998
  230MOL0     H30298  10.227   7.926   3.267  0.5757  0.3308  0.7306
  230MOL0     H30299  10.273   8.163   3.272 -1.4983  2.1023 -1.2255
  230MOL0     H30300  10.108   8.198   3.233 -1.0723 -0.6823  3.3167
  230MOL0     H30301  10.229   8.257   3.049 -0.9882 -0.0869  0.9066
  230MOL0     H30302  10.129   8.120   3.010 -1.2477 -1.4474  3.1498
  230MOL0     H30303  10.311   7.964   3.009 -1.2389 -0.2737  1.3245
  230MOL0     H30304  10.360   8.096   2.898  0.5904  3.7598  0.7611
  230MOL0     H30305  10.553   8.031   3.036 -0.1606 -1.9413  0.5762
  230MOL0     H30306  10.458   8.051   3.175 -3.4708  1.2163 -0.6226
  230MOL0     H30307  10.434   8.293   3.123  0.0776 -0.9695 -0.8333
  230MOL0     H30308  10.535   8.277   2.976 -0.7599  1.4368  0.2682
  230MOL0     H30309  10.605   8.321   3.260  2.2781 -0.9485  2.3885
  230MOL0     H30310  10.671   8.168   3.214  1.3455 -0.5249 -2.5326
  230MOL0     H30311  10.691   8.434   3.067  2.0647  1.8452 -0.6905
  230MOL0     H30312  10.806   8.295   3.052  0.2761  0.5868  1.6490
  230MOL0     H30313  10.899   8.585   3.152  3.2792 -2.9653 -2.5113
  230MOL0     H30314  11.013   8.679   3.458  1.4073  2.1326  0.9744
  230MOL0     H30315  11.103   8.679   3.311  1.9939 -1.4387 -0.5268
  230MOL0     H30316  11.259   8.491   3.406 -0.8369 -1.1407 -0.7551
  230MOL0     H30317  11.171   8.515   3.563  1.4673 -0.2309 -0.2045
  230MOL0     H30318  11.379   8.637   3.572  1.5071  0.8786 -2.0554
  230MOL0     H30319  11.341   8.723   3.421  1.3176 -0.9053  0.6583
  230MOL0     H30320  11.191   8.872   3.511  1.5260 -2.1469 -4.2064
  230MOL0     H30321  11.301   8.849   3.650 -1.6189 -1.1338  2.2614
  230MOL0     H30322  11.180   9.044   3.699  0.9213 -1.5905  0.6379
  230MOL0     H30323  11.037   9.196   3.818 -1.7477 -0.2334  2.3957
  230MOL0     H30324  10.821   9.287   4.204  3.3471  1.9748 -1.1808
  230MOL0     H30325  10.693   9.469   4.342 -2.6873  0.0227  0.5196
  230MOL0     H30326  10.638   9.700   4.415 -0.4924 -3.4059  1.1982
  230MOL0     H30327  10.517   9.576   4.383  0.6103 -0.8744  1.9821
  230MOL0     H30328  10.358   9.742   4.313  0.5674 -0.5435 -0.3175
  230MOL0     H30329  10.453   9.876   4.362 -0.8712 -0.6104  0.6627
  230MOL0     H30330  10.476   9.746   4.593  1.4623 -1.9096 -1.3830
  230MOL0     H30331  10.369   9.635   4.544  3.5091  0.0851  1.5348
  230MOL0     H30332  10.323   9.936   4.567  3.1774 -1.0201  2.6678
  230MOL0     H30333  10.192   9.820   4.510 -1.1794  0.8022  0.8823
  230MOL0     H30334  10.340   9.792   4.783 -0.9842 -1.1473 -0.0324
  230MOL0     H30335  10.207   9.709   4.712 -1.1578  0.6532 -0.7898
  230MOL0     H30336  10.053   9.909   4.739 -0.8010 -1.5682  2.0586
  230MOL0     H30337  10.181  10.016   4.745 -0.8191  0.6653 -0.0240
  230MOL0     H30338  10.230   9.828   4.958  1.3348  2.0247  1.8593
  230MOL0     H30339  10.146   9.985   4.978  2.0355  0.6634 -1.2175
  230MOL0     H30340  10.033   9.761   5.063  2.1226  0.0601  0.7239
  230MOL0     H30341  10.010   9.715   4.892 -0.6469  0.8092 -0.9814
  230MOL0     H30342  10.574   9.636   3.967 -0.2906 -0.4607 -1.4172
  230MOL0     H30343  10.674   9.454   3.842 -0.8693  1.9383 -1.1807
  230MOL0     H30344  10.776   8.885   3.936  0.7657  1.8124  0.7084
  230MOL0     H30345  10.932   8.717   3.829 -0.4867 -0.0045  0.0804
  230MOL0     H30346   9.980   8.211   3.538 -1.3940 -2.3097  2.0495
  230MOL0     H30347  10.075   8.311   3.728 -2.9261 -1.7412  0.8176
  230MOL0     H30348  10.603   8.356   3.860  3.4684 -2.6685  3.1725
  230MOL0     H30349  10.766   8.444   4.020  0.0153 -2.5606 -0.3399
  230MOL0     H30350  10.838   8.425   4.244 -1.8986 -0.4268 -2.7173
  230MOL0     H30351  10.721   8.424   4.382 -0.0672  0.3479 -0.0466
  230MOL0     H30352  10.923   8.640   4.349 -1.9618 -1.5377 -3.2850
  230MOL0     H30353  10.799   8.625   4.483 -1.5340  0.1753 -1.3771
  230MOL0     H30354  11.022   8.552   4.555 -1.3090 -0.7130  1.6340
  230MOL0     H30355  11.030   8.422   4.431  0.5405  0.4211 -0.5864
  230MOL0     H30356  10.783   8.388   4.582  0.3862  3.1707  4.9588
  230MOL0     H30357  10.910   8.280   4.556 -1.1988 -0.7854  0.9659
  230MOL0     H30358  11.024   8.488   4.914  1.2337  3.2303 -1.2098
  230MOL0     H30359  10.439   8.598   4.259 -1.7069 -0.4790  0.2821
  230MOL0     H30360  10.279   8.494   4.125  0.0665 -0.5885 -0.3528
  231MOL0     O30361   6.502   4.222   2.437 -0.3538  0.6449  0.3131
  231MOL0     C30362   6.464   4.141   2.518  0.2952  0.4026  1.1896
  231MOL0     O30363   6.480   4.007   2.501  0.7827 -0.4612  0.2881
  231MOL0     C30364   6.492   3.952   2.372  0.9135 -0.2707  0.4793
  231MOL0     C30365   6.609   3.964   2.293 -0.5398 -0.0871 -0.0470
  231MOL0     C30366   6.614   3.896   2.172 -0.5112  0.2842  0.3591
  231MOL0     C30367   6.512   3.818   2.122  0.2789 -0.0377 -0.6891
  231MOL0     O30368   6.523   3.752   2.002 -0.8753  0.5574 -0.5755
  231MOL0     C30369   6.648   3.684   1.976  0.0363  0.1449 -0.7351
  231MOL0     C30370   6.657   3.648   1.838  1.0613 -0.3062 -0.0671
  231MOL0     C30371   6.799   3.607   1.803 -0.5228 -0.1585  1.0829
  231MOL0     C30372   6.788   3.555   1.650 -0.2541  0.5273 -1.1249
  231MOL0     C30373   6.919   3.526   1.587 -0.0417  0.7938  0.5233
  231MOL0     C30374   7.021   3.452   1.678 -0.6342 -0.1715  0.3922
  231MOL0     C30375   7.166   3.450   1.636 -0.1300  0.3278  0.6064
  231MOL0     C30376   7.204   3.341   1.532  0.3487  0.3633  0.6735
  231MOL0     N30377   7.344   3.344   1.493 -0.8505  0.5774  0.3105
  231MOL0     C30378   7.391   3.394   1.375 -0.4791 -0.1953  0.1521
  231MOL0     C30379   7.516   3.427   1.412  0.0455  0.1552 -0.1248
  231MOL0     C30380   7.614   3.503   1.328  0.4918  0.2600  0.8734
  231MOL0     C30381   7.563   3.636   1.271  0.6328  0.1914  0.1968
  231MOL0     C30382   7.677   3.696   1.187  0.4022  0.4222 -0.1772
  231MOL0     C30383   7.653   3.831   1.109  0.2264 -1.1190 -0.7372
  231MOL0     O30384   7.780   3.888   1.061  0.2446  0.9235 -0.9030
  231MOL0     C30385   7.764   3.993   0.979 -0.2782 -0.3590 -0.2753
  231MOL0     C30386   7.837   3.994   0.859  0.3789 -0.6407 -0.3366
  231MOL0     C30387   7.827   4.106   0.771  0.2310  0.0517  0.1118
  231MOL0     C30388   7.738   4.204   0.799 -0.4097 -0.0153 -0.2107
  231MOL0     C30389   7.705   4.306   0.697 -0.1036  0.1086  0.3321
  231MOL0     O30390   7.793   4.312   0.586  0.6778  0.7459  0.1324
  231MOL0     C30391   7.787   4.409   0.493  0.4289 -0.2848 -0.5401
  231MOL0     C30392   7.793   4.373   0.359 -0.6204  0.7104  0.3665
  231MOL0     C30393   7.776   4.476   0.265  0.0633 -0.2658  0.3367
  231MOL0     C30394   7.743   4.610   0.291 -0.2740  0.6576 -0.2351
  231MOL0     O30395   7.717   4.713   0.206  0.0723  0.5497 -0.5342
  231MOL0     C30396   7.619   4.683   0.096  0.6353  0.4189  0.3726
  231MOL0     C30397   7.481   4.684   0.159  0.3525  0.1105 -0.3570
  231MOL0     C30398   7.429   4.792   0.260 -1.1340  1.2876  0.3151
  231MOL0     C30399   7.384   4.925   0.194 -0.4396 -0.4365 -0.0535
  231MOL0     C30400   7.502   5.027   0.177  0.6365  1.4434 -0.1298
  231MOL0     C30401   7.463   5.156   0.101 -0.2469  0.0171 -0.4705
  231MOL0     C30402   7.562   5.264   0.119  0.2318 -0.2149 -0.1132
  231MOL0     C30403   7.522   5.392   0.048  0.6255 -0.9472  1.1870
  231MOL0    Cl30404   7.548   5.354  -0.128 -0.0254 -0.4226 -0.4625
  231MOL0     C30405   7.751   4.641   0.430  0.1237 -0.4786 -0.4675
  231MOL0     C30406   7.773   4.545   0.528 -0.0339  0.4754  0.0300
  231MOL0     O30407   7.599   4.364   0.710 -0.2976  0.3369 -0.4549
  231MOL0     C30408   7.658   4.203   0.909  0.5417 -0.0220  0.2329
  231MOL0     C30409   7.676   4.100   1.009 -0.7830  0.4539 -0.4160
  231MOL0     N30410   7.551   3.378   1.534  0.3084 -0.5599  0.3554
  231MOL0     N30411   7.444   3.330   1.586 -0.6849  0.7728  0.5278
  231MOL0     C30412   6.393   3.808   2.200 -0.8029 -0.2078  0.3509
  231MOL0     C30413   6.385   3.873   2.322  0.0158 -0.5991 -0.0993
  231MOL0     C30414   6.393   4.190   2.640 -0.2403 -0.0631 -0.8287
  231MOL0     C30415   6.383   4.105   2.757 -0.9187 -0.9094  0.3072
  231MOL0     C30416   6.307   4.146   2.870  0.2318 -0.5659  0.1010
  231MOL0     C30417   6.261   4.272   2.882 -0.5903  0.5401  0.7783
  231MOL0     O30418   6.186   4.314   2.986 -0.8071 -0.2397 -0.1868
  231MOL0     C30419   6.202   4.253   3.115 -1.0292 -0.7997  0.1715
  231MOL0     C30420   6.341   4.263   3.190  0.8978  0.5364 -0.1078
  231MOL0     C30421   6.377   4.405   3.231  0.5453  1.2405  0.0319
  231MOL0     C30422   6.469   4.478   3.121  0.5540  0.0966 -0.8136
  231MOL0     C30423   6.497   4.625   3.160 -0.1883 -0.0600  0.6750
  231MOL0     C30424   6.521   4.735   3.214 -0.6355  0.0187  0.4746
  231MOL0     C30425   6.276   4.355   2.776 -0.0679 -0.5319  0.2803
  231MOL0     C30426   6.346   4.319   2.663 -0.4178  0.4147  0.2124
  231MOL0     H30427   6.692   4.012   2.345 -1.4410 -1.4005  2.8414
  231MOL0     H30428   6.716   3.906   2.135 -0.9595  2.9991 -0.3842
  231MOL0     H30429   6.675   3.600   2.041  2.9496  2.1275  0.8327
  231MOL0     H30430   6.726   3.755   2.004 -1.7184  0.7091  3.4781
  231MOL0     H30431   6.622   3.730   1.775 -1.1761  1.1765  2.8496
  231MOL0     H30432   6.571   3.583   1.824 -3.8580  5.0313  1.5760
  231MOL0     H30433   6.849   3.529   1.860  1.8023  0.7323  0.3725
  231MOL0     H30434   6.861   3.697   1.804 -2.0207  0.9815 -0.7063
  231MOL0     H30435   6.726   3.467   1.631  2.0032 -0.7073 -3.3861
  231MOL0     H30436   6.756   3.638   1.587 -0.9343  1.7868  0.7858
  231MOL0     H30437   6.957   3.627   1.570 -1.6881  2.0313  3.4907
  231MOL0     H30438   6.898   3.474   1.493  1.5724 -0.8345  1.0026
  231MOL0     H30439   6.989   3.348   1.695 -0.5925 -0.4578 -1.1120
  231MOL0     H30440   7.028   3.500   1.776 -1.8307  2.9377 -0.9154
  231MOL0     H30441   7.196   3.552   1.609 -0.8554 -0.0191 -1.7006
  231MOL0     H30442   7.233   3.424   1.718  1.4965  2.0848 -0.0778
  231MOL0     H30443   7.146   3.351   1.440  0.4409 -1.4238  0.3956
  231MOL0     H30444   7.187   3.243   1.577  0.4370 -0.0095 -0.0974
  231MOL0     H30445   7.344   3.424   1.282  1.1581  0.4183 -0.5249
  231MOL0     H30446   7.637   3.436   1.245  2.6568  1.1277  0.7016
  231MOL0     H30447   7.707   3.520   1.383  2.6480 -1.1873 -2.0454
  231MOL0     H30448   7.531   3.713   1.342  0.6564  0.7623 -0.4093
  231MOL0     H30449   7.474   3.625   1.209 -0.8497  2.9021  1.6397
  231MOL0     H30450   7.764   3.723   1.248 -0.1009 -0.2316  0.8663
  231MOL0     H30451   7.701   3.612   1.122  1.4761  0.5019  0.1012
  231MOL0     H30452   7.608   3.909   1.170  1.5034  1.5773 -3.0162
  231MOL0     H30453   7.585   3.821   1.024 -1.7876  2.5719  0.2396
  231MOL0     H30454   7.905   3.910   0.846  1.0535  0.1286 -1.9731
  231MOL0     H30455   7.878   4.111   0.676 -0.6452  0.2183 -0.3654
  231MOL0     H30456   7.796   4.268   0.331 -2.6281  0.3645  1.2514
  231MOL0     H30457   7.796   4.460   0.159  2.7568  5.4060 -0.3738
  231MOL0     H30458   7.624   4.585   0.046  0.6798  0.2996  0.6118
  231MOL0     H30459   7.621   4.761   0.019 -0.0770 -1.0963 -1.2872
  231MOL0     H30460   7.472   4.591   0.215  2.2257  1.8452  3.1945
  231MOL0     H30461   7.403   4.682   0.083 -2.3009 -4.4788  2.0708
  231MOL0     H30462   7.505   4.805   0.337 -1.8840  0.6482  1.1929
  231MOL0     H30463   7.350   4.736   0.312  0.5276 -0.6440  0.8725
  231MOL0     H30464   7.345   4.911   0.093 -0.4706  2.3968 -0.5177
  231MOL0     H30465   7.310   4.969   0.262  1.4623  2.2229  0.4835
  231MOL0     H30466   7.579   4.971   0.124  1.2333 -0.4980  2.5931
  231MOL0     H30467   7.541   5.064   0.272 -0.3585  1.1358  0.4138
  231MOL0     H30468   7.359   5.184   0.119  0.5581  5.1500 -2.1683
  231MOL0     H30469   7.472   5.115  -0.000 -1.4049 -0.1856 -0.4978
  231MOL0     H30470   7.577   5.283   0.226  1.3728 -0.4078 -0.2275
  231MOL0     H30471   7.661   5.226   0.092  0.3485 -0.1551  0.2154
  231MOL0     H30472   7.585   5.477   0.074 -1.9629  0.7027  2.3969
  231MOL0     H30473   7.418   5.424   0.057  0.5807  0.9872 -3.2444
  231MOL0     H30474   7.724   4.736   0.475  2.6144 -1.0411  2.5812
  231MOL0     H30475   7.772   4.568   0.634 -1.0558  1.0633 -0.0883
  231MOL0     H30476   7.589   4.281   0.938  2.3501  1.6009  0.3523
  231MOL0     H30477   7.628   4.099   1.107  0.2256 -3.3715  0.2129
  231MOL0     H30478   6.321   3.735   2.166  1.3343 -1.8614 -0.9145
  231MOL0     H30479   6.309   3.860   2.398  0.4441 -1.3397  0.2105
  231MOL0     H30480   6.428   4.006   2.754  0.5418 -0.2560 -1.3478
  231MOL0     H30481   6.282   4.073   2.947 -0.2452 -1.2909 -0.7171
  231MOL0     H30482   6.162   4.152   3.124  1.3253 -1.8971 -0.8008
  231MOL0     H30483   6.134   4.308   3.181 -0.2020 -1.5075  1.6390
  231MOL0     H30484   6.342   4.196   3.276  0.2055  2.0565  1.1206
  231MOL0     H30485   6.424   4.217   3.135  0.6286 -0.5753  0.3803
  231MOL0     H30486   6.431   4.405   3.326  0.3376 -4.9727  0.5536
  231MOL0     H30487   6.285   4.464   3.236 -1.4636 -1.7111  0.1267
  231MOL0     H30488   6.566   4.430   3.137  1.2876  2.3788  3.0311
  231MOL0     H30489   6.444   4.452   3.018  0.9760 -3.8306 -0.0792
  231MOL0     H30490   6.533   4.829   3.263 -0.5071  0.7975 -0.9985
  231MOL0     H30491   6.236   4.454   2.792  0.1478 -0.6806  1.9359
  231MOL0     H30492   6.350   4.390   2.581 -1.4197 -2.1613 -2.2498
  232MOL0     O30493   2.182   2.096   1.647 -0.5978  0.6376  0.5643
  232MOL0     C30494   2.190   2.033   1.753  0.2326  0.8203 -0.2099
  232MOL0     O30495   2.175   2.078   1.875 -0.3147 -0.4321 -0.1726
  232MOL0     C30496   2.151   2.215   1.904 -0.0490  0.1625 -0.1411
  232MOL0     C30497   2.064   2.240   2.007  0.2549  0.2166 -0.2425
  232MOL0     C30498   2.027   2.367   2.038 -0.0327 -0.1245  0.2807
  232MOL0     C30499   2.075   2.482   1.957  0.6079 -0.2231 -0.3960
  232MOL0     O30500   2.024   2.612   1.960 -0.2851  0.7770 -0.0156
  232MOL0     C30501   1.951   2.638   2.084  0.3231  0.1969  0.8181
  232MOL0     C30502   1.927   2.785   2.122  0.9383  0.1716 -0.6699
  232MOL0     C30503   1.775   2.818   2.099 -0.2610 -0.0890  0.1081
  232MOL0     C30504   1.757   2.963   2.117 -1.0381  0.6400  0.0178
  232MOL0     C30505   1.612   2.995   2.126  0.0007 -0.4104 -0.5800
  232MOL0     C30506   1.596   3.142   2.118 -0.4059 -0.9720  0.0918
  232MOL0     C30507   1.458   3.199   2.146 -0.5313  1.0567 -0.7217
  232MOL0     C30508   1.418   3.169   2.293  0.0560 -0.0996 -0.1685
  232MOL0     N30509   1.307   3.252   2.339 -0.4141 -0.6511 -1.2330
  232MOL0     C30510   1.269   3.366   2.278  0.7026 -0.3859 -0.3337
  232MOL0     C30511   1.228   3.452   2.374 -0.4745  0.0311 -0.7442
  232MOL0     C30512   1.181   3.592   2.365  0.8542 -0.2032 -0.6157
  232MOL0     C30513   1.185   3.656   2.225 -0.7739  0.4627  0.1675
  232MOL0     C30514   1.300   3.756   2.203  0.8306 -0.1513  0.8468
  232MOL0     C30515   1.439   3.687   2.206 -1.1841  0.0212 -0.3794
  232MOL0     O30516   1.479   3.663   2.338  0.2352  0.5765  0.1975
  232MOL0     C30517   1.584   3.567   2.358 -0.3587 -0.2824  0.3303
  232MOL0     C30518   1.696   3.575   2.267  0.5770  0.1627 -0.4668
  232MOL0     C30519   1.793   3.476   2.290 -0.1552  0.0655 -0.8346
  232MOL0     C30520   1.786   3.376   2.392 -1.1833 -0.0117  0.5533
  232MOL0     C30521   1.873   3.268   2.360  0.3180  0.2235 -0.3422
  232MOL0     O30522   2.007   3.294   2.331 -0.2227 -0.3189  0.2850
  232MOL0     C30523   2.100   3.192   2.361  0.2494 -0.2797 -0.0710
  232MOL0     C30524   2.096   3.097   2.464 -0.2724  0.1869  0.5593
  232MOL0     C30525   2.198   3.002   2.491  0.4691 -0.2059  0.4655
  232MOL0     C30526   2.308   2.986   2.403  0.2830  1.5029  0.2487
  232MOL0     O30527   2.389   2.877   2.425  0.3232  0.6925 -0.0175
  232MOL0     C30528   2.520   2.886   2.369  0.2703 -0.6389  0.3819
  232MOL0     C30529   2.575   2.748   2.405  0.0566  0.3371 -0.8327
  232MOL0     C30530   2.711   2.725   2.344  0.7148  0.5987 -1.0665
  232MOL0     C30531   2.779   2.589   2.396  0.1543  0.1701  0.6215
  232MOL0     C30532   2.935   2.598   2.387 -1.1754  0.1404  1.1651
  232MOL0     C30533   3.005   2.609   2.252 -0.2486 -1.0893 -0.6515
  232MOL0     C30534   2.960   2.497   2.165  0.3955  0.5594 -0.4843
  232MOL0     C30535   3.035   2.491   2.025  0.2977  0.3609 -0.8743
  232MOL0    Cl30536   3.086   2.337   1.983  0.5668 -0.2629 -0.1740
  232MOL0     C30537   2.317   3.081   2.300  0.5696  0.3166  0.7852
  232MOL0     C30538   2.218   3.176   2.280  0.0319 -0.8702  1.2103
  232MOL0     O30539   1.823   3.160   2.386  0.5543  0.3120 -1.0331
  232MOL0     C30540   1.674   3.378   2.475  0.4824 -0.3350 -0.1571
  232MOL0     C30541   1.575   3.479   2.458 -0.1031  0.2659  0.0847
  232MOL0     N30542   1.243   3.388   2.498  0.0557  0.4136 -0.2042
  232MOL0     N30543   1.298   3.283   2.479  0.4710  0.5457  0.5336
  232MOL0     C30544   2.161   2.451   1.858  0.4012  0.4664  0.2545
  232MOL0     C30545   2.199   2.319   1.830  0.1937 -0.2977 -0.2785
  232MOL0     C30546   2.214   1.881   1.753  0.0321 -0.3427  0.0035
  232MOL0     C30547   2.223   1.807   1.870  0.7190 -1.0108 -0.1302
  232MOL0     C30548   2.236   1.666   1.866  0.1887  0.1836 -0.0489
  232MOL0     C30549   2.234   1.598   1.738 -0.1423  0.7715  0.2100
  232MOL0     O30550   2.254   1.464   1.749 -0.2070 -0.3477 -0.4930
  232MOL0     C30551   2.233   1.377   1.643  0.6583  0.5061  0.5832
  232MOL0     C30552   2.358   1.380   1.552  0.6455 -0.4954 -0.4079
  232MOL0     C30553   2.446   1.253   1.587 -0.7997 -0.4962  0.2936
  232MOL0     C30554   2.536   1.256   1.721 -0.3020  0.1689 -0.3525
  232MOL0     C30555   2.628   1.136   1.719  0.6201  0.3122 -0.3149
  232MOL0     C30556   2.697   1.032   1.721 -0.7378  1.0961  0.5295
  232MOL0     C30557   2.221   1.669   1.623  0.7001 -0.0790 -0.1542
  232MOL0     C30558   2.211   1.815   1.629  0.6543  0.2325 -0.2445
  232MOL0     H30559   2.030   2.159   2.072  0.6447 -0.7577 -1.2241
  232MOL0     H30560   1.965   2.394   2.123  2.1506  0.6284  1.7260
  232MOL0     H30561   2.006   2.607   2.172  0.5338  3.4787  1.9807
  232MOL0     H30562   1.853   2.589   2.082 -1.8416  4.0315 -2.0305
  232MOL0     H30563   2.004   2.835   2.063  1.3387 -0.4941 -0.7108
  232MOL0     H30564   1.947   2.799   2.229 -0.9868  0.4115 -0.2886
  232MOL0     H30565   1.701   2.756   2.151 -1.6894 -2.0473 -3.7868
  232MOL0     H30566   1.748   2.790   1.997  2.8956 -2.6780 -0.1615
  232MOL0     H30567   1.790   2.988   2.219  0.3323  1.5467 -0.6130
  232MOL0     H30568   1.812   3.024   2.044 -0.0735  1.6756  1.5264
  232MOL0     H30569   1.580   2.960   2.224  2.0039  0.1374  0.3276
  232MOL0     H30570   1.551   2.956   2.043 -1.5347 -0.6132  0.6037
  232MOL0     H30571   1.642   3.183   2.027 -0.3067  0.1144  0.6174
  232MOL0     H30572   1.653   3.191   2.197 -0.6627  1.9288 -1.3728
  232MOL0     H30573   1.466   3.308   2.134 -1.0525  1.2004  0.1783
  232MOL0     H30574   1.388   3.154   2.075 -0.2478  0.1183 -0.4183
  232MOL0     H30575   1.495   3.200   2.364 -0.1937  0.1747 -0.0137
  232MOL0     H30576   1.407   3.062   2.309  3.8946 -1.1568 -3.0514
  232MOL0     H30577   1.274   3.372   2.170 -1.5385 -0.7363 -0.5139
  232MOL0     H30578   1.234   3.662   2.431 -3.8059  3.9727 -0.6936
  232MOL0     H30579   1.078   3.589   2.400  1.3074 -0.0100  0.7999
  232MOL0     H30580   1.087   3.702   2.211 -2.5225 -3.4970 -2.7099
  232MOL0     H30581   1.185   3.581   2.145 -0.1783 -0.0829  0.6612
  232MOL0     H30582   1.275   3.808   2.111 -0.8571  1.6569  2.2434
  232MOL0     H30583   1.302   3.842   2.270 -1.7269  0.1465  0.6244
  232MOL0     H30584   1.509   3.757   2.159 -1.6526 -0.0948 -1.2659
  232MOL0     H30585   1.434   3.587   2.161  4.6664 -0.5611 -0.4539
  232MOL0     H30586   1.696   3.653   2.191 -3.9358  1.8839  0.9838
  232MOL0     H30587   1.859   3.473   2.204 -1.9520  2.0995 -2.3874
  232MOL0     H30588   2.018   3.103   2.539  2.8884  0.6776  4.1292
  232MOL0     H30589   2.179   2.935   2.574 -3.4602  1.2927  0.9909
  232MOL0     H30590   2.583   2.964   2.410 -0.8936  0.4384  0.1908
  232MOL0     H30591   2.516   2.884   2.259  1.6723  0.7500  0.2828
  232MOL0     H30592   2.513   2.666   2.367  2.3285 -1.0634 -1.6899
  232MOL0     H30593   2.575   2.741   2.515  0.3942  1.7208 -0.7288
  232MOL0     H30594   2.775   2.814   2.342  1.4622  0.0746 -1.3036
  232MOL0     H30595   2.689   2.721   2.237 -1.5981  2.6540 -0.7701
  232MOL0     H30596   2.749   2.574   2.500 -0.8148  2.0046  0.6502
  232MOL0     H30597   2.744   2.501   2.341  2.0361  1.2272 -2.5169
  232MOL0     H30598   2.986   2.520   2.443  0.6227  1.0710  0.8973
  232MOL0     H30599   2.963   2.692   2.435 -0.0105  0.7694 -0.6347
  232MOL0     H30600   3.113   2.607   2.268 -0.4169 -3.1861  0.7469
  232MOL0     H30601   2.990   2.705   2.203  1.9505 -1.5593 -2.4142
  232MOL0     H30602   2.970   2.406   2.225 -0.6614  1.3679  0.9933
  232MOL0     H30603   2.853   2.505   2.144 -0.6804 -0.4146  3.5814
  232MOL0     H30604   3.114   2.566   2.035 -0.8935  1.5103  0.1959
  232MOL0     H30605   2.972   2.536   1.948  0.7411  4.3298  0.8505
  232MOL0     H30606   2.398   3.069   2.229  1.1548 -0.8390  1.6231
  232MOL0     H30607   2.238   3.250   2.203 -0.1789 -1.1036  0.9309
  232MOL0     H30608   1.643   3.304   2.549 -2.3975 -1.3662 -2.1769
  232MOL0     H30609   1.490   3.492   2.525 -0.1664  0.9263 -0.1161
  232MOL0     H30610   2.187   2.530   1.788  0.7559 -1.8119 -2.3350
  232MOL0     H30611   2.259   2.310   1.740  2.0764  1.4911  0.7294
  232MOL0     H30612   2.203   1.855   1.965 -1.6505  0.9050 -1.4859
  232MOL0     H30613   2.239   1.618   1.963 -1.1321  2.7384  1.3527
  232MOL0     H30614   2.139   1.391   1.588 -0.4185 -0.4348  2.1023
  232MOL0     H30615   2.230   1.275   1.682  1.6906 -0.7501 -2.3471
  232MOL0     H30616   2.330   1.379   1.446  2.1901 -1.1600 -0.8349
  232MOL0     H30617   2.420   1.468   1.575  0.3500 -0.6516  1.1017
  232MOL0     H30618   2.520   1.233   1.508 -1.1429  0.4174 -0.2679
  232MOL0     H30619   2.386   1.164   1.610 -2.1644  0.6665  1.3600
  232MOL0     H30620   2.591   1.350   1.731 -0.8337  0.3195  1.8393
  232MOL0     H30621   2.477   1.258   1.814  3.0472 -0.1237  1.9786
  232MOL0     H30622   2.765   0.950   1.728 -1.9823  0.1909  3.8319
  232MOL0     H30623   2.224   1.631   1.522 -3.3800  0.1812 -0.5060
  232MOL0     H30624   2.208   1.871   1.536  1.8094 -0.4828 -0.7400
  233MOL0     O30625   2.916   0.857   4.398 -0.5916 -0.4516 -0.8112
  233MOL0     C30626   2.892   0.919   4.296 -0.5749 -0.0075  0.1424
  233MOL0     O30627   2.770   0.951   4.254 -0.3676  0.5570 -0.9182
  233MOL0     C30628   2.655   0.918   4.326 -0.3145  0.0675  0.0740
  233MOL0     C30629   2.548   1.004   4.334 -0.5169  0.0557  0.5567
  233MOL0     C30630   2.436   0.979   4.397  0.0295 -1.1997 -0.2449
  233MOL0     C30631   2.421   0.846   4.447  1.3559  0.4393  0.7780
  233MOL0     O30632   2.309   0.798   4.512  1.2884 -0.0878 -0.1868
  233MOL0     C30633   2.185   0.851   4.463 -0.5571 -0.0754 -0.2275
  233MOL0     C30634   2.077   0.759   4.515  0.2895 -0.0730 -0.9101
  233MOL0     C30635   1.923   0.786   4.469 -0.1591 -0.5667 -0.4327
  233MOL0     C30636   1.887   0.774   4.318 -0.8744 -0.8963 -0.2618
  233MOL0     C30637   1.764   0.854   4.274  0.1290 -0.0655 -0.2828
  233MOL0     C30638   1.639   0.803   4.337  0.5472  0.2992 -0.5274
  233MOL0     C30639   1.509   0.883   4.310  0.4845  0.1962 -0.0853
  233MOL0     C30640   1.516   1.037   4.345  0.0220 -0.7855 -0.1227
  233MOL0     N30641   1.535   1.066   4.487 -0.2159 -0.5585 -0.3062
  233MOL0     C30642   1.465   1.011   4.586 -0.1633  0.5026  0.6348
  233MOL0     C30643   1.544   1.025   4.698 -1.2512  0.4845 -1.2595
  233MOL0     C30644   1.502   0.964   4.829  0.2590 -0.3118 -0.0409
  233MOL0     C30645   1.502   0.816   4.811  0.0726  0.7609 -1.1252
  233MOL0     C30646   1.504   0.732   4.937  0.3994 -1.1747 -0.4593
  233MOL0     C30647   1.382   0.638   4.937 -0.6437  0.5868 -0.5564
  233MOL0     O30648   1.272   0.681   5.020 -0.1686  0.6109 -0.6581
  233MOL0     C30649   1.245   0.629   5.146  0.2920 -0.6265  0.7882
  233MOL0     C30650   1.342   0.572   5.224  0.4205 -0.0691 -0.5658
  233MOL0     C30651   1.309   0.529   5.349  0.1001  0.2960 -0.4180
  233MOL0     C30652   1.200   0.571   5.414  1.0168 -0.3973 -1.0462
  233MOL0     C30653   1.170   0.532   5.553  0.0195  0.0445  0.1246
  233MOL0     O30654   1.259   0.451   5.619  0.0340  0.0383 -1.0857
  233MOL0     C30655   1.240   0.403   5.744  0.3663  0.5498  0.5835
  233MOL0     C30656   1.352   0.370   5.823  0.2887 -0.3135 -0.8672
  233MOL0     C30657   1.327   0.318   5.961 -0.1173 -0.1233  1.1533
  233MOL0     C30658   1.198   0.307   6.016  0.6516 -0.1926  0.8358
  233MOL0     O30659   1.176   0.276   6.150  0.5837 -0.1694 -0.2564
  233MOL0     C30660   1.225   0.349   6.259 -0.2365  0.2362  0.9510
  233MOL0     C30661   1.178   0.275   6.378  0.9331 -1.1190 -0.8326
  233MOL0     C30662   1.023   0.278   6.396  0.1034 -1.2546 -0.3139
  233MOL0     C30663   0.993   0.232   6.539 -0.4750 -0.0633 -0.8874
  233MOL0     C30664   0.843   0.187   6.559  0.0206 -0.2591 -0.5411
  233MOL0     C30665   0.828   0.140   6.701  1.1618 -0.0206 -0.6617
  233MOL0     C30666   0.686   0.159   6.753 -0.6035  0.3731  0.7654
  233MOL0     C30667   0.637   0.299   6.771 -0.0934 -0.4678  0.0328
  233MOL0    Cl30668   0.747   0.424   6.829  0.2089 -0.1710 -0.6762
  233MOL0     C30669   1.093   0.345   5.936  0.8252  0.1199 -0.0699
  233MOL0     C30670   1.112   0.385   5.805  0.1212 -0.2159  0.1535
  233MOL0     O30671   1.072   0.591   5.605 -0.4706  0.8010  0.8025
  233MOL0     C30672   1.102   0.644   5.338  0.1117  0.1739 -0.3685
  233MOL0     C30673   1.123   0.667   5.206  0.3282 -1.1319  0.2722
  233MOL0     N30674   1.651   1.107   4.672 -0.3704 -0.7507  0.0731
  233MOL0     N30675   1.645   1.129   4.541  0.0389 -0.2418 -0.2414
  233MOL0     C30676   2.517   0.751   4.431 -0.3893 -0.6949  0.5987
  233MOL0     C30677   2.639   0.791   4.380 -0.2032 -0.0720 -0.1884
  233MOL0     C30678   3.012   0.959   4.218  0.1211 -0.2048  0.5570
  233MOL0     C30679   2.991   1.015   4.087  0.8244 -1.8471  0.2129
  233MOL0     C30680   3.106   1.048   4.012 -0.6244 -0.2057 -0.6019
  233MOL0     C30681   3.235   1.030   4.059 -0.3025  0.0930  0.3880
  233MOL0     O30682   3.319   1.070   3.965 -0.0471 -1.0748  0.6056
  233MOL0     C30683   3.454   1.071   3.998 -0.0809 -0.0830  0.5569
  233MOL0     C30684   3.542   1.109   3.872  0.4530 -0.8919 -0.3940
  233MOL0     C30685   3.509   1.029   3.746 -0.1288 -0.3290 -0.0686
  233MOL0     C30686   3.626   1.022   3.646 -0.7369 -0.4717 -0.6515
  233MOL0     C30687   3.724   0.923   3.698 -0.9614  0.1278 -0.4645
  233MOL0     C30688   3.818   0.866   3.758 -0.2169 -0.7352 -0.0467
  233MOL0     C30689   3.254   0.974   4.187  0.2073 -0.4984 -0.8084
  233MOL0     C30690   3.140   0.935   4.260 -0.2429 -0.9024 -0.4893
  233MOL0     H30691   2.570   1.101   4.290  1.6142 -0.5228  0.2248
  233MOL0     H30692   2.357   1.054   4.406  0.5200 -0.6300 -0.6359
  233MOL0     H30693   2.175   0.843   4.354  1.2838 -1.4124 -0.3488
  233MOL0     H30694   2.170   0.956   4.491  0.4633 -0.6318  2.7318
  233MOL0     H30695   2.077   0.773   4.624 -3.6511  2.2620 -1.0188
  233MOL0     H30696   2.108   0.660   4.481 -1.9971 -0.3764 -2.2745
  233MOL0     H30697   1.912   0.889   4.503  0.9308 -0.8484  0.8532
  233MOL0     H30698   1.858   0.717   4.524  2.0388 -1.5722  1.0348
  233MOL0     H30699   1.960   0.814   4.246 -0.8683 -0.9441 -0.2821
  233MOL0     H30700   1.875   0.666   4.306  3.2425 -1.4555 -0.7867
  233MOL0     H30701   1.753   0.845   4.166 -0.7244  0.2202 -0.2287
  233MOL0     H30702   1.769   0.962   4.293  0.2138  0.0829 -1.1137
  233MOL0     H30703   1.632   0.801   4.446 -1.3483  0.0938 -0.6206
  233MOL0     H30704   1.622   0.698   4.311  0.5555  0.5629 -1.6293
  233MOL0     H30705   1.490   0.877   4.202  1.0512  0.5065 -0.2053
  233MOL0     H30706   1.415   0.851   4.357 -1.1200  1.1489 -2.4093
  233MOL0     H30707   1.426   1.085   4.306 -0.0299 -0.9684 -0.2309
  233MOL0     H30708   1.600   1.080   4.290  0.7423 -2.7847 -0.6868
  233MOL0     H30709   1.373   0.957   4.566 -0.8259  1.1925  1.7342
  233MOL0     H30710   1.406   1.002   4.863  1.8440  3.4113  0.7877
  233MOL0     H30711   1.569   0.995   4.910  0.9905  0.4801 -0.9239
  233MOL0     H30712   1.581   0.775   4.747 -0.0837 -2.3079  0.4407
  233MOL0     H30713   1.413   0.804   4.748  0.5242  1.3314 -1.8901
  233MOL0     H30714   1.595   0.671   4.947  0.3483 -0.9664  1.7541
  233MOL0     H30715   1.506   0.783   5.033 -0.0889  0.0560 -1.0825
  233MOL0     H30716   1.397   0.538   4.979 -4.3456  0.2592  0.2731
  233MOL0     H30717   1.340   0.627   4.837 -0.7902 -0.4537 -0.3924
  233MOL0     H30718   1.444   0.565   5.187 -0.2192 -1.8578 -2.1229
  233MOL0     H30719   1.383   0.477   5.409  1.1066 -0.2060 -2.0278
  233MOL0     H30720   1.445   0.380   5.769  1.0191  0.1855  0.4513
  233MOL0     H30721   1.413   0.292   6.022 -0.9671  2.5761  3.7028
  233MOL0     H30722   1.183   0.450   6.256 -1.4728 -0.2784  0.1435
  233MOL0     H30723   1.332   0.368   6.256 -0.0721 -0.6006  1.4943
  233MOL0     H30724   1.237   0.310   6.463  1.8045 -0.9771 -1.4791
  233MOL0     H30725   1.196   0.172   6.348  1.1795 -0.3974 -3.3758
  233MOL0     H30726   0.967   0.222   6.321 -2.0083  0.5510 -0.1924
  233MOL0     H30727   0.989   0.380   6.382  0.1467 -1.1592  0.2516
  233MOL0     H30728   1.055   0.151   6.578 -4.0640 -2.5622  0.1191
  233MOL0     H30729   1.020   0.318   6.601 -0.4142 -2.3900  2.5377
  233MOL0     H30730   0.816   0.098   6.501  1.5063  0.0049 -1.6912
  233MOL0     H30731   0.773   0.268   6.538  3.2980  3.5536  1.8264
  233MOL0     H30732   0.885   0.204   6.769 -0.8781 -0.8187  1.9457
  233MOL0     H30733   0.854   0.035   6.715 -0.6169 -0.0172  4.6927
  233MOL0     H30734   0.622   0.100   6.687  0.2741 -0.1766  0.3762
  233MOL0     H30735   0.665   0.122   6.854  0.8236 -0.1439  0.8942
  233MOL0     H30736   0.542   0.291   6.825 -1.3683  3.8153 -1.2025
  233MOL0     H30737   0.597   0.337   6.676 -0.4345 -1.5009 -0.2521
  233MOL0     H30738   0.994   0.345   5.979  0.8339  0.4780 -0.0522
  233MOL0     H30739   1.017   0.413   5.761 -1.2033  1.1511  3.5655
  233MOL0     H30740   1.007   0.671   5.383 -1.5763 -0.8602 -3.0441
  233MOL0     H30741   1.049   0.728   5.156 -1.1055 -1.6457  1.6783
  233MOL0     H30742   2.512   0.653   4.479 -2.6070 -0.6821  0.4776
  233MOL0     H30743   2.715   0.713   4.374 -1.3686 -1.2358 -0.4851
  233MOL0     H30744   2.897   1.031   4.035  0.9557 -0.8397  0.2534
  233MOL0     H30745   3.084   1.100   3.919 -1.8773 -2.5952 -1.7192
  233MOL0     H30746   3.478   0.968   4.024  0.3445 -0.7402 -2.0855
  233MOL0     H30747   3.466   1.135   4.086 -1.6244  1.5934 -0.3720
  233MOL0     H30748   3.512   1.212   3.849 -0.0574 -1.7265 -4.0964
  233MOL0     H30749   3.650   1.103   3.888  0.8480  1.9191 -1.4632
  233MOL0     H30750   3.436   1.089   3.691  0.3773  0.0702 -0.3107
  233MOL0     H30751   3.481   0.927   3.774  0.7325 -0.6733 -0.4241
  233MOL0     H30752   3.590   0.975   3.553  0.9839 -1.2906 -0.9437
  233MOL0     H30753   3.669   1.119   3.620  2.0207 -2.1951 -3.2544
  233MOL0     H30754   3.887   0.799   3.805 -1.4424 -2.8789 -1.1262
  233MOL0     H30755   3.357   0.960   4.218  0.0281 -1.9818 -0.7971
  233MOL0     H30756   3.144   0.874   4.349 -1.3580  0.0883  0.2506
  234MOL0     O30757   8.800   5.792   9.448 -0.1792 -0.2267 -1.1790
  234MOL0     C30758   8.770   5.838   9.340  0.7588  0.4870 -0.3348
  234MOL0     O30759   8.763   5.968   9.308  0.1092 -1.0513  0.2437
  234MOL0     C30760   8.798   6.079   9.392  1.6232 -0.3345  1.1714
  234MOL0     C30761   8.877   6.087   9.510 -0.8698  0.0737  0.5322
  234MOL0     C30762   8.885   6.203   9.584  0.3671 -0.8694 -0.0835
  234MOL0     C30763   8.817   6.313   9.535  0.4472  0.1319  0.3313
  234MOL0     O30764   8.801   6.423   9.620  0.1235 -0.3194  0.2321
  234MOL0     C30765   8.789   6.558   9.567 -0.7896  0.9436  0.1634
  234MOL0     C30766   8.916   6.638   9.593 -0.0237  0.8326  0.0818
  234MOL0     C30767   8.923   6.688   9.739  0.3801  0.1146  0.4450
  234MOL0     C30768   8.996   6.585   9.825 -0.6025 -0.3231  0.2155
  234MOL0     C30769   9.038   6.666   9.952 -0.0644  1.0087 -0.2447
  234MOL0     C30770   9.082   6.570  10.063 -0.3739 -1.1995 -0.3846
  234MOL0     C30771   9.139   6.660  10.174  0.4089  0.1928  1.2116
  234MOL0     C30772   9.133   6.586  10.298  0.0355  0.1235 -0.9520
  234MOL0     N30773   9.206   6.458  10.291  0.0345  0.6288 -0.1990
  234MOL0     C30774   9.342   6.432  10.327 -0.5297  0.3579  0.7645
  234MOL0     C30775   9.356   6.297  10.311  0.9968  0.2004 -0.2059
  234MOL0     C30776   9.480   6.210  10.331  0.1912  0.1757 -0.2109
  234MOL0     C30777   9.590   6.225  10.227  0.2942  0.5387 -0.2082
  234MOL0     C30778   9.568   6.138  10.100  0.3459  0.1544 -0.3694
  234MOL0     C30779   9.632   6.198   9.971  0.6041 -0.5931 -0.0623
  234MOL0     O30780   9.770   6.170   9.964  0.6595  0.5399  0.1437
  234MOL0     C30781   9.837   6.240   9.865 -0.2618 -0.5234 -0.3524
  234MOL0     C30782   9.779   6.271   9.742 -0.0566 -0.0761  0.9227
  234MOL0     C30783   9.850   6.345   9.642  0.2003  0.8029  0.1177
  234MOL0     C30784   9.966   6.404   9.671 -0.3663 -0.1365 -0.4604
  234MOL0     C30785  10.046   6.471   9.562 -0.2128  0.6989 -0.5429
  234MOL0     O30786  10.177   6.508   9.592  0.4024  0.3613  0.3556
  234MOL0     C30787  10.260   6.557   9.498 -0.3282 -0.1310 -0.0750
  234MOL0     C30788  10.359   6.652   9.535 -0.3951 -0.5784  0.2606
  234MOL0     C30789  10.451   6.696   9.433 -0.2525  0.9499 -0.5619
  234MOL0     C30790  10.436   6.662   9.300  0.1373 -0.0053  0.0053
  234MOL0     O30791  10.527   6.710   9.203 -0.2433 -0.1435 -0.4315
  234MOL0     C30792  10.668   6.735   9.231  0.5942 -0.0193 -0.2198
  234MOL0     C30793  10.735   6.603   9.266 -0.2596  0.4630  0.5628
  234MOL0     C30794  10.885   6.600   9.226 -0.9210 -0.4099 -0.7134
  234MOL0     C30795  10.945   6.467   9.277  0.0265 -0.1184  0.4403
  234MOL0     C30796  11.097   6.461   9.264 -0.1353  0.0562  0.7919
  234MOL0     C30797  11.155   6.336   9.323 -0.4323 -0.0865  0.1417
  234MOL0     C30798  11.174   6.329   9.471 -0.0200  0.6925 -0.5370
  234MOL0     C30799  11.248   6.198   9.521 -0.4145 -0.0258 -0.2437
  234MOL0    Cl30800  11.141   6.062   9.477  0.4840 -0.3649 -0.1091
  234MOL0     C30801  10.335   6.572   9.261 -0.4409  0.6126 -0.3147
  234MOL0     C30802  10.246   6.519   9.362  0.4877 -0.9410  1.0589
  234MOL0     O30803   9.992   6.474   9.453  0.1014 -0.8128 -0.4285
  234MOL0     C30804  10.025   6.384   9.799  0.7864  0.0722 -0.1705
  234MOL0     C30805   9.964   6.295   9.891 -0.9145 -0.0138 -0.5558
  234MOL0     N30806   9.234   6.245  10.259  0.2620 -0.3907 -1.2647
  234MOL0     N30807   9.145   6.347  10.244 -0.0742  0.3151 -0.8187
  234MOL0     C30808   8.742   6.311   9.415  0.2675 -0.1464  0.1992
  234MOL0     C30809   8.733   6.196   9.348 -0.0103  0.3724  0.1123
  234MOL0     C30810   8.733   5.733   9.248  0.7684 -0.1631 -0.8541
  234MOL0     C30811   8.643   5.754   9.145 -0.2112  0.8869 -0.2073
  234MOL0     C30812   8.589   5.642   9.074 -0.6557 -0.7013 -0.4273
  234MOL0     C30813   8.645   5.520   9.094 -0.5459  0.4752 -0.1395
  234MOL0     O30814   8.593   5.412   9.035 -0.2305  0.0482  0.1880
  234MOL0     C30815   8.659   5.372   8.915  0.0151  0.0750  0.1609
  234MOL0     C30816   8.598   5.235   8.901  0.4367 -0.3318  0.3213
  234MOL0     C30817   8.662   5.158   8.776  0.5078 -0.1451  0.0756
  234MOL0     C30818   8.601   5.030   8.737 -0.4810 -0.8622 -0.1163
  234MOL0     C30819   8.620   4.915   8.815  0.4648 -0.0186  0.2018
  234MOL0     C30820   8.633   4.825   8.894 -0.4795  0.1644  0.4479
  234MOL0     C30821   8.748   5.503   9.187  0.5237 -0.8783 -0.0954
  234MOL0     C30822   8.782   5.606   9.266  0.3808 -0.1415  0.0839
  234MOL0     H30823   8.938   5.999   9.533  2.0984  0.8667 -3.2146
  234MOL0     H30824   8.952   6.208   9.669  0.3316  1.8662 -0.1327
  234MOL0     H30825   8.708   6.615   9.614  1.4882  2.7478  2.1971
  234MOL0     H30826   8.779   6.555   9.458 -0.5283  2.5525  0.0652
  234MOL0     H30827   8.911   6.728   9.530  2.4491 -0.3908 -2.0050
  234MOL0     H30828   9.000   6.575   9.564  0.4499  0.8338  1.4118
  234MOL0     H30829   8.834   6.734   9.782  1.5272  2.4062  0.5317
  234MOL0     H30830   8.983   6.780   9.742 -0.4550  0.6413  1.8592
  234MOL0     H30831   8.934   6.496   9.836 -2.6820  0.8648 -1.1155
  234MOL0     H30832   9.087   6.560   9.770  0.7158 -0.9071  2.5389
  234MOL0     H30833   8.954   6.720   9.996  1.0690  2.0933  0.6405
  234MOL0     H30834   9.123   6.733   9.936  0.6709  0.2306  0.2770
  234MOL0     H30835   9.163   6.503  10.033  1.0455  0.9818 -1.6862
  234MOL0     H30836   8.994   6.517  10.102 -2.3725  4.0528  3.3834
  234MOL0     H30837   9.240   6.690  10.145 -0.1950 -0.4794 -1.8537
  234MOL0     H30838   9.075   6.748  10.189  0.5836  0.3209  1.2095
  234MOL0     H30839   9.029   6.575  10.332  0.1144 -1.2492 -1.0935
  234MOL0     H30840   9.181   6.653  10.370 -1.1036 -2.0402  2.0222
  234MOL0     H30841   9.414   6.500  10.370 -0.1820  0.7846 -0.4586
  234MOL0     H30842   9.442   6.107  10.322  0.8791 -0.1459  0.4548
  234MOL0     H30843   9.520   6.241  10.428  3.5879  1.7100 -1.9535
  234MOL0     H30844   9.679   6.181  10.273 -1.7538 -3.5825  0.2458
  234MOL0     H30845   9.596   6.331  10.198  1.5304  0.6494  0.4186
  234MOL0     H30846   9.590   6.031  10.102  0.0277  0.0915 -0.1468
  234MOL0     H30847   9.461   6.143  10.077  0.6146 -1.3786 -2.1732
  234MOL0     H30848   9.617   6.306   9.971 -0.5946 -0.5371  4.6795
  234MOL0     H30849   9.583   6.154   9.883  2.0217 -1.7659 -0.3061
  234MOL0     H30850   9.685   6.225   9.714  0.6128 -2.0516  1.7191
  234MOL0     H30851   9.799   6.345   9.546 -1.1108 -1.3992  0.7386
  234MOL0     H30852  10.383   6.690   9.634 -0.7198 -3.6790  1.6191
  234MOL0     H30853  10.534   6.765   9.447  0.4908  0.2609 -1.4752
  234MOL0     H30854  10.673   6.803   9.317 -1.2217  0.0635 -0.1395
  234MOL0     H30855  10.715   6.774   9.141 -1.5230  1.7758 -0.6363
  234MOL0     H30856  10.690   6.526   9.202  2.2213 -1.6112  1.1479
  234MOL0     H30857  10.729   6.577   9.372 -0.6869 -1.5718  0.0831
  234MOL0     H30858  10.931   6.695   9.254  0.7982 -0.1884 -3.7963
  234MOL0     H30859  10.897   6.615   9.118 -1.1078  0.7265 -0.5829
  234MOL0     H30860  10.913   6.451   9.380 -4.0419 -2.8407 -0.9767
  234MOL0     H30861  10.888   6.392   9.220  0.5144  1.4277 -2.2885
  234MOL0     H30862  11.143   6.548   9.311  0.5799 -0.0220  0.2567
  234MOL0     H30863  11.124   6.465   9.158 -4.5571 -0.2977 -0.5790
  234MOL0     H30864  11.250   6.307   9.278  0.4456 -0.1943  1.9625
  234MOL0     H30865  11.093   6.250   9.296  0.4138 -0.6365 -0.1166
  234MOL0     H30866  11.235   6.411   9.510 -0.0312  0.8019 -0.7474
  234MOL0     H30867  11.081   6.356   9.522  0.1860  2.7059 -1.1382
  234MOL0     H30868  11.260   6.191   9.629 -1.5693 -1.0072 -0.1597
  234MOL0     H30869  11.346   6.181   9.474 -0.5962  0.3919 -0.7808
  234MOL0     H30870  10.334   6.532   9.160  3.7881  1.3733 -0.8643
  234MOL0     H30871  10.179   6.446   9.318  0.7285  1.6055 -4.2737
  234MOL0     H30872  10.122   6.426   9.824  0.3232  0.6026  0.7903
  234MOL0     H30873  10.014   6.288   9.987  0.9097  2.8771 -1.1622
  234MOL0     H30874   8.672   6.388   9.384 -0.9191 -0.9578  0.7546
  234MOL0     H30875   8.684   6.191   9.251  2.5140 -4.3567 -1.2656
  234MOL0     H30876   8.622   5.859   9.127  3.0938  1.1737 -3.7238
  234MOL0     H30877   8.512   5.668   9.002  1.7946  0.3413 -2.8991
  234MOL0     H30878   8.767   5.360   8.917 -0.2244 -2.6515  2.4307
  234MOL0     H30879   8.633   5.431   8.826  0.7309  1.6361  0.9564
  234MOL0     H30880   8.602   5.173   8.991 -0.5615  0.0945  0.6812
  234MOL0     H30881   8.493   5.249   8.871  0.0305 -3.4895 -0.1002
  234MOL0     H30882   8.768   5.150   8.801  0.4229  0.3186  0.5993
  234MOL0     H30883   8.657   5.225   8.689  1.7365  1.6271  1.3014
  234MOL0     H30884   8.495   5.057   8.746 -0.2553 -0.1218  0.4363
  234MOL0     H30885   8.627   5.015   8.632  1.4793 -0.4537  0.2823
  234MOL0     H30886   8.637   4.739   8.958 -2.0588 -2.3897 -2.5963
  234MOL0     H30887   8.784   5.403   9.209 -0.9696 -1.4587 -0.1532
  234MOL0     H30888   8.844   5.595   9.355  0.8065  1.2819 -0.0152
  235MOL0     O30889   5.267   3.847   7.889  0.7302 -0.1581  0.3118
  235MOL0     C30890   5.253   3.802   7.777  0.4342  0.6346 -0.3187
  235MOL0     O30891   5.135   3.797   7.704 -0.1091  0.3248 -0.1790
  235MOL0     C30892   5.026   3.857   7.755  0.4063 -0.4669 -0.8170
  235MOL0     C30893   4.950   3.921   7.662 -0.7384 -0.2293  0.3173
  235MOL0     C30894   4.844   3.999   7.700 -0.1125  0.1492  0.7586
  235MOL0     C30895   4.798   4.010   7.836  0.0963  0.0255 -0.0017
  235MOL0     O30896   4.689   4.095   7.868  0.4854 -0.2585 -0.2647
  235MOL0     C30897   4.651   4.136   7.998 -0.3861  0.3373  0.4944
  235MOL0     C30898   4.517   4.091   8.038  0.2837  1.1703 -0.0578
  235MOL0     C30899   4.503   3.938   8.028  0.2673  0.9233  0.2409
  235MOL0     C30900   4.349   3.900   8.041  0.5726  0.1694 -0.9671
  235MOL0     C30901   4.301   3.778   7.969  0.1207  0.1855 -0.5018
  235MOL0     C30902   4.159   3.735   8.036 -0.1745  0.5689 -0.2320
  235MOL0     C30903   4.170   3.603   8.126 -1.4262 -0.7910 -0.4617
  235MOL0     C30904   4.239   3.485   8.065 -0.1262 -0.3578 -0.2098
  235MOL0     N30905   4.233   3.359   8.144  0.0431 -0.0226 -0.7100
  235MOL0     C30906   4.135   3.264   8.173 -0.2141 -0.4440  0.2556
  235MOL0     C30907   4.198   3.162   8.244  0.2495 -0.5636 -1.0498
  235MOL0     C30908   4.123   3.051   8.304  0.7475 -0.0941 -0.1464
  235MOL0     C30909   4.118   2.928   8.220  0.5516 -0.3476 -0.0445
  235MOL0     C30910   4.254   2.859   8.194 -0.3648 -0.8067 -0.4065
  235MOL0     C30911   4.232   2.748   8.093  0.2706 -0.3570  0.0440
  235MOL0     O30912   4.218   2.631   8.156  0.5732  0.4761 -0.4708
  235MOL0     C30913   4.228   2.510   8.089 -0.8638 -0.3275  0.2150
  235MOL0     C30914   4.253   2.398   8.167 -0.3113  0.5573  0.0284
  235MOL0     C30915   4.268   2.272   8.108  0.4465 -0.0419 -0.7998
  235MOL0     C30916   4.252   2.248   7.974 -0.0650 -0.3234 -0.1590
  235MOL0     C30917   4.259   2.109   7.923 -0.4317 -0.3639  0.4493
  235MOL0     O30918   4.278   2.014   8.029 -0.6040 -0.2059  0.6124
  235MOL0     C30919   4.293   1.878   7.990  0.1016 -0.0690 -0.0214
  235MOL0     C30920   4.412   1.804   8.010  0.7917  0.7308 -0.8025
  235MOL0     C30921   4.413   1.666   8.007 -0.1196 -0.2659  0.1902
  235MOL0     C30922   4.291   1.602   7.974  0.0427  1.0395  0.1124
  235MOL0     O30923   4.261   1.468   7.986  0.2851  0.3463  0.4326
  235MOL0     C30924   4.325   1.401   8.091  0.5747  0.6271 -0.4213
  235MOL0     C30925   4.268   1.442   8.223 -0.0671  0.5343  0.0360
  235MOL0     C30926   4.290   1.346   8.340 -0.0024 -0.6052 -0.0823
  235MOL0     C30927   4.438   1.303   8.344 -0.5132  0.2622 -0.6827
  235MOL0     C30928   4.459   1.245   8.475  0.5972  0.0758  0.8541
  235MOL0     C30929   4.615   1.220   8.493 -0.2902  0.3262  0.4872
  235MOL0     C30930   4.638   1.120   8.600  0.1972  1.3118  0.2349
  235MOL0     C30931   4.583   0.971   8.567 -0.0065 -0.1260 -0.2282
  235MOL0    Cl30932   4.587   0.910   8.396 -0.0196  0.2464 -0.0973
  235MOL0     C30933   4.175   1.677   7.946 -0.6112  0.0282  0.6806
  235MOL0     C30934   4.174   1.811   7.963  0.8456  0.4449 -0.2900
  235MOL0     O30935   4.259   2.094   7.801  0.6961 -0.1684 -0.4595
  235MOL0     C30936   4.237   2.360   7.890  0.8631 -0.6590  0.1551
  235MOL0     C30937   4.221   2.493   7.949 -1.0416 -0.3396  0.1350
  235MOL0     N30938   4.336   3.198   8.249  0.8143 -0.1436  0.3517
  235MOL0     N30939   4.348   3.323   8.213  0.4753 -0.4070  0.2103
  235MOL0     C30940   4.873   3.934   7.934 -0.4452 -0.6116  0.2151
  235MOL0     C30941   4.982   3.861   7.888  0.0554  0.0738 -0.5255
  235MOL0     C30942   5.371   3.746   7.711 -0.6528  0.2379  0.2055
  235MOL0     C30943   5.480   3.692   7.784 -0.5282 -0.3722 -0.3742
  235MOL0     C30944   5.598   3.650   7.714  0.1004 -0.0394  0.5224
  235MOL0     C30945   5.605   3.645   7.573 -0.1763 -0.3494 -0.6639
  235MOL0     O30946   5.717   3.596   7.517  0.1274 -0.1133  0.9403
  235MOL0     C30947   5.739   3.617   7.376 -0.0446  0.2136 -0.3555
  235MOL0     C30948   5.876   3.560   7.332  0.2023  0.9584  0.2641
  235MOL0     C30949   5.885   3.409   7.374  0.4970  0.8202 -0.6033
  235MOL0     C30950   6.020   3.349   7.338 -0.6149  0.0156  0.0533
  235MOL0     C30951   6.044   3.310   7.196 -0.6416  0.8079 -0.5246
  235MOL0     C30952   6.076   3.283   7.081 -0.7361 -0.2901  0.0980
  235MOL0     C30953   5.493   3.702   7.496  0.9035  0.2613  0.2437
  235MOL0     C30954   5.378   3.751   7.574 -0.9515 -0.2142  0.3626
  235MOL0     H30955   4.964   3.903   7.556 -2.8252  3.1432 -0.7072
  235MOL0     H30956   4.802   4.057   7.618  1.5179  1.3092  0.6956
  235MOL0     H30957   4.645   4.245   8.006  2.9448  0.7765 -1.5204
  235MOL0     H30958   4.723   4.115   8.078 -2.2372 -1.0371  1.8878
  235MOL0     H30959   4.432   4.136   7.985 -0.8548 -0.4126  0.3494
  235MOL0     H30960   4.499   4.117   8.143 -1.4818  0.4170 -0.1336
  235MOL0     H30961   4.554   3.885   8.109  1.2859 -2.6615 -2.4832
  235MOL0     H30962   4.539   3.888   7.937  1.6813 -0.0424  1.2662
  235MOL0     H30963   4.334   3.889   8.149  0.0385  2.9616 -0.6997
  235MOL0     H30964   4.290   3.979   7.994  1.2746 -0.0730 -2.3065
  235MOL0     H30965   4.373   3.696   7.974 -2.8668 -2.6071  0.1893
  235MOL0     H30966   4.278   3.804   7.865  1.0862 -4.1064 -1.9939
  235MOL0     H30967   4.083   3.699   7.966  0.7703  1.3807 -1.7366
  235MOL0     H30968   4.123   3.814   8.101 -0.7920 -2.4953  3.5146
  235MOL0     H30969   4.214   3.632   8.221 -0.4930  0.8903 -1.3696
  235MOL0     H30970   4.068   3.575   8.152 -2.2732  3.5998  1.8670
  235MOL0     H30971   4.339   3.514   8.030 -0.5983 -0.1538 -1.4545
  235MOL0     H30972   4.192   3.468   7.968 -0.2662  4.8467 -1.3703
  235MOL0     H30973   4.031   3.249   8.145  0.5890 -2.9320 -1.7802
  235MOL0     H30974   4.020   3.083   8.323  0.4277 -0.6648 -0.8790
  235MOL0     H30975   4.170   3.021   8.397 -1.0661 -0.2846  0.7527
  235MOL0     H30976   4.082   2.960   8.121  1.2477  0.1657 -0.1431
  235MOL0     H30977   4.057   2.854   8.271  0.2942 -0.6110 -0.7162
  235MOL0     H30978   4.320   2.934   8.149 -0.9469 -1.7878 -3.0977
  235MOL0     H30979   4.292   2.814   8.286 -1.1531 -0.6438  0.0105
  235MOL0     H30980   4.317   2.753   8.024  1.8042 -0.3521  1.8252
  235MOL0     H30981   4.140   2.766   8.037  1.8853  4.5326 -1.6137
  235MOL0     H30982   4.259   2.411   8.275 -2.2982  1.9849  0.0149
  235MOL0     H30983   4.292   2.202   8.187  1.2879  2.6151  1.5075
  235MOL0     H30984   4.497   1.872   8.007 -0.2475  2.0537 -1.1713
  235MOL0     H30985   4.504   1.613   8.033  0.4810  0.5075 -0.2815
  235MOL0     H30986   4.434   1.398   8.086  0.6427  0.9512  0.5965
  235MOL0     H30987   4.306   1.294   8.078  2.0133  0.0325  1.8223
  235MOL0     H30988   4.161   1.456   8.203  0.0866  0.8256 -0.6445
  235MOL0     H30989   4.311   1.540   8.248 -0.1247  0.1064  1.9690
  235MOL0     H30990   4.231   1.254   8.337  2.7642 -2.4831 -1.6795
  235MOL0     H30991   4.257   1.393   8.433  0.8749 -0.4862  0.1811
  235MOL0     H30992   4.466   1.230   8.267  2.1570  0.6173 -0.1620
  235MOL0     H30993   4.499   1.393   8.330 -1.0456  0.7423  0.0199
  235MOL0     H30994   4.396   1.156   8.488 -0.9872  1.0032 -0.1729
  235MOL0     H30995   4.419   1.314   8.550  0.2038  1.5811 -0.6682
  235MOL0     H30996   4.659   1.317   8.519 -0.1584  1.2634 -2.7879
  235MOL0     H30997   4.678   1.195   8.407  0.8660  2.3799  0.6749
  235MOL0     H30998   4.744   1.099   8.618 -1.0611 -2.9787  4.7956
  235MOL0     H30999   4.587   1.141   8.694  1.3476 -0.3503  1.2930
  235MOL0     H31000   4.479   0.989   8.599  0.3197  1.1391  0.1841
  235MOL0     H31001   4.635   0.900   8.632 -0.2658  1.6277  2.0431
  235MOL0     H31002   4.074   1.637   7.942 -1.1360  1.2270  1.1523
  235MOL0     H31003   4.076   1.857   7.963 -0.3188 -1.7661 -2.5873
  235MOL0     H31004   4.217   2.362   7.783  0.2318  1.6990  0.2548
  235MOL0     H31005   4.233   2.582   7.888  1.9236 -1.1770 -0.6978
  235MOL0     H31006   4.843   3.931   8.038  1.1215  2.4026  0.8713
  235MOL0     H31007   5.041   3.823   7.971  0.6325 -0.1280 -1.0138
  235MOL0     H31008   5.491   3.690   7.892  4.0795  2.1111 -0.5384
  235MOL0     H31009   5.686   3.619   7.770 -0.9637 -2.5249  0.9623
  235MOL0     H31010   5.719   3.720   7.343 -1.0773 -0.7441 -2.9643
  235MOL0     H31011   5.662   3.559   7.325  1.4187 -1.9194 -0.2805
  235MOL0     H31012   5.894   3.549   7.224  2.7491 -1.6697  0.8179
  235MOL0     H31013   5.961   3.620   7.367  0.9691  0.1014 -0.1027
  235MOL0     H31014   5.805   3.359   7.319 -0.6671 -0.7763  2.3137
  235MOL0     H31015   5.854   3.398   7.478 -0.3165  1.3868 -0.7748
  235MOL0     H31016   6.098   3.415   7.378  1.2245 -3.6143  3.0020
  235MOL0     H31017   6.034   3.264   7.404 -0.0966  0.5613  0.6567
  235MOL0     H31018   6.111   3.267   6.981  0.4182 -0.5158  0.5247
  235MOL0     H31019   5.479   3.709   7.389 -0.5156  2.2443  0.5094
  235MOL0     H31020   5.297   3.798   7.518  0.3947 -0.1973 -1.6572
  236MOL0     O31021   3.998   7.408   8.755 -0.1066  0.1622  0.1109
  236MOL0     C31022   3.957   7.511   8.813  1.0921  0.0708  1.7534
  236MOL0     O31023   3.987   7.632   8.763  0.2691  0.3609  0.4898
  236MOL0     C31024   4.049   7.648   8.642  0.1006  0.7182 -0.7293
  236MOL0     C31025   4.186   7.662   8.644 -0.1250 -1.4350 -0.4521
  236MOL0     C31026   4.253   7.649   8.523  0.2134 -0.1529 -0.7211
  236MOL0     C31027   4.197   7.645   8.396  0.4342 -0.2223 -0.6520
  236MOL0     O31028   4.290   7.662   8.293 -0.5728 -0.7055 -0.8539
  236MOL0     C31029   4.253   7.611   8.163 -0.3852  0.4226 -0.4100
  236MOL0     C31030   4.393   7.576   8.101  1.3289 -0.2119 -0.0281
  236MOL0     C31031   4.477   7.467   8.167  0.3927  0.7273 -0.0192
  236MOL0     C31032   4.625   7.471   8.112  0.0344  0.1846 -0.5539
  236MOL0     C31033   4.708   7.587   8.168  0.2574  0.3762  0.6760
  236MOL0     C31034   4.841   7.614   8.105 -0.4560 -0.0645 -0.2265
  236MOL0     C31035   4.892   7.755   8.127 -0.1089  0.4314 -0.2460
  236MOL0     C31036   4.913   7.789   8.273  0.4915 -0.3232 -0.1767
  236MOL0     N31037   4.797   7.819   8.362 -0.5453 -0.2561  0.0763
  236MOL0     C31038   4.705   7.921   8.351  0.0664 -0.6898 -0.0413
  236MOL0     C31039   4.614   7.906   8.451 -0.9750 -1.0667 -0.3547
  236MOL0     C31040   4.488   7.986   8.487 -0.6252  0.8153  0.4766
  236MOL0     C31041   4.518   8.139   8.522 -0.5374  0.8190  0.1309
  236MOL0     C31042   4.389   8.226   8.500 -1.1588  0.4660  0.1337
  236MOL0     C31043   4.267   8.187   8.587  0.7943  0.0882 -0.5568
  236MOL0     O31044   4.143   8.236   8.545  0.3466  0.2662 -0.0816
  236MOL0     C31045   4.041   8.213   8.627  0.0391  0.9369 -0.1751
  236MOL0     C31046   3.970   8.328   8.648 -0.4467 -0.6477  0.3207
  236MOL0     C31047   3.863   8.336   8.735 -0.2157  0.6431  0.7379
  236MOL0     C31048   3.815   8.220   8.793  0.1076 -1.0530 -0.0755
  236MOL0     C31049   3.704   8.223   8.882  0.7313  0.3286  0.4459
  236MOL0     O31050   3.652   8.096   8.907  0.6141  0.3259 -0.5920
  236MOL0     C31051   3.547   8.072   8.996 -0.0215  0.0793  0.7143
  236MOL0     C31052   3.571   7.999   9.114  0.0861 -0.2514 -0.1945
  236MOL0     C31053   3.472   7.979   9.217 -0.6359  0.1899  0.6305
  236MOL0     C31054   3.341   8.019   9.200 -0.8462 -0.2934  0.3969
  236MOL0     O31055   3.237   7.997   9.288  0.2596  1.3093 -0.6418
  236MOL0     C31056   3.259   8.005   9.428  0.6125 -0.5951  0.6522
  236MOL0     C31057   3.134   8.054   9.494 -0.0414 -0.4900 -0.0145
  236MOL0     C31058   3.046   7.932   9.529  0.2529  0.6256  0.5070
  236MOL0     C31059   2.930   7.997   9.605 -0.4485  0.1921 -0.5174
  236MOL0     C31060   2.817   7.906   9.622 -0.0466  0.7449 -0.3866
  236MOL0     C31061   2.719   7.951   9.731  0.5014  0.0024 -0.4151
  236MOL0     C31062   2.597   7.859   9.731 -0.4755 -0.4611 -0.4409
  236MOL0     C31063   2.627   7.721   9.783  0.2932  0.0665  0.4327
  236MOL0    Cl31064   2.685   7.712   9.952 -0.0895  0.0241  0.1419
  236MOL0     C31065   3.315   8.073   9.074  0.6640 -0.0878 -0.2117
  236MOL0     C31066   3.413   8.101   8.972  1.0378 -1.3126 -0.1029
  236MOL0     O31067   3.665   8.326   8.933  0.4858  0.9777  0.4066
  236MOL0     C31068   3.885   8.097   8.755 -0.0261 -0.3641  0.2846
  236MOL0     C31069   4.002   8.092   8.680  1.0356  0.0557  0.1697
  236MOL0     N31070   4.654   7.798   8.522  0.7878  0.2080 -0.0663
  236MOL0     N31071   4.769   7.748   8.468  0.5833 -0.4162  0.0414
  236MOL0     C31072   4.059   7.640   8.394 -0.1120  0.5799 -0.1069
  236MOL0     C31073   3.983   7.632   8.516  0.6008 -0.1964 -0.6289
  236MOL0     C31074   3.873   7.508   8.932  0.6734  0.4074  0.9317
  236MOL0     C31075   3.841   7.390   8.991 -0.1167  0.5668  0.1399
  236MOL0     C31076   3.775   7.385   9.109 -0.5025 -0.1458  0.1284
  236MOL0     C31077   3.715   7.497   9.170 -0.2351  0.3037  0.0687
  236MOL0     O31078   3.662   7.473   9.291 -0.3373 -0.6258  1.0290
  236MOL0     C31079   3.713   7.557   9.395  0.9289  0.1608  0.6408
  236MOL0     C31080   3.606   7.603   9.492  0.1986 -0.3669  0.5227
  236MOL0     C31081   3.569   7.517   9.610 -1.0281 -0.4542 -0.1609
  236MOL0     C31082   3.454   7.589   9.701  0.0211 -0.4439  0.3532
  236MOL0     C31083   3.476   7.731   9.731  1.0680  0.2830  0.2029
  236MOL0     C31084   3.494   7.848   9.727 -0.2696 -0.3789 -0.3391
  236MOL0     C31085   3.721   7.615   9.093  0.5759 -0.2633 -0.1816
  236MOL0     C31086   3.802   7.624   8.974 -0.2471 -0.4360  0.3085
  236MOL0     H31087   4.238   7.681   8.737 -2.2415 -0.3495  0.5635
  236MOL0     H31088   4.361   7.660   8.526  0.3790 -1.6585  0.0712
  236MOL0     H31089   4.202   7.690   8.105 -0.9317 -1.4506 -2.6575
  236MOL0     H31090   4.184   7.527   8.170 -0.0653  0.2246  0.4907
  236MOL0     H31091   4.446   7.671   8.090 -3.2436  2.4128 -2.8318
  236MOL0     H31092   4.379   7.535   8.000 -3.2645 -1.6685  0.9552
  236MOL0     H31093   4.456   7.361   8.157  0.0718  0.4816  2.4571
  236MOL0     H31094   4.485   7.485   8.275  0.6514  3.8275 -0.4693
  236MOL0     H31095   4.665   7.371   8.129 -1.1609 -0.7617 -2.7991
  236MOL0     H31096   4.620   7.493   8.005  1.6882  0.0870 -0.6655
  236MOL0     H31097   4.712   7.566   8.276 -0.1176  2.3922  1.1406
  236MOL0     H31098   4.665   7.687   8.154  1.1149  0.6342 -0.2005
  236MOL0     H31099   4.838   7.601   7.996 -1.3811  0.5870 -0.2884
  236MOL0     H31100   4.912   7.538   8.138 -1.8502 -0.3945  2.2387
  236MOL0     H31101   4.988   7.768   8.075 -1.3813  5.2663 -1.8572
  236MOL0     H31102   4.820   7.827   8.087 -0.5676  0.2695  0.2764
  236MOL0     H31103   4.986   7.870   8.282 -1.1935  1.3832 -1.1565
  236MOL0     H31104   4.974   7.702   8.302  0.1847  0.0538  1.7318
  236MOL0     H31105   4.697   7.992   8.269  2.3959  2.8417  2.4492
  236MOL0     H31106   4.431   7.937   8.567 -2.4031  1.4718 -0.3321
  236MOL0     H31107   4.429   7.991   8.395  1.1434 -0.2337 -0.7806
  236MOL0     H31108   4.590   8.179   8.450 -0.5646  0.1820 -0.2658
  236MOL0     H31109   4.564   8.151   8.620 -0.4341  3.2850 -0.1540
  236MOL0     H31110   4.415   8.329   8.526  2.5432  0.3019 -2.2607
  236MOL0     H31111   4.361   8.221   8.395  3.3477  2.0697 -1.3621
  236MOL0     H31112   4.282   8.206   8.694 -2.0022 -1.7092  0.2484
  236MOL0     H31113   4.256   8.079   8.582  3.3378 -0.2425 -0.7896
  236MOL0     H31114   3.996   8.426   8.610 -1.1036  0.6670  3.0363
  236MOL0     H31115   3.828   8.433   8.767  1.1016  0.5772  2.5866
  236MOL0     H31116   3.673   7.962   9.127  0.3434 -0.6208 -2.8064
  236MOL0     H31117   3.499   7.918   9.302 -2.9005  0.1427  1.3953
  236MOL0     H31118   3.344   8.065   9.462 -0.1775  1.4526 -0.7473
  236MOL0     H31119   3.280   7.905   9.467  0.0395 -1.1479 -0.3984
  236MOL0     H31120   3.084   8.123   9.426  0.5513  1.3838  1.3456
  236MOL0     H31121   3.158   8.125   9.574 -0.8119  0.2383 -0.4154
  236MOL0     H31122   3.091   7.864   9.601 -2.5764 -0.1623  1.6818
  236MOL0     H31123   3.003   7.881   9.443  0.7607 -0.7631  1.0554
  236MOL0     H31124   2.985   8.018   9.698 -1.1058 -2.3392  0.5081
  236MOL0     H31125   2.903   8.090   9.554 -0.2409  0.3964 -0.2557
  236MOL0     H31126   2.859   7.807   9.642 -4.2569 -1.3184 -0.7231
  236MOL0     H31127   2.757   7.893   9.531  0.3620 -1.9838 -0.3509
  236MOL0     H31128   2.693   8.055   9.708 -0.9291 -0.3557 -0.4845
  236MOL0     H31129   2.768   7.950   9.829 -0.3629  0.0090  0.0214
  236MOL0     H31130   2.520   7.905   9.793  0.8434  2.7060 -0.9638
  236MOL0     H31131   2.557   7.864   9.629 -0.8335  1.1539 -0.2469
  236MOL0     H31132   2.710   7.672   9.732 -0.7903 -0.0834 -1.2645
  236MOL0     H31133   2.534   7.665   9.773 -0.3902  0.5070  3.4281
  236MOL0     H31134   3.214   8.102   9.047  0.7154  0.0238 -0.2896
  236MOL0     H31135   3.372   8.154   8.886  2.4075  0.4122  0.2509
  236MOL0     H31136   3.837   8.004   8.783 -0.0041  0.3436  2.8918
  236MOL0     H31137   4.049   7.997   8.657  0.3122 -0.3489  0.3128
  236MOL0     H31138   4.006   7.622   8.301  3.4175 -0.4762 -2.0858
  236MOL0     H31139   3.876   7.617   8.505 -0.1739  3.2640  0.7837
  236MOL0     H31140   3.887   7.303   8.945  0.2595  1.1806 -0.6737
  236MOL0     H31141   3.750   7.289   9.153 -1.6334 -0.6001 -1.4038
  236MOL0     H31142   3.761   7.643   9.347 -3.1344  0.5825 -3.3499
  236MOL0     H31143   3.794   7.503   9.445 -0.8709 -0.2947  3.2410
  236MOL0     H31144   3.644   7.696   9.535  2.2413 -0.3874 -1.0414
  236MOL0     H31145   3.517   7.629   9.434  1.4897 -1.7889 -2.3293
  236MOL0     H31146   3.665   7.505   9.661 -0.4116 -2.9733 -1.7039
  236MOL0     H31147   3.531   7.416   9.590  1.6557 -2.5871  4.1182
  236MOL0     H31148   3.363   7.577   9.641  1.0687 -0.4413 -1.3296
  236MOL0     H31149   3.435   7.525   9.787  0.4270 -2.0877 -0.7326
  236MOL0     H31150   3.502   7.955   9.724  0.1281 -0.3371  1.1518
  236MOL0     H31151   3.668   7.702   9.132  0.5934 -0.4904  0.3524
  236MOL0     H31152   3.800   7.713   8.910 -1.0202  2.6897  4.2939
  237MOL0     O31153   6.436   9.482   1.346 -0.2601 -0.0418  0.0884
  237MOL0     C31154   6.460   9.563   1.444  0.4719 -0.0074 -0.4403
  237MOL0     O31155   6.487   9.529   1.572  0.0853 -0.3948 -0.0942
  237MOL0     C31156   6.523   9.402   1.605  0.1512  1.0360 -1.2755
  237MOL0     C31157   6.499   9.376   1.742  0.2564  0.7832 -0.9114
  237MOL0     C31158   6.522   9.254   1.809  0.5128  0.0741 -0.3496
  237MOL0     C31159   6.571   9.148   1.738  0.4005 -0.9215 -0.0427
  237MOL0     O31160   6.576   9.013   1.781 -0.4434  0.1805  0.5605
  237MOL0     C31161   6.573   8.994   1.921 -0.1994 -0.3108  0.7782
  237MOL0     C31162   6.631   8.850   1.952  0.3098  0.5431 -0.8087
  237MOL0     C31163   6.633   8.820   2.098  0.5923  1.2448 -0.1542
  237MOL0     C31164   6.711   8.687   2.117  0.2335 -1.1856 -0.3422
  237MOL0     C31165   6.715   8.656   2.274  0.0075 -0.6544  0.7835
  237MOL0     C31166   6.595   8.603   2.356  0.1239 -0.4706 -0.3800
  237MOL0     C31167   6.599   8.454   2.400 -0.9903  0.3071  0.9602
  237MOL0     C31168   6.473   8.422   2.484  0.0503  0.1695 -0.3769
  237MOL0     N31169   6.456   8.278   2.473  0.0122 -0.0527  0.1672
  237MOL0     C31170   6.532   8.174   2.524 -0.9565 -0.4226  0.6177
  237MOL0     C31171   6.466   8.062   2.522 -0.2288  1.0219  0.2648
  237MOL0     C31172   6.500   7.922   2.584 -0.1949  0.3563 -0.3451
  237MOL0     C31173   6.367   7.860   2.617  0.2791 -0.1671  0.1486
  237MOL0     C31174   6.367   7.728   2.697 -0.7787 -0.8211 -0.1551
  237MOL0     C31175   6.231   7.672   2.739 -0.0770  0.5685 -0.1766
  237MOL0     O31176   6.261   7.545   2.808 -0.3269 -0.4503  1.0132
  237MOL0     C31177   6.256   7.418   2.747 -0.1389 -0.1874  0.8806
  237MOL0     C31178   6.363   7.342   2.718  1.2040 -0.3934 -0.2598
  237MOL0     C31179   6.360   7.214   2.666  0.7989  0.4609 -0.8191
  237MOL0     C31180   6.228   7.161   2.632  0.7528 -1.1148  0.5894
  237MOL0     C31181   6.202   7.023   2.576  0.2914 -0.6189 -0.4679
  237MOL0     O31182   6.077   6.980   2.576 -0.0628 -1.0639 -0.1351
  237MOL0     C31183   6.055   6.850   2.526 -1.1279 -0.4147  0.0956
  237MOL0     C31184   6.028   6.736   2.617  1.0363 -0.7406 -0.0770
  237MOL0     C31185   5.990   6.611   2.570  0.4359 -0.6374  0.4784
  237MOL0     C31186   5.990   6.586   2.430  0.7826 -0.2717 -0.6870
  237MOL0     O31187   5.969   6.456   2.397 -0.1674  0.6362  0.2010
  237MOL0     C31188   6.055   6.417   2.286 -0.8340  0.5915  0.4335
  237MOL0     C31189   6.049   6.264   2.269  0.5477 -0.1617  0.0821
  237MOL0     C31190   6.076   6.209   2.401 -1.1723  0.6779 -0.0689
  237MOL0     C31191   6.114   6.051   2.383  0.5775 -0.8384 -0.2831
  237MOL0     C31192   6.155   5.986   2.514  0.2402  0.7230  0.5538
  237MOL0     C31193   6.234   5.849   2.491 -0.8678 -0.5344 -0.1585
  237MOL0     C31194   6.142   5.757   2.421 -0.9570  0.0709  0.5672
  237MOL0     C31195   6.196   5.619   2.400 -0.2291 -0.1988 -0.3329
  237MOL0    Cl31196   6.177   5.535   2.567  0.1093 -0.1462  0.4581
  237MOL0     C31197   6.010   6.700   2.347 -0.6201 -0.5215 -0.0825
  237MOL0     C31198   6.048   6.829   2.398  0.2515  0.2023  0.6439
  237MOL0     O31199   6.305   6.965   2.528 -1.0359 -0.0011  0.2046
  237MOL0     C31200   6.113   7.241   2.659 -0.2613 -0.0943 -1.5834
  237MOL0     C31201   6.130   7.369   2.717  0.2511  0.9430 -0.1430
  237MOL0     N31202   6.344   8.095   2.467 -0.6710  0.1462  0.0372
  237MOL0     N31203   6.338   8.220   2.444  0.3838 -0.5378  0.5989
  237MOL0     C31204   6.591   9.173   1.602  0.0671 -0.1347  0.3570
  237MOL0     C31205   6.571   9.297   1.538 -0.5700  0.2476 -0.7806
  237MOL0     C31206   6.433   9.707   1.414  0.5704  0.4781 -0.5721
  237MOL0     C31207   6.423   9.763   1.286 -0.1871  0.8381 -0.5568
  237MOL0     C31208   6.428   9.902   1.270 -0.3137  0.9017 -0.2039
  237MOL0     C31209   6.412   9.985   1.370 -0.3723 -0.8925  0.1174
  237MOL0     O31210   6.405  10.123   1.366  0.6601  0.2607  0.3478
  237MOL0     C31211   6.481  10.188   1.259 -1.0929 -0.0203  0.7277
  237MOL0     C31212   6.408  10.229   1.132 -0.1871  0.0747 -0.7249
  237MOL0     C31213   6.511  10.289   1.025  0.0739  0.0185  0.8630
  237MOL0     C31214   6.636  10.209   1.003  0.7352 -0.1815  0.1452
  237MOL0     C31215   6.612  10.067   0.967 -0.2874  0.3926  0.1962
  237MOL0     C31216   6.580   9.954   0.926  0.3867  0.2425  0.3119
  237MOL0     C31217   6.412   9.935   1.504  0.0671 -0.0180  0.0514
  237MOL0     C31218   6.432   9.802   1.529  0.7960 -0.3868 -0.1847
  237MOL0     H31219   6.473   9.459   1.806  4.3003  0.0434  2.0846
  237MOL0     H31220   6.508   9.247   1.916  3.5407  1.3213  0.2058
  237MOL0     H31221   6.470   8.994   1.958  1.0703 -2.6043  4.9465
  237MOL0     H31222   6.616   9.078   1.975 -3.5287  1.4905  0.8583
  237MOL0     H31223   6.735   8.831   1.926  0.5705 -3.0876  2.0680
  237MOL0     H31224   6.568   8.783   1.893 -2.3138  0.4598  1.7911
  237MOL0     H31225   6.533   8.805   2.140  0.1707  0.0381 -1.5182
  237MOL0     H31226   6.676   8.912   2.138 -0.9609  2.5520 -1.3457
  237MOL0     H31227   6.659   8.609   2.062 -2.5291 -1.6754  2.6156
  237MOL0     H31228   6.815   8.699   2.087  0.5868  2.1164  1.6434
  237MOL0     H31229   6.750   8.748   2.322  0.0254 -1.4339  2.3065
  237MOL0     H31230   6.806   8.599   2.295  0.9798 -0.6417 -2.6506
  237MOL0     H31231   6.510   8.626   2.293 -0.0283 -0.4703 -0.1750
  237MOL0     H31232   6.579   8.657   2.450 -1.8138 -0.3851 -0.7309
  237MOL0     H31233   6.601   8.385   2.315 -2.1275  2.0052 -0.5053
  237MOL0     H31234   6.689   8.449   2.462  0.7760  0.4211 -1.4403
  237MOL0     H31235   6.386   8.474   2.441 -0.8965 -0.3634  0.8344
  237MOL0     H31236   6.491   8.459   2.586  2.6479  2.2683 -1.4664
  237MOL0     H31237   6.620   8.176   2.587 -0.6083  0.1050  0.1200
  237MOL0     H31238   6.567   7.936   2.670  0.3046 -1.2532 -0.4435
  237MOL0     H31239   6.545   7.877   2.495 -0.0317  2.0643 -1.1729
  237MOL0     H31240   6.312   7.851   2.524 -0.5546  0.4032  0.5760
  237MOL0     H31241   6.312   7.928   2.683  0.5829 -2.9204  3.5183
  237MOL0     H31242   6.422   7.652   2.641 -0.0659  0.6628 -1.5456
  237MOL0     H31243   6.423   7.756   2.787 -2.2171  1.3957  0.1398
  237MOL0     H31244   6.167   7.659   2.651 -1.1741 -3.5670  1.0249
  237MOL0     H31245   6.179   7.743   2.803  1.3679  0.7333  0.8670
  237MOL0     H31246   6.453   7.381   2.763  0.9311 -0.0233 -0.0267
  237MOL0     H31247   6.450   7.158   2.643 -0.3735 -1.8609 -0.0369
  237MOL0     H31248   6.034   6.759   2.723  3.3855 -2.9194  0.3648
  237MOL0     H31249   5.968   6.529   2.637 -0.8396  2.2467  3.9275
  237MOL0     H31250   6.156   6.445   2.317  0.7517 -1.2052 -2.6606
  237MOL0     H31251   6.050   6.483   2.199  3.2879  2.5769  1.4976
  237MOL0     H31252   6.122   6.235   2.193 -0.9123  0.9733 -1.8140
  237MOL0     H31253   5.947   6.245   2.236  0.2815  2.5239 -0.8686
  237MOL0     H31254   5.992   6.223   2.470 -0.1393  2.8361  0.8543
  237MOL0     H31255   6.162   6.257   2.449 -0.0385 -1.9658  0.7126
  237MOL0     H31256   6.021   5.999   2.359 -0.5485  1.3876 -1.0415
  237MOL0     H31257   6.187   6.037   2.303  1.2892  1.3812 -0.1095
  237MOL0     H31258   6.065   5.970   2.574 -2.0065  3.2829 -1.7932
  237MOL0     H31259   6.226   6.053   2.564 -0.8829  1.5196  1.1333
  237MOL0     H31260   6.257   5.814   2.593  0.9493  0.2415 -0.2597
  237MOL0     H31261   6.320   5.875   2.428 -2.4438  0.0534 -2.1721
  237MOL0     H31262   6.039   5.758   2.457 -3.1068 -1.7209 -4.4739
  237MOL0     H31263   6.134   5.795   2.318  1.9577 -3.9589 -1.4574
  237MOL0     H31264   6.299   5.612   2.364 -0.1980  0.1615 -0.3221
  237MOL0     H31265   6.145   5.572   2.315 -1.5046 -0.8520  0.7514
  237MOL0     H31266   5.996   6.683   2.241 -0.3443 -3.8536  0.3122
  237MOL0     H31267   6.062   6.906   2.323 -1.6750  0.5617  0.5944
  237MOL0     H31268   6.010   7.206   2.657 -0.1119 -1.2711  2.3214
  237MOL0     H31269   6.041   7.429   2.735  1.1332  2.9987 -2.1153
  237MOL0     H31270   6.626   9.085   1.548 -2.4279 -2.0747  1.6722
  237MOL0     H31271   6.599   9.307   1.433  1.6806  1.3725 -0.1198
  237MOL0     H31272   6.445   9.702   1.199 -1.1633  2.4213 -1.9640
  237MOL0     H31273   6.422   9.937   1.168  1.6551 -2.4234 -1.6031
  237MOL0     H31274   6.561  10.118   1.233 -1.8810 -0.7473  0.2022
  237MOL0     H31275   6.529  10.276   1.304 -0.9920  0.0437  0.4982
  237MOL0     H31276   6.333  10.157   1.100 -1.3346  1.3023 -0.8793
  237MOL0     H31277   6.349  10.315   1.164  1.1948 -0.1554  2.8162
  237MOL0     H31278   6.545  10.387   1.058 -0.8341 -0.4998  3.5520
  237MOL0     H31279   6.449  10.304   0.936  1.5780  0.4332 -0.1539
  237MOL0     H31280   6.698  10.245   0.921 -0.3504  1.4145 -0.0259
  237MOL0     H31281   6.699  10.202   1.092  0.3650 -2.1832  0.3034
  237MOL0     H31282   6.529   9.868   0.888 -0.2096  1.1642 -1.0487
  237MOL0     H31283   6.401  10.000   1.590  0.9710 -0.4027  0.4725
  237MOL0     H31284   6.437   9.772   1.633  1.8519  1.2727  0.2849
  238MOL0     O31285   9.430  10.654   8.361 -0.3773 -0.1898 -0.5811
  238MOL0     C31286   9.552  10.659   8.374 -0.3190  0.5738  0.2498
  238MOL0     O31287   9.642  10.724   8.291 -0.1014 -0.1693  0.3338
  238MOL0     C31288   9.602  10.819   8.202  0.2001 -0.5509  0.0474
  238MOL0     C31289   9.493  10.906   8.217  0.1683  0.2546 -0.0979
  238MOL0     C31290   9.459  10.991   8.111 -0.4072 -0.0809  0.2253
  238MOL0     C31291   9.532  10.981   7.987 -0.0616 -0.5627 -0.2468
  238MOL0     O31292   9.495  11.068   7.891 -0.1325  0.3140  0.4824
  238MOL0     C31293   9.493  11.209   7.913 -0.9893  0.0135  0.3520
  238MOL0     C31294   9.612  11.293   7.872  0.3016  0.5562  0.1283
  238MOL0     C31295   9.683  11.232   7.748  0.2097 -0.4199  0.1502
  238MOL0     C31296   9.802  11.325   7.702  0.5329  0.3777 -0.3326
  238MOL0     C31297   9.894  11.248   7.612  0.4210  0.2287  0.0588
  238MOL0     C31298  10.012  11.338   7.563  0.2710 -0.2230 -0.2767
  238MOL0     C31299   9.965  11.471   7.493 -0.0287 -0.3718  0.4157
  238MOL0     C31300   9.845  11.462   7.401  0.3772  0.6410  1.1907
  238MOL0     N31301   9.899  11.391   7.282 -0.6074 -1.3299  0.3144
  238MOL0     C31302   9.950  11.461   7.169 -0.4975 -0.1480  0.5377
  238MOL0     C31303   9.978  11.366   7.081  0.5454  0.5236 -0.2327
  238MOL0     C31304  10.038  11.386   6.942 -0.4153  0.6175 -0.9763
  238MOL0     C31305   9.968  11.493   6.860 -1.1673 -0.0181 -0.2579
  238MOL0     C31306  10.047  11.540   6.738  0.2491 -0.3775 -0.8467
  238MOL0     C31307   9.998  11.659   6.654  0.1025  0.6195  0.3261
  238MOL0     O31308  10.023  11.770   6.741 -1.1993 -0.5173 -0.0320
  238MOL0     C31309   9.963  11.889   6.705  0.6090 -0.2273 -0.1188
  238MOL0     C31310   9.962  11.997   6.795 -1.0154  0.1412  1.1020
  238MOL0     C31311   9.921  12.118   6.753 -1.1440  0.1089  0.0379
  238MOL0     C31312   9.884  12.150   6.622  0.7084 -0.3824  0.1650
  238MOL0     C31313   9.884  12.302   6.592 -0.7846 -0.6540 -1.0181
  238MOL0     O31314   9.901  12.387   6.702 -0.1437  0.6138 -1.1221
  238MOL0     C31315   9.929  12.521   6.686 -0.1382 -1.2372 -1.0876
  238MOL0     C31316   9.894  12.603   6.585 -0.2918 -0.8637 -0.0301
  238MOL0     C31317   9.929  12.742   6.591 -0.4032  0.3548  0.5395
  238MOL0     C31318   9.993  12.799   6.699 -0.0352  0.6884 -0.6110
  238MOL0     O31319  10.032  12.925   6.703 -0.1154  0.0220  0.9065
  238MOL0     C31320  10.182  12.937   6.713 -0.5473  0.7349 -0.2325
  238MOL0     C31321  10.252  12.946   6.584  0.3537  0.5607  0.6043
  238MOL0     C31322  10.275  12.808   6.514 -0.2771  0.0604  0.2313
  238MOL0     C31323  10.400  12.730   6.569 -1.1525  0.4703  0.4600
  238MOL0     C31324  10.419  12.590   6.508 -0.0409 -1.3364 -0.8053
  238MOL0     C31325  10.323  12.484   6.554  0.7116  0.4062 -0.3024
  238MOL0     C31326  10.345  12.347   6.486 -0.0308 -0.4343 -0.9086
  238MOL0     C31327  10.228  12.255   6.524 -1.0155 -0.9485  0.5488
  238MOL0    Cl31328  10.200  12.250   6.700 -1.1805  0.5229 -0.4253
  238MOL0     C31329  10.018  12.716   6.810  0.4094 -0.1441 -0.0159
  238MOL0     C31330   9.988  12.583   6.802 -0.2510  0.6664 -0.2540
  238MOL0     O31331   9.866  12.333   6.470 -0.5275  0.1382  0.2757
  238MOL0     C31332   9.885  12.045   6.531 -0.7275  1.1239 -1.0597
  238MOL0     C31333   9.915  11.905   6.568  0.4449 -0.5191 -0.0624
  238MOL0     N31334   9.953  11.248   7.144 -0.6051 -0.3750  0.4589
  238MOL0     N31335   9.907  11.260   7.260 -0.6683  1.2821  0.4103
  238MOL0     C31336   9.638  10.896   7.971  0.5807 -0.9960 -0.5882
  238MOL0     C31337   9.676  10.829   8.086 -1.8918  0.3393  0.3936
  238MOL0     C31338   9.608  10.577   8.487  0.6419  0.5576  0.6619
  238MOL0     C31339   9.533  10.512   8.584 -0.0936 -0.4792 -0.3094
  238MOL0     C31340   9.595  10.440   8.685 -0.4654 -0.1431 -0.3045
  238MOL0     C31341   9.735  10.443   8.697  0.2408 -0.2463 -0.2019
  238MOL0     O31342   9.805  10.380   8.799  0.0081  0.2949  0.5234
  238MOL0     C31343   9.749  10.372   8.931 -0.3158 -1.0557  0.3878
  238MOL0     C31344   9.809  10.256   9.006 -0.1146 -0.2386 -0.3111
  238MOL0     C31345   9.805  10.272   9.160 -0.2764 -0.1225  0.3334
  238MOL0     C31346   9.900  10.182   9.231  0.2928 -0.3647  0.1096
  238MOL0     C31347   9.884  10.042   9.185  0.4627 -0.1612 -0.3062
  238MOL0     C31348   9.893   9.928   9.136 -0.2389 -0.2627 -0.0956
  238MOL0     C31349   9.817  10.498   8.592  0.5657  0.0915 -0.3889
  238MOL0     C31350   9.750  10.571   8.494 -0.4535  0.8764  0.8344
  238MOL0     H31351   9.436  10.893   8.308  3.9777 -1.6847  2.2751
  238MOL0     H31352   9.380  11.061   8.134 -0.3818 -0.3227  1.1044
  238MOL0     H31353   9.490  11.229   8.021 -0.7155 -2.8732  0.9731
  238MOL0     H31354   9.404  11.251   7.866 -0.4384  1.3035  0.4096
  238MOL0     H31355   9.687  11.320   7.947  3.9090 -1.4580 -2.4060
  238MOL0     H31356   9.558  11.385   7.848 -1.9855 -0.8121 -0.2466
  238MOL0     H31357   9.618  11.193   7.670 -0.3556  2.3365 -0.8780
  238MOL0     H31358   9.725  11.136   7.779 -1.4894 -1.9606 -2.0094
  238MOL0     H31359   9.756  11.410   7.651  0.3249  0.2985 -0.2765
  238MOL0     H31360   9.854  11.358   7.792  1.3199 -3.1930  0.6995
  238MOL0     H31361   9.845  11.208   7.523 -3.8611  1.3043  1.6789
  238MOL0     H31362   9.927  11.154   7.659 -2.2208 -1.6925 -1.6404
  238MOL0     H31363  10.065  11.288   7.481 -1.2707  0.4188 -1.7458
  238MOL0     H31364  10.072  11.370   7.648 -1.5577 -0.4653  1.1791
  238MOL0     H31365   9.953  11.552   7.566  1.7486  2.7917 -2.5805
  238MOL0     H31366  10.050  11.519   7.446 -0.8923 -1.6183 -2.7132
  238MOL0     H31367   9.822  11.563   7.366  0.3776  0.0217 -0.7274
  238MOL0     H31368   9.757  11.414   7.445  0.3591 -0.4197  0.0375
  238MOL0     H31369   9.960  11.567   7.148 -0.2892 -0.1006  0.8772
  238MOL0     H31370  10.037  11.295   6.882  2.8855 -0.2754  0.1141
  238MOL0     H31371  10.139  11.424   6.962 -0.5344  0.8183 -0.7580
  238MOL0     H31372   9.951  11.583   6.920 -0.3520  0.4900 -0.7666
  238MOL0     H31373   9.869  11.457   6.830 -0.2783 -2.0607 -0.9464
  238MOL0     H31374  10.151  11.566   6.757  0.0610 -1.1327  1.5288
  238MOL0     H31375  10.043  11.451   6.675 -1.5089 -0.3766 -0.8055
  238MOL0     H31376   9.893  11.639   6.633  0.5068  1.5988 -3.3124
  238MOL0     H31377  10.055  11.652   6.560  0.7842 -1.9360  0.8450
  238MOL0     H31378   9.998  11.975   6.895  1.4439 -0.3050  0.2150
  238MOL0     H31379   9.929  12.193   6.832  1.2763  2.0938 -1.9429
  238MOL0     H31380   9.831  12.574   6.501 -1.5773 -2.5362  1.4262
  238MOL0     H31381   9.915  12.800   6.501  1.3006  0.5590  0.3645
  238MOL0     H31382  10.227  12.853   6.766 -2.6598 -0.4590 -0.2332
  238MOL0     H31383  10.207  13.020   6.780  0.9182 -0.6129  0.9857
  238MOL0     H31384  10.343  13.006   6.592  0.4377  0.2620  2.4606
  238MOL0     H31385  10.201  12.999   6.504  1.9896  1.8389  0.3504
  238MOL0     H31386  10.297  12.815   6.407  1.4054 -3.3356  0.2261
  238MOL0     H31387  10.186  12.745   6.521 -0.7678  0.6178 -0.8317
  238MOL0     H31388  10.489  12.785   6.539 -0.7058 -0.6665 -0.3703
  238MOL0     H31389  10.411  12.726   6.678  1.7809 -1.7385  0.2216
  238MOL0     H31390  10.516  12.552   6.540 -0.9505 -0.1687  4.0379
  238MOL0     H31391  10.409  12.605   6.400 -1.4007 -2.4984 -0.8788
  238MOL0     H31392  10.226  12.522   6.518  0.0824  0.7498  1.6642
  238MOL0     H31393  10.320  12.470   6.662  2.2152 -1.7034 -0.4837
  238MOL0     H31394  10.347  12.341   6.376 -0.1198 -2.3394 -0.8425
  238MOL0     H31395  10.432  12.297   6.527 -1.7581 -3.6308 -0.8221
  238MOL0     H31396  10.246  12.153   6.489 -0.5637 -0.7551  0.2171
  238MOL0     H31397  10.143  12.286   6.462  0.3781 -3.5631 -2.9743
  238MOL0     H31398  10.062  12.761   6.898  2.3175  0.9788 -1.4324
  238MOL0     H31399  10.006  12.511   6.880  3.2787  1.2500 -0.3577
  238MOL0     H31400   9.873  12.071   6.426 -1.6178  0.0660 -1.2322
  238MOL0     H31401   9.915  11.834   6.486 -1.2569 -2.1018  1.2488
  238MOL0     H31402   9.688  10.898   7.876  1.1656  0.3775 -0.2695
  238MOL0     H31403   9.768  10.771   8.094 -0.9494  1.5931 -0.8858
  238MOL0     H31404   9.426  10.526   8.581  0.1106  1.4787 -0.1064
  238MOL0     H31405   9.532  10.394   8.761 -0.3758  3.0714  1.9093
  238MOL0     H31406   9.642  10.348   8.923 -0.5081 -0.1094 -0.0546
  238MOL0     H31407   9.758  10.468   8.984 -1.4552  0.6048 -2.2093
  238MOL0     H31408   9.767  10.161   8.972 -0.1026 -0.7267  0.9878
  238MOL0     H31409   9.913  10.239   8.978  0.5505  0.4037  1.6430
  238MOL0     H31410   9.704  10.256   9.199 -1.4128 -1.0401 -2.6736
  238MOL0     H31411   9.830  10.375   9.185 -0.0643  0.3711 -1.7341
  238MOL0     H31412   9.996  10.233   9.218 -0.8507  2.0158  0.4539
  238MOL0     H31413   9.880  10.188   9.339 -3.3529  2.8284 -0.5163
  238MOL0     H31414   9.895   9.826   9.101  1.6831 -1.0891  2.1614
  238MOL0     H31415   9.926  10.496   8.593  0.5609 -0.1453  0.4693
  238MOL0     H31416   9.812  10.616   8.417  0.1311 -2.6986 -0.9992
  239MOL0     O31417  11.300   9.973   8.295  0.0863 -0.5226 -0.4991
  239MOL0     C31418  11.389   9.998   8.201 -0.1622  0.3530 -0.6302
  239MOL0     O31419  11.371   9.974   8.066  0.1023 -0.6267 -0.2004
  239MOL0     C31420  11.273   9.889   8.035 -1.4319 -0.7038 -0.7730
  239MOL0     C31421  11.143   9.888   8.082  0.1292  0.1979 -0.2805
  239MOL0     C31422  11.050   9.791   8.046  0.4619 -0.1518  0.0851
  239MOL0     C31423  11.084   9.685   7.956  0.6169 -0.2569 -0.6374
  239MOL0     O31424  11.000   9.597   7.893  0.1363 -0.0822 -0.9545
  239MOL0     C31425  10.859   9.623   7.912 -0.0222 -0.0240 -1.2331
  239MOL0     C31426  10.750   9.571   7.821 -0.0594  0.2456  0.3625
  239MOL0     C31427  10.798   9.590   7.675 -0.0468 -0.0458  0.3823
  239MOL0     C31428  10.709   9.536   7.567 -0.1643 -0.8963 -0.3065
  239MOL0     C31429  10.553   9.540   7.602 -0.6891  0.3979  0.4441
  239MOL0     C31430  10.459   9.498   7.482  0.1980 -0.1485 -0.5531
  239MOL0     C31431  10.482   9.566   7.353 -1.2574 -0.6948  0.3259
  239MOL0     C31432  10.371   9.549   7.248  0.7186  0.2829 -0.3967
  239MOL0     N31433  10.318   9.413   7.227  1.3352 -0.2621 -0.2478
  239MOL0     C31434  10.364   9.322   7.140 -0.1111  0.9611 -0.2449
  239MOL0     C31435  10.261   9.231   7.132  0.0883 -0.0351  0.4460
  239MOL0     C31436  10.272   9.106   7.048  0.3416  0.0260  0.6157
  239MOL0     C31437  10.252   9.149   6.900 -0.1496  0.1400  0.4785
  239MOL0     C31438  10.282   9.023   6.819 -0.5000 -0.2832  0.1344
  239MOL0     C31439  10.322   9.055   6.670  0.4000 -0.2028 -0.2655
  239MOL0     O31440  10.325   8.930   6.588 -0.8187  0.4295 -0.0517
  239MOL0     C31441  10.245   8.929   6.473  0.1583 -0.4993 -0.5368
  239MOL0     C31442  10.215   9.040   6.388  0.0389 -1.1007 -0.2909
  239MOL0     C31443  10.125   9.019   6.285  0.7269  1.1322  1.1292
  239MOL0     C31444  10.059   8.896   6.269 -0.2246  0.8020  0.9445
  239MOL0     C31445   9.970   8.874   6.152 -1.0284 -0.2653  0.6265
  239MOL0     O31446   9.977   8.747   6.105 -0.5167  0.0405  0.9616
  239MOL0     C31447   9.922   8.703   5.991 -0.1658 -0.2744 -0.8010
  239MOL0     C31448   9.897   8.780   5.880  1.0698 -0.4414  0.5754
  239MOL0     C31449   9.841   8.725   5.767  0.3971  0.3886 -0.5458
  239MOL0     C31450   9.818   8.584   5.753  0.0773  0.7848  0.0023
  239MOL0     O31451   9.750   8.533   5.643  0.1397 -0.0256 -0.2095
  239MOL0     C31452   9.727   8.614   5.528  1.1867 -0.5330  0.1505
  239MOL0     C31453   9.642   8.544   5.428  0.2928 -0.2838  0.1289
  239MOL0     C31454   9.617   8.615   5.290 -0.3408 -0.4617  0.4724
  239MOL0     C31455   9.537   8.521   5.193  0.0411 -0.2944 -0.7659
  239MOL0     C31456   9.499   8.590   5.059  0.2996  0.1122  0.6110
  239MOL0     C31457   9.462   8.481   4.955 -0.3639 -0.3766  0.1473
  239MOL0     C31458   9.433   8.546   4.815 -0.3286 -0.3223 -0.4745
  239MOL0     C31459   9.463   8.445   4.700 -0.3445  0.2672  0.5516
  239MOL0    Cl31460   9.434   8.516   4.532  0.0216 -0.3255  0.3689
  239MOL0     C31461   9.863   8.499   5.858 -0.1785 -0.3854 -0.1881
  239MOL0     C31462   9.906   8.563   5.980 -0.1442 -0.2998  0.4046
  239MOL0     O31463   9.912   8.969   6.100 -0.8377 -0.0180  0.8674
  239MOL0     C31464  10.094   8.792   6.352  0.2034 -0.2276  0.4414
  239MOL0     C31465  10.190   8.803   6.451  0.1637 -0.1852  0.2136
  239MOL0     N31466  10.159   9.281   7.212  0.9488  0.0735  0.9213
  239MOL0     N31467  10.191   9.387   7.272 -0.0353  0.5398 -0.2889
  239MOL0     C31468  11.211   9.679   7.916  0.3681  0.4562  0.6522
  239MOL0     C31469  11.312   9.774   7.953 -0.1000 -0.5777  0.6393
  239MOL0     C31470  11.511  10.064   8.249 -0.2929  0.9390  0.8766
  239MOL0     C31471  11.608  10.103   8.150 -0.4526 -0.2315  0.3681
  239MOL0     C31472  11.732  10.161   8.188  0.0377 -0.3100  0.9703
  239MOL0     C31473  11.758  10.185   8.323  0.0309  0.9642  0.1985
  239MOL0     O31474  11.868  10.234   8.384 -1.1124 -0.2882  0.4737
  239MOL0     C31475  11.948  10.330   8.309  1.0125 -0.0496  1.0259
  239MOL0     C31476  12.061  10.388   8.384 -0.8798  0.7976  0.0118
  239MOL0     C31477  12.195  10.299   8.372  1.4315 -0.7534  0.3092
  239MOL0     C31478  12.324  10.335   8.457 -0.5173 -0.1039 -0.7322
  239MOL0     C31479  12.296  10.338   8.603  0.6261  0.5771  0.5632
  239MOL0     C31480  12.265  10.353   8.718 -0.3797 -0.3000  0.1935
  239MOL0     C31481  11.663  10.147   8.416 -0.7486 -0.1741  0.2939
  239MOL0     C31482  11.543  10.089   8.382  0.3635 -0.1187  0.6082
  239MOL0     H31483  11.108   9.975   8.137  0.2272  0.0714 -0.0167
  239MOL0     H31484  10.951   9.805   8.090  1.7753  0.7645  2.9819
  239MOL0     H31485  10.847   9.732   7.915 -1.9140 -0.2036 -0.1327
  239MOL0     H31486  10.830   9.583   8.010 -0.5744 -3.1111 -2.5397
  239MOL0     H31487  10.662   9.633   7.838  1.9747  2.9079  2.1698
  239MOL0     H31488  10.728   9.468   7.849 -2.3492  1.2171  2.4195
  239MOL0     H31489  10.897   9.546   7.659  0.5176  1.0289  0.8075
  239MOL0     H31490  10.823   9.695   7.656  1.0017 -0.7712 -2.8823
  239MOL0     H31491  10.746   9.583   7.475  0.7991  2.7143  1.7365
  239MOL0     H31492  10.736   9.430   7.556  1.7155 -0.5223  0.2456
  239MOL0     H31493  10.533   9.642   7.636  0.4069  0.2692  1.5441
  239MOL0     H31494  10.543   9.470   7.685  0.2486  0.4798  0.6402
  239MOL0     H31495  10.353   9.511   7.502 -0.0300  0.1934 -1.8957
  239MOL0     H31496  10.465   9.390   7.467  3.8215 -0.0900 -0.5606
  239MOL0     H31497  10.489   9.673   7.376 -0.1802 -1.0358  1.7814
  239MOL0     H31498  10.575   9.543   7.300 -0.1031  3.6043  0.0686
  239MOL0     H31499  10.397   9.586   7.149  1.6796  1.8475  0.3927
  239MOL0     H31500  10.292   9.612   7.290  1.6468  0.5300  1.0946
  239MOL0     H31501  10.462   9.314   7.094 -0.8332  0.6509 -1.8201
  239MOL0     H31502  10.202   9.032   7.086 -1.1222 -0.7479 -3.1260
  239MOL0     H31503  10.375   9.070   7.060 -0.4180 -3.5202 -1.9482
  239MOL0     H31504  10.316   9.235   6.877  4.3384 -2.7164  1.1210
  239MOL0     H31505  10.152   9.175   6.864  1.8528  4.3109 -2.9962
  239MOL0     H31506  10.366   8.970   6.863 -2.9212 -2.7185  2.1950
  239MOL0     H31507  10.188   8.967   6.822  0.0749 -1.2347  0.8827
  239MOL0     H31508  10.421   9.100   6.680 -1.2128  3.0455  3.5430
  239MOL0     H31509  10.261   9.136   6.631  1.5526  0.7232 -0.2056
  239MOL0     H31510  10.252   9.142   6.394  0.0653 -1.1318  0.0841
  239MOL0     H31511  10.106   9.091   6.206  0.5202 -1.8642 -1.7329
  239MOL0     H31512   9.906   8.888   5.870 -1.9079 -0.0162  1.4760
  239MOL0     H31513   9.813   8.796   5.690  1.1166  1.8730  0.5148
  239MOL0     H31514   9.827   8.645   5.497 -1.0672  3.6381 -4.2264
  239MOL0     H31515   9.666   8.701   5.555 -1.9202 -2.5875  0.2268
  239MOL0     H31516   9.547   8.520   5.477  0.9252  0.2553  1.6652
  239MOL0     H31517   9.697   8.451   5.414 -0.7157 -0.6715 -1.6241
  239MOL0     H31518   9.718   8.626   5.249  0.6818  1.3061  3.2229
  239MOL0     H31519   9.570   8.709   5.320  3.3309  0.5685  3.7594
  239MOL0     H31520   9.603   8.441   5.158 -1.6072 -4.9601  5.1422
  239MOL0     H31521   9.456   8.469   5.244 -0.2561  0.0455 -0.8875
  239MOL0     H31522   9.577   8.647   5.009  1.5410 -2.9008 -1.1493
  239MOL0     H31523   9.418   8.663   5.063 -0.0172 -0.0690 -1.4816
  239MOL0     H31524   9.383   8.426   5.007 -0.1392  0.0780  1.0004
  239MOL0     H31525   9.546   8.414   4.936 -0.3021 -0.1397 -0.4524
  239MOL0     H31526   9.329   8.579   4.803  0.8805  3.2777 -2.9174
  239MOL0     H31527   9.491   8.637   4.795 -2.0204  1.5460  2.3097
  239MOL0     H31528   9.393   8.363   4.715  0.3621 -0.2819  0.9538
  239MOL0     H31529   9.566   8.407   4.704  0.7821  2.6317 -2.0819
  239MOL0     H31530   9.837   8.394   5.867 -2.4385  0.0020 -1.4184
  239MOL0     H31531   9.932   8.493   6.060  0.5276 -0.6012 -0.0682
  239MOL0     H31532  10.045   8.698   6.329  0.5639  0.1844 -2.4919
  239MOL0     H31533  10.213   8.721   6.519  0.1623 -0.5780 -0.2523
  239MOL0     H31534  11.216   9.599   7.843 -2.1697  1.2747 -0.5282
  239MOL0     H31535  11.416   9.767   7.921  1.4579 -1.5100  5.2094
  239MOL0     H31536  11.591  10.078   8.046 -1.1270  0.0621  0.4001
  239MOL0     H31537  11.815  10.188   8.123 -1.1408 -0.4086 -0.6077
  239MOL0     H31538  11.869  10.405   8.291 -1.9231 -2.8624  1.2313
  239MOL0     H31539  11.983  10.281   8.218  1.5222 -0.1252  1.2641
  239MOL0     H31540  12.076  10.488   8.344 -1.5555  0.5118 -0.9890
  239MOL0     H31541  12.043  10.381   8.492  2.5526 -2.4603  0.5974
  239MOL0     H31542  12.217  10.288   8.265  4.6636 -1.1511  0.9109
  239MOL0     H31543  12.160  10.199   8.398 -1.2105 -0.6480 -2.3591
  239MOL0     H31544  12.403  10.263   8.434  0.1996  0.7229 -0.9071
  239MOL0     H31545  12.374  10.429   8.432 -0.0442  0.0770  0.7761
  239MOL0     H31546  12.271  10.355   8.825 -0.3097 -0.6273  0.1979
  239MOL0     H31547  11.687  10.143   8.522  0.0279  0.8049  0.1610
  239MOL0     H31548  11.483  10.048   8.462 -1.6962  2.1625  0.3399
  240MOL0     O31549   6.843   6.515   5.629 -0.5295  0.3874  0.0850
  240MOL0     C31550   6.941   6.463   5.685 -0.2083 -0.0065 -0.1986
  240MOL0     O31551   6.951   6.331   5.703  0.1056  0.3519 -0.3271
  240MOL0     C31552   6.843   6.252   5.661  0.2858 -1.1211  0.2966
  240MOL0     C31553   6.734   6.246   5.748  0.2300 -0.5763 -0.1978
  240MOL0     C31554   6.616   6.158   5.727 -0.3680 -0.3881  0.1651
  240MOL0     C31555   6.613   6.079   5.606  0.0539  0.2198 -0.3887
  240MOL0     O31556   6.522   5.989   5.563 -0.2645  0.3500  0.5634
  240MOL0     C31557   6.481   5.887   5.656  0.0799 -0.6213 -0.0062
  240MOL0     C31558   6.404   5.786   5.576  0.3745  0.8401 -0.1902
  240MOL0     C31559   6.282   5.846   5.510  0.0838  0.2106  0.1880
  240MOL0     C31560   6.173   5.858   5.623  0.2184  0.7150 -0.0246
  240MOL0     C31561   6.048   5.923   5.575  0.1597 -0.4652 -0.7274
  240MOL0     C31562   5.956   5.975   5.683 -0.9962  0.0445  0.7670
  240MOL0     C31563   5.827   6.041   5.630  0.1918  0.6262  0.5332
  240MOL0     C31564   5.744   6.121   5.736 -0.7113 -0.7479  0.1344
  240MOL0     N31565   5.728   6.032   5.860  0.6028 -0.0290  0.0678
  240MOL0     C31566   5.702   6.069   5.987 -0.2782  0.2779 -0.5971
  240MOL0     C31567   5.668   5.953   6.051  0.5975  0.2222  0.3397
  240MOL0     C31568   5.605   5.948   6.186  0.0778 -0.2733  0.3013
  240MOL0     C31569   5.702   5.993   6.298  0.3346  0.4374 -0.3383
  240MOL0     C31570   5.649   5.979   6.439 -0.6465  0.1413  0.3962
  240MOL0     C31571   5.747   6.056   6.535  0.2290 -0.0393  0.5920
  240MOL0     O31572   5.868   5.987   6.550  0.2967 -0.1560 -0.3382
  240MOL0     C31573   5.983   6.053   6.584  0.7891 -0.2575 -0.3804
  240MOL0     C31574   6.047   6.002   6.688 -0.4403  0.4549 -0.2607
  240MOL0     C31575   6.162   6.062   6.733  0.1217 -1.2962 -0.0688
  240MOL0     C31576   6.223   6.163   6.664 -1.3393  0.1548  0.0606
  240MOL0     C31577   6.337   6.243   6.712  0.2589 -0.0382 -1.0548
  240MOL0     O31578   6.390   6.338   6.636 -0.3094  0.8852  0.2268
  240MOL0     C31579   6.499   6.408   6.688  0.0399  0.3379  0.1760
  240MOL0     C31580   6.608   6.353   6.750 -0.1921  0.1515  0.4694
  240MOL0     C31581   6.714   6.420   6.812  0.2185  0.2443 -0.0037
  240MOL0     C31582   6.719   6.557   6.817  0.7565 -1.1849  0.7212
  240MOL0     O31583   6.827   6.631   6.850  0.1399  0.1750 -0.3250
  240MOL0     C31584   6.923   6.621   6.748 -0.6134 -1.3213  0.1838
  240MOL0     C31585   7.061   6.661   6.793  0.2752 -0.1839  0.1915
  240MOL0     C31586   7.161   6.648   6.687 -0.0129 -0.1925 -0.3698
  240MOL0     C31587   7.293   6.721   6.707  0.0797  0.0799 -0.4196
  240MOL0     C31588   7.405   6.671   6.605 -1.0034 -0.2588  0.1197
  240MOL0     C31589   7.445   6.522   6.612  0.3300  0.4500 -0.0997
  240MOL0     C31590   7.533   6.488   6.491  0.6452 -0.0211 -0.4191
  240MOL0     C31591   7.587   6.342   6.481 -0.3140 -1.2580  0.2378
  240MOL0    Cl31592   7.454   6.229   6.479 -0.3065  0.3942  0.2482
  240MOL0     C31593   6.611   6.621   6.745  1.0963  0.1129 -0.8359
  240MOL0     C31594   6.510   6.548   6.681 -0.1206 -0.1309 -0.6996
  240MOL0     O31595   6.378   6.206   6.823 -0.1161 -0.1691 -0.1034
  240MOL0     C31596   6.172   6.204   6.540  0.2453  0.5769 -0.4875
  240MOL0     C31597   6.046   6.152   6.507  1.0501 -0.0654  0.5825
  240MOL0     N31598   5.675   5.849   5.958 -0.1013 -0.3582  1.4277
  240MOL0     N31599   5.714   5.893   5.845 -0.5880 -0.6141  0.4020
  240MOL0     C31600   6.720   6.080   5.515  0.2906  0.0661 -0.4161
  240MOL0     C31601   6.827   6.163   5.545 -0.5799 -0.5917 -0.2681
  240MOL0     C31602   7.061   6.549   5.704  0.2947  0.3122 -0.0158
  240MOL0     C31603   7.065   6.693   5.709  0.5966 -0.0206  0.1106
  240MOL0     C31604   7.184   6.766   5.743  1.1446 -0.3650  0.2223
  240MOL0     C31605   7.303   6.694   5.749 -0.5830 -1.3281  0.6538
  240MOL0     O31606   7.428   6.753   5.764 -0.4735 -0.6691  0.5174
  240MOL0     C31607   7.445   6.886   5.833  0.9938  0.2279  0.2903
  240MOL0     C31608   7.568   6.886   5.916 -0.6051  0.6791 -0.0342
  240MOL0     C31609   7.694   6.831   5.850 -0.2522 -0.4237 -0.3455
  240MOL0     C31610   7.805   6.812   5.960  0.6197  1.0110 -0.0818
  240MOL0     C31611   7.751   6.713   6.063 -0.2502 -1.3032  0.5940
  240MOL0     C31612   7.737   6.648   6.166 -0.3781  0.2332  0.1904
  240MOL0     C31613   7.305   6.553   5.725 -0.1151 -0.3405 -0.2124
  240MOL0     C31614   7.189   6.488   5.715 -0.2334  0.0776  0.5667
  240MOL0     H31615   6.737   6.301   5.842  0.6869 -2.8450  1.1758
  240MOL0     H31616   6.522   6.181   5.776 -1.7283 -1.3106 -1.8785
  240MOL0     H31617   6.406   5.928   5.723 -1.8469  2.9830 -3.8793
  240MOL0     H31618   6.555   5.822   5.702  0.2246 -3.1843 -3.4110
  240MOL0     H31619   6.378   5.702   5.640  5.0977 -0.1597  0.8289
  240MOL0     H31620   6.462   5.739   5.496  4.1225  1.5490  1.8968
  240MOL0     H31621   6.252   5.784   5.425 -1.8656  0.1519  0.8833
  240MOL0     H31622   6.308   5.944   5.469  2.1690  0.8467  2.7499
  240MOL0     H31623   6.157   5.760   5.667  0.1942  0.7782  0.1091
  240MOL0     H31624   6.213   5.922   5.703 -1.2833 -1.1004  2.2846
  240MOL0     H31625   6.000   5.844   5.516 -0.9016  0.7401 -1.5361
  240MOL0     H31626   6.073   6.003   5.505  0.2434  1.3118  1.2590
  240MOL0     H31627   6.009   6.062   5.724 -1.6207  1.2037 -0.7922
  240MOL0     H31628   5.944   5.905   5.766  0.1680  0.7799  1.5811
  240MOL0     H31629   5.856   6.109   5.549  0.4786 -0.0228  0.0788
  240MOL0     H31630   5.765   5.956   5.599  0.0083  0.9356  0.0506
  240MOL0     H31631   5.642   6.140   5.703 -1.6304  0.0424  3.0816
  240MOL0     H31632   5.786   6.219   5.765 -3.1486  0.8015 -1.2521
  240MOL0     H31633   5.696   6.172   6.020 -1.0206  0.1195 -0.2220
  240MOL0     H31634   5.573   5.844   6.195 -0.3214 -0.2564 -0.7281
  240MOL0     H31635   5.514   6.009   6.192  0.0199 -0.3699  0.4060
  240MOL0     H31636   5.736   6.097   6.295  5.7436 -0.7981  2.9936
  240MOL0     H31637   5.786   5.922   6.292  0.0628  0.1001 -0.1845
  240MOL0     H31638   5.550   6.025   6.440 -1.9756 -2.4267 -1.5489
  240MOL0     H31639   5.638   5.873   6.463 -1.5543  0.9753  4.4594
  240MOL0     H31640   5.702   6.067   6.634  0.5264 -1.4019  0.9022
  240MOL0     H31641   5.773   6.153   6.492  2.4460 -1.4436 -1.4781
  240MOL0     H31642   6.000   5.926   6.751 -2.3612 -0.2653 -2.4174
  240MOL0     H31643   6.206   6.027   6.826 -0.8052 -2.7007 -0.1249
  240MOL0     H31644   6.605   6.245   6.748 -3.4553 -0.0163 -4.7114
  240MOL0     H31645   6.801   6.362   6.839  0.2115  0.9457  1.6160
  240MOL0     H31646   6.896   6.690   6.667  2.2409 -2.1046 -1.5754
  240MOL0     H31647   6.926   6.518   6.712  1.1403 -0.7526 -1.4600
  240MOL0     H31648   7.089   6.593   6.874  3.3104 -2.2834 -2.3512
  240MOL0     H31649   7.045   6.763   6.826 -5.1938 -0.5133 -0.6065
  240MOL0     H31650   7.123   6.688   6.592  0.4311 -0.1614 -0.5365
  240MOL0     H31651   7.176   6.542   6.667 -1.4602 -0.2411 -1.4190
  240MOL0     H31652   7.266   6.824   6.680 -1.8369 -0.1433  0.4893
  240MOL0     H31653   7.340   6.731   6.806  0.8545  0.6574 -0.8258
  240MOL0     H31654   7.489   6.741   6.617  0.1938 -1.1247 -2.5418
  240MOL0     H31655   7.359   6.691   6.508  0.4431 -1.2376 -0.7954
  240MOL0     H31656   7.361   6.452   6.609 -0.7967  1.8084 -1.0642
  240MOL0     H31657   7.496   6.511   6.708 -0.0296  2.1934  0.3234
  240MOL0     H31658   7.481   6.537   6.409 -0.8138  1.7444  1.4329
  240MOL0     H31659   7.627   6.543   6.498 -0.1408  1.9770 -3.6754
  240MOL0     H31660   7.655   6.311   6.562  2.0529  0.5894 -0.9005
  240MOL0     H31661   7.644   6.340   6.387 -0.6581 -0.2478 -0.0065
  240MOL0     H31662   6.609   6.730   6.736 -1.1050  0.0942 -1.1832
  240MOL0     H31663   6.438   6.597   6.616 -1.4822 -2.4479 -1.0818
  240MOL0     H31664   6.208   6.282   6.475  0.1249  1.8847  0.9549
  240MOL0     H31665   5.997   6.189   6.417 -0.2738 -1.2626  0.7674
  240MOL0     H31666   6.727   6.015   5.429 -1.1569  0.0114 -0.5252
  240MOL0     H31667   6.913   6.145   5.482  0.1207  0.8191  0.2585
  240MOL0     H31668   6.978   6.756   5.701 -0.4388 -0.9974  2.6893
  240MOL0     H31669   7.176   6.874   5.746 -2.3313 -0.4179 -2.1965
  240MOL0     H31670   7.360   6.924   5.890  1.9076 -0.4938  2.2197
  240MOL0     H31671   7.469   6.959   5.754  2.6572 -0.6409 -0.0646
  240MOL0     H31672   7.594   6.985   5.955 -2.2434  0.9028  0.5608
  240MOL0     H31673   7.536   6.828   6.002 -0.1575 -1.2172 -1.1005
  240MOL0     H31674   7.739   6.895   5.773 -0.7553 -1.9139 -1.9651
  240MOL0     H31675   7.670   6.738   5.797 -3.8140  1.5779 -2.6132
  240MOL0     H31676   7.896   6.774   5.914 -0.7633 -0.1709 -2.0154
  240MOL0     H31677   7.820   6.912   6.002  0.4935  2.4348 -3.1120
  240MOL0     H31678   7.721   6.592   6.257  3.3410  0.5426  1.1798
  240MOL0     H31679   7.395   6.493   5.734  1.0011  1.1908 -0.6967
  240MOL0     H31680   7.202   6.381   5.720 -0.6205  0.0922  2.6529
  241MOL0     O31681   5.726   7.678   3.289  0.2775  0.4553 -0.1994
  241MOL0     C31682   5.773   7.645   3.402  0.1920  0.7232 -0.3291
  241MOL0     O31683   5.741   7.526   3.465  0.3248 -0.2151 -0.7238
  241MOL0     C31684   5.658   7.441   3.391  0.4534  0.1191 -0.0069
  241MOL0     C31685   5.691   7.388   3.259  0.6982 -0.9854 -0.3251
  241MOL0     C31686   5.593   7.317   3.183 -1.6361 -0.5609 -0.4209
  241MOL0     C31687   5.467   7.286   3.239 -0.0267  0.1083  2.0280
  241MOL0     O31688   5.379   7.221   3.159  0.1460  0.7342 -0.2896
  241MOL0     C31689   5.296   7.300   3.075 -0.3828  0.3527 -0.6358
  241MOL0     C31690   5.177   7.210   3.039  0.9789  0.6022 -0.6819
  241MOL0     C31691   5.071   7.211   3.153 -0.7781  0.2784  0.3541
  241MOL0     C31692   4.958   7.108   3.133 -1.2376 -0.0041 -0.3089
  241MOL0     C31693   4.879   7.140   3.013 -1.0820 -0.0769  0.9551
  241MOL0     C31694   4.780   7.031   2.973 -0.0622 -0.1614  0.2794
  241MOL0     C31695   4.699   7.064   2.845  0.0584  0.0596 -0.3599
  241MOL0     C31696   4.621   6.944   2.799 -0.1588 -0.2243 -0.1256
  241MOL0     N31697   4.541   6.884   2.908  0.1614 -0.9127 -0.3578
  241MOL0     C31698   4.443   6.952   2.968 -0.3330  0.0860 -0.2619
  241MOL0     C31699   4.390   6.856   3.050  0.6132 -0.0299  0.8574
  241MOL0     C31700   4.256   6.884   3.116 -0.4513 -0.2291  0.3556
  241MOL0     C31701   4.257   6.984   3.232 -0.7618  0.2461  0.3611
  241MOL0     C31702   4.115   7.029   3.280 -0.7069  0.2232 -0.0160
  241MOL0     C31703   4.117   7.125   3.400 -0.0483 -0.2714 -0.1485
  241MOL0     O31704   4.178   7.049   3.513  0.9607  0.5030  0.3039
  241MOL0     C31705   4.208   7.124   3.624  0.4008  0.6929  1.1482
  241MOL0     C31706   4.197   7.068   3.745 -1.1733  0.4140 -0.4157
  241MOL0     C31707   4.224   7.146   3.859  0.1599  0.7707  0.1634
  241MOL0     C31708   4.280   7.270   3.863  0.5789 -1.1208  0.1984
  241MOL0     C31709   4.306   7.341   3.989 -0.4229 -0.8537  0.0302
  241MOL0     O31710   4.364   7.455   3.988  0.3032 -0.7450 -0.1723
  241MOL0     C31711   4.346   7.537   4.097 -0.6079  0.1782 -0.2566
  241MOL0     C31712   4.274   7.656   4.085 -0.9168 -0.9912  0.2597
  241MOL0     C31713   4.262   7.737   4.197 -0.5753 -0.2190 -0.3049
  241MOL0     C31714   4.302   7.698   4.329  0.9388  0.8744  0.4544
  241MOL0     O31715   4.262   7.780   4.437 -0.7311  0.0045  0.0510
  241MOL0     C31716   4.276   7.724   4.568 -0.6683 -0.3727  0.1003
  241MOL0     C31717   4.248   7.840   4.664  0.4926  0.5547 -0.2640
  241MOL0     C31718   4.375   7.925   4.686 -0.3016 -0.1451  0.7926
  241MOL0     C31719   4.371   8.003   4.831  0.1959  1.4315 -0.0702
  241MOL0     C31720   4.263   8.115   4.834  0.6318  0.9252  0.5312
  241MOL0     C31721   4.261   8.209   4.959 -0.1938 -0.6937  0.0887
  241MOL0     C31722   4.393   8.289   4.959  0.3667  0.4520 -0.9386
  241MOL0     C31723   4.393   8.440   4.995  0.2679  0.3472 -0.0125
  241MOL0    Cl31724   4.568   8.483   5.010  0.4633 -0.0225 -0.0322
  241MOL0     C31725   4.369   7.583   4.335  0.1429  0.4467  0.4738
  241MOL0     C31726   4.397   7.501   4.218 -0.1636 -0.4942 -0.8247
  241MOL0     O31727   4.239   7.299   4.081  0.7361  0.2889 -0.4665
  241MOL0     C31728   4.305   7.332   3.728 -0.2288  0.3674  0.5278
  241MOL0     C31729   4.266   7.254   3.612 -0.2538  0.1482 -0.0972
  241MOL0     N31730   4.463   6.733   3.046  0.9407  0.3127  0.5771
  241MOL0     N31731   4.555   6.761   2.959  0.5521  0.0306 -0.1389
  241MOL0     C31732   5.442   7.321   3.359 -0.0485 -0.7802 -0.4633
  241MOL0     C31733   5.530   7.398   3.437  1.7479  0.2141  0.4582
  241MOL0     C31734   5.844   7.742   3.484 -0.1007 -0.1192 -0.7044
  241MOL0     C31735   5.823   7.745   3.623 -0.2298  0.8236 -0.2142
  241MOL0     C31736   5.892   7.832   3.700  0.1728 -0.2549 -0.3063
  241MOL0     C31737   5.983   7.923   3.640  0.6784 -0.3581 -0.0904
  241MOL0     O31738   6.048   8.019   3.708 -0.3839 -0.0827 -0.7073
  241MOL0     C31739   5.974   8.083   3.817 -0.0901 -1.3256 -0.5986
  241MOL0     C31740   6.012   8.237   3.821  0.9341 -0.7985  0.2160
  241MOL0     C31741   6.158   8.247   3.846 -0.2208 -0.0914 -0.4885
  241MOL0     C31742   6.185   8.372   3.927  0.0421  0.1979 -0.8347
  241MOL0     C31743   6.334   8.384   3.956  0.6432 -0.1726 -0.0245
  241MOL0     C31744   6.451   8.366   3.980  0.1052  0.0690 -0.9072
  241MOL0     C31745   6.011   7.921   3.506 -0.1284 -0.5156 -0.4811
  241MOL0     C31746   5.947   7.823   3.434  0.8493 -0.8080  0.4516
  241MOL0     H31747   5.791   7.406   3.221  0.2314  3.7318  0.1150
  241MOL0     H31748   5.635   7.290   3.086 -0.6038 -0.1375 -0.1025
  241MOL0     H31749   5.355   7.320   2.985 -0.6890 -0.6086 -1.0669
  241MOL0     H31750   5.262   7.396   3.114  1.8047  0.4836  1.1772
  241MOL0     H31751   5.216   7.109   3.022 -0.1789 -0.5550  2.8612
  241MOL0     H31752   5.123   7.250   2.953 -3.3466 -2.7986  0.0994
  241MOL0     H31753   5.032   7.313   3.154  0.5047  0.8342 -1.1507
  241MOL0     H31754   5.124   7.193   3.247 -1.4721 -0.0820  0.6844
  241MOL0     H31755   5.000   7.008   3.130 -2.2579 -0.4789  0.5430
  241MOL0     H31756   4.902   7.112   3.227 -1.6077 -1.0828 -0.4657
  241MOL0     H31757   4.952   7.126   2.933  1.4709 -1.7743  3.4029
  241MOL0     H31758   4.839   7.241   3.032  0.5204 -0.0110  5.0741
  241MOL0     H31759   4.712   7.025   3.058  0.5147  0.9166  0.8433
  241MOL0     H31760   4.823   6.931   2.966 -2.0963 -1.4289  3.7085
  241MOL0     H31761   4.632   7.146   2.872  1.4521  1.6317 -1.4736
  241MOL0     H31762   4.774   7.084   2.767 -0.4266 -3.8019 -2.0450
  241MOL0     H31763   4.703   6.885   2.758  0.5489  1.5857 -1.4802
  241MOL0     H31764   4.549   6.965   2.719  0.3258 -1.5590 -0.9469
  241MOL0     H31765   4.403   7.053   2.961 -5.5332 -1.6237  0.0115
  241MOL0     H31766   4.209   6.789   3.143  1.7148 -1.1361  1.1819
  241MOL0     H31767   4.186   6.923   3.041 -1.5210 -1.4199  0.6936
  241MOL0     H31768   4.314   7.068   3.191 -0.8823  1.3588  2.3697
  241MOL0     H31769   4.316   6.943   3.314  1.8929 -2.9775 -2.7768
  241MOL0     H31770   4.063   7.084   3.201 -0.7164  2.0648  1.1992
  241MOL0     H31771   4.053   6.940   3.298 -0.9259  0.7098  1.8537
  241MOL0     H31772   4.020   7.171   3.421  0.6168  0.9310  0.3814
  241MOL0     H31773   4.184   7.210   3.384  1.0853 -0.2566  3.6688
  241MOL0     H31774   4.147   6.974   3.767 -1.9250  0.4486 -1.8309
  241MOL0     H31775   4.215   7.105   3.959  3.0482  2.3398  1.1999
  241MOL0     H31776   4.236   7.691   3.990 -2.7011 -0.4097  1.1352
  241MOL0     H31777   4.202   7.826   4.186 -0.1379  0.2397  0.9097
  241MOL0     H31778   4.378   7.690   4.588 -1.3917 -2.6585  0.1913
  241MOL0     H31779   4.215   7.636   4.592  1.9481 -1.6766  2.5438
  241MOL0     H31780   4.211   7.799   4.758  0.3313  0.1164 -0.5157
  241MOL0     H31781   4.168   7.897   4.617 -1.5207 -0.8882  1.2132
  241MOL0     H31782   4.369   8.002   4.609 -1.2016  0.1139  1.1130
  241MOL0     H31783   4.463   7.863   4.665  0.1615  0.1668  1.7405
  241MOL0     H31784   4.356   7.926   4.907  2.5589  1.8243  0.8638
  241MOL0     H31785   4.467   8.049   4.854  1.9690 -2.0381 -0.0480
  241MOL0     H31786   4.171   8.057   4.843  1.7986 -0.8754  1.4538
  241MOL0     H31787   4.262   8.166   4.738 -2.9441 -0.8468 -0.5346
  241MOL0     H31788   4.244   8.160   5.055 -0.7787 -2.5407 -0.9013
  241MOL0     H31789   4.179   8.277   4.936  0.8128  0.8203  0.8461
  241MOL0     H31790   4.450   8.242   5.040 -0.4404  3.4659  1.5479
  241MOL0     H31791   4.448   8.283   4.864 -0.6802  1.2084 -1.6064
  241MOL0     H31792   4.339   8.463   5.087 -1.7416 -1.8079 -0.5535
  241MOL0     H31793   4.349   8.500   4.915  1.5222  0.1230 -0.9127
  241MOL0     H31794   4.392   7.539   4.432  0.9626 -0.9619 -0.3268
  241MOL0     H31795   4.451   7.407   4.227 -3.1687 -2.1840  1.8966
  241MOL0     H31796   4.345   7.432   3.716  0.6730  0.1870  1.7470
  241MOL0     H31797   4.291   7.306   3.520  0.5737 -2.6610 -1.5782
  241MOL0     H31798   5.345   7.287   3.396 -0.6859  0.4005 -0.9681
  241MOL0     H31799   5.495   7.428   3.535  3.0038  2.8946  0.1913
  241MOL0     H31800   5.754   7.673   3.668  0.2356  0.2564 -0.3915
  241MOL0     H31801   5.860   7.832   3.804  0.0090 -0.6510 -0.3548
  241MOL0     H31802   5.993   8.012   3.897 -1.7165 -4.2238 -2.5989
  241MOL0     H31803   5.867   8.089   3.795 -1.1217 -0.1105  3.7279
  241MOL0     H31804   5.979   8.270   3.722 -1.5138  3.5976  2.1932
  241MOL0     H31805   5.949   8.278   3.901  0.7982  0.2262 -0.3984
  241MOL0     H31806   6.203   8.260   3.747  0.0477  3.5090 -0.0459
  241MOL0     H31807   6.204   8.157   3.889  0.4234  0.0255 -0.9194
  241MOL0     H31808   6.145   8.450   3.863 -0.7859  0.8984  0.5083
  241MOL0     H31809   6.141   8.366   4.027  4.5577 -0.6121  1.3743
  241MOL0     H31810   6.558   8.362   3.982  0.1494  0.5576  2.1600
  241MOL0     H31811   6.081   7.996   3.471 -0.8682  0.5914  0.3446
  241MOL0     H31812   5.957   7.807   3.327 -0.0825  1.4873 -0.0441
  242MOL0     O31813   4.730   0.395   5.996  0.0577  0.0685 -0.7716
  242MOL0     C31814   4.802   0.328   6.070  0.1973 -0.0005 -0.3511
  242MOL0     O31815   4.795   0.325   6.204  0.3840 -0.0202 -0.0555
  242MOL0     C31816   4.704   0.396   6.275  0.1604 -0.1658  0.5853
  242MOL0     C31817   4.566   0.395   6.251 -0.3521 -0.1364 -0.5856
  242MOL0     C31818   4.483   0.485   6.321 -0.9248 -0.1030  0.5233
  242MOL0     C31819   4.536   0.572   6.421  0.3505  0.6669  0.1099
  242MOL0     O31820   4.451   0.673   6.468  0.2107  0.2215  0.4453
  242MOL0     C31821   4.427   0.659   6.605 -0.3061 -0.0259 -0.3586
  242MOL0     C31822   4.309   0.749   6.641  0.3991 -0.3799  0.2807
  242MOL0     C31823   4.246   0.707   6.775  1.0384  1.1446  1.3414
  242MOL0     C31824   4.149   0.808   6.837  0.6874  0.6704  0.1113
  242MOL0     C31825   4.084   0.750   6.969 -0.0408 -0.7346 -0.0920
  242MOL0     C31826   4.002   0.863   7.037 -0.8128 -0.4513  0.4695
  242MOL0     C31827   3.874   0.906   6.961  0.4351  0.0335 -1.1797
  242MOL0     C31828   3.764   0.965   7.048 -0.2025 -0.6507 -0.0848
  242MOL0     N31829   3.802   1.101   7.101 -0.5110  0.9957  0.6514
  242MOL0     C31830   3.874   1.195   7.053  0.4520  0.1528 -0.9070
  242MOL0     C31831   3.883   1.297   7.142  0.3467  0.2238  0.0494
  242MOL0     C31832   3.938   1.438   7.122  0.2206  0.2756 -1.1004
  242MOL0     C31833   4.048   1.484   7.219  0.9154 -0.3715  0.3102
  242MOL0     C31834   3.986   1.516   7.363 -0.4085 -0.5636 -0.2794
  242MOL0     C31835   4.069   1.618   7.447 -0.0462  0.4250  0.1171
  242MOL0     O31836   4.171   1.537   7.507 -0.8292  0.3363  0.3182
  242MOL0     C31837   4.283   1.612   7.551 -0.5227  0.0793 -0.1196
  242MOL0     C31838   4.292   1.749   7.595 -0.0911  0.2699 -0.1663
  242MOL0     C31839   4.404   1.818   7.635 -1.0810  0.6465 -0.0038
  242MOL0     C31840   4.534   1.746   7.626 -0.3269  0.2627  0.5269
  242MOL0     C31841   4.651   1.815   7.667  1.2007  0.3241 -0.0393
  242MOL0     O31842   4.774   1.758   7.637 -0.4809 -0.0633  0.2610
  242MOL0     C31843   4.879   1.825   7.686  0.0358  0.1594 -0.1040
  242MOL0     C31844   4.941   1.926   7.609 -0.2010  0.4411  0.0300
  242MOL0     C31845   5.059   1.986   7.640 -0.9507  0.0240 -0.0306
  242MOL0     C31846   5.129   1.940   7.757  0.3784  0.0512  0.8304
  242MOL0     O31847   5.236   1.998   7.803  0.2380 -0.2437 -0.3344
  242MOL0     C31848   5.297   2.110   7.735 -0.7813 -0.2266  0.1344
  242MOL0     C31849   5.428   2.125   7.788  0.0737 -0.4268  0.3019
  242MOL0     C31850   5.508   2.005   7.745  0.7400  0.7120 -0.4873
  242MOL0     C31851   5.657   2.010   7.777 -0.1149 -0.4163  1.0189
  242MOL0     C31852   5.743   1.921   7.679  0.6464  0.7637  0.3133
  242MOL0     C31853   5.888   1.918   7.728 -0.1654  0.0087  0.1173
  242MOL0     C31854   5.968   1.835   7.626  0.3405  0.3399  0.2159
  242MOL0     C31855   6.120   1.855   7.636  0.2583 -0.0690 -0.1823
  242MOL0    Cl31856   6.162   1.797   7.807  0.2808 -0.7711 -0.0658
  242MOL0     C31857   5.062   1.851   7.844 -1.1254 -0.2549  0.5442
  242MOL0     C31858   4.945   1.786   7.808  0.6134 -0.3205 -0.0724
  242MOL0     O31859   4.638   1.920   7.725 -0.3259 -0.8399  0.1184
  242MOL0     C31860   4.532   1.616   7.558 -0.0876  0.6756  0.4674
  242MOL0     C31861   4.410   1.548   7.532  0.1629  0.3616 -0.2055
  242MOL0     N31862   3.816   1.247   7.254 -0.5773 -0.2408  0.0543
  242MOL0     N31863   3.763   1.138   7.235  0.4511  0.0514 -0.0365
  242MOL0     C31864   4.676   0.579   6.427 -0.5182  0.5673 -0.0522
  242MOL0     C31865   4.760   0.486   6.359 -0.4404 -0.6350 -0.2409
  242MOL0     C31866   4.918   0.249   6.006 -0.6536  1.2134  0.7519
  242MOL0     C31867   4.916   0.232   5.868  0.1157 -0.3700 -0.8725
  242MOL0     C31868   4.998   0.153   5.805 -0.7213 -0.2579 -0.1113
  242MOL0     C31869   5.106   0.087   5.876  0.4053  0.8340 -0.3014
  242MOL0     O31870   5.211   0.010   5.825 -0.4196  0.0129  1.2324
  242MOL0     C31871   5.228  -0.000   5.682 -0.2480  0.4074 -0.7322
  242MOL0     C31872   5.363   0.061   5.642 -0.0642 -1.1081  0.1670
  242MOL0     C31873   5.378   0.056   5.494  0.3266  1.1382  0.4874
  242MOL0     C31874   5.500  -0.027   5.446  0.3933  0.4104  0.1061
  242MOL0     C31875   5.479  -0.166   5.447 -0.5682 -0.2229 -0.0925
  242MOL0     C31876   5.449  -0.277   5.441 -0.0471 -0.0748  0.1691
  242MOL0     C31877   5.105   0.090   6.013 -0.0839  0.0824 -0.8932
  242MOL0     C31878   5.014   0.170   6.079  0.7141 -0.1098 -0.5560
  242MOL0     H31879   4.532   0.318   6.182  0.8317  0.8887 -2.4021
  242MOL0     H31880   4.378   0.497   6.299  0.1659  2.3665 -5.0057
  242MOL0     H31881   4.524   0.686   6.650  1.1464 -2.0533 -2.0857
  242MOL0     H31882   4.404   0.555   6.629  1.2200 -1.0316 -2.8606
  242MOL0     H31883   4.235   0.753   6.560  0.2414  3.2817  0.4547
  242MOL0     H31884   4.340   0.853   6.653 -0.3904  0.0065 -0.8342
  242MOL0     H31885   4.327   0.695   6.848  0.6509  1.2414  1.7855
  242MOL0     H31886   4.194   0.611   6.765  0.3930  1.4810  1.4684
  242MOL0     H31887   4.215   0.893   6.858 -1.3463  2.4453 -0.3589
  242MOL0     H31888   4.075   0.837   6.762 -2.3250 -6.0466 -0.2334
  242MOL0     H31889   4.171   0.705   7.016 -0.5140 -0.4992  1.0369
  242MOL0     H31890   4.011   0.670   6.951  0.2228 -0.4462 -2.9868
  242MOL0     H31891   4.064   0.953   7.047 -3.0050  1.0878  0.9463
  242MOL0     H31892   3.972   0.817   7.131  0.9931  0.1663  1.3856
  242MOL0     H31893   3.911   0.968   6.878 -0.7044  0.4448 -1.3983
  242MOL0     H31894   3.834   0.811   6.924  0.7070 -1.1994  1.5319
  242MOL0     H31895   3.741   0.903   7.135 -1.4525 -1.6184 -1.0587
  242MOL0     H31896   3.670   0.987   6.996  0.3140  1.4239 -0.2111
  242MOL0     H31897   3.916   1.195   6.952  2.0289  1.2632 -0.2959
  242MOL0     H31898   3.844   1.486   7.150 -0.7999 -2.5943  0.7610
  242MOL0     H31899   3.960   1.476   7.022 -1.7610  1.0066 -1.2992
  242MOL0     H31900   4.082   1.584   7.192 -0.2076  0.4556  1.7779
  242MOL0     H31901   4.128   1.409   7.224  0.3766 -0.8933  1.9276
  242MOL0     H31902   3.894   1.571   7.341 -0.6970  0.2216  2.5673
  242MOL0     H31903   3.961   1.422   7.413 -2.0790 -0.4590 -0.8334
  242MOL0     H31904   4.005   1.658   7.527 -0.3715 -0.3168  0.2373
  242MOL0     H31905   4.095   1.695   7.374 -3.5940 -1.7109 -3.8763
  242MOL0     H31906   4.196   1.799   7.604 -0.6854 -1.1310  2.1117
  242MOL0     H31907   4.394   1.915   7.682  0.6770  0.9854 -0.2706
  242MOL0     H31908   4.895   1.966   7.519  3.5240  1.2117 -1.7467
  242MOL0     H31909   5.102   2.069   7.586  1.2660 -1.2226 -0.3021
  242MOL0     H31910   5.231   2.193   7.763  0.0370  1.4044 -2.3906
  242MOL0     H31911   5.301   2.085   7.628 -0.4183  0.9929 -0.1526
  242MOL0     H31912   5.428   2.149   7.895 -3.4969 -0.6641  0.4586
  242MOL0     H31913   5.476   2.205   7.731 -3.6452  0.7901 -1.4352
  242MOL0     H31914   5.499   1.992   7.637  0.5331 -2.1538 -0.2211
  242MOL0     H31915   5.472   1.915   7.797 -4.3844  1.8719 -1.4466
  242MOL0     H31916   5.689   2.111   7.748 -0.5114 -1.0919 -2.2465
  242MOL0     H31917   5.676   1.981   7.880  0.1023  1.2534  1.4753
  242MOL0     H31918   5.746   1.955   7.576  1.0447 -1.9625 -0.6478
  242MOL0     H31919   5.702   1.820   7.666 -1.4005  1.6777 -0.7308
  242MOL0     H31920   5.891   1.860   7.821 -1.7517 -0.3955 -0.0508
  242MOL0     H31921   5.910   2.024   7.741 -2.7149  0.6686 -0.2762
  242MOL0     H31922   5.948   1.728   7.637  2.3708 -0.0811  0.2098
  242MOL0     H31923   5.934   1.847   7.523  0.0823 -2.3989 -0.0978
  242MOL0     H31924   6.154   1.956   7.612  1.8026 -0.7686 -1.0755
  242MOL0     H31925   6.162   1.788   7.561 -2.1962 -1.0825 -0.7458
  242MOL0     H31926   5.111   1.840   7.941 -0.9906  1.5297  0.6998
  242MOL0     H31927   4.914   1.700   7.867  3.0135  0.4808  2.5546
  242MOL0     H31928   4.618   1.559   7.525 -1.3443  0.5531 -3.0057
  242MOL0     H31929   4.418   1.452   7.482  2.4264  0.0681  0.6214
  242MOL0     H31930   4.718   0.661   6.484 -1.7670  0.5746  0.8921
  242MOL0     H31931   4.866   0.492   6.380 -0.8029  3.6336  1.4930
  242MOL0     H31932   4.847   0.290   5.807  0.5498 -0.2192 -1.2273
  242MOL0     H31933   4.977   0.150   5.699  0.8697 -0.5992 -0.4341
  242MOL0     H31934   5.149   0.042   5.620 -0.4109  0.8785 -0.2160
  242MOL0     H31935   5.228  -0.106   5.654 -4.5114 -0.1341  0.5854
  242MOL0     H31936   5.346   0.168   5.657 -2.2770 -0.7115 -3.8867
  242MOL0     H31937   5.456   0.026   5.688  1.5649 -0.7271 -2.5904
  242MOL0     H31938   5.390   0.150   5.438 -0.4447  0.1482 -1.4264
  242MOL0     H31939   5.292   0.010   5.445  1.0228  1.1861 -0.8168
  242MOL0     H31940   5.516  -0.005   5.340 -2.5274  2.3571 -0.0607
  242MOL0     H31941   5.584   0.015   5.502 -0.9447  2.2436  0.8527
  242MOL0     H31942   5.431  -0.383   5.433  0.8798 -0.2008 -0.4846
  242MOL0     H31943   5.181   0.041   6.073 -2.5489  1.8777  4.3971
  242MOL0     H31944   5.006   0.172   6.187  1.3630  0.2669 -0.5087
  243MOL0     O31945   7.008   4.022   2.357  0.1978  0.1887  0.5345
  243MOL0     C31946   7.106   4.055   2.290 -0.1576  0.2207 -0.8994
  243MOL0     O31947   7.212   4.124   2.334 -0.0888 -0.4303 -0.6852
  243MOL0     C31948   7.237   4.135   2.472 -0.9398 -0.5637 -0.1739
  243MOL0     C31949   7.252   4.256   2.545  0.0191  0.7860 -0.6920
  243MOL0     C31950   7.261   4.259   2.683  0.4592  0.1968  0.4961
  243MOL0     C31951   7.244   4.146   2.760 -0.0736  0.3332 -0.8020
  243MOL0     O31952   7.252   4.165   2.900  0.2734  1.2204 -0.4364
  243MOL0     C31953   7.186   4.063   2.974 -0.3046  0.1918 -0.0834
  243MOL0     C31954   7.189   4.094   3.119 -0.4315  0.6223 -1.0206
  243MOL0     C31955   7.139   3.980   3.210 -0.4917 -1.3530  0.1062
  243MOL0     C31956   6.989   3.961   3.182  0.1644 -0.7703  0.5414
  243MOL0     C31957   6.941   3.824   3.239  0.3801 -0.2636  0.3098
  243MOL0     C31958   6.949   3.796   3.389 -0.3483 -0.8656  0.0045
  243MOL0     C31959   6.850   3.887   3.459 -0.6119  0.2169 -0.2561
  243MOL0     C31960   6.879   3.888   3.612  0.0848  0.9150  0.0828
  243MOL0     N31961   6.762   3.956   3.678  0.9013  0.0010 -0.3578
  243MOL0     C31962   6.708   4.078   3.650 -0.5084 -0.7229  0.2598
  243MOL0     C31963   6.590   4.086   3.717  0.2922 -0.1322  0.5566
  243MOL0     C31964   6.492   4.203   3.690  0.5011 -0.4463 -0.6419
  243MOL0     C31965   6.419   4.266   3.804  0.5700 -0.1382  0.0775
  243MOL0     C31966   6.519   4.317   3.913  0.2551 -1.1158  0.3935
  243MOL0     C31967   6.599   4.435   3.892 -0.1332  0.4302 -0.2745
  243MOL0     O31968   6.716   4.390   3.828  0.4904 -0.1722 -0.3124
  243MOL0     C31969   6.821   4.474   3.844  0.3218  0.7912 -0.2846
  243MOL0     C31970   6.817   4.611   3.810  0.3318  0.4134  0.6756
  243MOL0     C31971   6.929   4.695   3.820 -0.0935  0.5790  0.2419
  243MOL0     C31972   7.049   4.647   3.871 -0.2316  0.9057  0.9324
  243MOL0     C31973   7.170   4.730   3.895 -0.7540  0.6295 -0.1104
  243MOL0     O31974   7.290   4.651   3.900  0.5329 -0.0821 -0.4485
  243MOL0     C31975   7.404   4.716   3.946  0.1445  0.1984  0.1079
  243MOL0     C31976   7.431   4.853   3.969  0.4749  0.6857  0.0623
  243MOL0     C31977   7.558   4.892   4.013 -0.6123 -0.0694  0.1130
  243MOL0     C31978   7.662   4.801   4.036  0.6506  0.4519  0.2430
  243MOL0     O31979   7.787   4.838   4.053  0.2629  0.1219 -0.4023
  243MOL0     C31980   7.812   4.957   4.124  0.3697 -0.4587 -0.1131
  243MOL0     C31981   7.957   4.975   4.139  0.2918 -0.3433  0.1333
  243MOL0     C31982   8.030   4.975   4.007 -0.5025  0.4033  0.0827
  243MOL0     C31983   8.046   4.834   3.950 -0.7115  0.3845  0.5788
  243MOL0     C31984   8.181   4.798   3.873 -0.4043 -0.1666 -0.4464
  243MOL0     C31985   8.302   4.817   3.974  0.8017  0.5614  0.1504
  243MOL0     C31986   8.441   4.790   3.920  0.7177 -0.3817  0.1287
  243MOL0     C31987   8.458   4.640   3.883  0.2715  0.0923  0.5134
  243MOL0    Cl31988   8.606   4.604   3.794  0.0425 -0.3118 -0.1699
  243MOL0     C31989   7.637   4.668   4.013  0.1188 -0.8917  0.1490
  243MOL0     C31990   7.505   4.624   3.984  0.0235 -0.2339 -0.0949
  243MOL0     O31991   7.165   4.852   3.896  0.3542 -0.1606 -0.3752
  243MOL0     C31992   7.045   4.514   3.898  0.6103 -0.0568 -0.8672
  243MOL0     C31993   6.938   4.430   3.899  0.1683 -0.0214  0.6954
  243MOL0     N31994   6.559   3.968   3.778  0.8114 -0.2546  1.0050
  243MOL0     N31995   6.662   3.895   3.758  0.2190  0.5868 -1.3997
  243MOL0     C31996   7.256   4.022   2.691 -0.5014 -0.6430  0.0332
  243MOL0     C31997   7.244   4.020   2.556  1.0969  0.9991 -0.2161
  243MOL0     C31998   7.102   4.032   2.144 -0.4536  0.3189 -0.3792
  243MOL0     C31999   6.996   3.952   2.083 -0.2904 -0.8658  0.6832
  243MOL0     C32000   7.000   3.909   1.956 -0.7307 -0.2022 -0.5169
  243MOL0     C32001   7.111   3.930   1.877 -0.1999  0.0838 -0.6918
  243MOL0     O32002   7.128   3.874   1.765 -0.5216  0.6107  1.0635
  243MOL0     C32003   7.135   3.953   1.648 -0.0104 -0.7606 -0.7224
  243MOL0     C32004   7.215   3.897   1.540  0.0861  0.5291 -0.5926
  243MOL0     C32005   7.174   3.977   1.413  0.6373 -0.3930 -0.1125
  243MOL0     C32006   7.082   3.898   1.317  0.2987  0.2230 -0.3726
  243MOL0     C32007   7.153   3.776   1.259  0.9745  0.0783  0.5818
  243MOL0     C32008   7.200   3.666   1.222  0.0628 -1.0417 -0.6931
  243MOL0     C32009   7.217   4.006   1.934  0.1106  0.4274  1.3565
  243MOL0     C32010   7.214   4.059   2.064 -0.6711 -1.0839 -0.7035
  243MOL0     H32011   7.264   4.346   2.486 -1.9661  0.4538 -1.6824
  243MOL0     H32012   7.275   4.356   2.731  1.0002  0.2087  0.3257
  243MOL0     H32013   7.238   3.968   2.961 -1.7146 -0.5386 -0.5725
  243MOL0     H32014   7.080   4.054   2.948 -0.9550 -1.7141  2.7612
  243MOL0     H32015   7.142   4.192   3.129  1.5483  1.6061 -0.7265
  243MOL0     H32016   7.297   4.097   3.140 -0.6382 -3.0688  1.6478
  243MOL0     H32017   7.159   4.007   3.314 -1.2753 -2.8833  0.6977
  243MOL0     H32018   7.188   3.884   3.189  0.9609 -0.1449 -2.5932
  243MOL0     H32019   6.940   4.041   3.237  2.1779 -0.4005  1.8866
  243MOL0     H32020   6.960   3.962   3.077 -1.7123 -2.1690  0.9977
  243MOL0     H32021   6.988   3.736   3.194 -0.1348 -0.4583  0.1443
  243MOL0     H32022   6.835   3.823   3.212 -0.4897 -0.9277  3.3206
  243MOL0     H32023   7.051   3.814   3.425 -0.7448 -0.9182  1.2030
  243MOL0     H32024   6.937   3.694   3.425  4.6950 -0.6960  3.1404
  243MOL0     H32025   6.864   3.989   3.422 -0.4344  0.0741 -0.5822
  243MOL0     H32026   6.746   3.860   3.441 -0.5180 -0.3296  0.0170
  243MOL0     H32027   6.972   3.944   3.622  0.1682  0.6310  0.9920
  243MOL0     H32028   6.886   3.792   3.664 -0.7727  0.7515 -0.0900
  243MOL0     H32029   6.757   4.151   3.586 -1.5413 -0.6252 -0.4407
  243MOL0     H32030   6.407   4.174   3.627 -1.9736  4.4783 -0.0275
  243MOL0     H32031   6.541   4.282   3.634  0.6660  1.0304  1.4595
  243MOL0     H32032   6.364   4.190   3.859 -1.0282  2.8060  2.8682
  243MOL0     H32033   6.347   4.344   3.778  1.1687  0.8079  1.1545
  243MOL0     H32034   6.459   4.365   3.991  1.6527  0.6754  0.4343
  243MOL0     H32035   6.584   4.235   3.943  1.4980 -0.3944 -0.2411
  243MOL0     H32036   6.626   4.483   3.986 -2.3951  0.9854  0.1541
  243MOL0     H32037   6.535   4.506   3.840  0.2710  0.5524 -0.6043
  243MOL0     H32038   6.722   4.648   3.772  0.7570  1.5203  0.6765
  243MOL0     H32039   6.929   4.801   3.796 -3.8443  1.8028  4.2486
  243MOL0     H32040   7.360   4.935   3.964  0.9075  1.4363  3.6265
  243MOL0     H32041   7.552   4.999   4.026  0.9152  0.0306  0.2679
  243MOL0     H32042   7.768   4.942   4.224  3.0862 -3.0121  0.8553
  243MOL0     H32043   7.761   5.047   4.090 -0.9398 -1.0370  0.2511
  243MOL0     H32044   7.992   4.910   4.220 -0.5343  0.8133  1.4619
  243MOL0     H32045   7.973   5.074   4.184  1.6475 -0.6414  0.3538
  243MOL0     H32046   8.121   5.031   4.031  1.4573 -2.3642 -0.3285
  243MOL0     H32047   7.981   5.035   3.930 -2.3139 -0.3330  0.6312
  243MOL0     H32048   8.029   4.776   4.042  4.9055 -1.3627  0.8963
  243MOL0     H32049   7.972   4.804   3.876 -1.5627  1.6355  0.8749
  243MOL0     H32050   8.201   4.862   3.786 -2.2608 -0.2666 -0.9985
  243MOL0     H32051   8.175   4.698   3.830  0.5575  0.1382 -1.3402
  243MOL0     H32052   8.291   4.757   4.064  4.0264 -0.3354  0.0784
  243MOL0     H32053   8.301   4.916   4.019 -0.7079 -0.2176  1.9574
  243MOL0     H32054   8.458   4.842   3.826  0.5187 -1.4017 -0.4883
  243MOL0     H32055   8.520   4.818   3.991 -0.4691  0.9168  0.9985
  243MOL0     H32056   8.380   4.613   3.810 -0.0582  3.6063 -0.6408
  243MOL0     H32057   8.467   4.571   3.968  1.8344 -1.4122 -0.8003
  243MOL0     H32058   7.719   4.597   4.019 -0.0066 -0.9797  0.8127
  243MOL0     H32059   7.492   4.516   3.981  2.6589 -0.6315 -3.0572
  243MOL0     H32060   7.138   4.476   3.941  1.7957  2.1860 -1.3080
  243MOL0     H32061   6.941   4.324   3.918 -1.2261  0.0388  1.3368
  243MOL0     H32062   7.267   3.927   2.742 -0.1287 -0.4984  0.2269
  243MOL0     H32063   7.238   3.923   2.507  0.9629  1.2618 -0.7344
  243MOL0     H32064   6.907   3.924   2.139 -0.2115 -0.2796  1.1180
  243MOL0     H32065   6.929   3.835   1.921 -1.4081  1.2447 -2.3878
  243MOL0     H32066   7.169   4.056   1.661 -3.1951  1.2047 -5.0751
  243MOL0     H32067   7.029   3.954   1.619  0.1413 -1.3095 -1.3367
  243MOL0     H32068   7.323   3.894   1.558  0.1732  0.9178 -1.0426
  243MOL0     H32069   7.184   3.792   1.541  0.8264  0.2995 -0.9035
  243MOL0     H32070   7.259   4.010   1.352 -0.9381 -0.0222 -2.2515
  243MOL0     H32071   7.121   4.070   1.434  1.4686  0.4876 -1.6927
  243MOL0     H32072   6.991   3.863   1.367 -0.5807  2.0415 -0.6178
  243MOL0     H32073   7.049   3.958   1.232  1.1425  0.1616 -0.7513
  243MOL0     H32074   7.239   3.568   1.202 -1.8037 -1.5195 -2.3028
  243MOL0     H32075   7.315   4.013   1.886 -1.1869 -0.4214 -1.6098
  243MOL0     H32076   7.299   4.111   2.108 -1.3970  1.8062 -2.4676
  244MOL0     O32077   6.672   7.869   0.088  1.1285 -0.2728 -0.1195
  244MOL0     C32078   6.711   7.983   0.118  0.0836 -1.5814 -0.3029
  244MOL0     O32079   6.761   8.028   0.245  1.1149  0.0651 -0.1751
  244MOL0     C32080   6.794   7.940   0.342 -0.9430  1.0465  0.5122
  244MOL0     C32081   6.872   7.824   0.301 -0.4139  0.1251 -0.4331
  244MOL0     C32082   6.902   7.725   0.397  0.3526  0.0275 -0.3398
  244MOL0     C32083   6.860   7.745   0.536 -0.2504 -0.7163  0.3206
  244MOL0     O32084   6.876   7.646   0.628 -0.2776  0.2569 -0.7423
  244MOL0     C32085   6.940   7.683   0.753  0.0745  0.1911 -0.1098
  244MOL0     C32086   7.087   7.745   0.736  0.3842 -0.1516 -0.3316
  244MOL0     C32087   7.187   7.639   0.683 -0.3556 -0.0433  0.6880
  244MOL0     C32088   7.200   7.502   0.754 -0.2378  0.5365 -0.6447
  244MOL0     C32089   7.345   7.470   0.797  0.3628  0.3635  0.2662
  244MOL0     C32090   7.402   7.576   0.904  0.1260  0.0420  1.2480
  244MOL0     C32091   7.541   7.538   0.950 -0.3155  0.1425  0.4233
  244MOL0     C32092   7.650   7.570   0.847 -0.1231  0.2166  0.5278
  244MOL0     N32093   7.786   7.521   0.880 -0.0821 -0.0655  1.1516
  244MOL0     C32094   7.915   7.580   0.864  0.6408  0.1744  1.3171
  244MOL0     C32095   8.007   7.488   0.908  0.1545 -0.2897 -0.8216
  244MOL0     C32096   8.157   7.498   0.896 -0.7125  0.9352  0.3492
  244MOL0     C32097   8.218   7.642   0.866 -0.1561  0.2524 -0.3278
  244MOL0     C32098   8.375   7.642   0.878 -0.0785 -0.3889  0.4216
  244MOL0     C32099   8.424   7.765   0.801 -0.6842 -1.2193 -0.6789
  244MOL0     O32100   8.562   7.735   0.796 -0.3134 -0.0581 -0.1898
  244MOL0     C32101   8.640   7.838   0.736 -0.6706  0.2085 -0.3428
  244MOL0     C32102   8.782   7.836   0.732  0.3903  0.2912  0.1340
  244MOL0     C32103   8.853   7.932   0.671  0.5364  0.4391 -0.2077
  244MOL0     C32104   8.785   8.050   0.619 -0.1231  0.3537  0.1411
  244MOL0     C32105   8.867   8.153   0.559  0.1638 -1.0101 -0.3034
  244MOL0     O32106   8.991   8.125   0.529  0.6800  0.6548  0.1525
  244MOL0     C32107   9.078   8.230   0.512 -0.2953 -0.7965  0.8574
  244MOL0     C32108   9.070   8.300   0.392 -0.0006  0.5897 -0.2543
  244MOL0     C32109   9.148   8.410   0.366  0.0158  0.3001 -0.6098
  244MOL0     C32110   9.249   8.449   0.462  0.3073 -1.0022 -0.0994
  244MOL0     O32111   9.326   8.555   0.440 -0.9476 -0.0516 -0.1086
  244MOL0     C32112   9.344   8.656   0.544  0.3138  0.7275  0.7575
  244MOL0     C32113   9.479   8.720   0.526 -1.2254 -0.2371  0.1151
  244MOL0     C32114   9.519   8.795   0.645  0.3218  0.4024 -0.7199
  244MOL0     C32115   9.670   8.847   0.629  0.3508  0.5551 -0.2996
  244MOL0     C32116   9.710   8.936   0.744  0.2037 -0.5673  0.5779
  244MOL0     C32117   9.783   9.053   0.678 -0.0782  0.3164  0.2565
  244MOL0     C32118   9.691   9.160   0.609  0.0242  0.3018  0.7284
  244MOL0     C32119   9.761   9.251   0.510  0.2217  1.0777 -0.3888
  244MOL0    Cl32120   9.870   9.366   0.587 -0.2991  0.4835  0.3871
  244MOL0     C32121   9.263   8.369   0.582  0.0830 -0.2185  0.5902
  244MOL0     C32122   9.181   8.260   0.603 -0.1274  1.4136  0.0931
  244MOL0     O32123   8.810   8.258   0.541 -0.0449  0.1145  0.3666
  244MOL0     C32124   8.652   8.058   0.618  0.1709 -0.1261 -0.1966
  244MOL0     C32125   8.577   7.951   0.673 -0.0303 -0.2564  0.1013
  244MOL0     N32126   7.932   7.380   0.956 -0.1336 -0.4681 -0.0433
  244MOL0     N32127   7.810   7.398   0.935  0.5586  0.1784  0.4120
  244MOL0     C32128   6.768   7.855   0.566 -0.4779 -0.3515 -0.3963
  244MOL0     C32129   6.743   7.950   0.472  0.3110 -0.3211 -0.0546
  244MOL0     C32130   6.692   8.088   0.014 -0.3297  0.5848 -0.0769
  244MOL0     C32131   6.780   8.193  -0.027 -0.9165  0.4056 -0.2452
  244MOL0     C32132   6.756   8.279  -0.129 -0.2648  0.9874 -1.1633
  244MOL0     C32133   6.637   8.279  -0.199  0.0755  0.5427 -0.4117
  244MOL0     O32134   6.627   8.366  -0.310 -0.8245 -0.7785  0.1996
  244MOL0     C32135   6.568   8.319  -0.434 -0.6289 -0.8550  0.1281
  244MOL0     C32136   6.673   8.234  -0.517  0.2359 -0.2263 -0.5903
  244MOL0     C32137   6.639   8.217  -0.668  0.8740  0.5547 -0.5645
  244MOL0     C32138   6.726   8.105  -0.721 -0.0091  0.1042  0.5835
  244MOL0     C32139   6.667   8.055  -0.842  1.1933  0.4286 -0.0920
  244MOL0     C32140   6.605   8.018  -0.935 -0.5071 -1.0368  0.0264
  244MOL0     C32141   6.535   8.198  -0.134  0.4799  0.2074  0.9997
  244MOL0     C32142   6.564   8.092  -0.044 -0.0830 -0.6279 -0.2546
  244MOL0     H32143   6.900   7.818   0.197  2.7885  4.2088 -0.0785
  244MOL0     H32144   6.954   7.634   0.368  0.3648 -0.1828  0.3303
  244MOL0     H32145   6.942   7.591   0.812  2.7991  0.1295 -0.1985
  244MOL0     H32146   6.872   7.743   0.814  1.0858 -0.7362  2.0362
  244MOL0     H32147   7.119   7.766   0.838  1.3592  4.2430 -1.3369
  244MOL0     H32148   7.077   7.840   0.682 -4.0729 -1.4501 -2.3296
  244MOL0     H32149   7.285   7.687   0.692 -0.0816 -0.9625  3.4932
  244MOL0     H32150   7.169   7.620   0.577 -2.1075  1.9793  0.5564
  244MOL0     H32151   7.137   7.499   0.844 -0.9237 -0.0555 -1.1306
  244MOL0     H32152   7.162   7.425   0.687 -1.4110 -1.7872  2.4382
  244MOL0     H32153   7.399   7.468   0.702 -2.0369  2.5325 -1.2804
  244MOL0     H32154   7.344   7.371   0.843 -2.9246  0.8327  1.5152
  244MOL0     H32155   7.332   7.595   0.985 -0.4989 -1.5043  1.1174
  244MOL0     H32156   7.428   7.673   0.861 -2.1251  0.0321 -0.2791
  244MOL0     H32157   7.554   7.606   1.034 -2.2339 -1.0994  1.7845
  244MOL0     H32158   7.554   7.436   0.986  3.5641  0.3139 -0.0711
  244MOL0     H32159   7.660   7.679   0.839 -1.0469  0.2430 -0.5113
  244MOL0     H32160   7.634   7.523   0.750  2.2523 -0.4561  0.3963
  244MOL0     H32161   7.930   7.679   0.821 -2.0926  0.2409  0.3095
  244MOL0     H32162   8.170   7.430   0.812  1.1478  2.1404 -0.4016
  244MOL0     H32163   8.200   7.458   0.989  1.0213  4.7384  1.4113
  244MOL0     H32164   8.197   7.723   0.935  1.1494 -0.4988  1.0099
  244MOL0     H32165   8.185   7.667   0.765  1.4835 -1.0134 -1.2374
  244MOL0     H32166   8.402   7.659   0.982 -0.1719  1.4220  0.1826
  244MOL0     H32167   8.410   7.549   0.832  0.3505 -1.2526  2.3991
  244MOL0     H32168   8.397   7.862   0.845 -0.1997  0.2650 -3.4280
  244MOL0     H32169   8.376   7.762   0.703  1.0459  3.6412 -1.9970
  244MOL0     H32170   8.827   7.751   0.781 -0.1344  0.9503  1.8472
  244MOL0     H32171   8.961   7.939   0.667  0.6651 -1.4976 -2.0229
  244MOL0     H32172   9.001   8.268   0.315  0.1006 -3.1937  1.0251
  244MOL0     H32173   9.125   8.467   0.277  2.3403  0.1327 -1.3728
  244MOL0     H32174   9.338   8.609   0.642  2.5669 -2.8810 -0.6306
  244MOL0     H32175   9.270   8.733   0.520  1.3965  1.0979 -1.6795
  244MOL0     H32176   9.480   8.782   0.437  0.6741 -0.8428 -0.3305
  244MOL0     H32177   9.560   8.646   0.525  1.9712  2.7300  3.6253
  244MOL0     H32178   9.512   8.731   0.733 -1.0175  2.1249  0.5062
  244MOL0     H32179   9.452   8.882   0.647 -0.6292  0.0115 -5.2643
  244MOL0     H32180   9.749   8.771   0.628  1.8103  2.0198 -0.8785
  244MOL0     H32181   9.680   8.905   0.537 -2.1775  4.1430  1.4370
  244MOL0     H32182   9.778   8.882   0.809  2.3182  3.0922  1.7102
  244MOL0     H32183   9.624   8.977   0.798 -0.5148  0.8117 -1.4951
  244MOL0     H32184   9.842   9.004   0.600  1.7748 -1.0195  2.3508
  244MOL0     H32185   9.850   9.096   0.754 -0.6527 -0.8970  1.4951
  244MOL0     H32186   9.618   9.093   0.563  2.1575 -1.4100 -0.3645
  244MOL0     H32187   9.642   9.214   0.691  0.8645 -2.9248  3.5910
  244MOL0     H32188   9.685   9.301   0.448  1.1667 -0.9624 -3.4197
  244MOL0     H32189   9.812   9.183   0.441 -0.5393  1.1835 -1.0715
  244MOL0     H32190   9.330   8.392   0.664 -0.5882 -3.7748  2.3365
  244MOL0     H32191   9.194   8.197   0.691  0.9702 -2.0582 -2.3028
  244MOL0     H32192   8.606   8.148   0.578  0.7295  0.7679  1.0882
  244MOL0     H32193   8.471   7.970   0.687  0.4012  0.8988  2.4108
  244MOL0     H32194   6.734   7.854   0.669  2.0697 -0.2279  0.5033
  244MOL0     H32195   6.688   8.038   0.504 -1.0733 -0.2160 -2.4522
  244MOL0     H32196   6.876   8.196   0.024 -0.5481  0.4538 -0.9237
  244MOL0     H32197   6.825   8.356  -0.161  1.7137 -0.2935 -0.2051
  244MOL0     H32198   6.551   8.397  -0.508  2.3576  0.4756  0.6964
  244MOL0     H32199   6.480   8.256  -0.418 -0.7349 -0.3996  1.4381
  244MOL0     H32200   6.777   8.269  -0.511  0.8352 -1.7256 -1.7540
  244MOL0     H32201   6.670   8.133  -0.474  1.9559  0.2055  0.6519
  244MOL0     H32202   6.678   8.313  -0.703  4.5029 -0.4157  0.4366
  244MOL0     H32203   6.534   8.196  -0.691  1.6516 -1.2198 -2.9276
  244MOL0     H32204   6.822   8.154  -0.736  0.1665 -0.4155 -0.0279
  244MOL0     H32205   6.743   8.021  -0.652  2.0239  0.1127  0.1338
  244MOL0     H32206   6.540   7.987  -1.015 -0.5108 -0.0718 -0.3579
  244MOL0     H32207   6.438   8.200  -0.183  0.3534  0.4582  1.2574
  244MOL0     H32208   6.491   8.013  -0.031 -3.0517  1.8023 -0.6898
  245MOL0     O32209   9.060   0.265   3.945  0.2082 -0.0504 -0.3186
  245MOL0     C32210   9.128   0.346   3.889  0.3458 -0.7637 -0.3029
  245MOL0     O32211   9.164   0.465   3.933  0.1704  0.2234 -0.3055
  245MOL0     C32212   9.164   0.496   4.062 -0.1980  0.4819 -0.1333
  245MOL0     C32213   9.048   0.545   4.108  0.3817 -0.2348 -0.1121
  245MOL0     C32214   9.034   0.589   4.239  0.7143 -0.1632 -0.7293
  245MOL0     C32215   9.143   0.580   4.321 -0.1966 -0.4463  1.1420
  245MOL0     O32216   9.133   0.647   4.439 -0.0479 -0.2092 -0.3189
  245MOL0     C32217   9.031   0.595   4.519 -0.2943  0.0931  0.1701
  245MOL0     C32218   9.054   0.620   4.664 -0.9378  1.0032  0.7187
  245MOL0     C32219   8.938   0.562   4.749  0.2532 -0.2194 -0.1070
  245MOL0     C32220   8.962   0.577   4.901 -0.9183  0.4066 -0.2027
  245MOL0     C32221   8.868   0.499   4.990  0.4660  0.6237  0.1090
  245MOL0     C32222   8.905   0.534   5.138  0.3250  0.6864  0.6867
  245MOL0     C32223   8.819   0.463   5.247  0.8280 -0.3205  0.3920
  245MOL0     C32224   8.860   0.322   5.291  0.2031  0.1331 -0.0125
  245MOL0     N32225   8.996   0.317   5.344 -0.4589 -1.2378  0.7622
  245MOL0     C32226   9.033   0.349   5.474 -0.2163 -0.0748  0.4217
  245MOL0     C32227   9.166   0.312   5.480  0.2615  0.4709 -1.1615
  245MOL0     C32228   9.275   0.330   5.582  0.2694  1.9614  0.5064
  245MOL0     C32229   9.392   0.424   5.557 -0.0551  0.0784 -0.5915
  245MOL0     C32230   9.521   0.386   5.622 -0.2694  0.8169 -0.0795
  245MOL0     C32231   9.632   0.486   5.629  0.1725 -0.4431  0.1540
  245MOL0     O32232   9.740   0.407   5.681 -0.0744 -0.1761  0.3309
  245MOL0     C32233   9.860   0.465   5.664  0.4867  0.5598  0.4384
  245MOL0     C32234   9.924   0.459   5.540 -0.7425  0.6088  0.1592
  245MOL0     C32235  10.041   0.532   5.521 -0.5691  0.3479 -0.5443
  245MOL0     C32236  10.106   0.600   5.625  0.2601  0.8361  0.2772
  245MOL0     C32237  10.231   0.672   5.608 -0.4755 -0.5180  0.6472
  245MOL0     O32238  10.307   0.641   5.498  0.9928 -0.7277 -0.4763
  245MOL0     C32239  10.389   0.740   5.447 -0.4823 -1.0008 -0.6668
  245MOL0     C32240  10.367   0.789   5.318  1.2737 -0.7706 -0.5117
  245MOL0     C32241  10.452   0.880   5.265  0.3597 -0.7910  0.8284
  245MOL0     C32242  10.549   0.949   5.338 -0.1518 -0.5183  0.1838
  245MOL0     O32243  10.618   1.050   5.276  0.5876  0.4381  0.4584
  245MOL0     C32244  10.710   1.130   5.344 -0.6047  0.1342 -0.7625
  245MOL0     C32245  10.744   1.261   5.257 -0.7102  0.2625  0.7550
  245MOL0     C32246  10.836   1.232   5.128  0.1100  0.2486 -1.1543
  245MOL0     C32247  10.852   1.360   5.051 -1.1017 -0.2572  0.3574
  245MOL0     C32248  10.730   1.388   4.963 -0.0757  0.3125 -0.0059
  245MOL0     C32249  10.748   1.500   4.856  0.5459  0.1265 -0.3481
  245MOL0     C32250  10.631   1.500   4.753 -0.1926 -0.0656  1.1790
  245MOL0     C32251  10.684   1.585   4.639 -0.3756 -0.0302  0.0338
  245MOL0    Cl32252  10.715   1.755   4.710  0.3789 -0.1213 -0.2400
  245MOL0     C32253  10.571   0.903   5.465 -0.5089 -0.4815 -1.2306
  245MOL0     C32254  10.492   0.803   5.526  0.2214 -0.4519 -1.2248
  245MOL0     O32255  10.251   0.774   5.683  0.3397 -0.2671  0.6486
  245MOL0     C32256  10.039   0.602   5.747 -0.0107  0.0170 -0.9864
  245MOL0     C32257   9.908   0.541   5.770 -0.3396 -0.2991 -0.0933
  245MOL0     N32258   9.197   0.247   5.360  0.5443 -0.4572 -0.0830
  245MOL0     N32259   9.096   0.262   5.283  0.1488 -0.2112 -1.1021
  245MOL0     C32260   9.267   0.523   4.273  0.5369 -0.3527  0.3359
  245MOL0     C32261   9.280   0.482   4.142  0.0679 -0.2804  0.1726
  245MOL0     C32262   9.187   0.297   3.763 -0.6446 -0.2195 -0.2190
  245MOL0     C32263   9.250   0.388   3.670  0.0238 -0.2034 -0.7367
  245MOL0     C32264   9.322   0.333   3.563 -0.0734 -0.5944 -0.9603
  245MOL0     C32265   9.328   0.197   3.531  0.5434  0.1264  0.3320
  245MOL0     O32266   9.419   0.159   3.439 -0.0831 -0.0335 -0.8604
  245MOL0     C32267   9.377   0.051   3.357  0.1430 -0.0934  0.7843
  245MOL0     C32268   9.485  -0.062   3.343  0.4611  0.2550  0.5376
  245MOL0     C32269   9.612   0.002   3.284  0.6218  0.3348  0.7315
  245MOL0     C32270   9.716  -0.095   3.257 -0.9735  0.1530  0.1829
  245MOL0     C32271   9.757  -0.177   3.374  0.3341  0.0601  0.2729
  245MOL0     C32272   9.819  -0.228   3.463  0.5897  0.2994 -0.0592
  245MOL0     C32273   9.259   0.108   3.611 -0.2292 -0.3431 -0.6723
  245MOL0     C32274   9.183   0.157   3.728  0.3358 -0.7531  1.4919
  245MOL0     H32275   8.967   0.537   4.036 -3.2777  0.3366  3.5584
  245MOL0     H32276   8.945   0.639   4.274  1.0867  0.3124 -0.4448
  245MOL0     H32277   9.021   0.487   4.502  2.9341 -0.0877 -1.4119
  245MOL0     H32278   8.937   0.647   4.500  1.1641  1.7149 -3.7798
  245MOL0     H32279   9.075   0.727   4.679  0.5622  0.5311  2.3854
  245MOL0     H32280   9.142   0.560   4.690  0.9694  3.2687 -0.1239
  245MOL0     H32281   8.926   0.455   4.733 -0.4725 -0.2764  0.7120
  245MOL0     H32282   8.844   0.612   4.722 -0.9143 -1.5056  1.4003
  245MOL0     H32283   9.061   0.535   4.920 -0.6058  0.8748 -0.7865
  245MOL0     H32284   8.971   0.682   4.928 -0.7186 -0.6712  4.7914
  245MOL0     H32285   8.877   0.391   4.971  2.1227  0.6884  0.3746
  245MOL0     H32286   8.770   0.538   4.965  0.9439  0.3904 -2.4727
  245MOL0     H32287   8.891   0.643   5.145  2.7240  1.1267 -0.2794
  245MOL0     H32288   9.011   0.509   5.151  0.6320  0.0649 -2.3126
  245MOL0     H32289   8.814   0.523   5.338  0.8620 -0.5374  0.5348
  245MOL0     H32290   8.717   0.466   5.208  1.3868  1.2022 -1.1010
  245MOL0     H32291   8.852   0.256   5.204  0.8843  0.0970 -0.0569
  245MOL0     H32292   8.811   0.289   5.383  4.1610  0.6612  2.5606
  245MOL0     H32293   8.972   0.405   5.545 -3.3175  3.5352 -4.4640
  245MOL0     H32294   9.307   0.225   5.582  0.2406  1.9026 -1.8500
  245MOL0     H32295   9.228   0.346   5.680 -0.4530 -3.7352  1.4516
  245MOL0     H32296   9.360   0.518   5.603 -0.8273 -1.3346  1.9437
  245MOL0     H32297   9.414   0.441   5.451  1.9180  3.6538  0.2168
  245MOL0     H32298   9.506   0.336   5.718 -1.6726 -0.2528 -0.8147
  245MOL0     H32299   9.571   0.307   5.565  0.9299 -0.3472  2.4208
  245MOL0     H32300   9.612   0.564   5.702  0.0187 -0.3560  0.0185
  245MOL0     H32301   9.661   0.527   5.532 -1.3881 -2.8677 -1.4446
  245MOL0     H32302   9.882   0.389   5.468 -1.3759  0.3376  0.7869
  245MOL0     H32303  10.081   0.538   5.420  0.0729 -0.0305 -0.3196
  245MOL0     H32304  10.294   0.740   5.256 -1.5485 -0.7292  2.4841
  245MOL0     H32305  10.441   0.901   5.159  1.4277  2.4374  1.2386
  245MOL0     H32306  10.804   1.079   5.369  0.0470  0.6981 -1.9646
  245MOL0     H32307  10.675   1.165   5.441  2.4849 -1.0828  0.9555
  245MOL0     H32308  10.777   1.343   5.322 -1.0004  1.0566 -0.0690
  245MOL0     H32309  10.643   1.293   5.231 -0.3038  0.4532 -0.6750
  245MOL0     H32310  10.770   1.158   5.082 -3.6641  1.3829  1.8821
  245MOL0     H32311  10.935   1.195   5.160 -0.1090  1.6172  1.3214
  245MOL0     H32312  10.870   1.445   5.117  0.3859 -0.9481  0.9108
  245MOL0     H32313  10.937   1.351   4.982 -0.5067  2.5725  0.6168
  245MOL0     H32314  10.642   1.411   5.023  0.6761 -1.5073  1.8901
  245MOL0     H32315  10.702   1.296   4.911  0.6367 -1.0012  1.8168
  245MOL0     H32316  10.846   1.481   4.811  0.1826 -1.0288 -0.6687
  245MOL0     H32317  10.756   1.597   4.906  1.7363 -0.1548  0.0370
  245MOL0     H32318  10.605   1.401   4.714 -1.8292  1.3981 -1.8613
  245MOL0     H32319  10.538   1.545   4.791 -1.9359 -1.3155 -1.3019
  245MOL0     H32320  10.613   1.581   4.557 -0.5971  2.5107  0.0155
  245MOL0     H32321  10.783   1.549   4.609  1.0622  3.5423  0.0249
  245MOL0     H32322  10.641   0.954   5.531 -1.4964  1.4102 -1.5679
  245MOL0     H32323  10.496   0.766   5.628  0.0660  0.0591 -1.0293
  245MOL0     H32324  10.087   0.670   5.816  2.8746 -0.1203 -2.6891
  245MOL0     H32325   9.867   0.539   5.870  1.8701  0.4668  0.8960
  245MOL0     H32326   9.345   0.505   4.346 -0.7063 -0.7817  1.5905
  245MOL0     H32327   9.375   0.450   4.100  1.3620  1.2818  1.7266
  245MOL0     H32328   9.235   0.494   3.687 -1.6996 -0.0666 -2.6944
  245MOL0     H32329   9.365   0.411   3.502 -0.7738  1.8562  1.4531
  245MOL0     H32330   9.362   0.088   3.255  0.3083  0.4669  0.9616
  245MOL0     H32331   9.284  -0.006   3.371 -1.5050  2.4466  0.8076
  245MOL0     H32332   9.492  -0.090   3.449  0.3754  3.0010  1.3467
  245MOL0     H32333   9.438  -0.140   3.281 -0.4204  1.8782 -0.9223
  245MOL0     H32334   9.650   0.086   3.344  3.5648 -2.1418  2.6486
  245MOL0     H32335   9.589   0.038   3.184 -1.1381 -1.5507  0.3868
  245MOL0     H32336   9.689  -0.160   3.174  1.3331  0.1493 -0.6397
  245MOL0     H32337   9.803  -0.042   3.217 -0.5952 -1.3744 -1.1226
  245MOL0     H32338   9.867  -0.282   3.542 -0.6970 -4.9696 -2.4068
  245MOL0     H32339   9.248   0.000   3.601 -2.9870 -0.3293  1.0822
  245MOL0     H32340   9.141   0.088   3.799 -1.8235 -3.0369 -1.7135
  246MOL0     O32341   9.909   7.580   2.374  0.8603 -0.5945  0.5989
  246MOL0     C32342   9.808   7.513   2.345 -0.0247 -0.1206  1.4229
  246MOL0     O32343   9.815   7.384   2.286 -1.0383 -0.0709 -0.1706
  246MOL0     C32344   9.939   7.322   2.253 -0.5790  0.1125 -0.3478
  246MOL0     C32345  10.069   7.375   2.230 -0.5916  0.6413  0.3321
  246MOL0     C32346  10.179   7.289   2.204 -0.3702 -0.3925 -0.2379
  246MOL0     C32347  10.168   7.152   2.210 -0.8126  0.5140 -0.0420
  246MOL0     O32348  10.291   7.085   2.204 -0.0663 -0.2346  0.4095
  246MOL0     C32349  10.288   6.946   2.186  0.0130  0.9878  0.0954
  246MOL0     C32350  10.268   6.863   2.316 -0.5139 -0.4869  0.1939
  246MOL0     C32351  10.303   6.715   2.301 -0.3852 -0.4151 -0.7839
  246MOL0     C32352  10.226   6.632   2.204  0.5671 -0.3093 -0.5257
  246MOL0     C32353  10.288   6.483   2.180  0.4756  0.3855  0.3385
  246MOL0     C32354  10.326   6.408   2.309 -0.1725 -0.9121 -0.5618
  246MOL0     C32355  10.349   6.255   2.280  0.0053  0.6998 -0.2074
  246MOL0     C32356  10.477   6.235   2.188 -0.3447  0.3206 -0.2851
  246MOL0     N32357  10.599   6.239   2.266 -0.3452 -0.3400  0.0291
  246MOL0     C32358  10.681   6.354   2.280  0.6186  0.0817 -0.0450
  246MOL0     C32359  10.790   6.319   2.354  0.6177 -0.3811  0.3184
  246MOL0     C32360  10.908   6.399   2.384 -0.0769  0.8599  0.6739
  246MOL0     C32361  11.021   6.377   2.277 -0.0925  0.2930  0.2712
  246MOL0     C32362  10.993   6.429   2.143  0.0578 -0.4716 -0.0244
  246MOL0     C32363  11.120   6.440   2.062 -0.2866  0.0154 -0.4223
  246MOL0     O32364  11.082   6.501   1.931  0.3535  0.0299 -0.3817
  246MOL0     C32365  11.058   6.408   1.828 -0.5594 -0.3846  0.3779
  246MOL0     C32366  11.036   6.267   1.836 -0.1455  1.1516 -0.0342
  246MOL0     C32367  10.992   6.186   1.734 -0.1404  0.6977  0.0634
  246MOL0     C32368  10.986   6.243   1.603 -0.1431  0.3976 -0.7486
  246MOL0     C32369  10.940   6.161   1.488  0.0924  0.0731  0.5388
  246MOL0     O32370  10.911   6.228   1.371  0.3863  0.1673  0.7272
  246MOL0     C32371  10.854   6.169   1.261 -0.3122  0.7177 -0.2948
  246MOL0     C32372  10.906   6.049   1.208  1.0235 -0.7131 -0.2409
  246MOL0     C32373  10.872   6.018   1.072 -0.3498 -0.5708 -0.3447
  246MOL0     C32374  10.794   6.109   0.992  0.7855 -0.0826 -0.3200
  246MOL0     O32375  10.756   6.067   0.866  0.2289 -0.0298  0.2660
  246MOL0     C32376  10.864   6.095   0.779  1.4489 -1.0211 -0.0421
  246MOL0     C32377  10.808   6.100   0.641  0.4273 -0.4816 -0.4014
  246MOL0     C32378  10.905   6.140   0.527  0.0629 -0.1872 -0.1796
  246MOL0     C32379  10.881   6.046   0.407 -0.2511  0.0025 -0.0629
  246MOL0     C32380  10.915   6.118   0.272 -0.0045  0.0813  0.6784
  246MOL0     C32381  10.911   6.010   0.159  0.1695  0.3151  0.3943
  246MOL0     C32382  10.954   6.080   0.027  0.7215 -0.5128  0.2199
  246MOL0     C32383  10.921   6.014  -0.105  0.3655  0.6987  0.0944
  246MOL0    Cl32384  11.043   5.886  -0.146 -0.1459 -0.4329 -0.1701
  246MOL0     C32385  10.727   6.218   1.055  0.2550  0.1984  0.3960
  246MOL0     C32386  10.770   6.248   1.188  0.4098 -1.1748 -0.4054
  246MOL0     O32387  10.928   6.040   1.501 -0.3483 -0.6956  0.5861
  246MOL0     C32388  11.009   6.384   1.591 -0.2388  0.2697 -0.9532
  246MOL0     C32389  11.043   6.466   1.703 -0.7375  0.8401  0.3522
  246MOL0     N32390  10.774   6.182   2.371 -0.7703 -0.3981 -0.1392
  246MOL0     N32391  10.676   6.137   2.313  0.3297  0.1421  0.5131
  246MOL0     C32392  10.043   7.103   2.243 -0.3223  0.8156 -0.7558
  246MOL0     C32393   9.925   7.184   2.260 -1.4728  0.2661  0.1480
  246MOL0     C32394   9.673   7.557   2.383 -1.3084 -0.4842  0.2410
  246MOL0     C32395   9.660   7.667   2.458 -0.2826  0.2148 -0.3684
  246MOL0     C32396   9.528   7.718   2.497 -1.0838 -0.7500  0.0405
  246MOL0     C32397   9.406   7.656   2.456 -0.2963  0.7193  0.6319
  246MOL0     O32398   9.286   7.693   2.506 -0.0071 -0.3329 -0.4817
  246MOL0     C32399   9.167   7.694   2.431  0.8591  0.1881  0.3105
  246MOL0     C32400   9.069   7.812   2.465  0.7716  0.2917  0.0316
  246MOL0     C32401   8.960   7.841   2.351  0.5348  0.0199 -0.9429
  246MOL0     C32402   8.828   7.760   2.394  0.1655 -0.6118 -0.4797
  246MOL0     C32403   8.850   7.611   2.388 -0.2140 -0.7806 -0.5715
  246MOL0     C32404   8.872   7.497   2.346 -0.0431  0.4666 -0.1567
  246MOL0     C32405   9.427   7.533   2.383  0.3417  0.4581  0.0975
  246MOL0     C32406   9.555   7.490   2.351  0.3992 -0.1789  0.1921
  246MOL0     H32407  10.080   7.482   2.237  0.0438  0.6649 -0.8577
  246MOL0     H32408  10.269   7.344   2.178 -1.7826  2.2048 -0.0108
  246MOL0     H32409  10.390   6.919   2.156  0.3450 -0.2537  2.1863
  246MOL0     H32410  10.219   6.929   2.103 -0.6741 -1.1098  1.0151
  246MOL0     H32411  10.169   6.878   2.360  0.8147  1.1454  2.8839
  246MOL0     H32412  10.348   6.907   2.377 -1.6118  0.0371  1.2927
  246MOL0     H32413  10.295   6.687   2.406  2.5213  2.7519  0.4764
  246MOL0     H32414  10.410   6.701   2.282  0.1644 -3.7453  3.3683
  246MOL0     H32415  10.128   6.612   2.248  1.7930  0.9055  3.1746
  246MOL0     H32416  10.222   6.689   2.111  3.3523  2.9306  1.1322
  246MOL0     H32417  10.357   6.487   2.095  0.8233 -0.3674  0.5729
  246MOL0     H32418  10.191   6.441   2.153 -1.6241  3.2110  2.7754
  246MOL0     H32419  10.236   6.417   2.370  1.5747  4.5984  1.8238
  246MOL0     H32420  10.407   6.458   2.362  1.2931 -2.0728 -1.6278
  246MOL0     H32421  10.373   6.209   2.377  1.5560  2.1094  0.1283
  246MOL0     H32422  10.258   6.215   2.235 -0.0932 -2.8428  2.6163
  246MOL0     H32423  10.482   6.299   2.099 -0.0962 -1.9726 -2.0161
  246MOL0     H32424  10.477   6.136   2.141 -0.0560  0.5065 -0.6860
  246MOL0     H32425  10.667   6.443   2.220  4.4202 -1.3710 -3.6530
  246MOL0     H32426  10.945   6.354   2.476 -0.2965 -1.3788 -0.2703
  246MOL0     H32427  10.879   6.504   2.394 -0.7319  0.6921  0.6123
  246MOL0     H32428  11.048   6.271   2.270  2.6482  0.7545  2.3551
  246MOL0     H32429  11.113   6.431   2.299  1.6802 -2.5257  0.3869
  246MOL0     H32430  10.927   6.360   2.089 -1.6944 -0.3312  1.8352
  246MOL0     H32431  10.944   6.526   2.137 -0.9749 -0.4883  4.4089
  246MOL0     H32432  11.176   6.347   2.049 -0.5688  0.3129 -5.5246
  246MOL0     H32433  11.186   6.504   2.122  0.1924 -2.5869  2.0399
  246MOL0     H32434  11.058   6.217   1.930  1.5792 -0.3479 -1.1673
  246MOL0     H32435  10.981   6.079   1.749  3.0219 -0.0327 -1.9575
  246MOL0     H32436  10.958   5.972   1.265 -1.8941 -1.1791  2.0366
  246MOL0     H32437  10.908   5.931   1.018  2.6684  1.2253 -1.4641
  246MOL0     H32438  10.932   6.012   0.798  0.5123 -1.3447  2.2646
  246MOL0     H32439  10.913   6.191   0.799  2.8841 -1.9152  0.9885
  246MOL0     H32440  10.723   6.167   0.626  1.1907  0.1754 -2.0901
  246MOL0     H32441  10.773   5.996   0.632 -1.3608 -0.0446  0.9295
  246MOL0     H32442  11.005   6.134   0.570 -1.4003  0.2312  3.6374
  246MOL0     H32443  10.886   6.245   0.501 -1.1624 -0.0439  1.1839
  246MOL0     H32444  10.936   5.952   0.420  1.3674  1.1580  2.0406
  246MOL0     H32445  10.775   6.021   0.402 -0.1938 -0.1171 -0.6813
  246MOL0     H32446  11.021   6.146   0.279  0.1296 -0.2191 -0.0666
  246MOL0     H32447  10.851   6.205   0.252 -2.9555 -1.8473  1.2419
  246MOL0     H32448  10.811   5.967   0.172  1.9890 -4.0371  1.6561
  246MOL0     H32449  10.981   5.931   0.188  1.7767  2.5297  3.0823
  246MOL0     H32450  10.931   6.187   0.028 -1.2561 -0.8954  1.7787
  246MOL0     H32451  11.063   6.085   0.033  0.7349 -0.9420  0.3691
  246MOL0     H32452  10.914   6.093  -0.180 -2.5509  0.8457  0.4033
  246MOL0     H32453  10.825   5.963  -0.093  0.3593  0.5202 -0.7039
  246MOL0     H32454  10.668   6.291   1.001 -0.6719 -0.5503  0.3768
  246MOL0     H32455  10.732   6.342   1.228 -3.9045 -2.5544 -0.6703
  246MOL0     H32456  10.989   6.439   1.500 -1.3139 -1.1693 -1.6411
  246MOL0     H32457  11.050   6.574   1.706 -1.3705  0.9655 -1.5467
  246MOL0     H32458  10.025   6.997   2.257  2.5846  0.5310  1.9090
  246MOL0     H32459   9.831   7.136   2.283 -2.6402  2.2071 -0.3810
  246MOL0     H32460   9.748   7.708   2.505 -1.2347  2.8220 -0.7163
  246MOL0     H32461   9.516   7.800   2.567  1.5613 -0.6699  0.4782
  246MOL0     H32462   9.120   7.597   2.451 -0.3843 -0.2223 -3.6648
  246MOL0     H32463   9.205   7.698   2.329 -0.4559  1.1441 -0.1666
  246MOL0     H32464   9.030   7.798   2.566 -0.0361  1.3223 -0.1220
  246MOL0     H32465   9.135   7.898   2.477 -0.9035  1.9303 -1.8188
  246MOL0     H32466   8.995   7.817   2.251  0.4605 -0.3315 -0.8854
  246MOL0     H32467   8.949   7.950   2.345 -4.3963 -0.3011 -5.3117
  246MOL0     H32468   8.772   7.786   2.484 -0.1943 -1.4881 -0.4369
  246MOL0     H32469   8.758   7.783   2.313 -2.1690 -0.6893  1.4142
  246MOL0     H32470   8.903   7.399   2.314 -1.6684  0.3725 -1.5975
  246MOL0     H32471   9.343   7.470   2.355  0.5273  0.3450 -0.2047
  246MOL0     H32472   9.569   7.394   2.303  2.5615 -1.0931  2.4386
  247MOL0     O32473   7.861   4.526  11.334 -0.2842 -0.2768 -0.3851
  247MOL0     C32474   7.956   4.526  11.264  0.4957  0.1253 -0.7214
  247MOL0     O32475   7.970   4.462  11.144 -0.1826 -0.1364  0.1379
  247MOL0     C32476   7.855   4.408  11.077  0.2273  0.4446  0.3243
  247MOL0     C32477   7.878   4.300  10.995  0.4768  0.2353 -0.0998
  247MOL0     C32478   7.771   4.246  10.922 -0.1498 -0.4862  0.5413
  247MOL0     C32479   7.639   4.279  10.940  0.0548  0.0456  0.6423
  247MOL0     O32480   7.537   4.224  10.867  0.1570 -0.5088  0.1102
  247MOL0     C32481   7.551   4.181  10.730  0.2497 -0.1113  0.5504
  247MOL0     C32482   7.420   4.215  10.645  0.0988  0.2958 -0.5818
  247MOL0     C32483   7.287   4.186  10.729 -0.5144  0.6359  0.0797
  247MOL0     C32484   7.160   4.252  10.670  0.4101 -0.5441 -1.0204
  247MOL0     C32485   7.050   4.275  10.783 -0.0007 -0.7701  0.3877
  247MOL0     C32486   7.001   4.140  10.846 -0.1131 -0.2071  0.8775
  247MOL0     C32487   6.856   4.127  10.832  1.1681 -0.1585  0.0691
  247MOL0     C32488   6.814   4.086  10.689  0.7880 -0.7392 -0.0842
  247MOL0     N32489   6.670   4.111  10.657 -0.9753 -1.2171 -0.3469
  247MOL0     C32490   6.595   4.220  10.709 -0.4145 -0.3123 -0.4670
  247MOL0     C32491   6.463   4.193  10.678  0.3878  0.3952  0.2780
  247MOL0     C32492   6.343   4.278  10.709 -0.5377 -0.0180 -0.2947
  247MOL0     C32493   6.354   4.408  10.624  0.3346  0.8019  0.7533
  247MOL0     C32494   6.224   4.487  10.601  0.1191 -0.3995  0.4059
  247MOL0     C32495   6.139   4.471  10.725 -0.4074 -0.3318 -0.0583
  247MOL0     O32496   6.208   4.535  10.845  0.2062  0.4369 -0.3016
  247MOL0     C32497   6.148   4.490  10.967 -0.8232  0.7960 -0.0124
  247MOL0     C32498   6.013   4.455  10.991  0.3535 -0.3074  0.8865
  247MOL0     C32499   5.985   4.384  11.102  0.2939  0.4310  0.3843
  247MOL0     C32500   6.083   4.366  11.201  0.3222  0.2947 -0.1553
  247MOL0     C32501   6.040   4.273  11.313  0.2731  0.4979  0.5781
  247MOL0     O32502   5.905   4.251  11.332 -0.6396 -0.7557  0.4754
  247MOL0     C32503   5.860   4.164  11.427 -0.9795  0.0327  0.8571
  247MOL0     C32504   5.749   4.201  11.501  0.1322  0.7463 -1.3335
  247MOL0     C32505   5.687   4.106  11.584  1.0483 -0.0678  0.0855
  247MOL0     C32506   5.724   3.977  11.582 -0.0485 -0.9619 -0.6210
  247MOL0     O32507   5.663   3.881  11.652 -0.4742  0.9954  0.4349
  247MOL0     C32508   5.532   3.887  11.639 -0.0587  0.5806 -0.9760
  247MOL0     C32509   5.452   3.885  11.767 -0.2290  0.0968 -0.6574
  247MOL0     C32510   5.477   3.748  11.839 -0.5828  0.1689  0.6533
  247MOL0     C32511   5.397   3.721  11.965 -0.1972 -0.5104 -0.0655
  247MOL0     C32512   5.401   3.580  12.016  0.6134  0.7070  0.3309
  247MOL0     C32513   5.273   3.494  12.054  0.3571  0.1480 -0.0911
  247MOL0     C32514   5.199   3.477  11.926  0.0396  0.2254  0.0138
  247MOL0     C32515   5.050   3.489  11.957  0.4591 -0.9796 -0.2778
  247MOL0    Cl32516   4.950   3.421  11.834 -0.4172 -0.0804  0.2710
  247MOL0     C32517   5.829   3.930  11.503  0.0378 -0.2772 -0.0811
  247MOL0     C32518   5.905   4.029  11.432  0.2210  0.2642 -0.0795
  247MOL0     O32519   6.140   4.213  11.357 -0.2605 -0.3586 -0.0298
  247MOL0     C32520   6.213   4.421  11.192  0.7582 -0.0864 -0.3324
  247MOL0     C32521   6.244   4.485  11.068  0.5711  1.0622 -0.5307
  247MOL0     N32522   6.463   4.068  10.619 -0.5356 -0.2686  0.3094
  247MOL0     N32523   6.581   4.019  10.603  0.4243 -0.2283 -0.3669
  247MOL0     C32524   7.617   4.389  11.023 -0.1996 -0.2659  0.3409
  247MOL0     C32525   7.723   4.455  11.097  0.1536  0.7673 -0.2609
  247MOL0     C32526   8.079   4.594  11.310  0.8197 -0.6332  0.1725
  247MOL0     C32527   8.076   4.667  11.430  0.6665  0.4092 -0.8631
  247MOL0     C32528   8.181   4.740  11.475 -0.0083  0.1036  0.2102
  247MOL0     C32529   8.297   4.741  11.401 -0.0162 -0.1464 -0.3696
  247MOL0     O32530   8.394   4.833  11.437  0.3645  0.7360 -0.4717
  247MOL0     C32531   8.526   4.836  11.385  0.7605 -0.4524 -0.1797
  247MOL0     C32532   8.598   4.703  11.405  0.9850 -0.1693  0.2291
  247MOL0     C32533   8.720   4.704  11.318 -0.8403  0.2394 -0.3882
  247MOL0     C32534   8.810   4.582  11.337  0.0398  0.6428  0.1612
  247MOL0     C32535   8.950   4.597  11.288 -0.3150 -0.0965  0.0056
  247MOL0     C32536   9.060   4.595  11.253 -1.2569  0.9326 -0.0537
  247MOL0     C32537   8.294   4.684  11.271  0.2077  0.7762  0.8284
  247MOL0     C32538   8.187   4.603  11.236 -0.3719 -0.1216  0.7186
  247MOL0     H32539   7.982   4.272  10.984  1.2058  3.0167 -1.2024
  247MOL0     H32540   7.798   4.190  10.833 -2.0024 -1.8002  0.7344
  247MOL0     H32541   7.585   4.077  10.733 -1.7653 -0.8369 -0.1732
  247MOL0     H32542   7.633   4.223  10.670 -1.4861 -0.4666 -2.2569
  247MOL0     H32543   7.410   4.156  10.554  1.3379 -3.2702  1.3727
  247MOL0     H32544   7.420   4.322  10.625  3.4061  0.6347  0.6117
  247MOL0     H32545   7.290   4.205  10.837 -5.5812 -2.3356  1.0945
  247MOL0     H32546   7.271   4.079  10.747 -0.5776  0.9213  1.9443
  247MOL0     H32547   7.180   4.354  10.639 -1.6091  0.6319  1.1783
  247MOL0     H32548   7.109   4.195  10.592 -1.3257 -1.9291  0.9834
  247MOL0     H32549   6.970   4.341  10.748  0.7774  0.0766  0.1804
  247MOL0     H32550   7.094   4.332  10.864 -0.4628 -0.9097  0.7404
  247MOL0     H32551   7.025   4.133  10.953  0.9699  1.7632  0.8092
  247MOL0     H32552   7.046   4.048  10.806  0.5754  0.1155  0.9116
  247MOL0     H32553   6.832   4.044  10.899 -1.2998 -0.7342 -1.3896
  247MOL0     H32554   6.811   4.222  10.859  0.2934 -1.2677  2.7999
  247MOL0     H32555   6.828   3.978  10.679  0.3059 -0.7640 -0.5049
  247MOL0     H32556   6.877   4.132  10.612  0.6575 -2.4544 -1.2531
  247MOL0     H32557   6.636   4.307  10.757  0.6868 -0.8015 -0.5062
  247MOL0     H32558   6.337   4.307  10.815 -1.1468  0.0259 -0.3399
  247MOL0     H32559   6.260   4.216  10.676  1.0582 -2.0428 -0.6526
  247MOL0     H32560   6.377   4.383  10.520 -3.9779 -0.2919 -0.1438
  247MOL0     H32561   6.426   4.486  10.652  2.0466  1.7318 -4.9373
  247MOL0     H32562   6.250   4.591  10.580  0.2622 -0.6246 -0.5642
  247MOL0     H32563   6.175   4.437  10.516 -2.8392 -1.6313  2.6488
  247MOL0     H32564   6.113   4.369  10.756  0.2701  0.0508  1.9772
  247MOL0     H32565   6.043   4.524  10.718 -1.9374 -3.0881 -1.2328
  247MOL0     H32566   5.929   4.481  10.928  1.5209  1.7307  0.0434
  247MOL0     H32567   5.890   4.333  11.111  1.1915 -1.0167  2.4496
  247MOL0     H32568   5.722   4.306  11.508  2.4610  1.4069 -1.1030
  247MOL0     H32569   5.601   4.124  11.648  1.4722  1.0362  0.3792
  247MOL0     H32570   5.509   3.791  11.591  3.8841  0.5876 -3.2656
  247MOL0     H32571   5.492   3.959  11.567 -0.3505  0.5150 -0.8814
  247MOL0     H32572   5.345   3.898  11.746 -0.1514  0.7409 -0.6837
  247MOL0     H32573   5.480   3.966  11.835 -1.9802  1.4619 -1.4589
  247MOL0     H32574   5.579   3.747  11.879 -0.5489 -0.0390  0.5631
  247MOL0     H32575   5.448   3.671  11.767  1.0589 -0.0620  0.2021
  247MOL0     H32576   5.433   3.790  12.042  2.1480  1.1862 -2.5146
  247MOL0     H32577   5.291   3.730  11.942  0.0506  1.0549 -0.7203
  247MOL0     H32578   5.464   3.581  12.105 -1.0782 -1.1910  1.6502
  247MOL0     H32579   5.449   3.515  11.943  0.3449  0.1531  0.6446
  247MOL0     H32580   5.216   3.549  12.130 -1.0520 -1.5429  0.1408
  247MOL0     H32581   5.278   3.394  12.097 -1.1030 -0.0790 -0.3694
  247MOL0     H32582   5.233   3.550  11.853  1.0695  0.5171  0.7619
  247MOL0     H32583   5.210   3.374  11.890 -0.5541 -0.2442  1.1064
  247MOL0     H32584   5.030   3.596  11.960  0.1621 -1.0502  0.5909
  247MOL0     H32585   5.023   3.448  12.054  2.4187  1.8098  1.5932
  247MOL0     H32586   5.866   3.828  11.502 -1.1728 -0.7280 -0.2996
  247MOL0     H32587   5.974   3.982  11.364 -2.6377 -1.1157 -2.2497
  247MOL0     H32588   6.290   4.412  11.268  1.8730 -0.2790 -1.4686
  247MOL0     H32589   6.347   4.506  11.043  0.9703 -0.8101 -0.5476
  247MOL0     H32590   7.519   4.434  11.010 -1.1745 -1.4006  3.1189
  247MOL0     H32591   7.715   4.547  11.155  0.4498  0.8034 -0.2757
  247MOL0     H32592   7.987   4.656  11.492  0.9298  0.3906 -0.4870
  247MOL0     H32593   8.182   4.790  11.571  0.5872  1.7351 -0.6034
  247MOL0     H32594   8.590   4.918  11.418 -0.1725  0.3444 -0.3096
  247MOL0     H32595   8.490   4.858  11.283 -4.7794 -3.1173  0.7953
  247MOL0     H32596   8.619   4.693  11.512  1.1865  1.1784  0.3250
  247MOL0     H32597   8.529   4.632  11.359 -0.7214  1.3787  0.2834
  247MOL0     H32598   8.780   4.789  11.350 -3.6356  3.5172 -3.0234
  247MOL0     H32599   8.689   4.709  11.213  1.8989 -1.8735 -1.4245
  247MOL0     H32600   8.819   4.554  11.442  1.0395 -1.7310 -0.4892
  247MOL0     H32601   8.774   4.494  11.282  2.1562 -1.2850  1.7110
  247MOL0     H32602   9.154   4.577  11.205 -1.5642  2.0970 -1.1364
  247MOL0     H32603   8.369   4.704  11.196 -1.4260  1.1837 -0.7718
  247MOL0     H32604   8.193   4.563  11.136  5.2891  2.6164 -0.3865
  248MOL0     O32605   7.715   5.987   1.348 -0.4765  0.1586  0.2495
  248MOL0     C32606   7.683   6.075   1.276 -0.4069 -0.6955 -0.0914
  248MOL0     O32607   7.765   6.181   1.241  0.2400 -0.4863 -0.1358
  248MOL0     C32608   7.901   6.171   1.251  0.3303 -0.6730  0.6470
  248MOL0     C32609   7.980   6.096   1.344  0.4320 -0.8181  0.4887
  248MOL0     C32610   8.121   6.108   1.335  0.1433 -0.2399  1.1148
  248MOL0     C32611   8.182   6.188   1.239 -0.2429  0.9408 -0.5117
  248MOL0     O32612   8.316   6.202   1.247 -0.7047  0.4351  0.0310
  248MOL0     C32613   8.382   6.291   1.167 -1.0536 -0.3846  0.3295
  248MOL0     C32614   8.532   6.255   1.180 -1.0173  0.5308 -0.7051
  248MOL0     C32615   8.580   6.116   1.109  0.4234 -0.0581  0.5150
  248MOL0     C32616   8.556   6.149   0.956 -0.8687  0.4249  0.1226
  248MOL0     C32617   8.637   6.066   0.859  0.4079  0.3595  0.1905
  248MOL0     C32618   8.612   5.923   0.889 -0.4140  1.2566  0.7165
  248MOL0     C32619   8.669   5.829   0.782  0.4343 -0.0034 -0.3736
  248MOL0     C32620   8.613   5.686   0.806 -0.0206  0.1468  0.0544
  248MOL0     N32621   8.483   5.683   0.738  0.3933 -0.1277 -0.9763
  248MOL0     C32622   8.359   5.700   0.806 -0.7550  1.0836  0.7256
  248MOL0     C32623   8.262   5.701   0.712  0.0813 -1.4625  0.1072
  248MOL0     C32624   8.114   5.708   0.727 -0.7131  0.0808 -0.0241
  248MOL0     C32625   8.046   5.666   0.590  0.1930  0.4549 -0.2715
  248MOL0     C32626   7.892   5.654   0.607 -0.5035 -0.0369 -0.4345
  248MOL0     C32627   7.819   5.584   0.490  0.7321 -0.1500  0.0017
  248MOL0     O32628   7.855   5.449   0.459  0.3994  0.1644 -0.9022
  248MOL0     C32629   7.784   5.348   0.524 -0.1498 -0.5489 -0.4571
  248MOL0     C32630   7.818   5.219   0.486 -0.4378  0.7696 -0.2666
  248MOL0     C32631   7.755   5.112   0.554 -0.0781  0.3899  0.0833
  248MOL0     C32632   7.661   5.120   0.660 -0.4436 -0.7992 -0.2963
  248MOL0     C32633   7.612   5.006   0.740 -0.1006  0.8291  0.4125
  248MOL0     O32634   7.688   4.899   0.721 -0.1428 -0.6915 -0.4476
  248MOL0     C32635   7.672   4.800   0.813 -0.1734  0.3387  0.1063
  248MOL0     C32636   7.566   4.710   0.813 -0.9937  0.2555  0.3516
  248MOL0     C32637   7.559   4.601   0.896  0.3514 -1.1630 -0.0199
  248MOL0     C32638   7.644   4.587   1.001  1.4685 -0.3585 -0.4000
  248MOL0     O32639   7.606   4.492   1.109 -0.8778  0.7830 -0.2187
  248MOL0     C32640   7.696   4.490   1.220  0.1491 -0.9188  0.2852
  248MOL0     C32641   7.697   4.617   1.314  0.9210  0.1180  0.0728
  248MOL0     C32642   7.780   4.580   1.437 -0.8619  0.1604  0.6326
  248MOL0     C32643   7.776   4.700   1.530 -0.0921  0.8379  0.0753
  248MOL0     C32644   7.876   4.697   1.649 -0.6373 -0.0439  0.0441
  248MOL0     C32645   7.859   4.823   1.737  0.2948  0.1471 -0.5840
  248MOL0     C32646   7.973   4.826   1.839  0.4772  0.3870 -0.1166
  248MOL0     C32647   7.959   4.941   1.927  0.6651  0.8653  0.3728
  248MOL0    Cl32648   8.105   4.941   2.035  0.1679 -0.4552  0.0833
  248MOL0     C32649   7.754   4.677   1.001 -0.3106  0.4928  0.0979
  248MOL0     C32650   7.773   4.788   0.910  0.1899 -1.1985 -0.2763
  248MOL0     O32651   7.509   5.022   0.807  0.2887  0.3519  0.1153
  248MOL0     C32652   7.621   5.252   0.690  0.5179 -0.6046 -0.2964
  248MOL0     C32653   7.686   5.359   0.624  0.4421 -0.7624  0.0913
  248MOL0     N32654   8.330   5.713   0.591  0.5956  1.4517  0.0803
  248MOL0     N32655   8.452   5.695   0.605 -0.0834  0.8708 -0.0714
  248MOL0     C32656   8.097   6.253   1.150  0.2964  0.7035 -0.2141
  248MOL0     C32657   7.961   6.242   1.150 -0.4226  0.5666 -1.1734
  248MOL0     C32658   7.538   6.089   1.252 -1.1944  0.0421  0.5075
  248MOL0     C32659   7.475   6.194   1.182 -0.0206 -0.1483 -0.7972
  248MOL0     C32660   7.340   6.182   1.156 -0.2471 -0.0734 -0.5874
  248MOL0     C32661   7.256   6.079   1.210 -0.7375  0.5323 -0.3916
  248MOL0     O32662   7.117   6.074   1.185 -0.3849  0.0455  0.6316
  248MOL0     C32663   7.080   6.116   1.055 -0.0200 -0.8499 -0.8227
  248MOL0     C32664   6.942   6.060   1.009 -0.2924  0.1875 -0.3604
  248MOL0     C32665   6.938   5.910   1.014 -1.1424 -0.7661  0.2453
  248MOL0     C32666   6.836   5.841   0.913 -0.2090  0.8811  0.4148
  248MOL0     C32667   6.881   5.803   0.781 -0.1492  0.5438 -0.2129
  248MOL0     C32668   6.920   5.782   0.673 -0.3876  0.1972  0.1094
  248MOL0     C32669   7.318   5.986   1.287 -0.1062  0.0194  0.6742
  248MOL0     C32670   7.453   5.987   1.303 -0.8921  0.4643 -0.4276
  248MOL0     H32671   7.939   6.042   1.428 -4.1853 -0.9826 -1.5653
  248MOL0     H32672   8.172   6.052   1.414 -0.8625 -1.1789  1.1154
  248MOL0     H32673   8.366   6.396   1.193 -3.5418  0.0554 -2.3631
  248MOL0     H32674   8.359   6.281   1.060  2.4176 -0.7246 -0.5071
  248MOL0     H32675   8.568   6.248   1.283  4.0783 -0.5313 -2.3074
  248MOL0     H32676   8.586   6.340   1.137  0.2561  0.9532  1.5707
  248MOL0     H32677   8.528   6.025   1.139 -1.7193 -0.0120 -2.5768
  248MOL0     H32678   8.688   6.108   1.126  0.8368 -2.0586 -2.3963
  248MOL0     H32679   8.451   6.127   0.935 -1.0252  0.8061  0.4976
  248MOL0     H32680   8.592   6.252   0.949  1.3207  0.0794  3.9063
  248MOL0     H32681   8.741   6.094   0.875  1.1933 -1.3550 -1.5223
  248MOL0     H32682   8.606   6.092   0.757 -4.8716 -2.9407  0.5590
  248MOL0     H32683   8.503   5.916   0.892 -0.4519 -0.8481 -1.8939
  248MOL0     H32684   8.657   5.885   0.982 -1.2802  0.2065  0.7199
  248MOL0     H32685   8.638   5.867   0.684  0.0062 -3.3703 -1.6747
  248MOL0     H32686   8.777   5.813   0.788  0.4950 -0.4720 -2.1306
  248MOL0     H32687   8.613   5.657   0.912  1.8803  1.9869  0.6206
  248MOL0     H32688   8.680   5.626   0.745  0.4025  1.5907 -0.9534
  248MOL0     H32689   8.344   5.711   0.913 -2.2397 -0.5056  0.7145
  248MOL0     H32690   8.078   5.807   0.756  0.2738  0.6833 -0.7918
  248MOL0     H32691   8.085   5.634   0.802 -3.3596 -0.1018 -1.1282
  248MOL0     H32692   8.088   5.579   0.538  2.5182  1.9110 -0.9471
  248MOL0     H32693   8.060   5.741   0.513 -0.8991 -2.1141 -3.2167
  248MOL0     H32694   7.869   5.604   0.702 -0.0151  2.0122  0.8127
  248MOL0     H32695   7.858   5.757   0.613  1.6524  0.6975 -0.0810
  248MOL0     H32696   7.851   5.643   0.403  1.2965  1.9828  1.5616
  248MOL0     H32697   7.712   5.589   0.510  0.9125  1.5046  0.8203
  248MOL0     H32698   7.894   5.193   0.414  1.6827  2.2339  1.2834
  248MOL0     H32699   7.768   5.007   0.528 -3.0317 -0.2904  0.9519
  248MOL0     H32700   7.485   4.726   0.742 -0.5149 -0.3849 -0.3475
  248MOL0     H32701   7.466   4.547   0.884 -0.7905  1.0802 -2.2687
  248MOL0     H32702   7.794   4.470   1.178 -1.1178  1.2010 -4.2720
  248MOL0     H32703   7.676   4.410   1.292 -0.9025 -0.2497  0.7661
  248MOL0     H32704   7.594   4.622   1.350  1.2925  0.8424  1.0939
  248MOL0     H32705   7.724   4.712   1.267 -2.0200  1.3357  0.6170
  248MOL0     H32706   7.884   4.575   1.403  0.1491  3.4699  2.7877
  248MOL0     H32707   7.758   4.478   1.471  1.3062 -0.2818  0.8241
  248MOL0     H32708   7.799   4.792   1.476  1.7918 -0.2651 -1.1119
  248MOL0     H32709   7.674   4.694   1.570  0.5090  0.3599  1.6102
  248MOL0     H32710   7.968   4.700   1.590 -0.5977 -0.1342  0.1023
  248MOL0     H32711   7.871   4.605   1.707  2.9957 -1.1006 -1.0652
  248MOL0     H32712   7.757   4.829   1.775  0.2342  3.3877 -1.0090
  248MOL0     H32713   7.863   4.911   1.672 -0.0631  0.3572 -0.3251
  248MOL0     H32714   7.981   4.734   1.897 -1.4087  0.9141  1.0725
  248MOL0     H32715   8.060   4.841   1.774 -1.4553  4.6734 -2.1155
  248MOL0     H32716   7.869   4.933   1.989 -1.0748  4.5493 -1.4327
  248MOL0     H32717   7.962   5.036   1.874 -0.5956 -0.2485 -1.8061
  248MOL0     H32718   7.834   4.664   1.072  0.6702  3.0136 -0.4537
  248MOL0     H32719   7.858   4.856   0.913 -1.4027  0.8764 -0.4014
  248MOL0     H32720   7.525   5.273   0.736 -0.1125  0.9551 -2.2040
  248MOL0     H32721   7.654   5.459   0.653  0.2649 -0.7338 -0.1938
  248MOL0     H32722   8.145   6.297   1.063 -1.2393  2.3590 -0.2630
  248MOL0     H32723   7.901   6.299   1.080 -0.7513  0.1578 -1.2321
  248MOL0     H32724   7.533   6.283   1.161  0.0147  0.2203  0.7508
  248MOL0     H32725   7.291   6.259   1.097  1.6678  0.5916 -1.4008
  248MOL0     H32726   7.151   6.094   0.975 -2.0247  3.0541 -4.0740
  248MOL0     H32727   7.071   6.225   1.045 -2.1935 -0.8229  0.6198
  248MOL0     H32728   6.872   6.095   1.085  1.2632  1.5469  0.5186
  248MOL0     H32729   6.925   6.102   0.909  1.0779  4.6264  1.0229
  248MOL0     H32730   6.909   5.874   1.113  0.4011 -0.5358  0.7963
  248MOL0     H32731   7.038   5.873   0.994 -0.9145 -0.6549  1.1420
  248MOL0     H32732   6.794   5.752   0.961 -2.2100  0.8453 -1.2704
  248MOL0     H32733   6.756   5.913   0.893  0.3420  1.5659  0.6591
  248MOL0     H32734   6.960   5.760   0.576 -0.4905  0.6810 -0.0459
  248MOL0     H32735   7.260   5.901   1.322 -1.7750  1.3946  1.4017
  248MOL0     H32736   7.496   5.900   1.353  1.2657 -0.1726 -3.1263
  249MOL0     O32737   0.908   3.763   6.568  0.7643  0.5480 -0.3921
  249MOL0     C32738   0.985   3.821   6.640  0.8171 -0.0021  0.0443
  249MOL0     O32739   0.953   3.924   6.725  0.6525  0.2004 -0.0559
  249MOL0     C32740   0.837   3.984   6.755  0.7471  0.6892 -0.3873
  249MOL0     C32741   0.715   3.950   6.708 -0.9078 -0.5809  0.3465
  249MOL0     C32742   0.601   4.021   6.743 -0.3402 -0.6066  0.1788
  249MOL0     C32743   0.613   4.144   6.820 -0.0016  0.1637  0.1804
  249MOL0     O32744   0.492   4.195   6.862  0.1200  0.0778  1.0677
  249MOL0     C32745   0.465   4.332   6.898 -0.2017 -0.1145 -0.7855
  249MOL0     C32746   0.316   4.372   6.894  0.0164  0.3982 -0.7543
  249MOL0     C32747   0.276   4.458   6.771  0.6566  0.0393  0.1136
  249MOL0     C32748   0.295   4.607   6.773  0.0634 -0.6293  1.2322
  249MOL0     C32749   0.206   4.670   6.889 -0.7040 -1.0620 -0.1466
  249MOL0     C32750   0.243   4.819   6.885 -0.3666  0.6435  0.3699
  249MOL0     C32751   0.389   4.863   6.936 -0.3450 -0.7513  0.6696
  249MOL0     C32752   0.410   4.837   7.081 -0.0456 -0.0278 -0.2167
  249MOL0     N32753   0.486   4.714   7.098 -0.4638 -0.3975 -0.1747
  249MOL0     C32754   0.617   4.686   7.061 -0.0628 -1.1347 -0.4757
  249MOL0     C32755   0.659   4.589   7.141  0.1917 -0.0637 -0.3591
  249MOL0     C32756   0.801   4.530   7.142  0.5155  0.9516 -0.9897
  249MOL0     C32757   0.859   4.488   7.286  0.0506 -0.0051  1.1010
  249MOL0     C32758   0.765   4.391   7.365  0.3878  0.3944  1.0253
  249MOL0     C32759   0.827   4.320   7.481  0.2870 -0.6014  0.0641
  249MOL0     O32760   0.856   4.409   7.584  0.6596  0.5721 -0.4240
  249MOL0     C32761   0.979   4.462   7.601  0.0300 -0.7537 -0.1873
  249MOL0     C32762   0.992   4.603   7.620  0.9195 -0.1937 -0.3183
  249MOL0     C32763   1.106   4.670   7.667  1.1880  0.3468  1.1075
  249MOL0     C32764   1.233   4.599   7.663  0.1986  0.3133  0.1698
  249MOL0     C32765   1.364   4.661   7.703 -1.2252  0.1901  1.4623
  249MOL0     O32766   1.474   4.571   7.720 -0.3645  0.4946  0.2054
  249MOL0     C32767   1.599   4.609   7.754  1.1773 -0.7710  0.5827
  249MOL0     C32768   1.706   4.522   7.724 -0.4857  0.7410 -0.0173
  249MOL0     C32769   1.834   4.549   7.750 -0.8491 -0.5247 -0.8773
  249MOL0     C32770   1.872   4.667   7.816  0.7329  0.1302 -0.3289
  249MOL0     O32771   2.008   4.676   7.825 -0.4218 -0.6588 -0.4876
  249MOL0     C32772   2.071   4.802   7.867 -0.2893 -0.4587  0.3009
  249MOL0     C32773   2.055   4.913   7.752  0.0522 -0.9112 -1.0991
  249MOL0     C32774   2.092   5.048   7.812 -0.7722  0.2190  0.4286
  249MOL0     C32775   2.132   5.145   7.699  0.3801 -0.8944  0.1618
  249MOL0     C32776   2.008   5.219   7.636 -0.0809  0.2821  0.1987
  249MOL0     C32777   1.938   5.328   7.719 -0.4569 -0.0946 -0.0143
  249MOL0     C32778   1.829   5.395   7.635  0.6021  0.3036 -0.2119
  249MOL0     C32779   1.770   5.510   7.723  0.5132 -0.0066 -0.7255
  249MOL0    Cl32780   1.872   5.659   7.734  0.1005  0.3453 -0.0537
  249MOL0     C32781   1.770   4.744   7.862  0.0661  0.5156 -0.1133
  249MOL0     C32782   1.628   4.718   7.829  0.0900 -0.1421  0.2791
  249MOL0     O32783   1.363   4.787   7.704  0.0611 -0.4376  0.9633
  249MOL0     C32784   1.223   4.456   7.629  0.4575 -0.5441  0.1870
  249MOL0     C32785   1.095   4.394   7.609  0.4548  0.7016  0.9917
  249MOL0     N32786   0.545   4.550   7.217 -0.3430 -0.8802 -0.5696
  249MOL0     N32787   0.449   4.620   7.191  0.6175  0.2306 -0.0560
  249MOL0     C32788   0.733   4.163   6.880 -0.3581  0.6936  0.1116
  249MOL0     C32789   0.852   4.081   6.857 -0.6211 -1.4261  0.1059
  249MOL0     C32790   1.121   3.777   6.626  0.3457  0.9968  0.5491
  249MOL0     C32791   1.224   3.821   6.712  0.6416  0.6704 -1.2376
  249MOL0     C32792   1.359   3.783   6.684  0.4224 -0.6013  0.6415
  249MOL0     C32793   1.399   3.701   6.583  0.2281 -0.1974 -0.2134
  249MOL0     O32794   1.524   3.676   6.565 -0.5505 -0.2188 -0.1773
  249MOL0     C32795   1.565   3.667   6.428 -1.3901  0.0735 -0.7601
  249MOL0     C32796   1.715   3.670   6.427  0.1736 -0.1806 -0.8354
  249MOL0     C32797   1.779   3.671   6.294 -0.0543 -0.0030  0.1922
  249MOL0     C32798   1.862   3.801   6.266  0.7108 -0.7679 -0.8272
  249MOL0     C32799   1.771   3.917   6.250 -0.3458 -0.7833  0.6668
  249MOL0     C32800   1.699   4.014   6.213  0.8527  1.1674  0.4174
  249MOL0     C32801   1.295   3.658   6.497  0.2567  0.7420  0.6646
  249MOL0     C32802   1.153   3.692   6.526 -0.1985 -0.2007  0.2476
  249MOL0     H32803   0.718   3.867   6.638  0.8435 -0.9083  0.7559
  249MOL0     H32804   0.503   3.987   6.713  0.4376 -1.8885 -1.0307
  249MOL0     H32805   0.519   4.406   6.837  1.1580 -1.8323 -1.7681
  249MOL0     H32806   0.493   4.327   7.004 -3.8287  1.0843  0.3536
  249MOL0     H32807   0.269   4.418   6.981 -1.9500 -0.5766 -1.2508
  249MOL0     H32808   0.256   4.281   6.887  0.5465  0.0188 -0.4678
  249MOL0     H32809   0.167   4.453   6.760  0.9150 -3.2857 -3.0141
  249MOL0     H32810   0.325   4.409   6.686 -1.7968 -2.6322  0.0907
  249MOL0     H32811   0.400   4.634   6.783  0.1986 -1.8075  3.7850
  249MOL0     H32812   0.261   4.654   6.680  2.7571 -0.1965  0.3993
  249MOL0     H32813   0.225   4.632   6.990 -0.9151 -2.6427 -0.6649
  249MOL0     H32814   0.099   4.672   6.867 -1.1655 -0.4804  1.8722
  249MOL0     H32815   0.176   4.871   6.953  1.1199  3.9821 -0.5381
  249MOL0     H32816   0.236   4.844   6.779 -1.2219  1.3885  0.5994
  249MOL0     H32817   0.463   4.815   6.870  0.9433  1.9313  0.0458
  249MOL0     H32818   0.399   4.970   6.920 -2.2677 -0.8548 -1.8828
  249MOL0     H32819   0.309   4.835   7.125 -0.7699  2.3288 -1.6163
  249MOL0     H32820   0.461   4.924   7.124 -1.8008  1.1636 -0.4383
  249MOL0     H32821   0.696   4.736   7.005  2.6773 -2.3085  2.0647
  249MOL0     H32822   0.872   4.594   7.090  1.6833 -0.0764 -0.6985
  249MOL0     H32823   0.798   4.441   7.078 -0.5333  0.6326 -0.5301
  249MOL0     H32824   0.874   4.583   7.339 -1.5917 -0.2087  1.9933
  249MOL0     H32825   0.957   4.446   7.262  1.6068  2.7273  2.1917
  249MOL0     H32826   0.673   4.440   7.400  0.8743  1.7407  0.4884
  249MOL0     H32827   0.737   4.316   7.290  0.1671 -0.0053  1.5021
  249MOL0     H32828   0.916   4.260   7.463 -0.6880 -1.3947 -2.4936
  249MOL0     H32829   0.763   4.237   7.514  0.2143 -1.1859 -1.4548
  249MOL0     H32830   0.906   4.666   7.598 -1.4599 -3.3172 -0.6871
  249MOL0     H32831   1.106   4.777   7.681 -4.0856  0.7540 -0.0994
  249MOL0     H32832   1.678   4.424   7.686 -0.9661 -0.0093  2.1221
  249MOL0     H32833   1.912   4.476   7.732  0.4995  0.9282 -1.1128
  249MOL0     H32834   2.179   4.782   7.866 -0.1882  0.0192  1.3109
  249MOL0     H32835   2.025   4.820   7.964 -1.7633  2.3991 -0.8374
  249MOL0     H32836   1.952   4.924   7.717 -1.0214  1.5672  2.3396
  249MOL0     H32837   2.122   4.909   7.666  2.6353  6.1659 -0.0086
  249MOL0     H32838   2.182   5.033   7.873  3.1907  3.2541 -3.8971
  249MOL0     H32839   2.011   5.092   7.869 -1.1403 -0.1468  0.1953
  249MOL0     H32840   2.202   5.221   7.736  1.9353 -1.3103 -1.7511
  249MOL0     H32841   2.193   5.102   7.619  2.0981  2.5569 -0.5956
  249MOL0     H32842   1.935   5.139   7.620 -0.6063  1.0263 -1.3030
  249MOL0     H32843   2.031   5.261   7.538  1.0195 -0.2851  0.2008
  249MOL0     H32844   2.004   5.414   7.733 -0.4994  0.4662 -2.7228
  249MOL0     H32845   1.907   5.292   7.818  0.2357 -4.0097 -1.0423
  249MOL0     H32846   1.858   5.446   7.542 -0.9660  2.0226  0.1697
  249MOL0     H32847   1.772   5.307   7.604  3.5168 -1.2140 -1.7322
  249MOL0     H32848   1.753   5.476   7.825 -1.3096  1.7166 -0.4079
  249MOL0     H32849   1.676   5.548   7.684  0.5821 -1.4487 -2.4051
  249MOL0     H32850   1.794   4.833   7.919  1.0925  0.6633 -0.7596
  249MOL0     H32851   1.551   4.779   7.874 -2.1024 -2.6878  0.1995
  249MOL0     H32852   1.312   4.396   7.637 -0.9918 -2.9725 -0.7442
  249MOL0     H32853   1.099   4.285   7.608  3.3503  0.7163 -0.2362
  249MOL0     H32854   0.741   4.240   6.957 -0.9647  1.8150 -0.9067
  249MOL0     H32855   0.947   4.089   6.910 -0.5833 -0.3171 -0.1187
  249MOL0     H32856   1.197   3.890   6.792  1.0935 -0.1073 -0.4024
  249MOL0     H32857   1.435   3.821   6.752 -2.1285 -0.0519  3.3517
  249MOL0     H32858   1.533   3.752   6.367 -3.9473 -0.7472 -0.7172
  249MOL0     H32859   1.535   3.572   6.383  1.7550 -1.8578  0.8926
  249MOL0     H32860   1.750   3.755   6.487 -1.8526 -0.6122  1.1088
  249MOL0     H32861   1.754   3.581   6.478 -1.0751  0.9336  2.3679
  249MOL0     H32862   1.703   3.662   6.216 -1.5908  1.6892  1.3891
  249MOL0     H32863   1.847   3.585   6.298 -0.4569 -0.3779 -0.8499
  249MOL0     H32864   1.940   3.812   6.342  4.0258 -0.9496 -3.9203
  249MOL0     H32865   1.915   3.780   6.172 -1.8430 -2.0288 -2.1157
  249MOL0     H32866   1.636   4.092   6.174 -0.8106  1.1907  2.9604
  249MOL0     H32867   1.318   3.587   6.419 -0.3414 -0.8491  1.8798
  249MOL0     H32868   1.085   3.654   6.450  0.1102 -1.7146  0.6933
  250MOL0     O32869  10.034   0.982   2.478 -0.2641 -0.3189 -0.3867
  250MOL0     C32870  10.072   0.946   2.592 -0.4607 -0.0308 -0.0423
  250MOL0     O32871  10.180   0.997   2.652 -0.9521  0.2772 -0.0160
  250MOL0     C32872  10.236   1.102   2.581 -0.4103  0.6506 -0.2318
  250MOL0     C32873  10.345   1.074   2.499 -0.3107  0.3061 -0.4964
  250MOL0     C32874  10.385   1.169   2.404 -0.5449 -0.4837  0.2094
  250MOL0     C32875  10.327   1.293   2.392 -0.5062 -0.4309 -0.3262
  250MOL0     O32876  10.399   1.383   2.313  0.3267  0.2219  0.8357
  250MOL0     C32877  10.337   1.490   2.249  0.7985  0.8740  1.0085
  250MOL0     C32878  10.410   1.629   2.267  0.5513  0.3218  0.2771
  250MOL0     C32879  10.331   1.739   2.188 -0.5556 -0.7023 -0.0093
  250MOL0     C32880  10.420   1.873   2.169 -0.5310  0.2225 -0.5534
  250MOL0     C32881  10.335   1.991   2.116 -0.6837 -0.5750 -0.6140
  250MOL0     C32882  10.329   1.971   1.964 -0.5831  0.0675  0.1996
  250MOL0     C32883  10.244   2.060   1.892 -0.3124  0.4286  0.2321
  250MOL0     C32884  10.102   2.008   1.873  0.0834  0.2532 -0.4421
  250MOL0     N32885  10.022   2.050   1.995 -0.5462  0.5882 -0.6291
  250MOL0     C32886   9.998   2.181   2.037  1.7565  0.3800  1.5644
  250MOL0     C32887   9.929   2.156   2.155 -0.0131 -0.4099 -0.9686
  250MOL0     C32888   9.909   2.273   2.241 -0.6363 -0.3318 -0.2932
  250MOL0     C32889   9.754   2.268   2.280  0.1332 -0.1028  0.3854
  250MOL0     C32890   9.667   2.277   2.151 -1.1207  0.4676 -1.4187
  250MOL0     C32891   9.676   2.407   2.079 -0.0215 -1.2726 -0.1871
  250MOL0     O32892   9.656   2.526   2.161  0.2810 -0.2980  0.3791
  250MOL0     C32893   9.538   2.532   2.230 -0.7325  0.5208 -0.6966
  250MOL0     C32894   9.421   2.458   2.206 -0.9797  0.4512 -1.1740
  250MOL0     C32895   9.316   2.459   2.306 -0.4877 -0.1168  0.0359
  250MOL0     C32896   9.307   2.559   2.410  0.5811  0.6401 -0.6436
  250MOL0     C32897   9.179   2.572   2.496 -0.4394 -0.6036 -0.0245
  250MOL0     O32898   9.073   2.500   2.452 -0.3485 -0.2238 -0.5502
  250MOL0     C32899   8.960   2.479   2.535 -0.7119 -0.1898 -0.9665
  250MOL0     C32900   8.904   2.568   2.640  0.2003 -0.4235  0.4894
  250MOL0     C32901   8.786   2.526   2.695  0.2612  0.1414  0.7064
  250MOL0     C32902   8.726   2.403   2.666  0.1362 -0.8468 -0.6831
  250MOL0     O32903   8.617   2.354   2.732  0.9328 -0.1603 -0.7184
  250MOL0     C32904   8.591   2.394   2.867  0.5922  0.8858  0.0053
  250MOL0     C32905   8.467   2.490   2.868 -0.2749  0.5561  0.6948
  250MOL0     C32906   8.453   2.546   3.017  0.0864 -0.0558 -0.1579
  250MOL0     C32907   8.337   2.639   3.033 -0.6805 -0.2582 -1.0578
  250MOL0     C32908   8.347   2.672   3.186  0.1153 -0.1293 -0.1014
  250MOL0     C32909   8.227   2.744   3.246 -0.1800 -0.1204  0.6486
  250MOL0     C32910   8.170   2.871   3.166 -0.1525 -0.0510  1.0887
  250MOL0     C32911   8.262   2.997   3.158  0.8220  0.0733  0.6672
  250MOL0    Cl32912   8.173   3.121   3.067 -0.2160 -0.5320  0.1556
  250MOL0     C32913   8.771   2.323   2.567  0.5491  0.0673  0.2787
  250MOL0     C32914   8.891   2.358   2.507  0.0661 -0.5878  0.6875
  250MOL0     O32915   9.193   2.642   2.589  0.2987 -0.1746 -0.6434
  250MOL0     C32916   9.423   2.631   2.428 -0.1674 -0.9159  0.3398
  250MOL0     C32917   9.535   2.610   2.343  0.2300  0.3139  0.0703
  250MOL0     N32918   9.915   2.016   2.177 -0.5535 -0.0792 -0.4868
  250MOL0     N32919   9.972   1.958   2.084 -0.2882  0.3424 -0.2792
  250MOL0     C32920  10.225   1.332   2.488  0.3370  0.3683  1.0330
  250MOL0     C32921  10.172   1.225   2.566 -1.5648 -0.3222 -0.0897
  250MOL0     C32922  10.004   0.833   2.661  0.3331 -0.3202 -0.5036
  250MOL0     C32923   9.938   0.730   2.595  0.5937 -0.0548  0.9029
  250MOL0     C32924   9.851   0.635   2.667  0.4779 -0.2248  0.6168
  250MOL0     C32925   9.834   0.635   2.799 -0.1634 -0.1516 -0.4611
  250MOL0     O32926   9.762   0.531   2.862 -0.1321 -0.7011  0.5877
  250MOL0     C32927   9.765   0.516   3.005  0.2471 -0.2749 -0.0437
  250MOL0     C32928   9.896   0.470   3.074  0.1503 -1.1357 -0.2854
  250MOL0     C32929   9.874   0.352   3.170  0.0970  0.2248  1.3689
  250MOL0     C32930  10.004   0.270   3.194  0.5025 -0.1979  0.4514
  250MOL0     C32931   9.987   0.174   3.296  0.0805 -0.5879 -0.8837
  250MOL0     C32932   9.994   0.086   3.383 -0.2661  0.6032  0.2904
  250MOL0     C32933   9.904   0.739   2.869  0.3564 -0.1767  1.0505
  250MOL0     C32934   9.987   0.837   2.801 -0.6053  1.0550  0.0434
  250MOL0     H32935  10.404   0.982   2.495 -0.9241 -0.0520 -1.8921
  250MOL0     H32936  10.468   1.145   2.338  0.7652 -0.1378  1.6760
  250MOL0     H32937  10.234   1.500   2.285 -0.0512 -2.5272 -0.1019
  250MOL0     H32938  10.359   1.471   2.144  0.4167 -4.3892  1.6324
  250MOL0     H32939  10.505   1.621   2.214 -0.2305 -2.5025 -0.9006
  250MOL0     H32940  10.439   1.652   2.370  0.6992  2.0930 -0.1256
  250MOL0     H32941  10.243   1.748   2.253 -0.7535  1.1769 -0.4912
  250MOL0     H32942  10.295   1.713   2.087 -2.6207  4.0100 -0.7250
  250MOL0     H32943  10.456   1.900   2.269 -0.3487 -0.7699 -0.3401
  250MOL0     H32944  10.507   1.853   2.106  0.1243  0.9544  0.0990
  250MOL0     H32945  10.367   2.093   2.141 -1.9181 -0.8151  2.3751
  250MOL0     H32946  10.239   1.992   2.168  1.1614  1.1436  3.2017
  250MOL0     H32947  10.292   1.869   1.950  0.0580  0.2103 -3.6210
  250MOL0     H32948  10.430   1.976   1.922 -0.8901  0.8496 -0.4713
  250MOL0     H32949  10.239   2.162   1.933  3.6123  1.1228 -0.6571
  250MOL0     H32950  10.285   2.069   1.791  1.3405 -0.9198  0.7436
  250MOL0     H32951  10.089   1.899   1.870  1.3991 -0.1729  3.2550
  250MOL0     H32952  10.054   2.047   1.783 -0.3080  3.0483  0.8651
  250MOL0     H32953  10.010   2.282   1.998 -0.7060  0.5348  1.0663
  250MOL0     H32954   9.924   2.372   2.195  2.6066 -0.4655  0.2224
  250MOL0     H32955   9.976   2.258   2.326  0.1179  1.9704 -0.4053
  250MOL0     H32956   9.730   2.355   2.342  1.8969 -0.0145  0.9949
  250MOL0     H32957   9.734   2.185   2.349 -0.4970  1.4159  2.1133
  250MOL0     H32958   9.687   2.188   2.090  0.1375 -0.6569  0.5099
  250MOL0     H32959   9.569   2.245   2.187  0.1487  0.3897  2.5408
  250MOL0     H32960   9.607   2.391   1.996 -3.5433 -2.0873  2.6392
  250MOL0     H32961   9.777   2.409   2.037  0.9447 -0.6019  1.9872
  250MOL0     H32962   9.412   2.400   2.116  1.7009 -1.8200 -0.1195
  250MOL0     H32963   9.237   2.385   2.295 -1.0554  0.3735  0.7153
  250MOL0     H32964   8.956   2.658   2.669  1.8731 -0.3007 -2.5222
  250MOL0     H32965   8.740   2.598   2.761  2.1586  1.0339  1.1313
  250MOL0     H32966   8.678   2.438   2.916  2.2583  0.6523 -2.5958
  250MOL0     H32967   8.560   2.299   2.913  0.5063  0.8113 -0.2033
  250MOL0     H32968   8.375   2.440   2.837 -0.0536  0.6913 -0.2136
  250MOL0     H32969   8.487   2.573   2.798 -0.4295 -2.5707 -3.4564
  250MOL0     H32970   8.554   2.580   3.042 -0.3178  0.6336  0.5825
  250MOL0     H32971   8.440   2.453   3.073  1.7740 -1.1621 -1.4767
  250MOL0     H32972   8.336   2.730   2.973 -3.1628 -1.0739 -2.3867
  250MOL0     H32973   8.248   2.580   3.012  0.0862 -0.8797 -2.7343
  250MOL0     H32974   8.439   2.726   3.211  0.2091  1.8851 -4.0609
  250MOL0     H32975   8.367   2.577   3.237 -1.7117  1.3654  3.8178
  250MOL0     H32976   8.245   2.789   3.343 -1.5689 -0.9132  1.3130
  250MOL0     H32977   8.150   2.666   3.253  0.0437 -0.4675 -0.4534
  250MOL0     H32978   8.145   2.831   3.067 -2.5301 -0.0100  1.6059
  250MOL0     H32979   8.076   2.910   3.208 -0.4124  1.1148 -0.4610
  250MOL0     H32980   8.345   2.967   3.093 -0.4206 -1.0262 -0.4530
  250MOL0     H32981   8.289   3.041   3.255 -1.0249 -1.1007  1.7687
  250MOL0     H32982   8.727   2.226   2.549  1.2527 -1.0089  3.6451
  250MOL0     H32983   8.933   2.293   2.431 -3.1207  0.3388 -2.1223
  250MOL0     H32984   9.435   2.716   2.494  3.6321  2.2766 -3.8378
  250MOL0     H32985   9.636   2.650   2.354  0.2929  0.6088 -1.3684
  250MOL0     H32986  10.182   1.432   2.501 -0.3604  0.2467 -0.1663
  250MOL0     H32987  10.076   1.231   2.616 -1.3702 -1.1831  0.4040
  250MOL0     H32988   9.955   0.711   2.489 -0.1988  0.5407  0.6561
  250MOL0     H32989   9.810   0.550   2.613 -0.2396  1.5112 -1.7420
  250MOL0     H32990   9.681   0.448   3.024 -0.0355 -0.1483 -0.8120
  250MOL0     H32991   9.732   0.609   3.053  5.1093  1.0095  1.4081
  250MOL0     H32992   9.968   0.435   3.000  1.3217  1.7601 -0.6190
  250MOL0     H32993   9.941   0.561   3.115 -0.6184 -0.3936 -1.0569
  250MOL0     H32994   9.794   0.288   3.131  0.7079  0.5017 -0.4431
  250MOL0     H32995   9.850   0.400   3.265  3.4194  0.3412  2.2851
  250MOL0     H32996  10.031   0.225   3.098  2.4208 -0.5279  1.0957
  250MOL0     H32997  10.081   0.339   3.232  1.4607 -1.7416  1.4162
  250MOL0     H32998   9.987   0.011   3.460 -0.1999 -0.6335 -0.8677
  250MOL0     H32999   9.901   0.757   2.976  3.4745  1.0646  1.0112
  250MOL0     H33000  10.034   0.920   2.853  2.7310  1.4395 -3.1511
  251MOL0     O33001   1.746   5.949   5.723 -0.5888 -0.4770  0.1611
  251MOL0     C33002   1.703   5.890   5.821 -0.1508  0.7129 -0.4939
  251MOL0     O33003   1.580   5.906   5.871  0.5820  0.1612  0.3507
  251MOL0     C33004   1.494   6.007   5.812 -0.0629  0.8202 -0.4671
  251MOL0     C33005   1.444   6.121   5.884  0.0354 -0.2236 -0.2354
  251MOL0     C33006   1.387   6.231   5.819 -0.5137  0.2304 -0.5600
  251MOL0     C33007   1.349   6.217   5.686 -0.5968 -1.6344  0.1376
  251MOL0     O33008   1.287   6.318   5.622  0.4351  0.0998 -0.6132
  251MOL0     C33009   1.279   6.329   5.478 -0.8519  0.1099  0.3856
  251MOL0     C33010   1.226   6.466   5.444  0.4271 -0.7672  0.0278
  251MOL0     C33011   1.192   6.486   5.294  0.9624 -0.3314 -0.7598
  251MOL0     C33012   1.314   6.479   5.196 -0.6480 -0.0206  0.8810
  251MOL0     C33013   1.416   6.583   5.224 -0.4472 -0.4766 -0.6827
  251MOL0     C33014   1.465   6.653   5.094  0.3629  1.0790  0.3813
  251MOL0     C33015   1.583   6.745   5.110 -0.7527 -0.2106 -0.5148
  251MOL0     C33016   1.549   6.890   5.158 -0.3443  0.2873  0.7144
  251MOL0     N33017   1.461   6.958   5.050 -0.8724  0.2665 -0.7498
  251MOL0     C33018   1.517   7.038   4.951 -0.6018  0.5450  0.3785
  251MOL0     C33019   1.408   7.084   4.883 -0.1576 -0.1823  1.8622
  251MOL0     C33020   1.410   7.165   4.749  0.0285  0.5387 -0.0891
  251MOL0     C33021   1.539   7.137   4.666 -1.3906  0.2147 -0.1050
  251MOL0     C33022   1.550   7.227   4.545 -0.5074  0.1522  0.3901
  251MOL0     C33023   1.677   7.170   4.468  0.0452 -0.6927 -0.2596
  251MOL0     O33024   1.662   7.034   4.423 -0.0283 -0.5674  0.3261
  251MOL0     C33025   1.760   6.957   4.376 -0.0909 -0.2692  0.5217
  251MOL0     C33026   1.723   6.858   4.286  0.8928 -0.1620  0.7016
  251MOL0     C33027   1.828   6.767   4.247 -0.5355  0.0445  1.3728
  251MOL0     C33028   1.956   6.773   4.293 -0.4265 -0.5937  0.8942
  251MOL0     C33029   2.058   6.663   4.256  0.2256 -0.6318 -0.3306
  251MOL0     O33030   2.016   6.552   4.188 -0.0635  0.5202  0.8488
  251MOL0     C33031   2.104   6.443   4.184 -0.6376  0.5109  0.0031
  251MOL0     C33032   2.191   6.413   4.071 -0.0202  0.0156  1.0105
  251MOL0     C33033   2.286   6.317   4.078 -0.1613 -0.4587 -0.6118
  251MOL0     C33034   2.294   6.239   4.192  0.1934  1.0512  0.2179
  251MOL0     O33035   2.389   6.141   4.174 -0.0664 -0.3954 -0.1622
  251MOL0     C33036   2.397   6.037   4.273  0.1200 -0.3311  0.1789
  251MOL0     C33037   2.290   5.934   4.277  0.2755  1.0457 -0.1309
  251MOL0     C33038   2.294   5.827   4.396 -0.2632  0.1866 -0.5230
  251MOL0     C33039   2.265   5.891   4.532  0.4650  1.1252  0.2848
  251MOL0     C33040   2.250   5.780   4.640  0.2829  0.6326 -0.1402
  251MOL0     C33041   2.204   5.843   4.775 -0.5530 -0.3943  0.6033
  251MOL0     C33042   2.135   5.754   4.869 -0.7522 -0.7835 -0.0123
  251MOL0     C33043   2.160   5.782   5.019  0.4540 -0.4822 -0.5612
  251MOL0    Cl33044   2.105   5.951   5.060  0.3377 -0.2046 -0.0968
  251MOL0     C33045   2.210   6.264   4.304 -0.4439  1.1009  0.1799
  251MOL0     C33046   2.121   6.370   4.304  0.0228 -0.0208  0.4562
  251MOL0     O33047   2.168   6.679   4.306  0.7133  0.0839  0.3431
  251MOL0     C33048   1.994   6.887   4.369  0.9643 -0.7286  0.2482
  251MOL0     C33049   1.896   6.974   4.410  0.4922  0.4625  0.1012
  251MOL0     N33050   1.300   7.041   4.960 -0.1066 -0.6478 -0.8326
  251MOL0     N33051   1.332   6.976   5.056 -0.0092  0.2820  0.8484
  251MOL0     C33052   1.380   6.101   5.622 -0.3923  1.8513  0.7775
  251MOL0     C33053   1.457   6.002   5.680 -0.3660  1.0635 -0.8486
  251MOL0     C33054   1.797   5.816   5.905 -0.0977  0.1065 -0.6742
  251MOL0     C33055   1.781   5.793   6.041  0.9980  0.2514 -0.0645
  251MOL0     C33056   1.878   5.727   6.121 -0.2977 -0.2165 -0.3721
  251MOL0     C33057   1.991   5.666   6.062 -0.8473  0.2475 -0.1050
  251MOL0     O33058   2.081   5.597   6.133  0.1207 -0.2740  0.4617
  251MOL0     C33059   2.041   5.564   6.262  0.1949  0.1885  1.4025
  251MOL0     C33060   2.128   5.438   6.308  0.6606 -0.3524  0.5344
  251MOL0     C33061   2.283   5.455   6.294  0.7246  0.0474  0.7099
  251MOL0     C33062   2.335   5.547   6.404  0.5943  0.8115  0.8429
  251MOL0     C33063   2.329   5.460   6.526 -0.9449  0.1432 -0.2311
  251MOL0     C33064   2.347   5.373   6.608 -0.4826  0.4853 -0.1258
  251MOL0     C33065   2.000   5.674   5.925  0.6580 -0.6827 -1.1805
  251MOL0     C33066   1.912   5.757   5.852  0.7352 -0.2685 -0.2934
  251MOL0     H33067   1.473   6.114   5.989 -0.0058 -1.0996 -0.2696
  251MOL0     H33068   1.374   6.318   5.883  0.3457 -1.5256  2.2268
  251MOL0     H33069   1.218   6.248   5.437 -0.3628  0.4990 -1.2193
  251MOL0     H33070   1.378   6.315   5.433  0.0699  0.5583  2.2060
  251MOL0     H33071   1.308   6.532   5.473 -0.2344  0.3996 -0.7168
  251MOL0     H33072   1.130   6.488   5.490  0.6737  2.1033 -0.6610
  251MOL0     H33073   1.144   6.583   5.287  0.6077 -0.3061  1.3039
  251MOL0     H33074   1.113   6.416   5.262  3.0822 -2.1712 -2.3202
  251MOL0     H33075   1.357   6.378   5.191  3.5557  1.5211  1.8469
  251MOL0     H33076   1.278   6.499   5.095  0.4881 -0.0513  0.4566
  251MOL0     H33077   1.505   6.538   5.269 -0.0421  2.4888  1.8677
  251MOL0     H33078   1.374   6.665   5.284  1.8809 -0.4374  1.0617
  251MOL0     H33079   1.380   6.697   5.039 -0.7339 -0.5878  0.6857
  251MOL0     H33080   1.500   6.573   5.028  0.9567  1.7746 -0.1677
  251MOL0     H33081   1.650   6.694   5.180 -1.4884  1.3567  1.4364
  251MOL0     H33082   1.640   6.740   5.017  0.1383 -2.3125  0.0864
  251MOL0     H33083   1.633   6.954   5.188 -1.2591  0.7984  2.3377
  251MOL0     H33084   1.478   6.893   5.241 -3.0200  0.2762 -1.4597
  251MOL0     H33085   1.624   7.054   4.943 -0.0284 -2.1169  1.7658
  251MOL0     H33086   1.399   7.272   4.766 -0.3601  0.4618  0.1656
  251MOL0     H33087   1.323   7.130   4.692  2.7878 -3.1279 -2.5139
  251MOL0     H33088   1.542   7.031   4.639  0.8449  0.7060 -2.1587
  251MOL0     H33089   1.629   7.143   4.728 -0.5801 -0.1276 -1.2069
  251MOL0     H33090   1.460   7.229   4.483 -2.0584  1.2210  2.5289
  251MOL0     H33091   1.582   7.326   4.580 -1.1590  0.5452 -0.1033
  251MOL0     H33092   1.768   7.186   4.526 -1.2413  0.7344  1.4879
  251MOL0     H33093   1.701   7.237   4.385  0.0491  2.9556  2.4355
  251MOL0     H33094   1.619   6.843   4.257  1.0587  2.1204 -1.4404
  251MOL0     H33095   1.802   6.682   4.184 -0.6529 -0.1573  1.6921
  251MOL0     H33096   2.189   6.462   3.974 -0.0569  0.6500  1.3214
  251MOL0     H33097   2.341   6.292   3.987 -0.2788  0.6362 -1.0026
  251MOL0     H33098   2.411   6.065   4.378 -2.1003 -2.2112  1.0656
  251MOL0     H33099   2.488   5.980   4.249  0.9666  0.1319  2.0927
  251MOL0     H33100   2.295   5.873   4.186 -2.1860 -1.3273  1.1760
  251MOL0     H33101   2.193   5.981   4.293 -0.5396 -0.6137  0.0624
  251MOL0     H33102   2.393   5.781   4.395  1.3376  3.0488  2.5630
  251MOL0     H33103   2.215   5.753   4.389 -0.1151 -0.2523  1.7266
  251MOL0     H33104   2.341   5.965   4.559  0.4611  1.7665 -1.3119
  251MOL0     H33105   2.166   5.937   4.524  0.5303  1.1139 -0.6990
  251MOL0     H33106   2.338   5.718   4.652 -0.5342 -1.2135 -2.7834
  251MOL0     H33107   2.172   5.714   4.601  1.4010 -1.1774  0.5805
  251MOL0     H33108   2.134   5.925   4.756  0.4058  1.1620  3.2835
  251MOL0     H33109   2.288   5.894   4.824  0.4218 -2.3847  1.1361
  251MOL0     H33110   2.026   5.750   4.856 -0.7763  0.0871 -0.1338
  251MOL0     H33111   2.166   5.651   4.851 -1.0119 -0.8927  0.1457
  251MOL0     H33112   2.265   5.769   5.044  1.3279  0.4369 -3.3392
  251MOL0     H33113   2.097   5.715   5.077  1.4029  1.5158  3.0528
  251MOL0     H33114   2.209   6.192   4.386  0.4400  1.1354  0.2307
  251MOL0     H33115   2.056   6.404   4.384  0.7582  2.5383  0.0627
  251MOL0     H33116   2.095   6.909   4.402  0.4986 -0.5683  1.6276
  251MOL0     H33117   1.927   7.058   4.472  1.0070 -1.8628  3.2505
  251MOL0     H33118   1.357   6.082   5.518 -1.6740  2.6914  0.8891
  251MOL0     H33119   1.476   5.928   5.602 -1.5520  2.3071 -2.3925
  251MOL0     H33120   1.694   5.820   6.101  0.9290 -2.5728  1.3046
  251MOL0     H33121   1.861   5.718   6.228  1.2313 -0.4961 -0.1248
  251MOL0     H33122   1.936   5.533   6.255 -0.3476  1.8576  1.4489
  251MOL0     H33123   2.054   5.648   6.331  2.8143  0.2250  0.9374
  251MOL0     H33124   2.108   5.411   6.412  0.1084  2.7634  1.3379
  251MOL0     H33125   2.099   5.355   6.243  0.2557  0.6764 -0.6455
  251MOL0     H33126   2.306   5.497   6.195 -2.8363 -0.1184 -0.3199
  251MOL0     H33127   2.327   5.355   6.293  0.4629 -0.1334 -1.9603
  251MOL0     H33128   2.430   5.600   6.396 -1.5011  4.8085 -0.2743
  251MOL0     H33129   2.268   5.632   6.423 -0.2218  0.5816 -0.7549
  251MOL0     H33130   2.372   5.308   6.690 -0.0809  2.1306  1.1016
  251MOL0     H33131   2.073   5.606   5.882  1.3102 -1.2936  0.7818
  251MOL0     H33132   1.910   5.770   5.744 -0.5997 -2.3079 -0.5713
  252MOL0     O33133   3.455   7.732   2.843  0.4542 -0.1359 -0.2529
  252MOL0     C33134   3.533   7.815   2.794 -1.5766 -0.1636 -0.1932
  252MOL0     O33135   3.619   7.906   2.864  0.2427  0.4865  0.1888
  252MOL0     C33136   3.617   7.883   2.997  0.8499  0.2185  0.1475
  252MOL0     C33137   3.725   7.849   3.062 -0.6958  0.7963 -1.1319
  252MOL0     C33138   3.747   7.839   3.198 -0.0023  0.0862  0.6010
  252MOL0     C33139   3.642   7.869   3.282 -0.9322 -0.8740 -0.4153
  252MOL0     O33140   3.673   7.885   3.411 -0.3846 -0.6092 -0.0352
  252MOL0     C33141   3.573   7.850   3.492 -0.2506  0.6934 -0.6686
  252MOL0     C33142   3.617   7.822   3.629 -0.3583 -0.7976  0.1754
  252MOL0     C33143   3.724   7.713   3.652 -0.7471  0.2718  0.2076
  252MOL0     C33144   3.681   7.581   3.579 -0.0485  0.1242 -0.1527
  252MOL0     C33145   3.749   7.451   3.627  0.7880 -0.5674 -0.3706
  252MOL0     C33146   3.692   7.421   3.766 -0.0383  0.7396 -0.7538
  252MOL0     C33147   3.802   7.403   3.868 -0.3397 -0.6392  0.4668
  252MOL0     C33148   3.919   7.300   3.844 -0.6513 -0.4817 -0.8934
  252MOL0     N33149   3.864   7.174   3.869 -0.5893  0.2412 -0.6067
  252MOL0     C33150   3.764   7.114   3.800  0.3176  0.5262 -0.7796
  252MOL0     C33151   3.761   6.986   3.858  1.0736 -0.8343  0.1043
  252MOL0     C33152   3.672   6.864   3.823  0.4630 -0.5262  0.0329
  252MOL0     C33153   3.539   6.866   3.903 -0.1055 -0.2111  0.5387
  252MOL0     C33154   3.548   6.825   4.051  0.1735 -0.1578 -0.1151
  252MOL0     C33155   3.600   6.684   4.075 -0.6865 -0.0151  1.1498
  252MOL0     O33156   3.510   6.588   4.010  0.4033  0.6388  0.9287
  252MOL0     C33157   3.571   6.461   3.995 -0.7150 -0.1142  0.2884
  252MOL0     C33158   3.687   6.420   4.066  0.5446  0.9804  0.2792
  252MOL0     C33159   3.749   6.299   4.025  0.4414  0.3805 -0.5259
  252MOL0     C33160   3.696   6.212   3.935 -1.8083 -0.5252  0.7800
  252MOL0     C33161   3.772   6.092   3.898 -0.2023  0.7032  0.6296
  252MOL0     O33162   3.906   6.098   3.886 -0.0171  0.7318  0.1727
  252MOL0     C33163   3.980   5.985   3.881 -0.0972 -0.0863 -0.1477
  252MOL0     C33164   4.035   5.928   3.991 -0.9353  0.0868  0.9682
  252MOL0     C33165   4.095   5.796   3.985 -0.4364  0.0433  0.2500
  252MOL0     C33166   4.108   5.727   3.864 -0.5256  0.0439 -0.0893
  252MOL0     O33167   4.175   5.608   3.866 -0.1745  0.6828 -0.0486
  252MOL0     C33168   4.190   5.538   3.743 -0.3979 -0.3275  1.3563
  252MOL0     C33169   4.222   5.389   3.762 -0.0215  0.4618  0.6043
  252MOL0     C33170   4.246   5.296   3.639 -0.1002 -0.0130  0.2984
  252MOL0     C33171   4.261   5.145   3.668  0.0368  0.6675 -0.0267
  252MOL0     C33172   4.336   5.086   3.546  0.4659 -0.2631  0.4885
  252MOL0     C33173   4.395   4.954   3.593 -0.8903 -0.1290  0.5356
  252MOL0     C33174   4.474   4.904   3.466  0.6756  0.2538 -0.0864
  252MOL0     C33175   4.572   4.786   3.482 -0.2892  0.6712  0.0998
  252MOL0    Cl33176   4.690   4.823   3.603 -0.8471 -0.5019  0.3794
  252MOL0     C33177   4.065   5.787   3.750  0.5506 -0.1554  0.6105
  252MOL0     C33178   4.001   5.916   3.755 -0.1348 -0.8889 -0.4279
  252MOL0     O33179   3.711   5.992   3.865 -0.1703  0.4653  0.5462
  252MOL0     C33180   3.570   6.249   3.876  0.0498  1.1922  0.0588
  252MOL0     C33181   3.519   6.371   3.903  0.4084  0.5469 -0.3276
  252MOL0     N33182   3.846   6.982   3.966  0.5941  0.5293  0.6239
  252MOL0     N33183   3.918   7.084   3.959 -0.2075  0.4508  0.0085
  252MOL0     C33184   3.525   7.913   3.213 -0.4201  0.0291  0.2773
  252MOL0     C33185   3.510   7.930   3.077  0.8210 -0.3879  0.3975
  252MOL0     C33186   3.533   7.833   2.646  0.1951  0.5232 -0.7869
  252MOL0     C33187   3.634   7.911   2.580  0.7834 -0.4770  0.0884
  252MOL0     C33188   3.615   7.934   2.443 -0.4635 -0.1636 -0.5933
  252MOL0     C33189   3.524   7.872   2.367 -0.3272  0.0102 -0.6830
  252MOL0     O33190   3.497   7.905   2.240  0.6536  0.1791  0.5835
  252MOL0     C33191   3.590   7.973   2.168 -0.5641  0.8134  0.8888
  252MOL0     C33192   3.600   7.909   2.026  0.1351  0.0858 -0.9960
  252MOL0     C33193   3.660   7.764   2.047 -0.1591 -0.6630  0.2553
  252MOL0     C33194   3.654   7.690   1.910 -0.7684  0.2005  0.1647
  252MOL0     C33195   3.729   7.563   1.916  0.4899 -0.0530 -0.0343
  252MOL0     C33196   3.797   7.465   1.914 -0.0139  0.3928 -1.3461
  252MOL0     C33197   3.434   7.791   2.434  0.8139 -0.0914 -0.6076
  252MOL0     C33198   3.438   7.766   2.572  0.3767 -0.1030  0.5922
  252MOL0     H33199   3.814   7.845   3.001  1.8135  1.1375  2.2186
  252MOL0     H33200   3.842   7.846   3.251 -0.9870  3.4315  2.2171
  252MOL0     H33201   3.531   7.754   3.458  0.1432  0.3532 -0.2169
  252MOL0     H33202   3.489   7.920   3.493 -0.0314  0.9863  1.4700
  252MOL0     H33203   3.529   7.791   3.686 -0.2195 -0.5169  0.5422
  252MOL0     H33204   3.666   7.908   3.674 -1.8942  0.4265 -0.4223
  252MOL0     H33205   3.730   7.698   3.760  1.3425 -3.7955 -0.2864
  252MOL0     H33206   3.821   7.755   3.626 -0.3577 -1.4713 -1.3672
  252MOL0     H33207   3.573   7.590   3.592  0.0520  4.8958 -1.0283
  252MOL0     H33208   3.692   7.593   3.471 -2.0653 -0.4248 -0.4603
  252MOL0     H33209   3.853   7.481   3.645  0.0591  0.0418  4.0479
  252MOL0     H33210   3.750   7.366   3.559  1.0257 -0.9438  0.0928
  252MOL0     H33211   3.632   7.331   3.779 -0.8166  1.4136  0.5842
  252MOL0     H33212   3.624   7.503   3.794 -1.4258  0.8324 -4.0307
  252MOL0     H33213   3.855   7.498   3.872  2.6394 -2.1974  1.2419
  252MOL0     H33214   3.757   7.384   3.966 -0.3686 -0.9001  0.4035
  252MOL0     H33215   3.999   7.322   3.916 -0.0478  1.7642 -2.1757
  252MOL0     H33216   3.957   7.297   3.742  0.7017 -3.3848 -0.3994
  252MOL0     H33217   3.702   7.128   3.713  0.3140 -1.4759 -1.1494
  252MOL0     H33218   3.737   6.778   3.841  0.6960 -0.1251  1.1948
  252MOL0     H33219   3.645   6.866   3.717 -0.9158 -2.1589  0.3099
  252MOL0     H33220   3.480   6.790   3.850  1.7671 -1.4482  0.1500
  252MOL0     H33221   3.501   6.968   3.895  2.9339  0.8578 -1.8691
  252MOL0     H33222   3.620   6.896   4.093  0.7512 -1.0045  0.3700
  252MOL0     H33223   3.447   6.837   4.091  0.4047 -1.0044  0.7671
  252MOL0     H33224   3.601   6.655   4.180 -0.5041 -1.4561  0.7749
  252MOL0     H33225   3.702   6.671   4.036 -0.9522  0.2077  0.3483
  252MOL0     H33226   3.739   6.469   4.148  2.1446  1.9050 -1.2310
  252MOL0     H33227   3.846   6.274   4.069  0.0885 -1.0248 -0.4707
  252MOL0     H33228   4.036   5.978   4.087 -1.5555  2.0690 -0.0025
  252MOL0     H33229   4.134   5.746   4.073  3.6237  1.0707 -0.7684
  252MOL0     H33230   4.277   5.585   3.696 -0.5462 -0.9082  0.4875
  252MOL0     H33231   4.106   5.540   3.673 -0.4493 -0.4476  1.4148
  252MOL0     H33232   4.157   5.332   3.830  0.3656  1.7725  2.1331
  252MOL0     H33233   4.313   5.408   3.820 -0.5624  1.6827  1.0959
  252MOL0     H33234   4.339   5.335   3.596 -0.0045 -0.9892 -0.4323
  252MOL0     H33235   4.171   5.307   3.560 -1.4802  0.6135  1.6474
  252MOL0     H33236   4.318   5.118   3.757  0.7631  3.3000  0.3648
  252MOL0     H33237   4.168   5.088   3.680  1.3894 -1.3141  1.8273
  252MOL0     H33238   4.414   5.152   3.507 -0.2677 -0.8673 -2.2211
  252MOL0     H33239   4.270   5.072   3.460 -1.5741 -0.6561  2.0473
  252MOL0     H33240   4.324   4.876   3.621  0.1496 -0.3716  2.7013
  252MOL0     H33241   4.466   4.962   3.676  0.3760 -5.0708  0.2398
  252MOL0     H33242   4.400   4.865   3.396  1.2746  0.0283 -0.5999
  252MOL0     H33243   4.527   4.983   3.413 -2.7071  2.7272 -0.0916
  252MOL0     H33244   4.626   4.750   3.393 -1.5237 -3.1831  0.7206
  252MOL0     H33245   4.523   4.698   3.524  1.7906  0.7386  2.9264
  252MOL0     H33246   4.088   5.754   3.649 -0.4049  0.4789  0.1719
  252MOL0     H33247   3.976   5.978   3.670 -0.2254  0.1021  0.3065
  252MOL0     H33248   3.520   6.179   3.810  1.2387 -0.3011  0.6769
  252MOL0     H33249   3.418   6.389   3.869  0.3443  0.2655 -0.2934
  252MOL0     H33250   3.451   7.970   3.269 -0.9625 -1.1156  0.7454
  252MOL0     H33251   3.430   7.990   3.037  2.5152  2.1627  0.5875
  252MOL0     H33252   3.707   7.963   2.642  3.5791 -2.6382 -1.1696
  252MOL0     H33253   3.695   7.996   2.405 -0.5748  0.7097  0.5543
  252MOL0     H33254   3.694   7.973   2.201  0.3704  0.0679 -1.8301
  252MOL0     H33255   3.560   8.078   2.158 -0.6203  0.5870 -2.6980
  252MOL0     H33256   3.502   7.905   1.976 -0.1922 -1.1197 -0.3145
  252MOL0     H33257   3.658   7.972   1.958 -0.0467  1.0882 -0.2327
  252MOL0     H33258   3.599   7.712   2.122  1.5834 -1.4928  1.1690
  252MOL0     H33259   3.762   7.761   2.087 -0.1042  0.7848  0.2520
  252MOL0     H33260   3.549   7.674   1.885 -0.1080 -1.9578 -1.4985
  252MOL0     H33261   3.697   7.750   1.829  2.5523 -0.2786  1.4309
  252MOL0     H33262   3.854   7.376   1.926 -2.5056 -1.1044  0.2370
  252MOL0     H33263   3.355   7.742   2.378  0.0386 -0.7321  0.9695
  252MOL0     H33264   3.378   7.690   2.622  0.7799 -1.6526 -1.1494
  253MOL0     O33265   9.480   5.992   8.408  0.0324  0.2461 -0.5835
  253MOL0     C33266   9.552   5.969   8.312 -0.6097 -0.3629 -0.2870
  253MOL0     O33267   9.526   5.995   8.184  0.2143 -0.9046  0.3818
  253MOL0     C33268   9.399   6.053   8.155 -0.0210 -1.2924 -0.3493
  253MOL0     C33269   9.384   6.163   8.079  0.1301 -0.7223 -0.8470
  253MOL0     C33270   9.262   6.210   8.037  0.0688  0.3652 -0.6668
  253MOL0     C33271   9.148   6.141   8.081 -0.1182  0.1783 -0.5173
  253MOL0     O33272   9.025   6.179   8.053  0.4830  1.3223  0.6285
  253MOL0     C33273   9.007   6.296   7.972  0.5621 -0.0645 -0.5029
  253MOL0     C33274   8.859   6.334   7.966 -0.3619 -0.4366 -0.7438
  253MOL0     C33275   8.823   6.475   7.913 -0.0333 -0.7307 -0.1280
  253MOL0     C33276   8.683   6.478   7.855 -0.1911 -0.1643  0.8154
  253MOL0     C33277   8.615   6.612   7.832 -0.6126 -0.0972  0.4003
  253MOL0     C33278   8.469   6.586   7.784  0.7763 -0.1199 -0.4145
  253MOL0     C33279   8.391   6.718   7.767  0.4112  0.0627 -0.0653
  253MOL0     C33280   8.395   6.758   7.617  0.4626 -0.1601 -0.0237
  253MOL0     N33281   8.356   6.902   7.605  0.6930 -0.4340  0.9115
  253MOL0     C33282   8.438   7.007   7.569 -0.2477 -1.0749 -0.4275
  253MOL0     C33283   8.357   7.120   7.568 -0.1734 -1.4559  0.1623
  253MOL0     C33284   8.399   7.266   7.547  0.2761 -0.1188  0.8207
  253MOL0     C33285   8.475   7.306   7.671 -0.6378  0.5265  0.5357
  253MOL0     C33286   8.539   7.446   7.651 -0.0733  0.0149  0.3727
  253MOL0     C33287   8.623   7.484   7.763 -0.4210  0.0226 -0.1539
  253MOL0     O33288   8.756   7.429   7.753  1.0283 -0.5867 -0.6383
  253MOL0     C33289   8.828   7.465   7.860 -0.1862 -1.3924  0.7560
  253MOL0     C33290   8.944   7.535   7.836  0.0590  0.1255  0.6639
  253MOL0     C33291   9.018   7.578   7.948 -0.0344  0.0780 -0.1546
  253MOL0     C33292   8.980   7.554   8.078 -0.5384 -0.3018  0.4642
  253MOL0     C33293   9.074   7.604   8.183  0.3704 -0.0663 -0.4547
  253MOL0     O33294   9.033   7.574   8.310 -0.1925 -0.5313 -0.5458
  253MOL0     C33295   9.123   7.577   8.420  0.1709  0.1900  0.5818
  253MOL0     C33296   9.059   7.573   8.542 -0.0989 -0.2443  0.2744
  253MOL0     C33297   9.135   7.529   8.659 -0.2068  0.2202 -0.3391
  253MOL0     C33298   9.277   7.529   8.650  0.1156  0.4386 -0.0458
  253MOL0     O33299   9.358   7.543   8.759  0.4296  0.4467  0.4303
  253MOL0     C33300   9.305   7.563   8.890 -0.5933  0.6124 -1.1738
  253MOL0     C33301   9.397   7.663   8.956 -0.2617  0.4275  0.0618
  253MOL0     C33302   9.509   7.581   9.021 -0.3986 -0.6949 -0.3562
  253MOL0     C33303   9.623   7.663   9.067 -0.0313 -0.1092  0.3587
  253MOL0     C33304   9.590   7.742   9.193 -0.6293 -0.6356 -0.3082
  253MOL0     C33305   9.715   7.785   9.257 -0.6086  0.0661 -0.3647
  253MOL0     C33306   9.700   7.918   9.328 -0.3487  0.3421  0.0240
  253MOL0     C33307   9.621   7.904   9.449  0.2187 -0.6820 -0.5222
  253MOL0    Cl33308   9.689   7.824   9.594  0.3801 -0.1383 -0.3728
  253MOL0     C33309   9.339   7.555   8.527  0.2185  0.6928  0.3023
  253MOL0     C33310   9.266   7.574   8.413 -0.3814  0.6623  0.4446
  253MOL0     O33311   9.159   7.680   8.148 -0.4223 -0.4284 -1.0792
  253MOL0     C33312   8.858   7.488   8.105  1.0013 -0.4424  0.4119
  253MOL0     C33313   8.798   7.434   7.996  0.0038 -0.5798  0.7701
  253MOL0     N33314   8.230   7.074   7.597  0.4756  0.4691 -0.9230
  253MOL0     N33315   8.230   6.945   7.620 -0.8905 -0.8751 -1.2961
  253MOL0     C33316   9.163   6.025   8.154  0.8977  0.3946  0.1827
  253MOL0     C33317   9.288   5.969   8.187  0.1845  0.2745 -0.8191
  253MOL0     C33318   9.691   5.930   8.343  0.2582 -0.5427 -1.4920
  253MOL0     C33319   9.743   5.921   8.479  0.7053 -0.5052  0.3464
  253MOL0     C33320   9.850   5.843   8.499 -0.2156  0.2327  0.4136
  253MOL0     C33321   9.930   5.795   8.392 -0.3229 -0.3320  0.4883
  253MOL0     O33322  10.056   5.749   8.424 -1.6061 -0.5987  0.6908
  253MOL0     C33323  10.147   5.687   8.332  0.6822 -1.1981 -0.4090
  253MOL0     C33324  10.100   5.549   8.309  0.3410  1.3389  0.5648
  253MOL0     C33325  10.190   5.442   8.366  0.0240 -0.3858  0.1811
  253MOL0     C33326  10.156   5.307   8.303 -0.5330 -0.2406  0.6377
  253MOL0     C33327  10.034   5.256   8.373 -0.1190  0.7016 -0.2110
  253MOL0     C33328   9.929   5.220   8.429  0.9093 -0.5515  0.1530
  253MOL0     C33329   9.887   5.803   8.256 -1.1229 -0.4400 -0.1546
  253MOL0     C33330   9.766   5.867   8.235  0.1856  0.0471  0.0214
  253MOL0     H33331   9.466   6.212   8.027 -2.4908  0.8506 -3.9589
  253MOL0     H33332   9.269   6.298   7.975  1.1165  0.9771  0.2800
  253MOL0     H33333   9.051   6.281   7.873  2.9866 -1.8142  0.7601
  253MOL0     H33334   9.030   6.390   8.024 -2.2585 -0.7001  2.2340
  253MOL0     H33335   8.817   6.346   8.066  3.3953  1.6464  0.8159
  253MOL0     H33336   8.809   6.260   7.903 -0.1996 -0.8078 -0.4422
  253MOL0     H33337   8.902   6.509   7.845  1.4776  1.4912  2.5581
  253MOL0     H33338   8.817   6.537   8.003 -2.0191  0.5472 -1.0856
  253MOL0     H33339   8.676   6.421   7.762  2.2848  0.9086 -0.1114
  253MOL0     H33340   8.626   6.433   7.937  0.7956 -1.1271  1.0079
  253MOL0     H33341   8.673   6.654   7.749  2.5812 -2.6319  1.1387
  253MOL0     H33342   8.620   6.684   7.914  0.8457  2.5152 -1.8320
  253MOL0     H33343   8.420   6.538   7.870  0.3955  3.4047  1.5112
  253MOL0     H33344   8.455   6.525   7.695 -0.9324 -0.8640  0.3069
  253MOL0     H33345   8.288   6.712   7.805  0.3359  1.3620 -0.0257
  253MOL0     H33346   8.443   6.780   7.840  1.6533 -3.3120  2.1561
  253MOL0     H33347   8.324   6.694   7.564 -3.1376  3.4249 -0.0365
  253MOL0     H33348   8.499   6.751   7.584  0.2859  0.7897 -0.7998
  253MOL0     H33349   8.544   7.007   7.544 -0.9643 -0.0710 -4.0756
  253MOL0     H33350   8.312   7.327   7.524  1.3637  1.8381  1.6718
  253MOL0     H33351   8.474   7.255   7.468  1.9233 -2.4629  2.5720
  253MOL0     H33352   8.553   7.230   7.682 -1.9459 -0.5513  3.1548
  253MOL0     H33353   8.404   7.307   7.754  0.0418  0.7553  1.1211
  253MOL0     H33354   8.596   7.441   7.558 -0.8947 -6.9588 -0.3127
  253MOL0     H33355   8.451   7.509   7.637 -0.2366  0.7650  3.8716
  253MOL0     H33356   8.574   7.459   7.858  0.4264  1.3267  0.6658
  253MOL0     H33357   8.638   7.593   7.769  2.1468 -0.2503 -0.4990
  253MOL0     H33358   8.965   7.550   7.731 -0.3373 -1.5809  0.2986
  253MOL0     H33359   9.119   7.611   7.924  1.1410 -2.2198  1.3344
  253MOL0     H33360   8.952   7.580   8.555  0.2995  2.0574  3.7411
  253MOL0     H33361   9.084   7.518   8.754  1.1315  0.6313  0.4530
  253MOL0     H33362   9.303   7.469   8.946  0.0603  1.0718 -0.3617
  253MOL0     H33363   9.202   7.601   8.896 -1.0257 -0.6916  1.3106
  253MOL0     H33364   9.335   7.704   9.036 -1.0822 -0.1527 -0.2619
  253MOL0     H33365   9.440   7.741   8.894 -0.2726  0.0172 -0.4708
  253MOL0     H33366   9.557   7.519   8.944  1.7938  1.5149 -0.8750
  253MOL0     H33367   9.462   7.516   9.095 -0.7115 -2.4001 -1.9471
  253MOL0     H33368   9.697   7.588   9.096 -1.9201 -0.7031  4.3552
  253MOL0     H33369   9.665   7.716   8.981  0.0221 -1.4914 -0.5175
  253MOL0     H33370   9.536   7.683   9.268 -1.4023  0.6746  0.2089
  253MOL0     H33371   9.524   7.820   9.154 -2.2074 -0.8568  1.7778
  253MOL0     H33372   9.795   7.800   9.184  0.1135  0.1792  0.4435
  253MOL0     H33373   9.727   7.702   9.327 -1.5112 -0.2109 -0.5171
  253MOL0     H33374   9.795   7.962   9.360  1.9647 -2.2929 -2.6195
  253MOL0     H33375   9.656   7.990   9.258 -0.3854 -0.6782 -1.0328
  253MOL0     H33376   9.536   7.838   9.431 -1.0918  1.1723 -1.4610
  253MOL0     H33377   9.574   7.999   9.476  2.2063  0.1585  0.2098
  253MOL0     H33378   9.448   7.554   8.523  0.1880  0.5353 -2.0691
  253MOL0     H33379   9.315   7.599   8.320  1.6040 -0.2327  1.1973
  253MOL0     H33380   8.820   7.474   8.206 -2.7831 -1.0649 -0.9491
  253MOL0     H33381   8.705   7.380   8.008 -1.4149  1.6858  0.3946
  253MOL0     H33382   9.073   5.974   8.189  0.7455  2.2509  2.8541
  253MOL0     H33383   9.301   5.882   8.251 -0.1619  0.9760  0.2412
  253MOL0     H33384   9.682   5.961   8.559 -1.4029 -0.2389 -1.3266
  253MOL0     H33385   9.872   5.822   8.603  3.4012  3.3184  0.4886
  253MOL0     H33386  10.246   5.689   8.380  1.9582 -0.5599 -2.8809
  253MOL0     H33387  10.146   5.751   8.243 -1.7203  0.1482  0.4965
  253MOL0     H33388  10.004   5.542   8.360  0.4130 -2.0857  0.4317
  253MOL0     H33389  10.077   5.528   8.204  2.3008 -2.0611  0.6750
  253MOL0     H33390  10.161   5.438   8.472  1.7919  2.2316  0.8565
  253MOL0     H33391  10.294   5.470   8.348 -0.4229  1.0433 -0.2334
  253MOL0     H33392  10.156   5.294   8.194  1.4669 -3.0025  0.8453
  253MOL0     H33393  10.245   5.248   8.329  1.3171  1.9873 -0.2733
  253MOL0     H33394   9.831   5.193   8.463  0.0804 -0.0841 -1.6980
  253MOL0     H33395   9.939   5.765   8.168  0.4167  3.8919 -1.3864
  253MOL0     H33396   9.737   5.868   8.130  1.6017 -0.3789 -0.3974
  254MOL0     O33397  11.112   5.345   4.424 -0.2959  0.2130 -0.2949
  254MOL0     C33398  11.097   5.283   4.529  0.2560  0.1987 -0.9204
  254MOL0     O33399  11.046   5.157   4.536  0.3404 -0.4942  0.4393
  254MOL0     C33400  10.997   5.100   4.417 -1.1926 -0.0437  0.0917
  254MOL0     C33401  10.886   5.152   4.362 -0.5178  0.5401  0.4284
  254MOL0     C33402  10.829   5.092   4.246 -0.5216 -0.4957  0.5769
  254MOL0     C33403  10.899   4.979   4.185  0.4012 -1.0683 -1.2432
  254MOL0     O33404  10.846   4.923   4.078  0.3464  0.0713 -0.8165
  254MOL0     C33405  10.848   4.781   4.051  0.0025  0.0711  0.9003
  254MOL0     C33406  10.799   4.755   3.910 -0.2248 -0.9526  0.5948
  254MOL0     C33407  10.796   4.611   3.871  0.3425 -0.1693 -0.2998
  254MOL0     C33408  10.761   4.596   3.727 -0.1864  0.1126 -0.7018
  254MOL0     C33409  10.780   4.452   3.683 -0.1865  0.7997 -0.8981
  254MOL0     C33410  10.742   4.427   3.536 -0.0002 -0.0603  0.0753
  254MOL0     C33411  10.620   4.337   3.521  0.7199 -0.4399 -0.4637
  254MOL0     C33412  10.600   4.307   3.373 -0.1519  0.6247  0.0808
  254MOL0     N33413  10.463   4.252   3.351  0.5875 -0.0017  0.6906
  254MOL0     C33414  10.342   4.306   3.390  0.4354  0.0633  0.3752
  254MOL0     C33415  10.255   4.227   3.325  0.3846 -1.2934 -0.6000
  254MOL0     C33416  10.108   4.248   3.318 -0.2433 -0.2533  0.2864
  254MOL0     C33417  10.022   4.128   3.375 -0.1551 -0.4275 -0.2750
  254MOL0     C33418   9.879   4.156   3.354  0.5787 -0.7573 -0.7999
  254MOL0     C33419   9.805   4.047   3.440 -0.1174 -0.1978 -0.2608
  254MOL0     O33420   9.749   4.112   3.557 -0.0057  0.2020 -0.1992
  254MOL0     C33421   9.631   4.052   3.606 -0.4531  0.1345 -0.0223
  254MOL0     C33422   9.620   3.917   3.629 -0.7106  0.3994 -0.5304
  254MOL0     C33423   9.505   3.869   3.690 -0.3524  0.0762  0.1556
  254MOL0     C33424   9.404   3.953   3.735 -1.2553  0.0071  0.3379
  254MOL0     C33425   9.283   3.903   3.798  0.0543  1.0220 -0.9054
  254MOL0     O33426   9.187   3.996   3.829  1.2128  0.6785 -0.0024
  254MOL0     C33427   9.079   3.943   3.888  0.9330  0.3882 -0.2491
  254MOL0     C33428   9.081   3.850   3.994 -0.2698 -0.0535 -0.0947
  254MOL0     C33429   8.957   3.799   4.047 -0.6495  0.6916  0.1862
  254MOL0     C33430   8.837   3.840   3.999 -0.2566 -0.2878 -0.4565
  254MOL0     O33431   8.723   3.783   4.065  0.2125  0.3077  0.2939
  254MOL0     C33432   8.603   3.765   3.993 -0.4306  0.8467 -0.8164
  254MOL0     C33433   8.520   3.702   4.101  0.7837  0.3503 -0.1313
  254MOL0     C33434   8.409   3.624   4.033  0.7330  0.6926  0.5294
  254MOL0     C33435   8.289   3.590   4.120  0.5493  0.0404 -1.1626
  254MOL0     C33436   8.170   3.535   4.045  0.4218  0.7193  0.2067
  254MOL0     C33437   8.203   3.412   3.954 -0.2649  0.1433 -0.5311
  254MOL0     C33438   8.081   3.337   3.906  0.7181 -0.1108  1.0377
  254MOL0     C33439   8.100   3.184   3.892  0.2363  0.0368 -1.4652
  254MOL0    Cl33440   8.248   3.161   3.801  0.3331  0.3894 -0.3168
  254MOL0     C33441   8.834   3.930   3.899 -0.0668  0.5437 -0.2868
  254MOL0     C33442   8.952   3.982   3.840 -0.0559  0.3016  0.0181
  254MOL0     O33443   9.278   3.781   3.816  1.0199 -0.5892 -0.1577
  254MOL0     C33444   9.419   4.089   3.699 -0.5331 -1.0832  0.7020
  254MOL0     C33445   9.529   4.136   3.640 -0.6071 -0.4878  0.0862
  254MOL0     N33446  10.326   4.148   3.243  0.4368  0.0803  0.4204
  254MOL0     N33447  10.453   4.150   3.263 -0.7202  0.5623  0.0830
  254MOL0     C33448  11.012   4.926   4.252 -0.1274  0.1721  0.4790
  254MOL0     C33449  11.056   4.985   4.369 -0.8899 -0.5170  0.5231
  254MOL0     C33450  11.131   5.348   4.665  0.4980 -0.1203 -0.0201
  254MOL0     C33451  11.178   5.476   4.685  0.7804 -0.1609 -0.4831
  254MOL0     C33452  11.225   5.520   4.812  0.3852 -0.2432  0.5012
  254MOL0     C33453  11.206   5.436   4.921 -0.7129 -0.4113 -0.7632
  254MOL0     O33454  11.296   5.469   5.024  0.4456 -0.3157  0.4497
  254MOL0     C33455  11.260   5.404   5.149  0.2742 -0.2502  1.2866
  254MOL0     C33456  11.344   5.471   5.252  0.1724 -0.9864 -0.8877
  254MOL0     C33457  11.282   5.463   5.399 -0.4946 -0.2568 -0.6427
  254MOL0     C33458  11.233   5.321   5.443  1.2247  0.0020 -0.1083
  254MOL0     C33459  11.091   5.299   5.401 -0.2902 -0.2560 -0.7335
  254MOL0     C33460  10.981   5.278   5.349 -0.2197  0.3872  0.9238
  254MOL0     C33461  11.127   5.323   4.910 -0.3084 -1.1099  0.8732
  254MOL0     C33462  11.099   5.273   4.782  0.0662 -0.2971  0.3420
  254MOL0     H33463  10.818   5.224   4.407 -0.3850 -1.1492  3.6721
  254MOL0     H33464  10.734   5.124   4.205 -0.3537 -0.8851 -0.1270
  254MOL0     H33465  10.791   4.711   4.112  1.0059  0.2542  2.0865
  254MOL0     H33466  10.944   4.729   4.042 -1.2603 -1.9839 -3.6326
  254MOL0     H33467  10.867   4.805   3.842  0.6852 -2.0104  0.6991
  254MOL0     H33468  10.702   4.800   3.886  0.8950  0.3338 -1.8398
  254MOL0     H33469  10.717   4.562   3.928  1.0207 -0.6127  0.2871
  254MOL0     H33470  10.889   4.556   3.890 -0.7816 -2.1475 -0.2565
  254MOL0     H33471  10.656   4.624   3.722 -1.0633 -1.4813  4.0486
  254MOL0     H33472  10.823   4.656   3.659  2.9513  1.1826  2.7301
  254MOL0     H33473  10.734   4.384   3.756  4.4646 -2.5348 -0.5991
  254MOL0     H33474  10.884   4.425   3.706 -0.6963  0.7862  1.7658
  254MOL0     H33475  10.822   4.381   3.476 -1.6489 -1.8231 -0.8736
  254MOL0     H33476  10.724   4.521   3.484  1.2689  2.3608  3.6336
  254MOL0     H33477  10.634   4.256   3.593  0.9486  1.0008  1.1882
  254MOL0     H33478  10.531   4.387   3.560  1.2321 -0.4893  0.8245
  254MOL0     H33479  10.673   4.230   3.346 -1.4309 -0.5160 -0.2134
  254MOL0     H33480  10.623   4.394   3.310 -2.8888  0.5447 -1.1715
  254MOL0     H33481  10.319   4.398   3.443 -2.1546  1.7988 -3.3083
  254MOL0     H33482  10.078   4.251   3.213 -1.3105 -2.9293  0.4181
  254MOL0     H33483  10.082   4.337   3.375 -0.3990 -1.1661  1.7005
  254MOL0     H33484  10.045   4.114   3.481 -0.0443 -4.3338 -0.6532
  254MOL0     H33485  10.050   4.035   3.325  1.7775 -0.2399  0.4020
  254MOL0     H33486   9.858   4.258   3.386 -0.5382 -0.9466 -0.8730
  254MOL0     H33487   9.848   4.141   3.250  0.1323  2.1021 -1.1557
  254MOL0     H33488   9.876   3.972   3.476  1.0248  2.1720  2.9519
  254MOL0     H33489   9.730   3.999   3.377  0.9272  0.1410 -1.7989
  254MOL0     H33490   9.689   3.838   3.601 -0.5193 -0.6497  2.4998
  254MOL0     H33491   9.492   3.761   3.701  0.4724  0.1901  2.8825
  254MOL0     H33492   9.177   3.818   4.034  0.6957  1.4470 -1.1191
  254MOL0     H33493   8.960   3.712   4.112  4.1612 -1.3550 -2.2399
  254MOL0     H33494   8.632   3.702   3.909  2.2970  1.3635 -0.3590
  254MOL0     H33495   8.561   3.857   3.950 -3.5128 -1.6150 -3.5712
  254MOL0     H33496   8.490   3.764   4.186  1.0434  0.9757 -0.4875
  254MOL0     H33497   8.577   3.629   4.161 -3.4294  1.3344  6.0023
  254MOL0     H33498   8.450   3.525   4.011 -0.0573 -0.4924  3.7923
  254MOL0     H33499   8.377   3.655   3.934 -1.5402 -3.8436 -0.4686
  254MOL0     H33500   8.327   3.512   4.187  2.2207  0.6556 -1.3363
  254MOL0     H33501   8.257   3.678   4.176 -3.9286 -0.7031 -2.1528
  254MOL0     H33502   8.140   3.616   3.977  3.0904  2.5056  0.9966
  254MOL0     H33503   8.096   3.507   4.121  0.8415 -4.1551 -0.8648
  254MOL0     H33504   8.272   3.342   4.002 -3.5746 -2.0938  1.4311
  254MOL0     H33505   8.278   3.436   3.879  0.8553 -2.2575 -0.2704
  254MOL0     H33506   7.990   3.356   3.963  0.7435  2.1131  0.4201
  254MOL0     H33507   8.059   3.359   3.801 -0.7781  0.3388  1.4352
  254MOL0     H33508   8.021   3.129   3.839  0.2359  0.4007 -1.8436
  254MOL0     H33509   8.107   3.137   3.991 -1.0928  0.8976 -0.9337
  254MOL0     H33510   8.737   3.953   3.856 -0.5866  0.9911  1.0520
  254MOL0     H33511   8.934   4.040   3.751  0.7917 -2.4440 -2.0951
  254MOL0     H33512   9.361   4.163   3.752  1.5157 -0.9009  2.8463
  254MOL0     H33513   9.550   4.242   3.630  0.8456 -0.9251 -2.1522
  254MOL0     H33514  11.073   4.844   4.215 -0.4033  0.1113  0.1534
  254MOL0     H33515  11.142   4.932   4.407  0.0198 -1.8645 -3.0326
  254MOL0     H33516  11.194   5.545   4.603  0.3048  0.6789  0.1176
  254MOL0     H33517  11.277   5.614   4.829 -1.3531  0.9407 -0.4600
  254MOL0     H33518  11.267   5.295   5.145 -1.1339 -0.3787  1.7977
  254MOL0     H33519  11.155   5.428   5.170  0.5739  0.0753  2.5074
  254MOL0     H33520  11.446   5.432   5.254 -0.1199 -1.7285 -0.1212
  254MOL0     H33521  11.343   5.577   5.226 -0.8778 -0.9558 -0.7512
  254MOL0     H33522  11.203   5.538   5.410  0.2902  0.5283 -0.3063
  254MOL0     H33523  11.363   5.490   5.468 -1.0800  1.0718 -0.4506
  254MOL0     H33524  11.291   5.241   5.395 -1.1609 -2.7129  1.1715
  254MOL0     H33525  11.237   5.303   5.550 -0.4801 -0.5775 -0.1006
  254MOL0     H33526  10.885   5.255   5.307 -0.1397  2.7180 -0.7406
  254MOL0     H33527  11.097   5.268   4.998  0.2888  0.2296  1.9582
  254MOL0     H33528  11.057   5.173   4.769  0.0633 -0.1570 -0.8590
  255MOL0     O33529   3.443   3.879   6.626  0.0180 -0.1890  0.7469
  255MOL0     C33530   3.501   3.837   6.524 -0.4273 -0.5211  0.1210
  255MOL0     O33531   3.624   3.784   6.505  0.1292  0.1812 -0.3628
  255MOL0     C33532   3.705   3.765   6.614 -0.1234 -0.5884  0.3498
  255MOL0     C33533   3.671   3.698   6.725  0.0308  0.9161 -0.0453
  255MOL0     C33534   3.762   3.686   6.837  0.3244  0.0788 -0.2007
  255MOL0     C33535   3.890   3.728   6.827 -0.8395 -0.2415 -0.0727
  255MOL0     O33536   3.984   3.679   6.917 -0.9941  0.4022  0.3339
  255MOL0     C33537   4.110   3.744   6.909  1.0875  0.2975  0.2706
  255MOL0     C33538   4.198   3.663   7.004 -0.3133  0.6588  0.3378
  255MOL0     C33539   4.327   3.735   7.013  0.1561  0.0266 -0.4793
  255MOL0     C33540   4.423   3.651   7.099 -0.2214 -1.0254 -0.6615
  255MOL0     C33541   4.549   3.746   7.116 -0.8854 -0.5836 -0.2535
  255MOL0     C33542   4.665   3.695   7.210 -0.5651 -0.2301  0.4215
  255MOL0     C33543   4.790   3.796   7.200 -0.4640 -0.5306  0.0973
  255MOL0     C33544   4.934   3.738   7.249  0.5865  0.6932  0.6799
  255MOL0     N33545   5.047   3.739   7.161  0.3948 -0.8996  0.4529
  255MOL0     C33546   5.045   3.724   7.024 -1.3197  0.8833  0.1127
  255MOL0     C33547   5.177   3.710   6.986  0.3176  1.0344 -0.3797
  255MOL0     C33548   5.214   3.713   6.839 -0.1987  1.0982  0.2089
  255MOL0     C33549   5.345   3.797   6.813 -0.6978  0.2874  0.5948
  255MOL0     C33550   5.355   3.817   6.661  0.4385  0.2178 -1.4077
  255MOL0     C33551   5.405   3.685   6.588 -0.2271 -0.8255 -0.3018
  255MOL0     O33552   5.532   3.717   6.533 -0.1790  0.4283  0.6912
  255MOL0     C33553   5.538   3.748   6.399 -0.4067  0.0851  0.0322
  255MOL0     C33554   5.664   3.790   6.356 -0.4981 -0.2122 -0.5074
  255MOL0     C33555   5.696   3.837   6.228  0.3481 -0.1827  0.1359
  255MOL0     C33556   5.588   3.849   6.135  0.0084  0.1345  1.0016
  255MOL0     C33557   5.608   3.872   5.993 -0.9916 -0.8271 -0.0517
  255MOL0     O33558   5.741   3.905   5.953  0.5985 -0.3629 -0.1949
  255MOL0     C33559   5.771   3.916   5.820 -0.8370 -0.0241  0.2837
  255MOL0     C33560   5.795   4.037   5.752 -0.0129  0.7170 -0.6707
  255MOL0     C33561   5.827   4.042   5.616  0.3145  0.4267 -0.1216
  255MOL0     C33562   5.851   3.932   5.539  0.0975  0.3859  0.1784
  255MOL0     O33563   5.899   3.946   5.411  0.8511 -0.3905  0.1286
  255MOL0     C33564   5.960   3.837   5.339  0.0991 -0.5731 -0.8455
  255MOL0     C33565   6.001   3.895   5.201  0.4362 -0.0625  0.0878
  255MOL0     C33566   6.155   3.933   5.199  0.9532  0.3771  0.3880
  255MOL0     C33567   6.182   4.080   5.225  1.0131 -0.1829 -0.0815
  255MOL0     C33568   6.318   4.123   5.176 -0.6980 -0.0999 -1.0062
  255MOL0     C33569   6.380   4.253   5.237 -0.1167  0.6303 -0.1722
  255MOL0     C33570   6.523   4.268   5.200 -0.4919 -0.1708 -1.2000
  255MOL0     C33571   6.607   4.160   5.263  0.2985 -1.3509  0.0395
  255MOL0    Cl33572   6.778   4.203   5.209 -0.1381  0.2685  0.6070
  255MOL0     C33573   5.827   3.807   5.604  1.0828 -0.1581 -1.1950
  255MOL0     C33574   5.781   3.804   5.746  0.5567  0.6899  0.0584
  255MOL0     O33575   5.518   3.857   5.909  0.0730  0.5584 -0.2710
  255MOL0     C33576   5.463   3.801   6.176 -0.1517  1.2821 -0.0124
  255MOL0     C33577   5.440   3.760   6.299  0.2160  0.1230 -0.5512
  255MOL0     N33578   5.255   3.722   7.101  1.0551  0.0909  0.5924
  255MOL0     N33579   5.173   3.744   7.199 -0.4651 -0.8527  0.3083
  255MOL0     C33580   3.921   3.818   6.719 -0.0449  0.6861  0.7857
  255MOL0     C33581   3.826   3.831   6.620 -0.3209  0.1424  0.4315
  255MOL0     C33582   3.428   3.844   6.397  0.2014 -1.0093  0.8607
  255MOL0     C33583   3.295   3.890   6.396  0.0883 -0.5987 -0.1416
  255MOL0     C33584   3.218   3.868   6.282 -0.0367  0.1827 -1.3477
  255MOL0     C33585   3.275   3.818   6.167  0.4654  0.6702  0.6661
  255MOL0     O33586   3.187   3.808   6.059 -0.2349 -0.4740 -0.3196
  255MOL0     C33587   3.139   3.673   6.053  0.1094 -1.1662 -0.7489
  255MOL0     C33588   3.105   3.641   5.902  0.3097  0.9249  0.4770
  255MOL0     C33589   2.957   3.623   5.897  0.3754  1.0881 -0.4758
  255MOL0     C33590   2.910   3.485   5.952 -0.0176  0.1633 -0.1608
  255MOL0     C33591   2.790   3.448   5.876 -0.1228 -0.0760  0.7776
  255MOL0     C33592   2.678   3.426   5.827  0.1871 -0.3316  0.7030
  255MOL0     C33593   3.406   3.776   6.155  0.1513  0.3801 -0.6948
  255MOL0     C33594   3.483   3.795   6.269  0.3998  0.1610  0.6036
  255MOL0     H33595   3.574   3.651   6.720 -0.1776  1.3405 -0.0389
  255MOL0     H33596   3.731   3.620   6.917  0.4282 -0.3716 -0.5341
  255MOL0     H33597   4.087   3.847   6.939 -1.7716 -0.2229  0.1319
  255MOL0     H33598   4.158   3.735   6.812  0.1546 -1.9396 -0.0557
  255MOL0     H33599   4.207   3.560   6.969 -2.4846  1.5504 -3.4111
  255MOL0     H33600   4.148   3.650   7.100 -1.1184 -1.6631 -0.3367
  255MOL0     H33601   4.311   3.832   7.060  0.8216  0.9404 -2.0377
  255MOL0     H33602   4.367   3.747   6.912  0.9355 -0.1211 -0.1970
  255MOL0     H33603   4.377   3.624   7.194  0.3658 -2.0645 -0.6578
  255MOL0     H33604   4.451   3.566   7.037  1.5022  0.0993 -1.5187
  255MOL0     H33605   4.523   3.840   7.165 -0.2210 -0.5676  0.0750
  255MOL0     H33606   4.593   3.756   7.016  0.3133  2.8551  0.4809
  255MOL0     H33607   4.700   3.597   7.176 -1.7350 -0.2492 -0.7911
  255MOL0     H33608   4.638   3.699   7.316 -1.2518 -1.3550  0.2988
  255MOL0     H33609   4.800   3.820   7.093 -0.8429  1.6270  0.4922
  255MOL0     H33610   4.763   3.884   7.259  0.6959 -0.0069 -0.1108
  255MOL0     H33611   4.916   3.635   7.282 -1.8161  1.5092  2.2028
  255MOL0     H33612   4.961   3.786   7.344 -0.8959 -1.1336  2.1081
  255MOL0     H33613   4.967   3.730   6.948  1.2818  2.7535 -2.6129
  255MOL0     H33614   5.128   3.735   6.775 -0.1858  2.9531  0.7679
  255MOL0     H33615   5.242   3.610   6.815 -1.2988  0.4787  1.4549
  255MOL0     H33616   5.427   3.735   6.850  0.5587  2.3499  1.4199
  255MOL0     H33617   5.343   3.892   6.866 -0.2389 -0.1667  1.4359
  255MOL0     H33618   5.261   3.855   6.622  0.3154  3.7809  1.7935
  255MOL0     H33619   5.430   3.894   6.644 -0.3442  1.1888 -0.5327
  255MOL0     H33620   5.335   3.654   6.509  0.5640 -1.0019 -0.9445
  255MOL0     H33621   5.419   3.604   6.660 -1.6596  0.3331  1.3657
  255MOL0     H33622   5.746   3.780   6.426  0.7655 -2.4781 -2.1518
  255MOL0     H33623   5.798   3.846   6.190 -0.7509 -0.0756 -3.1262
  255MOL0     H33624   5.805   4.130   5.808  4.9721 -0.3890  0.7472
  255MOL0     H33625   5.848   4.140   5.575  1.6758  0.4692  0.6245
  255MOL0     H33626   5.879   3.765   5.325 -0.6598  0.3068 -1.0590
  255MOL0     H33627   6.034   3.796   5.409  1.2507  1.0996 -1.0285
  255MOL0     H33628   5.935   3.976   5.169 -0.7840 -1.4761 -1.1183
  255MOL0     H33629   5.997   3.807   5.136  2.1671 -0.8518  0.9752
  255MOL0     H33630   6.193   3.921   5.097  3.4846  3.7649  0.7744
  255MOL0     H33631   6.217   3.870   5.263  0.0160 -1.7409 -0.6970
  255MOL0     H33632   6.101   4.139   5.182 -1.1523 -1.0370  2.5445
  255MOL0     H33633   6.181   4.105   5.331 -1.8359  3.6199 -0.8159
  255MOL0     H33634   6.324   4.124   5.066 -1.3394  0.1182 -1.0416
  255MOL0     H33635   6.386   4.045   5.212 -1.0170  0.0001 -0.1785
  255MOL0     H33636   6.374   4.258   5.346  2.4586 -2.6631  0.2773
  255MOL0     H33637   6.322   4.338   5.198 -0.5880 -0.8885 -3.0174
  255MOL0     H33638   6.525   4.274   5.091  0.6097  0.5778 -1.1570
  255MOL0     H33639   6.558   4.364   5.239 -2.0307  0.0169 -0.1836
  255MOL0     H33640   6.585   4.067   5.211 -2.4908 -1.9281  2.0371
  255MOL0     H33641   6.590   4.138   5.369 -1.7438 -1.8781 -0.3682
  255MOL0     H33642   5.828   3.719   5.541 -1.0157  0.0531 -1.6361
  255MOL0     H33643   5.739   3.717   5.796  1.4571  0.6263  0.7329
  255MOL0     H33644   5.384   3.808   6.102  0.3911 -1.7557 -1.0352
  255MOL0     H33645   5.340   3.726   6.324  0.6489  2.0046  5.0702
  255MOL0     H33646   4.015   3.873   6.722 -0.7931  2.9841 -4.9858
  255MOL0     H33647   3.841   3.899   6.537 -0.6130  0.5179  0.6789
  255MOL0     H33648   3.228   3.925   6.475 -1.9571  0.6584 -2.2929
  255MOL0     H33649   3.112   3.894   6.284 -0.1112  0.3077 -3.8330
  255MOL0     H33650   3.052   3.661   6.119 -1.4179  6.1129 -0.5429
  255MOL0     H33651   3.226   3.614   6.082 -0.0748 -1.6308 -1.1444
  255MOL0     H33652   3.118   3.726   5.835 -2.9464  1.4491  0.3766
  255MOL0     H33653   3.159   3.553   5.865 -1.4275 -0.1831  0.4860
  255MOL0     H33654   2.930   3.630   5.792  0.5392  0.6627 -0.5519
  255MOL0     H33655   2.902   3.708   5.938  0.7671  2.2266 -2.2115
  255MOL0     H33656   2.985   3.407   5.938  0.7218  1.0994 -1.7465
  255MOL0     H33657   2.880   3.493   6.056 -0.8746 -0.1124 -0.3752
  255MOL0     H33658   2.583   3.414   5.779 -0.2988 -0.4253  1.6783
  255MOL0     H33659   3.447   3.736   6.062 -1.8890 -0.3455 -1.3479
  255MOL0     H33660   3.587   3.763   6.258 -0.6791 -4.8723  2.3098
  256MOL0     O33661   1.435  10.918   4.572 -0.6486  0.7766 -0.2999
  256MOL0     C33662   1.424  10.793   4.551 -0.0811  0.1553  0.6388
  256MOL0     O33663   1.311  10.714   4.562  0.5023 -0.3825  0.3772
  256MOL0     C33664   1.186  10.770   4.555 -0.3457  0.7056  0.0784
  256MOL0     C33665   1.145  10.863   4.462  0.7108  0.5126 -0.0352
  256MOL0     C33666   1.012  10.903   4.443 -0.3403 -0.7613  0.0446
  256MOL0     C33667   0.907  10.836   4.514  0.0069  0.7040 -0.6958
  256MOL0     O33668   0.775  10.861   4.490  0.0176  0.4288 -0.2753
  256MOL0     C33669   0.742  10.990   4.434  0.2649 -0.1844  0.3319
  256MOL0     C33670   0.588  11.010   4.424 -1.0701  0.1000  0.3035
  256MOL0     C33671   0.552  11.109   4.310  0.3569  0.5088 -0.6086
  256MOL0     C33672   0.413  11.132   4.337 -0.1137  0.4132  0.3270
  256MOL0     C33673   0.353  11.228   4.227  0.2218 -0.5737  0.4070
  256MOL0     C33674   0.211  11.271   4.247  0.4321 -1.2960 -0.2229
  256MOL0     C33675   0.168  11.362   4.132 -0.2396 -0.7924  0.8858
  256MOL0     C33676   0.231  11.502   4.108  0.6677 -0.2619  0.2309
  256MOL0     N33677   0.186  11.610   4.199 -0.2234 -0.4627  0.0403
  256MOL0     C33678   0.213  11.605   4.335  0.9186 -0.9124 -0.7485
  256MOL0     C33679   0.170  11.733   4.383 -0.7933  0.7216  0.3040
  256MOL0     C33680   0.144  11.767   4.535  0.0551  0.6271 -0.2541
  256MOL0     C33681   0.002  11.787   4.565  0.2447 -0.0839  0.1435
  256MOL0     C33682  -0.029  11.765   4.712  0.3663  0.7034 -0.0909
  256MOL0     C33683  -0.150  11.832   4.763  0.3895 -0.4706 -0.1437
  256MOL0     O33684  -0.264  11.777   4.703  0.6254 -0.2226  0.1532
  256MOL0     C33685  -0.344  11.849   4.621 -0.0166 -0.3547  1.1750
  256MOL0     C33686  -0.335  11.811   4.488 -0.2079 -0.1092 -0.4517
  256MOL0     C33687  -0.401  11.895   4.397 -0.3414 -0.1018 -0.0317
  256MOL0     C33688  -0.482  12.009   4.429  0.2868 -0.1775  0.1727
  256MOL0     C33689  -0.548  12.089   4.331  0.5772 -0.6980  0.1008
  256MOL0     O33690  -0.568  12.024   4.205  0.7982 -0.1438  0.8015
  256MOL0     C33691  -0.640  12.110   4.128  0.7241  0.0346  0.2105
  256MOL0     C33692  -0.574  12.182   4.030 -0.0915 -0.9088 -0.7337
  256MOL0     C33693  -0.639  12.280   3.959 -0.5471  0.5678  0.4689
  256MOL0     C33694  -0.767  12.307   3.980  0.0863  0.2939  0.5683
  256MOL0     O33695  -0.834  12.402   3.903  0.0177  0.3151 -0.0027
  256MOL0     C33696  -0.964  12.458   3.953 -0.6699  0.5597  0.3192
  256MOL0     C33697  -1.015  12.570   3.861 -0.3003  0.0156  0.6430
  256MOL0     C33698  -1.082  12.508   3.738 -0.4867 -0.2378  0.7665
  256MOL0     C33699  -0.974  12.452   3.635  0.4894 -0.0750 -0.2975
  256MOL0     C33700  -1.022  12.491   3.492  0.0855 -0.3165  0.9373
  256MOL0     C33701  -0.970  12.638   3.451  0.2221  0.3772 -1.3815
  256MOL0     C33702  -1.046  12.673   3.327  1.2087  0.1100 -1.0693
  256MOL0     C33703  -1.010  12.814   3.275 -0.2422  0.6673  0.2517
  256MOL0    Cl33704  -1.083  12.942   3.382  0.1222 -0.1585  0.2658
  256MOL0     C33705  -0.840  12.243   4.082  1.1918  0.1796 -0.5040
  256MOL0     C33706  -0.776  12.138   4.156 -0.4961  1.1057  0.1967
  256MOL0     O33707  -0.608  12.194   4.366  0.2548 -0.1809  0.1228
  256MOL0     C33708  -0.494  12.033   4.569  0.6047  0.4741 -0.0402
  256MOL0     C33709  -0.429  11.947   4.659 -0.2996  0.2931  0.3904
  256MOL0     N33710   0.115  11.801   4.268 -0.0213  0.1820  0.2901
  256MOL0     N33711   0.125  11.726   4.159 -0.1525 -0.5938  0.0438
  256MOL0     C33712   0.949  10.745   4.612 -0.9283 -0.3123  0.7083
  256MOL0     C33713   1.087  10.719   4.639 -0.0768  0.3656 -0.5779
  256MOL0     C33714   1.549  10.718   4.522  0.6454 -0.0223  0.0098
  256MOL0     C33715   1.549  10.584   4.501 -0.2391  1.0337  0.2488
  256MOL0     C33716   1.668  10.515   4.452  1.3330 -1.0018 -0.6201
  256MOL0     C33717   1.784  10.581   4.414 -0.5667 -0.1703  0.2354
  256MOL0     O33718   1.887  10.498   4.370 -0.5385  1.1276 -0.3083
  256MOL0     C33719   2.007  10.560   4.322  0.7828  0.4330  0.9269
  256MOL0     C33720   2.108  10.447   4.299 -0.9218 -0.6192 -0.2635
  256MOL0     C33721   2.252  10.502   4.330  0.7810  0.2579 -0.2369
  256MOL0     C33722   2.352  10.388   4.299  0.3869  0.1776 -0.3514
  256MOL0     C33723   2.416  10.368   4.166  0.3743 -0.1456  0.2987
  256MOL0     C33724   2.478  10.367   4.064 -0.5245  0.3535  0.1607
  256MOL0     C33725   1.780  10.722   4.437 -0.5293 -0.6191  0.7205
  256MOL0     C33726   1.666  10.777   4.485  0.0211 -0.1520 -0.3907
  256MOL0     H33727   1.214  10.905   4.390 -1.9127 -1.6408 -4.2044
  256MOL0     H33728   0.995  10.962   4.353  1.6358 -1.7737 -1.0625
  256MOL0     H33729   0.785  10.993   4.334  2.5553  0.5609  1.2761
  256MOL0     H33730   0.783  11.074   4.491  2.0540 -2.4484  2.6259
  256MOL0     H33731   0.552  11.052   4.519 -1.2408  0.9432 -0.1206
  256MOL0     H33732   0.538  10.915   4.401  0.7580 -0.1284 -3.4455
  256MOL0     H33733   0.578  11.071   4.211  1.1613  2.8626 -1.3755
  256MOL0     H33734   0.607  11.204   4.315 -0.6246  1.1169 -1.0208
  256MOL0     H33735   0.355  11.041   4.347 -0.8012  0.9391  1.2397
  256MOL0     H33736   0.393  11.189   4.428 -1.9494  2.9157 -1.4893
  256MOL0     H33737   0.363  11.190   4.125  1.1334 -0.2699  0.3749
  256MOL0     H33738   0.423  11.312   4.226  0.6218 -0.9100  0.2261
  256MOL0     H33739   0.184  11.313   4.344 -3.6239  0.5716 -1.9161
  256MOL0     H33740   0.147  11.183   4.236 -3.1677  1.1593 -0.8150
  256MOL0     H33741   0.182  11.302   4.041  1.5639  0.4587  0.2687
  256MOL0     H33742   0.064  11.393   4.139  0.4012  1.6285  0.6420
  256MOL0     H33743   0.197  11.532   4.008 -0.7801  0.7838  0.9942
  256MOL0     H33744   0.340  11.494   4.105  0.4895 -4.5964 -0.6800
  256MOL0     H33745   0.255  11.527   4.397 -0.6487  0.0717  1.6669
  256MOL0     H33746   0.214  11.848   4.555 -0.2114  1.2516 -1.7259
  256MOL0     H33747   0.170  11.671   4.581 -2.0427  0.4166  0.5833
  256MOL0     H33748  -0.051  11.711   4.508  1.5599 -2.1792  1.5916
  256MOL0     H33749  -0.047  11.876   4.524 -0.0265 -0.7302 -0.9731
  256MOL0     H33750  -0.042  11.658   4.727  2.3454  0.0579 -2.4404
  256MOL0     H33751   0.052  11.799   4.778 -0.2559 -2.0140  2.3021
  256MOL0     H33752  -0.142  11.938   4.741 -2.7322  0.1917  1.4218
  256MOL0     H33753  -0.176  11.822   4.869 -0.9227 -0.4946 -0.4595
  256MOL0     H33754  -0.270  11.725   4.475 -0.7321 -0.3338 -1.7862
  256MOL0     H33755  -0.372  11.868   4.296  1.4392  1.7908 -0.0788
  256MOL0     H33756  -0.468  12.174   4.013  0.5035 -1.2412  2.5018
  256MOL0     H33757  -0.595  12.351   3.890  1.8559  0.2238  1.5609
  256MOL0     H33758  -0.940  12.493   4.054 -1.3620  0.3250  0.5668
  256MOL0     H33759  -1.043  12.382   3.955  0.5436 -0.8531 -1.5704
  256MOL0     H33760  -0.942  12.646   3.830 -0.7644  0.9282  1.7188
  256MOL0     H33761  -1.098  12.618   3.914 -0.5686  1.5669 -1.0835
  256MOL0     H33762  -1.130  12.594   3.690  1.4409 -1.0517 -3.0182
  256MOL0     H33763  -1.163  12.440   3.764  0.8571 -1.5141  1.7723
  256MOL0     H33764  -0.873  12.495   3.643  0.8175 -0.9290  0.3208
  256MOL0     H33765  -0.961  12.345   3.648 -1.5233 -0.4106 -0.7671
  256MOL0     H33766  -1.130  12.494   3.470  0.6674  1.0837 -2.4186
  256MOL0     H33767  -0.997  12.411   3.422 -1.9635  0.4726 -0.8090
  256MOL0     H33768  -0.861  12.639   3.440  0.3926  2.0348  0.0813
  256MOL0     H33769  -0.984  12.716   3.526  2.4199 -0.9013  0.4777
  256MOL0     H33770  -1.028  12.601   3.247  1.2539 -2.9938  1.5439
  256MOL0     H33771  -1.154  12.674   3.345  1.6191  2.1473  2.1865
  256MOL0     H33772  -1.046  12.822   3.172 -1.4233 -0.5518  0.5283
  256MOL0     H33773  -0.904  12.827   3.253 -1.2996  1.9954 -5.9225
  256MOL0     H33774  -0.945  12.254   4.107  1.0758  1.2667 -1.4123
  256MOL0     H33775  -0.831  12.077   4.227  0.6748 -0.2292 -0.0140
  256MOL0     H33776  -0.549  12.117   4.609 -0.5604 -0.9249  1.4516
  256MOL0     H33777  -0.438  11.972   4.764 -0.6969  3.7551 -0.3605
  256MOL0     H33778   0.880  10.678   4.662 -0.9801 -0.2332  0.7432
  256MOL0     H33779   1.119  10.653   4.719 -0.9356  0.0451 -0.4860
  256MOL0     H33780   1.454  10.531   4.507 -0.6274  1.3921 -1.8400
  256MOL0     H33781   1.650  10.408   4.450 -2.7849 -0.4751  0.3762
  256MOL0     H33782   2.047  10.627   4.399  0.5518 -2.7131  4.0903
  256MOL0     H33783   1.987  10.619   4.232  0.9897  1.1337  1.3322
  256MOL0     H33784   2.096  10.356   4.359  0.7872 -1.8232 -1.6380
  256MOL0     H33785   2.124  10.419   4.194  0.5091 -0.3751 -0.1368
  256MOL0     H33786   2.258  10.544   4.431 -0.4383 -3.2205  1.4219
  256MOL0     H33787   2.275  10.577   4.253 -0.9174  1.6130  0.4915
  256MOL0     H33788   2.433  10.416   4.367  0.9282 -2.1689  0.0446
  256MOL0     H33789   2.315  10.292   4.336  2.2205 -1.0422 -1.5249
  256MOL0     H33790   2.530  10.363   3.970 -2.0058 -1.7808 -0.6537
  256MOL0     H33791   1.867  10.785   4.424  0.2207 -1.7731 -0.0740
  256MOL0     H33792   1.680  10.882   4.509 -0.3819 -0.2312  0.2075
  257MOL0     O33793   3.894   2.768   9.737  0.0134 -0.7328  0.5747
  257MOL0     C33794   3.826   2.801   9.642 -0.6518  0.7464  0.2815
  257MOL0     O33795   3.881   2.838   9.519 -0.0325 -0.3217 -1.1120
  257MOL0     C33796   3.998   2.785   9.473  0.3708  1.0698 -0.4882
  257MOL0     C33797   4.059   2.664   9.526  0.1944 -1.2476 -0.4835
  257MOL0     C33798   4.187   2.621   9.486  0.2976  0.3389 -0.3969
  257MOL0     C33799   4.269   2.707   9.407 -0.4556  0.0452 -0.3753
  257MOL0     O33800   4.399   2.669   9.376 -0.2486  0.6016 -1.0431
  257MOL0     C33801   4.505   2.751   9.432  0.6438  0.8960 -0.0011
  257MOL0     C33802   4.620   2.656   9.479 -0.2438  0.0558  0.4845
  257MOL0     C33803   4.616   2.612   9.628 -0.3641  0.6749  0.8652
  257MOL0     C33804   4.750   2.558   9.679  0.6990  0.9313  0.1341
  257MOL0     C33805   4.866   2.658   9.687 -0.1108  0.1260 -0.3493
  257MOL0     C33806   4.902   2.695   9.826  0.2505  1.2062  0.1431
  257MOL0     C33807   5.020   2.784   9.842 -0.2025  0.7045  0.8591
  257MOL0     C33808   5.017   2.855   9.980 -0.2456  0.2335 -0.2076
  257MOL0     N33809   5.096   2.779  10.084  0.5056 -0.4526 -0.9799
  257MOL0     C33810   5.231   2.783  10.098 -0.7512 -0.5385 -0.3736
  257MOL0     C33811   5.256   2.701  10.202  0.1215  0.7728  0.1944
  257MOL0     C33812   5.402   2.666  10.243  0.6956 -0.3836 -1.1369
  257MOL0     C33813   5.469   2.551  10.172 -0.3111 -0.0365 -0.2403
  257MOL0     C33814   5.409   2.415  10.192  0.1624 -0.3907  0.0116
  257MOL0     C33815   5.331   2.367  10.067 -0.4407 -1.5734 -1.4242
  257MOL0     O33816   5.413   2.380   9.946 -0.1056  0.4269 -0.6534
  257MOL0     C33817   5.352   2.355   9.826  0.0480 -0.0229  0.0182
  257MOL0     C33818   5.436   2.334   9.714  0.6987  0.5001  0.1003
  257MOL0     C33819   5.377   2.316   9.583 -0.4396 -0.9200  0.0821
  257MOL0     C33820   5.239   2.326   9.561 -1.2309 -0.1955 -0.4928
  257MOL0     C33821   5.185   2.296   9.431  0.0743 -0.2772  0.6985
  257MOL0     O33822   5.274   2.261   9.329  0.1662 -0.0170  0.3014
  257MOL0     C33823   5.220   2.249   9.206 -1.0590 -0.6772 -0.4512
  257MOL0     C33824   5.213   2.375   9.139 -0.0475  0.0929 -0.5017
  257MOL0     C33825   5.199   2.380   9.007  0.1030 -0.2030 -0.2020
  257MOL0     C33826   5.167   2.261   8.938 -0.7296  0.5462  0.4328
  257MOL0     O33827   5.132   2.270   8.803  0.2649 -0.2403 -0.2320
  257MOL0     C33828   5.072   2.157   8.736 -0.0882  0.8407  0.0717
  257MOL0     C33829   5.010   2.216   8.608  0.2625  0.0689  0.4839
  257MOL0     C33830   4.946   2.110   8.526 -0.2604 -0.2462  1.4897
  257MOL0     C33831   4.929   2.158   8.387  0.1958 -0.2712  0.3002
  257MOL0     C33832   4.914   2.039   8.294 -0.1773  0.0637  0.5459
  257MOL0     C33833   4.765   1.999   8.274 -0.3034 -0.4098 -0.0328
  257MOL0     C33834   4.737   1.850   8.240 -0.0348  0.0991 -0.3368
  257MOL0     C33835   4.796   1.796   8.112  0.7017 -0.3003  0.4955
  257MOL0    Cl33836   4.774   1.621   8.110  0.0569 -0.4000 -0.4230
  257MOL0     C33837   5.163   2.139   9.006  0.1120 -0.8623  0.4544
  257MOL0     C33838   5.191   2.132   9.140 -0.3251  0.0165 -0.2972
  257MOL0     O33839   5.060   2.286   9.412  0.0474 -1.4576 -0.2687
  257MOL0     C33840   5.155   2.334   9.677 -0.4470  0.1216  0.6156
  257MOL0     C33841   5.212   2.360   9.802 -0.2649 -0.2812  0.1765
  257MOL0     N33842   5.137   2.647  10.242  0.0966 -0.1019  0.4370
  257MOL0     N33843   5.043   2.690  10.166  0.1583 -0.9360 -0.1769
  257MOL0     C33844   4.214   2.833   9.365 -0.0694  1.4875 -0.3079
  257MOL0     C33845   4.072   2.864   9.387  0.9107 -0.0831 -0.7715
  257MOL0     C33846   3.684   2.836   9.662 -0.1292 -0.6189 -0.6354
  257MOL0     C33847   3.598   2.835   9.553 -0.6213  0.0341  1.0999
  257MOL0     C33848   3.460   2.839   9.569 -0.1624  0.0589  1.1888
  257MOL0     C33849   3.402   2.838   9.698  0.5304 -0.5716 -0.2821
  257MOL0     O33850   3.271   2.871   9.722 -0.1523 -0.2044 -1.3801
  257MOL0     C33851   3.183   2.900   9.616 -0.5164  0.6031  0.2258
  257MOL0     C33852   3.041   2.890   9.658  0.1860  0.9598 -0.3503
  257MOL0     C33853   2.996   3.018   9.727  0.4255  0.4970 -0.1399
  257MOL0     C33854   2.885   3.002   9.827 -0.5238  0.9708 -0.2027
  257MOL0     C33855   2.768   2.942   9.760 -0.6392  0.3811  1.1539
  257MOL0     C33856   2.663   2.895   9.726  0.3439  0.7792 -0.6067
  257MOL0     C33857   3.488   2.829   9.801  0.1599 -0.2387 -0.7793
  257MOL0     C33858   3.624   2.825   9.788  1.0128  0.3274 -0.1944
  257MOL0     H33859   4.004   2.613   9.605  0.1929  0.0847  0.4258
  257MOL0     H33860   4.218   2.529   9.534  2.7059  1.2980  0.0201
  257MOL0     H33861   4.482   2.821   9.513 -0.1739 -1.1792  1.6531
  257MOL0     H33862   4.552   2.809   9.352 -0.4344 -0.2350 -1.5132
  257MOL0     H33863   4.713   2.710   9.461 -0.3591  0.1115  0.0420
  257MOL0     H33864   4.636   2.573   9.409  4.1393  0.8730  0.2358
  257MOL0     H33865   4.528   2.546   9.637  0.1713  0.1654  3.1450
  257MOL0     H33866   4.597   2.712   9.667  0.4573  1.2769 -0.2486
  257MOL0     H33867   4.731   2.508   9.774  1.1278 -1.2073 -0.8522
  257MOL0     H33868   4.772   2.475   9.611  0.3960  2.4048 -1.8918
  257MOL0     H33869   4.835   2.745   9.628 -0.2657 -0.9053 -1.8585
  257MOL0     H33870   4.955   2.613   9.642  0.9998  2.5895 -0.7414
  257MOL0     H33871   4.921   2.602   9.881  1.4945  1.2371 -0.1933
  257MOL0     H33872   4.814   2.745   9.867 -0.1005  0.7102  0.0055
  257MOL0     H33873   5.110   2.724   9.827  0.7800  2.2693  0.2381
  257MOL0     H33874   5.010   2.865   9.770 -2.5913  2.1243  2.6308
  257MOL0     H33875   4.922   2.898  10.014  0.2922  0.9674  0.4246
  257MOL0     H33876   5.082   2.944   9.973  3.1765 -1.9019  1.4601
  257MOL0     H33877   5.300   2.849  10.047  0.2222  2.5299  4.3131
  257MOL0     H33878   5.411   2.658  10.352  3.1213  1.7175 -1.1101
  257MOL0     H33879   5.446   2.765  10.231 -3.3619  2.2632  2.5300
  257MOL0     H33880   5.575   2.545  10.199 -0.4324  2.5609  1.2201
  257MOL0     H33881   5.480   2.580  10.067 -0.6959 -0.4711 -0.4010
  257MOL0     H33882   5.489   2.341  10.203  0.4343 -0.3996 -1.7594
  257MOL0     H33883   5.335   2.422  10.272  0.2264 -1.3210  0.1597
  257MOL0     H33884   5.249   2.438  10.048  1.7738  1.3796 -0.6972
  257MOL0     H33885   5.273   2.278  10.091 -2.9276 -0.4075 -2.6701
  257MOL0     H33886   5.543   2.334   9.733  0.9233  3.2628 -0.6929
  257MOL0     H33887   5.433   2.302   9.491 -2.1859  1.1122 -1.3892
  257MOL0     H33888   5.231   2.465   9.197  0.5206  0.3919 -1.1309
  257MOL0     H33889   5.208   2.461   8.935  4.4269 -0.1974  0.0661
  257MOL0     H33890   4.994   2.117   8.801  0.2213 -1.0474 -0.6493
  257MOL0     H33891   5.142   2.075   8.718 -1.4682 -0.1710 -0.9057
  257MOL0     H33892   5.093   2.265   8.558  0.1301 -0.4381 -0.2404
  257MOL0     H33893   4.935   2.292   8.634 -0.8993 -2.1394  4.4192
  257MOL0     H33894   4.853   2.079   8.574 -1.6977  1.5312  0.0160
  257MOL0     H33895   5.013   2.026   8.544 -0.8452 -1.2668 -0.6955
  257MOL0     H33896   4.837   2.217   8.380  0.1634  0.0042  2.3952
  257MOL0     H33897   5.018   2.210   8.349  1.0890 -2.7647 -1.2394
  257MOL0     H33898   4.961   1.946   8.326  0.2436  0.2502  0.4748
  257MOL0     H33899   4.953   2.066   8.195 -2.0819 -0.1494 -0.3163
  257MOL0     H33900   4.728   2.055   8.187  3.3695  0.1552 -1.4143
  257MOL0     H33901   4.716   2.022   8.369  0.8796  0.1020  0.4734
  257MOL0     H33902   4.768   1.798   8.331  1.0355 -0.5166 -1.0401
  257MOL0     H33903   4.632   1.819   8.236  0.4136 -2.6994  3.6963
  257MOL0     H33904   4.905   1.804   8.110  0.7140 -0.5051 -1.6492
  257MOL0     H33905   4.755   1.848   8.025  0.1510  0.7392  1.3576
  257MOL0     H33906   5.155   2.042   8.959 -0.2222 -0.9497  0.6867
  257MOL0     H33907   5.198   2.038   9.195  1.2628  0.1397 -0.2273
  257MOL0     H33908   5.048   2.347   9.667 -0.4030 -0.5443 -0.9256
  257MOL0     H33909   5.159   2.376   9.896  2.5769  2.3612  1.5549
  257MOL0     H33910   4.286   2.904   9.327  0.0698  1.3789 -0.2502
  257MOL0     H33911   4.048   2.959   9.342  2.6438  0.7065 -0.1419
  257MOL0     H33912   3.635   2.847   9.452 -0.5221 -0.7048  1.0389
  257MOL0     H33913   3.412   2.856   9.473 -0.9452  0.6805  1.6797
  257MOL0     H33914   3.187   2.837   9.527 -0.4131  2.1034 -0.8692
  257MOL0     H33915   3.208   2.992   9.563  0.1905 -0.6667 -1.7435
  257MOL0     H33916   2.974   2.873   9.573  1.0290  1.6493 -1.1748
  257MOL0     H33917   3.025   2.808   9.728  1.1979  2.1980  1.4129
  257MOL0     H33918   2.990   3.100   9.655 -0.7362  0.7862  0.2681
  257MOL0     H33919   3.073   3.046   9.799 -0.0532 -1.1212  1.0386
  257MOL0     H33920   2.916   2.952   9.919 -2.9724  1.3536  0.9112
  257MOL0     H33921   2.856   3.105   9.851 -1.3348  1.4790 -2.9989
  257MOL0     H33922   2.577   2.833   9.713  1.7361 -2.0328  2.3654
  257MOL0     H33923   3.452   2.847   9.902  1.4372  3.5135 -0.8481
  257MOL0     H33924   3.669   2.813   9.887 -2.0234  0.4796  1.3135
  258MOL0     O33925   3.874   3.129  10.752 -0.2562 -0.0900  0.9332
  258MOL0     C33926   3.772   3.194  10.774  0.3783 -0.3513 -0.5859
  258MOL0     O33927   3.759   3.334  10.753 -0.2618 -0.6587  0.1370
  258MOL0     C33928   3.869   3.414  10.700  0.1643 -1.0125  0.0181
  258MOL0     C33929   3.938   3.380  10.573 -1.2305  0.4903 -0.1782
  258MOL0     C33930   4.037   3.465  10.513 -0.0262 -0.4551  0.5117
  258MOL0     C33931   4.092   3.567  10.588 -0.2654 -1.1577  0.4511
  258MOL0     O33932   4.193   3.639  10.521  0.2692  0.8801 -0.5507
  258MOL0     C33933   4.248   3.758  10.578 -0.1340 -0.9650  0.1639
  258MOL0     C33934   4.359   3.811  10.482 -0.3058  1.1204  0.1315
  258MOL0     C33935   4.287   3.892  10.372  0.5877  0.8893  0.4990
  258MOL0     C33936   4.394   3.966  10.284 -0.2970 -0.1584 -0.0933
  258MOL0     C33937   4.335   4.078  10.191 -0.3977  0.2302  0.3271
  258MOL0     C33938   4.204   4.017  10.121 -0.7246 -0.4138 -0.9095
  258MOL0     C33939   4.190   4.058   9.969 -0.2888  0.5216  0.8890
  258MOL0     C33940   4.122   4.194   9.943  0.3992  0.7633  0.1452
  258MOL0     N33941   3.977   4.195   9.985  0.5866 -0.3631 -1.2102
  258MOL0     C33942   3.935   4.237  10.113  1.0319  0.2364 -0.2767
  258MOL0     C33943   3.806   4.228  10.097 -1.2099  0.2617 -0.3715
  258MOL0     C33944   3.710   4.278  10.194 -0.5237  0.6516 -0.0245
  258MOL0     C33945   3.662   4.161  10.285  0.2132  0.4217 -0.8920
  258MOL0     C33946   3.767   4.112  10.382 -0.4000 -0.6774 -1.1499
  258MOL0     C33947   3.810   4.228  10.472 -0.6618  0.8941 -1.0233
  258MOL0     O33948   3.892   4.174  10.579  1.3190 -0.1046 -0.4756
  258MOL0     C33949   3.825   4.087  10.670 -0.1233  0.8912 -0.3208
  258MOL0     C33950   3.882   3.966  10.711 -0.2672  0.8981  0.1688
  258MOL0     C33951   3.831   3.881  10.806  0.2740  0.2125 -0.2403
  258MOL0     C33952   3.706   3.909  10.863 -0.2398 -0.9600 -0.8381
  258MOL0     C33953   3.650   3.807  10.956 -0.7771  0.6484  1.1436
  258MOL0     O33954   3.648   3.677  10.923  0.0090  0.4159  0.6898
  258MOL0     C33955   3.624   3.596  11.042 -0.5420  0.6102 -0.3408
  258MOL0     C33956   3.725   3.569  11.131  0.3978  0.2881  0.0379
  258MOL0     C33957   3.699   3.499  11.247  0.4704  0.4584  0.7996
  258MOL0     C33958   3.569   3.447  11.279 -0.4814 -0.3023 -0.0271
  258MOL0     O33959   3.549   3.356  11.377  0.6747 -0.3892 -0.0851
  258MOL0     C33960   3.634   3.362  11.486  0.6517  0.1480 -0.1306
  258MOL0     C33961   3.565   3.304  11.612  0.6399  0.3476  0.1147
  258MOL0     C33962   3.460   3.405  11.671  0.1170  0.0905 -0.0986
  258MOL0     C33963   3.336   3.437  11.581  0.9648 -0.1733  1.3690
  258MOL0     C33964   3.249   3.561  11.615  0.0587  0.3408 -0.2614
  258MOL0     C33965   3.313   3.697  11.616 -0.5588  0.2827 -1.2031
  258MOL0     C33966   3.343   3.747  11.478 -0.3529  0.6114  0.5407
  258MOL0     C33967   3.425   3.870  11.478 -0.3689 -0.3944 -0.6925
  258MOL0    Cl33968   3.356   3.990  11.603 -0.3269 -0.7249 -0.0384
  258MOL0     C33969   3.472   3.465  11.177 -0.9542 -0.5215 -0.6376
  258MOL0     C33970   3.499   3.546  11.064 -0.3279  0.4888 -0.9070
  258MOL0     O33971   3.601   3.860  11.051 -0.3976 -0.0287 -0.5665
  258MOL0     C33972   3.634   4.023  10.814  0.3609  0.5107  0.2262
  258MOL0     C33973   3.691   4.105  10.715  0.2023 -0.2523 -0.1229
  258MOL0     N33974   3.770   4.177   9.971 -0.1325  0.5246  0.5403
  258MOL0     N33975   3.875   4.156   9.899  0.7140  0.6817 -1.7513
  258MOL0     C33976   4.026   3.599  10.711 -1.2242 -0.0727  0.1188
  258MOL0     C33977   3.920   3.528  10.765  0.4476 -0.3037 -0.3822
  258MOL0     C33978   3.683   3.125  10.863 -0.0646  0.7060  0.0638
  258MOL0     C33979   3.666   2.990  10.871 -0.0779 -0.9253  0.2664
  258MOL0     C33980   3.563   2.942  10.954  0.4071  0.6970 -0.1753
  258MOL0     C33981   3.488   3.028  11.047 -0.3473 -0.4767  0.1456
  258MOL0     O33982   3.391   2.976  11.128  0.1104 -0.2619 -0.2227
  258MOL0     C33983   3.301   3.050  11.216  0.4365  0.3416  0.4661
  258MOL0     C33984   3.165   3.096  11.143 -1.0098 -0.0814 -0.1000
  258MOL0     C33985   3.088   3.219  11.198 -1.1692 -0.0344 -0.0369
  258MOL0     C33986   2.974   3.263  11.099 -0.2388  0.5088 -0.3482
  258MOL0     C33987   3.029   3.312  10.979 -0.0790 -0.3635  0.7495
  258MOL0     C33988   3.082   3.338  10.871 -0.3551 -0.5396  0.4960
  258MOL0     C33989   3.511   3.164  11.029 -0.7515  1.0021  0.2782
  258MOL0     C33990   3.606   3.217  10.941  0.3706  0.2316 -0.6491
  258MOL0     H33991   3.913   3.290  10.518 -2.1833 -0.6588  2.0096
  258MOL0     H33992   4.063   3.441  10.410 -3.1876 -1.1412 -0.2052
  258MOL0     H33993   4.297   3.733  10.673 -0.7425 -0.6402  0.5727
  258MOL0     H33994   4.175   3.838  10.588 -0.5730 -0.5999 -4.0495
  258MOL0     H33995   4.413   3.735  10.424  0.8150  2.8267 -1.1754
  258MOL0     H33996   4.437   3.866  10.536 -0.9567  1.4536  0.7433
  258MOL0     H33997   4.218   3.970  10.407 -0.0340  1.4162 -1.7151
  258MOL0     H33998   4.215   3.825  10.323 -0.5188  1.5432  1.1849
  258MOL0     H33999   4.459   4.026  10.348  1.0843 -2.4478  0.7838
  258MOL0     H34000   4.464   3.898  10.234  3.7287  3.6211 -0.1244
  258MOL0     H34001   4.417   4.101  10.123  0.5413 -0.0899  1.3254
  258MOL0     H34002   4.312   4.168  10.249  0.4319  0.3785  0.4380
  258MOL0     H34003   4.116   4.046  10.178  2.1036  3.9333  1.8531
  258MOL0     H34004   4.212   3.908  10.127 -0.9420 -0.4201 -0.7490
  258MOL0     H34005   4.291   4.071   9.928 -0.0771 -3.7389 -0.4497
  258MOL0     H34006   4.139   3.978   9.913 -2.6894  2.7362 -0.3176
  258MOL0     H34007   4.114   4.198   9.834 -0.7642  0.9063  0.2231
  258MOL0     H34008   4.185   4.272   9.988  1.7638 -0.4048  0.3245
  258MOL0     H34009   3.993   4.267  10.199  0.5250 -1.0255  0.5365
  258MOL0     H34010   3.622   4.306  10.135 -1.2395  0.5953  0.9997
  258MOL0     H34011   3.739   4.373  10.239 -1.7918  1.2957 -0.5138
  258MOL0     H34012   3.649   4.077  10.216 -2.9346 -0.0219  0.0604
  258MOL0     H34013   3.566   4.188  10.331  1.4162  2.7850  0.4290
  258MOL0     H34014   3.717   4.038  10.446  4.2870 -0.9141  2.8714
  258MOL0     H34015   3.848   4.057  10.333 -0.5464 -1.4736 -0.5248
  258MOL0     H34016   3.723   4.276  10.517 -1.4471 -0.5761 -0.9255
  258MOL0     H34017   3.868   4.299  10.412 -2.0006  1.3597 -1.7931
  258MOL0     H34018   3.970   3.945  10.651 -0.7410 -1.1706  0.1250
  258MOL0     H34019   3.879   3.792  10.848 -0.9151 -0.2315  0.2114
  258MOL0     H34020   3.829   3.600  11.130  0.9289 -0.4143  5.2653
  258MOL0     H34021   3.789   3.496  11.308  1.3332  1.7009 -0.3539
  258MOL0     H34022   3.675   3.461  11.510  2.0337 -0.2028 -0.9401
  258MOL0     H34023   3.719   3.297  11.464 -0.0548  0.1912 -3.5209
  258MOL0     H34024   3.644   3.287  11.686  0.4749 -1.8232 -0.1375
  258MOL0     H34025   3.524   3.204  11.595 -0.2192  0.1006  3.0930
  258MOL0     H34026   3.523   3.492  11.692 -0.7307  0.6330  0.2305
  258MOL0     H34027   3.426   3.372  11.770 -0.8553 -2.5611 -1.2221
  258MOL0     H34028   3.367   3.447  11.477  2.5648 -2.0061  1.6100
  258MOL0     H34029   3.260   3.358  11.578 -0.2021  0.9386 -0.2704
  258MOL0     H34030   3.222   3.543  11.719 -1.1360 -1.5547 -0.8460
  258MOL0     H34031   3.164   3.552  11.547 -1.0155  1.1839  0.9259
  258MOL0     H34032   3.402   3.690  11.679 -1.5375  1.8759  0.4775
  258MOL0     H34033   3.251   3.764  11.677  0.3659 -1.6767  2.1092
  258MOL0     H34034   3.388   3.674  11.410 -0.0058  2.2621 -1.0589
  258MOL0     H34035   3.249   3.768  11.426 -1.0390 -0.4576  1.3118
  258MOL0     H34036   3.420   3.918  11.379 -1.0950  1.0482  0.0022
  258MOL0     H34037   3.530   3.856  11.507 -0.4604  1.0538  0.4995
  258MOL0     H34038   3.375   3.425  11.205 -1.7485 -1.2328 -3.9851
  258MOL0     H34039   3.419   3.562  10.992 -0.5261 -6.2468 -2.8582
  258MOL0     H34040   3.532   4.033  10.849 -0.2006  0.4956 -1.2989
  258MOL0     H34041   3.634   4.195  10.694  2.1974  0.8483 -1.0573
  258MOL0     H34042   4.067   3.693  10.747  0.1934  2.2868 -6.2733
  258MOL0     H34043   3.869   3.563  10.854  0.0823 -3.0459  0.6065
  258MOL0     H34044   3.717   2.925  10.801  0.9469  1.8469 -1.7300
  258MOL0     H34045   3.543   2.836  10.938  5.9146 -0.1598 -4.1090
  258MOL0     H34046   3.350   3.126  11.277  1.2175 -0.0024  0.2693
  258MOL0     H34047   3.267   2.976  11.289  1.9123  0.1116  0.9398
  258MOL0     H34048   3.207   3.128  11.047  2.4808 -0.0247  1.3156
  258MOL0     H34049   3.098   3.011  11.132 -0.9841  0.2231 -3.5852
  258MOL0     H34050   3.161   3.299  11.211 -0.7215 -0.1539 -1.6125
  258MOL0     H34051   3.042   3.211  11.297 -1.6643  1.9995 -0.0488
  258MOL0     H34052   2.923   3.176  11.058  1.3408 -0.1342 -1.0489
  258MOL0     H34053   2.904   3.335  11.142 -1.2281  0.6975 -2.1722
  258MOL0     H34054   3.124   3.349  10.773 -0.5174 -2.6532  0.1310
  258MOL0     H34055   3.458   3.236  11.091 -0.9641  0.2270  1.0180
  258MOL0     H34056   3.595   3.321  10.915  0.6824  1.2111  2.7255
  259MOL0     O34057   0.418   7.747   6.699  0.1327 -0.2235 -0.5319
  259MOL0     C34058   0.309   7.784   6.657  0.2058 -0.0914 -0.1268
  259MOL0     O34059   0.191   7.766   6.732  0.6084  0.6234  0.5555
  259MOL0     C34060   0.191   7.731   6.865 -0.4449 -0.6381 -0.1758
  259MOL0     C34061   0.096   7.650   6.913  0.5859  0.9778  0.2571
  259MOL0     C34062   0.104   7.595   7.045  0.5727  0.3678  0.2354
  259MOL0     C34063   0.205   7.641   7.131 -1.6959  0.5268  0.3437
  259MOL0     O34064   0.207   7.590   7.257 -0.0087 -0.1181  0.7494
  259MOL0     C34065   0.295   7.630   7.361 -1.8951  0.1787 -0.4343
  259MOL0     C34066   0.253   7.535   7.480  0.2560  0.2867 -0.9879
  259MOL0     C34067   0.292   7.601   7.616  0.5362  0.3950  0.2175
  259MOL0     C34068   0.299   7.495   7.735 -1.0078  0.0889 -0.1028
  259MOL0     C34069   0.178   7.407   7.759  0.0003 -0.0527 -0.7704
  259MOL0     C34070   0.074   7.481   7.836  0.3279 -1.2346 -0.6478
  259MOL0     C34071  -0.067   7.412   7.854  0.6744  0.1189 -0.0326
  259MOL0     C34072  -0.169   7.449   7.753 -0.0243 -0.3600  1.0246
  259MOL0     N34073  -0.160   7.415   7.611 -1.2911 -0.8360 -0.1709
  259MOL0     C34074  -0.110   7.293   7.572  0.2957  0.7226 -0.2330
  259MOL0     C34075  -0.130   7.298   7.435 -0.2636  0.6467  0.8949
  259MOL0     C34076  -0.090   7.189   7.350 -0.2482  0.9972  0.3888
  259MOL0     C34077   0.061   7.145   7.383  0.0319 -0.5764 -0.0202
  259MOL0     C34078   0.124   7.062   7.264  0.5919  0.4412 -0.2500
  259MOL0     C34079   0.273   7.048   7.262 -0.4486 -0.2939 -0.0264
  259MOL0     O34080   0.337   7.166   7.208 -0.5429 -0.0618  0.0129
  259MOL0     C34081   0.470   7.175   7.235 -0.0087  0.3294 -1.0017
  259MOL0     C34082   0.521   7.297   7.204 -0.2398 -0.2611  0.3090
  259MOL0     C34083   0.642   7.348   7.260  0.1239  0.8783 -0.9378
  259MOL0     C34084   0.725   7.253   7.321  0.1922 -0.5047  0.1773
  259MOL0     C34085   0.859   7.298   7.376 -0.0175 -0.6882  0.8809
  259MOL0     O34086   0.894   7.431   7.329 -0.1285 -0.3701 -0.0537
  259MOL0     C34087   1.013   7.488   7.342 -0.2243  0.2064 -0.2466
  259MOL0     C34088   1.071   7.546   7.231 -0.7200 -0.2581 -0.4491
  259MOL0     C34089   1.206   7.589   7.233 -0.1518  0.2607  0.6724
  259MOL0     C34090   1.281   7.582   7.344 -0.5112  0.4467 -0.9755
  259MOL0     O34091   1.406   7.632   7.357 -0.2744 -0.5932 -0.0604
  259MOL0     C34092   1.431   7.758   7.295  0.6992  0.0674 -0.4480
  259MOL0     C34093   1.560   7.826   7.353 -0.2146 -0.2745 -0.3803
  259MOL0     C34094   1.538   7.862   7.505 -0.3429  0.2475 -0.1308
  259MOL0     C34095   1.667   7.921   7.571  1.1558 -0.6101  0.5511
  259MOL0     C34096   1.666   7.896   7.722 -0.0554 -0.0020 -1.1280
  259MOL0     C34097   1.740   8.003   7.797  0.6399 -0.0130 -0.0011
  259MOL0     C34098   1.789   7.953   7.935  0.6096  0.1973  0.1887
  259MOL0     C34099   1.867   8.070   7.996  0.0659  0.0816 -0.7655
  259MOL0    Cl34100   1.791   8.224   8.029  0.6164  0.4551 -0.4730
  259MOL0     C34101   1.229   7.518   7.456 -0.4664 -0.9014  0.1483
  259MOL0     C34102   1.095   7.477   7.447 -0.4387 -0.8792 -1.1337
  259MOL0     O34103   0.910   7.234   7.466 -0.1529  0.3522 -0.3184
  259MOL0     C34104   0.677   7.119   7.345  0.3234  0.9173 -0.6398
  259MOL0     C34105   0.553   7.082   7.306  0.6736 -0.2351 -0.0793
  259MOL0     N34106  -0.193   7.417   7.401  0.6944 -0.0912 -0.6898
  259MOL0     N34107  -0.214   7.481   7.510 -0.1412 -0.0096 -0.3351
  259MOL0     C34108   0.299   7.732   7.081  0.6002  0.7456  0.8283
  259MOL0     C34109   0.293   7.779   6.953  1.2290  0.5978 -0.5310
  259MOL0     C34110   0.300   7.816   6.506 -0.1740  0.5252 -0.1317
  259MOL0     C34111   0.419   7.810   6.433 -0.1689  0.7138  1.0164
  259MOL0     C34112   0.413   7.851   6.300 -0.2976 -0.6985 -0.8399
  259MOL0     C34113   0.295   7.895   6.241  0.1153  0.1313  1.3450
  259MOL0     O34114   0.281   7.945   6.110  0.1296  0.1400 -0.1715
  259MOL0     C34115   0.379   8.036   6.055 -0.1879 -0.3937 -0.5003
  259MOL0     C34116   0.472   7.944   5.969 -0.0536  0.0375 -0.8135
  259MOL0     C34117   0.560   8.046   5.897  0.2669 -0.0930  0.1362
  259MOL0     C34118   0.662   7.965   5.818  0.2065 -1.6757 -0.0313
  259MOL0     C34119   0.604   7.894   5.715  0.4405  0.8080  0.2042
  259MOL0     C34120   0.549   7.823   5.628  0.1176 -0.6789  0.4756
  259MOL0     C34121   0.182   7.902   6.316  0.8040 -0.1156  0.4696
  259MOL0     C34122   0.184   7.864   6.448  0.4128 -0.2268  0.8142
  259MOL0     H34123   0.020   7.621   6.841  2.1631 -0.0574 -1.0407
  259MOL0     H34124   0.028   7.524   7.075  0.4045  0.5769  0.3030
  259MOL0     H34125   0.296   7.737   7.382  5.0074  0.2809  1.0215
  259MOL0     H34126   0.396   7.605   7.325 -2.2038  0.2768 -1.3968
  259MOL0     H34127   0.306   7.441   7.462 -0.8800 -0.5176 -0.2498
  259MOL0     H34128   0.145   7.518   7.472  0.1341  1.6342 -3.1766
  259MOL0     H34129   0.217   7.676   7.645 -2.3325 -2.1695 -0.0593
  259MOL0     H34130   0.385   7.653   7.594  1.7102 -0.8866  1.8436
  259MOL0     H34131   0.389   7.434   7.718  0.3036  0.6557  3.7896
  259MOL0     H34132   0.326   7.552   7.825 -3.2930 -1.3843  1.6195
  259MOL0     H34133   0.202   7.317   7.816  0.0441 -1.7430 -3.2960
  259MOL0     H34134   0.145   7.376   7.659  1.5138 -0.5765 -1.1346
  259MOL0     H34135   0.055   7.572   7.778 -4.9540 -1.5297  0.0963
  259MOL0     H34136   0.111   7.493   7.938 -0.0201 -2.2453 -0.3914
  259MOL0     H34137  -0.062   7.303   7.865 -2.3223 -0.1750 -0.9200
  259MOL0     H34138  -0.111   7.438   7.951  1.1443 -1.1518  0.5461
  259MOL0     H34139  -0.177   7.557   7.767  0.8870  0.4062 -2.9364
  259MOL0     H34140  -0.263   7.413   7.796 -0.0256 -0.8609  0.6162
  259MOL0     H34141  -0.064   7.220   7.637 -2.7131 -0.1663  1.0618
  259MOL0     H34142  -0.105   7.218   7.245 -1.6260 -3.2082 -0.8081
  259MOL0     H34143  -0.145   7.096   7.368 -2.2839  2.6555  3.7068
  259MOL0     H34144   0.058   7.074   7.466  0.4797  0.2592  0.7256
  259MOL0     H34145   0.134   7.225   7.403 -0.0505 -0.6067  0.4025
  259MOL0     H34146   0.097   6.961   7.295  0.1396  0.6418  0.0254
  259MOL0     H34147   0.080   7.075   7.165  2.8730  0.4690 -1.3083
  259MOL0     H34148   0.313   6.954   7.222 -4.0346 -1.0726 -2.2380
  259MOL0     H34149   0.307   7.052   7.366  5.5285  0.0077 -1.5867
  259MOL0     H34150   0.460   7.372   7.153 -2.1905  0.6956  3.7652
  259MOL0     H34151   0.666   7.454   7.268  0.3506  0.6521  2.3464
  259MOL0     H34152   1.013   7.570   7.143 -0.3407  1.8971 -0.1553
  259MOL0     H34153   1.241   7.653   7.151  2.2965 -2.5831 -0.6950
  259MOL0     H34154   1.348   7.829   7.292  1.7602  1.3220 -1.5508
  259MOL0     H34155   1.461   7.743   7.191  0.1616 -0.9631 -0.4680
  259MOL0     H34156   1.576   7.920   7.299 -1.9150 -1.6445 -3.4872
  259MOL0     H34157   1.645   7.758   7.344 -0.5060 -1.5949  4.1434
  259MOL0     H34158   1.508   7.775   7.564  0.7005 -0.0306  0.0066
  259MOL0     H34159   1.464   7.942   7.515  1.0103  1.3680  1.5935
  259MOL0     H34160   1.756   7.873   7.529 -0.4166 -1.2419 -2.3229
  259MOL0     H34161   1.649   8.026   7.547 -1.8009 -1.2660 -0.5404
  259MOL0     H34162   1.713   7.798   7.725 -2.6299 -1.3160 -0.2067
  259MOL0     H34163   1.565   7.890   7.764  0.1319 -1.0587 -0.8130
  259MOL0     H34164   1.674   8.088   7.812  2.7005  1.8987 -1.2633
  259MOL0     H34165   1.820   8.039   7.732 -1.5965 -0.0620 -3.0054
  259MOL0     H34166   1.708   7.921   8.000 -0.2069 -0.4560 -1.1114
  259MOL0     H34167   1.860   7.870   7.931  2.1551  1.1318  4.1130
  259MOL0     H34168   1.943   8.103   7.925 -0.0686 -1.4420 -1.6786
  259MOL0     H34169   1.924   8.022   8.076 -3.4577  0.0389  1.9981
  259MOL0     H34170   1.288   7.502   7.546 -1.1966 -1.6090  0.5141
  259MOL0     H34171   1.064   7.441   7.545  2.7239  0.8302  0.6814
  259MOL0     H34172   0.728   7.040   7.398 -0.2610  1.4484  0.7611
  259MOL0     H34173   0.524   6.979   7.322 -0.9979 -0.1289 -2.0223
  259MOL0     H34174   0.369   7.779   7.148  2.9022 -1.5929  0.2289
  259MOL0     H34175   0.367   7.855   6.928 -0.0879  1.3921 -2.1591
  259MOL0     H34176   0.517   7.772   6.463  0.3865  1.3349  0.0110
  259MOL0     H34177   0.497   7.843   6.232 -0.8277  0.4103 -1.6523
  259MOL0     H34178   0.434   8.090   6.133  0.5478  0.0044 -1.2769
  259MOL0     H34179   0.330   8.107   5.987  3.3639  3.0311  0.1254
  259MOL0     H34180   0.529   7.864   6.017  0.2783  0.4890 -0.4462
  259MOL0     H34181   0.402   7.894   5.901 -2.2806 -0.7030  1.8643
  259MOL0     H34182   0.611   8.103   5.975  1.4700 -0.6801 -0.1913
  259MOL0     H34183   0.515   8.127   5.839 -1.5069  0.3415  2.0122
  259MOL0     H34184   0.739   8.032   5.778  0.0567  0.5754  3.0582
  259MOL0     H34185   0.705   7.894   5.889 -2.5428 -1.1851  2.2805
  259MOL0     H34186   0.515   7.747   5.561 -0.1577 -0.3022  0.1839
  259MOL0     H34187   0.089   7.933   6.269  0.1733  1.4420  2.5970
  259MOL0     H34188   0.102   7.890   6.514 -1.1464  3.4287 -2.1973
  260MOL0     O34189   2.123   4.897   3.259 -0.4139  0.3653  0.9580
  260MOL0     C34190   2.003   4.889   3.241  0.4279  0.1242 -0.1278
  260MOL0     O34191   1.918   4.990   3.272 -0.1867  0.0968 -0.8549
  260MOL0     C34192   1.974   5.097   3.344  0.2620  0.5718 -0.3700
  260MOL0     C34193   2.024   5.216   3.290  0.0535 -0.2137  0.7940
  260MOL0     C34194   2.067   5.326   3.365 -0.7215  0.6089 -0.7556
  260MOL0     C34195   2.083   5.307   3.507 -0.4190 -0.5290 -0.0897
  260MOL0     O34196   2.147   5.397   3.592  0.3479  0.0308  0.0783
  260MOL0     C34197   2.075   5.518   3.627 -0.0363  0.3615 -0.9021
  260MOL0     C34198   2.149   5.606   3.726 -0.5869  0.3708 -0.3750
  260MOL0     C34199   2.125   5.547   3.870 -0.0997  0.2708  0.7549
  260MOL0     C34200   1.985   5.564   3.931  0.4329  0.3392 -0.5998
  260MOL0     C34201   1.963   5.458   4.041 -0.0595  0.5992 -0.1497
  260MOL0     C34202   2.042   5.485   4.171  0.0464  0.7526 -0.0274
  260MOL0     C34203   1.943   5.532   4.286  0.4097  0.6717 -0.0953
  260MOL0     C34204   2.013   5.589   4.409  0.6088  0.2779  0.0112
  260MOL0     N34205   1.954   5.543   4.537  0.7875 -0.5840  0.1457
  260MOL0     C34206   1.827   5.558   4.581  0.1113 -1.3868 -0.8703
  260MOL0     C34207   1.826   5.500   4.704 -1.2239  0.9242 -0.4132
  260MOL0     C34208   1.706   5.470   4.794  0.5599 -0.4730  0.0385
  260MOL0     C34209   1.593   5.585   4.814  0.0689 -0.5925 -0.6556
  260MOL0     C34210   1.644   5.695   4.917  0.3840 -0.7521  0.7245
  260MOL0     C34211   1.647   5.653   5.066  0.2703 -0.1413  0.7714
  260MOL0     O34212   1.524   5.611   5.123 -0.8199 -0.1289  0.1579
  260MOL0     C34213   1.521   5.573   5.255 -1.0097  0.2351  0.7976
  260MOL0     C34214   1.613   5.608   5.355  0.8991  1.0422 -0.0327
  260MOL0     C34215   1.599   5.556   5.483 -0.0378 -1.1412 -0.4364
  260MOL0     C34216   1.480   5.502   5.529  0.3429 -0.7609 -0.3734
  260MOL0     C34217   1.455   5.478   5.667 -0.3332  0.0516 -0.9518
  260MOL0     O34218   1.523   5.557   5.753 -0.2171 -0.1608  0.3904
  260MOL0     C34219   1.485   5.564   5.881 -0.0927 -1.7115 -0.6098
  260MOL0     C34220   1.361   5.602   5.922 -0.9183 -0.0753 -0.1562
  260MOL0     C34221   1.323   5.594   6.055  1.0363  0.9441 -0.3989
  260MOL0     C34222   1.414   5.573   6.158 -0.4640  0.4346 -0.8845
  260MOL0     O34223   1.389   5.580   6.292  1.1162  0.8628 -0.8316
  260MOL0     C34224   1.281   5.663   6.328 -0.5672  0.0867  1.1305
  260MOL0     C34225   1.298   5.740   6.452 -0.0203 -0.3457  0.2209
  260MOL0     C34226   1.161   5.802   6.483  0.2386 -1.3896  0.5027
  260MOL0     C34227   1.062   5.714   6.562 -0.4794  0.8511 -0.0227
  260MOL0     C34228   0.913   5.743   6.525 -0.1201  0.7467 -0.1135
  260MOL0     C34229   0.874   5.702   6.378  0.3688  1.0269  0.0863
  260MOL0     C34230   0.734   5.761   6.354  0.1675 -0.7537 -1.5044
  260MOL0     C34231   0.675   5.715   6.225  0.0461  0.5214 -1.2276
  260MOL0    Cl34232   0.591   5.566   6.250 -0.3669  0.1947 -0.0812
  260MOL0     C34233   1.544   5.545   6.117 -0.0879 -0.6841 -0.6231
  260MOL0     C34234   1.583   5.552   5.986  0.2412  0.9489  0.4299
  260MOL0     O34235   1.380   5.384   5.701  0.2876 -0.1088  0.3718
  260MOL0     C34236   1.391   5.460   5.425 -0.0239 -0.0529  0.3492
  260MOL0     C34237   1.413   5.498   5.287  0.1215  0.3453  0.4921
  260MOL0     N34238   1.955   5.465   4.730  0.2092  1.7317  0.3939
  260MOL0     N34239   2.034   5.478   4.627  0.0936  0.1299 -0.2123
  260MOL0     C34240   2.026   5.190   3.561 -0.9924 -0.0251 -0.5574
  260MOL0     C34241   1.982   5.090   3.481  0.2655  0.0955 -0.6836
  260MOL0     C34242   1.939   4.769   3.167  0.1081  0.6299 -0.1256
  260MOL0     C34243   1.801   4.761   3.150 -0.1284 -0.1648 -0.9240
  260MOL0     C34244   1.742   4.634   3.129 -0.1996 -0.6516 -0.5131
  260MOL0     C34245   1.805   4.511   3.107  0.6637  0.9016  0.1228
  260MOL0     O34246   1.728   4.402   3.077 -0.0804  0.3627  0.6024
  260MOL0     C34247   1.793   4.290   3.034  0.0311  0.3344 -0.3556
  260MOL0     C34248   1.686   4.187   3.001  0.8462 -0.0586 -0.3025
  260MOL0     C34249   1.601   4.163   3.125  0.3633  1.1409  0.4016
  260MOL0     C34250   1.560   4.005   3.139  0.2144 -0.3707 -0.4128
  260MOL0     C34251   1.429   4.008   3.211 -0.3905 -1.0719 -0.2995
  260MOL0     C34252   1.327   4.013   3.279  0.2575  0.2029 -0.4082
  260MOL0     C34253   1.951   4.519   3.121  0.6369 -0.3297  0.0478
  260MOL0     C34254   2.014   4.646   3.152 -0.8865  0.2576 -0.3904
  260MOL0     H34255   2.046   5.215   3.184 -3.1664 -0.7676  0.0218
  260MOL0     H34256   2.097   5.411   3.304  1.1055 -0.7882 -1.8944
  260MOL0     H34257   1.977   5.488   3.665  0.1419  1.5801  0.6435
  260MOL0     H34258   2.053   5.582   3.542  0.3822  1.8389  0.0683
  260MOL0     H34259   2.120   5.712   3.727 -0.7932  0.3211  1.1825
  260MOL0     H34260   2.256   5.595   3.708 -0.4278  1.2812 -0.0356
  260MOL0     H34261   2.191   5.593   3.944  1.8801  4.1230 -2.9791
  260MOL0     H34262   2.146   5.439   3.870 -2.1835 -0.2349  3.0431
  260MOL0     H34263   1.972   5.670   3.955  1.6460  0.2945  0.3333
  260MOL0     H34264   1.911   5.556   3.851  1.5857  1.6581 -1.8692
  260MOL0     H34265   1.989   5.360   4.000  0.3055  1.7830 -2.9407
  260MOL0     H34266   1.857   5.447   4.068  0.0862 -3.4456 -0.5466
  260MOL0     H34267   2.117   5.565   4.165  0.3821  0.3735 -0.9567
  260MOL0     H34268   2.092   5.392   4.199  3.7513  2.5696 -0.0100
  260MOL0     H34269   1.871   5.604   4.245  0.2712  0.1792 -0.7179
  260MOL0     H34270   1.887   5.458   4.344  0.3416 -0.0793 -1.1031
  260MOL0     H34271   2.018   5.699   4.411  1.4847  0.2496  2.4628
  260MOL0     H34272   2.114   5.547   4.406  0.0418 -2.1540  4.8796
  260MOL0     H34273   1.748   5.603   4.521  2.0172  3.1652 -0.3940
  260MOL0     H34274   1.752   5.435   4.887  1.6971  3.4971  1.1461
  260MOL0     H34275   1.642   5.393   4.749 -1.3185  0.7619  0.4920
  260MOL0     H34276   1.506   5.528   4.848  0.8307 -3.4301 -3.0361
  260MOL0     H34277   1.560   5.629   4.720 -0.0517 -2.4829 -1.5572
  260MOL0     H34278   1.733   5.745   4.877 -1.9949  2.1052 -1.4798
  260MOL0     H34279   1.571   5.776   4.910  2.9325  1.6206 -0.3388
  260MOL0     H34280   1.693   5.740   5.115  0.4824  0.5450 -0.6113
  260MOL0     H34281   1.709   5.566   5.090 -1.6869 -1.1111  2.5439
  260MOL0     H34282   1.707   5.655   5.328  2.4051  0.2448  3.3282
  260MOL0     H34283   1.664   5.586   5.565 -1.4235  1.5888 -0.2018
  260MOL0     H34284   1.279   5.639   5.860 -2.6643  0.4342  2.3200
  260MOL0     H34285   1.220   5.612   6.082  1.0693  3.0164 -1.5001
  260MOL0     H34286   1.193   5.599   6.333 -2.2665  2.1384 -0.5997
  260MOL0     H34287   1.268   5.737   6.249  2.6896 -0.9364 -0.5358
  260MOL0     H34288   1.363   5.821   6.419 -1.1435 -1.1676 -4.8329
  260MOL0     H34289   1.333   5.687   6.541  0.8896 -0.3058 -0.1027
  260MOL0     H34290   1.125   5.850   6.392  3.2768  2.1462  0.9104
  260MOL0     H34291   1.181   5.893   6.540 -0.4762  0.8054 -2.4915
  260MOL0     H34292   1.092   5.610   6.549  0.1474  1.0171  0.0547
  260MOL0     H34293   1.077   5.737   6.668 -1.7958  0.7768  0.1949
  260MOL0     H34294   0.899   5.851   6.540 -0.5658  0.4448  1.9058
  260MOL0     H34295   0.861   5.688   6.603  0.6818  0.2385  0.0709
  260MOL0     H34296   0.879   5.595   6.354 -1.0340  1.1094 -0.7639
  260MOL0     H34297   0.939   5.751   6.305 -0.3130 -1.6783 -2.5495
  260MOL0     H34298   0.662   5.723   6.427 -1.1278  4.7667  0.6428
  260MOL0     H34299   0.741   5.868   6.375  4.3239 -1.3904  1.9022
  260MOL0     H34300   0.739   5.704   6.137 -3.9356 -1.0153 -4.2382
  260MOL0     H34301   0.594   5.785   6.198 -1.1893  0.3553  1.7192
  260MOL0     H34302   1.617   5.533   6.197  1.1914  1.7177 -1.3313
  260MOL0     H34303   1.683   5.520   5.958 -0.9969 -1.4655 -1.6004
  260MOL0     H34304   1.301   5.408   5.453 -1.3201  1.7475 -0.2743
  260MOL0     H34305   1.341   5.464   5.213 -0.6338  0.5102  1.1376
  260MOL0     H34306   2.031   5.182   3.669  4.0878 -0.6374 -0.5792
  260MOL0     H34307   1.941   4.997   3.519 -1.3234  0.0924 -2.2724
  260MOL0     H34308   1.739   4.847   3.173 -0.8790 -1.0154  0.3672
  260MOL0     H34309   1.635   4.639   3.110 -0.7272 -0.3246  2.2249
  260MOL0     H34310   1.843   4.245   3.121 -0.0916  0.8091 -0.0312
  260MOL0     H34311   1.858   4.302   2.947 -1.5356 -0.9425 -1.7573
  260MOL0     H34312   1.616   4.218   2.923 -2.3661 -2.7017  1.2552
  260MOL0     H34313   1.734   4.093   2.973  2.4885  0.7450 -0.2837
  260MOL0     H34314   1.505   4.215   3.112 -1.4370 -2.5962 -4.7532
  260MOL0     H34315   1.646   4.199   3.218  1.8919 -2.5589  1.2801
  260MOL0     H34316   1.553   3.955   3.042  0.6325 -2.6361  0.6757
  260MOL0     H34317   1.629   3.944   3.198 -0.4806  0.5830  1.4773
  260MOL0     H34318   1.234   4.020   3.332 -0.1060 -1.3651 -0.7671
  260MOL0     H34319   2.017   4.432   3.114 -0.2674 -1.1207  1.0905
  260MOL0     H34320   2.122   4.647   3.162 -0.7315  0.7291 -1.9167
  261MOL0     O34321   5.872  10.464  10.209 -0.4280  0.3389 -0.0919
  261MOL0     C34322   5.908  10.552  10.132  0.5397 -0.0141 -0.1540
  261MOL0     O34323   6.006  10.543  10.048  0.6585  0.8430 -0.5852
  261MOL0     C34324   6.095  10.438  10.069 -0.1911 -0.3549 -0.1334
  261MOL0     C34325   6.185  10.447  10.175 -0.1218  0.2962  0.2098
  261MOL0     C34326   6.281  10.337  10.196 -0.2396 -1.0626 -0.4175
  261MOL0     C34327   6.274  10.215  10.126  0.3210 -0.6090 -0.0813
  261MOL0     O34328   6.360  10.111  10.139  0.0421 -0.0467 -0.1485
  261MOL0     C34329   6.322  10.008  10.230 -0.0362 -0.1548  0.3541
  261MOL0     C34330   6.394   9.881  10.194 -0.6160 -1.2662 -0.3785
  261MOL0     C34331   6.335   9.757  10.265  0.2801  0.3557  0.5438
  261MOL0     C34332   6.294   9.779  10.409  0.1559 -0.4745  1.1495
  261MOL0     C34333   6.261   9.658  10.497  0.0260  0.3423  0.6247
  261MOL0     C34334   6.140   9.577  10.441 -0.4560  0.3780 -0.5136
  261MOL0     C34335   6.164   9.417  10.465 -0.7982 -0.4300  0.7914
  261MOL0     C34336   6.278   9.361  10.382 -0.7455  0.2550 -0.1790
  261MOL0     N34337   6.275   9.216  10.365 -0.1008  0.6137  0.6326
  261MOL0     C34338   6.172   9.128  10.404 -0.1945  0.5093  0.2815
  261MOL0     C34339   6.219   9.002  10.363  0.0890  0.6330  0.3307
  261MOL0     C34340   6.156   8.864  10.380 -0.2375  0.2423 -0.5674
  261MOL0     C34341   6.174   8.798  10.514 -0.3494 -0.3580 -0.6068
  261MOL0     C34342   6.088   8.870  10.626  0.3736  0.1215  0.2136
  261MOL0     C34343   5.939   8.888  10.587 -0.2450 -0.3057 -0.9836
  261MOL0     O34344   5.861   8.911  10.701 -1.2204 -1.0364 -0.3216
  261MOL0     C34345   5.825   9.039  10.736  0.0179  0.0456 -0.3064
  261MOL0     C34346   5.914   9.150  10.722  0.2569  0.1897  0.4495
  261MOL0     C34347   5.882   9.278  10.774  0.9429  0.1595  0.8669
  261MOL0     C34348   5.754   9.301  10.828 -0.2874 -0.4899  0.5003
  261MOL0     C34349   5.714   9.434  10.855 -0.5123  1.3220 -0.9930
  261MOL0     O34350   5.798   9.536  10.817  0.3161 -0.0260 -0.1904
  261MOL0     C34351   5.764   9.664  10.861  0.1413 -0.2041 -1.0261
  261MOL0     C34352   5.854   9.753  10.921 -0.1947  0.2309 -0.4558
  261MOL0     C34353   5.833   9.894  10.941 -0.7667  0.8361  0.0510
  261MOL0     C34354   5.718   9.946  10.885  0.3357  0.3530  0.7147
  261MOL0     O34355   5.697  10.076  10.891  0.3319 -0.1656  0.9234
  261MOL0     C34356   5.824  10.156  10.884  0.1779 -0.6578  0.0244
  261MOL0     C34357   5.782  10.303  10.852  0.2104 -0.1777  0.0719
  261MOL0     C34358   5.711  10.365  10.977  0.3714 -0.0499  0.1147
  261MOL0     C34359   5.649  10.496  10.937  0.2149  1.0922 -0.5278
  261MOL0     C34360   5.625  10.599  11.056 -0.1364 -0.0449 -0.7272
  261MOL0     C34361   5.608  10.748  11.004  0.5528  0.9286 -0.4251
  261MOL0     C34362   5.622  10.843  11.121  0.2982 -0.1016  0.8397
  261MOL0     C34363   5.556  10.982  11.073 -0.5020 -0.1650  0.2697
  261MOL0    Cl34364   5.649  11.063  10.947 -0.0010  0.7778  0.0435
  261MOL0     C34365   5.623   9.855  10.834  0.8177 -0.6453 -0.1070
  261MOL0     C34366   5.644   9.721  10.820  0.2232 -0.4153 -0.0051
  261MOL0     O34367   5.614   9.443  10.927 -0.6674 -0.1886  0.0257
  261MOL0     C34368   5.676   9.188  10.848  0.1816  0.1945 -0.2542
  261MOL0     C34369   5.712   9.058  10.804 -0.1312 -0.1809 -0.2490
  261MOL0     N34370   6.344   9.021  10.311 -0.4350 -0.1125  0.2209
  261MOL0     N34371   6.380   9.145  10.321  0.0141  0.1100  0.7740
  261MOL0     C34372   6.177  10.208  10.032 -0.2475  0.7587 -0.3178
  261MOL0     C34373   6.086  10.314   9.999 -0.7871  0.1179  0.7843
  261MOL0     C34374   5.827  10.677  10.114  0.5360  0.6260  0.9044
  261MOL0     C34375   5.705  10.702  10.176  0.0587 -0.4218  0.1133
  261MOL0     C34376   5.633  10.821  10.159  0.5323 -0.0741 -1.0443
  261MOL0     C34377   5.679  10.917  10.079  0.3710 -0.3217 -0.0696
  261MOL0     O34378   5.607  11.034  10.067 -0.5500  1.0430  0.3216
  261MOL0     C34379   5.633  11.120  10.180 -0.5602  0.0846  0.4070
  261MOL0     C34380   5.770  11.191  10.158 -0.4958 -0.5665  0.2620
  261MOL0     C34381   5.764  11.313  10.246 -0.4638  0.7749 -0.2503
  261MOL0     C34382   5.891  11.399  10.227 -1.0061 -0.3879  0.7541
  261MOL0     C34383   6.030  11.340  10.224  0.4721  0.7082 -0.3964
  261MOL0     C34384   6.137  11.284  10.210  0.4399  0.8520 -0.1562
  261MOL0     C34385   5.803  10.903  10.021  0.3249 -0.4742  0.0321
  261MOL0     C34386   5.870  10.780  10.035  0.5565 -0.2906 -0.6353
  261MOL0     H34387   6.188  10.535  10.238 -1.3581  0.5129 -0.0069
  261MOL0     H34388   6.347  10.345  10.283 -0.8328 -3.0464  0.2841
  261MOL0     H34389   6.223   9.975  10.195  1.2870 -2.8455 -1.1150
  261MOL0     H34390   6.328  10.037  10.335 -0.9499 -1.8330  0.9006
  261MOL0     H34391   6.493   9.889  10.239 -0.0616 -0.6411 -1.6606
  261MOL0     H34392   6.407   9.866  10.087 -1.0097 -3.8975 -0.1278
  261MOL0     H34393   6.413   9.680  10.263  1.4344  1.4993  0.8293
  261MOL0     H34394   6.249   9.726  10.205 -0.6758  4.8080 -0.6987
  261MOL0     H34395   6.366   9.846  10.457 -1.6652  0.8715  2.1740
  261MOL0     H34396   6.207   9.846  10.398  3.2778  3.9390  0.7200
  261MOL0     H34397   6.250   9.703  10.596  1.8828  1.6422  0.3077
  261MOL0     H34398   6.348   9.592  10.499 -2.1738 -2.7623  1.1062
  261MOL0     H34399   6.129   9.590  10.333 -1.4535 -0.3606 -0.5183
  261MOL0     H34400   6.056   9.610  10.503  1.6966  4.5942  0.5379
  261MOL0     H34401   6.184   9.409  10.572  0.9052  1.6518  0.6777
  261MOL0     H34402   6.074   9.362  10.435 -1.7482  1.7576 -0.5590
  261MOL0     H34403   6.374   9.371  10.433  0.8054 -0.7349 -2.7172
  261MOL0     H34404   6.286   9.416  10.287 -1.9823 -1.6145 -1.4199
  261MOL0     H34405   6.072   9.156  10.435  0.0189  0.1475  1.3314
  261MOL0     H34406   6.215   8.810  10.306  0.1277 -2.9903  1.8589
  261MOL0     H34407   6.050   8.865  10.354 -1.6875  0.9016  4.2637
  261MOL0     H34408   6.278   8.793  10.550 -0.4808 -3.1131 -0.4170
  261MOL0     H34409   6.142   8.694  10.518  1.1727 -0.8192  1.3766
  261MOL0     H34410   6.093   8.803  10.712 -1.9066 -1.5186 -0.8052
  261MOL0     H34411   6.133   8.965  10.655 -0.0063  0.5979 -0.7278
  261MOL0     H34412   5.906   8.794  10.543  0.2058  0.2467 -2.5880
  261MOL0     H34413   5.921   8.969  10.515 -1.5441 -0.8465 -1.2896
  261MOL0     H34414   6.015   9.131  10.685  0.2642  2.7611 -1.1350
  261MOL0     H34415   5.954   9.359  10.763 -2.0510  3.0301  1.0791
  261MOL0     H34416   5.956   9.727  10.947 -0.3206  0.6126  0.4557
  261MOL0     H34417   5.910   9.929  11.010 -0.6067 -0.4171  0.5406
  261MOL0     H34418   5.876  10.117  10.796  1.4090  1.1275 -0.0827
  261MOL0     H34419   5.878  10.150  10.979  0.0160 -1.7984  0.0647
  261MOL0     H34420   5.725  10.299  10.759  3.6446  3.6963 -2.5981
  261MOL0     H34421   5.874  10.360  10.833 -0.6870  1.0045 -0.9237
  261MOL0     H34422   5.775  10.359  11.065  1.1964 -0.3360 -0.4819
  261MOL0     H34423   5.621  10.306  10.993 -1.0128  2.4001  1.9100
  261MOL0     H34424   5.711  10.540  10.858  1.4217 -1.2579 -0.9957
  261MOL0     H34425   5.552  10.476  10.892 -0.1737  0.3734  0.5950
  261MOL0     H34426   5.715  10.602  11.118  0.8382  2.9979 -2.0898
  261MOL0     H34427   5.530  10.577  11.107 -1.5291  1.8962 -2.3415
  261MOL0     H34428   5.502  10.753  10.974 -0.4600  2.5767  2.9741
  261MOL0     H34429   5.673  10.775  10.920 -2.8284  2.1766 -2.8937
  261MOL0     H34430   5.563  10.808  11.205  0.6158  0.4880  1.3178
  261MOL0     H34431   5.726  10.858  11.153  1.9090 -3.0700 -2.3666
  261MOL0     H34432   5.552  11.051  11.159 -0.8866 -0.6022  0.6054
  261MOL0     H34433   5.455  10.948  11.050  0.9097 -2.6620 -3.0993
  261MOL0     H34434   5.526   9.898  10.810  1.4596  2.3825  2.1874
  261MOL0     H34435   5.572   9.662  10.764 -2.0616  1.7824  0.4636
  261MOL0     H34436   5.573   9.193  10.883  0.1698 -0.0334 -0.2578
  261MOL0     H34437   5.658   8.965  10.817  2.6495 -1.9961 -0.7525
  261MOL0     H34438   6.171  10.106   9.994  1.9123  0.3331  0.3633
  261MOL0     H34439   6.007  10.310   9.924  0.2559  0.6545 -0.3850
  261MOL0     H34440   5.673  10.625  10.244  0.4340 -0.0923  0.6665
  261MOL0     H34441   5.546  10.845  10.218  0.0669  1.9592 -2.4477
  261MOL0     H34442   5.621  11.068  10.275 -2.8977 -2.0513 -0.9531
  261MOL0     H34443   5.561  11.202  10.187  0.6530  1.5478 -2.5043
  261MOL0     H34444   5.847  11.124  10.198  2.5372  1.9457 -0.9105
  261MOL0     H34445   5.786  11.204  10.050  1.8730 -1.6986  0.4177
  261MOL0     H34446   5.766  11.280  10.351 -1.2539  0.0842 -0.4391
  261MOL0     H34447   5.677  11.374  10.219 -2.9473 -2.1354  0.5404
  261MOL0     H34448   5.879  11.457  10.135  1.9695  0.2650  0.6662
  261MOL0     H34449   5.901  11.477  10.303 -3.6902  2.8179 -1.8316
  261MOL0     H34450   6.230  11.230  10.206 -0.8197 -1.9841  3.1374
  261MOL0     H34451   5.848  10.979   9.958  1.8091 -0.7946  0.6615
  261MOL0     H34452   5.962  10.764   9.979  0.9874  3.0758 -1.1131
  262MOL0     O34453   6.369  10.947   7.088 -0.6312  0.6396 -0.5283
  262MOL0     C34454   6.481  10.897   7.046 -0.9125  0.2635  0.9821
  262MOL0     O34455   6.511  10.771   7.015  0.0061 -0.0372 -0.3371
  262MOL0     C34456   6.415  10.674   7.034  0.5109 -0.5451  0.0035
  262MOL0     C34457   6.352  10.611   6.932 -1.0710 -0.4139 -0.1554
  262MOL0     C34458   6.262  10.505   6.949 -0.0216  0.4075 -0.0723
  262MOL0     C34459   6.226  10.475   7.079  1.2517 -0.1054 -0.1012
  262MOL0     O34460   6.145  10.362   7.087 -0.0448 -0.2296  0.4241
  262MOL0     C34461   6.037  10.352   7.183 -0.9556 -1.6336 -0.0369
  262MOL0     C34462   6.001  10.211   7.189  0.9644  0.0396 -0.8427
  262MOL0     C34463   5.866  10.198   7.256 -0.1060  0.0075  0.2290
  262MOL0     C34464   5.837  10.053   7.294  0.5020 -0.5932 -0.1066
  262MOL0     C34465   5.800   9.978   7.165 -0.5569  0.8259 -0.1049
  262MOL0     C34466   5.731   9.840   7.218 -0.0539  0.3995  0.4782
  262MOL0     C34467   5.828   9.735   7.264  0.7461  0.7975 -0.3284
  262MOL0     C34468   5.767   9.654   7.389 -0.0343 -1.1548  0.6505
  262MOL0     N34469   5.689   9.533   7.363  0.4929  0.1579  0.5079
  262MOL0     C34470   5.695   9.413   7.439 -0.0850  0.2208  1.0081
  262MOL0     C34471   5.621   9.326   7.366  0.2006 -0.5688 -0.1489
  262MOL0     C34472   5.616   9.185   7.408 -0.3020  0.6334 -0.0585
  262MOL0     C34473   5.686   9.083   7.303 -0.6026  0.6155 -0.3358
  262MOL0     C34474   5.819   9.142   7.247  1.1269 -0.0851  0.4197
  262MOL0     C34475   5.904   9.026   7.194  0.1676  0.4624 -0.5223
  262MOL0     O34476   5.845   8.997   7.067 -0.1205  0.4403  0.4236
  262MOL0     C34477   5.888   9.052   6.951 -0.6940  0.0036 -0.4539
  262MOL0     C34478   5.822   8.998   6.840  0.4180  0.8625  0.2162
  262MOL0     C34479   5.864   9.043   6.715 -0.3514  0.6319  0.0177
  262MOL0     C34480   5.957   9.148   6.693  0.6088 -0.0856 -0.1371
  262MOL0     C34481   5.996   9.198   6.550 -0.8077  0.8301 -0.8839
  262MOL0     O34482   6.070   9.306   6.554 -0.1906  0.0931 -0.6858
  262MOL0     C34483   6.136   9.352   6.445 -0.5913 -0.5326  0.1050
  262MOL0     C34484   6.170   9.494   6.452  0.2308  0.3666 -0.4378
  262MOL0     C34485   6.257   9.547   6.356 -0.1545 -0.1561 -0.2747
  262MOL0     C34486   6.317   9.456   6.254 -0.5653 -0.6258  0.3690
  262MOL0     O34487   6.403   9.509   6.154  0.7057 -0.0635 -0.2091
  262MOL0     C34488   6.349   9.584   6.043  0.5939  0.4221  0.2918
  262MOL0     C34489   6.298   9.491   5.931 -0.4196  0.0404  0.9333
  262MOL0     C34490   6.398   9.384   5.886  0.7528  0.1248 -0.0756
  262MOL0     C34491   6.332   9.290   5.785  0.0138  1.0704  0.0660
  262MOL0     C34492   6.423   9.174   5.766 -0.4982  0.4215 -0.8732
  262MOL0     C34493   6.562   9.194   5.708 -0.3025  0.8136 -0.2357
  262MOL0     C34494   6.645   9.067   5.705 -0.8913  0.5941  0.5704
  262MOL0     C34495   6.781   9.103   5.654  0.2437  0.2396  0.3240
  262MOL0    Cl34496   6.872   8.956   5.647  0.6297 -0.3512 -0.0962
  262MOL0     C34497   6.285   9.318   6.248 -0.3024  0.3382  0.0070
  262MOL0     C34498   6.200   9.271   6.346 -0.1387  0.3819  0.1838
  262MOL0     O34499   5.967   9.131   6.448  0.1938 -0.7587 -0.5576
  262MOL0     C34500   6.018   9.209   6.808 -0.4380 -0.5868  0.6491
  262MOL0     C34501   5.988   9.156   6.934  0.2483  0.2014 -0.1650
  262MOL0     N34502   5.573   9.399   7.254  0.4531  0.7001 -0.1845
  262MOL0     N34503   5.616   9.513   7.251 -0.0639  0.4504 -0.4633
  262MOL0     C34504   6.280  10.545   7.189  1.1003 -0.0100 -0.1638
  262MOL0     C34505   6.372  10.647   7.166  0.0414 -0.2323  0.2997
  262MOL0     C34506   6.593  10.993   7.038 -0.5148  0.3021  0.3127
  262MOL0     C34507   6.581  11.116   7.106 -0.8146 -1.0120  0.3456
  262MOL0     C34508   6.681  11.214   7.083 -0.1302  0.0183 -0.1950
  262MOL0     C34509   6.800  11.193   7.008 -0.1879 -0.3756  0.6260
  262MOL0     O34510   6.888  11.291   7.001 -0.6632 -0.4536  0.5825
  262MOL0     C34511   6.985  11.289   7.110 -0.6031  1.1639 -0.0278
  262MOL0     C34512   7.022  11.428   7.155  0.8014 -1.5776  0.9574
  262MOL0     C34513   6.922  11.485   7.252  0.1000 -0.6535  0.2526
  262MOL0     C34514   6.900  11.398   7.372  0.4780 -0.6539 -0.6415
  262MOL0     C34515   7.019  11.407   7.460  0.0417  0.7822  0.5804
  262MOL0     C34516   7.125  11.417   7.509  0.4383 -0.1756 -0.4285
  262MOL0     C34517   6.807  11.067   6.934 -0.2398  0.0698 -0.4783
  262MOL0     C34518   6.703  10.971   6.938  0.5209 -0.7003 -0.5158
  262MOL0     H34519   6.382  10.640   6.832  1.6424 -2.2900 -0.0074
  262MOL0     H34520   6.204  10.468   6.865 -0.3347  2.5268 -0.8335
  262MOL0     H34521   5.951  10.400   7.136 -1.8935 -2.8601  0.3560
  262MOL0     H34522   6.067  10.392   7.281  3.5326 -3.4825 -0.4373
  262MOL0     H34523   6.079  10.166   7.253 -1.8432 -1.1086  2.0490
  262MOL0     H34524   6.004  10.166   7.090 -1.3659  0.8170 -1.3156
  262MOL0     H34525   5.784  10.235   7.194  1.4014  1.4983 -0.9898
  262MOL0     H34526   5.875  10.263   7.343  1.7788  1.7860 -1.1968
  262MOL0     H34527   5.915  10.007   7.357 -0.6253 -0.7746  1.2125
  262MOL0     H34528   5.739  10.067   7.341  0.2359  3.1192 -1.4536
  262MOL0     H34529   5.884   9.942   7.105 -0.7448  0.1882 -0.0027
  262MOL0     H34530   5.730  10.027   7.096 -1.4628 -0.7457 -0.3732
  262MOL0     H34531   5.687   9.795   7.129 -1.2622 -2.1494  2.2526
  262MOL0     H34532   5.653   9.862   7.291  0.6832  0.2605  1.3191
  262MOL0     H34533   5.845   9.661   7.185  2.1398  0.9962 -0.2273
  262MOL0     H34534   5.924   9.779   7.292 -1.0164  3.5245  1.9254
  262MOL0     H34535   5.715   9.725   7.454  2.2044  1.4896 -0.2749
  262MOL0     H34536   5.850   9.633   7.458  2.8917  3.3118 -1.0931
  262MOL0     H34537   5.750   9.395   7.531 -2.3433  3.7156  3.2964
  262MOL0     H34538   5.508   9.166   7.415 -0.0019 -1.3007 -0.1497
  262MOL0     H34539   5.657   9.180   7.509 -1.5508 -2.8776  0.4137
  262MOL0     H34540   5.623   9.067   7.215  0.5884  0.1586 -1.1182
  262MOL0     H34541   5.704   8.995   7.366  0.4221  0.4613 -0.8303
  262MOL0     H34542   5.801   9.216   7.168 -1.9121 -3.2067 -2.1720
  262MOL0     H34543   5.868   9.194   7.329  0.4238  0.0834  0.7422
  262MOL0     H34544   5.910   8.938   7.259  3.0015  0.6272 -0.4471
  262MOL0     H34545   6.009   9.054   7.193  1.0243 -2.0939  2.8289
  262MOL0     H34546   5.739   8.929   6.844 -0.5723  1.9159 -1.3624
  262MOL0     H34547   5.819   9.003   6.624 -2.4415  3.0844 -0.1579
  262MOL0     H34548   6.141   9.550   6.541  0.9493  0.4221 -0.2238
  262MOL0     H34549   6.275   9.654   6.347 -2.4948  0.1697 -2.4577
  262MOL0     H34550   6.429   9.632   5.984  0.8607 -0.7664 -0.3300
  262MOL0     H34551   6.278   9.662   6.073  1.3518  1.7422 -1.1864
  262MOL0     H34552   6.273   9.560   5.851 -0.5493 -0.6172  0.3984
  262MOL0     H34553   6.208   9.439   5.965 -0.8123 -0.3485 -0.6371
  262MOL0     H34554   6.429   9.335   5.979  0.3517  1.8466  1.0188
  262MOL0     H34555   6.491   9.427   5.848  1.4687 -0.7055  0.7150
  262MOL0     H34556   6.246   9.248   5.837  0.2607  2.1294  1.3957
  262MOL0     H34557   6.299   9.342   5.695 -0.6149 -2.6861 -2.0674
  262MOL0     H34558   6.375   9.109   5.693  1.6119 -3.3991  0.8116
  262MOL0     H34559   6.432   9.113   5.856  2.3521  0.4106 -1.0626
  262MOL0     H34560   6.604   9.267   5.778 -0.5644  1.4767 -0.7590
  262MOL0     H34561   6.568   9.240   5.609  3.6270 -2.2765 -1.7341
  262MOL0     H34562   6.652   9.019   5.803  0.9625  0.5220  0.4247
  262MOL0     H34563   6.614   8.990   5.633  0.0610  1.2675 -0.5840
  262MOL0     H34564   6.828   9.175   5.721  1.0766  0.7865 -0.8153
  262MOL0     H34565   6.778   9.146   5.553 -1.9367 -3.6437 -1.5323
  262MOL0     H34566   6.324   9.252   6.172  1.0318  0.1283  0.8340
  262MOL0     H34567   6.177   9.166   6.332 -1.0472  0.4453  1.0666
  262MOL0     H34568   6.094   9.284   6.792 -1.8529  0.8362  0.4010
  262MOL0     H34569   6.025   9.180   7.033 -2.3723  1.0237  0.7045
  262MOL0     H34570   6.253  10.528   7.292  0.3738  0.8280 -0.2080
  262MOL0     H34571   6.421  10.692   7.252 -1.5475 -1.5520  1.9700
  262MOL0     H34572   6.498  11.135   7.174 -1.6187  0.8853 -1.0752
  262MOL0     H34573   6.671  11.314   7.123  0.4511  0.4820 -1.1667
  262MOL0     H34574   7.079  11.252   7.068 -0.9971 -1.0777  0.8989
  262MOL0     H34575   6.963  11.214   7.187 -4.0674 -0.2783 -2.1445
  262MOL0     H34576   7.120  11.417   7.202  0.4814  0.2789  2.1287
  262MOL0     H34577   7.022  11.492   7.066 -3.3716 -1.8704  0.5605
  262MOL0     H34578   6.827  11.487   7.200  0.5179 -5.3517 -1.1511
  262MOL0     H34579   6.952  11.587   7.278  1.0020 -1.0424  0.8378
  262MOL0     H34580   6.815  11.442   7.426 -0.6694 -1.2726 -1.8719
  262MOL0     H34581   6.879  11.294   7.349 -3.8723 -0.0978 -0.0138
  262MOL0     H34582   7.216  11.434   7.564  0.3102 -0.4248 -0.1361
  262MOL0     H34583   6.894  11.054   6.870  0.9905  0.2645  1.1034
  262MOL0     H34584   6.711  10.894   6.863  4.0402  0.5376 -1.6153
  263MOL0     O34585   4.513   7.866   7.632 -0.2658 -0.1981 -0.3776
  263MOL0     C34586   4.526   7.872   7.513  1.2264 -0.0905 -0.3020
  263MOL0     O34587   4.630   7.820   7.435  0.5496 -0.0982 -0.6677
  263MOL0     C34588   4.755   7.807   7.477 -0.3552 -0.3279  0.4492
  263MOL0     C34589   4.794   7.736   7.593 -0.2103  0.6583  0.2151
  263MOL0     C34590   4.924   7.712   7.627  1.4204  0.1825  0.4341
  263MOL0     C34591   5.033   7.760   7.542  0.3264  0.5082 -0.1410
  263MOL0     O34592   5.166   7.742   7.566 -0.5406  0.0425 -0.6626
  263MOL0     C34593   5.194   7.654   7.674 -0.9149  0.0014 -0.3163
  263MOL0     C34594   5.343   7.636   7.678  0.1857 -0.1887  0.2355
  263MOL0     C34595   5.365   7.565   7.813 -0.2788  0.2902  0.0119
  263MOL0     C34596   5.515   7.550   7.825  0.1171  0.3199 -0.0669
  263MOL0     C34597   5.562   7.512   7.966  0.1198 -0.3157  0.3258
  263MOL0     C34598   5.507   7.386   8.024  0.2553  0.3294 -0.7006
  263MOL0     C34599   5.622   7.278   8.005  0.3953 -0.6950 -0.4551
  263MOL0     C34600   5.572   7.135   8.063 -0.2428 -0.5185  0.3277
  263MOL0     N34601   5.554   7.124   8.211  0.0291  0.5223 -0.3788
  263MOL0     C34602   5.462   7.178   8.300 -0.2170  0.1605 -0.5971
  263MOL0     C34603   5.474   7.102   8.416 -0.7830 -0.6911  0.5795
  263MOL0     C34604   5.394   7.116   8.549 -0.4997 -0.1424  0.8632
  263MOL0     C34605   5.237   7.146   8.535 -0.9094  0.6735 -0.1501
  263MOL0     C34606   5.163   7.007   8.523  0.0160 -0.9058 -0.0167
  263MOL0     C34607   5.209   6.909   8.629 -0.0950 -0.1275 -0.4786
  263MOL0     O34608   5.107   6.812   8.678  0.7902  0.3132  0.0177
  263MOL0     C34609   5.174   6.702   8.733  0.6227 -0.7111  0.1558
  263MOL0     C34610   5.194   6.710   8.866  0.0413  0.1905 -0.0999
  263MOL0     C34611   5.274   6.606   8.931 -0.2057 -0.1996  0.2966
  263MOL0     C34612   5.305   6.487   8.866  0.2881  1.2283  0.2411
  263MOL0     C34613   5.357   6.358   8.935 -0.6341  0.0226 -0.6870
  263MOL0     O34614   5.377   6.367   9.070  0.0132 -0.1190 -0.3644
  263MOL0     C34615   5.415   6.247   9.125 -0.0107  2.1155 -0.6638
  263MOL0     C34616   5.547   6.197   9.117  0.1396 -0.3179 -0.7706
  263MOL0     C34617   5.592   6.090   9.195 -0.5675 -0.8435  0.2280
  263MOL0     C34618   5.497   6.015   9.271 -0.3010  1.1237  0.3267
  263MOL0     O34619   5.525   5.908   9.352  0.1810 -0.2930 -0.4497
  263MOL0     C34620   5.663   5.860   9.384 -0.6636 -0.5869 -0.1636
  263MOL0     C34621   5.654   5.729   9.463  0.1348 -0.2181 -0.0015
  263MOL0     C34622   5.794   5.695   9.506 -0.0089 -0.2704  0.0071
  263MOL0     C34623   5.788   5.569   9.600 -0.7379 -0.2044 -0.3406
  263MOL0     C34624   5.928   5.538   9.650 -0.8275 -0.2835  0.1941
  263MOL0     C34625   5.929   5.416   9.744  0.3904  0.2973 -0.1526
  263MOL0     C34626   6.057   5.405   9.821  0.5849 -0.7340  0.3314
  263MOL0     C34627   6.082   5.261   9.869 -0.5987 -0.5285  0.0285
  263MOL0    Cl34628   6.117   5.158   9.719 -0.4018 -0.8521  0.0997
  263MOL0     C34629   5.369   6.059   9.264  0.8531 -1.2747 -1.5370
  263MOL0     C34630   5.327   6.175   9.203 -1.0025  0.6091 -0.3817
  263MOL0     O34631   5.391   6.267   8.864  0.0865  0.3604 -0.0092
  263MOL0     C34632   5.255   6.475   8.739 -0.6109 -0.3226  0.2500
  263MOL0     C34633   5.204   6.591   8.670  0.6467  1.8007 -0.7896
  263MOL0     N34634   5.580   7.019   8.402 -0.6427  1.3258  0.2726
  263MOL0     N34635   5.606   7.017   8.281  0.2022 -0.1994 -0.2072
  263MOL0     C34636   4.993   7.824   7.427  0.0460 -1.1015  1.0909
  263MOL0     C34637   4.860   7.855   7.399 -0.2392  0.2120  0.2137
  263MOL0     C34638   4.407   7.910   7.438  0.3265 -0.2385  0.1289
  263MOL0     C34639   4.301   7.989   7.487 -0.0220  0.3531 -0.1239
  263MOL0     C34640   4.185   8.029   7.418  0.8545 -0.6589  0.6690
  263MOL0     C34641   4.179   8.006   7.278 -0.4455 -0.8971  1.0412
  263MOL0     O34642   4.077   8.043   7.198 -0.0518  0.2331 -0.3662
  263MOL0     C34643   3.971   8.134   7.249 -0.8683 -1.5285  0.1003
  263MOL0     C34644   4.011   8.275   7.289  0.2188 -0.3671 -0.1843
  263MOL0     C34645   3.886   8.338   7.356  0.5775 -0.1369  0.0553
  263MOL0     C34646   3.902   8.484   7.381 -0.2717 -0.0881  0.1905
  263MOL0     C34647   3.857   8.569   7.270 -1.1328 -0.0465  0.2898
  263MOL0     C34648   3.800   8.631   7.182 -0.0140  0.4487 -0.1615
  263MOL0     C34649   4.281   7.923   7.219  0.0480  0.6900  0.1084
  263MOL0     C34650   4.387   7.876   7.297 -0.0362 -0.3528  0.2738
  263MOL0     H34651   4.709   7.698   7.649 -2.6300  2.7957 -1.6962
  263MOL0     H34652   4.946   7.683   7.729 -0.9515  0.6491  1.1500
  263MOL0     H34653   5.147   7.556   7.664 -0.3240 -1.0998  4.8428
  263MOL0     H34654   5.164   7.695   7.771 -2.8231 -3.0745  0.5509
  263MOL0     H34655   5.382   7.738   7.687 -0.4200  0.0183  0.5467
  263MOL0     H34656   5.376   7.574   7.595 -1.5464 -1.7760  0.6759
  263MOL0     H34657   5.317   7.466   7.811 -1.8251  1.0118 -1.3924
  263MOL0     H34658   5.322   7.614   7.900  1.0415  0.3777  0.6363
  263MOL0     H34659   5.539   7.480   7.744 -3.1608  0.5498 -1.3901
  263MOL0     H34660   5.562   7.646   7.803  0.8002  0.0888  0.3787
  263MOL0     H34661   5.520   7.589   8.032  0.1214  1.5865 -1.7846
  263MOL0     H34662   5.670   7.527   7.969 -0.2140  2.7717  2.2725
  263MOL0     H34663   5.413   7.365   7.973 -1.3319  4.9886 -0.1132
  263MOL0     H34664   5.478   7.396   8.128  0.2287 -0.0086 -0.6723
  263MOL0     H34665   5.633   7.252   7.900  1.9052 -3.1103  0.2231
  263MOL0     H34666   5.717   7.316   8.044  2.3689 -4.0242 -1.6148
  263MOL0     H34667   5.647   7.064   8.026  1.3091  0.4033  1.6272
  263MOL0     H34668   5.480   7.107   8.011 -1.2249  1.6700  0.8087
  263MOL0     H34669   5.381   7.246   8.276  0.2813  2.4083  3.2442
  263MOL0     H34670   5.447   7.199   8.596  3.8355  0.2018 -3.7622
  263MOL0     H34671   5.413   7.027   8.610 -2.2255  1.2998  3.7333
  263MOL0     H34672   5.208   7.218   8.458 -1.9384  1.2000  0.7072
  263MOL0     H34673   5.204   7.188   8.630 -0.2026  2.9587 -0.8647
  263MOL0     H34674   5.053   7.010   8.527 -0.0074 -2.0071  1.1469
  263MOL0     H34675   5.195   6.960   8.430  1.7848  2.0523 -1.0233
  263MOL0     H34676   5.248   6.974   8.708 -0.7227  1.7513 -1.6599
  263MOL0     H34677   5.297   6.856   8.592  0.2649  0.4602 -0.4793
  263MOL0     H34678   5.167   6.795   8.929  0.8479 -1.4120  2.5898
  263MOL0     H34679   5.277   6.612   9.040  0.1942  1.1424  0.2297
  263MOL0     H34680   5.618   6.257   9.060 -1.2788  0.7340 -1.4893
  263MOL0     H34681   5.694   6.055   9.187 -1.2972 -2.6997 -2.3601
  263MOL0     H34682   5.704   5.935   9.452  0.6331 -0.8397 -0.6417
  263MOL0     H34683   5.713   5.852   9.287 -1.2990 -3.2612 -0.3620
  263MOL0     H34684   5.615   5.651   9.397 -1.3976 -0.5420  1.2292
  263MOL0     H34685   5.583   5.741   9.546 -0.0103 -1.7683  0.1217
  263MOL0     H34686   5.828   5.770   9.578 -2.5864 -0.8985  2.0389
  263MOL0     H34687   5.861   5.674   9.423  2.3799  1.5270  1.3479
  263MOL0     H34688   5.728   5.600   9.686 -0.9612  1.5338 -1.0778
  263MOL0     H34689   5.751   5.481   9.546 -0.7215 -0.8047  0.5986
  263MOL0     H34690   5.970   5.627   9.698 -0.2316 -1.5339  2.1069
  263MOL0     H34691   5.988   5.528   9.559 -0.6025  2.9557 -0.1222
  263MOL0     H34692   5.915   5.328   9.680 -0.0193  0.0358  0.2879
  263MOL0     H34693   5.848   5.416   9.817  4.1740  0.3320  4.5499
  263MOL0     H34694   6.149   5.427   9.766 -0.3211 -0.2984 -1.0895
  263MOL0     H34695   6.044   5.469   9.908  2.0124  2.1316 -1.4040
  263MOL0     H34696   5.996   5.224   9.925 -1.3984 -0.4891 -1.1450
  263MOL0     H34697   6.171   5.255   9.933 -0.5604  0.2482  0.0519
  263MOL0     H34698   5.296   6.017   9.333  0.8019  1.1877  0.0410
  263MOL0     H34699   5.234   6.226   9.226 -1.8449 -1.0326 -0.0623
  263MOL0     H34700   5.273   6.383   8.685 -4.5772 -2.6455  2.4202
  263MOL0     H34701   5.176   6.568   8.568  3.3054 -2.8406 -0.7358
  263MOL0     H34702   5.068   7.864   7.359 -0.6368 -0.0127  0.9487
  263MOL0     H34703   4.834   7.918   7.315  2.7335  0.1833 -0.8593
  263MOL0     H34704   4.305   8.025   7.589  1.4903  2.1898 -0.7664
  263MOL0     H34705   4.102   8.078   7.467  0.1874 -0.7715 -0.3199
  263MOL0     H34706   3.918   8.073   7.322  2.5357 -1.9615  2.4824
  263MOL0     H34707   3.896   8.140   7.170 -1.5146  1.1358  0.7986
  263MOL0     H34708   4.102   8.275   7.349  0.1551  0.7559 -0.0549
  263MOL0     H34709   4.024   8.341   7.203  1.1580 -0.1110  0.1394
  263MOL0     H34710   3.859   8.290   7.450 -0.2510 -2.8303 -1.4337
  263MOL0     H34711   3.794   8.318   7.299 -0.7823  1.3525  1.5998
  263MOL0     H34712   3.842   8.517   7.466 -2.7254  0.5192 -1.6584
  263MOL0     H34713   4.007   8.510   7.397 -0.4364  1.0478 -0.4590
  263MOL0     H34714   3.733   8.676   7.110  0.4672  2.1209  0.3788
  263MOL0     H34715   4.282   7.899   7.113  0.8148 -1.5967  0.5693
  263MOL0     H34716   4.457   7.805   7.254 -0.3643 -1.0666  0.8744
  264MOL0     O34717   3.309   1.165   8.199  1.1645  0.0937  0.1174
  264MOL0     C34718   3.294   1.283   8.186  0.4449 -1.1630 -0.6857
  264MOL0     O34719   3.322   1.356   8.071 -0.2204 -0.1937  0.7346
  264MOL0     C34720   3.350   1.281   7.963  0.4319  0.5768  0.5147
  264MOL0     C34721   3.269   1.283   7.842  0.0512  0.8763 -0.5671
  264MOL0     C34722   3.300   1.203   7.728  0.5229  0.5155  0.3679
  264MOL0     C34723   3.412   1.126   7.731  0.3187 -0.7185  0.0593
  264MOL0     O34724   3.443   1.051   7.617  0.6417 -0.2947  0.1808
  264MOL0     C34725   3.399   0.917   7.631  0.9682 -0.8022  0.3424
  264MOL0     C34726   3.393   0.837   7.495 -0.0534  0.7644 -0.8520
  264MOL0     C34727   3.322   0.905   7.386  0.0325 -0.6752  1.0500
  264MOL0     C34728   3.182   0.966   7.407  0.2028  0.4472 -0.2978
  264MOL0     C34729   3.078   0.882   7.474 -0.4655 -0.3347 -0.2630
  264MOL0     C34730   2.968   0.986   7.539  0.1805  0.3985  0.1576
  264MOL0     C34731   2.852   0.907   7.586  0.5901 -0.2976 -0.9920
  264MOL0     C34732   2.740   0.891   7.490  0.1100  0.0848  0.2541
  264MOL0     N34733   2.628   0.843   7.567 -0.2165  0.1489 -0.3890
  264MOL0     C34734   2.530   0.925   7.611  0.5221 -0.4664  0.4674
  264MOL0     C34735   2.438   0.846   7.666 -0.5700  0.5394 -0.5728
  264MOL0     C34736   2.314   0.896   7.739 -0.0863  0.0848  0.4781
  264MOL0     C34737   2.328   0.853   7.888  0.2370  0.6560  0.0317
  264MOL0     C34738   2.227   0.931   7.974  0.1280 -0.1166 -1.1516
  264MOL0     C34739   2.114   0.854   8.035  1.1417 -0.6403 -0.2349
  264MOL0     O34740   2.013   0.846   7.932 -1.0402 -0.2049  0.6249
  264MOL0     C34741   1.888   0.816   7.967  0.0585  0.4605 -0.3695
  264MOL0     C34742   1.790   0.854   7.870  0.4808  1.0388 -0.9408
  264MOL0     C34743   1.658   0.821   7.881  1.5295 -0.4003  0.1643
  264MOL0     C34744   1.620   0.736   7.994  0.2032 -0.4758  0.2766
  264MOL0     C34745   1.482   0.686   8.020  0.7062 -0.4474 -0.2347
  264MOL0     O34746   1.427   0.630   7.911 -0.9585 -0.4665 -0.2626
  264MOL0     C34747   1.319   0.548   7.930 -0.8928  0.3104  0.7260
  264MOL0     C34748   1.313   0.411   7.898  0.1875  0.1537  0.4531
  264MOL0     C34749   1.194   0.343   7.910  0.4687  0.6113  0.1838
  264MOL0     C34750   1.071   0.392   7.966 -0.1736 -0.3994  0.9111
  264MOL0     O34751   0.959   0.309   7.981 -0.6626 -0.3968 -0.2894
  264MOL0     C34752   0.837   0.367   8.002  0.4293  0.0058  0.1101
  264MOL0     C34753   0.723   0.262   8.001  0.3984  0.1452 -0.5026
  264MOL0     C34754   0.590   0.316   8.043 -0.1587 -0.0349  0.1951
  264MOL0     C34755   0.551   0.450   7.974 -0.3288  0.6915 -0.0724
  264MOL0     C34756   0.547   0.452   7.819  0.8113  0.2397 -1.1430
  264MOL0     C34757   0.437   0.363   7.767 -0.9282  0.8393 -0.4241
  264MOL0     C34758   0.423   0.334   7.620 -0.6817 -0.2584  0.7539
  264MOL0     C34759   0.272   0.291   7.605  0.3641 -0.0807 -0.2216
  264MOL0    Cl34760   0.216   0.266   7.428  0.3574  0.5420  0.0610
  264MOL0     C34761   1.087   0.531   8.007 -0.2524  0.6445  0.1129
  264MOL0     C34762   1.201   0.603   7.982 -0.6674 -0.5008 -0.2208
  264MOL0     O34763   1.442   0.679   8.138 -0.3224 -0.6510  0.0021
  264MOL0     C34764   1.719   0.708   8.086 -0.0015  0.1272 -1.7600
  264MOL0     C34765   1.853   0.751   8.083  0.1832 -0.0908  0.7715
  264MOL0     N34766   2.474   0.711   7.639 -0.1815 -0.4405  0.1369
  264MOL0     N34767   2.585   0.707   7.587 -0.0704 -0.1821 -0.3374
  264MOL0     C34768   3.498   1.131   7.840  0.4883  0.6234 -0.2914
  264MOL0     C34769   3.467   1.202   7.956 -0.6716 -0.4641  0.3329
  264MOL0     C34770   3.253   1.355   8.312  0.6405 -1.7450  0.3447
  264MOL0     C34771   3.246   1.499   8.299 -0.3611  0.1737  0.3540
  264MOL0     C34772   3.200   1.585   8.399  0.1137 -0.4494 -0.5772
  264MOL0     C34773   3.204   1.528   8.535 -0.5668  0.3017 -0.1000
  264MOL0     O34774   3.169   1.615   8.635 -0.3865 -0.5965 -0.4736
  264MOL0     C34775   3.259   1.665   8.733  0.2252 -0.1817  0.8168
  264MOL0     C34776   3.379   1.574   8.767 -0.1190 -0.1058 -0.2188
  264MOL0     C34777   3.486   1.660   8.822 -0.0274  0.7016  0.3861
  264MOL0     C34778   3.610   1.599   8.877 -0.3253  0.4164 -0.1353
  264MOL0     C34779   3.690   1.518   8.783 -0.1092 -0.4543  0.8191
  264MOL0     C34780   3.722   1.435   8.702  0.0963 -0.1197  0.6696
  264MOL0     C34781   3.205   1.383   8.552 -0.1373 -0.2107  0.4183
  264MOL0     C34782   3.232   1.291   8.436  0.6877  0.2720 -0.5925
  264MOL0     H34783   3.185   1.352   7.835  1.8999  3.1067 -2.1920
  264MOL0     H34784   3.245   1.217   7.636  2.0146 -0.0666 -0.6376
  264MOL0     H34785   3.296   0.918   7.668  0.4583  1.6133 -0.9017
  264MOL0     H34786   3.452   0.855   7.704  1.7003 -3.4141 -2.2269
  264MOL0     H34787   3.352   0.739   7.517 -1.2229  1.9906  3.3331
  264MOL0     H34788   3.498   0.819   7.470 -0.3270 -0.4490 -1.1492
  264MOL0     H34789   3.326   0.831   7.305  3.3103  1.0557 -0.5803
  264MOL0     H34790   3.386   0.984   7.346  0.6731 -0.3190  2.7131
  264MOL0     H34791   3.190   1.060   7.464  1.7093 -1.5933  3.1886
  264MOL0     H34792   3.134   0.994   7.313  1.6488  6.5935  0.3225
  264MOL0     H34793   3.120   0.820   7.554 -1.5387 -1.2454 -0.3848
  264MOL0     H34794   3.025   0.819   7.402  1.4095  0.9056 -2.8773
  264MOL0     H34795   2.930   1.049   7.458 -4.1066 -0.3722  1.3140
  264MOL0     H34796   3.030   1.033   7.615  2.8616 -1.6649 -0.6061
  264MOL0     H34797   2.885   0.812   7.628  1.7597  0.1406 -0.8652
  264MOL0     H34798   2.804   0.967   7.664  0.3631  0.6334 -1.8191
  264MOL0     H34799   2.767   0.824   7.408 -1.5287  1.9223 -1.9215
  264MOL0     H34800   2.719   0.991   7.451 -0.9398  0.3140  1.3375
  264MOL0     H34801   2.527   1.033   7.606 -4.7355 -0.2900  1.2055
  264MOL0     H34802   2.227   0.863   7.680  0.9730 -3.5269  0.6935
  264MOL0     H34803   2.311   1.005   7.735 -2.4903  0.1489  2.3337
  264MOL0     H34804   2.421   0.893   7.928  0.7192 -2.1608  1.9680
  264MOL0     H34805   2.319   0.746   7.908 -0.3521  0.2418 -2.1739
  264MOL0     H34806   2.274   0.974   8.063 -1.7792 -0.8876  0.3065
  264MOL0     H34807   2.184   1.016   7.919 -0.8815  0.0031 -0.2138
  264MOL0     H34808   2.076   0.910   8.121 -0.4397 -0.3412 -1.1057
  264MOL0     H34809   2.139   0.759   8.084 -0.5703  0.1177  2.3231
  264MOL0     H34810   1.826   0.903   7.780 -0.5368  1.5365 -1.0912
  264MOL0     H34811   1.584   0.858   7.811  4.1396  1.7595 -1.6672
  264MOL0     H34812   1.409   0.381   7.856  1.0520  0.3841  2.1486
  264MOL0     H34813   1.204   0.239   7.879  0.4397  0.2725  1.2735
  264MOL0     H34814   0.815   0.438   7.922  0.8162 -1.3536 -1.2575
  264MOL0     H34815   0.850   0.417   8.098  1.1434 -0.3869  0.2308
  264MOL0     H34816   0.754   0.179   8.066 -1.9017 -0.8229 -0.5419
  264MOL0     H34817   0.717   0.219   7.900  1.4072  1.7688 -1.2897
  264MOL0     H34818   0.603   0.331   8.150  1.0570 -0.0162  0.0598
  264MOL0     H34819   0.505   0.248   8.031 -0.7135  0.4733  1.1760
  264MOL0     H34820   0.448   0.464   8.009 -0.4242 -0.5682  0.1965
  264MOL0     H34821   0.605   0.535   8.018 -1.9240  0.9873  1.4390
  264MOL0     H34822   0.644   0.426   7.775  1.3173  1.6244 -0.8942
  264MOL0     H34823   0.530   0.557   7.793 -2.9879 -0.2016 -0.9491
  264MOL0     H34824   0.349   0.402   7.818 -1.2358 -1.6046  1.0847
  264MOL0     H34825   0.453   0.269   7.822 -3.4216  1.1794  1.0011
  264MOL0     H34826   0.430   0.425   7.560 -2.4310 -1.2014 -1.0265
  264MOL0     H34827   0.491   0.257   7.583  0.5951  0.8720  0.7035
  264MOL0     H34828   0.211   0.365   7.658  3.2650  0.6228  2.4323
  264MOL0     H34829   0.247   0.202   7.663 -2.7178  2.2113  2.3283
  264MOL0     H34830   0.996   0.576   8.042 -1.7061 -0.5847 -1.8323
  264MOL0     H34831   1.209   0.710   7.993 -1.2645 -0.6051  1.5563
  264MOL0     H34832   1.694   0.656   8.178  0.7346  0.5671 -1.2954
  264MOL0     H34833   1.919   0.722   8.164  0.7890  1.3489  0.8162
  264MOL0     H34834   3.596   1.084   7.841  0.6117  0.8450 -1.3597
  264MOL0     H34835   3.535   1.208   8.040  0.1947  2.6136 -0.4424
  264MOL0     H34836   3.268   1.552   8.207 -2.0195  0.4503  0.0868
  264MOL0     H34837   3.209   1.691   8.379  0.2782 -0.4629 -0.5823
  264MOL0     H34838   3.197   1.679   8.823 -3.3252  2.9409 -1.7781
  264MOL0     H34839   3.282   1.764   8.693 -1.2420  0.1955  0.8596
  264MOL0     H34840   3.346   1.492   8.830  1.5248 -0.2874  0.4760
  264MOL0     H34841   3.415   1.515   8.682  2.4827 -0.0285  0.7112
  264MOL0     H34842   3.432   1.725   8.892 -4.2788 -1.8291 -0.2233
  264MOL0     H34843   3.507   1.708   8.726  0.4233 -2.3287 -1.1262
  264MOL0     H34844   3.666   1.685   8.914 -0.5555  1.2403 -1.6170
  264MOL0     H34845   3.581   1.533   8.959 -1.0618  0.6291 -0.2123
  264MOL0     H34846   3.740   1.359   8.629  0.4176  0.2288  0.3853
  264MOL0     H34847   3.204   1.345   8.653  1.9824 -1.9234 -0.1061
  264MOL0     H34848   3.238   1.184   8.450 -2.0060 -0.3433 -3.2193
  265MOL0     O34849   5.428   5.440  10.647 -0.1835  0.0769  0.0524
  265MOL0     C34850   5.486   5.535  10.696  0.6167  0.9100 -0.8293
  265MOL0     O34851   5.613   5.528  10.750  0.7446 -0.4086  0.1320
  265MOL0     C34852   5.686   5.413  10.723 -0.2470  1.3932 -0.5852
  265MOL0     C34853   5.728   5.382  10.596 -0.1146  0.4028  0.1584
  265MOL0     C34854   5.811   5.270  10.567 -0.4744 -0.0930 -0.1276
  265MOL0     C34855   5.866   5.204  10.679  0.2380  0.6040 -0.2614
  265MOL0     O34856   5.975   5.123  10.675 -0.2271 -0.3760  0.0025
  265MOL0     C34857   6.046   5.105  10.554  0.0630  0.5361  0.6892
  265MOL0     C34858   6.163   5.015  10.581 -1.0133  0.1625 -0.0395
  265MOL0     C34859   6.261   5.068  10.695  0.8418 -0.3876 -0.7338
  265MOL0     C34860   6.354   4.949  10.736 -0.1949  0.2337  0.3987
  265MOL0     C34861   6.394   4.940  10.881  0.2089 -0.1123 -0.4270
  265MOL0     C34862   6.454   4.799  10.918 -0.3211  0.0269 -1.1851
  265MOL0     C34863   6.592   4.788  10.853  0.4140 -0.7406  0.6951
  265MOL0     C34864   6.649   4.660  10.921  0.4307 -0.2450 -0.7892
  265MOL0     N34865   6.761   4.630  10.845  0.5777  0.0031 -0.0968
  265MOL0     C34866   6.885   4.696  10.849 -0.4413  0.3259 -0.5176
  265MOL0     C34867   6.949   4.653  10.741 -0.4283  0.2327  1.0449
  265MOL0     C34868   7.068   4.721  10.682  0.2082 -0.3981  0.2065
  265MOL0     C34869   7.020   4.853  10.638  0.7613 -0.3283  0.4518
  265MOL0     C34870   7.141   4.941  10.602  0.2062 -1.1620  0.9709
  265MOL0     C34871   7.156   5.071  10.673  0.1429 -0.5275 -0.7713
  265MOL0     O34872   7.295   5.097  10.680 -0.1871 -0.3667  0.1498
  265MOL0     C34873   7.335   5.206  10.754  0.6710  0.7467  0.6953
  265MOL0     C34874   7.262   5.261  10.864  0.6034  0.1105 -0.1419
  265MOL0     C34875   7.305   5.368  10.936 -0.0009 -0.5580  0.1305
  265MOL0     C34876   7.430   5.428  10.907 -0.0885 -0.1693 -1.2645
  265MOL0     C34877   7.458   5.555  10.973 -1.1735 -0.7582  0.1309
  265MOL0     O34878   7.540   5.633  10.893  0.1571 -0.0324  0.2339
  265MOL0     C34879   7.541   5.766  10.922 -0.3638  0.3419  0.1757
  265MOL0     C34880   7.595   5.810  11.046  1.1354 -0.4875 -0.6524
  265MOL0     C34881   7.607   5.943  11.071  0.4693  0.3379 -0.3245
  265MOL0     C34882   7.575   6.035  10.968  0.1176  1.3248 -0.0655
  265MOL0     O34883   7.614   6.160  10.999  0.5127 -0.4527  0.5513
  265MOL0     C34884   7.656   6.249  10.892  0.0185  1.0718 -0.0318
  265MOL0     C34885   7.641   6.394  10.930  0.3800  0.0761 -0.5123
  265MOL0     C34886   7.726   6.432  11.054 -0.0989 -0.6428  0.0538
  265MOL0     C34887   7.882   6.433  11.024  0.1963  0.3635 -0.8005
  265MOL0     C34888   7.967   6.475  11.142 -1.0124 -0.2556  0.9576
  265MOL0     C34889   7.949   6.374  11.264  0.0681 -0.1568 -0.4268
  265MOL0     C34890   8.064   6.384  11.372 -1.2706 -0.1892  0.5641
  265MOL0     C34891   8.107   6.524  11.424  0.0203  0.0989  0.2717
  265MOL0    Cl34892   8.203   6.507  11.579  0.2515  0.1844  0.3610
  265MOL0     C34893   7.525   5.988  10.847  0.4929  0.3114 -0.0328
  265MOL0     C34894   7.492   5.857  10.823 -0.5005  1.3073 -0.2150
  265MOL0     O34895   7.414   5.586  11.082  0.4690  0.0519  0.1545
  265MOL0     C34896   7.502   5.375  10.803  0.4233  1.1103  0.4236
  265MOL0     C34897   7.461   5.262  10.726  0.7198  0.4343 -0.2724
  265MOL0     N34898   6.860   4.574  10.672  0.2129 -0.7391  0.7486
  265MOL0     N34899   6.751   4.556  10.731 -1.1293 -0.6414 -0.4385
  265MOL0     C34900   5.820   5.229  10.806  0.6087  0.5828  0.4409
  265MOL0     C34901   5.735   5.339  10.832 -0.0744 -0.7363 -0.3294
  265MOL0     C34902   5.405   5.660  10.731  0.5177  1.0665  0.0011
  265MOL0     C34903   5.289   5.682  10.657  0.1661 -0.6246  0.2958
  265MOL0     C34904   5.218   5.803  10.676  0.0990 -0.7912  0.2369
  265MOL0     C34905   5.260   5.895  10.775  1.6033  0.7009 -0.0839
  265MOL0     O34906   5.178   6.006  10.789 -0.2892  0.3043 -0.1619
  265MOL0     C34907   5.230   6.108  10.879 -0.1291  0.5309  0.0421
  265MOL0     C34908   5.133   6.227  10.870 -0.0882  0.0005 -0.6809
  265MOL0     C34909   5.175   6.339  10.978  0.8063 -0.6502  0.1169
  265MOL0     C34910   5.230   6.465  10.908 -0.4027 -0.2633  0.2024
  265MOL0     C34911   5.362   6.439  10.853 -0.6369  0.8121  0.7561
  265MOL0     C34912   5.477   6.419  10.825 -0.3625  0.3589  0.2518
  265MOL0     C34913   5.383   5.867  10.843 -0.5594 -0.5695 -0.5877
  265MOL0     C34914   5.456   5.756  10.815 -0.9420  0.4696 -0.6102
  265MOL0     H34915   5.699   5.454  10.520 -0.1848  1.4175  1.1181
  265MOL0     H34916   5.844   5.257  10.465 -0.1591  1.5439 -0.2606
  265MOL0     H34917   6.060   5.203  10.507 -1.6290  1.2522  1.5828
  265MOL0     H34918   5.985   5.052  10.480  1.1258  1.4118 -0.8688
  265MOL0     H34919   6.221   4.993  10.491  2.5796  0.0490  2.1015
  265MOL0     H34920   6.125   4.921  10.622  1.7746 -1.4828 -0.9119
  265MOL0     H34921   6.207   5.111  10.780  0.6482  1.3506 -1.6831
  265MOL0     H34922   6.315   5.149  10.646  2.5630 -0.5482  0.7808
  265MOL0     H34923   6.311   4.853  10.709 -0.1334  0.2577  0.2169
  265MOL0     H34924   6.447   4.949  10.679  0.0584 -1.4437  0.7600
  265MOL0     H34925   6.303   4.963  10.937  0.8737 -0.5363  0.8622
  265MOL0     H34926   6.477   5.004  10.911 -0.7773 -1.0264  5.1951
  265MOL0     H34927   6.399   4.710  10.887  5.0247 -5.1161  2.0172
  265MOL0     H34928   6.459   4.786  11.026  0.1255  1.8616 -0.9428
  265MOL0     H34929   6.580   4.775  10.745  0.7239  0.1348  0.5503
  265MOL0     H34930   6.651   4.879  10.866  1.5941 -1.2167 -0.9689
  265MOL0     H34931   6.576   4.579  10.912  2.6511 -2.5148  0.5649
  265MOL0     H34932   6.670   4.668  11.028  0.5714 -2.8695 -0.5714
  265MOL0     H34933   6.910   4.782  10.911  1.6234  1.6488 -2.9760
  265MOL0     H34934   7.113   4.666  10.599  0.9800  2.0104 -1.0509
  265MOL0     H34935   7.142   4.731  10.761  0.7570 -1.8536 -0.0913
  265MOL0     H34936   6.945   4.898  10.704 -1.0487 -1.9002 -0.4443
  265MOL0     H34937   6.959   4.832  10.549 -0.2645 -1.2218  1.3370
  265MOL0     H34938   7.233   4.883  10.610  0.4150 -1.7658 -3.2876
  265MOL0     H34939   7.145   4.955  10.493  2.1280 -2.1831  0.8696
  265MOL0     H34940   7.113   5.068  10.774  0.5267  0.2410 -0.5831
  265MOL0     H34941   7.118   5.160  10.622  2.5617  0.2618 -1.3156
  265MOL0     H34942   7.165   5.230  10.901  0.4949  0.9295  0.3010
  265MOL0     H34943   7.249   5.422  11.011 -0.2979  3.5906 -2.7419
  265MOL0     H34944   7.624   5.738  11.122 -1.0270  3.4767  4.5366
  265MOL0     H34945   7.652   5.980  11.163  0.3471  1.7371 -0.8068
  265MOL0     H34946   7.600   6.234  10.799  3.2358 -2.0387 -1.7134
  265MOL0     H34947   7.759   6.226  10.867  0.2250  0.6486  1.1458
  265MOL0     H34948   7.539   6.402  10.970  0.9290  1.3456  0.7169
  265MOL0     H34949   7.654   6.473  10.856 -2.0689 -1.4269 -2.7214
  265MOL0     H34950   7.715   6.367  11.142  3.9147  0.4067  1.5589
  265MOL0     H34951   7.692   6.533  11.079 -1.9545 -0.3504 -3.2049
  265MOL0     H34952   7.913   6.338  10.979 -0.9619 -0.6095  0.4115
  265MOL0     H34953   7.902   6.515  10.954  0.1791  1.5462  0.5329
  265MOL0     H34954   7.953   6.575  11.185  3.7976 -0.2116  3.0289
  265MOL0     H34955   8.065   6.480  11.094 -2.3166  5.8730 -2.0948
  265MOL0     H34956   7.944   6.270  11.232  1.6981  0.3448 -2.5001
  265MOL0     H34957   7.853   6.400  11.310 -0.0826 -0.1961 -0.7190
  265MOL0     H34958   8.025   6.328  11.457 -0.4799  0.3946  1.3302
  265MOL0     H34959   8.154   6.328  11.342 -1.8586 -3.0037  3.5137
  265MOL0     H34960   8.021   6.587  11.447  0.2268 -0.2186  2.0910
  265MOL0     H34961   8.166   6.580  11.352 -1.2027 -0.6501 -1.3665
  265MOL0     H34962   7.508   6.050  10.760  1.3791 -2.5896 -2.4622
  265MOL0     H34963   7.454   5.819  10.728 -0.5199 -0.0007  0.3011
  265MOL0     H34964   7.592   5.423  10.767  0.3896  2.7959  2.4018
  265MOL0     H34965   7.519   5.215  10.647 -0.6250 -2.9935  0.5989
  265MOL0     H34966   5.845   5.168  10.892  1.8130  0.4323  0.0047
  265MOL0     H34967   5.688   5.353  10.928  2.0519 -0.3754  0.7093
  265MOL0     H34968   5.244   5.622  10.578  2.1351 -0.8949 -0.6662
  265MOL0     H34969   5.124   5.820  10.624  1.0562  0.9189 -1.0231
  265MOL0     H34970   5.336   6.133  10.873 -0.2828  1.4779  1.0120
  265MOL0     H34971   5.218   6.057  10.975  1.7926  0.5121  0.3046
  265MOL0     H34972   5.129   6.268  10.769 -1.3163  0.4719 -0.4607
  265MOL0     H34973   5.035   6.194  10.905 -1.2530  1.1626 -2.6763
  265MOL0     H34974   5.243   6.310  11.059 -0.4702  1.6441  2.1527
  265MOL0     H34975   5.081   6.375  11.020  1.9053  2.9670 -0.1818
  265MOL0     H34976   5.163   6.474  10.822 -2.0962 -2.9411  1.1149
  265MOL0     H34977   5.234   6.552  10.973  1.3174 -1.0520  1.2154
  265MOL0     H34978   5.582   6.411  10.805 -0.1631  1.9329  0.5201
  265MOL0     H34979   5.410   5.941  10.918 -0.3339 -1.1896 -0.0510
  265MOL0     H34980   5.545   5.735  10.874  0.2833 -2.1771 -3.0880
  266MOL0     O34981   1.590   3.533   7.430  0.5599  0.6699 -0.6709
  266MOL0     C34982   1.659   3.432   7.406 -0.4545 -0.5590  2.0031
  266MOL0     O34983   1.619   3.299   7.414 -0.0243  0.2805  0.0815
  266MOL0     C34984   1.503   3.289   7.482  0.2481 -0.3862 -0.6200
  266MOL0     C34985   1.374   3.340   7.426 -0.1406 -0.1219 -1.1789
  266MOL0     C34986   1.258   3.337   7.506  0.3052 -0.4056  0.7137
  266MOL0     C34987   1.262   3.297   7.640 -1.0303  0.7124 -0.2247
  266MOL0     O34988   1.147   3.343   7.709 -0.1060  0.5434 -0.6969
  266MOL0     C34989   1.172   3.345   7.854 -0.2102 -0.2021  0.3438
  266MOL0     C34990   1.035   3.414   7.907 -0.4596  0.3278 -0.8140
  266MOL0     C34991   0.923   3.322   7.879  0.5391  0.3376 -0.5809
  266MOL0     C34992   0.788   3.361   7.944 -0.0180 -0.1981 -0.4399
  266MOL0     C34993   0.686   3.246   7.928  0.6641 -1.5990  0.1045
  266MOL0     C34994   0.563   3.272   8.023  0.3947 -0.3788  0.2103
  266MOL0     C34995   0.458   3.159   8.007  0.8441 -0.3221  0.7484
  266MOL0     C34996   0.324   3.186   8.081  0.0886  0.0481  1.0977
  266MOL0     N34997   0.232   3.269   7.997  0.5585  0.4340 -0.1667
  266MOL0     C34998   0.194   3.397   8.017  0.8630  0.0530  0.3440
  266MOL0     C34999   0.114   3.428   7.915 -0.4466 -0.4027  0.2077
  266MOL0     C35000   0.056   3.566   7.893 -0.9815  0.0460  1.3077
  266MOL0     C35001   0.134   3.621   7.771 -1.0120  0.5907  0.0722
  266MOL0     C35002   0.096   3.767   7.752  0.0940 -0.4460  1.1654
  266MOL0     C35003  -0.048   3.786   7.697  0.1179  1.3600 -0.3997
  266MOL0     O35004  -0.088   3.706   7.583  0.1069 -0.0965 -0.7858
  266MOL0     C35005  -0.037   3.752   7.456  0.5676  1.0886  0.1542
  266MOL0     C35006   0.038   3.862   7.426  0.2033 -0.5114  0.1858
  266MOL0     C35007   0.085   3.888   7.291 -0.1347  0.4162 -0.0923
  266MOL0     C35008   0.064   3.797   7.185 -0.6409 -0.0531  0.0227
  266MOL0     C35009   0.108   3.821   7.047  0.7928  0.8590 -0.3622
  266MOL0     O35010   0.176   3.937   7.027 -0.5925  0.4752  0.0538
  266MOL0     C35011   0.150   3.994   6.915 -1.1157  0.0232  0.7133
  266MOL0     C35012   0.024   4.062   6.893 -0.1797 -0.0999 -0.0002
  266MOL0     C35013   0.002   4.123   6.770 -0.8371 -0.8782  0.0047
  266MOL0     C35014   0.103   4.123   6.667 -0.4955 -1.3410  0.9577
  266MOL0     O35015   0.079   4.181   6.543  0.4118  0.6072 -0.0945
  266MOL0     C35016  -0.016   4.101   6.469  0.7583  0.1131 -0.3214
  266MOL0     C35017   0.034   4.079   6.327 -0.7004 -0.2567  0.3855
  266MOL0     C35018   0.177   4.072   6.293  0.4275 -0.0218 -1.1212
  266MOL0     C35019   0.200   3.991   6.168  0.2703 -0.0766 -0.8078
  266MOL0     C35020   0.332   4.022   6.095  0.6348  0.1105  0.0811
  266MOL0     C35021   0.442   3.957   6.195  0.5091  0.0985  0.3972
  266MOL0     C35022   0.585   3.936   6.144 -0.3030 -0.3478  0.9079
  266MOL0     C35023   0.599   3.850   6.027  1.1183 -0.4148  0.8223
  266MOL0    Cl35024   0.559   3.683   6.064  0.2562  0.0058 -0.0923
  266MOL0     C35025   0.222   4.064   6.696 -1.4075  0.8125  0.3207
  266MOL0     C35026   0.252   4.005   6.814  0.0160 -0.1273  0.2296
  266MOL0     O35027   0.086   3.735   6.957 -0.2031  0.3112  0.6580
  266MOL0     C35028  -0.000   3.675   7.220  1.0810 -0.2743 -0.1547
  266MOL0     C35029  -0.049   3.661   7.352  0.3102  0.4496 -0.2082
  266MOL0     N35030   0.105   3.321   7.832  0.7357  0.3268 -0.0308
  266MOL0     N35031   0.177   3.232   7.876  0.3349  0.0147  0.1562
  266MOL0     C35032   1.388   3.247   7.690 -0.6072 -1.1318 -0.6451
  266MOL0     C35033   1.505   3.240   7.611 -0.0704 -0.1140  0.6202
  266MOL0     C35034   1.796   3.454   7.333 -0.0819 -0.2015 -0.3451
  266MOL0     C35035   1.839   3.578   7.289  0.0449  0.1374  0.3269
  266MOL0     C35036   1.940   3.592   7.200  0.6828 -0.6070  0.5402
  266MOL0     C35037   2.028   3.490   7.178 -0.4606  0.0369  0.4618
  266MOL0     O35038   2.130   3.515   7.091  0.5655 -0.5432 -0.0575
  266MOL0     C35039   2.253   3.433   7.096 -0.4509 -1.0640  0.7442
  266MOL0     C35040   2.364   3.474   7.003  0.2469 -0.3968 -0.3270
  266MOL0     C35041   2.474   3.372   7.012 -0.6818 -0.3078  0.0796
  266MOL0     C35042   2.599   3.413   6.918  0.5574  0.5347  0.5782
  266MOL0     C35043   2.547   3.449   6.783 -0.6061 -0.3641  0.2828
  266MOL0     C35044   2.515   3.482   6.676 -0.4874 -0.5681 -0.3322
  266MOL0     C35045   2.006   3.371   7.249  0.2865  0.3189 -0.0429
  266MOL0     C35046   1.889   3.350   7.318 -0.7015  1.0722  0.4173
  266MOL0     H35047   1.366   3.373   7.323 -3.3970 -1.6526 -1.5462
  266MOL0     H35048   1.171   3.392   7.473 -0.0768 -1.5194 -0.2142
  266MOL0     H35049   1.258   3.406   7.882  0.1177 -0.8971  0.8555
  266MOL0     H35050   1.190   3.243   7.888 -0.9641  0.8185  4.3249
  266MOL0     H35051   1.011   3.505   7.851  0.6387  0.0655 -1.7459
  266MOL0     H35052   1.055   3.431   8.013 -1.4178 -1.7000 -0.2470
  266MOL0     H35053   0.944   3.222   7.917  0.9588  0.9621  0.9221
  266MOL0     H35054   0.915   3.314   7.770  2.4474 -1.0174 -0.6772
  266MOL0     H35055   0.807   3.363   8.052 -0.1499  0.1684 -0.4209
  266MOL0     H35056   0.742   3.457   7.916 -0.1406  0.3906  1.6103
  266MOL0     H35057   0.743   3.160   7.966  3.2513  0.3188  0.9015
  266MOL0     H35058   0.660   3.231   7.823 -4.5276 -4.5983  1.4951
  266MOL0     H35059   0.505   3.363   8.006  0.3302 -0.0562  1.9266
  266MOL0     H35060   0.594   3.279   8.128 -0.9271  4.4393  0.5041
  266MOL0     H35061   0.449   3.141   7.900  3.4349 -2.6067  0.8148
  266MOL0     H35062   0.517   3.080   8.054  0.0179  0.8724  4.0739
  266MOL0     H35063   0.358   3.230   8.175 -0.1057  0.6785  0.8761
  266MOL0     H35064   0.265   3.098   8.107  0.4509  0.4402  3.5717
  266MOL0     H35065   0.233   3.463   8.094  1.8045  1.8079 -1.5228
  266MOL0     H35066   0.079   3.635   7.974  0.2246 -0.1396  1.1376
  266MOL0     H35067  -0.050   3.564   7.867 -0.2546 -0.3342 -2.1788
  266MOL0     H35068   0.118   3.569   7.676  3.2118 -0.0897 -0.4781
  266MOL0     H35069   0.241   3.610   7.793 -1.3267 -2.6349  0.5172
  266MOL0     H35070   0.104   3.830   7.841  1.2737 -1.1890  1.6054
  266MOL0     H35071   0.162   3.811   7.677  0.7344 -2.5925  0.4012
  266MOL0     H35072  -0.060   3.894   7.696 -1.1913  1.2328 -0.6407
  266MOL0     H35073  -0.116   3.762   7.779 -0.1038  1.2780 -0.6064
  266MOL0     H35074   0.058   3.931   7.507 -2.0393  0.6525 -0.1692
  266MOL0     H35075   0.143   3.974   7.256  1.9415 -1.4021 -1.4130
  266MOL0     H35076  -0.058   4.070   6.965 -1.5496  0.5374 -1.5731
  266MOL0     H35077  -0.099   4.160   6.753 -1.1573 -2.3754 -1.7375
  266MOL0     H35078  -0.110   4.156   6.475 -0.6640 -2.1214 -0.8250
  266MOL0     H35079  -0.043   4.005   6.515 -0.5691  1.2429  1.3539
  266MOL0     H35080  -0.008   4.151   6.256  3.9147  1.7508 -0.6514
  266MOL0     H35081  -0.001   3.979   6.300  0.1864 -0.6655  0.7093
  266MOL0     H35082   0.234   4.017   6.369  1.3779 -0.6205 -2.2399
  266MOL0     H35083   0.226   4.170   6.283  0.3019  0.3716  1.3871
  266MOL0     H35084   0.200   3.882   6.182 -0.5577  0.0206  0.0408
  266MOL0     H35085   0.121   4.027   6.101 -0.5905 -0.7057 -0.1598
  266MOL0     H35086   0.345   4.130   6.079 -3.9116  0.7854 -0.2596
  266MOL0     H35087   0.325   3.974   5.997 -1.6698 -1.8174  1.1042
  266MOL0     H35088   0.414   3.854   6.218  0.4041  0.4101  1.7083
  266MOL0     H35089   0.441   4.020   6.285  0.9384 -2.6354  2.4465
  266MOL0     H35090   0.627   4.036   6.129 -0.9516  0.3390  3.2367
  266MOL0     H35091   0.659   3.893   6.212  1.4740 -0.0367 -0.7470
  266MOL0     H35092   0.702   3.856   5.991  0.0929 -0.4045 -2.4238
  266MOL0     H35093   0.540   3.886   5.943 -0.6963  0.7308  2.4910
  266MOL0     H35094   0.300   4.073   6.621  0.0859 -0.7339  1.5989
  266MOL0     H35095   0.351   3.967   6.835  1.2805  1.0392 -3.0482
  266MOL0     H35096  -0.007   3.601   7.141  0.9252 -0.2869 -0.1289
  266MOL0     H35097  -0.107   3.571   7.369  0.6295  0.3284  0.2538
  266MOL0     H35098   1.394   3.216   7.793  3.2833  0.4523 -0.2332
  266MOL0     H35099   1.597   3.207   7.658 -0.5980  0.4914  2.1250
  266MOL0     H35100   1.781   3.663   7.323  0.7183  0.3106  1.0573
  266MOL0     H35101   1.936   3.687   7.146 -0.6287 -2.6539 -3.4021
  266MOL0     H35102   2.230   3.332   7.062  1.4261 -1.3164  0.1512
  266MOL0     H35103   2.293   3.427   7.197 -0.4764 -1.7480  0.7138
  266MOL0     H35104   2.309   3.483   6.908 -1.2415  2.7450  0.7070
  266MOL0     H35105   2.393   3.571   7.044 -0.9947 -0.5814  1.0665
  266MOL0     H35106   2.433   3.275   6.982 -0.6981 -0.1280 -0.4907
  266MOL0     H35107   2.514   3.370   7.114  2.0324 -0.8673 -0.9098
  266MOL0     H35108   2.664   3.493   6.953  3.0232 -0.7348 -0.8395
  266MOL0     H35109   2.666   3.330   6.896  0.2053  0.0851  1.1668
  266MOL0     H35110   2.497   3.537   6.586  0.3309  3.6723  1.8700
  266MOL0     H35111   2.078   3.290   7.243 -0.0852  0.0450 -1.1238
  266MOL0     H35112   1.869   3.249   7.351  0.2439  0.1625 -1.6009
  267MOL0     O35113   9.281   2.507   6.941 -0.2191 -0.1328  0.8362
  267MOL0     C35114   9.313   2.517   7.063 -0.4202  0.0626  0.0420
  267MOL0     O35115   9.406   2.440   7.115 -0.0547 -0.5119 -0.5503
  267MOL0     C35116   9.498   2.385   7.029  0.5209  0.1734  0.6470
  267MOL0     C35117   9.554   2.265   7.074  1.6987 -0.7746 -0.1326
  267MOL0     C35118   9.656   2.199   7.009  0.1989  0.7414 -0.2749
  267MOL0     C35119   9.688   2.231   6.881 -0.0522  0.0001  0.2320
  267MOL0     O35120   9.784   2.156   6.816 -0.4110 -0.4883  0.1068
  267MOL0     C35121   9.860   2.229   6.715 -0.1567  0.0470 -0.6167
  267MOL0     C35122   9.971   2.135   6.655 -0.1902 -0.1617  0.0453
  267MOL0     C35123   9.906   2.012   6.595 -0.6136  1.6964  0.1536
  267MOL0     C35124  10.017   1.918   6.533  0.0156 -0.7302  0.0278
  267MOL0     C35125  10.016   1.925   6.382  0.2677  0.0836  0.7078
  267MOL0     C35126  10.106   1.828   6.303  0.0404 -0.2844 -0.9957
  267MOL0     C35127  10.107   1.863   6.146  0.0292  0.9494  0.8472
  267MOL0     C35128  10.167   1.744   6.068  0.7615  1.4433  0.3482
  267MOL0     N35129  10.305   1.713   6.109  0.8343  0.1317 -0.0018
  267MOL0     C35130  10.335   1.628   6.212 -0.2336  0.4856 -0.4826
  267MOL0     C35131  10.468   1.619   6.206 -0.2910 -0.0609 -0.0740
  267MOL0     C35132  10.540   1.536   6.306 -0.8292  0.5550  0.5581
  267MOL0     C35133  10.693   1.530   6.263  0.5055 -0.5531 -0.1410
  267MOL0     C35134  10.772   1.456   6.374 -0.4295  0.5334  0.0743
  267MOL0     C35135  10.845   1.537   6.484 -1.3696 -0.8904 -0.1416
  267MOL0     O35136  10.756   1.633   6.547 -0.4289  0.1952 -0.5320
  267MOL0     C35137  10.674   1.591   6.650  0.9319  1.0547 -0.4822
  267MOL0     C35138  10.605   1.687   6.722  1.0278  0.0560  0.1509
  267MOL0     C35139  10.518   1.662   6.828  0.2363  0.1464 -1.1285
  267MOL0     C35140  10.505   1.530   6.875  0.2119 -0.6434  0.5186
  267MOL0     C35141  10.418   1.491   6.986  0.4000  0.4135 -0.2875
  267MOL0     O35142  10.406   1.356   7.005 -0.0400  0.3264 -0.0186
  267MOL0     C35143  10.327   1.285   7.096  0.3231 -0.6377  0.0447
  267MOL0     C35144  10.292   1.331   7.219 -0.3647  0.8230 -0.0842
  267MOL0     C35145  10.215   1.252   7.304  0.5249  0.8261  0.0482
  267MOL0     C35146  10.166   1.124   7.269  0.5101  1.5020 -0.1865
  267MOL0     O35147  10.080   1.055   7.353 -0.5409  0.8119  0.9884
  267MOL0     C35148   9.959   1.015   7.291 -0.1675 -0.4022 -0.2618
  267MOL0     C35149   9.891   0.908   7.372 -1.4133  0.7614  0.7322
  267MOL0     C35150   9.744   0.865   7.329 -0.1727 -0.8179  0.5017
  267MOL0     C35151   9.657   0.789   7.432  0.0109 -0.2874  0.3861
  267MOL0     C35152   9.531   0.739   7.375 -0.5758 -0.2562  1.2967
  267MOL0     C35153   9.444   0.637   7.463 -1.4965 -0.1955  0.6232
  267MOL0     C35154   9.360   0.701   7.568 -0.2381 -0.4312 -0.0318
  267MOL0     C35155   9.323   0.609   7.685 -0.6584 -0.7257  0.0013
  267MOL0    Cl35156   9.470   0.558   7.780  0.3828 -0.2057 -0.1259
  267MOL0     C35157  10.207   1.082   7.149 -0.1200  0.2327  0.6616
  267MOL0     C35158  10.282   1.154   7.061 -0.5553 -0.8282 -0.2073
  267MOL0     O35159  10.353   1.581   7.045 -0.0876 -0.5402  0.2094
  267MOL0     C35160  10.570   1.432   6.799 -0.3003 -0.3822 -0.0520
  267MOL0     C35161  10.659   1.466   6.698 -0.7624  0.2469 -0.5858
  267MOL0     N35162  10.509   1.703   6.101 -0.0444 -0.1584 -0.5902
  267MOL0     N35163  10.412   1.751   6.038 -0.0325 -0.3659  0.0467
  267MOL0     C35164   9.621   2.343   6.822  0.2025  0.2013  0.4110
  267MOL0     C35165   9.545   2.430   6.906 -0.4114 -1.1240 -0.2513
  267MOL0     C35166   9.258   2.619   7.165  0.2939 -0.5734  0.3521
  267MOL0     C35167   9.135   2.685   7.164 -0.4479 -0.1354 -0.8525
  267MOL0     C35168   9.084   2.766   7.266  0.7476  0.2012 -0.0179
  267MOL0     C35169   9.166   2.781   7.381  0.9224  0.6005 -0.4760
  267MOL0     O35170   9.128   2.856   7.492  0.8065  0.1178 -0.1298
  267MOL0     C35171   9.072   2.780   7.602 -0.1963 -0.5172  0.1965
  267MOL0     C35172   8.977   2.861   7.688  0.5719  0.4514  1.2395
  267MOL0     C35173   8.874   2.767   7.769 -0.0700 -0.7099  0.4550
  267MOL0     C35174   8.918   2.722   7.905 -0.5140  0.1303 -0.8356
  267MOL0     C35175   9.026   2.623   7.884 -0.2841 -0.4612  0.4630
  267MOL0     C35176   9.111   2.540   7.887  0.7468  0.1398 -0.1387
  267MOL0     C35177   9.295   2.730   7.369 -0.3958  0.1602 -1.0924
  267MOL0     C35178   9.344   2.649   7.270  0.3181  0.3470  0.1425
  267MOL0     H35179   9.518   2.247   7.175  0.9939  2.2628  0.2390
  267MOL0     H35180   9.700   2.109   7.050 -2.4609 -0.1075  0.8879
  267MOL0     H35181   9.910   2.319   6.750 -1.4346  0.5124  0.1028
  267MOL0     H35182   9.792   2.261   6.636  1.1760 -0.2917 -1.9431
  267MOL0     H35183  10.032   2.102   6.739 -1.4354 -1.4125  0.5077
  267MOL0     H35184  10.025   2.178   6.570  0.5008 -1.0410  0.0222
  267MOL0     H35185   9.839   2.038   6.512 -0.9400  2.9082  0.7760
  267MOL0     H35186   9.848   1.959   6.671  0.6599  1.8077  1.2357
  267MOL0     H35187  10.122   1.933   6.560 -0.1146 -2.4152  1.6280
  267MOL0     H35188   9.999   1.818   6.573  1.9999  0.1014  3.3976
  267MOL0     H35189  10.042   2.026   6.350 -0.9615 -0.1187 -1.0491
  267MOL0     H35190   9.915   1.908   6.346  0.9110 -1.4262 -0.5004
  267MOL0     H35191  10.099   1.719   6.317 -1.0511 -0.0988  0.1131
  267MOL0     H35192  10.206   1.836   6.346 -0.2995 -2.3931  0.3784
  267MOL0     H35193  10.004   1.876   6.112  0.9026  0.0034 -2.4815
  267MOL0     H35194  10.165   1.951   6.117 -1.0456  0.8609 -1.8467
  267MOL0     H35195  10.171   1.761   5.960  2.8002 -2.9587 -0.4760
  267MOL0     H35196  10.101   1.659   6.085  1.7174  0.3366 -1.2804
  267MOL0     H35197  10.263   1.578   6.275  2.4062 -1.4161  1.1838
  267MOL0     H35198  10.493   1.437   6.311 -1.4598  0.8854  4.2683
  267MOL0     H35199  10.548   1.584   6.404  3.5280 -2.5794  2.0607
  267MOL0     H35200  10.728   1.632   6.243 -0.4711 -0.9599 -5.1314
  267MOL0     H35201  10.698   1.472   6.170  2.8671 -2.0630  0.8329
  267MOL0     H35202  10.703   1.380   6.410 -2.2457  0.3697 -3.3308
  267MOL0     H35203  10.849   1.405   6.316 -0.5860 -1.5038  1.5685
  267MOL0     H35204  10.916   1.606   6.436 -1.1202 -0.6287  0.5974
  267MOL0     H35205  10.906   1.480   6.554  0.8411  2.5937  1.0669
  267MOL0     H35206  10.624   1.791   6.695 -1.1893  0.5978  0.5361
  267MOL0     H35207  10.456   1.740   6.870  0.6666  0.7292 -1.5692
  267MOL0     H35208  10.318   1.433   7.243  3.4307  0.3932 -1.6545
  267MOL0     H35209  10.188   1.291   7.401  0.1919 -1.6280  1.0179
  267MOL0     H35210   9.968   0.967   7.193 -1.2933 -3.5512  1.0648
  267MOL0     H35211   9.893   1.102   7.286  0.2173 -0.1522 -1.4362
  267MOL0     H35212   9.889   0.927   7.479  1.8673  2.7138  0.5830
  267MOL0     H35213   9.950   0.817   7.355 -1.6376  0.9626 -1.5203
  267MOL0     H35214   9.749   0.814   7.233  0.1636  0.4090 -0.1576
  267MOL0     H35215   9.696   0.962   7.312  0.1207 -0.5056  1.3705
  267MOL0     H35216   9.705   0.698   7.468 -3.5881 -3.4758 -2.1371
  267MOL0     H35217   9.651   0.849   7.524  0.6330  1.9440 -0.9399
  267MOL0     H35218   9.535   0.702   7.272 -1.4852  1.0383  0.7776
  267MOL0     H35219   9.463   0.824   7.363  0.8114  0.8707  1.0070
  267MOL0     H35220   9.511   0.562   7.505  0.3695  1.4241  0.6569
  267MOL0     H35221   9.386   0.578   7.392 -0.0934 -2.8656  1.5583
  267MOL0     H35222   9.407   0.785   7.621  1.1421 -2.8782  2.9787
  267MOL0     H35223   9.267   0.736   7.523 -0.9034 -0.0018  1.5748
  267MOL0     H35224   9.275   0.521   7.641 -0.2875 -1.2718  0.6699
  267MOL0     H35225   9.256   0.665   7.750  3.0913  1.7972  2.0520
  267MOL0     H35226  10.171   0.981   7.133 -2.8865  1.2591 -0.1516
  267MOL0     H35227  10.312   1.112   6.966 -0.7897  0.7390 -1.0043
  267MOL0     H35228  10.571   1.327   6.827 -1.6125 -1.0856 -2.4348
  267MOL0     H35229  10.722   1.389   6.655 -0.1252  0.3600  0.1343
  267MOL0     H35230   9.651   2.369   6.721  5.0935  0.0187  1.5530
  267MOL0     H35231   9.525   2.525   6.856  4.9602  0.2785 -0.3755
  267MOL0     H35232   9.070   2.665   7.079 -0.0521  0.6168 -1.3389
  267MOL0     H35233   8.985   2.810   7.261  0.5407 -0.2202  0.3073
  267MOL0     H35234   9.154   2.748   7.666  1.0313  2.6612  0.4357
  267MOL0     H35235   9.011   2.698   7.564 -3.2760  0.8958  1.6438
  267MOL0     H35236   9.031   2.932   7.751  0.2625  1.3039  0.5707
  267MOL0     H35237   8.920   2.917   7.613  0.3225  4.0676  3.8580
  267MOL0     H35238   8.846   2.683   7.705  0.0031 -1.5079  1.4489
  267MOL0     H35239   8.779   2.816   7.795  0.3194 -0.1759  0.9056
  267MOL0     H35240   8.952   2.793   7.982 -0.5635 -2.2762  1.5857
  267MOL0     H35241   8.832   2.677   7.956 -0.1985  0.6613  0.2150
  267MOL0     H35242   9.192   2.475   7.914  1.9391  0.5435 -2.5021
  267MOL0     H35243   9.356   2.750   7.456 -2.3302 -0.4825  0.4951
  267MOL0     H35244   9.446   2.610   7.270  0.5662  0.8483 -2.3363
  268MOL0     O35245   6.784  10.070   1.773 -0.1458  0.4547 -0.1235
  268MOL0     C35246   6.679  10.135   1.760  0.0862  0.4843 -0.7508
  268MOL0     O35247   6.649  10.198   1.642 -0.6134  0.2313 -0.1197
  268MOL0     C35248   6.719  10.158   1.528  0.0768  0.3459 -0.4114
  268MOL0     C35249   6.754  10.258   1.432 -1.0206  0.0434  0.5876
  268MOL0     C35250   6.817  10.229   1.308  0.2259 -0.6143 -0.4904
  268MOL0     C35251   6.833  10.099   1.270  0.0489  0.2784  0.0853
  268MOL0     O35252   6.885  10.068   1.148  0.2579 -0.2198 -0.4404
  268MOL0     C35253   7.014  10.012   1.156  0.6793  0.7480 -0.1988
  268MOL0     C35254   7.051   9.964   1.015 -0.6281 -0.5447 -0.3996
  268MOL0     C35255   7.136  10.062   0.940 -0.1900  0.5320  0.5701
  268MOL0     C35256   7.158  10.015   0.795 -0.5174  0.7202  0.2773
  268MOL0     C35257   7.192  10.119   0.687 -0.1030  0.1336 -0.1911
  268MOL0     C35258   7.336  10.162   0.682 -0.0822  0.7321 -0.5740
  268MOL0     C35259   7.382  10.272   0.773  0.6379  0.2920 -0.8491
  268MOL0     C35260   7.491  10.218   0.873  0.0288  0.0455  0.3929
  268MOL0     N35261   7.546  10.344   0.926  0.0210  0.2828 -0.6038
  268MOL0     C35262   7.528  10.396   1.047  0.0538 -0.2223 -0.0437
  268MOL0     C35263   7.608  10.506   1.059 -1.1434 -0.1385 -0.0302
  268MOL0     C35264   7.601  10.600   1.182 -0.0409 -0.8086 -0.0277
  268MOL0     C35265   7.457  10.656   1.215  0.5912 -0.0684  0.5299
  268MOL0     C35266   7.383  10.737   1.101 -0.1937 -0.0273  0.2473
  268MOL0     C35267   7.247  10.800   1.128 -0.6503 -0.1291 -0.5611
  268MOL0     O35268   7.241  10.846   1.261  0.2332 -0.6800 -1.1756
  268MOL0     C35269   7.140  10.934   1.295  0.2179  0.7418  0.1879
  268MOL0     C35270   7.078  11.026   1.213  0.0845 -0.1638 -0.0388
  268MOL0     C35271   6.997  11.132   1.260 -0.9139 -0.3016  0.3835
  268MOL0     C35272   6.968  11.144   1.391 -0.6448 -0.1571  0.5340
  268MOL0     C35273   6.864  11.251   1.435 -1.0078  0.2561  1.7445
  268MOL0     O35274   6.823  11.243   1.560 -0.6116  0.2419 -0.0540
  268MOL0     C35275   6.731  11.337   1.606  0.3112 -0.4950 -0.8205
  268MOL0     C35276   6.651  11.301   1.722 -0.3201 -0.0822 -0.2797
  268MOL0     C35277   6.568  11.399   1.785 -0.0347  0.6569  0.0540
  268MOL0     C35278   6.556  11.528   1.730  0.7520  0.6352  0.5426
  268MOL0     O35279   6.468  11.609   1.806 -1.0556  0.8875  0.0635
  268MOL0     C35280   6.467  11.749   1.802 -0.3187 -0.2371 -0.8174
  268MOL0     C35281   6.538  11.791   1.932 -0.4051  0.0463 -0.0732
  268MOL0     C35282   6.498  11.928   1.985  1.3358  0.3272 -0.2116
  268MOL0     C35283   6.577  11.990   2.099 -0.2213 -0.6702  0.3668
  268MOL0     C35284   6.555  12.141   2.122  0.2270  0.9153  0.5067
  268MOL0     C35285   6.651  12.211   2.226  0.7082 -0.1361 -0.2866
  268MOL0     C35286   6.616  12.170   2.374  0.7172  0.4774 -0.1143
  268MOL0     C35287   6.465  12.144   2.408  0.2625  0.6953 -0.7874
  268MOL0    Cl35288   6.403  12.172   2.585 -0.4717 -0.1796  0.0925
  268MOL0     C35289   6.625  11.561   1.612  0.5248  0.9783  0.1458
  268MOL0     C35290   6.718  11.469   1.554 -0.6315 -0.5992 -0.2079
  268MOL0     O35291   6.815  11.319   1.343  0.0793 -0.2328  0.0613
  268MOL0     C35292   7.030  11.045   1.477 -0.1368  0.9615  0.5339
  268MOL0     C35293   7.115  10.937   1.431  0.4916  0.3200 -0.5630
  268MOL0     N35294   7.672  10.523   0.935  0.1569  0.0751 -0.5351
  268MOL0     N35295   7.632  10.421   0.858 -0.2728 -1.3097  0.3205
  268MOL0     C35296   6.802   9.999   1.361 -0.4771  0.2902  0.7808
  268MOL0     C35297   6.747  10.028   1.490 -0.3669  0.2338 -0.4483
  268MOL0     C35298   6.583  10.134   1.869 -0.5447 -0.3406 -0.7694
  268MOL0     C35299   6.482  10.233   1.875  0.6626  0.1073  0.7412
  268MOL0     C35300   6.375  10.222   1.967  0.1916 -0.3027 -0.7115
  268MOL0     C35301   6.377  10.117   2.059  0.3548  0.8939 -0.0300
  268MOL0     O35302   6.278  10.106   2.155  0.0119  0.1544  0.6578
  268MOL0     C35303   6.173  10.204   2.165  0.6930 -0.0331 -0.4813
  268MOL0     C35304   6.099  10.182   2.303  0.0174 -0.6843 -0.1570
  268MOL0     C35305   6.089  10.042   2.360  0.2724  0.0871 -0.2027
  268MOL0     C35306   6.017  10.039   2.485 -0.7659  0.0766  0.1670
  268MOL0     C35307   6.003   9.911   2.556 -1.1082  0.4484  1.2867
  268MOL0     C35308   5.984   9.806   2.605  0.1941  0.6794  0.6511
  268MOL0     C35309   6.479  10.011   2.047  1.8083 -0.4803  0.1096
  268MOL0     C35310   6.577  10.025   1.953  0.4925  0.2223  0.3449
  268MOL0     H35311   6.737  10.365   1.444 -1.1098  0.1853 -0.6698
  268MOL0     H35312   6.859  10.309   1.248 -1.7151  1.0303  0.1851
  268MOL0     H35313   7.008   9.919   1.213 -0.5332 -1.3193 -3.4252
  268MOL0     H35314   7.097  10.078   1.185  0.3866  0.3447  1.6960
  268MOL0     H35315   6.965   9.940   0.952  0.3154  0.0496 -1.9698
  268MOL0     H35316   7.113   9.874   1.027 -3.1942 -2.2739  0.7182
  268MOL0     H35317   7.231  10.089   0.989  0.1935  2.3433 -1.0382
  268MOL0     H35318   7.080  10.155   0.929 -0.5418  0.2123 -0.4482
  268MOL0     H35319   7.235   9.937   0.789 -0.4507  0.9020 -3.6707
  268MOL0     H35320   7.064   9.968   0.762 -2.4366  2.2822  3.1045
  268MOL0     H35321   7.118  10.198   0.703 -1.0161 -0.7073 -0.1894
  268MOL0     H35322   7.170  10.070   0.592 -1.5255 -1.5815  0.9405
  268MOL0     H35323   7.344  10.210   0.584  0.6041 -1.5133 -1.6699
  268MOL0     H35324   7.405  10.078   0.686  1.1647  1.7225 -0.8204
  268MOL0     H35325   7.426  10.353   0.714  1.0223  0.7019 -0.0124
  268MOL0     H35326   7.305  10.327   0.828  1.6170  2.2567 -1.3464
  268MOL0     H35327   7.567  10.162   0.818  1.2363  0.0705  1.9528
  268MOL0     H35328   7.454  10.149   0.949 -0.5682 -1.5609 -1.2784
  268MOL0     H35329   7.465  10.354   1.124 -1.1687 -2.8782 -2.3424
  268MOL0     H35330   7.666  10.687   1.164 -0.1950 -0.7796 -0.4680
  268MOL0     H35331   7.646  10.554   1.271  1.7046  2.1594  0.7933
  268MOL0     H35332   7.474  10.724   1.299 -0.4553 -0.3403  0.9777
  268MOL0     H35333   7.390  10.579   1.256  0.4626 -0.7392 -0.8862
  268MOL0     H35334   7.442  10.829   1.114 -0.2338 -0.1809  1.7107
  268MOL0     H35335   7.398  10.697   1.001  0.0202 -0.9116  0.6270
  268MOL0     H35336   7.177  10.716   1.130 -2.1744  1.1041  1.2724
  268MOL0     H35337   7.227  10.871   1.047  1.0043 -1.3853 -2.1572
  268MOL0     H35338   7.098  11.025   1.107  2.0174  0.5834  0.2726
  268MOL0     H35339   6.953  11.205   1.192 -0.5914  2.5605  3.0065
  268MOL0     H35340   6.663  11.205   1.771  0.7660 -0.8600 -2.0056
  268MOL0     H35341   6.519  11.390   1.881 -0.8039 -3.8842 -0.5525
  268MOL0     H35342   6.367  11.793   1.810 -0.3079 -0.2275 -0.7205
  268MOL0     H35343   6.507  11.791   1.710 -3.2789  1.1253 -1.5886
  268MOL0     H35344   6.643  11.801   1.902 -0.1851  0.4991  0.8017
  268MOL0     H35345   6.546  11.716   2.011  1.1119 -2.5880 -2.5492
  268MOL0     H35346   6.393  11.930   2.016  1.6924  0.0656  1.0802
  268MOL0     H35347   6.501  11.995   1.899  0.9194 -0.7853 -1.1151
  268MOL0     H35348   6.566  11.940   2.196  3.4167  0.2955  1.4574
  268MOL0     H35349   6.684  11.988   2.073  0.3249  2.8992  1.7554
  268MOL0     H35350   6.453  12.171   2.147  0.9209  1.8635  2.3805
  268MOL0     H35351   6.579  12.169   2.018  2.6051 -2.5540 -0.0699
  268MOL0     H35352   6.630  12.319   2.222 -0.7570 -0.2016  3.0082
  268MOL0     H35353   6.749  12.179   2.190 -0.2615 -5.2488  0.9072
  268MOL0     H35354   6.668  12.075   2.386 -0.8574 -0.5717 -1.1879
  268MOL0     H35355   6.653  12.242   2.447  1.1444  1.9858 -1.7392
  268MOL0     H35356   6.446  12.038   2.389 -1.6795  0.5818  1.3886
  268MOL0     H35357   6.403  12.203   2.340 -3.4645 -0.9547  0.8803
  268MOL0     H35358   6.601  11.649   1.553 -1.8072 -2.3930 -4.5291
  268MOL0     H35359   6.785  11.503   1.476  1.2731 -1.7856  0.8290
  268MOL0     H35360   7.004  11.043   1.582  0.8157 -2.1471  0.7800
  268MOL0     H35361   7.157  10.859   1.494 -1.0833 -0.5684 -0.5779
  268MOL0     H35362   6.811   9.894   1.335 -0.2278  1.4567 -5.1072
  268MOL0     H35363   6.725   9.939   1.548 -0.1388 -1.3214 -2.5823
  268MOL0     H35364   6.482  10.321   1.812  3.4893  0.1733  0.6762
  268MOL0     H35365   6.297  10.297   1.959 -1.9506 -2.5331 -1.8612
  268MOL0     H35366   6.101  10.198   2.083  1.2028  0.6923 -1.0052
  268MOL0     H35367   6.212  10.306   2.156 -1.9881  0.9952 -1.5508
  268MOL0     H35368   6.169  10.230   2.372 -0.3771  0.4293 -0.5067
  268MOL0     H35369   6.002  10.232   2.304  0.8165  1.0874  3.1213
  268MOL0     H35370   6.192  10.012   2.381 -0.5963 -1.0966  3.0239
  268MOL0     H35371   6.053   9.975   2.282 -1.7030  0.7601  0.0734
  268MOL0     H35372   6.083  10.103   2.544  0.0132 -0.0401 -0.5626
  268MOL0     H35373   5.919  10.087   2.491 -0.6449  0.2353  0.9196
  268MOL0     H35374   5.961   9.711   2.649  0.4406 -2.0424 -4.3589
  268MOL0     H35375   6.461   9.918   2.101  2.4134 -0.0493  1.0721
  268MOL0     H35376   6.644   9.941   1.939 -0.3905 -0.5699  0.7965
  269MOL0     O35377   2.520   3.961   2.655 -0.5671 -0.4564 -0.2033
  269MOL0     C35378   2.461   3.993   2.550  0.1759 -0.4832 -1.0047
  269MOL0     O35379   2.498   3.966   2.419  0.4264 -0.3960 -0.0073
  269MOL0     C35380   2.601   3.891   2.379 -0.4579  0.9235 -0.1756
  269MOL0     C35381   2.692   3.931   2.276  0.0560  0.6995  0.7072
  269MOL0     C35382   2.790   3.849   2.223 -0.3230 -0.4536  1.0720
  269MOL0     C35383   2.802   3.714   2.264 -0.1582  0.1608  0.1210
  269MOL0     O35384   2.901   3.626   2.232  0.6380 -0.3426  0.0804
  269MOL0     C35385   2.995   3.664   2.129 -0.4168 -0.0506  0.0253
  269MOL0     C35386   3.094   3.770   2.170  0.9228  0.1301 -0.5597
  269MOL0     C35387   3.232   3.740   2.113 -0.4300 -0.0542 -0.1618
  269MOL0     C35388   3.334   3.820   2.192 -0.0542 -0.1569  0.0238
  269MOL0     C35389   3.487   3.790   2.162 -0.2203 -0.0115  0.6821
  269MOL0     C35390   3.504   3.834   2.010 -0.7644 -0.5224  0.3938
  269MOL0     C35391   3.647   3.796   1.963 -0.3388 -0.3110 -0.2963
  269MOL0     C35392   3.688   3.827   1.816 -0.2729 -0.8585  0.4999
  269MOL0     N35393   3.710   3.968   1.784  0.4251 -0.0828  0.9209
  269MOL0     C35394   3.809   4.038   1.833  0.0337  1.3871  0.0387
  269MOL0     C35395   3.788   4.162   1.787 -0.1026 -0.2910 -1.0199
  269MOL0     C35396   3.901   4.271   1.798  0.2111 -0.2306 -0.7519
  269MOL0     C35397   4.000   4.257   1.685  0.1047  0.9315  0.7159
  269MOL0     C35398   3.982   4.361   1.573  0.4209 -1.2924 -0.0922
  269MOL0     C35399   4.057   4.498   1.604  0.0392 -0.3056 -0.8205
  269MOL0     O35400   4.018   4.565   1.726  0.3973 -0.2738 -0.2348
  269MOL0     C35401   3.908   4.643   1.733 -0.0280  0.4245  1.0256
  269MOL0     C35402   3.920   4.718   1.840 -0.4546 -0.3151 -1.0997
  269MOL0     C35403   3.827   4.817   1.867  0.8133 -0.0443 -0.1453
  269MOL0     C35404   3.715   4.832   1.779  0.3960  0.6123 -0.7996
  269MOL0     C35405   3.605   4.919   1.801  0.0972  0.5126  0.0252
  269MOL0     O35406   3.510   4.929   1.699 -0.0582  0.0027 -0.4999
  269MOL0     C35407   3.374   4.963   1.717 -0.8208 -0.1875  0.6268
  269MOL0     C35408   3.293   4.926   1.828 -0.3697  0.3811 -0.1985
  269MOL0     C35409   3.165   4.969   1.848  0.4860  0.1550 -0.5719
  269MOL0     C35410   3.100   5.036   1.742  0.7794  0.1297  0.5443
  269MOL0     O35411   2.982   5.090   1.773  0.7730  0.0513  1.0424
  269MOL0     C35412   2.951   5.223   1.716 -1.2032  0.1154 -1.2191
  269MOL0     C35413   2.804   5.236   1.686  0.0963 -0.2088  0.1650
  269MOL0     C35414   2.703   5.194   1.805 -0.8593  0.3400  0.3970
  269MOL0     C35415   2.570   5.260   1.788 -0.0740 -0.1350  0.1084
  269MOL0     C35416   2.473   5.182   1.691 -0.5758  0.1084 -0.3152
  269MOL0     C35417   2.377   5.277   1.603 -0.1051  0.9779  0.3612
  269MOL0     C35418   2.254   5.340   1.672 -0.3659  0.7815  0.5356
  269MOL0     C35419   2.127   5.255   1.637  0.7796  0.3688 -0.9756
  269MOL0    Cl35420   2.144   5.083   1.695  0.7924  0.3765  0.3086
  269MOL0     C35421   3.165   5.039   1.617 -0.2090 -0.9058  0.1587
  269MOL0     C35422   3.304   5.021   1.610  0.8459  0.0239 -0.3109
  269MOL0     O35423   3.585   4.943   1.913 -0.4659 -0.5802 -0.2086
  269MOL0     C35424   3.715   4.752   1.658 -0.1112  0.2743 -1.5795
  269MOL0     C35425   3.811   4.657   1.635  0.4482  0.1559  0.1385
  269MOL0     N35426   3.660   4.169   1.728 -1.0267  0.0701 -0.2518
  269MOL0     N35427   3.624   4.046   1.717 -1.2550  0.3094  0.5904
  269MOL0     C35428   2.721   3.672   2.374  0.0955  0.0004 -1.0310
  269MOL0     C35429   2.613   3.756   2.418 -0.2796 -0.8144  0.2155
  269MOL0     C35430   2.327   4.047   2.574  0.3389  0.0615 -0.3309
  269MOL0     C35431   2.232   4.052   2.469  0.3084  0.4951  0.1352
  269MOL0     C35432   2.092   4.082   2.485 -0.4157  0.0248 -0.2258
  269MOL0     C35433   2.048   4.114   2.614  0.5107  0.1760 -0.1790
  269MOL0     O35434   1.913   4.143   2.643  0.5436  0.0796 -0.3482
  269MOL0     C35435   1.831   4.166   2.535 -0.2225  0.1028  0.0324
  269MOL0     C35436   1.711   4.254   2.577 -0.0366 -0.7777 -0.6410
  269MOL0     C35437   1.755   4.398   2.591 -0.0845  0.6674  1.5331
  269MOL0     C35438   1.646   4.495   2.604  0.8062  0.5936 -0.3933
  269MOL0     C35439   1.551   4.477   2.717 -1.7250  1.4239  0.1535
  269MOL0     C35440   1.466   4.473   2.796  0.2750 -0.0399 -0.1740
  269MOL0     C35441   2.144   4.118   2.720 -0.8731  0.1970  0.7732
  269MOL0     C35442   2.284   4.088   2.699  0.3394  1.9926  0.6226
  269MOL0     H35443   2.686   4.031   2.236  3.1813  1.3011  1.5028
  269MOL0     H35444   2.858   3.888   2.148 -2.3605 -0.8387 -1.1054
  269MOL0     H35445   2.951   3.695   2.034 -0.4825 -1.9794 -0.5975
  269MOL0     H35446   3.043   3.570   2.103 -0.3715  0.7127 -3.1560
  269MOL0     H35447   3.089   3.769   2.280  0.8162 -2.1517 -0.5542
  269MOL0     H35448   3.060   3.871   2.145  1.6913  0.9958  1.6202
  269MOL0     H35449   3.260   3.752   2.008  4.2687  0.2632  0.9341
  269MOL0     H35450   3.247   3.633   2.129  1.3678 -0.0395 -1.4678
  269MOL0     H35451   3.323   3.928   2.182 -1.2656 -0.4376 -2.3512
  269MOL0     H35452   3.320   3.792   2.297  2.0831  2.9135  1.2754
  269MOL0     H35453   3.512   3.683   2.165  0.1265  0.0324 -0.2114
  269MOL0     H35454   3.551   3.841   2.235 -0.4219 -0.5679  1.2622
  269MOL0     H35455   3.492   3.940   1.987 -1.5803 -0.5865  0.5018
  269MOL0     H35456   3.440   3.787   1.935  0.3918  2.4229 -2.6979
  269MOL0     H35457   3.716   3.857   2.023  0.0896 -0.9339 -0.1477
  269MOL0     H35458   3.674   3.692   1.980 -3.0331 -0.7440  2.1215
  269MOL0     H35459   3.611   3.789   1.749  0.4804 -0.0298 -0.8910
  269MOL0     H35460   3.781   3.777   1.788  1.1269  1.2295  1.1498
  269MOL0     H35461   3.902   4.003   1.878  0.3146 -1.6035 -2.5135
  269MOL0     H35462   3.936   4.254   1.900 -0.8169  2.1298  0.0725
  269MOL0     H35463   3.862   4.373   1.802 -1.6838 -0.9545  1.4393
  269MOL0     H35464   3.984   4.158   1.641  2.6273  0.8420 -0.2012
  269MOL0     H35465   4.100   4.261   1.730 -1.0733 -0.1786  3.6849
  269MOL0     H35466   4.014   4.322   1.476  0.1306 -1.5377 -0.0904
  269MOL0     H35467   3.875   4.379   1.558  0.0379  1.6071  4.3312
  269MOL0     H35468   4.072   4.560   1.515 -0.5424  1.9961  0.6080
  269MOL0     H35469   4.159   4.465   1.627 -0.0986  0.6669  1.5233
  269MOL0     H35470   4.012   4.700   1.894  1.4258 -1.1019 -4.3535
  269MOL0     H35471   3.826   4.887   1.950  2.2007  1.2556 -1.1515
  269MOL0     H35472   3.337   4.868   1.909  0.6945  2.9591  1.1982
  269MOL0     H35473   3.109   4.967   1.941 -1.1034 -1.6212 -1.4973
  269MOL0     H35474   3.007   5.250   1.625 -1.6620 -0.5023 -1.6839
  269MOL0     H35475   2.982   5.290   1.797  1.0025 -0.5451 -1.4354
  269MOL0     H35476   2.770   5.198   1.590 -0.7534  0.5424  0.1534
  269MOL0     H35477   2.790   5.344   1.679  0.5246 -0.1264  0.5297
  269MOL0     H35478   2.755   5.228   1.895  1.2373 -3.8086  0.9712
  269MOL0     H35479   2.685   5.089   1.829  0.8975  0.0452  0.5775
  269MOL0     H35480   2.534   5.257   1.891  0.2476 -1.0759  0.2009
  269MOL0     H35481   2.571   5.367   1.765 -0.5634  0.9341  4.2237
  269MOL0     H35482   2.420   5.110   1.753  1.4090 -0.6672  0.5785
  269MOL0     H35483   2.526   5.116   1.621 -0.4303  1.3799 -1.4397
  269MOL0     H35484   2.333   5.204   1.535 -0.9008 -2.0083  3.7799
  269MOL0     H35485   2.440   5.349   1.550  0.3871 -0.1295 -0.5767
  269MOL0     H35486   2.261   5.348   1.780  1.8684 -2.1390  0.7241
  269MOL0     H35487   2.242   5.446   1.647 -0.2115  0.4696 -1.0168
  269MOL0     H35488   2.104   5.271   1.531 -0.5891  3.2792 -0.3393
  269MOL0     H35489   2.048   5.302   1.695  0.0974  0.5358 -2.0198
  269MOL0     H35490   3.108   5.078   1.533 -1.2667  1.9588  2.0316
  269MOL0     H35491   3.354   5.037   1.515 -1.9030  1.6026 -1.6405
  269MOL0     H35492   3.640   4.764   1.579  0.0784  0.5585 -1.7200
  269MOL0     H35493   3.822   4.626   1.532  1.4467 -1.3870  0.6717
  269MOL0     H35494   2.716   3.568   2.403 -2.3870 -0.6215 -3.3359
  269MOL0     H35495   2.526   3.716   2.471  1.1501 -3.3098  0.8498
  269MOL0     H35496   2.266   4.024   2.369  0.5442  1.1861  0.0166
  269MOL0     H35497   2.022   4.080   2.402  0.0636 -0.4962 -0.6193
  269MOL0     H35498   1.804   4.065   2.501  0.5189 -0.1127  0.0572
  269MOL0     H35499   1.880   4.220   2.454 -1.1184 -0.5198 -0.9546
  269MOL0     H35500   1.629   4.245   2.505  0.5491 -2.7012 -1.1525
  269MOL0     H35501   1.674   4.222   2.675 -2.2024  1.3366 -0.7072
  269MOL0     H35502   1.822   4.432   2.511  0.4017  2.6394  2.6928
  269MOL0     H35503   1.819   4.403   2.680  4.2009 -2.6730 -1.0060
  269MOL0     H35504   1.687   4.596   2.616  1.0525  0.3787  0.6984
  269MOL0     H35505   1.589   4.484   2.511  1.0983 -2.1234 -0.3383
  269MOL0     H35506   1.374   4.477   2.851  1.6347 -1.4654  2.4028
  269MOL0     H35507   2.111   4.144   2.819  1.6942 -0.4443  1.8882
  269MOL0     H35508   2.337   4.110   2.791  0.2429 -1.2538  1.5957
  270MOL0     O35509   7.291  10.286   1.251 -0.2060 -0.2569 -0.6030
  270MOL0     C35510   7.241  10.242   1.358  0.0008 -1.1160 -0.2321
  270MOL0     O35511   7.255  10.120   1.407  0.0684  0.6253  0.5259
  270MOL0     C35512   7.311  10.019   1.325  0.8120  0.7960 -0.5635
  270MOL0     C35513   7.250   9.896   1.337 -1.8793  0.6693  0.6567
  270MOL0     C35514   7.299   9.784   1.272  0.0505  0.1394 -0.5453
  270MOL0     C35515   7.417   9.794   1.199 -0.6205  0.4364 -0.8201
  270MOL0     O35516   7.472   9.683   1.136  1.0957 -0.0705  0.9573
  270MOL0     C35517   7.398   9.554   1.129 -0.7491 -0.5024  0.5415
  270MOL0     C35518   7.488   9.454   1.042  0.5361 -1.0309 -0.2869
  270MOL0     C35519   7.452   9.312   1.030  0.2910  0.3642 -0.0585
  270MOL0     C35520   7.332   9.291   0.952  0.2988 -0.0079  0.3873
  270MOL0     C35521   7.310   9.144   0.920 -0.8225 -1.7068 -0.4387
  270MOL0     C35522   7.175   9.094   0.853  0.7784 -0.2568 -0.2779
  270MOL0     C35523   7.049   9.094   0.944 -1.2374 -0.3493 -0.4171
  270MOL0     C35524   6.944   9.002   0.884  0.2492 -0.2099  0.3070
  270MOL0     N35525   6.817   9.003   0.954  0.0642 -0.0266 -0.1929
  270MOL0     C35526   6.772   9.114   1.023  0.6816  0.6103  0.4851
  270MOL0     C35527   6.649   9.067   1.072  0.0397  0.3184 -0.1193
  270MOL0     C35528   6.551   9.140   1.159 -0.1715 -1.2998 -0.0743
  270MOL0     C35529   6.400   9.132   1.106  0.1051 -0.6519 -0.1191
  270MOL0     C35530   6.321   9.034   1.181 -0.0154  0.0004  0.2515
  270MOL0     C35531   6.299   9.070   1.328 -1.0366  0.1259 -0.1333
  270MOL0     O35532   6.206   8.972   1.376 -0.0796 -0.0966 -0.0352
  270MOL0     C35533   6.199   8.951   1.510  0.2731 -0.7510  0.8635
  270MOL0     C35534   6.170   8.822   1.530  1.0745  0.5399 -0.7711
  270MOL0     C35535   6.172   8.768   1.663  0.3732 -0.4953  0.0550
  270MOL0     C35536   6.183   8.865   1.768 -0.3594  0.1690  1.0684
  270MOL0     C35537   6.173   8.810   1.895 -1.0450 -0.1210  0.1144
  270MOL0     O35538   6.108   8.690   1.920  0.1146  0.0340  0.1583
  270MOL0     C35539   6.100   8.644   2.049 -0.0460  0.0901 -0.0886
  270MOL0     C35540   6.216   8.589   2.098 -0.3766  0.3240  0.4907
  270MOL0     C35541   6.214   8.521   2.215 -0.4867  0.9043 -0.9820
  270MOL0     C35542   6.094   8.514   2.287  0.2342 -0.1300  0.2254
  270MOL0     O35543   6.113   8.429   2.397  0.9586  0.0035  0.5129
  270MOL0     C35544   5.998   8.399   2.477 -0.2422  0.0942  0.5571
  270MOL0     C35545   6.051   8.310   2.586  0.4672  0.2780  0.2218
  270MOL0     C35546   5.951   8.286   2.703  0.1879  0.0621  0.3053
  270MOL0     C35547   6.002   8.190   2.805 -0.2087  0.5133 -0.0910
  270MOL0     C35548   5.890   8.137   2.901  1.1120 -0.5817  0.0949
  270MOL0     C35549   5.935   8.021   2.980  1.3599  0.0453  0.2702
  270MOL0     C35550   5.926   7.890   2.892 -1.1820  0.2431  0.8187
  270MOL0     C35551   5.950   7.769   2.979  0.2603  0.2765  0.5970
  270MOL0    Cl35552   5.929   7.618   2.881 -0.3371  0.6551  0.4856
  270MOL0     C35553   5.979   8.573   2.244 -0.5627 -0.1141 -0.6550
  270MOL0     C35554   5.983   8.632   2.118  0.2983 -0.3716 -0.0908
  270MOL0     O35555   6.237   8.875   1.980 -0.0698 -0.2075 -0.1262
  270MOL0     C35556   6.219   8.997   1.740  0.1576  0.8186  0.3311
  270MOL0     C35557   6.222   9.047   1.604 -0.5897  0.5148 -0.5337
  270MOL0     N35558   6.629   8.940   1.015  0.6461  0.6830 -0.0827
  270MOL0     N35559   6.717   8.905   0.941 -0.3835  0.4570 -0.5539
  270MOL0     C35560   7.478   9.914   1.181 -0.0622 -0.0055 -0.0031
  270MOL0     C35561   7.424  10.021   1.244  0.1475 -0.4583  0.0245
  270MOL0     C35562   7.157  10.333   1.441 -0.5262  1.0901 -0.4399
  270MOL0     C35563   7.131  10.465   1.398  0.8540  0.5346 -0.2635
  270MOL0     C35564   7.043  10.539   1.478  0.4332 -0.9812  0.2226
  270MOL0     C35565   6.974  10.497   1.589 -0.7562  0.7091  0.3222
  270MOL0     O35566   6.868  10.574   1.630  0.0002 -0.0360 -0.7128
  270MOL0     C35567   6.783  10.526   1.731  0.3995  0.9959  0.3187
  270MOL0     C35568   6.648  10.598   1.748  0.5748  0.2501  0.4438
  270MOL0     C35569   6.654  10.745   1.700  0.3200 -0.6030 -0.6791
  270MOL0     C35570   6.750  10.837   1.781 -0.2844  0.3281  0.3493
  270MOL0     C35571   6.727  10.825   1.925  0.6832 -0.5146  1.2483
  270MOL0     C35572   6.726  10.823   2.046  0.3979 -0.0391 -0.9867
  270MOL0     C35573   7.006  10.371   1.633 -0.5392 -0.0829  0.1333
  270MOL0     C35574   7.092  10.288   1.559  0.2412 -0.7775  0.2581
  270MOL0     H35575   7.160   9.896   1.398 -1.1958 -0.2498  1.6978
  270MOL0     H35576   7.241   9.693   1.270  0.5761 -0.2035 -0.5875
  270MOL0     H35577   7.305   9.568   1.073  0.5193 -0.1283 -1.5859
  270MOL0     H35578   7.386   9.517   1.231 -1.9115 -1.0860  0.2107
  270MOL0     H35579   7.588   9.465   1.086 -0.1192  1.5651  0.7651
  270MOL0     H35580   7.504   9.498   0.943  0.0464  2.1324  0.9013
  270MOL0     H35581   7.432   9.262   1.125 -0.9821 -2.0136 -1.4550
  270MOL0     H35582   7.539   9.257   0.993 -0.7123 -0.6948 -0.9130
  270MOL0     H35583   7.245   9.322   1.010 -1.2769 -2.8046 -0.3064
  270MOL0     H35584   7.329   9.351   0.860  0.4432  1.0457  1.0585
  270MOL0     H35585   7.310   9.092   1.017 -0.8275 -0.4253  0.2706
  270MOL0     H35586   7.400   9.104   0.872 -0.3729 -3.8965  1.9740
  270MOL0     H35587   7.199   9.000   0.803 -3.1587 -0.8567 -1.4497
  270MOL0     H35588   7.162   9.166   0.772 -0.8309 -0.4123 -0.1918
  270MOL0     H35589   7.077   9.077   1.048  0.9053  0.6783 -0.7698
  270MOL0     H35590   7.009   9.196   0.943 -0.2164  0.0788 -2.0283
  270MOL0     H35591   6.964   8.895   0.880 -0.0941 -0.3757  2.3632
  270MOL0     H35592   6.927   9.034   0.780  1.1069 -1.8336 -0.3691
  270MOL0     H35593   6.801   9.218   1.029 -0.8052  1.2350 -1.7906
  270MOL0     H35594   6.589   9.240   1.135 -0.1839 -2.0038 -3.7190
  270MOL0     H35595   6.555   9.128   1.267 -1.9024  0.2354  0.1933
  270MOL0     H35596   6.395   9.100   1.001 -3.6072 -1.8516  0.2663
  270MOL0     H35597   6.352   9.231   1.101  2.9539  0.7662 -1.2403
  270MOL0     H35598   6.227   9.018   1.127 -0.0307 -1.0564  0.5718
  270MOL0     H35599   6.366   8.935   1.171 -0.2066 -0.5802  3.7078
  270MOL0     H35600   6.260   9.171   1.343  2.5427  1.3573  2.4144
  270MOL0     H35601   6.391   9.061   1.388 -0.3757  0.5462 -1.0523
  270MOL0     H35602   6.147   8.771   1.437  0.0807  2.4742 -1.6394
  270MOL0     H35603   6.161   8.662   1.687  0.9932 -0.7018 -0.5207
  270MOL0     H35604   6.312   8.600   2.049  0.2397 -0.1174  1.5496
  270MOL0     H35605   6.304   8.470   2.249  0.9857  1.9671 -3.0323
  270MOL0     H35606   5.922   8.347   2.418 -2.5791  1.0656  2.5451
  270MOL0     H35607   5.945   8.484   2.520  2.0481  1.9591 -0.0823
  270MOL0     H35608   6.147   8.347   2.624  1.3923  0.0336 -1.7135
  270MOL0     H35609   6.067   8.214   2.535 -1.3720 -0.4815  0.9750
  270MOL0     H35610   5.856   8.254   2.660  0.6438 -0.7857 -0.0805
  270MOL0     H35611   5.923   8.380   2.753 -1.6882 -1.3314  2.0765
  270MOL0     H35612   6.050   8.113   2.743 -1.9595 -0.1488 -0.6986
  270MOL0     H35613   6.086   8.228   2.863 -0.8530 -0.8613  1.8199
  270MOL0     H35614   5.796   8.110   2.853  0.5793 -1.0293  1.3527
  270MOL0     H35615   5.857   8.224   2.958  0.9198 -0.9760  0.5945
  270MOL0     H35616   5.877   8.014   3.072  3.1249 -0.3351  1.3986
  270MOL0     H35617   6.042   8.038   2.998  2.0279 -3.9518  0.8927
  270MOL0     H35618   5.828   7.895   2.843 -2.5518 -1.2578  3.2299
  270MOL0     H35619   5.991   7.901   2.804 -3.2102  1.8512 -0.5773
  270MOL0     H35620   5.888   7.769   3.069  1.6848  1.6373  1.6335
  270MOL0     H35621   6.054   7.769   3.014  1.1511  0.0469 -1.8261
  270MOL0     H35622   5.884   8.578   2.296  0.4073 -1.3031  1.3447
  270MOL0     H35623   5.892   8.684   2.090 -0.5718  1.4406  5.0565
  270MOL0     H35624   6.256   9.070   1.812  1.1681  0.0729  0.5929
  270MOL0     H35625   6.259   9.145   1.574  1.1852 -0.3474 -1.3019
  270MOL0     H35626   7.565   9.918   1.117  0.3551  0.7775  0.5881
  270MOL0     H35627   7.473  10.117   1.232  1.9343 -0.4236  5.2441
  270MOL0     H35628   7.170  10.494   1.302  3.0521  1.3808  0.8052
  270MOL0     H35629   7.003  10.634   1.442 -1.3123 -0.8423  2.2904
  270MOL0     H35630   6.843  10.526   1.822  3.2661  0.7180 -1.4609
  270MOL0     H35631   6.760  10.420   1.723 -3.3432  1.7866 -2.1580
  270MOL0     H35632   6.576  10.547   1.684  0.0267  1.1768  0.3100
  270MOL0     H35633   6.619  10.590   1.853 -1.0277 -2.4274 -0.1080
  270MOL0     H35634   6.553  10.785   1.709  0.4850 -0.3329  0.0273
  270MOL0     H35635   6.688  10.759   1.597  1.7791  1.5966  0.0322
  270MOL0     H35636   6.855  10.816   1.759 -0.3953 -0.4932  0.5646
  270MOL0     H35637   6.725  10.940   1.753  0.1580  0.7393  1.4202
  270MOL0     H35638   6.716  10.822   2.153 -1.4603  1.5419 -1.0911
  270MOL0     H35639   6.982  10.344   1.735  3.3214 -0.6069  1.0430
  270MOL0     H35640   7.103  10.182   1.582  0.8889 -0.4210  1.7564
  271MOL0     O35641   3.818   7.119   0.861  0.2852  0.0422  0.4426
  271MOL0     C35642   3.806   7.201   0.954  0.3720 -0.1524  0.1250
  271MOL0     O35643   3.890   7.218   1.058  0.2301  0.3448 -0.5570
  271MOL0     C35644   4.010   7.151   1.074 -1.2118  0.1862  1.2227
  271MOL0     C35645   4.040   7.136   1.209  0.9981 -0.5587  0.2874
  271MOL0     C35646   4.145   7.052   1.248 -1.5926 -0.1832  0.0932
  271MOL0     C35647   4.223   6.985   1.145 -0.4056 -0.2204  0.0416
  271MOL0     O35648   4.325   6.896   1.186  0.4604  0.0112  0.4106
  271MOL0     C35649   4.376   6.792   1.096 -0.0843 -0.4156  0.3150
  271MOL0     C35650   4.420   6.681   1.194  0.2810 -0.2601  0.0045
  271MOL0     C35651   4.452   6.550   1.120 -1.8051  0.1739  0.9508
  271MOL0     C35652   4.597   6.561   1.051 -1.2191  0.0586 -0.4226
  271MOL0     C35653   4.653   6.416   1.024 -0.4773 -0.6889  0.4187
  271MOL0     C35654   4.775   6.428   0.927  0.1253 -0.1037 -0.1938
  271MOL0     C35655   4.855   6.298   0.932 -0.0717 -0.4790  0.5150
  271MOL0     C35656   4.985   6.294   0.859 -0.0267  0.0468  0.4224
  271MOL0     N35657   4.957   6.320   0.715  0.0302  0.8893  0.1833
  271MOL0     C35658   4.943   6.218   0.625 -0.3967 -0.2638 -0.2111
  271MOL0     C35659   4.916   6.289   0.510  0.3783 -0.2932  0.1663
  271MOL0     C35660   4.888   6.242   0.369 -0.0475  0.9572 -0.6406
  271MOL0     C35661   4.831   6.100   0.369  0.6000 -0.7275 -0.0601
  271MOL0     C35662   4.683   6.078   0.381  0.3395 -0.4583 -0.2205
  271MOL0     C35663   4.627   6.102   0.518 -0.5931  0.0121  0.7793
  271MOL0     O35664   4.691   6.013   0.601 -0.5893  0.6210  0.0155
  271MOL0     C35665   4.648   6.004   0.733  0.3058 -0.5086  0.0986
  271MOL0     C35666   4.666   5.883   0.794 -0.1453 -0.1170  0.3276
  271MOL0     C35667   4.620   5.863   0.925 -0.4733 -0.0257 -0.3452
  271MOL0     C35668   4.541   5.968   0.995  0.1520  0.3275  0.8269
  271MOL0     C35669   4.515   5.977   1.137  1.0905  0.7897  0.1603
  271MOL0     O35670   4.543   5.858   1.213  0.3703  0.2669  0.1283
  271MOL0     C35671   4.489   5.840   1.337  0.2080 -1.4271 -0.3053
  271MOL0     C35672   4.428   5.937   1.417 -0.0681 -1.5383 -0.2275
  271MOL0     C35673   4.383   5.901   1.549  0.2043  0.8107  0.2209
  271MOL0     C35674   4.402   5.771   1.595 -0.7919  0.2453 -0.4549
  271MOL0     O35675   4.333   5.743   1.711  0.8704  0.0755  0.6471
  271MOL0     C35676   4.408   5.735   1.823  0.0118  0.6428  0.2395
  271MOL0     C35677   4.324   5.777   1.949  0.7172 -0.2397  0.5534
  271MOL0     C35678   4.390   5.729   2.075  0.3260 -0.8373 -0.6026
  271MOL0     C35679   4.339   5.592   2.120  0.3463 -0.2793  0.3065
  271MOL0     C35680   4.414   5.541   2.245 -0.2987 -0.0172  1.5850
  271MOL0     C35681   4.427   5.382   2.255 -0.1151 -0.0332  0.5106
  271MOL0     C35682   4.514   5.352   2.382 -0.6706 -0.2287  0.2501
  271MOL0     C35683   4.663   5.323   2.338 -0.7116  0.5255 -0.0879
  271MOL0    Cl35684   4.691   5.188   2.225  0.1458 -0.1938 -0.0448
  271MOL0     C35685   4.463   5.678   1.516  1.0820  0.9813  0.3411
  271MOL0     C35686   4.500   5.710   1.392 -0.2574  0.8316  0.6393
  271MOL0     O35687   4.487   6.090   1.176 -0.1170 -0.3347  0.4554
  271MOL0     C35688   4.520   6.082   0.911  0.8078  0.1236 -0.8029
  271MOL0     C35689   4.568   6.099   0.788  0.5158 -0.2715 -0.3184
  271MOL0     N35690   4.936   6.428   0.531  0.0603  1.1900 -0.8036
  271MOL0     N35691   4.962   6.446   0.658 -0.0655  0.3831 -0.8580
  271MOL0     C35692   4.195   7.017   1.011 -0.7436  0.5286  0.6860
  271MOL0     C35693   4.087   7.096   0.975  0.1903 -0.2675 -0.9011
  271MOL0     C35694   3.682   7.287   0.965  0.4752  0.0976 -0.6701
  271MOL0     C35695   3.601   7.315   0.849  0.2917 -0.4627  0.8011
  271MOL0     C35696   3.483   7.384   0.860  0.0520 -0.2700  0.3824
  271MOL0     C35697   3.455   7.448   0.984  0.2543 -0.9948 -0.3881
  271MOL0     O35698   3.329   7.514   0.990 -0.4517 -0.1659  0.1931
  271MOL0     C35699   3.285   7.579   1.114  0.7030  2.0205  0.2629
  271MOL0     C35700   3.188   7.485   1.196  0.4408  0.3950 -0.8530
  271MOL0     C35701   3.265   7.362   1.248 -0.6291 -1.3205  0.5238
  271MOL0     C35702   3.355   7.383   1.376 -0.6168  0.5197  0.4639
  271MOL0     C35703   3.323   7.293   1.495 -0.4130  0.3767  0.5070
  271MOL0     C35704   3.310   7.232   1.594 -0.5179  1.2164 -0.3385
  271MOL0     C35705   3.538   7.440   1.092  0.1609 -0.3424 -0.3522
  271MOL0     C35706   3.655   7.360   1.082 -0.0771  0.4016  0.5039
  271MOL0     H35707   3.970   7.186   1.274  0.0637 -1.6466  0.1493
  271MOL0     H35708   4.161   7.028   1.353  2.0811  2.2681  0.2472
  271MOL0     H35709   4.456   6.843   1.042 -1.3404  2.8122  1.2535
  271MOL0     H35710   4.313   6.746   1.020  0.8538 -0.9649 -0.1389
  271MOL0     H35711   4.337   6.669   1.264  1.6896  3.2963  2.6353
  271MOL0     H35712   4.506   6.712   1.255  0.0184 -0.0450  0.2708
  271MOL0     H35713   4.374   6.526   1.047  1.7305 -2.8579 -2.3074
  271MOL0     H35714   4.459   6.466   1.189 -3.3329 -0.6855  0.1084
  271MOL0     H35715   4.605   6.611   0.955 -1.0826 -1.0115 -0.9878
  271MOL0     H35716   4.664   6.609   1.123  0.1113 -1.9470 -0.2556
  271MOL0     H35717   4.576   6.355   0.978  0.7105 -0.3381 -2.1906
  271MOL0     H35718   4.687   6.379   1.121 -1.1944 -1.2322  0.4682
  271MOL0     H35719   4.831   6.519   0.952  0.1752 -0.6913  2.0370
  271MOL0     H35720   4.746   6.436   0.822  0.6217 -1.2008 -0.4304
  271MOL0     H35721   4.892   6.291   1.035  0.5593  2.5329  0.6120
  271MOL0     H35722   4.803   6.206   0.908 -0.1476 -0.1646 -0.5587
  271MOL0     H35723   5.025   6.193   0.872 -0.8092 -0.2560  0.5889
  271MOL0     H35724   5.056   6.364   0.903 -1.7499  2.1075  0.0608
  271MOL0     H35725   4.954   6.111   0.641  0.9525 -0.0673  0.2522
  271MOL0     H35726   4.982   6.251   0.314 -0.2848  2.8150 -0.8026
  271MOL0     H35727   4.813   6.301   0.315  1.1911  1.7203 -1.5858
  271MOL0     H35728   4.880   6.032   0.439  1.4374 -0.1557 -0.0791
  271MOL0     H35729   4.866   6.071   0.269  0.8030 -3.1479  0.6453
  271MOL0     H35730   4.633   6.146   0.311 -1.3516 -1.9273 -0.5145
  271MOL0     H35731   4.650   5.975   0.367 -0.8934 -0.2598  0.9746
  271MOL0     H35732   4.518   6.092   0.520 -0.7185  1.1529  0.3607
  271MOL0     H35733   4.656   6.205   0.540 -0.2721  0.3977 -1.2366
  271MOL0     H35734   4.729   5.809   0.745  1.1738  1.5651 -0.6090
  271MOL0     H35735   4.650   5.770   0.972  0.9082  0.2572 -0.6196
  271MOL0     H35736   4.418   6.040   1.382  0.7236 -2.4998 -3.7241
  271MOL0     H35737   4.320   5.975   1.598  0.5420  1.3904 -0.2097
  271MOL0     H35738   4.486   5.811   1.834 -2.2508  3.0392  0.6488
  271MOL0     H35739   4.430   5.628   1.823 -3.2045 -0.1413 -0.8611
  271MOL0     H35740   4.222   5.743   1.931  0.9889 -0.1304 -1.3487
  271MOL0     H35741   4.314   5.886   1.953 -2.1426 -0.4533  1.0391
  271MOL0     H35742   4.369   5.801   2.155 -1.1190  0.0820 -1.7488
  271MOL0     H35743   4.498   5.722   2.062  0.4447 -1.1562  0.4251
  271MOL0     H35744   4.234   5.593   2.149 -0.2415 -1.1881 -1.6023
  271MOL0     H35745   4.364   5.526   2.037 -0.4818 -3.4290  2.3976
  271MOL0     H35746   4.385   5.589   2.339  0.4860  5.1023 -0.4858
  271MOL0     H35747   4.519   5.569   2.233  0.2326 -1.4583  2.5168
  271MOL0     H35748   4.465   5.340   2.162  4.4402 -1.1004  2.5345
  271MOL0     H35749   4.324   5.346   2.256 -0.0530 -0.7689 -3.5478
  271MOL0     H35750   4.513   5.434   2.454 -5.2337  1.7614 -1.7109
  271MOL0     H35751   4.476   5.259   2.426 -1.9607 -0.6887 -1.7089
  271MOL0     H35752   4.724   5.300   2.426 -0.4098  1.6769  0.0154
  271MOL0     H35753   4.703   5.419   2.304 -0.0020  1.2583  2.6135
  271MOL0     H35754   4.483   5.579   1.555 -2.6206  1.0283  2.8143
  271MOL0     H35755   4.549   5.627   1.343  1.6344  1.4732  1.3204
  271MOL0     H35756   4.469   6.166   0.958  2.0759  0.0848  0.7148
  271MOL0     H35757   4.539   6.194   0.743  0.9460 -0.5093 -1.1253
  271MOL0     H35758   4.246   6.980   0.923 -0.4594 -0.5465  1.2908
  271MOL0     H35759   4.088   7.115   0.868  5.6776 -0.7109 -1.2034
  271MOL0     H35760   3.623   7.270   0.753 -1.1360  4.5103 -2.2528
  271MOL0     H35761   3.406   7.404   0.787 -0.0889  2.3909  1.1370
  271MOL0     H35762   3.233   7.671   1.086  1.4352  2.4498  0.2694
  271MOL0     H35763   3.362   7.616   1.182 -1.0231  3.6356  1.4446
  271MOL0     H35764   3.148   7.533   1.285  0.5600 -2.7017  1.0147
  271MOL0     H35765   3.098   7.464   1.138  1.7568 -4.6352 -1.5442
  271MOL0     H35766   3.332   7.332   1.167  1.0921 -3.1690  2.4908
  271MOL0     H35767   3.198   7.277   1.264 -3.9863  1.5220  3.5788
  271MOL0     H35768   3.460   7.368   1.348 -0.8143 -0.0200 -0.0241
  271MOL0     H35769   3.359   7.486   1.412  0.5846  0.1408  1.4974
  271MOL0     H35770   3.296   7.169   1.679  0.9446 -0.0125 -0.9721
  271MOL0     H35771   3.525   7.484   1.191 -1.5695  0.0607 -0.7380
  271MOL0     H35772   3.723   7.359   1.167  0.3630 -0.4474  0.1540
  272MOL0     O35773   1.292   6.184   0.907  0.1144  0.1664  0.0165
  272MOL0     C35774   1.379   6.124   0.849 -0.0410  0.6818 -0.3700
  272MOL0     O35775   1.517   6.112   0.884 -0.2228  0.2342 -0.3701
  272MOL0     C35776   1.550   6.210   0.972  0.8480  0.4809 -0.2069
  272MOL0     C35777   1.571   6.346   0.918  0.2529  0.6427  0.2394
  272MOL0     C35778   1.578   6.456   1.011  0.3419 -0.5226 -0.2387
  272MOL0     C35779   1.583   6.435   1.151  0.5780  1.0681  0.5206
  272MOL0     O35780   1.573   6.540   1.241  0.6130 -0.2408  0.5574
  272MOL0     C35781   1.597   6.678   1.200 -0.0804  0.6201 -0.0132
  272MOL0     C35782   1.448   6.723   1.191 -0.5161 -0.3156  0.8645
  272MOL0     C35783   1.372   6.716   1.051 -0.2250 -1.1869 -0.6281
  272MOL0     C35784   1.245   6.800   1.066  0.3028  0.6590 -0.5051
  272MOL0     C35785   1.146   6.788   0.950 -0.0946 -0.3909  0.3459
  272MOL0     C35786   1.214   6.851   0.829  0.4631 -0.7732  0.6815
  272MOL0     C35787   1.107   6.900   0.732  0.1682  0.0453  0.1531
  272MOL0     C35788   1.153   6.918   0.595 -0.1332  0.5393  0.3867
  272MOL0     N35789   1.280   7.003   0.577 -0.1736  0.4248  0.8686
  272MOL0     C35790   1.409   6.967   0.545  0.1228 -0.1496  0.1126
  272MOL0     C35791   1.476   7.080   0.516  0.2212  0.1569  0.0947
  272MOL0     C35792   1.625   7.103   0.478  0.2080 -0.3343  0.2117
  272MOL0     C35793   1.631   7.180   0.340  0.0145  0.3604 -0.8908
  272MOL0     C35794   1.540   7.131   0.228  0.2376  0.0831  0.0988
  272MOL0     C35795   1.612   7.005   0.168  0.3524 -0.0279 -0.0150
  272MOL0     O35796   1.520   6.962   0.065  0.7796 -0.5367 -0.6171
  272MOL0     C35797   1.530   7.002  -0.068 -0.7477  0.5912  0.4444
  272MOL0     C35798   1.629   7.094  -0.110  0.3840 -0.2542 -0.5761
  272MOL0     C35799   1.647   7.090  -0.252 -0.2572 -0.6238  0.5734
  272MOL0     C35800   1.575   7.026  -0.351  0.6728  0.5880  0.0572
  272MOL0     C35801   1.600   7.027  -0.498 -1.4637  0.4563 -0.1181
  272MOL0     O35802   1.549   6.937  -0.580 -0.1779  0.5141  0.3530
  272MOL0     C35803   1.496   6.976  -0.699 -0.4919  0.1231  0.2235
  272MOL0     C35804   1.437   7.101  -0.731  0.1678 -0.0244 -0.6087
  272MOL0     C35805   1.355   7.112  -0.843 -0.6584 -1.2928 -0.4613
  272MOL0     C35806   1.330   7.004  -0.932  0.4846 -0.0078  0.4314
  272MOL0     O35807   1.252   7.032  -1.042 -0.3466  0.0916  0.2052
  272MOL0     C35808   1.258   6.950  -1.162  0.4808  1.2997  0.0948
  272MOL0     C35809   1.165   7.002  -1.259 -0.4497  0.2150  0.0715
  272MOL0     C35810   1.182   6.945  -1.400 -0.0617 -0.4568  0.1212
  272MOL0     C35811   1.073   6.992  -1.492  0.6236 -0.1743 -0.3263
  272MOL0     C35812   1.105   6.964  -1.639  0.1439  0.9163  0.0400
  272MOL0     C35813   1.032   7.050  -1.743 -0.9773  0.5943  0.6807
  272MOL0     C35814   0.881   7.044  -1.741  0.6767 -0.1050 -0.4414
  272MOL0     C35815   0.820   7.073  -1.879  0.5407 -0.1734  0.1441
  272MOL0    Cl35816   0.881   7.222  -1.945 -0.1666 -0.1675 -0.5620
  272MOL0     C35817   1.390   6.883  -0.905  1.0037  0.3134 -0.5619
  272MOL0     C35818   1.465   6.861  -0.785  0.1606 -0.1245 -0.1347
  272MOL0     O35819   1.672   7.120  -0.536 -0.7310  0.4540 -0.2277
  272MOL0     C35820   1.460   6.954  -0.296 -0.2885  0.8395  0.5193
  272MOL0     C35821   1.447   6.930  -0.164  0.8853  0.5672  0.0649
  272MOL0     N35822   1.387   7.184   0.536 -0.2270  0.6967 -1.0435
  272MOL0     N35823   1.272   7.136   0.566  1.0480 -0.4346  0.4349
  272MOL0     C35824   1.576   6.303   1.205 -0.5595  0.9051  0.1739
  272MOL0     C35825   1.566   6.194   1.112  0.5365  0.3491 -0.6206
  272MOL0     C35826   1.333   6.030   0.730 -0.1281 -0.2018  0.3542
  272MOL0     C35827   1.204   5.977   0.729  0.6635 -0.6089  0.6280
  272MOL0     C35828   1.164   5.884   0.632 -0.1651 -1.2494 -0.2609
  272MOL0     C35829   1.259   5.860   0.532 -0.0017  0.3549 -0.3529
  272MOL0     O35830   1.216   5.763   0.439  0.0286  0.3460  0.2890
  272MOL0     C35831   1.306   5.725   0.325 -0.4909  0.3208 -0.1918
  272MOL0     C35832   1.238   5.625   0.243  0.4527  0.8144  0.0180
  272MOL0     C35833   1.278   5.652   0.095 -0.1145 -0.6758 -0.7043
  272MOL0     C35834   1.216   5.542   0.007  0.7790 -0.0621 -0.0338
  272MOL0     C35835   1.283   5.551  -0.120  0.4063  0.4017  0.6321
  272MOL0     C35836   1.339   5.547  -0.228  0.3267  0.7708  0.8099
  272MOL0     C35837   1.380   5.930   0.525 -0.0853  0.2705  0.3957
  272MOL0     C35838   1.411   6.016   0.627  0.2680  0.2150  1.1074
  272MOL0     H35839   1.562   6.361   0.811 -0.2660 -0.3338  0.1327
  272MOL0     H35840   1.588   6.544   0.949  0.3270 -1.9169 -2.3330
  272MOL0     H35841   1.666   6.685   1.114 -1.7902 -1.5934 -1.7023
  272MOL0     H35842   1.643   6.733   1.282 -1.7497  0.4594  1.0632
  272MOL0     H35843   1.466   6.825   1.226  2.3751 -0.5555  0.3454
  272MOL0     H35844   1.388   6.665   1.262 -0.7563 -1.9027 -0.5773
  272MOL0     H35845   1.345   6.614   1.023 -0.7354 -1.8497  2.0005
  272MOL0     H35846   1.434   6.773   0.982  2.6600 -1.2289  1.7367
  272MOL0     H35847   1.191   6.744   1.144  1.4302  0.7761  0.3872
  272MOL0     H35848   1.252   6.897   1.115 -1.1934  0.2641  0.5851
  272MOL0     H35849   1.052   6.837   0.974 -0.8453 -1.5921 -0.0632
  272MOL0     H35850   1.119   6.685   0.929  1.8905 -0.6825 -1.0333
  272MOL0     H35851   1.271   6.773   0.777  1.5182  0.9515 -0.8974
  272MOL0     H35852   1.302   6.914   0.847  2.4618 -2.9051 -0.9363
  272MOL0     H35853   1.019   6.836   0.731 -1.2206  1.7676  2.7796
  272MOL0     H35854   1.084   7.004   0.755  0.2778  0.0998  0.0204
  272MOL0     H35855   1.080   6.965   0.528  0.2225  0.2728 -0.1877
  272MOL0     H35856   1.176   6.817   0.560  3.2448  0.5061  2.3005
  272MOL0     H35857   1.465   6.874   0.538 -1.0689 -1.0316  1.7387
  272MOL0     H35858   1.679   7.009   0.465  2.6399  0.9890  0.0538
  272MOL0     H35859   1.678   7.156   0.559  1.2631  1.1149 -1.3476
  272MOL0     H35860   1.735   7.189   0.311  0.6283 -2.2540  0.2406
  272MOL0     H35861   1.602   7.286   0.347  2.7504  1.1162  0.8956
  272MOL0     H35862   1.448   7.088   0.271  2.4290 -2.3618  2.7505
  272MOL0     H35863   1.537   7.207   0.150  2.6379 -0.2919 -0.4226
  272MOL0     H35864   1.622   6.927   0.244 -1.0720 -0.6739 -0.4556
  272MOL0     H35865   1.707   7.039   0.124 -1.3695  2.8840 -1.7555
  272MOL0     H35866   1.697   7.151  -0.047 -0.3039 -0.7557  0.6546
  272MOL0     H35867   1.727   7.153  -0.289 -2.5518  1.6543 -0.8484
  272MOL0     H35868   1.474   7.187  -0.677  3.3030  1.2254 -4.2931
  272MOL0     H35869   1.332   7.214  -0.870 -0.6448 -1.0964  0.2519
  272MOL0     H35870   1.228   6.847  -1.140  1.2055  1.2954  1.1555
  272MOL0     H35871   1.362   6.952  -1.196  1.7838 -1.7904  3.3003
  272MOL0     H35872   1.182   7.110  -1.262 -3.1846  0.6944 -0.8213
  272MOL0     H35873   1.064   6.985  -1.220 -1.3448 -0.6263 -2.4135
  272MOL0     H35874   1.207   6.840  -1.384 -0.5483 -0.3750  1.5629
  272MOL0     H35875   1.274   6.990  -1.439  0.6435 -1.6685  0.3124
  272MOL0     H35876   0.979   6.942  -1.466  0.6432  0.2562  0.6279
  272MOL0     H35877   1.053   7.096  -1.463  2.9072 -0.5008  3.0657
  272MOL0     H35878   1.086   6.857  -1.650 -2.9233  1.0388  2.7125
  272MOL0     H35879   1.214   6.977  -1.648  0.8253 -2.4513  1.4325
  272MOL0     H35880   1.079   7.007  -1.832  0.7296 -2.4254  2.8684
  272MOL0     H35881   1.056   7.156  -1.737 -0.8856  0.4929  4.1532
  272MOL0     H35882   0.856   6.939  -1.725  1.0751 -0.0080  0.9379
  272MOL0     H35883   0.844   7.111  -1.663  1.0800  1.6967 -1.7014
  272MOL0     H35884   0.711   7.071  -1.870  0.4555  1.2595 -0.2702
  272MOL0     H35885   0.852   6.991  -1.944  0.2938  0.8866 -1.3953
  272MOL0     H35886   1.368   6.788  -0.954 -1.7066  0.5280  0.0456
  272MOL0     H35887   1.504   6.767  -0.748  1.5318  1.0418  1.6270
  272MOL0     H35888   1.386   6.915  -0.364  0.4306  1.4811 -0.6702
  272MOL0     H35889   1.365   6.875  -0.119  0.8464  2.9831  3.2986
  272MOL0     H35890   1.583   6.290   1.313  0.4072 -1.4694 -0.1181
  272MOL0     H35891   1.542   6.096   1.151  0.7185 -0.7396 -3.0808
  272MOL0     H35892   1.136   6.000   0.810 -1.0845 -2.7721 -0.0980
  272MOL0     H35893   1.063   5.846   0.637  0.4238 -2.8634  3.6151
  272MOL0     H35894   1.398   5.685   0.369 -1.1314 -0.4156  0.4851
  272MOL0     H35895   1.331   5.816   0.269  2.1480  0.6461  1.3216
  272MOL0     H35896   1.264   5.523   0.271  4.7166  0.7608 -3.1760
  272MOL0     H35897   1.130   5.638   0.251  0.5601  2.3526 -0.6656
  272MOL0     H35898   1.387   5.650   0.090 -0.0685 -3.3633  0.1431
  272MOL0     H35899   1.239   5.750   0.063  2.0186  1.5948  2.9361
  272MOL0     H35900   1.225   5.441   0.048 -3.1692 -0.9413 -0.9180
  272MOL0     H35901   1.108   5.552  -0.002  0.5455  2.3908  3.2502
  272MOL0     H35902   1.405   5.533  -0.311  1.4374 -3.5284  2.1334
  272MOL0     H35903   1.442   5.929   0.436 -0.7385  1.3677 -0.0938
  272MOL0     H35904   1.516   6.045   0.623  0.9236 -2.0153  0.8610
  273MOL0     O35905   6.918   6.984   7.550  0.2688  0.2624  0.1577
  273MOL0     C35906   7.037   7.002   7.563  0.4010  0.3683 -1.4822
  273MOL0     O35907   7.111   6.952   7.671  0.1215 -0.1993  0.2208
  273MOL0     C35908   7.030   6.901   7.770 -0.1510 -0.5889  0.5166
  273MOL0     C35909   7.038   6.763   7.790  0.2266  0.9379 -0.2333
  273MOL0     C35910   6.975   6.713   7.912  0.2028 -0.9802 -0.0032
  273MOL0     C35911   6.907   6.795   8.002  0.0220 -0.2959 -0.1377
  273MOL0     O35912   6.843   6.730   8.104  0.5299 -0.4918 -0.2999
  273MOL0     C35913   6.764   6.805   8.207 -0.8306 -0.5680  0.7675
  273MOL0     C35914   6.662   6.710   8.258 -1.7354  0.0220 -0.0595
  273MOL0     C35915   6.568   6.781   8.348  1.0371  0.5099 -0.2405
  273MOL0     C35916   6.467   6.861   8.257  0.3423  0.1715 -0.3818
  273MOL0     C35917   6.366   6.934   8.348  0.4364 -0.8720 -0.4945
  273MOL0     C35918   6.435   7.020   8.459  0.5185 -0.7424 -0.8303
  273MOL0     C35919   6.336   7.130   8.518 -0.0333  0.3232  0.0333
  273MOL0     C35920   6.418   7.235   8.574  0.6728  0.0692  0.0123
  273MOL0     N35921   6.493   7.183   8.688  0.4936  0.1947  0.5158
  273MOL0     C35922   6.425   7.118   8.799 -1.0802 -0.5539  1.4090
  273MOL0     C35923   6.530   7.087   8.879  0.1382  0.7324 -0.3743
  273MOL0     C35924   6.548   7.017   9.017  0.3622  0.7926  0.4293
  273MOL0     C35925   6.475   6.883   9.016  0.7308  0.8404  0.0251
  273MOL0     C35926   6.538   6.776   8.927  0.4255 -0.3369  0.3817
  273MOL0     C35927   6.467   6.639   8.914  0.4033  1.4731  0.5964
  273MOL0     O35928   6.331   6.658   8.872  0.2116 -0.6963 -0.8164
  273MOL0     C35929   6.268   6.541   8.893 -0.4968 -0.2625 -0.2261
  273MOL0     C35930   6.172   6.541   8.986 -0.6356  0.2532 -1.2319
  273MOL0     C35931   6.066   6.443   8.989 -0.3262  0.6843  0.3429
  273MOL0     C35932   6.079   6.324   8.911 -0.7520 -0.5901  0.4550
  273MOL0     C35933   5.986   6.209   8.922 -0.5197  0.6484  0.3934
  273MOL0     O35934   5.992   6.118   8.824  0.2635  0.1886  0.4976
  273MOL0     C35935   5.937   6.000   8.868 -0.3583 -0.4873 -0.6134
  273MOL0     C35936   6.038   5.906   8.915 -0.4432  0.6407  0.0860
  273MOL0     C35937   5.980   5.797   8.974 -1.0227 -0.3381  0.2079
  273MOL0     C35938   5.845   5.780   8.997 -0.1535  0.2850  0.2641
  273MOL0     O35939   5.809   5.663   9.062 -0.0481 -0.2402 -0.1099
  273MOL0     C35940   5.673   5.614   9.053  0.1517 -0.1327 -0.5996
  273MOL0     C35941   5.681   5.466   9.103 -0.2544 -0.4398 -0.1264
  273MOL0     C35942   5.555   5.382   9.105  1.1250 -0.4308 -0.5034
  273MOL0     C35943   5.568   5.239   9.162 -0.0693 -0.0104 -0.4146
  273MOL0     C35944   5.438   5.158   9.143  0.7233 -1.1319  0.3355
  273MOL0     C35945   5.397   5.143   8.988 -0.4730 -0.3007  0.2631
  273MOL0     C35946   5.309   5.025   8.954 -0.0432  0.0584 -0.3891
  273MOL0     C35947   5.351   4.944   8.837 -0.6636 -0.2224  0.2331
  273MOL0    Cl35948   5.335   5.060   8.692 -0.2202 -0.0972  0.1710
  273MOL0     C35949   5.761   5.868   8.916 -0.8170  0.3745 -0.4222
  273MOL0     C35950   5.802   5.980   8.844 -0.1779  0.1726  0.4732
  273MOL0     O35951   5.898   6.219   9.009  0.1289 -0.2696 -1.0881
  273MOL0     C35952   6.188   6.317   8.814  0.1195 -0.0929 -0.0111
  273MOL0     C35953   6.274   6.430   8.802  0.9009 -0.4366 -0.3065
  273MOL0     N35954   6.644   7.126   8.823  0.2003 -0.6486 -0.0407
  273MOL0     N35955   6.627   7.188   8.710  0.4256 -0.2106  0.7339
  273MOL0     C35956   6.908   6.940   7.983  0.8327  0.1492  0.9395
  273MOL0     C35957   6.976   6.984   7.863 -1.2150  1.4239  0.1516
  273MOL0     C35958   7.113   7.088   7.473 -0.2027 -0.8615 -0.1484
  273MOL0     C35959   7.053   7.188   7.395  0.3610  0.6773  0.1671
  273MOL0     C35960   7.129   7.273   7.328 -0.7126 -0.3616  0.3373
  273MOL0     C35961   7.262   7.255   7.308 -0.5311  0.1981  0.0726
  273MOL0     O35962   7.325   7.351   7.232 -1.0196 -0.9781  0.8626
  273MOL0     C35963   7.468   7.324   7.226  0.5222  0.0600  0.1274
  273MOL0     C35964   7.554   7.448   7.189  0.5143  1.0881  0.5868
  273MOL0     C35965   7.687   7.425   7.149 -0.8599  0.6638 -0.2823
  273MOL0     C35966   7.774   7.543   7.103  0.2224 -0.4107  0.0105
  273MOL0     C35967   7.717   7.635   7.003  0.4881 -1.3419  0.7707
  273MOL0     C35968   7.672   7.719   6.915 -1.1644 -0.4960 -0.3827
  273MOL0     C35969   7.324   7.150   7.371 -0.4132  0.3380  0.3382
  273MOL0     C35970   7.254   7.068   7.459 -0.5454 -0.9913  1.0062
  273MOL0     H35971   7.082   6.692   7.720 -0.6028 -0.2041  0.3806
  273MOL0     H35972   6.975   6.606   7.924  3.2743 -1.1960 -1.1722
  273MOL0     H35973   6.717   6.887   8.152  1.1165 -0.5128 -0.9444
  273MOL0     H35974   6.825   6.852   8.284 -0.1677  1.6375 -0.9922
  273MOL0     H35975   6.716   6.626   8.303  2.9385  0.8679 -3.3997
  273MOL0     H35976   6.603   6.664   8.179 -1.4780 -1.6120  0.6604
  273MOL0     H35977   6.613   6.848   8.422  2.9379 -0.4545 -0.4472
  273MOL0     H35978   6.500   6.711   8.398 -2.8668  0.6007 -4.7433
  273MOL0     H35979   6.522   6.937   8.202  1.3558  0.4533  0.9746
  273MOL0     H35980   6.404   6.801   8.190  1.2028  0.0740 -1.1105
  273MOL0     H35981   6.311   6.854   8.398 -1.1910  1.6104  1.9157
  273MOL0     H35982   6.296   6.992   8.287 -0.6332 -0.1747  1.3193
  273MOL0     H35983   6.523   7.075   8.422 -0.1213  1.1322  0.2873
  273MOL0     H35984   6.467   6.963   8.546 -0.6281 -0.0567  0.0580
  273MOL0     H35985   6.274   7.167   8.435 -1.4224  0.7547  1.2328
  273MOL0     H35986   6.265   7.080   8.584  1.9267  0.0581  2.0508
  273MOL0     H35987   6.352   7.318   8.599 -0.7836 -0.6091 -1.4178
  273MOL0     H35988   6.498   7.261   8.503  0.1438 -2.6269 -1.7322
  273MOL0     H35989   6.321   7.087   8.800 -0.0688 -4.5076  3.6641
  273MOL0     H35990   6.509   7.083   9.096  2.7501  2.0775  0.6189
  273MOL0     H35991   6.651   6.994   9.045  0.2007  0.7263  0.9682
  273MOL0     H35992   6.373   6.910   8.990 -1.5277 -4.2786  2.1433
  273MOL0     H35993   6.469   6.843   9.118 -1.3144  1.1973  0.0863
  273MOL0     H35994   6.544   6.814   8.825 -3.7206 -0.1123  0.0259
  273MOL0     H35995   6.639   6.753   8.963 -0.4150 -1.5152  2.1547
  273MOL0     H35996   6.475   6.601   9.016  0.7461 -1.9014 -0.5921
  273MOL0     H35997   6.514   6.567   8.848  0.6353 -0.0145  2.3221
  273MOL0     H35998   6.166   6.635   9.039  2.2838 -0.4193  0.5293
  273MOL0     H35999   5.981   6.440   9.056 -1.2536  3.9024 -0.5251
  273MOL0     H36000   6.146   5.915   8.912 -0.2907  0.7656  2.8637
  273MOL0     H36001   6.043   5.715   9.007  3.5466  1.8428 -2.1451
  273MOL0     H36002   5.645   5.611   8.947  2.5489 -0.4839 -1.2816
  273MOL0     H36003   5.603   5.668   9.118  1.3171  1.7437 -0.8248
  273MOL0     H36004   5.734   5.453   9.198  0.4283 -3.9458 -0.8591
  273MOL0     H36005   5.746   5.421   9.028  0.8330  0.7542  0.0693
  273MOL0     H36006   5.515   5.378   9.003 -0.7594  0.8267  0.1269
  273MOL0     H36007   5.483   5.433   9.170  0.7349 -1.2572 -0.2610
  273MOL0     H36008   5.652   5.192   9.110  0.5587 -2.0446  2.2463
  273MOL0     H36009   5.594   5.235   9.268  2.7559  0.1844 -1.0452
  273MOL0     H36010   5.360   5.218   9.190  0.3355 -0.0931 -1.5522
  273MOL0     H36011   5.448   5.062   9.194  1.4318 -0.7240  0.9947
  273MOL0     H36012   5.491   5.125   8.936 -0.5202 -0.6979  0.3129
  273MOL0     H36013   5.349   5.235   8.953  3.0863  2.1699  1.2870
  273MOL0     H36014   5.315   4.966   9.047  0.2933  0.4195 -0.1789
  273MOL0     H36015   5.207   5.056   8.931  0.6448  1.2318 -1.9959
  273MOL0     H36016   5.273   4.868   8.825 -2.0359  1.1541  0.0991
  273MOL0     H36017   5.447   4.894   8.847  1.0026  2.4799 -1.0861
  273MOL0     H36018   5.654   5.854   8.907 -0.6046  0.1059 -3.7880
  273MOL0     H36019   5.746   6.057   8.793 -1.7609 -1.8462 -1.0233
  273MOL0     H36020   6.190   6.225   8.755 -1.5099 -1.5496  2.0294
  273MOL0     H36021   6.338   6.430   8.714  1.3976 -1.6839  0.0289
  273MOL0     H36022   6.864   7.001   8.061  0.3605  1.0162  0.0165
  273MOL0     H36023   6.998   7.087   7.837  0.7644  0.8864 -0.4284
  273MOL0     H36024   6.949   7.220   7.405 -0.7946 -2.6757  0.2279
  273MOL0     H36025   7.079   7.364   7.295 -1.2932  1.6873  5.7956
  273MOL0     H36026   7.477   7.250   7.145  0.8378  0.6093 -0.3569
  273MOL0     H36027   7.515   7.288   7.317  1.4602 -2.5968 -1.3044
  273MOL0     H36028   7.496   7.489   7.106 -0.1068  1.2125  1.0761
  273MOL0     H36029   7.554   7.516   7.275 -1.8498  0.0646  1.5007
  273MOL0     H36030   7.683   7.352   7.067  1.0104  2.3149 -1.9652
  273MOL0     H36031   7.744   7.375   7.228  3.6256  2.6434 -1.9106
  273MOL0     H36032   7.822   7.602   7.181  2.6284 -0.5732 -1.2742
  273MOL0     H36033   7.867   7.507   7.059  1.1203  0.9264  0.7713
  273MOL0     H36034   7.641   7.792   6.842  0.9154  0.9083  0.0241
  273MOL0     H36035   7.427   7.119   7.353 -0.2859  0.3239  1.0600
  273MOL0     H36036   7.312   6.993   7.512  3.4743  0.6544 -0.7188
  274MOL0     O36037  10.956   1.110  10.830  0.0290 -0.3477 -0.1059
  274MOL0     C36038  10.932   1.161  10.943  0.3129  1.2777  0.4383
  274MOL0     O36039  10.839   1.246  10.964  0.0980 -0.2476  0.0249
  274MOL0     C36040  10.754   1.281  10.861 -1.0513  0.9182 -0.6143
  274MOL0     C36041  10.779   1.383  10.761 -0.3759  0.0629 -1.1067
  274MOL0     C36042  10.672   1.438  10.689 -0.1060 -0.2238  0.4672
  274MOL0     C36043  10.546   1.391  10.712 -0.0634  0.9797  0.3238
  274MOL0     O36044  10.441   1.430  10.626 -0.9889  0.4281 -0.7933
  274MOL0     C36045  10.437   1.563  10.558 -0.7616  0.3057 -0.0318
  274MOL0     C36046  10.416   1.678  10.658 -0.1251  0.0877  0.6224
  274MOL0     C36047  10.281   1.655  10.722  0.2400 -0.4835 -0.3385
  274MOL0     C36048  10.246   1.731  10.847  0.7107  0.9826  0.2503
  274MOL0     C36049  10.329   1.671  10.966 -0.0174 -0.8290  0.3282
  274MOL0     C36050  10.270   1.546  11.018 -0.8685 -0.4160 -0.5095
  274MOL0     C36051  10.375   1.470  11.096 -0.1824 -0.2504  0.1782
  274MOL0     C36052  10.309   1.346  11.165  0.5213 -0.6068  0.1456
  274MOL0     N36053  10.265   1.246  11.074 -0.5924  0.8676  0.3089
  274MOL0     C36054  10.136   1.231  11.031 -0.4968 -0.1059  0.2626
  274MOL0     C36055  10.135   1.129  10.947 -0.0816  0.5436 -0.3312
  274MOL0     C36056  10.027   1.075  10.856 -0.3722  0.5151 -0.1802
  274MOL0     C36057   9.950   1.186  10.789 -0.0539 -0.9321  0.8043
  274MOL0     C36058  10.043   1.295  10.727  0.0298  0.5595  0.7395
  274MOL0     C36059   9.967   1.384  10.631  0.0996 -0.0991 -0.2178
  274MOL0     O36060   9.869   1.456  10.709  0.4087  0.9312  0.1911
  274MOL0     C36061   9.877   1.591  10.736  0.4856  0.5224 -0.0658
  274MOL0     C36062   9.919   1.698  10.650 -0.6845  0.0453 -0.2860
  274MOL0     C36063   9.936   1.827  10.706  0.0106  1.1010  0.7446
  274MOL0     C36064   9.902   1.851  10.847 -1.1718  0.0655 -0.0641
  274MOL0     C36065   9.922   1.991  10.898  0.3856  0.6541 -0.1982
  274MOL0     O36066   9.964   2.079  10.805  0.0456 -1.0422 -0.2027
  274MOL0     C36067   9.985   2.206  10.857 -0.1404  0.3532  0.6849
  274MOL0     C36068   9.872   2.291  10.871  0.1261 -0.3954 -0.6242
  274MOL0     C36069   9.896   2.424  10.915 -0.3682 -0.2650 -0.2412
  274MOL0     C36070  10.026   2.473  10.926 -0.0581  0.0306  0.7149
  274MOL0     O36071  10.038   2.604  10.963 -0.7472 -0.2486  0.2561
  274MOL0     C36072  10.110   2.625  11.092 -1.5164  0.5004 -0.6092
  274MOL0     C36073  10.071   2.758  11.166 -0.7807 -0.1412  0.2405
  274MOL0     C36074  10.118   2.765  11.319 -0.3824 -0.0728 -0.0129
  274MOL0     C36075  10.073   2.896  11.380  0.4517  0.4750  0.0601
  274MOL0     C36076  10.129   2.912  11.516  0.6046  0.6859 -1.0651
  274MOL0     C36077  10.096   3.051  11.575  0.4422  0.7464  0.0769
  274MOL0     C36078  10.177   3.071  11.705 -0.2664  0.5139 -0.3204
  274MOL0     C36079  10.155   3.209  11.755  0.4262  0.4586  0.7182
  274MOL0    Cl36080  10.275   3.323  11.680  0.3723 -0.2255  0.2772
  274MOL0     C36081  10.134   2.380  10.926  0.2586  0.7693 -0.2036
  274MOL0     C36082  10.110   2.244  10.897  0.2438  0.2953 -0.0212
  274MOL0     O36083   9.923   2.001  11.023 -0.2526 -0.4605 -0.7531
  274MOL0     C36084   9.869   1.746  10.926  0.3149  0.4448 -0.4088
  274MOL0     C36085   9.858   1.616  10.874  0.1446  0.5316  1.3000
  274MOL0     N36086  10.260   1.073  10.947 -0.1501  0.1907  0.4432
  274MOL0     N36087  10.336   1.139  11.029 -0.8702 -0.1695 -0.4388
  274MOL0     C36088  10.523   1.296  10.801  0.4624  0.7223 -0.0727
  274MOL0     C36089  10.622   1.234  10.877 -0.8030 -0.2866 -0.4963
  274MOL0     C36090  11.016   1.123  11.047 -1.1344 -0.6251 -0.1689
  274MOL0     C36091  11.033   1.208  11.163 -0.8184 -0.9236  0.2128
  274MOL0     C36092  11.120   1.163  11.271 -0.0417 -0.5837 -0.3102
  274MOL0     C36093  11.200   1.059  11.246  0.4382  0.9573 -0.3553
  274MOL0     O36094  11.302   1.019  11.339  0.4547 -0.5935 -0.1432
  274MOL0     C36095  11.406   1.121  11.342  0.5642 -0.1418  0.4984
  274MOL0     C36096  11.479   1.146  11.210  0.6368  0.1262 -0.2574
  274MOL0     C36097  11.534   1.020  11.151 -0.8721  1.0877  0.5030
  274MOL0     C36098  11.635   0.945  11.244 -0.2031 -0.5430  0.5526
  274MOL0     C36099  11.692   0.828  11.171  0.7854 -0.8914 -0.2412
  274MOL0     C36100  11.729   0.732  11.114 -0.7557 -0.5693 -0.0542
  274MOL0     C36101  11.179   0.975  11.147  0.3010  0.2845  0.2074
  274MOL0     C36102  11.088   1.004  11.043 -0.0063  0.8747  0.7344
  274MOL0     H36103  10.875   1.430  10.746 -1.1626  1.8559 -0.8200
  274MOL0     H36104  10.698   1.520  10.623  3.0242  0.7375  2.6525
  274MOL0     H36105  10.353   1.562  10.488 -1.2259 -0.7414  0.5172
  274MOL0     H36106  10.530   1.570  10.501 -1.9110  0.3582 -1.9601
  274MOL0     H36107  10.410   1.775  10.608  1.1460 -0.1430 -0.0307
  274MOL0     H36108  10.505   1.674  10.722  1.2102 -1.3412 -1.1949
  274MOL0     H36109  10.279   1.548  10.743  2.5059 -0.4209  0.4875
  274MOL0     H36110  10.207   1.683  10.646 -1.0164 -1.5037  0.4662
  274MOL0     H36111  10.278   1.834  10.828  0.8702  0.3463 -3.7175
  274MOL0     H36112  10.137   1.729  10.861  0.6171  2.0165 -0.1589
  274MOL0     H36113  10.331   1.744  11.048  2.1664 -0.8225  0.3257
  274MOL0     H36114  10.435   1.664  10.940  0.0028 -2.3321  0.7486
  274MOL0     H36115  10.235   1.486  10.933  0.2462 -1.0973 -0.5109
  274MOL0     H36116  10.186   1.575  11.081  1.0950  0.4694  1.8913
  274MOL0     H36117  10.452   1.435  11.026  1.9223  3.3321  0.4646
  274MOL0     H36118  10.423   1.540  11.165 -0.1714  1.1480 -1.1788
  274MOL0     H36119  10.225   1.372  11.229  0.5391 -1.3565  0.4760
  274MOL0     H36120  10.385   1.303  11.230 -1.4175  0.7633  3.5598
  274MOL0     H36121  10.046   1.283  11.059 -0.5432 -0.2177  0.3238
  274MOL0     H36122   9.958   1.015  10.917  0.7885 -2.4987 -1.6173
  274MOL0     H36123  10.075   1.012  10.781  0.3631 -0.2628  0.9134
  274MOL0     H36124   9.889   1.241  10.861  0.7247  0.5522  0.3799
  274MOL0     H36125   9.886   1.132  10.719 -0.0668 -0.5022  0.4808
  274MOL0     H36126  10.096   1.345  10.809  0.0382 -0.7399  1.5400
  274MOL0     H36127  10.127   1.251  10.671  1.9365  1.9781  2.3218
  274MOL0     H36128   9.908   1.327  10.558 -0.4318  1.7707 -1.3097
  274MOL0     H36129  10.038   1.444  10.574 -0.7869  1.9704  0.7502
  274MOL0     H36130   9.952   1.672  10.550 -0.1697 -0.7765  0.0949
  274MOL0     H36131   9.970   1.901  10.633  1.5637 -1.8159 -1.7065
  274MOL0     H36132   9.771   2.256  10.855 -1.8928  3.0725  2.9070
  274MOL0     H36133   9.816   2.496  10.916  1.4155  1.8517  1.7775
  274MOL0     H36134  10.218   2.618  11.074 -1.3865 -0.3329  0.3755
  274MOL0     H36135  10.082   2.541  11.157  0.3894 -0.0773 -0.4664
  274MOL0     H36136   9.962   2.757  11.158 -1.3128 -6.6673  2.5875
  274MOL0     H36137  10.115   2.845  11.116  0.5370 -1.5807 -1.2401
  274MOL0     H36138  10.226   2.748  11.324 -0.4032  0.0982  1.9890
  274MOL0     H36139  10.081   2.678  11.375 -1.6324 -0.3175 -1.1709
  274MOL0     H36140  10.101   2.987  11.325 -1.4887  1.4798  0.6312
  274MOL0     H36141   9.965   2.890  11.390  0.2793 -1.6830 -2.1134
  274MOL0     H36142  10.238   2.911  11.513  0.6907  3.0748 -0.5258
  274MOL0     H36143  10.084   2.836  11.581  2.6973 -2.9916 -3.5489
  274MOL0     H36144   9.991   3.067  11.602  0.5358  2.3175 -0.3432
  274MOL0     H36145  10.121   3.126  11.499 -1.0548  0.0942 -1.1141
  274MOL0     H36146  10.149   2.996  11.780 -1.8532  2.4072  1.0789
  274MOL0     H36147  10.284   3.052  11.701 -0.5657 -1.4296 -0.1157
  274MOL0     H36148  10.158   3.203  11.864 -3.6863  0.4664  0.9999
  274MOL0     H36149  10.054   3.242  11.729  0.4674 -1.2155 -1.9971
  274MOL0     H36150  10.235   2.413  10.950  0.1546  0.8154  0.1636
  274MOL0     H36151  10.184   2.164  10.896 -0.8296 -0.7839 -2.6481
  274MOL0     H36152   9.842   1.766  11.029  2.3164 -2.0365  0.6928
  274MOL0     H36153   9.845   1.526  10.932  0.9627 -0.5861 -0.1784
  274MOL0     H36154  10.420   1.262  10.806  0.8366 -0.4093  0.3028
  274MOL0     H36155  10.606   1.159  10.954 -0.3306  0.3305  0.2254
  274MOL0     H36156  10.980   1.302  11.179  0.8170  0.4160 -1.7061
  274MOL0     H36157  11.133   1.227  11.358 -0.8863  0.0642 -0.6478
  274MOL0     H36158  11.476   1.114  11.425 -0.9368 -0.7827  1.7551
  274MOL0     H36159  11.357   1.216  11.365 -1.2179 -1.3790  2.0438
  274MOL0     H36160  11.413   1.193  11.137  0.7659 -0.3103 -0.6619
  274MOL0     H36161  11.561   1.215  11.228  1.8832 -1.6319  1.2191
  274MOL0     H36162  11.589   1.053  11.062 -2.0860 -1.7470 -1.4504
  274MOL0     H36163  11.456   0.949  11.121  0.6346 -1.3608  2.0923
  274MOL0     H36164  11.716   1.018  11.254 -1.9613  2.7791 -4.8788
  274MOL0     H36165  11.587   0.919  11.338  0.7364  0.4651  1.3392
  274MOL0     H36166  11.753   0.637  11.068 -3.5936 -1.5129  0.2033
  274MOL0     H36167  11.236   0.883  11.152  1.1664  0.8729  1.7611
  274MOL0     H36168  11.073   0.925  10.970  1.5298 -1.9490  3.2164
  275MOL0     O36169   1.183   2.336   4.126  0.1317  0.0513 -0.5423
  275MOL0     C36170   1.256   2.372   4.218  0.6125  0.3842 -0.6163
  275MOL0     O36171   1.380   2.329   4.227 -1.2588  0.2793 -0.6063
  275MOL0     C36172   1.440   2.237   4.147  0.6492  0.7917 -0.0941
  275MOL0     C36173   1.422   2.098   4.179 -0.6186 -0.5845  0.3506
  275MOL0     C36174   1.492   2.006   4.102  0.5387 -0.3725  0.4621
  275MOL0     C36175   1.572   2.042   3.987  1.0243  0.2696 -0.1964
  275MOL0     O36176   1.637   1.937   3.923 -0.1564  0.5576 -0.4969
  275MOL0     C36177   1.680   1.948   3.785 -0.4771 -0.3681 -0.6755
  275MOL0     C36178   1.832   1.933   3.765 -0.2201  0.7052 -0.6199
  275MOL0     C36179   1.915   2.056   3.716 -1.2879  1.2619 -0.5570
  275MOL0     C36180   2.062   2.028   3.731 -0.1154  0.0111  0.2358
  275MOL0     C36181   2.147   2.149   3.688  0.1659  0.0699  0.5821
  275MOL0     C36182   2.111   2.199   3.542 -0.2787  0.6789 -0.8992
  275MOL0     C36183   2.218   2.264   3.462 -1.2108  0.4712 -0.3790
  275MOL0     C36184   2.278   2.409   3.494  0.0848  0.8473 -0.2294
  275MOL0     N36185   2.332   2.412   3.625 -0.2523 -0.5607 -0.0446
  275MOL0     C36186   2.272   2.445   3.742  1.0796 -0.3763 -0.1169
  275MOL0     C36187   2.368   2.465   3.836  0.1058  0.2135  0.6878
  275MOL0     C36188   2.349   2.516   3.980 -1.4338 -0.7144  0.0788
  275MOL0     C36189   2.391   2.659   3.974  0.1855  0.0690 -0.1416
  275MOL0     C36190   2.380   2.716   4.112 -0.0347 -0.4877  0.2716
  275MOL0     C36191   2.482   2.827   4.148 -0.0250  0.3441  0.6070
  275MOL0     O36192   2.505   2.904   4.028 -0.1166  0.8927 -0.3500
  275MOL0     C36193   2.616   2.991   4.052  0.2161  0.0562  0.0749
  275MOL0     C36194   2.738   2.958   4.111  0.3457  0.6446 -0.7123
  275MOL0     C36195   2.841   3.046   4.103 -0.1572 -0.4195  0.3699
  275MOL0     C36196   2.833   3.170   4.037 -0.0873  0.0500 -0.6645
  275MOL0     C36197   2.941   3.263   4.015 -0.1747  0.2327 -0.1425
  275MOL0     O36198   2.910   3.381   3.953  0.1393  0.3548  0.2552
  275MOL0     C36199   2.996   3.480   3.941 -0.0207 -0.8947  0.1337
  275MOL0     C36200   2.983   3.568   3.829  0.0341 -0.2759 -0.2616
  275MOL0     C36201   3.079   3.670   3.800  0.2713 -0.2085  0.5723
  275MOL0     C36202   3.187   3.697   3.890  1.6227 -0.6748 -0.8905
  275MOL0     O36203   3.268   3.808   3.871 -0.2970  0.7760  0.4512
  275MOL0     C36204   3.375   3.772   3.777 -1.0665  0.3956 -0.3536
  275MOL0     C36205   3.359   3.834   3.641 -0.1950  0.0953 -1.1175
  275MOL0     C36206   3.347   3.989   3.665 -1.0815  0.3055  0.2727
  275MOL0     C36207   3.349   4.069   3.527 -0.2239 -0.7763  0.1024
  275MOL0     C36208   3.239   4.021   3.426 -0.2901 -0.0608 -0.1963
  275MOL0     C36209   3.269   4.086   3.283  0.3374  0.3292 -0.3370
  275MOL0     C36210   3.241   4.235   3.273 -0.2701  0.5914  0.6651
  275MOL0     C36211   3.231   4.290   3.131 -1.0964 -0.1723  1.0684
  275MOL0    Cl36212   3.363   4.204   3.033 -0.1567 -0.4713  0.1800
  275MOL0     C36213   3.197   3.615   4.009 -0.1690 -1.4696 -0.1562
  275MOL0     C36214   3.096   3.519   4.041 -0.8661 -0.1214  0.6155
  275MOL0     O36215   3.052   3.230   4.047 -0.3824  0.9644 -0.1363
  275MOL0     C36216   2.704   3.192   3.977 -0.2228 -0.8613 -0.1837
  275MOL0     C36217   2.606   3.099   3.975 -0.3645  0.0327 -0.0659
  275MOL0     N36218   2.487   2.438   3.771 -0.6322 -0.4251 -0.1838
  275MOL0     N36219   2.474   2.411   3.643 -0.0428 -0.3480  0.8409
  275MOL0     C36220   1.573   2.178   3.957  0.5961 -0.7212 -0.5974
  275MOL0     C36221   1.521   2.281   4.044  0.8713 -0.2488  0.4848
  275MOL0     C36222   1.211   2.486   4.309 -0.3165 -0.2033 -0.6172
  275MOL0     C36223   1.286   2.516   4.427 -0.3489 -0.2789  0.0054
  275MOL0     C36224   1.234   2.614   4.516 -0.6013  0.0516  1.6962
  275MOL0     C36225   1.142   2.703   4.471  0.4250 -0.6494 -0.4217
  275MOL0     O36226   1.085   2.811   4.536  0.5161  0.6588 -0.1100
  275MOL0     C36227   1.031   2.790   4.670 -0.1919  0.3907  0.6036
  275MOL0     C36228   0.912   2.701   4.663 -0.8552  0.0740  0.1035
  275MOL0     C36229   0.813   2.736   4.771  0.6592 -0.0587  0.0382
  275MOL0     C36230   0.722   2.858   4.744 -0.4265 -0.4438 -0.1896
  275MOL0     C36231   0.633   2.826   4.633 -0.7814  0.6450  0.9673
  275MOL0     C36232   0.565   2.798   4.529  0.7282  0.1476 -0.1498
  275MOL0     C36233   1.081   2.679   4.348  0.0919 -0.3288 -0.6980
  275MOL0     C36234   1.117   2.574   4.270 -0.1668 -0.2185  0.7389
  275MOL0     H36235   1.353   2.071   4.258  0.3431 -0.7601  1.1477
  275MOL0     H36236   1.479   1.901   4.123 -0.7060 -0.4756 -0.6665
  275MOL0     H36237   1.671   2.051   3.748  1.4835  0.3413  0.6327
  275MOL0     H36238   1.627   1.870   3.731 -2.2687 -0.2032  0.7559
  275MOL0     H36239   1.842   1.845   3.700  1.4932  0.4757 -0.1103
  275MOL0     H36240   1.884   1.892   3.852  1.2918  2.3188 -0.7004
  275MOL0     H36241   1.897   2.144   3.779 -1.5037 -1.2942  3.3091
  275MOL0     H36242   1.889   2.072   3.611 -1.7615 -2.0953 -1.0697
  275MOL0     H36243   2.085   2.004   3.835  3.4703 -2.4466 -0.9187
  275MOL0     H36244   2.092   1.939   3.674 -2.3715 -0.9679  0.4711
  275MOL0     H36245   2.252   2.119   3.696 -0.0247 -1.4015 -1.3927
  275MOL0     H36246   2.115   2.224   3.760 -1.5408  2.5061 -2.4897
  275MOL0     H36247   2.026   2.269   3.541 -1.3146 -0.4775  0.8983
  275MOL0     H36248   2.087   2.106   3.491 -0.4606  0.1733  0.0909
  275MOL0     H36249   2.299   2.190   3.458  0.2650  1.8640  1.6564
  275MOL0     H36250   2.174   2.267   3.362 -0.6860  1.4726 -0.5920
  275MOL0     H36251   2.190   2.473   3.485  2.2151  4.2803  1.3600
  275MOL0     H36252   2.347   2.449   3.419 -0.5988  0.4613 -1.0806
  275MOL0     H36253   2.164   2.450   3.750  0.8856 -0.7639 -1.9485
  275MOL0     H36254   2.408   2.454   4.048 -0.3369  2.5250  2.2736
  275MOL0     H36255   2.247   2.485   4.003 -2.1669 -0.2358 -2.2621
  275MOL0     H36256   2.323   2.716   3.911 -1.3787  2.1925  3.1989
  275MOL0     H36257   2.496   2.664   3.944  0.0883  0.4531 -0.4216
  275MOL0     H36258   2.276   2.750   4.119 -1.5542 -4.0088 -1.9937
  275MOL0     H36259   2.380   2.641   4.191 -2.5733 -0.3413  0.4902
  275MOL0     H36260   2.566   2.773   4.194 -1.1758 -0.2892  2.0530
  275MOL0     H36261   2.444   2.880   4.236  0.2203  0.4085  0.6763
  275MOL0     H36262   2.756   2.872   4.173  1.1065 -0.8600 -2.9064
  275MOL0     H36263   2.938   3.033   4.151  0.3291  2.0518  0.2079
  275MOL0     H36264   2.907   3.549   3.754  1.2463 -0.5223 -1.4722
  275MOL0     H36265   3.080   3.711   3.699  1.0119 -2.0583 -0.2234
  275MOL0     H36266   3.376   3.663   3.768  0.8628  0.4530 -1.5510
  275MOL0     H36267   3.475   3.793   3.817  0.6887 -3.2614 -2.3217
  275MOL0     H36268   3.260   3.812   3.602 -1.3152  3.2509 -0.3688
  275MOL0     H36269   3.437   3.790   3.578  1.1716 -1.0784  1.2333
  275MOL0     H36270   3.423   4.025   3.736  1.3721  0.4548 -2.2388
  275MOL0     H36271   3.251   4.006   3.715 -0.5780 -0.9317  1.7217
  275MOL0     H36272   3.331   4.176   3.539 -1.9169 -0.6634 -2.5060
  275MOL0     H36273   3.444   4.059   3.473 -1.6017 -2.5586 -2.1993
  275MOL0     H36274   3.140   4.054   3.457  0.2796  1.5462  0.0234
  275MOL0     H36275   3.247   3.914   3.410 -1.5150 -0.0981 -0.6159
  275MOL0     H36276   3.202   4.039   3.210 -0.0701 -0.6686  0.6475
  275MOL0     H36277   3.373   4.062   3.260  1.0999 -1.5918  4.0381
  275MOL0     H36278   3.155   4.281   3.323 -1.7668  0.5672 -1.7357
  275MOL0     H36279   3.333   4.287   3.300 -1.0529  2.7579 -0.5950
  275MOL0     H36280   3.260   4.396   3.134  0.5586 -0.5871  0.8829
  275MOL0     H36281   3.135   4.277   3.080  1.0434 -1.1271 -3.1889
  275MOL0     H36282   3.265   3.650   4.086 -0.4080  0.7221 -0.8830
  275MOL0     H36283   3.098   3.456   4.129  0.3952 -2.6004 -1.0823
  275MOL0     H36284   2.692   3.287   3.926  2.5000 -2.0493 -3.5220
  275MOL0     H36285   2.520   3.107   3.909 -0.2342  0.4791 -0.1820
  275MOL0     H36286   1.639   2.220   3.881 -2.0950  0.7835 -2.2683
  275MOL0     H36287   1.522   2.389   4.035  1.2681 -0.2704  0.2692
  275MOL0     H36288   1.359   2.451   4.476  1.0042  1.8170  0.8934
  275MOL0     H36289   1.283   2.617   4.613  3.5502 -0.7141 -0.1665
  275MOL0     H36290   1.001   2.888   4.710 -0.5131  1.0863 -1.2697
  275MOL0     H36291   1.113   2.754   4.733 -0.9281 -0.6206  1.0207
  275MOL0     H36292   0.877   2.707   4.559 -1.0187  1.8162  0.2338
  275MOL0     H36293   0.940   2.597   4.681 -0.3308  0.4462  1.5629
  275MOL0     H36294   0.859   2.754   4.869  1.1882  0.2068 -0.2543
  275MOL0     H36295   0.761   2.641   4.784  0.3133 -0.0772 -1.3670
  275MOL0     H36296   0.669   2.875   4.838  0.7410  3.1468 -0.0602
  275MOL0     H36297   0.776   2.951   4.731 -2.8429  1.6105  2.8880
  275MOL0     H36298   0.505   2.774   4.443 -0.6616 -3.7066  1.6859
  275MOL0     H36299   1.003   2.737   4.298 -0.8786 -0.1813  0.9258
  275MOL0     H36300   1.076   2.569   4.170 -0.3625  1.6715  0.6918
  276MOL0     O36301   8.191   5.250   3.880  0.2133 -0.7049 -0.8583
  276MOL0     C36302   8.171   5.324   3.780 -1.0454 -0.5383  0.8397
  276MOL0     O36303   8.058   5.360   3.718  0.2788  0.9693 -0.3527
  276MOL0     C36304   7.939   5.305   3.762 -0.6899  1.1176  0.4047
  276MOL0     C36305   7.875   5.213   3.688 -0.1070  0.1728 -0.3746
  276MOL0     C36306   7.754   5.156   3.727  1.2789 -0.2291 -1.1729
  276MOL0     C36307   7.680   5.216   3.832 -0.7561  0.4759  0.4546
  276MOL0     O36308   7.548   5.194   3.864  0.3716  0.0281  0.7149
  276MOL0     C36309   7.473   5.169   3.746  0.2854 -0.2858 -0.5769
  276MOL0     C36310   7.328   5.176   3.805  0.1211  0.1427 -0.5809
  276MOL0     C36311   7.228   5.147   3.695 -0.5769 -0.3324 -0.2465
  276MOL0     C36312   7.084   5.180   3.738  0.2294 -0.0200  0.8843
  276MOL0     C36313   6.986   5.148   3.616 -0.3234  0.0651 -0.8314
  276MOL0     C36314   6.849   5.114   3.668 -0.1500 -0.4701 -0.2445
  276MOL0     C36315   6.758   5.038   3.576  0.3889  1.3593 -0.0471
  276MOL0     C36316   6.607   5.025   3.630  0.4912  0.0342 -0.7989
  276MOL0     N36317   6.610   4.951   3.755  0.3352 -0.3858 -0.3584
  276MOL0     C36318   6.624   5.015   3.885 -0.0136 -0.4765  0.4189
  276MOL0     C36319   6.586   4.923   3.976 -0.0992 -0.5290  1.1395
  276MOL0     C36320   6.589   4.951   4.119  0.2669 -0.1731  0.0448
  276MOL0     C36321   6.726   4.992   4.158  0.0247 -0.3107  0.8489
  276MOL0     C36322   6.744   5.008   4.309  0.2522  0.5519 -0.3996
  276MOL0     C36323   6.861   5.087   4.364 -0.3459  0.4694  0.0641
  276MOL0     O36324   6.811   5.163   4.473  0.2281 -0.1156 -0.2407
  276MOL0     C36325   6.900   5.255   4.536 -0.7821 -0.2850  0.3656
  276MOL0     C36326   6.863   5.312   4.653 -0.8606  0.5807  0.9784
  276MOL0     C36327   6.936   5.411   4.715  0.9789 -1.0922 -0.3351
  276MOL0     C36328   7.054   5.466   4.666  0.3531 -0.9730 -0.0644
  276MOL0     C36329   7.144   5.570   4.723  0.8191 -0.0067  0.2262
  276MOL0     O36330   7.094   5.615   4.843 -0.0791  0.0660 -0.4473
  276MOL0     C36331   7.141   5.723   4.905  0.7012  0.7897  0.4676
  276MOL0     C36332   7.252   5.802   4.861  0.0275 -0.0998  0.2030
  276MOL0     C36333   7.295   5.911   4.942 -0.4369 -0.1085  0.2820
  276MOL0     C36334   7.223   5.940   5.062  0.5525 -0.6543 -0.2455
  276MOL0     O36335   7.258   6.046   5.154  0.3399 -1.0786 -0.0469
  276MOL0     C36336   7.393   6.093   5.149 -0.3749 -0.1084 -0.2653
  276MOL0     C36337   7.419   6.207   5.249  0.5940  0.8505 -0.8547
  276MOL0     C36338   7.423   6.164   5.386 -0.0584  0.0357 -0.1943
  276MOL0     C36339   7.439   6.283   5.485  0.2859 -0.7732  0.0130
  276MOL0     C36340   7.503   6.247   5.616  0.4271 -0.5860 -0.1374
  276MOL0     C36341   7.409   6.156   5.702  0.0010 -0.9625  0.1961
  276MOL0     C36342   7.469   6.130   5.841 -0.4943  0.5549 -0.0754
  276MOL0     C36343   7.396   6.022   5.920 -0.1910  0.2421 -0.1543
  276MOL0    Cl36344   7.427   6.009   6.099 -0.3870 -0.1431 -0.1648
  276MOL0     C36345   7.107   5.868   5.093  0.0553 -0.2765 -0.6689
  276MOL0     C36346   7.079   5.753   5.030 -0.1408  0.6536  0.2153
  276MOL0     O36347   7.242   5.603   4.669 -0.0998 -0.0646 -0.1489
  276MOL0     C36348   7.091   5.401   4.544 -1.0155 -0.2844  0.5390
  276MOL0     C36349   7.024   5.300   4.477  0.7024  0.1777  0.0966
  276MOL0     N36350   6.537   4.805   3.913 -0.8004 -0.2266 -0.0829
  276MOL0     N36351   6.557   4.824   3.779  0.8886  0.2229 -0.1269
  276MOL0     C36352   7.759   5.288   3.918  0.4336 -0.5954 -0.0878
  276MOL0     C36353   7.880   5.340   3.883 -0.4697 -0.7778  0.2201
  276MOL0     C36354   8.293   5.378   3.728 -0.7677 -0.3743  0.0656
  276MOL0     C36355   8.301   5.470   3.621 -0.9183 -0.0000 -0.4666
  276MOL0     C36356   8.424   5.526   3.587 -0.7787  0.0082  0.9183
  276MOL0     C36357   8.544   5.487   3.647 -1.2346 -0.7074  0.1699
  276MOL0     O36358   8.677   5.531   3.614  0.7333  0.0755 -0.2223
  276MOL0     C36359   8.693   5.626   3.502  0.7790  0.7677 -0.6120
  276MOL0     C36360   8.714   5.769   3.555  0.1061 -0.2632 -0.3936
  276MOL0     C36361   8.686   5.870   3.438  0.4039  0.4535  0.0945
  276MOL0     C36362   8.715   6.016   3.480  0.1571  0.4100 -0.4625
  276MOL0     C36363   8.726   6.095   3.358 -0.0593 -0.3486  0.4985
  276MOL0     C36364   8.711   6.182   3.278  0.2679 -0.2823 -0.4705
  276MOL0     C36365   8.536   5.394   3.738 -0.6400 -0.2932  0.5434
  276MOL0     C36366   8.423   5.335   3.780 -0.3218 -0.1757 -0.1855
  276MOL0     H36367   7.929   5.188   3.597  1.2732  0.9758  0.1803
  276MOL0     H36368   7.722   5.073   3.665 -0.1935 -0.3629 -0.2711
  276MOL0     H36369   7.492   5.076   3.691 -6.6107 -1.6455 -1.6325
  276MOL0     H36370   7.485   5.251   3.675  3.8834 -0.0935  0.0581
  276MOL0     H36371   7.309   5.279   3.837  1.1254  0.9141 -2.3390
  276MOL0     H36372   7.309   5.108   3.889  0.2515  0.0675 -0.6123
  276MOL0     H36373   7.241   5.044   3.660 -1.1035 -0.1940 -0.8743
  276MOL0     H36374   7.256   5.208   3.608 -1.3848  1.3004  0.5869
  276MOL0     H36375   7.056   5.118   3.824 -1.9162 -3.2768 -1.9196
  276MOL0     H36376   7.069   5.285   3.765 -1.2716  0.1172 -0.3137
  276MOL0     H36377   7.031   5.064   3.561 -2.2824 -0.8379 -1.1652
  276MOL0     H36378   6.981   5.229   3.543 -1.6425  0.7200 -0.0462
  276MOL0     H36379   6.804   5.210   3.697  1.8054 -0.0237  1.5401
  276MOL0     H36380   6.865   5.058   3.760  4.0265  2.2597  0.9579
  276MOL0     H36381   6.748   5.091   3.480 -2.4813  2.7376  0.8803
  276MOL0     H36382   6.791   4.934   3.572  0.0374  1.0401  2.9988
  276MOL0     H36383   6.530   4.974   3.572 -0.0964 -1.7144  1.3827
  276MOL0     H36384   6.563   5.124   3.647  0.6147 -0.3398  2.4351
  276MOL0     H36385   6.638   5.119   3.913  0.7185 -1.0157  2.2607
  276MOL0     H36386   6.555   4.854   4.156 -2.3262  0.1961 -1.1729
  276MOL0     H36387   6.524   5.034   4.147 -0.3088  0.7753 -3.6108
  276MOL0     H36388   6.751   5.088   4.114  0.3365 -0.0432  1.5884
  276MOL0     H36389   6.795   4.915   4.120 -0.6020 -1.4462  1.9402
  276MOL0     H36390   6.646   5.051   4.331 -0.1352  1.0134 -2.6950
  276MOL0     H36391   6.753   4.908   4.353  3.8615  1.2487  0.8056
  276MOL0     H36392   6.915   5.144   4.289 -2.4142  1.2813 -0.8654
  276MOL0     H36393   6.932   5.011   4.398  0.2968 -0.5002 -3.1334
  276MOL0     H36394   6.775   5.266   4.696  0.1815 -0.7628  1.7620
  276MOL0     H36395   6.900   5.426   4.816 -4.8481 -1.1625 -2.0628
  276MOL0     H36396   7.319   5.799   4.776 -0.5172  0.5941 -0.2581
  276MOL0     H36397   7.388   5.962   4.920 -0.2293 -0.8380 -0.5881
  276MOL0     H36398   7.415   6.118   5.045 -2.5517 -1.2009 -1.0534
  276MOL0     H36399   7.462   6.013   5.178 -0.7341 -1.2585 -2.4140
  276MOL0     H36400   7.337   6.276   5.225 -0.2246 -0.4607 -1.9699
  276MOL0     H36401   7.519   6.242   5.219  1.6935 -3.2541 -2.6244
  276MOL0     H36402   7.497   6.088   5.413 -0.7429 -0.8488 -0.7343
  276MOL0     H36403   7.325   6.118   5.401  0.4616 -1.3892 -0.9973
  276MOL0     H36404   7.504   6.361   5.444 -1.4991  1.6178  1.5140
  276MOL0     H36405   7.345   6.337   5.493  0.1633 -1.1495  1.2773
  276MOL0     H36406   7.529   6.337   5.671  0.3296 -0.2358 -0.6586
  276MOL0     H36407   7.600   6.202   5.591 -0.1021 -1.6059 -0.4132
  276MOL0     H36408   7.386   6.057   5.663  1.7719 -0.7726 -1.4811
  276MOL0     H36409   7.312   6.204   5.711  0.3430 -0.3513  0.7561
  276MOL0     H36410   7.575   6.101   5.833 -0.8068 -0.2500 -1.9208
  276MOL0     H36411   7.461   6.215   5.908 -0.2747 -1.1786  2.2751
  276MOL0     H36412   7.421   5.930   5.867  1.5569  0.8201 -0.3897
  276MOL0     H36413   7.289   6.030   5.896 -0.3910  0.0050  0.5940
  276MOL0     H36414   7.046   5.898   5.178 -1.1353 -2.4574 -0.6942
  276MOL0     H36415   7.001   5.697   5.080  1.0450  0.3204  1.7907
  276MOL0     H36416   7.183   5.440   4.502 -2.4090  3.5197  0.6017
  276MOL0     H36417   7.053   5.273   4.376  0.7180 -0.3105  0.2288
  276MOL0     H36418   7.714   5.311   4.014  1.2286  3.0440 -0.4198
  276MOL0     H36419   7.933   5.405   3.952  1.8422 -0.6013 -1.6047
  276MOL0     H36420   8.210   5.502   3.572 -1.3459 -2.5595 -1.5179
  276MOL0     H36421   8.407   5.597   3.507  1.0509 -2.4261 -1.8020
  276MOL0     H36422   8.603   5.614   3.441  0.7537  0.0951 -0.4520
  276MOL0     H36423   8.773   5.596   3.433 -1.8380 -0.7802 -3.2177
  276MOL0     H36424   8.651   5.797   3.640  2.2825  1.9342  0.6412
  276MOL0     H36425   8.810   5.782   3.605 -0.0679 -0.1450 -0.0875
  276MOL0     H36426   8.581   5.865   3.406  0.4700  0.6229 -0.1537
  276MOL0     H36427   8.764   5.846   3.366 -0.8493 -3.9247 -0.0972
  276MOL0     H36428   8.628   6.053   3.536  0.5598  0.4269  0.1538
  276MOL0     H36429   8.788   6.033   3.559 -0.0908 -1.6599  0.2711
  276MOL0     H36430   8.704   6.262   3.206 -4.3254 -0.9500 -1.1134
  276MOL0     H36431   8.617   5.354   3.797  0.2779  1.4818  0.5549
  276MOL0     H36432   8.434   5.265   3.863 -2.0699  1.2559  1.3444
  277MOL0     O36433   8.686   9.900   2.823  0.2751 -0.3227 -0.4320
  277MOL0     C36434   8.632   9.970   2.733 -0.3536 -0.0963 -0.4548
  277MOL0     O36435   8.501   9.981   2.707 -0.8348 -0.4326  0.2183
  277MOL0     C36436   8.408   9.887   2.739 -0.5030  0.1443  0.8959
  277MOL0     C36437   8.432   9.757   2.799  0.2244 -0.7056 -0.3430
  277MOL0     C36438   8.326   9.668   2.800 -0.5386 -0.2220 -0.2755
  277MOL0     C36439   8.203   9.695   2.752 -0.0824 -0.8602  0.5975
  277MOL0     O36440   8.103   9.595   2.774  0.4416 -0.4156  0.3519
  277MOL0     C36441   8.014   9.583   2.652  0.3199 -0.4019  0.1746
  277MOL0     C36442   7.946   9.442   2.667  0.2644 -0.3277 -0.0789
  277MOL0     C36443   7.850   9.402   2.556 -0.4205 -1.3434 -0.1068
  277MOL0     C36444   7.758   9.511   2.498  0.1684 -1.1030  0.1778
  277MOL0     C36445   7.681   9.462   2.374 -0.0091 -0.2848  0.4532
  277MOL0     C36446   7.564   9.548   2.337 -0.6503  0.2769 -0.8166
  277MOL0     C36447   7.523   9.520   2.189  1.0638  0.8288 -0.2751
  277MOL0     C36448   7.443   9.392   2.160 -0.5496  0.8714  0.1342
  277MOL0     N36449   7.497   9.314   2.049 -0.2116  0.0057  0.0887
  277MOL0     C36450   7.427   9.302   1.931 -0.3497  0.7685  0.6102
  277MOL0     C36451   7.500   9.211   1.860  0.0332 -0.2098  0.5827
  277MOL0     C36452   7.466   9.165   1.721 -0.1140 -1.0393 -0.0788
  277MOL0     C36453   7.399   9.030   1.708  0.8292 -0.5002 -0.5540
  277MOL0     C36454   7.251   9.018   1.758  0.4357 -0.5861  0.2063
  277MOL0     C36455   7.196   8.895   1.694  0.6681  0.6565 -0.1175
  277MOL0     O36456   7.055   8.909   1.704 -0.4727 -0.5467 -0.0804
  277MOL0     C36457   6.969   8.800   1.673 -0.4787 -0.0140 -0.3302
  277MOL0     C36458   6.838   8.841   1.661 -0.4220  0.1915  0.0078
  277MOL0     C36459   6.734   8.751   1.649  0.0881  1.4362 -0.2878
  277MOL0     C36460   6.763   8.611   1.628 -0.9623  0.5203 -0.5858
  277MOL0     C36461   6.655   8.514   1.611 -0.4525  0.1005  0.5498
  277MOL0     O36462   6.542   8.568   1.551  0.5829 -0.5150  0.6822
  277MOL0     C36463   6.424   8.497   1.565 -0.0972  0.7413 -0.1486
  277MOL0     C36464   6.375   8.479   1.701 -0.2957  1.1690  1.1197
  277MOL0     C36465   6.258   8.406   1.741 -0.7434 -0.4263 -0.0370
  277MOL0     C36466   6.176   8.369   1.633  0.8382 -0.3450 -0.0714
  277MOL0     O36467   6.061   8.298   1.655 -0.2156  0.2496 -0.0417
  277MOL0     C36468   5.991   8.301   1.787 -0.3206 -0.3032  0.5634
  277MOL0     C36469   5.843   8.357   1.770 -1.0104  0.0980 -0.7351
  277MOL0     C36470   5.764   8.350   1.647 -0.2838 -0.0563 -0.1888
  277MOL0     C36471   5.630   8.424   1.656  0.3106 -0.8176  0.6922
  277MOL0     C36472   5.561   8.425   1.521  0.4201 -0.1388 -0.9020
  277MOL0     C36473   5.424   8.492   1.538 -0.0020 -0.2342 -0.3677
  277MOL0     C36474   5.338   8.462   1.418 -0.2858 -0.4726 -0.5269
  277MOL0     C36475   5.362   8.565   1.305  0.0045 -0.3462  0.1039
  277MOL0    Cl36476   5.222   8.543   1.208 -0.5809 -0.1616 -0.1621
  277MOL0     C36477   6.212   8.383   1.497  0.8707 -0.2608  0.1282
  277MOL0     C36478   6.339   8.444   1.471  0.4494 -0.9714 -0.3798
  277MOL0     O36479   6.671   8.399   1.650 -0.2065  0.3478  0.2886
  277MOL0     C36480   6.893   8.571   1.649 -0.3795  0.3449 -0.6573
  277MOL0     C36481   6.994   8.670   1.667  0.2158  0.8853  0.1446
  277MOL0     N36482   7.597   9.160   1.928  0.3408  0.7462 -1.3276
  277MOL0     N36483   7.599   9.224   2.043  0.0104 -0.2602  0.5002
  277MOL0     C36484   8.182   9.819   2.689 -0.1069  0.0057  1.6948
  277MOL0     C36485   8.283   9.911   2.686  0.1413  0.0663  0.0860
  277MOL0     C36486   8.727  10.051   2.653 -0.1311 -0.2236 -0.9753
  277MOL0     C36487   8.692  10.117   2.538 -0.5349  0.0177  0.0549
  277MOL0     C36488   8.788  10.190   2.459  0.5665 -0.6559  0.0636
  277MOL0     C36489   8.924  10.203   2.502  0.4715  0.2633  0.2271
  277MOL0     O36490   9.019  10.275   2.419  0.9558  1.1037  0.4809
  277MOL0     C36491   9.090  10.189   2.328  0.1585  0.0685  0.2911
  277MOL0     C36492   9.212  10.144   2.402  0.7126  0.3348 -0.0764
  277MOL0     C36493   9.271  10.012   2.335 -0.2414 -0.7283  0.6335
  277MOL0     C36494   9.182   9.892   2.348 -0.3231  0.9019 -0.2951
  277MOL0     C36495   9.244   9.763   2.296  0.9002 -0.6722 -0.2589
  277MOL0     C36496   9.294   9.660   2.252  0.4763 -0.8581 -0.9691
  277MOL0     C36497   8.952  10.148   2.626 -0.0717 -0.5322  0.1011
  277MOL0     C36498   8.862  10.068   2.701 -0.3916 -1.2349  0.8563
  277MOL0     H36499   8.530   9.735   2.840 -0.2881  0.1978  1.4425
  277MOL0     H36500   8.344   9.572   2.847 -1.9211 -1.0308 -1.2792
  277MOL0     H36501   8.059   9.601   2.554 -1.9074  1.1183 -0.6596
  277MOL0     H36502   7.939   9.662   2.667 -1.6888 -1.8618 -1.7166
  277MOL0     H36503   7.881   9.447   2.754 -3.9110  1.1918 -2.9629
  277MOL0     H36504   8.029   9.374   2.689  2.4535  2.4331  0.8610
  277MOL0     H36505   7.804   9.309   2.592 -1.8556 -1.4197 -1.9834
  277MOL0     H36506   7.918   9.376   2.475 -0.1497 -0.9902  0.0091
  277MOL0     H36507   7.684   9.525   2.577 -1.2428  2.6679 -1.5577
  277MOL0     H36508   7.813   9.605   2.483 -1.9787  1.2190  4.7098
  277MOL0     H36509   7.639   9.361   2.385  1.0274 -0.8094 -0.2887
  277MOL0     H36510   7.754   9.460   2.293 -0.2118 -0.0845  0.2639
  277MOL0     H36511   7.604   9.649   2.337  1.4894 -0.4828  1.0634
  277MOL0     H36512   7.484   9.540   2.411 -1.5563  1.4445 -1.6383
  277MOL0     H36513   7.456   9.603   2.165 -0.4777  0.2930  1.8943
  277MOL0     H36514   7.610   9.531   2.123  1.1831 -0.2346 -0.3208
  277MOL0     H36515   7.342   9.421   2.132 -0.6877  0.9090  0.6595
  277MOL0     H36516   7.429   9.324   2.245 -1.9008  0.3771 -0.4524
  277MOL0     H36517   7.344   9.365   1.899 -0.2031 -0.1803 -1.8735
  277MOL0     H36518   7.555   9.181   1.659  0.4041 -1.9049  0.4221
  277MOL0     H36519   7.402   9.249   1.691 -3.4313 -2.7431  1.6259
  277MOL0     H36520   7.448   8.960   1.776  0.5743  1.0433  1.3179
  277MOL0     H36521   7.406   8.998   1.604  1.6471 -2.6249  0.0922
  277MOL0     H36522   7.248   9.015   1.868  0.4585  0.2420  0.2379
  277MOL0     H36523   7.189   9.102   1.723  0.2087 -1.1645 -0.8238
  277MOL0     H36524   7.230   8.815   1.760 -1.2389  0.8502  1.2005
  277MOL0     H36525   7.227   8.872   1.591 -0.0827  1.0949 -0.4538
  277MOL0     H36526   6.816   8.947   1.673  2.7029  0.6748  3.4628
  277MOL0     H36527   6.632   8.790   1.647  0.3608  2.3058  1.3175
  277MOL0     H36528   6.449   8.502   1.777  3.0977 -2.5349 -0.6632
  277MOL0     H36529   6.230   8.387   1.844 -1.0666  2.4431  0.4872
  277MOL0     H36530   6.049   8.368   1.851  1.3018  0.1639 -1.2933
  277MOL0     H36531   6.004   8.204   1.837 -1.8537 -2.2912 -2.5411
  277MOL0     H36532   5.839   8.460   1.808  1.7351 -0.0518  0.1693
  277MOL0     H36533   5.788   8.304   1.847  0.5653  0.9693  1.0609
  277MOL0     H36534   5.755   8.247   1.611 -0.4150  0.5926 -2.0815
  277MOL0     H36535   5.818   8.401   1.567 -1.4646 -2.5738 -2.7630
  277MOL0     H36536   5.562   8.379   1.730 -0.2374 -1.9737 -0.4787
  277MOL0     H36537   5.649   8.524   1.696 -0.5594 -0.8867  1.2977
  277MOL0     H36538   5.545   8.322   1.488 -0.9826 -0.2916  0.1964
  277MOL0     H36539   5.618   8.472   1.440 -1.2463  0.2503 -1.8933
  277MOL0     H36540   5.446   8.599   1.545  2.6868 -0.8301  2.0498
  277MOL0     H36541   5.376   8.467   1.633 -1.0699  1.1735 -0.4952
  277MOL0     H36542   5.351   8.357   1.390 -0.1057 -0.9189  1.0903
  277MOL0     H36543   5.232   8.484   1.436  0.1319  2.8486 -1.3983
  277MOL0     H36544   5.445   8.537   1.239 -1.3288 -0.5679 -1.5244
  277MOL0     H36545   5.365   8.671   1.330 -0.9020 -0.3796  0.3877
  277MOL0     H36546   6.141   8.345   1.425  1.7253 -1.3183 -0.1853
  277MOL0     H36547   6.366   8.445   1.366  0.8699 -1.1890 -0.2726
  277MOL0     H36548   6.923   8.467   1.651  0.7096  0.5406 -3.1210
  277MOL0     H36549   7.089   8.619   1.668 -0.8454 -1.2508 -1.0638
  277MOL0     H36550   8.089   9.849   2.643  0.4346  0.7126  1.0211
  277MOL0     H36551   8.265  10.007   2.639 -1.1705 -0.5574 -0.7454
  277MOL0     H36552   8.588  10.116   2.507 -0.6415  1.1061  0.3114
  277MOL0     H36553   8.772  10.235   2.362  2.2690 -0.3376 -0.0929
  277MOL0     H36554   9.132  10.250   2.248  2.7960 -1.1760  0.6465
  277MOL0     H36555   9.023  10.111   2.291 -1.0574  0.7033  1.0479
  277MOL0     H36556   9.283  10.228   2.407  3.1455 -1.5867  5.1221
  277MOL0     H36557   9.196  10.126   2.508  1.6104 -1.1039 -0.1674
  277MOL0     H36558   9.365   9.986   2.384 -0.4490  2.4747  3.0387
  277MOL0     H36559   9.290  10.026   2.228  1.5556 -4.9773  0.2011
  277MOL0     H36560   9.159   9.877   2.454  0.3724 -0.5497 -0.3239
  277MOL0     H36561   9.093   9.905   2.286 -0.3498 -3.0456 -1.3401
  277MOL0     H36562   9.338   9.571   2.212  1.4143 -0.9595  0.1991
  277MOL0     H36563   9.050  10.164   2.669  0.3431  2.1109 -1.5970
  277MOL0     H36564   8.910  10.031   2.791  3.1553 -0.2284 -0.4530
  278MOL0     O36565   6.490   0.631   9.975 -0.1659 -0.2793 -0.1187
  278MOL0     C36566   6.595   0.603  10.028  0.4706 -0.3122  0.0826
  278MOL0     O36567   6.704   0.679  10.026  0.1582  0.4207  0.1033
  278MOL0     C36568   6.698   0.813   9.981  0.3546  0.0549  0.4313
  278MOL0     C36569   6.713   0.927  10.067 -0.3135  0.3991 -0.6444
  278MOL0     C36570   6.722   1.049  10.010  0.1384 -0.1336  0.7300
  278MOL0     C36571   6.734   1.071   9.875 -0.0821 -0.2178 -0.4766
  278MOL0     O36572   6.746   1.200   9.832  0.3855 -0.4872 -0.0024
  278MOL0     C36573   6.824   1.218   9.711  1.3521 -0.7434 -0.6081
  278MOL0     C36574   6.719   1.232   9.591  1.0638  0.3797 -0.4609
  278MOL0     C36575   6.738   1.363   9.517 -0.7586 -0.3212  0.4030
  278MOL0     C36576   6.877   1.399   9.461 -0.6197 -0.6985  0.1606
  278MOL0     C36577   6.882   1.399   9.308  0.8047  0.5798 -0.8429
  278MOL0     C36578   7.020   1.379   9.253  0.2167 -0.8262 -0.1266
  278MOL0     C36579   7.136   1.490   9.278  0.4261 -0.1084  0.0025
  278MOL0     C36580   7.086   1.632   9.251 -0.0881  0.2827  0.3056
  278MOL0     N36581   7.020   1.667   9.122 -0.3488  0.5234  0.6672
  278MOL0     C36582   7.077   1.693   8.999  0.8166 -0.0645 -0.3177
  278MOL0     C36583   6.971   1.721   8.918 -0.0765 -0.3434  0.7197
  278MOL0     C36584   6.970   1.749   8.771 -0.4127  0.5079  0.4903
  278MOL0     C36585   6.954   1.617   8.693  0.0674 -0.3250 -0.9866
  278MOL0     C36586   6.799   1.585   8.698 -0.2230 -0.2721 -0.3473
  278MOL0     C36587   6.765   1.443   8.663 -0.9386 -0.8644 -0.0572
  278MOL0     O36588   6.838   1.332   8.737  0.3815 -0.5811 -0.1103
  278MOL0     C36589   6.752   1.282   8.837  0.0086  0.2510  0.9017
  278MOL0     C36590   6.766   1.152   8.882 -1.5230 -0.0109  0.2428
  278MOL0     C36591   6.695   1.093   8.987 -0.9154  0.1795  0.0339
  278MOL0     C36592   6.615   1.176   9.065 -0.9481  0.0884  0.7488
  278MOL0     C36593   6.554   1.124   9.190  0.2975  0.4301 -0.2215
  278MOL0     O36594   6.549   0.990   9.212  0.6437  0.1587  0.1329
  278MOL0     C36595   6.466   0.945   9.310  0.5521 -0.3545  0.1651
  278MOL0     C36596   6.509   0.925   9.440 -0.4962  0.0796  0.3329
  278MOL0     C36597   6.429   0.847   9.530  0.2925  0.1266 -0.3473
  278MOL0     C36598   6.303   0.801   9.489  1.8801 -0.6366  0.5473
  278MOL0     O36599   6.211   0.720   9.561 -0.3605 -0.4640 -1.1287
  278MOL0     C36600   6.269   0.636   9.666 -0.4709 -0.0856 -0.1884
  278MOL0     C36601   6.175   0.522   9.676 -0.1168  0.8253  0.1751
  278MOL0     C36602   6.179   0.447   9.812  0.1597 -0.4131 -0.0622
  278MOL0     C36603   6.111   0.306   9.833 -0.3569 -1.2832 -0.6854
  278MOL0     C36604   6.125   0.270   9.979  0.0604 -0.5113  0.7134
  278MOL0     C36605   6.060   0.358  10.083  0.4966  0.5315  0.3462
  278MOL0     C36606   5.917   0.400  10.048  0.2103  0.2837  0.5441
  278MOL0     C36607   5.836   0.465  10.161 -0.2722  0.4232 -0.2788
  278MOL0    Cl36608   5.928   0.598  10.243  0.2839 -0.4665  0.1240
  278MOL0     C36609   6.262   0.830   9.356  0.1518  0.0325 -0.0181
  278MOL0     C36610   6.347   0.898   9.267  0.7222  0.2438  0.5677
  278MOL0     O36611   6.510   1.209   9.263 -0.3144 -0.0912  0.0405
  278MOL0     C36612   6.617   1.318   9.032  0.0027  1.1537  0.3003
  278MOL0     C36613   6.684   1.369   8.919  1.2841  0.4605 -0.7640
  278MOL0     N36614   6.855   1.729   8.993 -0.1988 -0.6729  0.2752
  278MOL0     N36615   6.884   1.693   9.114 -0.6672  0.1676 -0.7897
  278MOL0     C36616   6.719   0.960   9.791 -0.0363  0.7665  0.4971
  278MOL0     C36617   6.699   0.831   9.848 -0.4456  1.0386 -0.2221
  278MOL0     C36618   6.598   0.470  10.093  0.0896 -0.6298 -0.3194
  278MOL0     C36619   6.667   0.455  10.214 -0.3290  0.7046 -0.2342
  278MOL0     C36620   6.672   0.331  10.267  0.0998 -0.2117  1.0204
  278MOL0     C36621   6.601   0.220  10.216 -0.2638  0.1251  0.0582
  278MOL0     O36622   6.611   0.096  10.285  0.3787 -0.1896  0.0882
  278MOL0     C36623   6.693   0.074  10.399 -0.3839  1.5421  0.3279
  278MOL0     C36624   6.729  -0.082  10.410 -0.7660  0.0578 -0.4942
  278MOL0     C36625   6.601  -0.171  10.421 -0.8801 -0.8473 -0.2483
  278MOL0     C36626   6.557  -0.221  10.557 -0.4376  0.3817 -0.7765
  278MOL0     C36627   6.413  -0.239  10.566  0.6975 -0.9484 -0.3611
  278MOL0     C36628   6.293  -0.246  10.592  0.2041  0.0805 -0.6284
  278MOL0     C36629   6.530   0.236  10.100  0.0536 -0.1589  0.0001
  278MOL0     C36630   6.529   0.358  10.029 -0.0073  0.6109  0.0252
  278MOL0     H36631   6.734   0.915  10.172 -2.9255  3.0230  0.3155
  278MOL0     H36632   6.714   1.138  10.073 -0.4965  0.6178 -0.3780
  278MOL0     H36633   6.900   1.141   9.695  2.7245  0.2193  0.9153
  278MOL0     H36634   6.871   1.316   9.724 -1.6409  1.1438 -2.7919
  278MOL0     H36635   6.616   1.234   9.627  0.7823  1.8322 -1.2598
  278MOL0     H36636   6.720   1.156   9.513  2.6160 -1.5624  1.3306
  278MOL0     H36637   6.699   1.438   9.586  1.8095 -0.5202  2.1712
  278MOL0     H36638   6.672   1.352   9.430  0.6930 -2.3440 -0.5149
  278MOL0     H36639   6.893   1.499   9.502 -0.3877 -0.3469 -0.7594
  278MOL0     H36640   6.956   1.339   9.507 -1.5454 -1.4236  0.8364
  278MOL0     H36641   6.827   1.485   9.268  0.7878  0.2655 -1.5111
  278MOL0     H36642   6.831   1.312   9.264  0.0908 -0.4131  1.7677
  278MOL0     H36643   7.013   1.356   9.146  0.5337 -0.9132 -0.1304
  278MOL0     H36644   7.064   1.291   9.301  1.7951  0.0121  0.0351
  278MOL0     H36645   7.181   1.472   9.376  0.0186 -2.2931 -0.1629
  278MOL0     H36646   7.212   1.469   9.201  0.1350 -2.0688  0.1878
  278MOL0     H36647   7.177   1.690   9.269  1.1509 -0.8792 -1.7400
  278MOL0     H36648   7.008   1.643   9.326  0.1768 -0.9409  0.7824
  278MOL0     H36649   7.181   1.688   8.967  0.6149  1.2958 -1.2677
  278MOL0     H36650   7.058   1.806   8.739 -1.0418  0.8297 -0.7020
  278MOL0     H36651   6.886   1.811   8.737  0.5620 -0.0286 -3.3575
  278MOL0     H36652   6.998   1.537   8.753  0.0628  2.6766  3.4687
  278MOL0     H36653   6.983   1.617   8.587  2.4915 -0.2029 -0.3857
  278MOL0     H36654   6.761   1.613   8.797 -0.3493 -2.8754  0.4144
  278MOL0     H36655   6.759   1.655   8.625 -1.3122  0.6981  1.1171
  278MOL0     H36656   6.779   1.421   8.557 -0.1974 -1.6687  0.1909
  278MOL0     H36657   6.656   1.448   8.674 -1.2643 -1.6560 -2.4619
  278MOL0     H36658   6.828   1.090   8.818 -1.3194 -0.2534  0.6731
  278MOL0     H36659   6.709   0.988   9.009 -0.0892 -0.4061 -2.8169
  278MOL0     H36660   6.614   0.940   9.462 -0.8545 -0.1724  2.4793
  278MOL0     H36661   6.461   0.816   9.628 -1.6320  3.3953  1.4901
  278MOL0     H36662   6.277   0.697   9.756 -1.6576  0.8704 -0.7103
  278MOL0     H36663   6.371   0.600   9.650  0.6771  1.9195  1.9910
  278MOL0     H36664   6.184   0.452   9.592  2.3010  0.4512  0.6628
  278MOL0     H36665   6.072   0.554   9.661 -0.2651 -0.8071 -3.2722
  278MOL0     H36666   6.144   0.516   9.890 -1.3985 -1.1294 -0.1059
  278MOL0     H36667   6.283   0.414   9.828 -0.0881 -2.0766 -1.5902
  278MOL0     H36668   6.007   0.303   9.800  0.1232 -1.2427 -2.2482
  278MOL0     H36669   6.166   0.236   9.770 -0.6643 -0.5894 -1.7524
  278MOL0     H36670   6.231   0.269  10.005  0.4740  0.0926 -0.8374
  278MOL0     H36671   6.093   0.166   9.990 -0.1042 -0.6583 -0.9430
  278MOL0     H36672   6.110   0.452  10.109  1.2744  0.2333 -0.0443
  278MOL0     H36673   6.052   0.291  10.169  1.6606 -0.3944 -0.2350
  278MOL0     H36674   5.926   0.486   9.981 -1.9045  1.0664  1.1715
  278MOL0     H36675   5.859   0.315  10.010  0.8830 -0.4185  1.0568
  278MOL0     H36676   5.789   0.391  10.227  0.7503 -0.3359 -0.3735
  278MOL0     H36677   5.740   0.500  10.122 -0.5521  0.3280  0.3116
  278MOL0     H36678   6.163   0.795   9.329  0.0813 -1.0496  1.5229
  278MOL0     H36679   6.309   0.909   9.165  1.4367 -0.6709  0.1903
  278MOL0     H36680   6.557   1.385   9.093 -2.3356 -2.9874  3.1536
  278MOL0     H36681   6.683   1.477   8.919  1.6228  0.5191 -2.7253
  278MOL0     H36682   6.718   0.966   9.682 -0.2454  1.2814  0.5283
  278MOL0     H36683   6.696   0.736   9.795 -0.1361  0.2284  1.1720
  278MOL0     H36684   6.714   0.542  10.259 -0.7183  0.6614  0.2604
  278MOL0     H36685   6.730   0.330  10.359 -0.3599  1.3453  1.3574
  278MOL0     H36686   6.648   0.098  10.496 -0.2139  1.0808  0.5241
  278MOL0     H36687   6.794   0.115  10.391  0.8289 -1.0531  1.3390
  278MOL0     H36688   6.773  -0.118  10.316 -2.3979 -4.5365  0.2492
  278MOL0     H36689   6.805  -0.098  10.487 -0.9384  1.0015 -0.1199
  278MOL0     H36690   6.613  -0.259  10.357 -0.2424 -1.6707  0.9634
  278MOL0     H36691   6.517  -0.111  10.385 -1.7844 -1.2816  1.0439
  278MOL0     H36692   6.615  -0.310  10.584  0.7467  1.0184 -1.1445
  278MOL0     H36693   6.584  -0.148  10.635  0.0240 -2.5119  1.9572
  278MOL0     H36694   6.194  -0.248  10.633  0.2583  3.8041  0.0311
  278MOL0     H36695   6.497   0.149  10.045  0.5188  0.4587 -1.3132
  278MOL0     H36696   6.485   0.351   9.930 -0.0433 -1.1273  0.1210
  279MOL0     O36697   6.596   6.414   1.972  0.4065 -0.4201 -0.0529
  279MOL0     C36698   6.507   6.359   2.048 -0.8710  0.3829  0.0261
  279MOL0     O36699   6.415   6.423   2.119 -0.3399 -0.5971  0.1281
  279MOL0     C36700   6.403   6.565   2.100  0.6426  0.0924  1.4258
  279MOL0     C36701   6.410   6.627   1.972 -0.1359 -0.4252  0.3322
  279MOL0     C36702   6.390   6.766   1.973  0.7030  0.5480 -0.1890
  279MOL0     C36703   6.340   6.837   2.085  0.2669 -0.3565 -0.8980
  279MOL0     O36704   6.338   6.972   2.066 -0.1365 -0.6560  0.3684
  279MOL0     C36705   6.332   7.059   2.184 -0.4304 -0.3856 -0.8522
  279MOL0     C36706   6.329   7.205   2.145 -1.1368 -0.1739 -0.7799
  279MOL0     C36707   6.352   7.294   2.275 -0.5670 -0.6886 -0.2446
  279MOL0     C36708   6.399   7.433   2.234 -0.2050 -0.4502  0.4996
  279MOL0     C36709   6.541   7.435   2.162 -0.8780  0.3904  0.6939
  279MOL0     C36710   6.650   7.413   2.268 -0.0778 -0.1460  0.7268
  279MOL0     C36711   6.791   7.413   2.203  0.6622  0.2612  0.6209
  279MOL0     C36712   6.842   7.295   2.123 -0.8141 -0.5414  0.2987
  279MOL0     N36713   6.844   7.170   2.203  0.0965  0.2389  0.0655
  279MOL0     C36714   6.787   7.052   2.156  0.3131  0.0561  0.2995
  279MOL0     C36715   6.766   6.969   2.266 -0.7827  0.6732 -0.1922
  279MOL0     C36716   6.735   6.821   2.291 -0.4389 -1.1940  0.7294
  279MOL0     C36717   6.810   6.728   2.190 -0.3426 -0.1832 -0.2646
  279MOL0     C36718   6.824   6.599   2.252 -0.1543  0.1347  0.1907
  279MOL0     C36719   6.896   6.494   2.166  0.1773 -0.6156 -0.5739
  279MOL0     O36720   6.916   6.378   2.246  0.5148 -1.0203  0.7032
  279MOL0     C36721   6.967   6.264   2.177 -0.1820  0.6839 -0.8957
  279MOL0     C36722   6.979   6.158   2.264 -0.2543 -0.1828  0.5546
  279MOL0     C36723   7.001   6.031   2.212 -0.5190 -0.2240 -0.3129
  279MOL0     C36724   7.025   6.007   2.081  0.1404  0.2042  0.9630
  279MOL0     C36725   7.050   5.862   2.029  0.1456 -0.3571 -0.6700
  279MOL0     O36726   7.085   5.768   2.113 -0.0916 -0.3923  0.5643
  279MOL0     C36727   7.121   5.646   2.056 -0.2447 -1.0998 -0.6759
  279MOL0     C36728   7.016   5.556   2.011  0.4142 -0.0053 -0.3954
  279MOL0     C36729   7.046   5.435   1.949 -0.1622  0.0739 -0.8270
  279MOL0     C36730   7.179   5.401   1.915  0.0964 -0.7077  0.0076
  279MOL0     O36731   7.188   5.272   1.866  1.1023 -0.0439  0.3295
  279MOL0     C36732   7.311   5.203   1.864  0.1209  0.6573  0.2916
  279MOL0     C36733   7.304   5.065   1.798 -0.6689 -0.3523  0.5807
  279MOL0     C36734   7.230   4.960   1.872 -0.1150 -0.1372 -0.3176
  279MOL0     C36735   7.239   4.825   1.798 -0.6018  0.2210  0.3291
  279MOL0     C36736   7.147   4.735   1.872  0.0198  0.1045  1.3867
  279MOL0     C36737   7.191   4.596   1.849  0.1725  1.8230  0.4343
  279MOL0     C36738   7.084   4.493   1.902 -0.2620  0.1148 -1.2162
  279MOL0     C36739   6.954   4.495   1.832  0.2741 -0.4585  0.7709
  279MOL0    Cl36740   6.942   4.349   1.721 -0.0181 -0.1430  0.0473
  279MOL0     C36741   7.281   5.497   1.954 -0.2585  0.2271  0.2523
  279MOL0     C36742   7.251   5.613   2.014  0.0372  0.0595 -0.4066
  279MOL0     O36743   7.023   5.846   1.915  0.2112 -0.4949 -0.6303
  279MOL0     C36744   7.035   6.114   1.996  0.4578 -0.1496 -0.1395
  279MOL0     C36745   6.996   6.246   2.042 -0.3816 -0.3418 -0.5316
  279MOL0     N36746   6.831   7.037   2.369 -0.3574  0.4768 -0.2192
  279MOL0     N36747   6.869   7.158   2.339  0.2962 -0.3255 -1.0593
  279MOL0     C36748   6.326   6.777   2.209 -0.6612  0.5040 -0.5299
  279MOL0     C36749   6.372   6.638   2.220  0.6437 -0.4509  0.4812
  279MOL0     C36750   6.514   6.212   2.063 -0.0410  1.2486  0.7497
  279MOL0     C36751   6.625   6.145   1.994  0.8952  0.0948 -0.6060
  279MOL0     C36752   6.633   6.009   1.991  1.0109 -0.6814  0.0524
  279MOL0     C36753   6.540   5.932   2.066  0.9735  0.2230 -0.2187
  279MOL0     O36754   6.543   5.800   2.079  0.7561  0.6706  0.1634
  279MOL0     C36755   6.648   5.711   2.036 -0.1242  0.7572 -1.8636
  279MOL0     C36756   6.623   5.644   1.900 -1.2178  0.7521 -0.7853
  279MOL0     C36757   6.679   5.494   1.895  0.1599  0.7015 -0.6615
  279MOL0     C36758   6.594   5.405   1.801 -0.1988 -0.1078  0.2764
  279MOL0     C36759   6.587   5.467   1.668  0.3959 -0.6265 -0.2292
  279MOL0     C36760   6.581   5.504   1.545 -0.6244  0.1851 -0.0074
  279MOL0     C36761   6.442   6.001   2.136  0.0676  0.6943 -0.6251
  279MOL0     C36762   6.421   6.132   2.138 -0.9625 -0.5330 -0.1863
  279MOL0     H36763   6.436   6.576   1.880 -0.4716  0.2503 -0.1515
  279MOL0     H36764   6.400   6.818   1.878 -1.4656 -3.2818 -2.7819
  279MOL0     H36765   6.412   7.030   2.253  0.4134 -2.8254 -2.7022
  279MOL0     H36766   6.237   7.034   2.231 -0.1375 -1.2830 -0.7171
  279MOL0     H36767   6.230   7.231   2.108 -2.1045 -0.0889  1.6778
  279MOL0     H36768   6.409   7.221   2.072  0.6809 -0.7197  0.9893
  279MOL0     H36769   6.421   7.259   2.353 -2.3759  1.0076  2.2654
  279MOL0     H36770   6.258   7.314   2.328 -1.8317  0.3901 -2.7391
  279MOL0     H36771   6.326   7.469   2.162  1.8094  1.9025 -0.5045
  279MOL0     H36772   6.403   7.502   2.319  0.5644  0.3877 -0.2006
  279MOL0     H36773   6.560   7.533   2.119  2.7345  0.1138  1.3173
  279MOL0     H36774   6.545   7.357   2.085 -1.6736 -1.1000  2.0886
  279MOL0     H36775   6.639   7.319   2.324  3.7166 -1.4532 -0.4170
  279MOL0     H36776   6.644   7.496   2.340 -1.2105  0.8852 -0.5211
  279MOL0     H36777   6.793   7.501   2.139 -1.2536 -0.5893 -0.7183
  279MOL0     H36778   6.861   7.420   2.287  0.4903 -2.1657  1.0376
  279MOL0     H36779   6.937   7.322   2.076  1.4359 -5.3120  1.4059
  279MOL0     H36780   6.777   7.265   2.040 -0.8697 -0.2003  0.2186
  279MOL0     H36781   6.759   7.025   2.055  0.4097  0.5582  0.1316
  279MOL0     H36782   6.629   6.793   2.293 -1.0893  1.0084  3.4780
  279MOL0     H36783   6.766   6.804   2.395 -0.9187  1.1248  1.3109
  279MOL0     H36784   6.910   6.768   2.169 -0.9322 -0.0248 -3.1511
  279MOL0     H36785   6.766   6.723   2.090  3.4519 -1.5788 -2.0433
  279MOL0     H36786   6.878   6.602   2.348 -0.0972  0.4652  0.1480
  279MOL0     H36787   6.721   6.570   2.273  0.6876 -1.4238  2.6393
  279MOL0     H36788   6.996   6.523   2.132 -0.0657 -1.0447 -1.6956
  279MOL0     H36789   6.845   6.469   2.072  2.3186 -1.0828 -1.6788
  279MOL0     H36790   6.969   6.168   2.371 -1.2009  0.0655  0.4477
  279MOL0     H36791   6.994   5.956   2.290  0.4382  0.5734  0.5753
  279MOL0     H36792   6.914   5.587   2.033 -0.1893 -1.7584 -0.6388
  279MOL0     H36793   6.970   5.365   1.914 -0.9441  1.9193 -3.0921
  279MOL0     H36794   7.357   5.194   1.963  3.8408 -1.2571 -1.3853
  279MOL0     H36795   7.395   5.259   1.821  1.0324  1.4782  2.8895
  279MOL0     H36796   7.407   5.031   1.800 -0.7888 -0.6909  1.1796
  279MOL0     H36797   7.271   5.075   1.694  1.1120 -1.1056 -0.0929
  279MOL0     H36798   7.125   4.987   1.889  0.1587  0.7140  0.0729
  279MOL0     H36799   7.277   4.959   1.971  0.8550  1.5960 -0.7265
  279MOL0     H36800   7.210   4.823   1.692 -0.0051  1.8463  0.1068
  279MOL0     H36801   7.345   4.798   1.799 -1.2640 -2.7919  1.5568
  279MOL0     H36802   7.049   4.750   1.827  1.4385  1.9165 -1.4210
  279MOL0     H36803   7.149   4.761   1.978  2.1871  3.2119  0.7204
  279MOL0     H36804   7.280   4.575   1.910  0.0799 -1.5048 -0.3702
  279MOL0     H36805   7.219   4.572   1.746  2.6411 -1.5191  1.7034
  279MOL0     H36806   7.117   4.389   1.908 -0.1188  0.2274  0.5596
  279MOL0     H36807   7.064   4.516   2.007 -1.6949 -2.3892 -0.8683
  279MOL0     H36808   6.940   4.586   1.772 -1.2073 -1.8879 -1.1863
  279MOL0     H36809   6.881   4.492   1.913  1.7521  0.7719  2.2269
  279MOL0     H36810   7.383   5.470   1.932  0.1559  1.1995  0.9104
  279MOL0     H36811   7.329   5.686   2.033 -1.2399  1.9198 -1.9797
  279MOL0     H36812   7.055   6.090   1.892 -3.5108  0.1399 -1.1360
  279MOL0     H36813   6.982   6.325   1.969 -3.9866 -1.0453 -0.7654
  279MOL0     H36814   6.292   6.830   2.298 -2.9222 -0.1648 -0.9295
  279MOL0     H36815   6.375   6.604   2.323 -2.2556  3.0216  1.9193
  279MOL0     H36816   6.707   6.197   1.946  1.7937 -1.0966 -0.3944
  279MOL0     H36817   6.715   5.969   1.933  1.9763 -1.5602  1.9168
  279MOL0     H36818   6.639   5.631   2.110  2.0562  0.3178 -2.0096
  279MOL0     H36819   6.742   5.766   2.050 -0.7756  2.2161 -2.9978
  279MOL0     H36820   6.516   5.647   1.875 -1.5209  0.3059  0.3430
  279MOL0     H36821   6.675   5.708   1.829  1.2247 -0.2499 -0.0013
  279MOL0     H36822   6.675   5.445   1.993  2.0236 -1.8030 -1.7289
  279MOL0     H36823   6.786   5.496   1.875  0.9754  7.2281  1.7235
  279MOL0     H36824   6.650   5.312   1.794 -0.5897 -0.2109 -2.4166
  279MOL0     H36825   6.492   5.380   1.833 -1.1218  3.2557  0.3231
  279MOL0     H36826   6.608   5.527   1.444  2.5363 -0.2663  0.6477
  279MOL0     H36827   6.363   5.943   2.182  0.7679  2.7639  3.7118
  279MOL0     H36828   6.346   6.179   2.201 -2.2474 -1.6588 -0.8204
  280MOL0     O36829  10.410   5.327   5.770  0.1579 -0.3595  0.1555
  280MOL0     C36830  10.375   5.284   5.659 -0.6254  0.9860  0.8431
  280MOL0     O36831  10.269   5.204   5.631  0.1019  0.4852  0.6558
  280MOL0     C36832  10.202   5.161   5.743 -0.9746 -0.1503 -0.4747
  280MOL0     C36833  10.067   5.190   5.761 -0.3331  0.0831  0.3449
  280MOL0     C36834   9.992   5.120   5.851  0.8787  0.4446  0.8935
  280MOL0     C36835  10.048   5.027   5.935  0.2385 -0.6584 -0.2806
  280MOL0     O36836   9.972   4.969   6.031  0.2906  0.0088  0.3114
  280MOL0     C36837   9.939   4.837   6.013 -0.2710  0.5914  0.6414
  280MOL0     C36838  10.043   4.738   6.064  0.1327 -0.0584  0.5082
  280MOL0     C36839   9.980   4.597   6.089  1.2474  0.1074 -0.8866
  280MOL0     C36840  10.101   4.497   6.096 -0.9205  0.4465 -0.5114
  280MOL0     C36841  10.045   4.357   6.114 -0.6108  0.2608  0.0150
  280MOL0     C36842  10.156   4.264   6.162 -0.3521 -0.4380 -0.0492
  280MOL0     C36843  10.111   4.112   6.155  0.1322 -0.1601  0.9080
  280MOL0     C36844  10.208   4.017   6.101 -0.6104 -0.4523 -0.2353
  280MOL0     N36845  10.171   3.874   6.110 -0.3595  0.0775 -0.4235
  280MOL0     C36846  10.142   3.809   6.231 -0.4653 -0.6825  0.4190
  280MOL0     C36847  10.147   3.678   6.207 -0.0278 -0.5780  0.0923
  280MOL0     C36848  10.124   3.576   6.308 -0.2128  0.4404 -0.8893
  280MOL0     C36849  10.253   3.516   6.381 -0.1219  0.2420 -0.1838
  280MOL0     C36850  10.315   3.623   6.472  0.3647  0.1583 -0.0873
  280MOL0     C36851  10.358   3.550   6.599  0.6513 -1.2273  1.0710
  280MOL0     O36852  10.247   3.496   6.669 -0.4836  0.0091 -0.4666
  280MOL0     C36853  10.283   3.414   6.771  0.4224 -0.4764  0.0502
  280MOL0     C36854  10.174   3.337   6.826  0.2976 -0.2960  0.9365
  280MOL0     C36855  10.185   3.239   6.930  0.3520  0.5605 -0.2810
  280MOL0     C36856  10.303   3.243   7.005  0.6105  0.1061  0.2684
  280MOL0     C36857  10.334   3.152   7.118 -0.7027  0.5169  0.0636
  280MOL0     O36858  10.237   3.118   7.200 -0.1936 -0.6249  0.2505
  280MOL0     C36859  10.268   3.022   7.285 -0.7108 -0.2458 -0.0561
  280MOL0     C36860  10.233   2.896   7.253  0.0752  0.0673  0.2586
  280MOL0     C36861  10.254   2.784   7.341 -0.3646 -0.3406 -0.4176
  280MOL0     C36862  10.330   2.813   7.459 -0.1369  0.3982  0.2750
  280MOL0     O36863  10.356   2.721   7.563 -1.3506  0.2961 -0.6625
  280MOL0     C36864  10.347   2.574   7.547  0.2238 -0.5454 -0.3279
  280MOL0     C36865  10.369   2.507   7.678  0.5140 -0.4680  0.5800
  280MOL0     C36866  10.318   2.365   7.688 -0.5292  0.6992  0.6704
  280MOL0     C36867  10.370   2.301   7.813  0.3288  0.0050  0.9666
  280MOL0     C36868  10.286   2.181   7.880 -0.3280 -0.5304  0.0214
  280MOL0     C36869  10.174   2.219   7.980  0.1192 -0.4582 -0.1022
  280MOL0     C36870  10.051   2.278   7.903 -0.1470  0.2330  0.1529
  280MOL0     C36871   9.920   2.301   7.982  0.3829 -0.1615 -0.3259
  280MOL0    Cl36872   9.959   2.415   8.116 -0.5833  0.5810  0.2129
  280MOL0     C36873  10.360   2.948   7.492  0.7459  0.7666 -0.1041
  280MOL0     C36874  10.343   3.051   7.404  0.9550  0.2585 -0.0717
  280MOL0     O36875  10.443   3.101   7.113 -0.1251  0.1009 -0.6287
  280MOL0     C36876  10.412   3.321   6.961  0.0833 -0.3772  0.6766
  280MOL0     C36877  10.400   3.392   6.839 -0.6676 -0.9860 -1.1095
  280MOL0     N36878  10.183   3.667   6.069  0.7467 -0.3420 -0.1158
  280MOL0     N36879  10.196   3.784   6.012  0.0243  0.4533  0.0723
  280MOL0     C36880  10.181   5.015   5.932  0.3403 -0.6429 -0.2847
  280MOL0     C36881  10.259   5.060   5.825  0.6299 -0.4054 -0.4507
  280MOL0     C36882  10.458   5.330   5.541 -0.3548  0.5626  0.8420
  280MOL0     C36883  10.424   5.312   5.405 -0.5922  0.3024 -0.7947
  280MOL0     C36884  10.500   5.361   5.306 -0.7660 -0.6118 -0.9129
  280MOL0     C36885  10.618   5.438   5.329  0.5874 -0.5539  0.0508
  280MOL0     O36886  10.704   5.502   5.235  0.7365  0.0613  0.7947
  280MOL0     C36887  10.705   5.453   5.096  0.2146  0.0428  0.0431
  280MOL0     C36888  10.795   5.557   5.014 -0.7749 -0.0265  0.0549
  280MOL0     C36889  10.804   5.516   4.874 -0.1023  0.4718 -0.1114
  280MOL0     C36890  10.677   5.556   4.801 -1.4592  0.9325 -0.6495
  280MOL0     C36891  10.671   5.696   4.763 -0.3139 -0.0174  0.3652
  280MOL0     C36892  10.675   5.807   4.738  0.6276  0.2297  0.6748
  280MOL0     C36893  10.647   5.466   5.463  0.0715  0.0671 -0.0899
  280MOL0     C36894  10.577   5.410   5.564  0.5525 -0.1877  0.0182
  280MOL0     H36895  10.034   5.270   5.695  0.7268 -0.3578 -0.7361
  280MOL0     H36896   9.886   5.139   5.866  1.0155  1.5909  0.4442
  280MOL0     H36897   9.926   4.797   5.912 -0.3749 -0.6431  1.1277
  280MOL0     H36898   9.842   4.821   6.060 -1.6063  4.1174 -0.6318
  280MOL0     H36899  10.090   4.781   6.152  1.3261  0.6388 -0.4416
  280MOL0     H36900  10.123   4.726   5.990  0.1772  0.4507  0.4685
  280MOL0     H36901   9.904   4.561   6.019 -3.2779  0.2124  3.3919
  280MOL0     H36902   9.929   4.613   6.185  1.0528 -1.5156 -0.6929
  280MOL0     H36903  10.157   4.493   6.002 -1.7628 -2.0035 -0.9673
  280MOL0     H36904  10.162   4.523   6.183 -1.2162 -0.5368  0.0027
  280MOL0     H36905   9.997   4.322   6.022  0.3484 -0.6561 -0.1532
  280MOL0     H36906   9.971   4.356   6.194 -1.4446 -0.9998 -0.7349
  280MOL0     H36907  10.181   4.275   6.267 -2.7622 -1.8751  0.7554
  280MOL0     H36908  10.236   4.284   6.089 -0.3355  4.1872  0.9558
  280MOL0     H36909  10.070   4.072   6.249  1.4865  0.8534  1.9736
  280MOL0     H36910  10.029   4.099   6.083 -2.2147 -1.4799  3.5687
  280MOL0     H36911  10.308   4.024   6.145 -1.1085 -2.8855  1.4665
  280MOL0     H36912  10.213   4.047   5.996  1.3541  0.6749  0.1306
  280MOL0     H36913  10.129   3.863   6.324 -0.1225  1.3625 -0.6536
  280MOL0     H36914  10.066   3.495   6.265 -3.9493  0.8993  2.6479
  280MOL0     H36915  10.054   3.612   6.384  1.0547 -0.3887  0.7467
  280MOL0     H36916  10.317   3.499   6.294 -2.2370  1.6486 -2.1496
  280MOL0     H36917  10.218   3.424   6.430  0.4920 -1.1911 -2.2997
  280MOL0     H36918  10.400   3.672   6.424  0.1981  0.6247  0.0798
  280MOL0     H36919  10.239   3.698   6.498 -0.8053 -0.8870 -0.4126
  280MOL0     H36920  10.415   3.627   6.651  1.3446 -0.7447 -0.3470
  280MOL0     H36921  10.427   3.471   6.566  1.2773 -0.2351 -0.0927
  280MOL0     H36922  10.078   3.340   6.774  0.4268  1.3949  0.7661
  280MOL0     H36923  10.097   3.180   6.951  1.5954 -0.8699  1.2319
  280MOL0     H36924  10.185   2.864   7.161  1.3898 -1.2770  0.0209
  280MOL0     H36925  10.219   2.684   7.316 -1.1204 -0.7080  1.8478
  280MOL0     H36926  10.410   2.530   7.469  0.2723 -0.3994 -0.3717
  280MOL0     H36927  10.249   2.556   7.502  0.8012 -0.3318 -1.7167
  280MOL0     H36928  10.317   2.570   7.750 -1.8110 -0.2226 -1.2163
  280MOL0     H36929  10.477   2.498   7.695  0.3804 -1.3661  0.9987
  280MOL0     H36930  10.347   2.308   7.599 -3.1033 -1.1636  0.9004
  280MOL0     H36931  10.209   2.362   7.693 -0.5746 -1.6667 -0.4970
  280MOL0     H36932  10.470   2.260   7.795  0.6874  1.0985  0.4372
  280MOL0     H36933  10.391   2.379   7.887  0.5719 -0.6021  1.5603
  280MOL0     H36934  10.361   2.132   7.943  0.7688  1.7379  0.5949
  280MOL0     H36935  10.254   2.115   7.798  2.9257  0.2848 -2.1342
  280MOL0     H36936  10.206   2.286   8.061  3.4362  0.2097 -1.8185
  280MOL0     H36937  10.141   2.124   8.022 -0.2051  0.0475  0.8203
  280MOL0     H36938  10.099   2.374   7.881  2.5211 -1.3785 -1.5340
  280MOL0     H36939  10.028   2.230   7.807 -2.0419 -1.6629  1.4521
  280MOL0     H36940   9.894   2.203   8.024 -0.1937 -0.3927 -1.1872
  280MOL0     H36941   9.834   2.329   7.920 -0.6723 -4.7577 -1.3066
  280MOL0     H36942  10.410   2.953   7.589 -0.3092 -0.4625  0.5297
  280MOL0     H36943  10.363   3.154   7.432  1.4858 -0.1012  0.9229
  280MOL0     H36944  10.509   3.301   7.005  0.0934 -0.5852  0.5614
  280MOL0     H36945  10.492   3.446   6.818  0.1353 -0.1727  3.4452
  280MOL0     H36946  10.222   4.958   6.015  0.9837  0.1258 -0.0628
  280MOL0     H36947  10.364   5.034   5.816  0.4658 -2.3994  2.1860
  280MOL0     H36948  10.335   5.257   5.378 -0.0129 -0.1105 -1.9169
  280MOL0     H36949  10.452   5.332   5.213  0.3761 -2.3198 -1.0178
  280MOL0     H36950  10.607   5.441   5.051 -0.0843 -1.1509  0.9549
  280MOL0     H36951  10.754   5.355   5.092  0.0535  0.0041 -1.7423
  280MOL0     H36952  10.760   5.660   5.022  0.2107  0.2088  1.9242
  280MOL0     H36953  10.892   5.565   5.064 -1.1043 -1.3253  0.9688
  280MOL0     H36954  10.820   5.408   4.864 -1.6572  0.2935 -0.9846
  280MOL0     H36955  10.883   5.575   4.827  0.8235 -2.8064 -3.0810
  280MOL0     H36956  10.683   5.497   4.709  3.1662  0.2980 -0.1801
  280MOL0     H36957  10.591   5.522   4.859 -0.3084 -3.9276 -1.3140
  280MOL0     H36958  10.650   5.907   4.707 -0.0245 -0.6359 -1.8214
  280MOL0     H36959  10.732   5.532   5.472  0.3372 -0.4022  0.9861
  280MOL0     H36960  10.609   5.425   5.667 -2.5266 -1.0950  1.2387
  281MOL0     O36961   0.027   2.411   8.156 -0.1341  0.1087  0.4080
  281MOL0     C36962   0.072   2.374   8.271 -0.6105 -0.0844  0.0073
  281MOL0     O36963   0.136   2.456   8.363 -0.5707 -0.4711  0.4462
  281MOL0     C36964   0.127   2.589   8.335 -0.3850 -0.0367 -0.6257
  281MOL0     C36965   0.227   2.674   8.277  0.0637  0.5689 -0.0624
  281MOL0     C36966   0.203   2.813   8.246  0.1869  0.5684 -0.4555
  281MOL0     C36967   0.069   2.873   8.283 -0.3385  0.0271  0.0921
  281MOL0     O36968   0.067   3.006   8.262  0.1534  0.5164  0.4239
  281MOL0     C36969  -0.041   3.088   8.305  0.8246 -0.7451  0.6305
  281MOL0     C36970  -0.040   3.216   8.225 -0.0229  0.0685 -0.6001
  281MOL0     C36971  -0.148   3.306   8.265  0.2450 -0.1086 -0.5861
  281MOL0     C36972  -0.136   3.453   8.220 -0.0713 -0.4382 -0.6025
  281MOL0     C36973  -0.267   3.529   8.226 -0.2107 -0.0010  1.0437
  281MOL0     C36974  -0.343   3.527   8.356  0.0922  0.5237 -0.6794
  281MOL0     C36975  -0.441   3.643   8.372  0.4080  0.2497 -0.1156
  281MOL0     C36976  -0.564   3.642   8.277 -0.7830  0.7403  0.0996
  281MOL0     N36977  -0.645   3.767   8.265  0.2866 -0.7192  0.0311
  281MOL0     C36978  -0.634   3.893   8.325 -0.4725  0.2093  0.0493
  281MOL0     C36979  -0.741   3.964   8.271 -0.8133 -0.0281 -0.4862
  281MOL0     C36980  -0.793   4.103   8.303 -0.1077  0.3448 -0.1424
  281MOL0     C36981  -0.921   4.092   8.387  0.1072  0.2783  0.1934
  281MOL0     C36982  -1.054   4.083   8.306  0.4599  1.1975 -0.7302
  281MOL0     C36983  -1.169   4.038   8.396  0.1580  0.1154 -0.1587
  281MOL0     O36984  -1.191   4.129   8.501  0.0601 -0.3005  0.0614
  281MOL0     C36985  -1.300   4.107   8.589 -0.4040 -0.5792 -0.6480
  281MOL0     C36986  -1.381   4.000   8.577  0.4268  0.2429  0.6680
  281MOL0     C36987  -1.475   3.975   8.677 -0.6745  0.1646 -0.4180
  281MOL0     C36988  -1.504   4.061   8.780 -0.2358 -0.2238  0.0562
  281MOL0     C36989  -1.617   4.052   8.876 -0.4357  0.1506  0.1168
  281MOL0     O36990  -1.597   4.127   8.986  0.8864 -0.1400 -0.5100
  281MOL0     C36991  -1.696   4.120   9.091  1.1661 -0.3510  0.8605
  281MOL0     C36992  -1.702   4.011   9.171  0.0767 -0.9411 -0.1268
  281MOL0     C36993  -1.794   4.009   9.273 -0.2022  0.3524 -0.2015
  281MOL0     C36994  -1.887   4.109   9.298  0.2477 -0.4306 -0.4510
  281MOL0     O36995  -1.976   4.108   9.401  0.2989  0.2456  0.5255
  281MOL0     C36996  -1.950   4.041   9.523  0.2040 -0.4950  0.1494
  281MOL0     C36997  -1.846   4.111   9.610 -0.1138  0.0035 -0.0787
  281MOL0     C36998  -1.794   4.025   9.729 -0.0234  0.9492  0.5021
  281MOL0     C36999  -1.899   4.038   9.839  0.0696  0.1510  0.1287
  281MOL0     C37000  -1.855   3.970   9.973 -0.4727 -0.6197  0.0179
  281MOL0     C37001  -1.732   4.028  10.042 -0.0034  1.4349  0.3914
  281MOL0     C37002  -1.749   4.184  10.043 -0.0178  0.6414  0.0540
  281MOL0     C37003  -1.638   4.248  10.124  0.5871 -0.1930  0.1728
  281MOL0    Cl37004  -1.475   4.196  10.090 -0.3208 -0.1608 -0.2614
  281MOL0     C37005  -1.897   4.208   9.212  0.3101  0.4719 -0.4662
  281MOL0     C37006  -1.803   4.212   9.105  0.4203  1.1786  0.2304
  281MOL0     O37007  -1.712   3.982   8.856 -1.2989  0.2866 -0.3105
  281MOL0     C37008  -1.419   4.177   8.794 -0.0282  0.1652 -0.1957
  281MOL0     C37009  -1.316   4.192   8.704  0.8223 -0.5027  0.0893
  281MOL0     N37010  -0.807   3.886   8.180 -0.4993  1.4034  0.0106
  281MOL0     N37011  -0.746   3.767   8.174  0.2294  0.0766  0.5433
  281MOL0     C37012  -0.016   2.782   8.350 -0.0285 -0.2320 -0.2671
  281MOL0     C37013   0.010   2.650   8.383  0.7312  0.0850 -0.4819
  281MOL0     C37014   0.057   2.236   8.307 -1.1427 -0.8301 -0.0489
  281MOL0     C37015   0.016   2.141   8.220  0.9202 -0.5292  1.1815
  281MOL0     C37016  -0.014   2.016   8.246  0.1461 -0.4159  0.4670
  281MOL0     C37017   0.003   1.971   8.371 -1.3074  0.9008 -0.1961
  281MOL0     O37018  -0.026   1.830   8.390 -1.2860  1.0319 -0.4894
  281MOL0     C37019   0.018   1.772   8.516 -0.8359  0.0756 -0.6562
  281MOL0     C37020   0.008   1.624   8.508  0.3765 -0.1290 -0.2961
  281MOL0     C37021   0.038   1.568   8.649  0.0566 -0.4001 -0.2392
  281MOL0     C37022  -0.015   1.426   8.651 -0.0934 -0.5569 -0.2354
  281MOL0     C37023   0.080   1.338   8.582 -1.1827 -0.4797  0.9492
  281MOL0     C37024   0.148   1.254   8.519  0.0659 -0.4856 -0.0325
  281MOL0     C37025   0.046   2.062   8.467 -0.5067  0.6434  0.2596
  281MOL0     C37026   0.075   2.193   8.434 -1.3950  0.2427 -0.6465
  281MOL0     H37027   0.330   2.648   8.257 -0.0541 -0.2975  0.4252
  281MOL0     H37028   0.282   2.869   8.198  0.3341  2.1353  1.4702
  281MOL0     H37029  -0.034   3.102   8.413  0.8695 -0.7218  0.6251
  281MOL0     H37030  -0.139   3.043   8.288  0.7486 -0.7485  1.0539
  281MOL0     H37031  -0.043   3.191   8.119  0.5490  4.6684 -1.9038
  281MOL0     H37032   0.056   3.267   8.240  0.8062 -2.2585  3.4364
  281MOL0     H37033  -0.166   3.297   8.372 -1.7580  0.1305 -0.8647
  281MOL0     H37034  -0.238   3.259   8.223  2.3523 -2.8781 -2.4261
  281MOL0     H37035  -0.068   3.505   8.287 -1.7611  0.3280  0.5688
  281MOL0     H37036  -0.091   3.459   8.120  0.1463 -5.8514 -1.1234
  281MOL0     H37037  -0.322   3.493   8.139  0.1555  0.7669  0.4948
  281MOL0     H37038  -0.249   3.631   8.191  0.1446 -0.8216 -1.3527
  281MOL0     H37039  -0.272   3.529   8.439 -0.4984 -4.7532  0.2472
  281MOL0     H37040  -0.387   3.427   8.362  1.8264 -0.1873  1.2990
  281MOL0     H37041  -0.483   3.639   8.473 -1.4840  2.0912 -0.7670
  281MOL0     H37042  -0.391   3.738   8.354  2.2937 -0.4765  0.9466
  281MOL0     H37043  -0.634   3.559   8.288 -0.9461 -0.2778 -5.4558
  281MOL0     H37044  -0.517   3.621   8.181  1.0108 -0.7815  1.2421
  281MOL0     H37045  -0.560   3.911   8.403  1.8393 -2.0134 -1.4753
  281MOL0     H37046  -0.811   4.150   8.206 -3.2626 -2.4945 -1.1108
  281MOL0     H37047  -0.719   4.168   8.351  0.7572  1.1147 -2.3666
  281MOL0     H37048  -0.918   4.180   8.453  0.8252  0.9719 -0.7350
  281MOL0     H37049  -0.918   4.007   8.456 -1.7312 -1.0064 -1.2114
  281MOL0     H37050  -1.085   4.176   8.258  2.2723  0.9826 -2.4908
  281MOL0     H37051  -1.044   4.007   8.228 -3.0071 -0.5231  0.2898
  281MOL0     H37052  -1.153   3.941   8.444  2.9170  2.2730  3.8683
  281MOL0     H37053  -1.253   4.036   8.326  0.7687 -1.7273 -0.9186
  281MOL0     H37054  -1.385   3.925   8.498  3.4714  0.8551 -0.1971
  281MOL0     H37055  -1.538   3.890   8.652  2.5407 -2.3647 -0.5343
  281MOL0     H37056  -1.619   3.940   9.167  1.6957  0.8654  0.0356
  281MOL0     H37057  -1.790   3.923   9.340 -3.0867 -0.9650 -1.5628
  281MOL0     H37058  -1.915   3.939   9.504  1.0936  0.0101 -0.9652
  281MOL0     H37059  -2.035   4.024   9.591  0.7839 -2.7122  0.4000
  281MOL0     H37060  -1.893   4.202   9.647  0.6350  0.2225  0.3569
  281MOL0     H37061  -1.757   4.136   9.552  1.5695 -2.8654  1.0127
  281MOL0     H37062  -1.701   4.071   9.763 -0.2343  1.6324  0.1658
  281MOL0     H37063  -1.783   3.919   9.705 -1.8736  0.6702  0.7286
  281MOL0     H37064  -1.931   4.142   9.851  0.4221  0.1953  0.7352
  281MOL0     H37065  -1.993   3.992   9.806  0.7373 -1.1477  0.0158
  281MOL0     H37066  -1.850   3.863   9.952 -1.6354 -0.6679 -0.1087
  281MOL0     H37067  -1.938   3.995  10.040 -0.1130  0.5261  0.0621
  281MOL0     H37068  -1.646   3.980   9.996 -2.8420 -2.8150 -1.0981
  281MOL0     H37069  -1.743   3.994  10.146 -3.9584 -2.9290 -1.1266
  281MOL0     H37070  -1.748   4.226   9.942  2.3328  2.8547  0.8589
  281MOL0     H37071  -1.846   4.207  10.088 -0.8338 -0.6119 -0.9865
  281MOL0     H37072  -1.653   4.223  10.229 -0.0501 -1.7368 -0.2620
  281MOL0     H37073  -1.646   4.357  10.112  0.0604 -0.4272 -2.0907
  281MOL0     H37074  -1.984   4.273   9.221 -2.4117 -2.8327 -0.8483
  281MOL0     H37075  -1.813   4.290   9.031  2.4511 -0.1858 -1.6030
  281MOL0     H37076  -1.435   4.246   8.876 -2.0945  0.6550 -0.9580
  281MOL0     H37077  -1.251   4.276   8.723 -0.2086  0.9692 -2.4256
  281MOL0     H37078  -0.104   2.826   8.396  0.5156  0.2028  0.3809
  281MOL0     H37079  -0.056   2.594   8.449  1.4448 -1.1987 -0.8237
  281MOL0     H37080   0.016   2.180   8.119 -0.6778 -1.3111  0.8383
  281MOL0     H37081  -0.043   1.957   8.160 -0.4953 -0.2033  0.5302
  281MOL0     H37082  -0.038   1.814   8.599 -1.1467 -3.3415  1.0277
  281MOL0     H37083   0.124   1.793   8.529 -0.9534  2.4919 -2.7965
  281MOL0     H37084  -0.093   1.598   8.475 -0.1940 -1.3526  2.2026
  281MOL0     H37085   0.078   1.584   8.434  0.1806 -1.3922  0.1694
  281MOL0     H37086  -0.013   1.626   8.727  0.0544  2.2925 -2.0975
  281MOL0     H37087   0.142   1.573   8.681 -0.1866 -1.1051  0.7233
  281MOL0     H37088  -0.024   1.397   8.756 -3.5348  0.1963 -0.2032
  281MOL0     H37089  -0.114   1.413   8.606  0.7044 -0.8379 -1.9826
  281MOL0     H37090   0.207   1.180   8.469  0.5764 -0.5615  0.6724
  281MOL0     H37091   0.075   2.027   8.565  0.6343 -1.1567 -0.6654
  281MOL0     H37092   0.105   2.253   8.520 -2.2396  0.5210 -0.5317
  282MOL0     O37093   6.580   5.454   8.033 -0.2314  0.0438 -0.2153
  282MOL0     C37094   6.457   5.451   8.010  0.5821  0.6820  0.9591
  282MOL0     O37095   6.366   5.387   8.091 -0.2802 -0.1022  0.3197
  282MOL0     C37096   6.401   5.312   8.195  0.5036 -0.1422 -0.4043
  282MOL0     C37097   6.497   5.326   8.297  0.9209 -0.3744 -0.4320
  282MOL0     C37098   6.516   5.230   8.398 -1.2768 -0.5458  0.8130
  282MOL0     C37099   6.452   5.111   8.394 -0.2593  0.2850 -0.4671
  282MOL0     O37100   6.474   5.014   8.494  0.2174  0.1860  0.4579
  282MOL0     C37101   6.494   5.050   8.633 -0.8043 -0.4785  1.0261
  282MOL0     C37102   6.480   4.913   8.709  0.0578 -0.5275  0.9918
  282MOL0     C37103   6.340   4.865   8.732  0.5224  0.5610  0.0644
  282MOL0     C37104   6.265   4.809   8.608 -0.6296 -0.1505  0.4072
  282MOL0     C37105   6.157   4.703   8.632 -0.2616  1.0718 -0.2193
  282MOL0     C37106   6.122   4.611   8.518 -0.0294 -0.4290  0.5578
  282MOL0     C37107   6.248   4.540   8.451 -0.1773 -0.3165 -0.6193
  282MOL0     C37108   6.221   4.391   8.434 -0.2749  0.4832  0.0534
  282MOL0     N37109   6.344   4.311   8.382  0.8107  0.3601  0.2098
  282MOL0     C37110   6.444   4.249   8.456  0.0692 -1.3085 -0.1529
  282MOL0     C37111   6.513   4.162   8.378  0.5885 -0.9648 -0.2819
  282MOL0     C37112   6.620   4.070   8.425 -0.0307 -0.1366 -0.6211
  282MOL0     C37113   6.575   3.989   8.548  0.0874  0.2298  0.6081
  282MOL0     C37114   6.672   3.875   8.597 -0.7009 -0.2167  0.0266
  282MOL0     C37115   6.750   3.793   8.491  0.1204 -0.2355  0.6930
  282MOL0     O37116   6.831   3.691   8.560  0.4201  0.9925 -0.0404
  282MOL0     C37117   6.966   3.689   8.550 -0.1035 -0.9115  0.1918
  282MOL0     C37118   7.056   3.767   8.471  0.0995 -0.3887 -0.5723
  282MOL0     C37119   7.188   3.751   8.476  0.0052 -0.6804 -0.1950
  282MOL0     C37120   7.244   3.641   8.560 -0.6219  0.9366 -0.2509
  282MOL0     C37121   7.390   3.611   8.579  1.7515  0.0325  0.5020
  282MOL0     O37122   7.470   3.699   8.512  0.5399 -0.1023 -0.4796
  282MOL0     C37123   7.611   3.702   8.521 -0.5458  0.0359 -0.2375
  282MOL0     C37124   7.680   3.787   8.432 -0.8000 -0.0742  1.0596
  282MOL0     C37125   7.817   3.789   8.431  0.9963 -0.1893 -0.3562
  282MOL0     C37126   7.889   3.701   8.520  0.0334  0.3245 -0.2431
  282MOL0     O37127   8.021   3.714   8.532 -0.2710 -0.0994  0.1141
  282MOL0     C37128   8.096   3.609   8.465  0.4669 -0.2856  0.5862
  282MOL0     C37129   8.230   3.660   8.429 -0.5941  0.4349  0.4232
  282MOL0     C37130   8.326   3.558   8.351 -1.1658 -0.6268 -0.5079
  282MOL0     C37131   8.277   3.502   8.209  0.1932  0.3081 -1.2366
  282MOL0     C37132   8.378   3.397   8.155  0.5866 -0.5986  0.5309
  282MOL0     C37133   8.421   3.282   8.247  0.1782 -0.1838 -1.4028
  282MOL0     C37134   8.465   3.164   8.159  0.5594  0.0880 -0.5948
  282MOL0     C37135   8.541   3.068   8.242  0.3128 -0.2201  0.3506
  282MOL0    Cl37136   8.559   2.916   8.151  0.2114  0.0962 -0.1387
  282MOL0     C37137   7.827   3.621   8.608 -0.4633  0.1038  0.6928
  282MOL0     C37138   7.686   3.631   8.610 -0.6216  0.7574 -0.7897
  282MOL0     O37139   7.424   3.512   8.634 -0.0822  0.2469 -0.0332
  282MOL0     C37140   7.158   3.558   8.629 -0.0040 -0.5566 -0.1425
  282MOL0     C37141   7.024   3.586   8.615 -0.8598 -0.2235  0.0594
  282MOL0     N37142   6.451   4.175   8.257  1.1784  0.5536  0.5273
  282MOL0     N37143   6.349   4.251   8.256  0.4503  0.7751  0.0452
  282MOL0     C37144   6.361   5.088   8.284  0.3188 -0.0393 -0.3571
  282MOL0     C37145   6.335   5.190   8.189  1.1019 -0.4816 -0.3527
  282MOL0     C37146   6.411   5.521   7.891  0.1687 -0.4448  0.0023
  282MOL0     C37147   6.275   5.550   7.875  0.3454 -0.0602  0.3967
  282MOL0     C37148   6.227   5.634   7.767  1.2060 -0.5225 -0.3980
  282MOL0     C37149   6.313   5.678   7.676  0.3398 -0.5882  0.9860
  282MOL0     O37150   6.269   5.747   7.559  0.2878  0.6014 -0.2247
  282MOL0     C37151   6.352   5.744   7.442  0.0986 -0.4647  0.0094
  282MOL0     C37152   6.273   5.786   7.313 -0.3358  0.9297 -0.0230
  282MOL0     C37153   6.225   5.654   7.239 -0.6406 -0.5536 -0.3195
  282MOL0     C37154   6.115   5.674   7.146  0.2765 -0.5203  0.4139
  282MOL0     C37155   6.157   5.724   7.018  0.9044  0.2723  0.4938
  282MOL0     C37156   6.199   5.747   6.905 -0.7179  0.4322  0.5782
  282MOL0     C37157   6.445   5.653   7.695 -0.6988 -0.0537 -0.0630
  282MOL0     C37158   6.500   5.593   7.806 -0.5081  0.3448 -0.8108
  282MOL0     H37159   6.554   5.418   8.305  1.8604 -0.5700 -3.5089
  282MOL0     H37160   6.586   5.249   8.479 -1.3040  0.4084  0.6307
  282MOL0     H37161   6.416   5.116   8.671 -3.7848 -4.3357  2.3736
  282MOL0     H37162   6.595   5.091   8.637 -0.5146 -1.1690  1.0513
  282MOL0     H37163   6.524   4.915   8.809 -0.3702 -0.2469  1.1768
  282MOL0     H37164   6.542   4.841   8.655  1.7383  1.2272  0.4258
  282MOL0     H37165   6.275   4.945   8.770  1.2420  1.1562  0.0703
  282MOL0     H37166   6.363   4.792   8.810  0.7403  1.0448  0.4640
  282MOL0     H37167   6.212   4.891   8.558  1.0699  1.0600  0.5090
  282MOL0     H37168   6.345   4.781   8.538  0.1299  1.6111  0.5153
  282MOL0     H37169   6.062   4.753   8.650 -2.0664 -0.5965 -4.0018
  282MOL0     H37170   6.185   4.653   8.725 -0.8776  0.0584 -0.5682
  282MOL0     H37171   6.074   4.679   8.447  1.1447  0.1191  0.2614
  282MOL0     H37172   6.048   4.553   8.574 -0.2984  1.1269  1.9150
  282MOL0     H37173   6.274   4.585   8.355 -1.1123  1.6093 -0.0286
  282MOL0     H37174   6.337   4.557   8.512 -0.9896  2.7639 -0.1219
  282MOL0     H37175   6.135   4.383   8.367 -0.4476 -1.8189  0.4411
  282MOL0     H37176   6.182   4.347   8.527  0.4196 -1.6028 -0.5693
  282MOL0     H37177   6.453   4.267   8.563  0.0237 -4.1430  0.4085
  282MOL0     H37178   6.716   4.121   8.437 -0.2985  1.0875 -3.0676
  282MOL0     H37179   6.645   4.000   8.344 -2.4010  0.4435 -1.9353
  282MOL0     H37180   6.480   3.941   8.525 -0.0206  0.5967  0.2786
  282MOL0     H37181   6.557   4.052   8.635  0.8381  1.4011 -0.0548
  282MOL0     H37182   6.754   3.919   8.655 -0.9352 -0.1552  0.3153
  282MOL0     H37183   6.617   3.814   8.669 -2.6272 -1.6808 -2.4986
  282MOL0     H37184   6.794   3.863   8.420  0.2011 -1.0259 -0.0509
  282MOL0     H37185   6.682   3.741   8.423  1.0964  1.3929 -1.6266
  282MOL0     H37186   7.019   3.834   8.394 -0.9540  0.6855  0.8236
  282MOL0     H37187   7.250   3.821   8.421  0.5953 -2.1003 -1.4088
  282MOL0     H37188   7.639   3.856   8.360 -2.2733 -1.3674  0.5986
  282MOL0     H37189   7.880   3.858   8.375  0.2697  0.7891  0.0217
  282MOL0     H37190   8.050   3.567   8.375 -0.1025  0.1208  0.6852
  282MOL0     H37191   8.111   3.531   8.540  1.0900  0.7060  1.5265
  282MOL0     H37192   8.278   3.689   8.523  2.0953 -2.8949  0.2818
  282MOL0     H37193   8.214   3.750   8.369 -1.4047  1.3952  2.0158
  282MOL0     H37194   8.351   3.473   8.415 -1.1572  1.4652  2.4398
  282MOL0     H37195   8.408   3.622   8.318 -0.7480 -1.0482 -0.2858
  282MOL0     H37196   8.174   3.466   8.218 -0.1101  1.4530  0.3727
  282MOL0     H37197   8.267   3.576   8.128  1.0753 -0.2964 -1.9215
  282MOL0     H37198   8.461   3.435   8.095 -1.6594  0.5509 -2.1000
  282MOL0     H37199   8.316   3.352   8.076 -0.7809 -1.0212  1.8065
  282MOL0     H37200   8.341   3.246   8.312  1.5649  0.0317  0.5094
  282MOL0     H37201   8.493   3.308   8.325 -1.6526 -0.0519  0.3191
  282MOL0     H37202   8.367   3.128   8.127  1.1735 -0.2619 -2.2161
  282MOL0     H37203   8.508   3.205   8.067  1.2574  4.5414  1.4481
  282MOL0     H37204   8.494   3.048   8.339 -1.0743  1.8973  0.1740
  282MOL0     H37205   8.641   3.111   8.253  0.6733 -1.4261  2.2618
  282MOL0     H37206   7.876   3.565   8.687 -1.2800 -1.2122  0.2913
  282MOL0     H37207   7.640   3.581   8.695 -0.5352 -0.0965 -1.2334
  282MOL0     H37208   7.189   3.463   8.673 -0.4026  0.4217  2.4243
  282MOL0     H37209   6.941   3.529   8.657 -1.2143  0.9258  0.9824
  282MOL0     H37210   6.308   4.993   8.277 -0.5704  0.4122  0.1958
  282MOL0     H37211   6.259   5.179   8.112 -0.2547 -1.0707  1.0031
  282MOL0     H37212   6.200   5.518   7.947 -0.7434  1.9223  0.2308
  282MOL0     H37213   6.121   5.657   7.771  1.3330  1.0456 -3.1510
  282MOL0     H37214   6.393   5.643   7.431 -3.7859 -2.4902  1.9943
  282MOL0     H37215   6.434   5.815   7.450 -0.0564 -0.3402  0.5032
  282MOL0     H37216   6.195   5.856   7.344 -1.2027  0.4719 -1.0884
  282MOL0     H37217   6.327   5.855   7.246 -2.1682  0.2305 -2.3590
  282MOL0     H37218   6.183   5.593   7.319 -2.0472  2.9535  1.8739
  282MOL0     H37219   6.306   5.592   7.200 -0.8834 -3.1596  2.9014
  282MOL0     H37220   6.069   5.581   7.111  0.3730  1.0063 -4.5572
  282MOL0     H37221   6.035   5.739   7.181  1.4630  2.2022 -1.6030
  282MOL0     H37222   6.227   5.769   6.803 -3.8912  0.9869 -0.2630
  282MOL0     H37223   6.520   5.697   7.631 -0.6809  1.4122  0.9105
  282MOL0     H37224   6.607   5.579   7.819 -1.3584 -5.0066  3.9149
  283MOL0     O37225   0.839   0.173   3.010  0.3145  0.2733 -0.4976
  283MOL0     C37226   0.742   0.111   2.978 -0.6756  0.7762  1.1109
  283MOL0     O37227   0.622   0.113   3.032 -0.4114 -0.0913  0.7669
  283MOL0     C37228   0.602   0.194   3.142 -0.3011 -0.3609 -0.5371
  283MOL0     C37229   0.538   0.144   3.249  0.5067  0.1067  0.8518
  283MOL0     C37230   0.528   0.215   3.373 -0.2232 -0.9550 -0.0693
  283MOL0     C37231   0.585   0.341   3.386 -0.6921 -0.3530  0.0462
  283MOL0     O37232   0.579   0.426   3.496 -0.3792 -0.9004 -0.2040
  283MOL0     C37233   0.477   0.420   3.596  0.0391  1.4876 -0.4801
  283MOL0     C37234   0.522   0.497   3.725  0.7201  0.4298  0.4207
  283MOL0     C37235   0.497   0.639   3.688  0.1000 -0.3493 -0.0646
  283MOL0     C37236   0.350   0.680   3.685  0.0435 -0.8539  0.4932
  283MOL0     C37237   0.335   0.839   3.684 -0.9480  0.3840 -0.5330
  283MOL0     C37238   0.376   0.901   3.545  0.3052 -0.4176 -0.1286
  283MOL0     C37239   0.349   1.057   3.538 -0.5963 -0.7454  1.5950
  283MOL0     C37240   0.479   1.137   3.566 -0.4102  0.0428  0.8456
  283MOL0     N37241   0.458   1.278   3.572  0.6270 -0.0602  0.4985
  283MOL0     C37242   0.413   1.355   3.467  1.1260 -0.8849  1.1519
  283MOL0     C37243   0.380   1.474   3.519  0.1831 -0.0392  0.3403
  283MOL0     C37244   0.318   1.599   3.465  1.5683  0.5283  0.6004
  283MOL0     C37245   0.160   1.588   3.478 -1.6870 -0.0109  0.5052
  283MOL0     C37246   0.073   1.683   3.398 -0.1866 -0.6547  0.2858
  283MOL0     C37247   0.093   1.829   3.439 -0.7105 -1.0346 -0.0338
  283MOL0     O37248   0.033   1.845   3.566  0.2568  0.0539  0.1989
  283MOL0     C37249   0.088   1.931   3.659  0.0210  0.6186 -0.1000
  283MOL0     C37250   0.211   1.902   3.738 -0.0116  0.2733  0.6242
  283MOL0     C37251   0.253   2.002   3.836 -0.2972 -0.1153  0.8620
  283MOL0     C37252   0.174   2.108   3.870  0.9089 -1.0084 -1.0759
  283MOL0     C37253   0.214   2.216   3.965  0.6921  0.1779  1.0903
  283MOL0     O37254   0.133   2.336   3.977 -0.1716  0.1750 -0.4090
  283MOL0     C37255   0.170   2.419   4.083  0.2231  0.9326 -0.8900
  283MOL0     C37256   0.206   2.371   4.215  0.6300 -0.5578 -0.3548
  283MOL0     C37257   0.237   2.464   4.311 -0.3834 -0.5393  0.2362
  283MOL0     C37258   0.231   2.601   4.282  0.0908  0.0804  1.2548
  283MOL0     O37259   0.267   2.695   4.376 -0.9322  0.1412 -0.2248
  283MOL0     C37260   0.192   2.690   4.491 -0.6500 -1.6313 -0.2609
  283MOL0     C37261   0.198   2.831   4.570 -0.7947 -0.1987 -0.6139
  283MOL0     C37262   0.091   2.839   4.680  0.6000 -0.3241 -0.1720
  283MOL0     C37263   0.077   2.983   4.743  0.1908  0.0818 -0.2434
  283MOL0     C37264  -0.035   2.989   4.842  0.7442  0.4906  0.0675
  283MOL0     C37265  -0.073   3.137   4.878 -0.5303  0.8500  0.8759
  283MOL0     C37266  -0.208   3.145   4.949  0.0233 -0.3024 -0.0238
  283MOL0     C37267  -0.248   3.294   4.980 -0.9735  0.0607  0.1100
  283MOL0    Cl37268  -0.416   3.297   5.028 -0.2194 -0.2718  0.2880
  283MOL0     C37269   0.185   2.642   4.155 -0.3192 -0.5278 -0.1308
  283MOL0     C37270   0.151   2.551   4.059  0.2927  0.2033  0.1830
  283MOL0     O37271   0.314   2.183   4.022 -0.1617 -0.9877 -0.2488
  283MOL0     C37272   0.047   2.111   3.819  0.3092  0.3768  0.3223
  283MOL0     C37273   0.005   2.028   3.710  0.4212  0.9526 -0.0099
  283MOL0     N37274   0.397   1.465   3.660  0.1553 -0.1893  0.6406
  283MOL0     N37275   0.450   1.347   3.689 -0.0933  0.3432  0.8004
  283MOL0     C37276   0.652   0.394   3.277  1.4012  0.0747  0.2544
  283MOL0     C37277   0.654   0.330   3.152 -0.1637  0.1212 -0.0006
  283MOL0     C37278   0.755   0.033   2.847  0.3762 -0.4478 -0.0399
  283MOL0     C37279   0.881   0.019   2.787 -0.2840 -0.1477 -0.8383
  283MOL0     C37280   0.889  -0.062   2.672  0.2075  1.3961 -0.5468
  283MOL0     C37281   0.779  -0.126   2.623 -0.2151  1.1995 -0.7289
  283MOL0     O37282   0.794  -0.217   2.527  0.7053 -0.0399  0.4457
  283MOL0     C37283   0.792  -0.359   2.571  0.0787  0.4589 -0.0480
  283MOL0     C37284   0.884  -0.456   2.473 -0.0509  0.1850 -0.8979
  283MOL0     C37285   1.029  -0.409   2.466 -0.7085  0.1656  0.4803
  283MOL0     C37286   1.090  -0.450   2.333 -0.2719 -1.0917 -0.4483
  283MOL0     C37287   1.115  -0.593   2.321  0.0310 -0.8080 -0.4037
  283MOL0     C37288   1.113  -0.707   2.297 -0.5082  0.0149 -0.8470
  283MOL0     C37289   0.653  -0.110   2.686 -0.3613  0.2387  0.0463
  283MOL0     C37290   0.641  -0.027   2.789 -0.4947 -0.5718 -0.4479
  283MOL0     H37291   0.499   0.043   3.257  0.0299  0.0890 -1.1098
  283MOL0     H37292   0.472   0.157   3.445 -0.7085 -0.6765 -0.2150
  283MOL0     H37293   0.476   0.313   3.621  1.2968  1.3039 -1.1426
  283MOL0     H37294   0.375   0.441   3.565 -0.6837  0.6113  1.1353
  283MOL0     H37295   0.625   0.461   3.737  1.3273 -0.0829 -4.2582
  283MOL0     H37296   0.460   0.474   3.812 -0.7392 -0.3494 -0.7861
  283MOL0     H37297   0.549   0.661   3.594  0.6822  0.9412  0.5409
  283MOL0     H37298   0.534   0.705   3.767 -0.2607  0.7864 -0.8169
  283MOL0     H37299   0.307   0.639   3.593  2.8394 -3.3011  0.1282
  283MOL0     H37300   0.289   0.646   3.769 -0.3480 -1.1734  0.0808
  283MOL0     H37301   0.388   0.886   3.767 -0.4358 -0.9974 -0.0414
  283MOL0     H37302   0.229   0.853   3.706 -1.1835 -1.9877  0.1006
  283MOL0     H37303   0.313   0.857   3.468 -0.3283  3.2691 -1.9291
  283MOL0     H37304   0.478   0.872   3.516  1.2688  2.5559 -0.0094
  283MOL0     H37305   0.314   1.071   3.435 -0.4951 -3.8900  1.0218
  283MOL0     H37306   0.276   1.089   3.613  0.0071  0.3176  1.7511
  283MOL0     H37307   0.545   1.122   3.480 -1.5787 -0.7562  0.0555
  283MOL0     H37308   0.525   1.106   3.661 -0.7952 -0.1586  0.9678
  283MOL0     H37309   0.390   1.334   3.363 -2.9631 -1.7009  2.0186
  283MOL0     H37310   0.332   1.600   3.357 -2.7454 -0.8519 -0.1828
  283MOL0     H37311   0.361   1.686   3.516 -2.4766  1.6473  2.4892
  283MOL0     H37312   0.132   1.603   3.582  0.6252 -2.3272  1.5695
  283MOL0     H37313   0.135   1.486   3.448  0.0543  0.1536 -1.8486
  283MOL0     H37314   0.096   1.663   3.293 -0.3856 -0.1718  0.1488
  283MOL0     H37315  -0.027   1.644   3.420  0.6757 -2.0217  2.1170
  283MOL0     H37316   0.044   1.902   3.373 -1.7641 -2.5404 -0.9834
  283MOL0     H37317   0.197   1.860   3.451 -0.5263 -1.5653 -0.2533
  283MOL0     H37318   0.258   1.805   3.723  0.1362  0.8064 -3.7342
  283MOL0     H37319   0.339   1.969   3.894 -0.0112 -2.3417 -0.7134
  283MOL0     H37320   0.210   2.263   4.231  2.3516 -0.4650 -0.0417
  283MOL0     H37321   0.274   2.436   4.409  0.2132  1.6278  0.6868
  283MOL0     H37322   0.217   2.609   4.559 -1.9174 -0.9556  1.0612
  283MOL0     H37323   0.087   2.686   4.460 -1.5699  1.7381  1.8577
  283MOL0     H37324   0.181   2.912   4.499 -1.1582  0.5106  0.2473
  283MOL0     H37325   0.297   2.849   4.612 -0.8420  1.0721 -1.0233
  283MOL0     H37326   0.125   2.779   4.765  2.0155 -0.1915 -0.6202
  283MOL0     H37327  -0.007   2.798   4.652  1.9416 -4.6523  0.6417
  283MOL0     H37328   0.167   3.011   4.797  1.0241 -2.1794 -0.3659
  283MOL0     H37329   0.044   3.057   4.669 -0.7610  1.1392  1.1738
  283MOL0     H37330  -0.010   2.936   4.934 -1.2833 -1.0680 -0.2157
  283MOL0     H37331  -0.126   2.939   4.808 -0.5111 -1.0318  4.9015
  283MOL0     H37332  -0.075   3.199   4.788  0.4979  3.8554  2.7507
  283MOL0     H37333   0.003   3.167   4.952 -2.1990  2.1526  2.1560
  283MOL0     H37334  -0.279   3.090   4.886  1.5011 -2.1227 -0.1890
  283MOL0     H37335  -0.202   3.093   5.044 -1.6703  3.1858  2.1907
  283MOL0     H37336  -0.234   3.364   4.897 -2.7652  0.5858  0.2076
  283MOL0     H37337  -0.192   3.344   5.060 -1.3534  1.8376 -0.6906
  283MOL0     H37338   0.174   2.749   4.141  3.8476  0.4642  2.3861
  283MOL0     H37339   0.118   2.586   3.961  0.6733 -0.0678 -0.0423
  283MOL0     H37340  -0.024   2.188   3.848 -0.3971  0.2458 -0.9818
  283MOL0     H37341  -0.090   2.040   3.657 -0.6266 -0.2980  1.4998
  283MOL0     H37342   0.710   0.485   3.283  4.6106 -1.8818  1.3127
  283MOL0     H37343   0.697   0.373   3.063 -1.9638  0.1235 -0.9096
  283MOL0     H37344   0.967   0.073   2.827 -0.2001 -0.4414 -0.6214
  283MOL0     H37345   0.991  -0.075   2.637  0.2227  2.3206 -0.8584
  283MOL0     H37346   0.692  -0.402   2.564  1.5478 -3.1248 -5.1144
  283MOL0     H37347   0.835  -0.351   2.672 -0.5138  5.5688  0.0332
  283MOL0     H37348   0.886  -0.552   2.524 -1.0889  0.2464 -0.7263
  283MOL0     H37349   0.836  -0.472   2.376  1.7113 -1.4095 -1.5651
  283MOL0     H37350   1.079  -0.446   2.556 -3.5035  2.6017  3.2688
  283MOL0     H37351   1.031  -0.301   2.480 -1.5328  0.1560  0.7217
  283MOL0     H37352   1.010  -0.417   2.265 -0.9713  0.1733  0.9212
  283MOL0     H37353   1.181  -0.392   2.313 -2.0311  1.5466 -1.3557
  283MOL0     H37354   1.130  -0.812   2.286  0.2778 -0.3294  2.4773
  283MOL0     H37355   0.567  -0.173   2.666 -1.2456  1.8034 -1.3459
  283MOL0     H37356   0.539  -0.012   2.825  0.2839  0.8582  1.2909
  284MOL0     O37357   4.225   2.663   1.910  0.3016 -0.3839  0.1945
  284MOL0     C37358   4.228   2.759   1.836  0.6101  0.2566 -0.3899
  284MOL0     O37359   4.347   2.821   1.792  0.4068 -0.2009  0.1017
  284MOL0     C37360   4.447   2.841   1.873 -0.3908 -0.1976 -0.0694
  284MOL0     C37361   4.462   2.789   2.005  0.5831  0.1933 -0.1850
  284MOL0     C37362   4.575   2.807   2.093 -0.1578 -0.3963 -0.1354
  284MOL0     C37363   4.694   2.864   2.037  0.3690  1.3009  0.5111
  284MOL0     O37364   4.806   2.862   2.112  0.0162 -0.2297 -0.0965
  284MOL0     C37365   4.914   2.952   2.077 -0.0426  0.1998  0.6519
  284MOL0     C37366   5.007   2.971   2.194  0.9743  0.3393 -0.3459
  284MOL0     C37367   5.063   3.111   2.214 -0.0277  0.1078 -0.0075
  284MOL0     C37368   5.139   3.157   2.094 -0.4856  0.4436 -0.4543
  284MOL0     C37369   5.264   3.075   2.059 -0.5702  0.1487  1.2089
  284MOL0     C37370   5.287   3.098   1.906  0.1612 -0.5002 -0.8820
  284MOL0     C37371   5.401   3.022   1.840 -0.3623  0.2109 -1.5331
  284MOL0     C37372   5.351   2.901   1.777  0.0386  0.2537 -0.1529
  284MOL0     N37373   5.283   2.803   1.864  0.9176  0.4169 -0.4871
  284MOL0     C37374   5.321   2.732   1.975  0.5589  0.6904 -0.4809
  284MOL0     C37375   5.218   2.650   2.010  0.2850 -0.4895  0.4812
  284MOL0     C37376   5.209   2.562   2.129 -0.8636 -1.0593 -0.1546
  284MOL0     C37377   5.109   2.608   2.230 -0.6685 -0.2656  0.1602
  284MOL0     C37378   5.068   2.511   2.340  0.8281  0.2548  0.7572
  284MOL0     C37379   4.930   2.561   2.384 -0.4652  0.9236  0.6609
  284MOL0     O37380   4.949   2.627   2.509  0.8011  0.0388  0.6709
  284MOL0     C37381   4.841   2.628   2.593  0.3353 -0.8666 -0.4786
  284MOL0     C37382   4.863   2.653   2.732  0.2841 -0.7171 -0.6443
  284MOL0     C37383   4.764   2.648   2.833  0.3369 -0.4103 -0.7469
  284MOL0     C37384   4.627   2.624   2.795  0.3389 -0.1849 -0.7792
  284MOL0     C37385   4.514   2.627   2.892  0.3904  0.0935  0.4447
  284MOL0     O37386   4.551   2.627   3.021 -0.3647 -0.6835 -0.5176
  284MOL0     C37387   4.449   2.601   3.107  0.2142  1.4192 -0.0295
  284MOL0     C37388   4.423   2.469   3.136  0.2793  0.1236  0.1073
  284MOL0     C37389   4.298   2.428   3.177 -0.3100  0.9646  0.7501
  284MOL0     C37390   4.198   2.516   3.211  0.8064 -0.5507 -0.3009
  284MOL0     O37391   4.073   2.474   3.240  0.3397  0.2169  0.7171
  284MOL0     C37392   3.959   2.515   3.171  0.2724  0.4193 -0.4775
  284MOL0     C37393   3.829   2.448   3.220  0.4586  0.3795 -0.3232
  284MOL0     C37394   3.819   2.448   3.374  0.4264  0.6233  0.0887
  284MOL0     C37395   3.683   2.401   3.418 -0.4674 -0.5710 -0.4436
  284MOL0     C37396   3.587   2.525   3.406  0.4927  0.3889  0.5833
  284MOL0     C37397   3.439   2.493   3.451 -0.4666  0.3282  0.7849
  284MOL0     C37398   3.340   2.595   3.403  0.1437  0.6620 -0.4046
  284MOL0     C37399   3.200   2.576   3.430  1.0010  0.5351 -0.7825
  284MOL0    Cl37400   3.167   2.613   3.601 -0.0954  0.1956  0.2318
  284MOL0     C37401   4.223   2.653   3.197 -0.5009  0.5214 -0.0085
  284MOL0     C37402   4.342   2.695   3.143 -0.0546  0.7272 -0.7992
  284MOL0     O37403   4.398   2.602   2.850  0.4869  0.3685  0.2220
  284MOL0     C37404   4.605   2.602   2.659  0.6475  1.0261 -0.2218
  284MOL0     C37405   4.708   2.601   2.558 -0.0336  0.0891  0.6906
  284MOL0     N37406   5.130   2.659   1.908  0.5238  1.2172  0.4917
  284MOL0     N37407   5.161   2.751   1.827  0.5704 -0.3130 -0.2075
  284MOL0     C37408   4.682   2.912   1.906 -0.8909 -0.1201  0.0861
  284MOL0     C37409   4.566   2.889   1.826 -0.3403 -0.5030  1.0589
  284MOL0     C37410   4.096   2.831   1.816  0.5194 -0.5062  1.0308
  284MOL0     C37411   3.975   2.768   1.801  0.6729  0.9794  0.4966
  284MOL0     C37412   3.850   2.828   1.793 -0.9603  0.9851  0.8459
  284MOL0     C37413   3.850   2.969   1.792  0.1965  0.4593 -0.5874
  284MOL0     O37414   3.730   3.040   1.799 -0.0406 -0.3409  0.3340
  284MOL0     C37415   3.604   2.976   1.803  0.8499 -0.8649  0.4641
  284MOL0     C37416   3.556   2.947   1.944 -0.5594 -0.2579  0.4323
  284MOL0     C37417   3.415   2.893   1.955  0.1271  0.1200 -0.7699
  284MOL0     C37418   3.417   2.747   2.011  0.3217  0.2077  0.9913
  284MOL0     C37419   3.511   2.656   1.934  0.6756 -0.6885 -0.4094
  284MOL0     C37420   3.577   2.585   1.865  0.1795 -0.1283  0.1857
  284MOL0     C37421   3.975   3.040   1.805  0.7300  0.3583 -0.4788
  284MOL0     C37422   4.096   2.974   1.828  0.6832  0.2383  0.1605
  284MOL0     H37423   4.382   2.731   2.048 -1.0443  1.7905 -0.9102
  284MOL0     H37424   4.575   2.759   2.190 -0.3792 -3.7106 -1.6444
  284MOL0     H37425   4.877   3.048   2.040  2.0662  0.1980 -1.7757
  284MOL0     H37426   4.976   2.914   1.995 -0.1085  1.7922 -0.1787
  284MOL0     H37427   5.089   2.901   2.174  2.3224  2.5539 -3.3847
  284MOL0     H37428   4.957   2.957   2.290  1.6199 -1.1634 -0.2088
  284MOL0     H37429   5.128   3.112   2.302 -1.2568 -2.0634  1.0095
  284MOL0     H37430   4.986   3.184   2.242  0.8924  0.1177  2.7505
  284MOL0     H37431   5.070   3.146   2.010 -4.6514 -2.1730  2.8224
  284MOL0     H37432   5.175   3.259   2.111 -0.9517  0.5128  0.1965
  284MOL0     H37433   5.260   2.967   2.076  0.0367 -0.1201 -0.1808
  284MOL0     H37434   5.349   3.097   2.124  1.3349 -0.6701 -0.8623
  284MOL0     H37435   5.287   3.207   1.895  2.2236 -0.2643  0.9312
  284MOL0     H37436   5.203   3.067   1.843  0.7034 -0.3127 -1.7160
  284MOL0     H37437   5.452   3.089   1.769  3.0195 -1.3642 -0.7550
  284MOL0     H37438   5.465   2.999   1.925  0.0345 -0.6997 -2.0718
  284MOL0     H37439   5.436   2.852   1.730 -0.6415  0.3129 -1.4954
  284MOL0     H37440   5.279   2.929   1.700 -2.7778  0.7772  2.4672
  284MOL0     H37441   5.418   2.724   2.023  1.8157 -0.4714 -3.0444
  284MOL0     H37442   5.311   2.547   2.168  1.7751  1.5290 -5.0489
  284MOL0     H37443   5.176   2.463   2.096 -2.0552  0.7548 -5.2261
  284MOL0     H37444   5.023   2.637   2.169  2.2168  3.8880 -2.3841
  284MOL0     H37445   5.134   2.700   2.283 -4.8667  0.4056  1.3491
  284MOL0     H37446   5.061   2.405   2.313 -0.4278  0.6761 -0.7640
  284MOL0     H37447   5.129   2.525   2.429 -3.7338  1.9171  4.0297
  284MOL0     H37448   4.874   2.470   2.410  0.1345  0.9923  2.3397
  284MOL0     H37449   4.866   2.617   2.316 -5.8200 -7.1798 -2.5216
  284MOL0     H37450   4.963   2.670   2.771 -1.1938  0.5461  3.0395
  284MOL0     H37451   4.796   2.669   2.935  2.9270  1.6154 -1.8720
  284MOL0     H37452   4.482   2.379   3.122  0.0864  0.2575 -1.9556
  284MOL0     H37453   4.284   2.323   3.152  0.5123  0.7123  1.3034
  284MOL0     H37454   3.975   2.496   3.065  2.0117 -2.8420  0.2156
  284MOL0     H37455   3.964   2.624   3.183 -1.3230  0.6056 -1.2638
  284MOL0     H37456   3.838   2.350   3.173  0.8644  2.6793 -5.9028
  284MOL0     H37457   3.736   2.483   3.174 -2.1175 -2.3927  2.2747
  284MOL0     H37458   3.847   2.541   3.425 -1.6811  2.2202 -1.4539
  284MOL0     H37459   3.893   2.377   3.411  1.5923  0.2078 -2.7949
  284MOL0     H37460   3.651   2.310   3.367 -2.9853 -1.2860  2.1504
  284MOL0     H37461   3.682   2.362   3.520 -3.4145 -2.9860 -1.2491
  284MOL0     H37462   3.586   2.553   3.301  2.1824 -3.3961 -0.6070
  284MOL0     H37463   3.622   2.605   3.473  0.8531  0.5012  0.2615
  284MOL0     H37464   3.434   2.469   3.558 -4.4312 -0.9307  0.4697
  284MOL0     H37465   3.419   2.396   3.404  1.2824  0.9057 -1.3149
  284MOL0     H37466   3.354   2.695   3.443 -0.9532 -0.6272  3.7382
  284MOL0     H37467   3.359   2.607   3.296  1.9346  1.1933 -0.0543
  284MOL0     H37468   3.178   2.470   3.416 -2.0276  0.2894  3.7515
  284MOL0     H37469   3.153   2.650   3.364 -0.0161  2.5631  1.9902
  284MOL0     H37470   4.154   2.730   3.228  2.0690  3.0895 -0.3272
  284MOL0     H37471   4.343   2.802   3.126  1.3667  0.8490 -0.1728
  284MOL0     H37472   4.505   2.599   2.617  0.6913  2.3312 -0.4657
  284MOL0     H37473   4.670   2.574   2.460 -0.5790  0.1769  0.8756
  284MOL0     H37474   4.772   2.934   1.850 -0.4649 -0.3385  0.6825
  284MOL0     H37475   4.565   2.904   1.719  1.1997 -1.8573  0.8182
  284MOL0     H37476   3.973   2.661   1.786  0.7281  1.2099 -1.4645
  284MOL0     H37477   3.755   2.774   1.791 -1.6098  2.0951  1.1413
  284MOL0     H37478   3.608   2.886   1.740  2.0890  0.2271 -1.0931
  284MOL0     H37479   3.524   3.040   1.764 -2.5948 -2.8213  3.5869
  284MOL0     H37480   3.627   2.882   1.996 -1.9572 -2.0164  0.2321
  284MOL0     H37481   3.560   3.041   2.000  4.7373  0.2692 -0.3471
  284MOL0     H37482   3.349   2.917   1.871 -1.0125  3.1512  0.8347
  284MOL0     H37483   3.362   2.952   2.030  0.8374 -0.9424  0.6009
  284MOL0     H37484   3.442   2.734   2.117  0.8774 -2.5399  0.5850
  284MOL0     H37485   3.315   2.716   1.988  0.5761  0.7665 -1.1273
  284MOL0     H37486   3.628   2.526   1.792  1.1393  3.0669 -1.9338
  284MOL0     H37487   3.974   3.148   1.817  2.3592  0.1942  1.7712
  284MOL0     H37488   4.189   3.026   1.849  0.4948  0.6240  0.0601
  285MOL0     O37489   2.151   5.875   3.504  0.3335  0.8225  0.2354
  285MOL0     C37490   2.251   5.944   3.530  0.5430 -0.7820  0.0986
  285MOL0     O37491   2.283   5.992   3.657 -0.7700 -0.2702  0.8319
  285MOL0     C37492   2.196   5.986   3.758  0.4304  0.8006 -0.1063
  285MOL0     C37493   2.075   6.051   3.747  1.0139 -0.4799  0.5280
  285MOL0     C37494   1.979   6.045   3.849 -0.3309 -0.6873  0.3475
  285MOL0     C37495   2.008   5.968   3.968  0.8336  0.0534 -0.1451
  285MOL0     O37496   1.912   5.957   4.075  0.3927  0.6671  0.9076
  285MOL0     C37497   1.854   6.083   4.110 -0.8995  0.4596  0.2412
  285MOL0     C37498   1.745   6.053   4.213 -0.4966  0.2472  0.0787
  285MOL0     C37499   1.769   6.082   4.363 -0.5575  0.1816  0.3371
  285MOL0     C37500   1.838   5.960   4.422 -0.1705  0.3788  1.1769
  285MOL0     C37501   1.822   5.939   4.565  0.2022  0.0050  1.1097
  285MOL0     C37502   1.887   6.053   4.642  0.3308 -0.6270  0.5896
  285MOL0     C37503   1.849   6.050   4.788  0.0745  0.1675 -0.5245
  285MOL0     C37504   1.903   6.158   4.880  0.7223 -0.0936 -0.0732
  285MOL0     N37505   1.818   6.282   4.878 -0.4812  0.1944  0.4468
  285MOL0     C37506   1.827   6.379   4.776  0.2801  0.1830 -0.8318
  285MOL0     C37507   1.714   6.448   4.793 -0.5030  0.0251 -0.5949
  285MOL0     C37508   1.691   6.587   4.736 -0.4716  0.2079  1.5149
  285MOL0     C37509   1.597   6.581   4.621  0.4476 -0.3566  0.1009
  285MOL0     C37510   1.539   6.720   4.612  0.1924  0.5209  0.8034
  285MOL0     C37511   1.430   6.748   4.715 -0.5773  0.0049  0.1565
  285MOL0     O37512   1.331   6.652   4.680  0.3205 -0.9162 -0.3936
  285MOL0     C37513   1.244   6.607   4.778  0.8669  0.2490 -0.1123
  285MOL0     C37514   1.143   6.684   4.842  1.0508 -0.1155 -0.5085
  285MOL0     C37515   1.045   6.616   4.926  0.5988 -0.5342 -0.7582
  285MOL0     C37516   1.050   6.479   4.955  0.5742  0.2758  0.1199
  285MOL0     C37517   0.934   6.427   5.033 -0.4468 -0.1632  0.2675
  285MOL0     O37518   0.847   6.504   5.105 -0.7859 -0.3632  0.5464
  285MOL0     C37519   0.758   6.445   5.201 -0.5982 -1.4916  0.6952
  285MOL0     C37520   0.639   6.509   5.238  1.4595  0.1445 -0.1032
  285MOL0     C37521   0.546   6.468   5.325  0.8306 -0.6124 -0.3304
  285MOL0     C37522   0.576   6.354   5.400  0.6449 -0.5499  0.4152
  285MOL0     O37523   0.469   6.310   5.478  0.8083  0.3592 -0.0824
  285MOL0     C37524   0.500   6.196   5.561  0.3142 -0.0716 -1.0371
  285MOL0     C37525   0.377   6.143   5.631  0.0343 -0.1196  0.5923
  285MOL0     C37526   0.414   6.030   5.721 -0.5790 -0.3499  0.9211
  285MOL0     C37527   0.297   5.998   5.807 -1.0810  0.0985 -0.6959
  285MOL0     C37528   0.321   5.872   5.883 -0.1209 -0.0675  0.6164
  285MOL0     C37529   0.194   5.830   5.962  0.6028  0.1588 -0.3234
  285MOL0     C37530   0.228   5.713   6.048  0.1490  0.0563  0.0807
  285MOL0     C37531   0.091   5.658   6.112 -0.2861 -0.6769  0.8107
  285MOL0    Cl37532   0.125   5.552   6.244 -0.1713 -0.0749  0.0229
  285MOL0     C37533   0.699   6.285   5.366  0.6394  0.0050 -0.1066
  285MOL0     C37534   0.787   6.328   5.272  0.7913  0.5020  0.6400
  285MOL0     O37535   0.921   6.313   5.011 -0.0574  0.4618 -0.4993
  285MOL0     C37536   1.166   6.408   4.897  0.3191 -0.1628 -0.5564
  285MOL0     C37537   1.261   6.473   4.819 -1.0341 -0.3127 -0.1736
  285MOL0     N37538   1.633   6.385   4.887 -0.1397  0.3170 -0.3961
  285MOL0     N37539   1.698   6.291   4.940  0.2011 -0.2270 -0.2113
  285MOL0     C37540   2.124   5.895   3.979  0.2180 -0.4155 -0.4659
  285MOL0     C37541   2.228   5.911   3.879 -0.2640 -0.1902 -0.3010
  285MOL0     C37542   2.335   5.984   3.413 -0.3190  0.1873 -0.1896
  285MOL0     C37543   2.468   6.021   3.443 -0.9360 -0.8577  0.2949
  285MOL0     C37544   2.556   6.052   3.348 -1.0379 -0.5975  0.1659
  285MOL0     C37545   2.522   6.041   3.210  0.1466  0.1684 -0.1113
  285MOL0     O37546   2.610   6.061   3.108 -0.3406  0.1476  0.4219
  285MOL0     C37547   2.708   6.162   3.114  0.0939 -0.1887 -0.8640
  285MOL0     C37548   2.783   6.167   2.975 -0.0246  0.6018  0.1437
  285MOL0     C37549   2.684   6.204   2.860 -0.2098  0.7231  1.0821
  285MOL0     C37550   2.767   6.248   2.735  0.5945 -0.1637  0.7009
  285MOL0     C37551   2.685   6.319   2.629  1.2798 -0.1802  0.4104
  285MOL0     C37552   2.619   6.388   2.567  0.0438 -1.1857  0.1951
  285MOL0     C37553   2.395   6.001   3.180 -0.7136  0.3120  0.4525
  285MOL0     C37554   2.299   5.976   3.270 -0.1423  0.6678 -0.9289
  285MOL0     H37555   2.051   6.100   3.653  2.3070  0.1541  0.4957
  285MOL0     H37556   1.887   6.099   3.833 -2.9399 -5.3178 -2.4254
  285MOL0     H37557   1.805   6.127   4.022 -1.9772  0.6546  0.9268
  285MOL0     H37558   1.938   6.147   4.137  1.2180 -1.3008 -1.7204
  285MOL0     H37559   1.724   5.946   4.205  2.2875 -0.3587 -0.0283
  285MOL0     H37560   1.657   6.109   4.178 -0.2917 -0.6994 -2.0646
  285MOL0     H37561   1.678   6.080   4.424  0.0268 -4.2636  1.3595
  285MOL0     H37562   1.811   6.183   4.367 -0.2097  0.2924 -3.0464
  285MOL0     H37563   1.792   5.869   4.382  0.5055 -0.2985  1.8862
  285MOL0     H37564   1.945   5.959   4.399 -0.2516  3.7974  0.1125
  285MOL0     H37565   1.863   5.843   4.597 -0.0440  0.4383  2.8142
  285MOL0     H37566   1.716   5.948   4.591  0.9295  3.0416  3.6504
  285MOL0     H37567   1.839   6.140   4.595  3.4563  0.4182 -0.9477
  285MOL0     H37568   1.995   6.068   4.632 -0.0936  1.1037 -3.5321
  285MOL0     H37569   1.742   6.071   4.797  0.0295  1.2135 -2.7659
  285MOL0     H37570   1.868   5.949   4.826 -3.3179  0.4816  2.4845
  285MOL0     H37571   2.004   6.196   4.860  0.9818  1.9411  3.9835
  285MOL0     H37572   1.904   6.128   4.985 -0.1511  1.6629  0.4731
  285MOL0     H37573   1.904   6.401   4.702 -0.1338 -1.8500 -1.9260
  285MOL0     H37574   1.783   6.632   4.698 -1.7840  3.1321  1.5182
  285MOL0     H37575   1.660   6.657   4.814 -0.5995  3.7560 -1.4708
  285MOL0     H37576   1.531   6.496   4.642 -0.1772 -0.2368 -1.2668
  285MOL0     H37577   1.649   6.568   4.525 -0.8171 -3.1608 -0.3036
  285MOL0     H37578   1.608   6.803   4.630 -1.5017  1.6743  2.4907
  285MOL0     H37579   1.490   6.716   4.515  0.8267 -1.2834  0.5227
  285MOL0     H37580   1.396   6.852   4.709  1.2043  0.5572 -1.2528
  285MOL0     H37581   1.450   6.736   4.821 -4.4142 -0.3876  0.9701
  285MOL0     H37582   1.130   6.791   4.834  0.6973 -0.2605 -2.3666
  285MOL0     H37583   0.968   6.683   4.964  1.7835  1.3868 -1.5766
  285MOL0     H37584   0.619   6.603   5.188 -0.1210 -0.3151 -0.3868
  285MOL0     H37585   0.450   6.518   5.331  1.2082  0.5119 -2.7854
  285MOL0     H37586   0.571   6.233   5.636 -1.9275 -1.7273  2.0968
  285MOL0     H37587   0.542   6.110   5.508  1.0188 -1.3545  1.4209
  285MOL0     H37588   0.302   6.118   5.555 -1.3487 -0.6209  2.0636
  285MOL0     H37589   0.336   6.223   5.694 -0.4633  0.3041 -0.2500
  285MOL0     H37590   0.504   6.035   5.783  1.4328 -0.8694 -1.7833
  285MOL0     H37591   0.424   5.948   5.650 -2.1607  0.9795 -0.9266
  285MOL0     H37592   0.291   6.072   5.888 -3.8638 -0.9205  0.1485
  285MOL0     H37593   0.202   6.003   5.753 -2.3013  0.1362  1.3558
  285MOL0     H37594   0.396   5.886   5.961 -0.6620 -1.8116  1.4985
  285MOL0     H37595   0.355   5.793   5.815 -0.0748 -1.3059  2.0222
  285MOL0     H37596   0.123   5.786   5.892  0.5979 -0.3540 -0.0037
  285MOL0     H37597   0.151   5.914   6.018  1.9988 -0.9678  2.6947
  285MOL0     H37598   0.284   5.638   5.991  1.8272  0.8099  0.6752
  285MOL0     H37599   0.285   5.747   6.134  1.1215  1.3610 -1.0284
  285MOL0     H37600   0.020   5.618   6.039  0.3229  2.0592 -1.4265
  285MOL0     H37601   0.043   5.751   6.145 -0.1165  0.8505 -2.7782
  285MOL0     H37602   0.731   6.202   5.429 -0.7429  0.9553  1.9215
  285MOL0     H37603   0.882   6.275   5.276 -0.0488 -0.9909  2.8009
  285MOL0     H37604   1.194   6.303   4.897  4.7507  0.7902 -1.8620
  285MOL0     H37605   1.340   6.416   4.771 -0.9086  1.2009 -1.9038
  285MOL0     H37606   2.148   5.833   4.065  1.7657 -0.5422 -0.9533
  285MOL0     H37607   2.322   5.858   3.892 -1.3127 -1.8885  0.6094
  285MOL0     H37608   2.507   6.020   3.545 -0.8769  0.6495  0.3101
  285MOL0     H37609   2.656   6.083   3.377 -0.7468 -0.2181 -1.1861
  285MOL0     H37610   2.772   6.130   3.197 -2.5302 -2.5339  0.4782
  285MOL0     H37611   2.652   6.253   3.137 -0.4634 -0.9941  1.3092
  285MOL0     H37612   2.865   6.240   2.981  2.3397 -1.9731  1.1093
  285MOL0     H37613   2.823   6.068   2.949 -1.1628  0.8690 -3.1003
  285MOL0     H37614   2.626   6.290   2.895 -0.5645  1.3432 -0.8848
  285MOL0     H37615   2.623   6.121   2.823  2.3029  0.4698 -3.1917
  285MOL0     H37616   2.843   6.313   2.778 -1.5797  2.5863  0.6809
  285MOL0     H37617   2.815   6.169   2.677 -2.1514 -1.7558  0.4254
  285MOL0     H37618   2.568   6.466   2.514  5.2576  3.4646  1.0376
  285MOL0     H37619   2.362   5.979   3.079 -0.5566  0.6231  0.3324
  285MOL0     H37620   2.200   5.942   3.241 -0.2457  0.1885 -0.0549
  286MOL0     O37621   7.091   5.443  10.057  0.1125  0.4390  0.3660
  286MOL0     C37622   7.000   5.416   9.976  0.3122 -0.8250  0.0828
  286MOL0     O37623   6.985   5.303   9.907  0.0413  0.6899  0.5560
  286MOL0     C37624   7.069   5.197   9.936 -1.0851 -0.4222 -0.4423
  286MOL0     C37625   7.139   5.128   9.843 -1.0283 -0.4636 -0.4436
  286MOL0     C37626   7.223   5.030   9.886 -0.6833  0.0191  0.0067
  286MOL0     C37627   7.217   4.984  10.016  0.6772 -0.8787 -0.5867
  286MOL0     O37628   7.297   4.880  10.062  0.4433 -0.7271 -0.2581
  286MOL0     C37629   7.435   4.908  10.074 -0.8392 -0.7328 -0.0040
  286MOL0     C37630   7.492   4.787  10.143 -0.1600  0.4641 -0.5428
  286MOL0     C37631   7.473   4.787  10.299  0.3703  0.1384 -0.8888
  286MOL0     C37632   7.590   4.729  10.368 -0.1992  0.3307  0.8391
  286MOL0     C37633   7.569   4.721  10.523 -0.5017  0.0332  0.9298
  286MOL0     C37634   7.649   4.611  10.585 -0.5733  0.4132  0.0407
  286MOL0     C37635   7.621   4.591  10.740 -0.4258  0.1040  0.3425
  286MOL0     C37636   7.628   4.714  10.823 -0.0960  0.2813 -0.2332
  286MOL0     N37637   7.770   4.754  10.832  0.9597 -0.6714 -0.5009
  286MOL0     C37638   7.882   4.689  10.877 -0.8869 -0.4577  0.5161
  286MOL0     C37639   7.993   4.765  10.836  1.0324 -0.3380 -0.9011
  286MOL0     C37640   8.137   4.738  10.873 -0.2484  0.0258 -0.8667
  286MOL0     C37641   8.214   4.715  10.752 -0.0751  0.4923  0.0775
  286MOL0     C37642   8.156   4.615  10.647 -0.1557 -1.0922  0.3765
  286MOL0     C37643   8.268   4.577  10.542  0.0160 -0.6682  0.0282
  286MOL0     O37644   8.230   4.454  10.480 -0.0400 -0.4710 -0.4361
  286MOL0     C37645   8.210   4.351  10.562 -0.1496 -0.4215  0.6727
  286MOL0     C37646   8.089   4.288  10.557 -0.4187 -0.4472  0.2861
  286MOL0     C37647   8.060   4.173  10.635  0.4197  0.6440 -1.6784
  286MOL0     C37648   8.144   4.130  10.740 -0.3622 -0.7701 -0.2272
  286MOL0     C37649   8.098   4.025  10.840  0.4534  0.1720 -0.0516
  286MOL0     O37650   7.967   3.981  10.828 -0.1124 -0.9921 -0.2988
  286MOL0     C37651   7.920   3.875  10.903  0.7586  0.0532  0.0257
  286MOL0     C37652   7.919   3.742  10.848 -0.3192  0.0466  0.4544
  286MOL0     C37653   7.842   3.641  10.910 -1.2181  0.2893  1.7508
  286MOL0     C37654   7.794   3.657  11.033  0.0568  0.5277 -0.9543
  286MOL0     O37655   7.737   3.566  11.117 -0.0374  0.2306  0.9029
  286MOL0     C37656   7.680   3.437  11.060  0.6170 -0.1631  0.0612
  286MOL0     C37657   7.586   3.352  11.152 -0.5765  0.5279  0.3380
  286MOL0     C37658   7.680   3.244  11.202  0.0155 -0.2201  0.0096
  286MOL0     C37659   7.614   3.161  11.308 -0.2618  0.4183 -0.3406
  286MOL0     C37660   7.471   3.097  11.260  0.2953  0.2222  0.1193
  286MOL0     C37661   7.469   3.001  11.140  0.5641 -0.6955 -0.0145
  286MOL0     C37662   7.553   2.869  11.178  0.5056 -0.0225 -0.2512
  286MOL0     C37663   7.490   2.727  11.158 -0.2825 -0.1559 -0.7239
  286MOL0    Cl37664   7.416   2.711  10.995 -0.1222  0.4313  0.0061
  286MOL0     C37665   7.800   3.794  11.082 -0.5737  0.6101 -0.6697
  286MOL0     C37666   7.842   3.896  11.020  0.2804  0.0174  0.2542
  286MOL0     O37667   8.190   3.983  10.916  0.1806  0.0041  0.5226
  286MOL0     C37668   8.270   4.181  10.731  0.2671 -0.4581  0.6342
  286MOL0     C37669   8.308   4.285  10.645 -0.0651  0.2305  0.3495
  286MOL0     N37670   7.943   4.880  10.779  0.1201  0.2746 -0.2170
  286MOL0     N37671   7.811   4.873  10.784  0.0088 -0.3429  0.1559
  286MOL0     C37672   7.131   5.043  10.106  0.7709 -0.0219 -0.5034
  286MOL0     C37673   7.058   5.153  10.066 -0.4866  0.3890 -0.6397
  286MOL0     C37674   6.909   5.534   9.939  0.8231  1.5656  0.1398
  286MOL0     C37675   6.910   5.647  10.025  1.0671 -0.0053 -0.3121
  286MOL0     C37676   6.834   5.759   9.991 -0.6091 -0.3042 -0.2704
  286MOL0     C37677   6.752   5.761   9.878 -0.0962  1.6430  0.1922
  286MOL0     O37678   6.677   5.870   9.865 -0.3079 -0.1782 -0.6444
  286MOL0     C37679   6.588   5.887   9.748  0.0153  1.0451 -0.1492
  286MOL0     C37680   6.558   6.023   9.697 -0.1303  0.0318  0.3510
  286MOL0     C37681   6.687   6.104   9.675  0.7991  0.7571 -0.2798
  286MOL0     C37682   6.661   6.237   9.630  0.0865  0.0094  0.2930
  286MOL0     C37683   6.772   6.320   9.654  0.3766  0.0096 -0.8569
  286MOL0     C37684   6.860   6.404   9.650 -0.6621 -0.0948  0.0922
  286MOL0     C37685   6.744   5.647   9.796 -0.5533  0.1850 -0.6107
  286MOL0     C37686   6.819   5.536   9.831  0.2785  0.3842  0.3010
  286MOL0     H37687   7.137   5.170   9.743  2.7157  4.4402  1.1130
  286MOL0     H37688   7.285   4.978   9.814  0.0307  2.4569 -1.2696
  286MOL0     H37689   7.446   5.001  10.130 -0.8114 -0.4975 -0.3936
  286MOL0     H37690   7.469   4.932   9.973 -0.9957  0.3785  0.2009
  286MOL0     H37691   7.601   4.788  10.129  0.1336  0.0038  1.4405
  286MOL0     H37692   7.468   4.699  10.082  2.4717 -1.1509  0.5575
  286MOL0     H37693   7.381   4.737  10.332  2.0537 -1.9577  0.8936
  286MOL0     H37694   7.454   4.886  10.341 -0.5435  0.2594 -1.5675
  286MOL0     H37695   7.628   4.634  10.329 -2.3120  0.1279 -0.9854
  286MOL0     H37696   7.669   4.804  10.366 -0.1581  0.3197 -1.5981
  286MOL0     H37697   7.462   4.718  10.549 -0.4572  0.8506  1.2387
  286MOL0     H37698   7.596   4.821  10.560 -1.8978  0.0727  1.9607
  286MOL0     H37699   7.755   4.635  10.571 -1.0388  2.2512 -0.6541
  286MOL0     H37700   7.622   4.515  10.540 -2.3532 -0.1355  2.1393
  286MOL0     H37701   7.522   4.546  10.746 -0.6994  0.6571  0.0794
  286MOL0     H37702   7.682   4.509  10.780 -2.2557 -0.4282  2.2380
  286MOL0     H37703   7.580   4.716  10.921 -0.6346  0.9122 -0.4981
  286MOL0     H37704   7.577   4.800  10.778  0.1496 -0.4938 -2.1053
  286MOL0     H37705   7.888   4.608  10.949  2.8317  2.6521  4.2261
  286MOL0     H37706   8.138   4.644  10.930 -4.5976  0.7775  0.9076
  286MOL0     H37707   8.168   4.832  10.919 -3.4669  1.8366 -2.0661
  286MOL0     H37708   8.310   4.669  10.779 -0.9686 -2.6148 -1.5217
  286MOL0     H37709   8.247   4.813  10.715  2.0959 -1.1424 -2.8345
  286MOL0     H37710   8.111   4.534  10.705  0.4661 -0.5487  1.6751
  286MOL0     H37711   8.077   4.659  10.586  1.0025 -1.0523 -1.1499
  286MOL0     H37712   8.361   4.574  10.600 -0.0294 -0.4418  0.1159
  286MOL0     H37713   8.276   4.647  10.458 -4.0178  0.6990  0.5769
  286MOL0     H37714   8.024   4.320  10.476 -1.1864 -0.2307  0.9725
  286MOL0     H37715   7.955   4.146  10.635  0.3985  0.6642  0.0856
  286MOL0     H37716   7.970   3.717  10.756 -0.5259 -0.4483  0.4706
  286MOL0     H37717   7.850   3.539  10.873 -0.8952  0.8185  0.2884
  286MOL0     H37718   7.753   3.365  11.022  1.6126  1.2297 -0.7595
  286MOL0     H37719   7.625   3.471  10.971  0.2179 -1.5455 -0.2475
  286MOL0     H37720   7.503   3.304  11.101  1.1595 -2.9525  0.5247
  286MOL0     H37721   7.533   3.414  11.225 -2.3077 -0.7693  0.2268
  286MOL0     H37722   7.777   3.278  11.241 -0.6180 -1.6092  3.1339
  286MOL0     H37723   7.707   3.176  11.122  2.9012  1.3240 -0.4452
  286MOL0     H37724   7.668   3.067  11.326  1.0121  0.9439 -1.2640
  286MOL0     H37725   7.598   3.215  11.402 -1.2791 -1.3405  0.5417
  286MOL0     H37726   7.402   3.180  11.244  1.5747  1.3531  0.2748
  286MOL0     H37727   7.425   3.058  11.351 -0.1381 -0.4754 -0.3903
  286MOL0     H37728   7.490   3.036  11.039 -0.8606 -0.8085 -0.3787
  286MOL0     H37729   7.366   2.964  11.130  0.2905  0.2491 -0.8329
  286MOL0     H37730   7.640   2.876  11.112 -0.6920  1.3919 -1.7713
  286MOL0     H37731   7.594   2.877  11.279 -0.3633 -0.0360  0.1093
  286MOL0     H37732   7.413   2.711  11.234  0.4669 -0.9700 -0.1172
  286MOL0     H37733   7.572   2.658  11.178  1.8163  2.5299  0.6131
  286MOL0     H37734   7.773   3.823  11.183 -1.2999 -1.3665 -0.2355
  286MOL0     H37735   7.828   3.996  11.061 -1.0556 -1.2434  3.1572
  286MOL0     H37736   8.341   4.145  10.804  1.3497 -1.8448 -1.0138
  286MOL0     H37737   8.405   4.333  10.654 -1.3913  3.2297 -0.4179
  286MOL0     H37738   7.120   5.010  10.209 -1.0698  2.4155  0.1927
  286MOL0     H37739   6.996   5.200  10.141 -2.7110 -2.6845 -0.3759
  286MOL0     H37740   6.975   5.657  10.111  0.2062  1.5996  0.1794
  286MOL0     H37741   6.840   5.847  10.053  2.5938 -0.7600  0.2280
  286MOL0     H37742   6.494   5.839   9.780 -0.1695  1.5326  0.0406
  286MOL0     H37743   6.625   5.835   9.659 -0.7926 -3.7649  1.9629
  286MOL0     H37744   6.502   6.035   9.604 -0.1452  0.3830  0.4050
  286MOL0     H37745   6.498   6.067   9.777  0.8774  0.8803  0.6722
  286MOL0     H37746   6.730   6.039   9.597 -1.9439 -0.6592 -0.7261
  286MOL0     H37747   6.738   6.097   9.772 -0.2373 -0.7031  0.1945
  286MOL0     H37748   6.629   6.247   9.526 -2.1830  4.1115  1.1560
  286MOL0     H37749   6.566   6.279   9.665 -0.6314 -1.5520  0.3134
  286MOL0     H37750   6.944   6.471   9.643 -2.4192  2.2321  0.0308
  286MOL0     H37751   6.679   5.647   9.709 -0.7834 -2.3972 -0.5149
  286MOL0     H37752   6.818   5.452   9.762 -0.8678 -0.3276  1.1345
  287MOL0     O37753   7.598   0.709   8.605  0.3504  0.3364 -0.6287
  287MOL0     C37754   7.572   0.818   8.650 -0.1687 -0.2364 -0.2968
  287MOL0     O37755   7.562   0.848   8.780 -0.1755 -0.2794 -0.0480
  287MOL0     C37756   7.578   0.747   8.875 -0.4133 -0.4679 -0.2126
  287MOL0     C37757   7.701   0.694   8.896 -0.6559  0.0951 -0.2211
  287MOL0     C37758   7.715   0.578   8.973  0.0499 -0.0697  0.1197
  287MOL0     C37759   7.607   0.516   9.032 -0.3756 -1.2307  0.4986
  287MOL0     O37760   7.623   0.398   9.100 -0.2342 -0.5772 -0.6044
  287MOL0     C37761   7.556   0.385   9.231  1.4596  0.1581  0.0048
  287MOL0     C37762   7.556   0.235   9.274 -0.7031 -0.0994 -0.6561
  287MOL0     C37763   7.470   0.145   9.171  0.6369 -0.0349  1.0637
  287MOL0     C37764   7.461  -0.002   9.217  0.1623  0.4156  0.4279
  287MOL0     C37765   7.332  -0.090   9.180 -0.0636 -0.3891 -1.1596
  287MOL0     C37766   7.329  -0.113   9.029  0.0753  0.2651 -0.5182
  287MOL0     C37767   7.223  -0.213   8.986 -0.0917  0.3169 -0.4396
  287MOL0     C37768   7.270  -0.348   8.998 -0.5188  0.6284 -0.0965
  287MOL0     N37769   7.187  -0.427   9.099 -0.1011 -0.0551  1.1212
  287MOL0     C37770   7.131  -0.547   9.074  0.3323  0.7117  0.0694
  287MOL0     C37771   7.060  -0.580   9.180  0.4519  0.4714  1.2892
  287MOL0     C37772   7.003  -0.709   9.198  0.5969 -0.1638 -0.0230
  287MOL0     C37773   6.848  -0.711   9.218 -0.5230 -0.4580  0.8113
  287MOL0     C37774   6.785  -0.848   9.234 -0.0477 -0.4156  0.8453
  287MOL0     C37775   6.841  -0.935   9.341  0.0536  0.0188 -0.9812
  287MOL0     O37776   6.851  -0.861   9.468  0.0056  0.1277 -0.2897
  287MOL0     C37777   6.889  -0.939   9.573 -0.1538 -0.0776  0.7076
  287MOL0     C37778   6.961  -0.875   9.663  0.0023  0.6238 -0.0826
  287MOL0     C37779   7.009  -0.944   9.776 -0.2435 -1.3579  0.7829
  287MOL0     C37780   6.971  -1.078   9.807 -0.6572 -1.4319  0.0640
  287MOL0     C37781   7.017  -1.136   9.929 -0.6636  0.3855 -0.9302
  287MOL0     O37782   7.058  -1.051  10.035  0.7451  0.0453  0.2974
  287MOL0     C37783   7.080  -1.113  10.154 -0.3857 -0.1451  0.1507
  287MOL0     C37784   7.190  -1.200  10.164  0.8934  0.5438 -1.2802
  287MOL0     C37785   7.202  -1.253  10.291 -0.8947  0.4033  0.1589
  287MOL0     C37786   7.117  -1.226  10.401  1.1069 -1.1521 -0.5495
  287MOL0     O37787   7.133  -1.284  10.525 -0.4569  0.8104  0.1953
  287MOL0     C37788   7.226  -1.401  10.543 -0.4495 -0.7271 -0.6214
  287MOL0     C37789   7.342  -1.353  10.623 -0.5541  0.5740 -0.3948
  287MOL0     C37790   7.465  -1.449  10.610 -0.5528  0.1062  0.2781
  287MOL0     C37791   7.596  -1.398  10.689  0.3552 -0.0236 -0.3699
  287MOL0     C37792   7.635  -1.491  10.799  1.1157  0.9309  0.0001
  287MOL0     C37793   7.551  -1.473  10.920  0.1548  0.3977  0.5635
  287MOL0     C37794   7.506  -1.605  10.964 -1.0756  0.5225  0.4028
  287MOL0     C37795   7.420  -1.691  10.881 -0.1732 -0.5963  0.2381
  287MOL0    Cl37796   7.391  -1.851  10.973 -0.0285 -0.3483 -0.2309
  287MOL0     C37797   7.008  -1.135  10.385 -0.0432 -0.2662  0.0403
  287MOL0     C37798   6.999  -1.073  10.268  0.1056 -0.0131 -0.2170
  287MOL0     O37799   7.012  -1.261   9.945  0.2031  0.1191  0.5110
  287MOL0     C37800   6.895  -1.143   9.709  0.3501 -0.6633  0.5555
  287MOL0     C37801   6.842  -1.071   9.595  0.0548  0.9203 -0.7053
  287MOL0     N37802   7.068  -0.489   9.278 -0.3320  0.3979  0.1376
  287MOL0     N37803   7.135  -0.387   9.223  0.1028  0.5336  0.4506
  287MOL0     C37804   7.484   0.572   9.011 -0.2791 -0.2806 -0.3259
  287MOL0     C37805   7.472   0.681   8.931 -0.4913 -0.9748 -0.2172
  287MOL0     C37806   7.565   0.927   8.557 -0.5766 -0.7018  0.4773
  287MOL0     C37807   7.513   1.052   8.590 -0.2400 -0.6778 -0.0880
  287MOL0     C37808   7.526   1.162   8.496 -0.5787  0.0716 -0.4500
  287MOL0     C37809   7.564   1.134   8.366 -0.1197 -0.6087  0.5047
  287MOL0     O37810   7.576   1.242   8.280  0.7567 -0.2042  0.2560
  287MOL0     C37811   7.596   1.224   8.140  0.1701  0.5841  0.1052
  287MOL0     C37812   7.640   1.354   8.085  0.1586 -1.0033 -0.8250
  287MOL0     C37813   7.708   1.350   7.948 -0.7170 -0.2503 -1.1796
  287MOL0     C37814   7.703   1.488   7.892  0.7181 -0.2125 -0.5290
  287MOL0     C37815   7.568   1.518   7.847  0.8359  0.1934  0.6448
  287MOL0     C37816   7.450   1.524   7.802  0.3193 -0.2064  0.7125
  287MOL0     C37817   7.594   1.001   8.326 -0.1831  0.3496 -0.9552
  287MOL0     C37818   7.592   0.904   8.418 -0.0152  0.3768 -0.0781
  287MOL0     H37819   7.792   0.733   8.851 -0.6505 -0.2156 -0.4836
  287MOL0     H37820   7.807   0.522   8.965  0.3390  0.4304 -0.0648
  287MOL0     H37821   7.449   0.403   9.217  1.2383 -0.8339  0.3716
  287MOL0     H37822   7.597   0.451   9.307  0.7759 -0.5538  1.0178
  287MOL0     H37823   7.506   0.232   9.371  0.2587 -0.1692 -0.1460
  287MOL0     H37824   7.658   0.196   9.285 -0.2437  0.8849 -1.2677
  287MOL0     H37825   7.522   0.152   9.075  0.3450  0.0113  0.9064
  287MOL0     H37826   7.368   0.182   9.155  0.2244 -1.3650  0.3818
  287MOL0     H37827   7.553  -0.054   9.187 -0.2920  0.9532 -2.0993
  287MOL0     H37828   7.466  -0.002   9.327 -4.0688  0.9320  0.7604
  287MOL0     H37829   7.249  -0.037   9.227  0.5786  0.5181 -1.0060
  287MOL0     H37830   7.338  -0.184   9.235 -3.9644 -1.4693 -2.2748
  287MOL0     H37831   7.427  -0.132   8.985 -0.8375  1.4180 -3.2543
  287MOL0     H37832   7.294  -0.022   8.980 -0.8119 -0.9065 -2.1409
  287MOL0     H37833   7.133  -0.197   9.046 -1.1260  1.1231 -2.1353
  287MOL0     H37834   7.200  -0.201   8.880 -3.4481  2.0725  0.3521
  287MOL0     H37835   7.372  -0.351   9.038 -1.1140  1.4755  1.5913
  287MOL0     H37836   7.259  -0.408   8.908 -1.9914 -0.5840  0.8473
  287MOL0     H37837   7.155  -0.603   8.984 -0.5186  0.1966  0.1471
  287MOL0     H37838   7.053  -0.778   9.267 -1.9890 -0.9072  1.2416
  287MOL0     H37839   7.025  -0.751   9.099  1.8667 -2.8769  1.3140
  287MOL0     H37840   6.799  -0.667   9.130 -2.2968 -1.4046  1.2688
  287MOL0     H37841   6.825  -0.638   9.296 -2.2345 -0.3346  0.2385
  287MOL0     H37842   6.679  -0.845   9.262 -0.6441 -1.2304 -1.1882
  287MOL0     H37843   6.794  -0.897   9.137 -2.9846  0.4467  0.0391
  287MOL0     H37844   6.946  -0.961   9.326  0.4241  0.1560  1.0978
  287MOL0     H37845   6.777  -1.023   9.353 -1.0839  1.1063  1.8095
  287MOL0     H37846   6.981  -0.771   9.640 -0.4261  0.8686  0.5978
  287MOL0     H37847   7.072  -0.876   9.833  1.3994 -0.8991 -1.4165
  287MOL0     H37848   7.257  -1.210  10.079  1.1174  3.4765 -1.5593
  287MOL0     H37849   7.299  -1.299  10.309 -0.8852 -0.7182 -2.3571
  287MOL0     H37850   7.251  -1.441  10.444  2.9851  0.6138 -0.4117
  287MOL0     H37851   7.181  -1.481  10.602  1.0517 -0.0333  1.5449
  287MOL0     H37852   7.314  -1.341  10.727 -2.1836 -4.3145 -0.0009
  287MOL0     H37853   7.361  -1.257  10.574 -0.6673  1.8277  1.8981
  287MOL0     H37854   7.500  -1.471  10.509 -0.2136 -0.8804  0.5896
  287MOL0     H37855   7.430  -1.550  10.635 -3.2058 -0.1000 -3.3531
  287MOL0     H37856   7.688  -1.387  10.632  0.4425  1.9411  0.0764
  287MOL0     H37857   7.571  -1.297  10.723 -2.4210 -1.3427  1.9646
  287MOL0     H37858   7.738  -1.478  10.831  1.2423 -0.5515  0.2419
  287MOL0     H37859   7.631  -1.594  10.763 -3.7076 -0.0783  2.5508
  287MOL0     H37860   7.472  -1.398  10.909  0.9489  1.1473 -0.1762
  287MOL0     H37861   7.611  -1.426  10.999 -0.8316 -0.5606  1.9251
  287MOL0     H37862   7.595  -1.663  10.988 -0.1976  1.4521 -0.5003
  287MOL0     H37863   7.456  -1.587  11.060 -2.4486 -5.5912  1.2201
  287MOL0     H37864   7.470  -1.707  10.785 -0.4429 -1.9456  0.3082
  287MOL0     H37865   7.329  -1.632  10.865 -0.1971 -0.7968 -0.3794
  287MOL0     H37866   6.932  -1.108  10.457  0.6794 -0.2641  0.8253
  287MOL0     H37867   6.925  -0.996  10.253 -0.3103 -0.0186  1.6664
  287MOL0     H37868   6.869  -1.247   9.725 -0.2499 -0.5373  0.4199
  287MOL0     H37869   6.762  -1.108   9.531  1.2638  0.4093 -1.9753
  287MOL0     H37870   7.393   0.535   9.056 -1.1130  0.4594 -1.3693
  287MOL0     H37871   7.378   0.712   8.887  0.3714  0.0760 -1.3803
  287MOL0     H37872   7.475   1.075   8.690 -1.4934  2.9553 -1.2409
  287MOL0     H37873   7.502   1.266   8.512  2.6843  0.8111  0.3159
  287MOL0     H37874   7.500   1.194   8.097  0.6056 -0.3586 -0.2297
  287MOL0     H37875   7.676   1.151   8.122  0.6018  1.3552 -1.2230
  287MOL0     H37876   7.543   1.405   8.082 -1.4503 -3.8658 -1.4051
  287MOL0     H37877   7.702   1.408   8.158 -0.3033 -0.1609 -1.0407
  287MOL0     H37878   7.665   1.278   7.877  1.0140 -1.6214 -0.9153
  287MOL0     H37879   7.813   1.321   7.960 -0.5723  0.9788  1.0892
  287MOL0     H37880   7.728   1.570   7.961  0.2908  0.3616 -1.0430
  287MOL0     H37881   7.778   1.491   7.812  1.1585  0.9839 -0.0929
  287MOL0     H37882   7.353   1.534   7.758  2.6598 -0.9333 -5.6415
  287MOL0     H37883   7.620   0.977   8.224 -1.0743  1.5062 -1.4781
  287MOL0     H37884   7.611   0.805   8.377  1.7384  0.2886  0.8441
  288MOL0     O37885   9.109   4.957   8.995 -0.2932 -1.3626  0.2291
  288MOL0     C37886   9.030   4.928   9.081  0.6835 -0.1669  0.6118
  288MOL0     O37887   8.955   5.008   9.155  0.9354  0.3288 -0.4276
  288MOL0     C37888   9.001   5.131   9.179  0.5058  0.0820  0.1128
  288MOL0     C37889   8.983   5.230   9.079 -0.2282  0.2470 -0.1862
  288MOL0     C37890   9.039   5.360   9.083  0.0634  0.4114  0.4688
  288MOL0     C37891   9.105   5.397   9.206 -0.9655  0.3832  0.1081
  288MOL0     O37892   9.158   5.524   9.211 -0.3345 -1.2522  0.3361
  288MOL0     C37893   9.152   5.594   9.336  0.0825 -0.3757  0.0081
  288MOL0     C37894   9.172   5.748   9.338  0.0237 -0.0251 -0.4651
  288MOL0     C37895   9.131   5.822   9.212  0.5008  0.1938 -1.0014
  288MOL0     C37896   9.178   5.969   9.227 -1.0005 -0.0568  0.2660
  288MOL0     C37897   9.105   6.076   9.145 -0.5523 -0.6096 -0.1354
  288MOL0     C37898   9.142   6.222   9.197 -0.6579 -0.3480 -0.4450
  288MOL0     C37899   9.027   6.310   9.162  1.1115 -0.4817 -0.7461
  288MOL0     C37900   9.063   6.448   9.202 -0.0299 -0.3016  0.5799
  288MOL0     N37901   9.190   6.494   9.150  0.0833 -0.8171 -1.5254
  288MOL0     C37902   9.216   6.524   9.024 -0.0865 -0.7488  1.5418
  288MOL0     C37903   9.354   6.542   9.016  0.4255 -0.4518  0.4574
  288MOL0     C37904   9.440   6.591   8.889 -0.8245 -0.0167 -0.8441
  288MOL0     C37905   9.390   6.546   8.747 -0.1939 -0.2024 -0.7917
  288MOL0     C37906   9.473   6.614   8.639  0.1882  0.7210  0.4683
  288MOL0     C37907   9.467   6.765   8.640  0.0378 -0.5349  0.9264
  288MOL0     O37908   9.511   6.805   8.505 -0.0270 -0.0442  0.2661
  288MOL0     C37909   9.645   6.841   8.501  0.6183  1.2424  0.3016
  288MOL0     C37910   9.747   6.744   8.500 -0.7681 -0.0787  0.3423
  288MOL0     C37911   9.882   6.791   8.502  1.2474 -0.8416 -0.2201
  288MOL0     C37912   9.915   6.933   8.497  0.2457 -0.0650  0.3064
  288MOL0     C37913  10.055   6.976   8.516 -0.8464  0.2996 -0.0646
  288MOL0     O37914  10.151   6.882   8.562 -0.1642 -0.1284 -0.2676
  288MOL0     C37915  10.282   6.919   8.584  0.1196  0.6050 -0.7175
  288MOL0     C37916  10.364   6.995   8.506  0.3772  0.6544 -0.3019
  288MOL0     C37917  10.487   7.034   8.545  1.0820  0.2462  0.7170
  288MOL0     C37918  10.544   6.993   8.661  0.4721 -0.7535  0.7710
  288MOL0     O37919  10.670   7.034   8.691 -0.5757 -0.0358 -0.0068
  288MOL0     C37920  10.780   6.942   8.696 -0.2931 -0.1194  0.6796
  288MOL0     C37921  10.858   6.963   8.817  0.7655  0.4305  0.2524
  288MOL0     C37922  10.935   6.832   8.862  0.5676 -0.3607  0.1085
  288MOL0     C37923  11.037   6.851   8.968  0.2364 -1.0758 -0.5211
  288MOL0     C37924  11.151   6.752   8.972 -0.3680 -0.6204  0.3341
  288MOL0     C37925  11.268   6.788   8.881 -0.0227  0.5204 -0.0987
  288MOL0     C37926  11.395   6.702   8.899  0.3783 -0.1172 -0.0106
  288MOL0     C37927  11.460   6.698   9.042 -0.3616  0.0622  0.1568
  288MOL0    Cl37928  11.595   6.588   9.031  0.0485  0.4980  0.3050
  288MOL0     C37929  10.479   6.902   8.742  0.2785 -0.5723 -0.4869
  288MOL0     C37930  10.352   6.860   8.700 -0.0462  0.7765  0.8424
  288MOL0     O37931  10.083   7.087   8.465 -0.2331 -0.1841 -0.1351
  288MOL0     C37932   9.807   7.029   8.490 -0.3484  0.6035 -0.6864
  288MOL0     C37933   9.675   6.970   8.486 -0.7793 -1.4127 -0.1871
  288MOL0     N37934   9.405   6.546   9.141  0.1068 -0.1820  0.0145
  288MOL0     N37935   9.312   6.496   9.220  0.2362  0.2163  0.5086
  288MOL0     C37936   9.128   5.295   9.300 -0.8784 -0.7933  0.8972
  288MOL0     C37937   9.078   5.172   9.290 -1.4893  0.3222 -0.4626
  288MOL0     C37938   8.990   4.787   9.104  0.7508  0.2707  0.4369
  288MOL0     C37939   8.877   4.755   9.173  0.0529 -1.6686  0.6950
  288MOL0     C37940   8.840   4.626   9.192 -0.0379 -0.5080  0.0567
  288MOL0     C37941   8.902   4.522   9.128 -0.6965  0.4652 -1.0761
  288MOL0     O37942   8.871   4.390   9.124 -0.6199 -0.2071 -0.6211
  288MOL0     C37943   8.763   4.347   9.214  0.1316  0.0259 -0.2142
  288MOL0     C37944   8.746   4.197   9.220 -0.2336  0.3428 -0.3750
  288MOL0     C37945   8.689   4.144   9.092 -0.7641 -0.5912 -0.2142
  288MOL0     C37946   8.642   4.005   9.108 -0.3806 -0.3262  0.8248
  288MOL0     C37947   8.509   4.003   9.171 -0.7461 -0.3206  0.5314
  288MOL0     C37948   8.397   4.006   9.212 -0.1541  0.6890 -0.2939
  288MOL0     C37949   9.004   4.550   9.048 -0.2455  0.7309 -0.4968
  288MOL0     C37950   9.050   4.679   9.030 -1.0348 -0.9916  0.4628
  288MOL0     H37951   8.940   5.201   8.984 -0.5384 -1.7600  0.5229
  288MOL0     H37952   9.029   5.437   9.007  3.7368 -0.4315 -1.0794
  288MOL0     H37953   9.231   5.566   9.406  0.0534  0.9684  0.6264
  288MOL0     H37954   9.052   5.585   9.380  0.1409  0.1675  0.2738
  288MOL0     H37955   9.276   5.762   9.369 -0.0350 -0.1457 -0.2028
  288MOL0     H37956   9.108   5.797   9.412 -1.5928  0.5227 -2.1484
  288MOL0     H37957   9.023   5.805   9.209  0.5034 -0.6529  1.3384
  288MOL0     H37958   9.167   5.777   9.119  0.0341  0.9281 -1.5554
  288MOL0     H37959   9.173   5.997   9.332 -0.0264  0.0733  0.2935
  288MOL0     H37960   9.284   5.978   9.201 -0.9071  1.0884  0.9676
  288MOL0     H37961   8.999   6.056   9.163 -1.1002  3.5912  2.6330
  288MOL0     H37962   9.127   6.062   9.039  1.7570 -0.4590  0.2899
  288MOL0     H37963   9.235   6.252   9.148 -0.8645 -0.9047 -1.1953
  288MOL0     H37964   9.168   6.223   9.303  1.5104  0.9890 -0.9240
  288MOL0     H37965   8.997   6.295   9.058 -4.4047  1.4409  0.2013
  288MOL0     H37966   8.929   6.290   9.207  0.8925  3.1701  0.8134
  288MOL0     H37967   9.050   6.460   9.309 -3.3825 -1.5022  0.4121
  288MOL0     H37968   9.011   6.535   9.162  1.4568 -0.5263 -2.1137
  288MOL0     H37969   9.143   6.519   8.944  0.0033  1.3522  1.2826
  288MOL0     H37970   9.542   6.556   8.904  0.0288  2.3725 -0.7034
  288MOL0     H37971   9.441   6.700   8.882 -0.4270 -0.1105 -2.7082
  288MOL0     H37972   9.286   6.572   8.730  0.0891  0.1351 -2.1500
  288MOL0     H37973   9.387   6.438   8.728 -0.3597  0.1005 -2.6146
  288MOL0     H37974   9.573   6.570   8.640 -0.4663 -1.2392 -3.1410
  288MOL0     H37975   9.435   6.586   8.540 -2.1581  1.4894  1.0877
  288MOL0     H37976   9.532   6.821   8.707  0.4261  0.4806 -0.2711
  288MOL0     H37977   9.360   6.788   8.641  0.2869  0.8945 -0.5456
  288MOL0     H37978   9.725   6.637   8.502  0.1585 -0.2813  0.0806
  288MOL0     H37979   9.958   6.714   8.503 -0.5086 -2.7656 -2.6336
  288MOL0     H37980  10.330   7.033   8.411  0.4762 -0.4913 -0.8106
  288MOL0     H37981  10.538   7.108   8.485  0.4359  0.0682 -0.0639
  288MOL0     H37982  10.844   6.961   8.609 -1.6792  1.8846  0.0236
  288MOL0     H37983  10.743   6.839   8.690 -1.9617  0.4849 -0.1685
  288MOL0     H37984  10.794   6.987   8.903 -1.7945  0.4225 -1.5218
  288MOL0     H37985  10.930   7.042   8.797  0.6615  1.1145  2.3573
  288MOL0     H37986  10.983   6.790   8.773  1.7669 -1.3078  1.1572
  288MOL0     H37987  10.859   6.759   8.889 -2.7858  2.2680 -1.4219
  288MOL0     H37988  11.077   6.950   8.947 -3.1644  0.0406 -2.5536
  288MOL0     H37989  10.982   6.845   9.063  3.5487  0.6201  1.6888
  288MOL0     H37990  11.105   6.655   8.947 -2.5794 -0.1519  2.2739
  288MOL0     H37991  11.181   6.755   9.077  1.8570 -1.0235 -0.2288
  288MOL0     H37992  11.305   6.891   8.886  3.6666 -0.5226 -1.9418
  288MOL0     H37993  11.235   6.771   8.778  2.2102  2.4421 -1.2291
  288MOL0     H37994  11.365   6.601   8.869 -1.4953  0.0393  1.1968
  288MOL0     H37995  11.460   6.748   8.824 -0.5343  3.7924  1.3980
  288MOL0     H37996  11.404   6.670   9.132  0.8170  1.4978  1.4067
  288MOL0     H37997  11.508   6.795   9.057 -1.0745  0.3016  0.9657
  288MOL0     H37998  10.526   6.857   8.829 -1.1230 -0.8333  0.1582
  288MOL0     H37999  10.307   6.781   8.759  2.1869 -0.4734  0.9789
  288MOL0     H38000   9.828   7.133   8.467  1.9471 -0.4818 -4.3503
  288MOL0     H38001   9.598   7.041   8.458  3.1373  2.8876 -1.2328
  288MOL0     H38002   9.195   5.322   9.381  5.2218 -2.4230 -2.9524
  288MOL0     H38003   9.113   5.103   9.366 -1.0827  2.7087  1.6452
  288MOL0     H38004   8.811   4.824   9.225 -0.6602 -0.8382 -1.2257
  288MOL0     H38005   8.747   4.612   9.247  1.5511 -4.0910  2.1685
  288MOL0     H38006   8.679   4.404   9.173  0.0571  0.0069 -0.0893
  288MOL0     H38007   8.784   4.370   9.319  1.3663 -0.6030 -0.2969
  288MOL0     H38008   8.835   4.137   9.243 -1.6288 -3.1017 -3.1041
  288MOL0     H38009   8.671   4.180   9.298 -0.1701  0.5612 -0.2658
  288MOL0     H38010   8.774   4.139   9.023 -0.6199  0.9382 -0.1961
  288MOL0     H38011   8.601   4.196   9.055 -1.0001 -1.2567 -0.5988
  288MOL0     H38012   8.639   3.959   9.008  3.5287 -0.5618  0.6863
  288MOL0     H38013   8.717   3.941   9.155  1.0830 -1.4848 -2.7343
  288MOL0     H38014   8.301   4.019   9.257  0.3886 -0.7481  1.4289
  288MOL0     H38015   9.049   4.464   8.998 -1.3983  0.7204 -1.5445
  288MOL0     H38016   9.137   4.685   8.964  0.1492 -3.3383  1.7037
  289MOL0     O38017   1.647   5.136   1.446  0.1550 -0.1799  0.1547
  289MOL0     C38018   1.536   5.092   1.493  0.0472 -0.3750  0.7432
  289MOL0     O38019   1.518   5.030   1.604 -0.0166 -0.8639 -0.5415
  289MOL0     C38020   1.622   4.957   1.656 -0.0022 -0.0491 -0.3115
  289MOL0     C38021   1.651   4.963   1.789  0.3241 -0.2661  0.4663
  289MOL0     C38022   1.753   4.884   1.840 -0.3428  0.3272  0.1336
  289MOL0     C38023   1.835   4.804   1.758 -0.6159  0.2696 -0.2935
  289MOL0     O38024   1.936   4.719   1.812 -0.0181  0.8030  0.3306
  289MOL0     C38025   2.018   4.778   1.905  0.2343 -0.5628 -0.1949
  289MOL0     C38026   2.148   4.698   1.916  0.5413  1.5246 -0.4511
  289MOL0     C38027   2.250   4.715   1.799  0.1540 -0.1400 -0.1848
  289MOL0     C38028   2.321   4.589   1.734 -0.4384  0.6188  0.3421
  289MOL0     C38029   2.436   4.553   1.828 -0.8741 -0.0268  0.2623
  289MOL0     C38030   2.489   4.409   1.813  0.0852 -0.7977  0.1568
  289MOL0     C38031   2.640   4.399   1.863  0.4368 -0.5174 -0.4372
  289MOL0     C38032   2.675   4.249   1.887  0.1804  0.1411  0.3805
  289MOL0     N38033   2.798   4.231   1.970  0.1405 -1.4548 -0.1134
  289MOL0     C38034   2.909   4.310   1.963  0.2373  0.7309  0.2336
  289MOL0     C38035   2.993   4.259   2.057 -0.3276 -0.5518  0.4481
  289MOL0     C38036   3.130   4.318   2.082 -0.1136 -0.2321 -0.3006
  289MOL0     C38037   3.182   4.327   2.231  0.2153  0.0275 -0.3365
  289MOL0     C38038   3.202   4.473   2.271 -0.6094 -0.2902 -0.7490
  289MOL0     C38039   3.075   4.554   2.284 -0.4751 -0.5954  0.7749
  289MOL0     O38040   3.045   4.647   2.182  0.8592  0.9184 -0.0611
  289MOL0     C38041   2.920   4.696   2.162  0.0918  0.1506  0.4902
  289MOL0     C38042   2.848   4.753   2.270 -0.6161  0.9012  0.4420
  289MOL0     C38043   2.726   4.817   2.246 -1.3815 -0.3973 -0.1256
  289MOL0     C38044   2.665   4.831   2.113 -0.3052  0.2945  0.1459
  289MOL0     C38045   2.529   4.897   2.099  0.1970  0.1924  0.0929
  289MOL0     O38046   2.468   4.949   2.210  0.8031 -0.2965 -0.5144
  289MOL0     C38047   2.344   5.002   2.206  0.2170 -0.1455 -0.3531
  289MOL0     C38048   2.274   5.068   2.096 -0.7558 -0.2069 -0.6240
  289MOL0     C38049   2.142   5.115   2.109  0.0934 -0.5013 -0.0109
  289MOL0     C38050   2.075   5.098   2.231 -0.5734 -0.2327 -0.0514
  289MOL0     O38051   1.945   5.145   2.240  0.3911  0.5608  1.1796
  289MOL0     C38052   1.867   5.103   2.347 -0.7258  1.0811 -0.1656
  289MOL0     C38053   1.727   5.151   2.335 -0.4594 -0.5479  0.2253
  289MOL0     C38054   1.657   5.114   2.204  1.0079  0.4114 -0.2369
  289MOL0     C38055   1.518   5.173   2.197 -0.0774 -0.4473  0.1264
  289MOL0     C38056   1.434   5.101   2.095  0.6566 -0.5725  1.0732
  289MOL0     C38057   1.279   5.109   2.120 -0.5900  0.4866 -0.9408
  289MOL0     C38058   1.212   5.157   1.994  0.6574  1.4925  0.4207
  289MOL0     C38059   1.246   5.090   1.857 -0.1059  0.3335 -0.8242
  289MOL0    Cl38060   1.256   4.909   1.858 -0.3672 -0.3884  0.2405
  289MOL0     C38061   2.151   5.041   2.340  0.6479  0.5900  0.3373
  289MOL0     C38062   2.274   4.987   2.324 -0.2247 -0.5978  0.8300
  289MOL0     O38063   2.478   4.885   1.983 -0.2032 -1.1927 -0.8898
  289MOL0     C38064   2.736   4.759   2.016  0.0901  0.1533  0.4594
  289MOL0     C38065   2.857   4.697   2.034  0.3708  0.1782 -0.8694
  289MOL0     N38066   2.925   4.160   2.119  0.1810 -0.6618 -0.2601
  289MOL0     N38067   2.806   4.153   2.081  0.1233 -0.2736  0.5149
  289MOL0     C38068   1.801   4.793   1.623  1.0897  0.7814 -0.8745
  289MOL0     C38069   1.694   4.871   1.577  0.2108  0.4129  0.4736
  289MOL0     C38070   1.406   5.123   1.416  0.5565 -0.2009 -0.2446
  289MOL0     C38071   1.404   5.209   1.306 -0.7599 -0.4904  0.3755
  289MOL0     C38072   1.296   5.229   1.234  0.9463 -0.2907 -1.1748
  289MOL0     C38073   1.177   5.169   1.275 -0.4252  0.8167  0.1920
  289MOL0     O38074   1.048   5.179   1.223 -0.1821 -0.1269 -0.3799
  289MOL0     C38075   1.018   5.286   1.133  0.6022  0.7921  0.6472
  289MOL0     C38076   0.957   5.390   1.224 -0.8161  0.8162 -0.7336
  289MOL0     C38077   0.929   5.516   1.149  1.2160  0.3036 -0.2882
  289MOL0     C38078   1.049   5.603   1.112 -0.2938 -0.6019 -0.6009
  289MOL0     C38079   1.006   5.701   1.012  0.5824 -0.7372 -0.9258
  289MOL0     C38080   0.962   5.779   0.939 -0.3853 -0.5498 -0.0784
  289MOL0     C38081   1.173   5.084   1.385  0.0126  0.6375  0.2042
  289MOL0     C38082   1.287   5.062   1.455  0.4791  0.0230 -0.4661
  289MOL0     H38083   1.591   5.026   1.854  1.0238 -0.6832  1.5390
  289MOL0     H38084   1.777   4.893   1.945 -0.1022 -0.2187  0.1274
  289MOL0     H38085   1.974   4.768   2.005 -2.0206  1.3995 -0.8895
  289MOL0     H38086   2.036   4.884   1.886 -1.7196 -0.3669 -1.3047
  289MOL0     H38087   2.136   4.591   1.933 -0.1359  1.4892 -1.0795
  289MOL0     H38088   2.193   4.722   2.012  2.6345  0.8086 -1.2030
  289MOL0     H38089   2.330   4.781   1.832  0.5688 -0.2533 -0.9233
  289MOL0     H38090   2.197   4.767   1.718 -0.5450 -3.0161 -1.7399
  289MOL0     H38091   2.239   4.518   1.732 -0.3531  0.5158  0.5117
  289MOL0     H38092   2.368   4.604   1.637  5.1121  0.1334  2.5873
  289MOL0     H38093   2.409   4.583   1.929 -2.2483  2.4934 -0.7643
  289MOL0     H38094   2.514   4.627   1.809 -2.9241  3.8014  4.7327
  289MOL0     H38095   2.481   4.376   1.709 -0.3693  0.6596 -0.3011
  289MOL0     H38096   2.422   4.344   1.870 -2.7310  1.9776  0.2926
  289MOL0     H38097   2.709   4.446   1.793 -3.1891  1.3741 -3.0689
  289MOL0     H38098   2.650   4.457   1.955 -0.4107 -2.5165  1.0216
  289MOL0     H38099   2.684   4.210   1.785 -0.0215 -1.2892  0.8884
  289MOL0     H38100   2.590   4.213   1.945 -1.8459  3.9555  0.0697
  289MOL0     H38101   2.924   4.386   1.888  0.9629  0.8168  0.4609
  289MOL0     H38102   3.130   4.418   2.037  3.3844  0.4180  0.8670
  289MOL0     H38103   3.199   4.254   2.026  2.8810  1.6686  0.9466
  289MOL0     H38104   3.275   4.269   2.241 -0.7059 -1.0559  4.6054
  289MOL0     H38105   3.109   4.271   2.290 -0.0044 -0.7534 -1.3257
  289MOL0     H38106   3.258   4.479   2.365 -0.6643 -0.5658 -0.6976
  289MOL0     H38107   3.263   4.514   2.190 -0.2693 -2.7338 -1.8258
  289MOL0     H38108   3.088   4.599   2.383 -0.0193 -0.6640  0.7462
  289MOL0     H38109   2.998   4.476   2.286  0.3327 -1.3925  1.5597
  289MOL0     H38110   2.889   4.769   2.369 -1.2318  5.4391  0.1676
  289MOL0     H38111   2.694   4.870   2.335 -0.0040  0.0381  0.1470
  289MOL0     H38112   2.323   5.091   2.001  0.0648  2.0235  0.2672
  289MOL0     H38113   2.103   5.166   2.021 -1.4975  0.6651  1.3198
  289MOL0     H38114   1.917   5.152   2.431  1.5967 -1.5817  0.1587
  289MOL0     H38115   1.870   4.994   2.353  1.1184  0.8599 -3.1849
  289MOL0     H38116   1.718   5.259   2.350 -1.1513 -0.5520 -0.1078
  289MOL0     H38117   1.670   5.114   2.421  1.7455  0.7535  2.3769
  289MOL0     H38118   1.647   5.005   2.204  1.8946  0.3193 -0.2043
  289MOL0     H38119   1.712   5.142   2.113  0.4320 -0.4171 -0.8581
  289MOL0     H38120   1.464   5.175   2.292 -2.4326 -1.3178 -1.1218
  289MOL0     H38121   1.525   5.279   2.172  0.6336 -0.9025 -1.8227
  289MOL0     H38122   1.458   4.995   2.101  3.8995 -0.1673 -1.6135
  289MOL0     H38123   1.463   5.140   1.996 -0.5190  3.6555  2.1725
  289MOL0     H38124   1.260   5.171   2.208  0.7230 -1.2620  0.6715
  289MOL0     H38125   1.220   5.017   2.129 -7.0930  3.9611 -2.0714
  289MOL0     H38126   1.106   5.131   2.007  0.7504 -0.3396 -1.8944
  289MOL0     H38127   1.227   5.265   1.987  1.1273  1.5676  2.2440
  289MOL0     H38128   1.340   5.118   1.809 -0.5217  1.7188 -0.8638
  289MOL0     H38129   1.173   5.128   1.785  0.1353  2.5976  0.0607
  289MOL0     H38130   2.115   5.032   2.442  1.0332  2.8321  0.7260
  289MOL0     H38131   2.330   4.950   2.409  1.6129  0.0466 -0.0325
  289MOL0     H38132   2.689   4.770   1.919  1.6780  3.8870 -0.0556
  289MOL0     H38133   2.902   4.664   1.941 -0.5774  0.2790 -1.3726
  289MOL0     H38134   1.856   4.719   1.565 -1.5300 -1.3957 -0.7687
  289MOL0     H38135   1.658   4.850   1.476 -0.9637 -1.3387  1.1961
  289MOL0     H38136   1.501   5.235   1.266  1.5744 -5.4395  1.9993
  289MOL0     H38137   1.304   5.307   1.159  2.0129  0.5090 -0.2716
  289MOL0     H38138   0.935   5.245   1.074  0.9824 -1.5277  1.6397
  289MOL0     H38139   1.106   5.299   1.068  0.4267 -0.7859  0.0665
  289MOL0     H38140   0.865   5.344   1.264 -0.9148  1.5418 -0.1175
  289MOL0     H38141   1.039   5.409   1.293 -2.3661  1.3106  1.0806
  289MOL0     H38142   0.869   5.583   1.211  1.3677  1.9144 -1.8025
  289MOL0     H38143   0.876   5.479   1.061 -0.6818 -0.1687  0.9914
  289MOL0     H38144   1.083   5.665   1.196  1.2416 -2.6674  0.3965
  289MOL0     H38145   1.133   5.537   1.087 -1.4287 -3.0388  1.5191
  289MOL0     H38146   0.923   5.841   0.861  1.8280 -0.7816 -1.4621
  289MOL0     H38147   1.077   5.044   1.416  1.7344 -3.0402  1.3239
  289MOL0     H38148   1.284   4.997   1.542  0.0563  2.6638  1.6290
  290MOL0     O38149   6.771   3.885  11.158 -0.6652  0.1605  0.6633
  290MOL0     C38150   6.853   3.801  11.115 -0.0478  0.8185 -0.0515
  290MOL0     O38151   6.961   3.762  11.181 -0.4400 -0.6840 -0.0738
  290MOL0     C38152   6.986   3.799  11.315 -0.4217  0.1076 -0.6646
  290MOL0     C38153   6.988   3.935  11.373 -0.5280  0.2813 -0.5635
  290MOL0     C38154   6.994   3.953  11.508  0.1567  0.3755 -1.6252
  290MOL0     C38155   6.991   3.836  11.594 -0.4760  0.2215 -0.1891
  290MOL0     O38156   6.983   3.855  11.733 -0.1535  0.5227 -0.2607
  290MOL0     C38157   7.069   3.947  11.794 -0.4156  0.3703 -0.8221
  290MOL0     C38158   6.999   3.968  11.943 -0.7316  0.2187  0.3638
  290MOL0     C38159   6.878   4.055  11.919  0.2223  0.2787 -0.2601
  290MOL0     C38160   6.810   4.067  12.055 -1.1358  0.2694  0.3209
  290MOL0     C38161   6.700   4.172  12.047  0.3677 -0.0594  0.6285
  290MOL0     C38162   6.749   4.320  12.056 -0.2473  0.8280  0.3097
  290MOL0     C38163   6.626   4.413  12.036  0.1985 -0.0019 -0.5210
  290MOL0     C38164   6.668   4.553  11.968  1.4832  0.6902 -0.4819
  290MOL0     N38165   6.771   4.615  12.048 -0.5547  0.3507 -0.5237
  290MOL0     C38166   6.896   4.645  12.005 -0.7746 -0.1073 -0.5391
  290MOL0     C38167   6.969   4.683  12.115  0.3254 -0.2390  0.8965
  290MOL0     C38168   7.108   4.722  12.091  0.5052  0.2554  1.1406
  290MOL0     C38169   7.122   4.869  12.062 -0.0882 -0.1690  0.7897
  290MOL0     C38170   7.277   4.899  12.059 -0.6576 -0.5160  0.2749
  290MOL0     C38171   7.307   5.049  12.062 -0.1258  0.2342  0.5387
  290MOL0     O38172   7.230   5.123  11.965 -0.2750  0.5817  0.2867
  290MOL0     C38173   7.267   5.257  11.957 -0.5909 -0.0075 -0.6467
  290MOL0     C38174   7.396   5.314  11.943 -0.1335  0.0855  0.9130
  290MOL0     C38175   7.415   5.450  11.908  0.0822  0.6800 -0.4171
  290MOL0     C38176   7.309   5.536  11.899 -0.4363  0.8631  0.0805
  290MOL0     C38177   7.339   5.681  11.874  0.5273 -1.0927 -0.4833
  290MOL0     O38178   7.464   5.730  11.877  0.2643 -0.6466  0.9139
  290MOL0     C38179   7.497   5.864  11.865 -0.8855  0.6784  0.1470
  290MOL0     C38180   7.419   5.977  11.853  0.2911 -0.0780  0.8857
  290MOL0     C38181   7.478   6.104  11.833  0.7585 -0.2347  0.0272
  290MOL0     C38182   7.615   6.133  11.826  0.0656  0.1853 -0.0261
  290MOL0     O38183   7.657   6.265  11.835  0.9481  0.1264  0.0934
  290MOL0     C38184   7.781   6.293  11.779  0.3147 -0.5417 -0.1889
  290MOL0     C38185   7.813   6.441  11.789  0.5664 -0.4833  1.0417
  290MOL0     C38186   7.702   6.533  11.728 -0.8667  1.0192 -0.2046
  290MOL0     C38187   7.768   6.660  11.684 -0.8026 -0.1738 -0.4497
  290MOL0     C38188   7.676   6.766  11.630 -0.3205 -1.0967  0.5225
  290MOL0     C38189   7.677   6.768  11.479  1.6060  0.7639  1.2475
  290MOL0     C38190   7.589   6.880  11.420  0.4392 -0.0861  0.4685
  290MOL0     C38191   7.566   6.866  11.265  0.2327 -0.1650  0.4147
  290MOL0    Cl38192   7.719   6.868  11.172 -0.0897  0.2928 -0.0201
  290MOL0     C38193   7.694   6.019  11.826  0.0643  0.7783 -0.2887
  290MOL0     C38194   7.631   5.890  11.856  0.2753 -0.4644  0.0936
  290MOL0     O38195   7.244   5.748  11.834 -0.1439  0.6996  0.4167
  290MOL0     C38196   7.183   5.483  11.910  0.1574  0.0694 -0.2199
  290MOL0     C38197   7.160   5.340  11.925  0.1695 -0.6111 -0.6655
  290MOL0     N38198   6.882   4.682  12.220  0.4706 -0.1442  0.5508
  290MOL0     N38199   6.768   4.649  12.183 -0.5372  0.2392  0.6691
  290MOL0     C38200   6.983   3.706  11.533 -0.2233 -0.8790 -0.0128
  290MOL0     C38201   6.979   3.695  11.396 -0.3056  0.2071 -0.4311
  290MOL0     C38202   6.831   3.754  10.978  0.1028 -0.1026  0.7662
  290MOL0     C38203   6.724   3.799  10.906 -0.9148 -0.2525  1.0791
  290MOL0     C38204   6.698   3.742  10.775 -0.0243 -0.0962  0.5330
  290MOL0     C38205   6.790   3.662  10.715  0.8810  0.1223 -0.2248
  290MOL0     O38206   6.784   3.609  10.593  0.1426  0.2595 -0.6555
  290MOL0     C38207   6.789   3.702  10.486 -0.3999  0.7653 -0.8765
  290MOL0     C38208   6.926   3.772  10.461  0.0946 -0.8474 -0.5117
  290MOL0     C38209   7.026   3.684  10.394 -0.6430  0.4199  0.4036
  290MOL0     C38210   7.170   3.723  10.414  0.3871  0.5629 -0.6470
  290MOL0     C38211   7.208   3.841  10.340  0.3985 -0.5827 -0.2533
  290MOL0     C38212   7.223   3.959  10.292 -0.0765  1.0427 -0.2511
  290MOL0     C38213   6.899   3.620  10.790 -0.5198 -0.0032 -0.1151
  290MOL0     C38214   6.922   3.669  10.919 -0.3662  0.5142  0.4118
  290MOL0     H38215   7.012   4.003  11.291 -2.0954  0.1659 -1.1674
  290MOL0     H38216   6.989   4.051  11.555  2.1256  0.0525 -0.6231
  290MOL0     H38217   7.062   4.048  11.754 -1.5641  0.6996  0.1494
  290MOL0     H38218   7.172   3.912  11.809  0.0738  2.0175 -0.1676
  290MOL0     H38219   7.065   4.017  12.015  0.0933  0.5408 -0.5733
  290MOL0     H38220   6.980   3.870  11.988  5.3732 -2.4873 -1.7371
  290MOL0     H38221   6.810   3.997  11.856 -1.1467  1.5614 -0.0362
  290MOL0     H38222   6.903   4.151  11.873  1.6847 -0.8965 -2.0504
  290MOL0     H38223   6.771   3.971  12.088 -1.2305  1.4603  4.2023
  290MOL0     H38224   6.884   4.106  12.126  0.5170  2.6239 -2.4298
  290MOL0     H38225   6.640   4.154  12.137 -1.5379 -1.7834 -0.8979
  290MOL0     H38226   6.634   4.159  11.961  1.4289 -1.2095 -0.0499
  290MOL0     H38227   6.821   4.333  11.975 -1.7380  1.2797 -0.9999
  290MOL0     H38228   6.807   4.351  12.143  1.9279  1.6537 -1.3462
  290MOL0     H38229   6.564   4.357  11.965  0.4949 -1.5526  0.3958
  290MOL0     H38230   6.577   4.421  12.134  4.0164  1.3935  1.4885
  290MOL0     H38231   6.571   4.602  11.978  0.1943 -1.6717 -0.6593
  290MOL0     H38232   6.690   4.538  11.862 -0.5664  2.6662 -1.2719
  290MOL0     H38233   6.937   4.616  11.909  0.2783 -0.3962 -0.0186
  290MOL0     H38234   7.152   4.666  12.008  1.5432  1.9334  0.5007
  290MOL0     H38235   7.159   4.690  12.182  3.1761 -3.7047 -1.4223
  290MOL0     H38236   7.073   4.929  12.138  2.2594  0.1202  2.1686
  290MOL0     H38237   7.067   4.892  11.970  0.3454 -1.6498  0.1071
  290MOL0     H38238   7.319   4.851  12.149  2.8566 -0.8123 -1.3511
  290MOL0     H38239   7.339   4.854  11.981 -1.3612  1.8167 -1.7081
  290MOL0     H38240   7.411   5.063  12.034 -0.9416  0.7237 -2.6475
  290MOL0     H38241   7.274   5.085  12.160  0.9071  0.9391  0.6455
  290MOL0     H38242   7.476   5.243  11.964  0.3756  0.4234  0.1638
  290MOL0     H38243   7.516   5.491  11.906  0.1146  0.8784  2.2701
  290MOL0     H38244   7.312   5.967  11.870  0.0351 -0.5764 -0.8732
  290MOL0     H38245   7.406   6.185  11.834  1.7627  0.7161 -0.8632
  290MOL0     H38246   7.789   6.262  11.674  3.4111  2.2555 -0.9564
  290MOL0     H38247   7.860   6.251  11.842  0.3600  0.5006  0.4598
  290MOL0     H38248   7.909   6.456  11.738 -0.1935 -0.6622 -0.4993
  290MOL0     H38249   7.819   6.463  11.896  1.5361 -0.2206  0.9464
  290MOL0     H38250   7.634   6.545  11.813 -1.3040 -0.1459 -0.3668
  290MOL0     H38251   7.625   6.494  11.660  0.8900 -2.6800 -0.2972
  290MOL0     H38252   7.828   6.704  11.764 -0.1777 -0.6487 -0.6499
  290MOL0     H38253   7.850   6.640  11.615  1.0638 -1.1544  1.9073
  290MOL0     H38254   7.715   6.856  11.678  0.0108 -1.2989  0.6382
  290MOL0     H38255   7.571   6.760  11.660 -0.2099  1.9154  1.8621
  290MOL0     H38256   7.654   6.676  11.424  1.3421  1.6846 -0.2103
  290MOL0     H38257   7.779   6.789  11.448  1.7491 -0.0348  1.1504
  290MOL0     H38258   7.495   6.894  11.476 -2.5053  0.1408 -4.0144
  290MOL0     H38259   7.651   6.970  11.420 -1.1089  1.1265 -2.1433
  290MOL0     H38260   7.505   6.949  11.227  1.5850  0.1501 -1.1683
  290MOL0     H38261   7.508   6.775  11.247  1.0618 -0.2985 -1.8612
  290MOL0     H38262   7.802   6.012  11.819  0.1003 -1.3485  1.2241
  290MOL0     H38263   7.697   5.806  11.836  3.9330  2.2060 -0.0660
  290MOL0     H38264   7.105   5.558  11.899 -0.5844 -0.8145 -1.1063
  290MOL0     H38265   7.065   5.286  11.931  0.9769 -1.9827  0.3979
  290MOL0     H38266   6.983   3.622  11.601 -0.1651  0.2642  1.4366
  290MOL0     H38267   6.976   3.595  11.354  0.1087  0.5744 -1.3615
  290MOL0     H38268   6.669   3.885  10.944  0.0048  0.6269  0.4891
  290MOL0     H38269   6.625   3.789  10.711  0.5100 -3.5220 -2.9844
  290MOL0     H38270   6.719   3.785  10.502 -0.9080  0.1806  0.0313
  290MOL0     H38271   6.767   3.641  10.398 -0.1031 -1.3093  0.4004
  290MOL0     H38272   6.911   3.862  10.400  0.1735  0.8748  1.8583
  290MOL0     H38273   6.965   3.825  10.549 -2.2581 -0.3763  0.3331
  290MOL0     H38274   6.994   3.668  10.291 -3.4380 -0.3998  1.2992
  290MOL0     H38275   7.017   3.582  10.435 -0.0318  0.9202  1.8654
  290MOL0     H38276   7.183   3.728  10.522 -0.5511  1.0635 -0.5428
  290MOL0     H38277   7.222   3.637  10.370 -2.2419  0.3467 -3.7467
  290MOL0     H38278   7.219   4.060  10.257 -2.1274  1.5606  1.2653
  290MOL0     H38279   6.977   3.556  10.752 -2.9387 -2.1075 -1.8348
  290MOL0     H38280   6.993   3.605  10.970 -0.0385  1.4472  1.1514
  291MOL0     O38281  10.595  11.016   3.630 -0.0018 -0.0973 -0.5200
  291MOL0     C38282  10.475  11.027   3.632  0.1269 -0.8643 -0.4967
  291MOL0     O38283  10.392  10.917   3.596 -0.0798 -1.2612  0.7608
  291MOL0     C38284  10.267  10.934   3.558  0.1295 -1.1582 -1.0656
  291MOL0     C38285  10.226  11.031   3.456 -0.2100  0.0657  0.3814
  291MOL0     C38286  10.088  11.035   3.417 -0.0276 -0.3049 -0.4810
  291MOL0     C38287   9.992  10.936   3.460 -0.5591  0.7244 -0.0915
  291MOL0     O38288   9.861  10.945   3.420 -1.2641  0.2420 -0.4198
  291MOL0     C38289   9.767  10.852   3.464 -0.0463  0.4640 -1.3228
  291MOL0     C38290   9.631  10.908   3.434  0.4697 -0.0864  0.6080
  291MOL0     C38291   9.527  10.817   3.493  0.3759 -0.8404  0.5866
  291MOL0     C38292   9.390  10.876   3.476  0.5803  0.2898 -0.4859
  291MOL0     C38293   9.291  10.769   3.523  0.1788 -0.5608  0.0383
  291MOL0     C38294   9.306  10.722   3.673 -0.4511 -0.6041 -0.0371
  291MOL0     C38295   9.199  10.617   3.711 -0.4770  0.4332 -0.4535
  291MOL0     C38296   9.226  10.547   3.846 -0.1050  0.3867 -0.7084
  291MOL0     N38297   9.215  10.633   3.960 -0.1382  0.1107  1.0837
  291MOL0     C38298   9.119  10.739   3.967  0.0025  0.1237  0.2493
  291MOL0     C38299   9.149  10.800   4.074 -0.9271  0.1950 -0.6639
  291MOL0     C38300   9.056  10.895   4.139 -0.7100  0.3413  0.0295
  291MOL0     C38301   9.128  10.982   4.236 -0.4121  1.1506  0.0018
  291MOL0     C38302   9.050  11.109   4.259 -0.5119  0.3581  0.0260
  291MOL0     C38303   8.946  11.078   4.366 -0.3381  0.2426  0.0430
  291MOL0     O38304   9.026  11.056   4.480 -0.1414  0.7778  0.8209
  291MOL0     C38305   8.975  11.020   4.604  0.9818 -0.5920 -0.0675
  291MOL0     C38306   8.838  11.003   4.637  1.2881  1.3850  0.2139
  291MOL0     C38307   8.799  10.965   4.763  0.1822 -0.5966  0.1512
  291MOL0     C38308   8.891  10.944   4.866  0.3304 -0.7239 -1.3178
  291MOL0     C38309   8.857  10.926   5.008  0.3756  0.6534  0.4950
  291MOL0     O38310   8.733  10.860   5.040 -0.7769  0.4889 -0.2070
  291MOL0     C38311   8.698  10.829   5.176 -0.7392  0.2697  0.4516
  291MOL0     C38312   8.729  10.922   5.283  0.4640 -0.8052  0.4365
  291MOL0     C38313   8.670  10.903   5.404 -0.3925  0.5356 -0.7431
  291MOL0     C38314   8.581  10.793   5.426  0.3046 -0.4160 -0.6982
  291MOL0     O38315   8.507  10.764   5.539 -0.0183 -0.5351 -0.3148
  291MOL0     C38316   8.489  10.878   5.625  0.7170 -0.8694  0.2311
  291MOL0     C38317   8.471  10.796   5.758  0.8280 -0.9903  0.2161
  291MOL0     C38318   8.358  10.683   5.772  0.4534 -0.2450 -1.2097
  291MOL0     C38319   8.329  10.644   5.919  0.1270 -0.6805  0.0833
  291MOL0     C38320   8.259  10.514   5.934  0.4317  0.1966 -0.7544
  291MOL0     C38321   8.254  10.455   6.082  1.0369 -0.0236  0.4866
  291MOL0     C38322   8.179  10.320   6.087 -0.1970 -0.1664 -0.1902
  291MOL0     C38323   8.165  10.249   6.221  0.2887 -0.3451 -1.2769
  291MOL0    Cl38324   8.302  10.248   6.326 -0.3799 -0.0833  0.4620
  291MOL0     C38325   8.555  10.706   5.323 -0.1511  0.5795 -0.5334
  291MOL0     C38326   8.607  10.716   5.195  0.3276 -0.9904  0.8455
  291MOL0     O38327   8.945  10.946   5.090 -0.0335 -0.7319  0.9289
  291MOL0     C38328   9.026  10.955   4.829 -0.1230 -0.4101 -0.5457
  291MOL0     C38329   9.071  10.985   4.701  0.0415  0.0065 -0.7547
  291MOL0     N38330   9.262  10.743   4.129  0.1013  0.0705 -0.4513
  291MOL0     N38331   9.308  10.637   4.063  0.4664  0.4053 -0.6225
  291MOL0     C38332  10.040  10.836   3.550  0.2582 -0.2598  0.1248
  291MOL0     C38333  10.171  10.837   3.599 -0.6470 -0.1308  0.3619
  291MOL0     C38334  10.430  11.171   3.624 -0.2546  0.5855  0.3020
  291MOL0     C38335  10.327  11.212   3.704  0.4876  0.5600  1.2678
  291MOL0     C38336  10.294  11.344   3.724 -0.0946  0.6591  0.3662
  291MOL0     C38337  10.359  11.442   3.653 -0.2426  0.0219 -0.0472
  291MOL0     O38338  10.327  11.574   3.680 -0.1556  0.0455 -0.3818
  291MOL0     C38339  10.420  11.680   3.664  0.7379 -0.5511 -0.5548
  291MOL0     C38340  10.339  11.817   3.687 -0.3161  0.9490 -0.1474
  291MOL0     C38341  10.284  11.888   3.564 -0.5715 -0.4069  1.2358
  291MOL0     C38342  10.186  11.997   3.613 -0.8505  0.8143 -1.1471
  291MOL0     C38343  10.155  12.101   3.510  0.1571  1.1673  1.8265
  291MOL0     C38344  10.139  12.174   3.409  0.6083 -0.2305  0.9111
  291MOL0     C38345  10.466  11.408   3.564 -0.3155 -0.3985  0.0163
  291MOL0     C38346  10.497  11.271   3.548 -0.2646  0.0311  0.5321
  291MOL0     H38347  10.297  11.099   3.410  0.7707 -2.5040 -2.1430
  291MOL0     H38348  10.058  11.116   3.351 -0.9166 -0.6360 -0.4939
  291MOL0     H38349   9.784  10.830   3.569  1.5212  3.5289 -0.8272
  291MOL0     H38350   9.775  10.760   3.405 -1.9887  0.1060 -1.0998
  291MOL0     H38351   9.642  10.928   3.327  3.1097  1.1939  1.0251
  291MOL0     H38352   9.620  11.009   3.474  1.9318  0.2533  0.2365
  291MOL0     H38353   9.545  10.803   3.600 -3.8339 -2.8696  1.2168
  291MOL0     H38354   9.541  10.722   3.441  1.2899  0.6856 -2.1552
  291MOL0     H38355   9.383  10.962   3.543  2.2357 -0.5684  0.8448
  291MOL0     H38356   9.362  10.916   3.378 -2.8741 -1.4685 -0.3685
  291MOL0     H38357   9.309  10.676   3.468 -0.1972  0.4809 -1.9211
  291MOL0     H38358   9.189  10.800   3.501  0.5854 -0.4204 -1.8075
  291MOL0     H38359   9.285  10.807   3.739  2.6156  0.0532  0.2647
  291MOL0     H38360   9.403  10.680   3.699 -0.8696 -2.4275 -1.3039
  291MOL0     H38361   9.101  10.665   3.704  0.7605  3.1574 -0.3493
  291MOL0     H38362   9.200  10.550   3.625 -1.3666  3.0906 -2.7030
  291MOL0     H38363   9.327  10.507   3.835 -0.7837 -0.7155 -5.2172
  291MOL0     H38364   9.153  10.465   3.846 -0.6390  0.8528 -0.3194
  291MOL0     H38365   9.031  10.767   3.910  1.8882 -0.2133 -3.0409
  291MOL0     H38366   8.987  10.837   4.201  2.3332 -0.7160  2.6928
  291MOL0     H38367   8.993  10.950   4.068  0.0683 -2.2931 -2.9059
  291MOL0     H38368   9.229  11.004   4.200 -1.5324  0.2497 -4.2092
  291MOL0     H38369   9.124  10.913   4.321 -2.6335  1.4848  0.2331
  291MOL0     H38370   9.120  11.187   4.291  1.3545  0.0102 -2.8810
  291MOL0     H38371   9.007  11.138   4.163  2.4938  0.5384 -1.4036
  291MOL0     H38372   8.876  11.001   4.332 -2.5889  1.4284  1.7292
  291MOL0     H38373   8.879  11.163   4.387 -2.1022 -1.1796  0.3839
  291MOL0     H38374   8.761  10.999   4.561  0.1094  3.5970  1.2040
  291MOL0     H38375   8.696  10.957   4.798 -0.1622  4.0662  0.8890
  291MOL0     H38376   8.788  11.010   5.258  0.0416  0.0062  2.1658
  291MOL0     H38377   8.707  10.967   5.484 -0.4500  0.2383 -0.4786
  291MOL0     H38378   8.412  10.948   5.590  0.2672 -2.0119 -1.1686
  291MOL0     H38379   8.581  10.936   5.638 -0.9629  1.5238  2.1707
  291MOL0     H38380   8.441  10.862   5.840 -1.2645  0.9129 -1.9106
  291MOL0     H38381   8.566  10.751   5.788  1.0046 -1.8906 -1.5656
  291MOL0     H38382   8.389  10.608   5.699  1.1986  1.6266 -2.9109
  291MOL0     H38383   8.259  10.712   5.736  0.7453 -1.8353 -3.4621
  291MOL0     H38384   8.426  10.631   5.969  0.1200 -0.5334  0.1322
  291MOL0     H38385   8.272  10.717   5.976  2.5662  1.1954  0.2896
  291MOL0     H38386   8.304  10.443   5.864  0.0374  0.4745 -1.2990
  291MOL0     H38387   8.156  10.520   5.897  0.1793  0.5914  0.0080
  291MOL0     H38388   8.200  10.527   6.144 -1.3632  2.0224 -3.5916
  291MOL0     H38389   8.354  10.450   6.127  2.5642  2.6985 -2.1903
  291MOL0     H38390   8.080  10.338   6.043 -0.7909 -2.8219 -0.1096
  291MOL0     H38391   8.224  10.248   6.017  1.4092  1.7982 -1.3064
  291MOL0     H38392   8.129  10.148   6.200  2.0935 -1.3970  0.3600
  291MOL0     H38393   8.084  10.305   6.268 -0.1839 -0.3813 -2.0287
  291MOL0     H38394   8.487  10.626   5.348 -1.6499  2.1178  0.5037
  291MOL0     H38395   8.578  10.646   5.117  3.0854  0.2024 -1.4125
  291MOL0     H38396   9.109  10.939   4.897 -0.3307 -2.8716 -0.8136
  291MOL0     H38397   9.176  10.988   4.675  0.6434 -2.1539  1.0901
  291MOL0     H38398   9.976  10.763   3.599 -0.9266  2.6063  3.1754
  291MOL0     H38399  10.202  10.755   3.663  1.3243 -0.9294 -1.4846
  291MOL0     H38400  10.278  11.136   3.764  3.0681 -0.3621  2.3702
  291MOL0     H38401  10.213  11.361   3.793 -1.5624 -1.0143 -0.8539
  291MOL0     H38402  10.471  11.679   3.567  1.1584  4.6137 -0.7000
  291MOL0     H38403  10.497  11.661   3.739  0.0771 -2.6906 -0.3734
  291MOL0     H38404  10.255  11.779   3.745  1.1252 -0.0963  1.3763
  291MOL0     H38405  10.398  11.879   3.755  3.3200 -1.6535 -0.6319
  291MOL0     H38406  10.238  11.809   3.504  0.4613 -2.3274  2.8667
  291MOL0     H38407  10.363  11.934   3.503 -0.0657 -4.5136 -1.6136
  291MOL0     H38408  10.089  11.961   3.648  0.7558 -0.9251  1.9715
  291MOL0     H38409  10.230  12.048   3.699  0.1100  1.5746 -2.0712
  291MOL0     H38410  10.130  12.231   3.318 -3.7672 -0.7156  0.8505
  291MOL0     H38411  10.527  11.485   3.518 -0.0888 -0.2763  0.5175
  291MOL0     H38412  10.560  11.234   3.468 -2.8438 -4.3322  0.1856
  292MOL0     O38413   8.810   3.998   7.549 -0.6977  0.2329 -0.5809
  292MOL0     C38414   8.863   3.993   7.660  0.5378  0.7051 -0.0478
  292MOL0     O38415   8.854   4.089   7.767 -0.1505 -0.0986  0.0499
  292MOL0     C38416   8.742   4.165   7.786 -0.7622 -0.0069 -0.4137
  292MOL0     C38417   8.616   4.157   7.724 -1.3850  0.5418 -0.2734
  292MOL0     C38418   8.515   4.237   7.768 -0.5888  0.8031  0.6033
  292MOL0     C38419   8.541   4.342   7.863 -0.0480  0.1326  0.0916
  292MOL0     O38420   8.445   4.422   7.915 -0.0330 -0.1315  0.3573
  292MOL0     C38421   8.296   4.403   7.897  0.0589  0.5692 -0.3956
  292MOL0     C38422   8.220   4.511   7.980 -0.6359 -0.0366  0.1416
  292MOL0     C38423   8.068   4.499   7.960 -0.4601  0.2924  0.5619
  292MOL0     C38424   7.988   4.591   8.054 -1.2573  0.1171  0.8044
  292MOL0     C38425   8.042   4.733   8.065 -0.0254  0.4716  0.4775
  292MOL0     C38426   8.001   4.807   7.939  0.5423 -0.3691 -0.9694
  292MOL0     C38427   8.057   4.948   7.950  0.6946 -0.0598  0.4766
  292MOL0     C38428   7.950   5.058   7.913  0.2098  0.4637 -0.8765
  292MOL0     N38429   7.891   5.044   7.777 -0.0341 -0.2222  0.5852
  292MOL0     C38430   7.766   4.990   7.741 -0.7081  1.3032 -0.3657
  292MOL0     C38431   7.773   4.986   7.605 -0.2988 -0.0109  0.1614
  292MOL0     C38432   7.660   4.937   7.518  0.7624 -0.2854  0.0658
  292MOL0     C38433   7.556   4.845   7.583  1.4028 -0.5883  0.5792
  292MOL0     C38434   7.452   4.786   7.483  0.4018  0.4101  0.4726
  292MOL0     C38435   7.382   4.895   7.403  0.6328 -0.7290 -0.8161
  292MOL0     O38436   7.269   4.830   7.336  0.6612  0.2596 -0.1275
  292MOL0     C38437   7.149   4.854   7.391 -0.2682  0.4345 -0.5550
  292MOL0     C38438   7.124   4.862   7.531  0.5943  0.7777  1.1572
  292MOL0     C38439   7.002   4.909   7.577 -0.3129 -0.7790 -0.6496
  292MOL0     C38440   6.906   4.957   7.484 -0.3122  0.5264  0.2812
  292MOL0     C38441   6.770   5.015   7.523  0.7162  0.4816  0.2221
  292MOL0     O38442   6.764   5.070   7.646 -1.0999  0.4249  0.3287
  292MOL0     C38443   6.636   5.075   7.694  0.6851 -0.1836 -0.9709
  292MOL0     C38444   6.559   4.958   7.699 -0.7005  0.2106  0.0974
  292MOL0     C38445   6.435   4.958   7.746  0.9062 -0.0337  0.1979
  292MOL0     C38446   6.373   5.079   7.779  0.3071  0.5027 -0.3523
  292MOL0     O38447   6.249   5.070   7.828  0.3585  0.2482  0.0124
  292MOL0     C38448   6.169   5.185   7.831  0.0649 -0.4209  0.5598
  292MOL0     C38449   6.056   5.161   7.920  1.2612  1.3963  0.3304
  292MOL0     C38450   5.960   5.278   7.906  0.0889 -0.1390  0.0508
  292MOL0     C38451   5.843   5.288   8.009 -0.9797  0.0016 -0.4503
  292MOL0     C38452   5.753   5.416   7.992  0.4834  0.1648  0.5893
  292MOL0     C38453   5.649   5.418   8.106 -0.1997 -1.2604 -0.7968
  292MOL0     C38454   5.533   5.512   8.082  0.2252  0.5429  0.4581
  292MOL0     C38455   5.442   5.518   8.206 -0.6728  0.1678  0.4274
  292MOL0    Cl38456   5.302   5.625   8.179  0.0071  0.4168  0.1236
  292MOL0     C38457   6.449   5.195   7.779 -0.4151  0.7611  0.2517
  292MOL0     C38458   6.581   5.195   7.739 -0.5642 -0.4224 -0.3662
  292MOL0     O38459   6.685   5.020   7.436  0.4004  0.6722  0.3487
  292MOL0     C38460   6.936   4.941   7.346  0.6992 -0.2754 -0.2981
  292MOL0     C38461   7.059   4.896   7.300 -0.0168  0.7384 -1.0757
  292MOL0     N38462   7.897   5.042   7.569 -0.3689 -0.0326  1.2361
  292MOL0     N38463   7.966   5.071   7.667 -0.2007  0.2480 -0.0634
  292MOL0     C38464   8.665   4.372   7.907 -0.4141  0.9054 -0.8795
  292MOL0     C38465   8.767   4.279   7.870  0.7982 -1.0077  0.7668
  292MOL0     C38466   8.977   3.901   7.663  0.7357  0.0381  0.5708
  292MOL0     C38467   9.006   3.806   7.552  0.8590 -1.2552 -1.4566
  292MOL0     C38468   9.125   3.737   7.561 -1.1614 -0.0159  0.1034
  292MOL0     C38469   9.218   3.734   7.661 -0.1636 -0.2757  1.4863
  292MOL0     O38470   9.330   3.651   7.644  0.2570  0.0355  0.0733
  292MOL0     C38471   9.397   3.586   7.756  0.1283  0.1391  0.4844
  292MOL0     C38472   9.321   3.470   7.825  0.3643  0.5860  0.4796
  292MOL0     C38473   9.225   3.396   7.732  0.0675  0.0477  0.7279
  292MOL0     C38474   9.290   3.291   7.659 -0.1744  0.5501 -0.3086
  292MOL0     C38475   9.191   3.216   7.575  0.4527  0.8497  0.6543
  292MOL0     C38476   9.121   3.160   7.489  0.5890  0.1702  0.2515
  292MOL0     C38477   9.199   3.826   7.763 -0.3048 -0.5287 -0.2226
  292MOL0     C38478   9.078   3.906   7.763 -0.6988 -0.3989  0.2374
  292MOL0     H38479   8.606   4.078   7.650  2.1760 -0.1455 -0.2268
  292MOL0     H38480   8.418   4.226   7.720  0.6151  0.2962 -1.8910
  292MOL0     H38481   8.266   4.302   7.924 -0.6128  0.3821 -1.7488
  292MOL0     H38482   8.272   4.403   7.790  1.6197  1.4800 -0.7799
  292MOL0     H38483   8.245   4.610   7.942  1.5740 -0.9159 -0.8831
  292MOL0     H38484   8.256   4.512   8.083  0.1595  2.1237 -0.1053
  292MOL0     H38485   8.044   4.393   7.975  1.5580 -0.2488  0.2288
  292MOL0     H38486   8.030   4.522   7.860 -2.1674  2.6089  1.6637
  292MOL0     H38487   7.885   4.590   8.017 -0.4255 -1.5689 -1.7395
  292MOL0     H38488   7.988   4.549   8.156 -0.2961 -0.4904  0.5716
  292MOL0     H38489   8.149   4.725   8.084  0.1103 -1.0208 -0.7264
  292MOL0     H38490   7.996   4.778   8.154  0.0481  0.0280  0.7385
  292MOL0     H38491   7.896   4.802   7.911  0.8576  0.2219 -2.3166
  292MOL0     H38492   8.053   4.768   7.851 -1.2646  2.3415 -3.3991
  292MOL0     H38493   8.095   4.971   8.050 -0.3133 -0.9534  1.0779
  292MOL0     H38494   8.147   4.958   7.888 -0.0007  1.1724 -0.3691
  292MOL0     H38495   7.991   5.157   7.937 -0.4184  0.1293  2.0384
  292MOL0     H38496   7.862   5.055   7.978  0.4574 -0.8490 -0.5684
  292MOL0     H38497   7.689   4.938   7.796 -0.4941  1.6522  0.2815
  292MOL0     H38498   7.700   4.892   7.427  0.9440  0.5307 -0.2651
  292MOL0     H38499   7.602   5.028   7.499 -0.0270 -0.7079  0.4220
  292MOL0     H38500   7.504   4.903   7.660 -0.8333 -0.7395 -0.7140
  292MOL0     H38501   7.596   4.758   7.636  1.4814 -0.2982  1.0018
  292MOL0     H38502   7.507   4.720   7.415  1.2176  0.6145  0.9256
  292MOL0     H38503   7.377   4.720   7.529  0.8394 -0.8135 -0.5023
  292MOL0     H38504   7.448   4.942   7.330  0.5236  0.8801  0.0848
  292MOL0     H38505   7.348   4.964   7.480 -0.1850 -3.3432  1.3382
  292MOL0     H38506   7.200   4.838   7.605  2.3491  1.1079 -0.4610
  292MOL0     H38507   6.993   4.905   7.685 -0.5743  1.0245 -0.5691
  292MOL0     H38508   6.612   4.866   7.676  0.0538  0.8569 -0.8460
  292MOL0     H38509   6.377   4.871   7.775  2.6560 -0.1597  3.8552
  292MOL0     H38510   6.141   5.210   7.728 -0.0028 -1.4008  0.3281
  292MOL0     H38511   6.230   5.259   7.884  3.6351 -3.9402  1.8474
  292MOL0     H38512   6.076   5.135   8.024  0.2503 -0.7140  0.0440
  292MOL0     H38513   5.982   5.093   7.877 -0.3591  0.5313  4.0539
  292MOL0     H38514   5.912   5.272   7.808  0.8432  2.2575 -0.5385
  292MOL0     H38515   6.019   5.370   7.904  2.3327 -1.3325  3.2810
  292MOL0     H38516   5.781   5.198   8.009 -0.6983 -0.1955 -0.0050
  292MOL0     H38517   5.889   5.300   8.108  1.3160  2.3846 -1.6681
  292MOL0     H38518   5.696   5.418   7.899 -2.9888  1.5879  2.5294
  292MOL0     H38519   5.812   5.508   8.004 -0.1587  0.4359  1.7958
  292MOL0     H38520   5.697   5.433   8.203 -2.8287  1.1046  0.2849
  292MOL0     H38521   5.603   5.319   8.110 -1.4301 -0.6791 -0.2225
  292MOL0     H38522   5.570   5.613   8.062  5.1556 -1.3839 -1.7414
  292MOL0     H38523   5.477   5.498   7.989  0.4403 -1.5993  0.5861
  292MOL0     H38524   5.481   5.546   8.304 -1.5621  2.6583  0.1263
  292MOL0     H38525   5.411   5.414   8.224  2.5971 -0.7414  1.5435
  292MOL0     H38526   6.415   5.297   7.797 -0.8663  0.3265  2.0348
  292MOL0     H38527   6.636   5.288   7.742  4.0757 -2.8542  3.0007
  292MOL0     H38528   6.849   4.946   7.282  0.7327 -4.5262 -0.9615
  292MOL0     H38529   7.079   4.911   7.194  1.8499 -1.3212 -1.1024
  292MOL0     H38530   8.688   4.459   7.967  1.7681  1.0199 -1.7966
  292MOL0     H38531   8.872   4.299   7.891  0.9721  1.2331 -1.7561
  292MOL0     H38532   8.939   3.792   7.468 -2.5127 -3.4747  1.3274
  292MOL0     H38533   9.152   3.673   7.478  1.7094 -0.9951  1.6851
  292MOL0     H38534   9.418   3.656   7.837  0.1094  0.1352  0.4931
  292MOL0     H38535   9.487   3.550   7.707  0.5008 -0.0074  1.2544
  292MOL0     H38536   9.393   3.402   7.872 -1.8199 -0.9488  1.8469
  292MOL0     H38537   9.262   3.514   7.907 -1.4324 -1.8427  0.6127
  292MOL0     H38538   9.167   3.458   7.663 -0.4394 -3.4240 -2.2685
  292MOL0     H38539   9.156   3.343   7.798 -3.0101  1.4541 -1.1486
  292MOL0     H38540   9.370   3.331   7.596  0.2173  1.4393  0.7290
  292MOL0     H38541   9.334   3.230   7.738  0.5245 -0.4254 -1.4117
  292MOL0     H38542   9.059   3.099   7.427  0.3438 -0.4048  1.0433
  292MOL0     H38543   9.255   3.849   7.853 -2.2322  4.0769  0.1202
  292MOL0     H38544   9.056   3.973   7.845 -1.8019 -0.0433 -0.3369
  293MOL0     O38545   6.342   7.549   4.635 -0.1296 -0.5863 -0.8973
  293MOL0     C38546   6.372   7.516   4.520 -1.1363 -0.0559  0.2960
  293MOL0     O38547   6.492   7.546   4.452  0.3686 -0.5753 -0.4937
  293MOL0     C38548   6.599   7.621   4.508  0.2638  0.0238 -0.2744
  293MOL0     C38549   6.592   7.722   4.611 -0.1817  0.1285 -0.3232
  293MOL0     C38550   6.710   7.783   4.652 -0.7497  0.3316 -0.3543
  293MOL0     C38551   6.833   7.739   4.612 -0.3245 -1.2869 -0.2863
  293MOL0     O38552   6.943   7.787   4.672  0.3626 -0.1560 -0.4720
  293MOL0     C38553   6.954   7.772   4.816 -0.0607 -0.1208  0.4309
  293MOL0     C38554   7.088   7.819   4.877 -0.4211 -0.0498  0.7864
  293MOL0     C38555   7.214   7.786   4.791 -0.2647  0.5722  0.3958
  293MOL0     C38556   7.220   7.643   4.743  0.0249  0.6808  0.6427
  293MOL0     C38557   7.331   7.601   4.652  0.3670  0.2012  0.2722
  293MOL0     C38558   7.312   7.680   4.514 -0.5027 -0.3096  0.2809
  293MOL0     C38559   7.398   7.626   4.394  0.2236  0.4578  0.0401
  293MOL0     C38560   7.364   7.476   4.366 -0.1311  0.5222  0.4412
  293MOL0     N38561   7.491   7.406   4.344  0.4321  0.1924 -0.0885
  293MOL0     C38562   7.555   7.327   4.438 -0.3793 -0.9629  0.1531
  293MOL0     C38563   7.667   7.286   4.373 -0.2529  0.0422 -0.1330
  293MOL0     C38564   7.785   7.226   4.437 -0.5415  1.0443 -0.4007
  293MOL0     C38565   7.753   7.084   4.505 -0.1203  0.4684 -1.1467
  293MOL0     C38566   7.736   6.968   4.414 -1.1405  0.8584  0.0104
  293MOL0     C38567   7.774   6.825   4.470 -0.1635 -0.7779  0.3278
  293MOL0     O38568   7.752   6.732   4.365 -0.1998 -0.3611 -0.2484
  293MOL0     C38569   7.786   6.595   4.371  0.0626 -0.7202  0.5672
  293MOL0     C38570   7.848   6.536   4.475 -0.1601  0.0221 -0.3712
  293MOL0     C38571   7.887   6.404   4.463 -0.7651 -0.7859  0.5578
  293MOL0     C38572   7.849   6.327   4.344 -0.2255 -0.6302 -0.2646
  293MOL0     C38573   7.888   6.184   4.336  0.8089  0.0857  0.3870
  293MOL0     O38574   7.910   6.135   4.211 -0.8677  0.3574 -0.4188
  293MOL0     C38575   7.937   6.001   4.197 -0.0315 -0.6318 -0.2711
  293MOL0     C38576   7.879   5.901   4.260 -0.2248  0.7712 -0.2130
  293MOL0     C38577   7.928   5.772   4.245  0.8403  0.0379 -0.5974
  293MOL0     C38578   8.023   5.741   4.154 -0.6037  0.8737  1.0425
  293MOL0     O38579   8.052   5.604   4.140 -0.7172 -0.1876  0.1815
  293MOL0     C38580   8.147   5.585   4.241 -0.2602 -0.5984 -0.5553
  293MOL0     C38581   8.171   5.438   4.248  0.4140 -0.0890  0.3701
  293MOL0     C38582   8.116   5.361   4.369 -0.9020  0.0556 -0.3311
  293MOL0     C38583   7.958   5.346   4.357 -0.3880  0.1798  0.1302
  293MOL0     C38584   7.900   5.240   4.454 -0.1363 -0.3426 -0.3660
  293MOL0     C38585   7.740   5.231   4.449 -0.4095  0.0940  0.4393
  293MOL0     C38586   7.692   5.091   4.500  0.0656  0.0544 -0.2598
  293MOL0     C38587   7.708   5.067   4.660  0.7127  0.7191 -0.0050
  293MOL0    Cl38588   7.605   4.921   4.704 -0.4537  0.0722 -0.0145
  293MOL0     C38589   8.083   5.847   4.082 -0.8135  0.1816 -0.0153
  293MOL0     C38590   8.037   5.977   4.103  0.1103  0.5789  0.0804
  293MOL0     O38591   7.904   6.120   4.443 -0.4788  0.1645 -0.6430
  293MOL0     C38592   7.779   6.393   4.240 -0.0978  0.4569 -0.4702
  293MOL0     C38593   7.752   6.535   4.256  0.2930  0.9657  0.1911
  293MOL0     N38594   7.665   7.323   4.239 -0.4138  0.1273  0.9008
  293MOL0     N38595   7.563   7.411   4.230 -0.3499  0.3026 -0.3156
  293MOL0     C38596   6.840   7.651   4.506  0.2099  0.3329  0.4189
  293MOL0     C38597   6.724   7.596   4.457  0.1048 -0.4648 -0.0793
  293MOL0     C38598   6.273   7.434   4.441 -1.3926  0.5561  0.3677
  293MOL0     C38599   6.133   7.438   4.461 -1.6182 -1.0313  0.5217
  293MOL0     C38600   6.038   7.376   4.370  0.7331 -0.5756 -0.6414
  293MOL0     C38601   6.087   7.285   4.283  0.1770  0.1213 -0.1044
  293MOL0     O38602   6.006   7.211   4.211  0.4929 -0.4670  0.0329
  293MOL0     C38603   6.000   7.078   4.257  0.4014  0.1101  0.5445
  293MOL0     C38604   5.896   6.996   4.168 -0.9717 -0.5990 -0.6020
  293MOL0     C38605   5.847   6.866   4.227  0.0621 -0.8582  0.8643
  293MOL0     C38606   5.792   6.776   4.121 -0.2986  0.2332 -1.0855
  293MOL0     C38607   5.690   6.852   4.049 -0.1119 -0.6903 -0.2097
  293MOL0     C38608   5.602   6.914   3.993  0.3188  0.1100 -0.0495
  293MOL0     C38609   6.223   7.271   4.266  0.0745 -0.3971 -0.1606
  293MOL0     C38610   6.320   7.351   4.338  0.5057  0.3405 -0.4052
  293MOL0     H38611   6.495   7.756   4.646  0.3805  1.9612 -0.4020
  293MOL0     H38612   6.689   7.863   4.722 -6.4901 -0.3150 -0.8074
  293MOL0     H38613   6.939   7.665   4.829  0.7519 -0.0227  2.6618
  293MOL0     H38614   6.877   7.833   4.864 -0.3169  1.6874 -2.0755
  293MOL0     H38615   7.098   7.776   4.977 -1.5423  0.1591  1.0119
  293MOL0     H38616   7.080   7.928   4.887 -0.3649  0.1657 -1.1562
  293MOL0     H38617   7.310   7.805   4.841 -0.1569  1.2686 -0.0566
  293MOL0     H38618   7.213   7.862   4.711 -0.4181  3.3085  2.8166
  293MOL0     H38619   7.227   7.579   4.832 -4.4220 -0.0170  0.7524
  293MOL0     H38620   7.128   7.606   4.697  1.4846 -1.2033 -0.9115
  293MOL0     H38621   7.321   7.492   4.649  0.0475  0.1664  1.7118
  293MOL0     H38622   7.433   7.622   4.686  0.8509 -0.0861 -0.9807
  293MOL0     H38623   7.340   7.784   4.531  1.5920 -0.5047 -1.5297
  293MOL0     H38624   7.207   7.689   4.484 -0.4732  2.6326  0.7679
  293MOL0     H38625   7.385   7.687   4.304  1.0865 -1.0694 -1.1701
  293MOL0     H38626   7.501   7.626   4.429  0.8613  2.2222 -1.6181
  293MOL0     H38627   7.297   7.477   4.279 -1.5782 -2.4698  1.3870
  293MOL0     H38628   7.311   7.426   4.447 -3.2777  1.5113 -0.8262
  293MOL0     H38629   7.537   7.319   4.545  0.8788 -1.7173  0.3339
  293MOL0     H38630   7.838   7.290   4.508  1.7626  0.3700 -1.4156
  293MOL0     H38631   7.861   7.214   4.359 -0.0724  0.5723  0.1186
  293MOL0     H38632   7.662   7.090   4.567  0.1612 -3.2525 -0.1026
  293MOL0     H38633   7.827   7.060   4.582 -3.5218 -0.7740  2.0777
  293MOL0     H38634   7.631   6.961   4.383 -1.5361  0.9243  1.2944
  293MOL0     H38635   7.802   6.993   4.331 -1.9364 -0.4122 -1.0475
  293MOL0     H38636   7.704   6.797   4.549 -1.2956  3.9185  1.2934
  293MOL0     H38637   7.877   6.827   4.507  0.5254 -1.4595 -1.4459
  293MOL0     H38638   7.877   6.597   4.560  0.4931  2.6790 -2.3394
  293MOL0     H38639   7.934   6.351   4.546 -0.0446  0.1059  0.7308
  293MOL0     H38640   7.795   5.932   4.321  0.0125  0.7329  0.1366
  293MOL0     H38641   7.868   5.696   4.295 -1.3886 -1.0038 -4.4824
  293MOL0     H38642   8.113   5.629   4.335 -2.3360 -0.1524 -1.4474
  293MOL0     H38643   8.237   5.646   4.224  0.5922 -1.8222 -0.5393
  293MOL0     H38644   8.279   5.420   4.247  0.1380 -2.4858 -2.6923
  293MOL0     H38645   8.129   5.394   4.157  0.2199 -0.2957  0.5572
  293MOL0     H38646   8.152   5.422   4.452  0.5747 -1.6739  0.3583
  293MOL0     H38647   8.163   5.264   4.386 -1.8048 -0.1902  0.9181
  293MOL0     H38648   7.918   5.447   4.368 -1.5909 -0.1900 -0.7066
  293MOL0     H38649   7.923   5.304   4.262 -0.9212 -2.0265  1.2195
  293MOL0     H38650   7.939   5.267   4.552 -0.5710 -2.2922  0.3791
  293MOL0     H38651   7.945   5.148   4.415 -0.8232 -0.4681 -0.8974
  293MOL0     H38652   7.700   5.232   4.347 -1.5898 -1.4061  0.8464
  293MOL0     H38653   7.697   5.310   4.510  1.6551  0.1250  1.9591
  293MOL0     H38654   7.588   5.085   4.468 -0.4024 -2.8568  1.4162
  293MOL0     H38655   7.758   5.016   4.454  2.8138  1.1399  1.6589
  293MOL0     H38656   7.671   5.155   4.713 -0.5551  0.3739 -0.2799
  293MOL0     H38657   7.810   5.046   4.692  0.4433 -1.0128 -0.1637
  293MOL0     H38658   8.168   5.813   4.024 -0.7779 -0.8635  0.6197
  293MOL0     H38659   8.094   6.053   4.049 -0.3168 -0.7631 -2.4029
  293MOL0     H38660   7.749   6.327   4.159 -2.3433 -1.0626  1.4599
  293MOL0     H38661   7.715   6.595   4.173 -0.0630  0.0030 -0.3639
  293MOL0     H38662   6.936   7.607   4.482  0.9762 -0.1018  3.7111
  293MOL0     H38663   6.721   7.515   4.384  1.2829  0.4781 -1.2204
  293MOL0     H38664   6.104   7.487   4.554  2.5043  2.9091  0.0576
  293MOL0     H38665   5.937   7.366   4.408  2.7116 -4.7430  4.9774
  293MOL0     H38666   5.970   7.071   4.362 -1.3535 -0.2706  0.0470
  293MOL0     H38667   6.096   7.027   4.244 -0.6819 -2.0937  0.7797
  293MOL0     H38668   5.810   7.062   4.156 -1.6989 -1.8002 -2.3761
  293MOL0     H38669   5.934   6.990   4.066 -0.2762 -0.1012 -0.3843
  293MOL0     H38670   5.768   6.880   4.301 -0.6951  0.4444 -0.1637
  293MOL0     H38671   5.929   6.812   4.276 -2.0246 -2.1556  3.1311
  293MOL0     H38672   5.874   6.745   4.056 -0.5405 -1.5000 -0.6241
  293MOL0     H38673   5.747   6.690   4.172 -3.5453  0.3528 -3.3846
  293MOL0     H38674   5.509   6.946   3.951 -0.7449 -1.0264  1.3049
  293MOL0     H38675   6.267   7.194   4.203  3.7535 -1.4698  3.2809
  293MOL0     H38676   6.425   7.341   4.315  1.4265  0.8606  3.0207
  294MOL0     O38677   7.400   8.481   3.401  0.1636  0.2527 -0.1948
  294MOL0     C38678   7.404   8.569   3.310  0.2856  0.4152 -0.1560
  294MOL0     O38679   7.412   8.702   3.336 -0.3851 -0.5989  0.5122
  294MOL0     C38680   7.458   8.754   3.451  0.4627 -0.2646 -0.4114
  294MOL0     C38681   7.560   8.854   3.451  0.3160  0.3421  0.7574
  294MOL0     C38682   7.619   8.907   3.567  0.0083  0.3327  0.2750
  294MOL0     C38683   7.555   8.893   3.682  0.8561  0.0374 -0.2819
  294MOL0     O38684   7.622   8.953   3.786  0.6711  0.8884  0.0405
  294MOL0     C38685   7.651   8.864   3.899  0.4032  0.2821 -0.1936
  294MOL0     C38686   7.732   8.939   3.989 -0.5178  0.1866 -0.5239
  294MOL0     C38687   7.717   8.897   4.135 -0.0729  0.0187 -0.6430
  294MOL0     C38688   7.811   8.975   4.222  0.2270 -0.3530  0.0521
  294MOL0     C38689   7.815   8.915   4.364 -0.3332  0.0818 -0.1518
  294MOL0     C38690   7.677   8.895   4.433 -0.2091  0.7123  0.3395
  294MOL0     C38691   7.693   8.824   4.567  0.3888  0.3581 -0.5240
  294MOL0     C38692   7.714   8.671   4.577 -0.0550  0.3267  0.5466
  294MOL0     N38693   7.721   8.619   4.715 -0.1256 -0.0442 -0.9217
  294MOL0     C38694   7.623   8.576   4.805 -0.2455 -0.3502 -0.3115
  294MOL0     C38695   7.687   8.542   4.917 -0.0295 -0.6123 -1.2648
  294MOL0     C38696   7.620   8.493   5.041  0.3439 -0.6437 -0.7125
  294MOL0     C38697   7.538   8.607   5.104 -0.5638  0.1707  0.5069
  294MOL0     C38698   7.434   8.562   5.198 -0.0539  0.2699  0.7726
  294MOL0     C38699   7.367   8.663   5.282  0.2747  0.3925 -0.2010
  294MOL0     O38700   7.280   8.597   5.372  0.3403  0.3202 -0.3187
  294MOL0     C38701   7.231   8.675   5.473  0.5260 -0.1267  0.4782
  294MOL0     C38702   7.257   8.814   5.486  0.4352 -0.4494 -0.1593
  294MOL0     C38703   7.233   8.884   5.602  0.4454 -0.3151  0.4062
  294MOL0     C38704   7.174   8.813   5.707  0.0812 -0.1623 -0.8282
  294MOL0     C38705   7.164   8.892   5.835  0.4412  0.5844  0.0794
  294MOL0     O38706   7.263   8.967   5.864 -1.3928 -0.0055 -0.3180
  294MOL0     C38707   7.248   9.080   5.947  0.8663  1.0614 -0.3763
  294MOL0     C38708   7.355   9.097   6.037 -1.2161 -0.7760  0.0412
  294MOL0     C38709   7.351   9.201   6.136 -0.4445  0.9550  0.1396
  294MOL0     C38710   7.241   9.282   6.141  0.3128  1.2391  0.0910
  294MOL0     O38711   7.228   9.358   6.253 -0.0893  0.5803 -0.1884
  294MOL0     C38712   7.194   9.297   6.375 -0.3272 -0.3165 -0.3029
  294MOL0     C38713   7.039   9.296   6.391 -0.0003 -0.7566  1.3340
  294MOL0     C38714   6.987   9.281   6.537 -0.4966  0.9897  0.0161
  294MOL0     C38715   6.841   9.257   6.549  0.2752 -0.0199  0.4620
  294MOL0     C38716   6.796   9.210   6.692  0.0778  0.2168  0.4599
  294MOL0     C38717   6.655   9.164   6.663  0.2927 -0.4975 -0.1883
  294MOL0     C38718   6.553   9.273   6.622  0.3402  1.0177  0.2034
  294MOL0     C38719   6.411   9.226   6.642  0.1864 -1.4033 -0.1840
  294MOL0    Cl38720   6.355   9.189   6.804  0.6242  0.4218 -0.0300
  294MOL0     C38721   7.123   9.260   6.062  0.5581  0.4336  0.0522
  294MOL0     C38722   7.130   9.158   5.968  0.1134  0.5192 -0.1657
  294MOL0     O38723   7.055   8.881   5.897 -0.6856 -0.3901  0.6291
  294MOL0     C38724   7.150   8.679   5.694  1.0684  0.6749  0.2215
  294MOL0     C38725   7.185   8.608   5.582 -0.6031 -0.4027 -0.4621
  294MOL0     N38726   7.824   8.550   4.898 -0.8915 -0.0003 -0.3111
  294MOL0     N38727   7.840   8.601   4.777 -0.7280 -0.1708  0.0230
  294MOL0     C38728   7.448   8.807   3.702  0.2527  0.9635 -0.6614
  294MOL0     C38729   7.402   8.733   3.583 -0.2983 -0.7280 -0.1763
  294MOL0     C38730   7.392   8.516   3.180  0.2871 -0.7792 -0.0207
  294MOL0     C38731   7.427   8.601   3.077  0.4233 -0.0114  1.4515
  294MOL0     C38732   7.423   8.560   2.945  0.3111 -0.0328  0.5969
  294MOL0     C38733   7.378   8.432   2.908  0.3678  0.4935  0.5384
  294MOL0     O38734   7.379   8.385   2.776 -0.8096 -0.7046 -0.1816
  294MOL0     C38735   7.313   8.462   2.671 -0.2719 -0.0776 -0.0769
  294MOL0     C38736   7.174   8.403   2.623 -0.5466 -0.7954  0.7675
  294MOL0     C38737   7.077   8.364   2.728  0.4631  0.4127  0.8579
  294MOL0     C38738   7.051   8.220   2.723  0.2912 -0.6791 -0.0760
  294MOL0     C38739   6.954   8.186   2.831  0.3259 -0.7588 -0.0622
  294MOL0     C38740   6.890   8.169   2.929 -0.2718 -0.8580 -0.4833
  294MOL0     C38741   7.345   8.345   3.013 -0.7236 -0.3925  0.3108
  294MOL0     C38742   7.354   8.389   3.149 -1.3249 -0.2359 -0.1196
  294MOL0     H38743   7.604   8.872   3.354  1.5124  0.6549  1.3492
  294MOL0     H38744   7.707   8.970   3.576  2.1973 -2.7881  2.8606
  294MOL0     H38745   7.705   8.773   3.869  0.9410  0.1234  1.1814
  294MOL0     H38746   7.563   8.824   3.949  1.1616  1.0014  1.8105
  294MOL0     H38747   7.697   9.042   3.976 -0.3598  0.4837  1.2240
  294MOL0     H38748   7.837   8.941   3.957 -0.8132  2.0852 -1.5477
  294MOL0     H38749   7.730   8.793   4.167 -0.8405  1.0691  3.6809
  294MOL0     H38750   7.618   8.936   4.156 -0.0165 -0.4069  0.4465
  294MOL0     H38751   7.911   8.970   4.178 -0.0924  0.7497 -0.8626
  294MOL0     H38752   7.775   9.077   4.237  1.9126  0.3650 -0.5592
  294MOL0     H38753   7.874   8.991   4.415 -2.0042  1.7205 -0.5620
  294MOL0     H38754   7.875   8.825   4.345 -0.1619 -0.1814  1.4913
  294MOL0     H38755   7.604   8.840   4.372 -1.4995 -1.0215  3.2278
  294MOL0     H38756   7.631   8.994   4.440 -0.5575  0.8915 -2.8405
  294MOL0     H38757   7.771   8.873   4.626  0.8329 -2.6734  1.6073
  294MOL0     H38758   7.602   8.853   4.621  1.8582  1.9883  1.2171
  294MOL0     H38759   7.805   8.637   4.527 -0.0592  2.1384 -0.7813
  294MOL0     H38760   7.640   8.617   4.516  2.2119 -2.2471 -0.1545
  294MOL0     H38761   7.516   8.573   4.786 -0.2468  2.2262 -1.1653
  294MOL0     H38762   7.704   8.456   5.101 -0.5444  0.2514  1.1838
  294MOL0     H38763   7.560   8.407   5.012  0.1855 -1.5394  1.9451
  294MOL0     H38764   7.490   8.661   5.022 -2.6112 -1.1409  0.7683
  294MOL0     H38765   7.604   8.675   5.159  1.3968 -0.3675 -1.0565
  294MOL0     H38766   7.355   8.505   5.147  1.7029 -0.7550 -0.9717
  294MOL0     H38767   7.487   8.492   5.264  2.7171  2.2906  0.8452
  294MOL0     H38768   7.306   8.737   5.229  0.1454  1.9909  2.0202
  294MOL0     H38769   7.450   8.716   5.329  1.6709 -3.5615  2.2542
  294MOL0     H38770   7.295   8.867   5.399 -2.7933 -0.1914 -1.5726
  294MOL0     H38771   7.259   8.988   5.588 -1.7655  0.1879 -0.4095
  294MOL0     H38772   7.448   9.044   6.019 -0.1907  0.2813  1.9318
  294MOL0     H38773   7.428   9.206   6.212 -2.7602 -0.3896  2.7557
  294MOL0     H38774   7.224   9.367   6.454 -2.2487  0.2139  0.0288
  294MOL0     H38775   7.238   9.199   6.394 -0.4039 -0.5509 -1.3081
  294MOL0     H38776   7.009   9.209   6.333  2.5069  0.1421 -1.5909
  294MOL0     H38777   6.996   9.382   6.339 -0.5737 -2.1813 -0.6919
  294MOL0     H38778   7.019   9.360   6.606  3.4713  0.1835 -0.6542
  294MOL0     H38779   7.028   9.186   6.572  0.1769  1.7144  1.2498
  294MOL0     H38780   6.783   9.347   6.527 -2.9319 -1.1245  3.4567
  294MOL0     H38781   6.802   9.183   6.478 -4.1961 -0.3663  2.9745
  294MOL0     H38782   6.806   9.295   6.760  0.5896  0.5024  0.0406
  294MOL0     H38783   6.862   9.130   6.725  1.6567  1.9116  1.6118
  294MOL0     H38784   6.626   9.136   6.765 -0.7045 -0.9210 -0.5688
  294MOL0     H38785   6.650   9.084   6.588  1.3283  0.3396 -1.1697
  294MOL0     H38786   6.563   9.368   6.676 -0.4667 -0.1991  2.6409
  294MOL0     H38787   6.570   9.295   6.516  3.2411 -0.4886  0.2619
  294MOL0     H38788   6.392   9.137   6.582  0.5023 -1.0633 -0.7946
  294MOL0     H38789   6.343   9.302   6.602  1.5593  0.3629  0.6657
  294MOL0     H38790   7.037   9.325   6.065  0.8459  0.9618 -1.8070
  294MOL0     H38791   7.049   9.133   5.900  1.3648  1.5550 -2.0896
  294MOL0     H38792   7.098   8.627   5.774  2.0446  0.8761  1.0076
  294MOL0     H38793   7.176   8.500   5.578 -0.4858 -0.3890 -2.3450
  294MOL0     H38794   7.406   8.800   3.802  1.2605 -0.5035 -0.3126
  294MOL0     H38795   7.311   8.675   3.589 -1.2112  0.7415  0.9913
  294MOL0     H38796   7.458   8.703   3.097 -2.9162  1.0047  2.0405
  294MOL0     H38797   7.462   8.623   2.866 -2.2191  0.1454 -0.6089
  294MOL0     H38798   7.381   8.470   2.586 -1.3943 -0.6495 -1.0511
  294MOL0     H38799   7.308   8.567   2.700  0.8961  0.0513 -0.2892
  294MOL0     H38800   7.124   8.472   2.555 -0.7202  0.4112  2.0786
  294MOL0     H38801   7.190   8.322   2.551  0.6051  1.7987 -2.1742
  294MOL0     H38802   6.979   8.407   2.709  0.2626 -0.1482  0.5760
  294MOL0     H38803   7.122   8.379   2.826  2.5793  0.0220  0.0199
  294MOL0     H38804   7.024   8.182   2.623 -0.8956  3.8318 -1.6883
  294MOL0     H38805   7.147   8.180   2.756  0.8177  0.9747  0.4676
  294MOL0     H38806   6.825   8.143   3.010 -0.0273 -0.8421 -0.2781
  294MOL0     H38807   7.316   8.243   2.991 -0.3382  0.0185 -2.4184
  294MOL0     H38808   7.332   8.315   3.225  0.6058  1.1642  1.9773
  295MOL0     O38809   4.163   3.797   3.214 -0.8746 -0.1250  0.2526
  295MOL0     C38810   4.108   3.805   3.325 -0.5842  0.2256  0.1170
  295MOL0     O38811   4.039   3.707   3.386  0.6463 -0.7828  0.0009
  295MOL0     C38812   4.009   3.589   3.320  0.2020 -0.4342  0.6187
  295MOL0     C38813   3.959   3.480   3.401  0.6262  0.0223  0.4212
  295MOL0     C38814   3.928   3.356   3.355  0.0309  0.5181 -0.1714
  295MOL0     C38815   3.960   3.323   3.221  0.4988 -0.3702  1.6330
  295MOL0     O38816   3.945   3.195   3.196  0.1503  0.7606 -0.0601
  295MOL0     C38817   3.959   3.136   3.072  0.0783  0.0535  0.6000
  295MOL0     C38818   3.936   2.990   3.067 -0.1963  0.6895 -0.2746
  295MOL0     C38819   3.978   2.939   2.924 -0.0610  0.1672 -1.7380
  295MOL0     C38820   3.971   2.781   2.907  0.0115 -0.4127 -0.4923
  295MOL0     C38821   4.011   2.745   2.765  0.7998  0.9479  0.4134
  295MOL0     C38822   3.991   2.593   2.734 -0.1932 -0.1212 -0.3623
  295MOL0     C38823   4.110   2.502   2.782 -0.3256 -0.4124 -0.2475
  295MOL0     C38824   4.064   2.358   2.745  0.1550  0.0481 -0.1892
  295MOL0     N38825   4.066   2.320   2.606 -0.4954 -0.1231  0.5248
  295MOL0     C38826   4.180   2.302   2.529  0.0871 -0.1721 -1.5972
  295MOL0     C38827   4.134   2.266   2.404  0.5747  0.0757 -0.7043
  295MOL0     C38828   4.218   2.233   2.279  0.6962 -0.2386 -0.3498
  295MOL0     C38829   4.337   2.333   2.253  0.3128  0.2303  0.0625
  295MOL0     C38830   4.386   2.339   2.109 -0.8254  1.2370  0.0071
  295MOL0     C38831   4.511   2.424   2.095 -0.1329 -0.2267  0.2798
  295MOL0     O38832   4.613   2.372   2.186 -0.4686 -0.2284 -0.3117
  295MOL0     C38833   4.738   2.344   2.135  0.3065  0.1834  0.6344
  295MOL0     C38834   4.820   2.245   2.199 -0.4420 -0.0494  0.0624
  295MOL0     C38835   4.940   2.207   2.142  0.3357  0.9829 -0.4461
  295MOL0     C38836   5.000   2.280   2.040  0.2390  0.5800 -0.0982
  295MOL0     C38837   5.128   2.234   1.970 -0.7576 -0.7317 -0.8567
  295MOL0     O38838   5.189   2.313   1.877  0.6385 -0.4694 -0.2610
  295MOL0     C38839   5.320   2.320   1.862  0.6629 -0.6276 -0.8380
  295MOL0     C38840   5.427   2.254   1.918  0.1695  0.2717  0.2542
  295MOL0     C38841   5.558   2.293   1.901 -0.3474  0.1050 -0.1468
  295MOL0     C38842   5.598   2.378   1.800  1.0286  0.1772  0.2921
  295MOL0     O38843   5.730   2.400   1.790  1.0116 -0.2833 -0.2033
  295MOL0     C38844   5.756   2.528   1.731 -0.3576 -0.6249 -0.6546
  295MOL0     C38845   5.911   2.567   1.730  0.3372 -0.1121 -0.2963
  295MOL0     C38846   5.940   2.627   1.871 -0.0252  0.6184  0.6884
  295MOL0     C38847   6.077   2.683   1.883 -0.5301  0.2117 -0.8785
  295MOL0     C38848   6.071   2.795   1.986 -0.0541 -0.1331  0.1247
  295MOL0     C38849   6.203   2.869   1.986  0.5121  0.4789 -0.0939
  295MOL0     C38850   6.200   3.006   2.055 -0.2108 -1.1388  0.2896
  295MOL0     C38851   6.152   3.003   2.203 -0.2338  0.5251 -0.7635
  295MOL0    Cl38852   6.277   2.941   2.313  0.2029 -0.5958 -0.3481
  295MOL0     C38853   5.494   2.440   1.732  0.5067 -0.1688  0.4764
  295MOL0     C38854   5.359   2.405   1.768  0.3224 -0.6836 -0.1636
  295MOL0     O38855   5.175   2.133   2.014  1.1286  0.0658 -0.4253
  295MOL0     C38856   4.930   2.379   1.981  0.7499 -0.0234  0.2587
  295MOL0     C38857   4.792   2.398   2.023 -0.3754 -0.8860 -0.2206
  295MOL0     N38858   3.991   2.275   2.403 -1.1084 -0.1293 -0.5742
  295MOL0     N38859   3.954   2.314   2.525 -0.1467  0.1462 -0.1010
  295MOL0     C38860   3.999   3.424   3.133 -0.6322  0.6497 -0.4934
  295MOL0     C38861   4.020   3.556   3.180 -0.2995  0.6771  0.1125
  295MOL0     C38862   4.094   3.948   3.375  0.2233 -0.0762 -0.3880
  295MOL0     C38863   4.088   4.051   3.281 -0.7590 -0.0188  0.5410
  295MOL0     C38864   4.083   4.188   3.320 -0.8856  1.4994  0.1445
  295MOL0     C38865   4.063   4.214   3.452 -0.3297  0.0803  1.2064
  295MOL0     O38866   4.038   4.348   3.484  0.7826  0.2678  0.3557
  295MOL0     C38867   4.035   4.379   3.619  0.4015 -1.3955 -0.3899
  295MOL0     C38868   3.999   4.528   3.641  0.4088 -0.4994 -0.3382
  295MOL0     C38869   4.110   4.629   3.585  0.1912 -0.0513  0.1755
  295MOL0     C38870   4.046   4.767   3.607 -0.9686  1.6844 -1.1572
  295MOL0     C38871   3.926   4.790   3.526  0.4583 -0.5406  0.7438
  295MOL0     C38872   3.836   4.834   3.463  0.2294 -0.1217 -0.1294
  295MOL0     C38873   4.063   4.110   3.552  0.6899  0.0033  0.3315
  295MOL0     C38874   4.077   3.976   3.507 -0.8166  0.7753 -0.7268
  295MOL0     H38875   3.948   3.487   3.508 -1.7208  1.0657  0.1687
  295MOL0     H38876   3.881   3.280   3.417 -2.3216  1.0872 -1.1608
  295MOL0     H38877   4.048   3.166   3.017 -1.2675 -0.2613 -1.8849
  295MOL0     H38878   3.876   3.166   3.007  1.5032 -1.5888 -2.1711
  295MOL0     H38879   3.829   2.972   3.086  0.7939 -1.3282  5.1018
  295MOL0     H38880   3.998   2.939   3.141 -1.0916 -0.5836 -0.3691
  295MOL0     H38881   4.066   2.990   2.882 -0.5092  3.1810  0.6283
  295MOL0     H38882   3.903   2.970   2.851 -1.2748 -1.5955 -1.2938
  295MOL0     H38883   4.042   2.737   2.978 -0.4815 -1.4861 -0.6333
  295MOL0     H38884   3.876   2.745   2.948  0.7964  0.5383  2.3875
  295MOL0     H38885   4.107   2.784   2.730  1.1961 -0.8344 -0.6382
  295MOL0     H38886   3.937   2.792   2.700  1.5445 -0.9931 -1.9971
  295MOL0     H38887   3.969   2.579   2.628 -2.0977  2.1364 -0.3466
  295MOL0     H38888   3.900   2.548   2.776 -0.4616 -0.8809 -1.7057
  295MOL0     H38889   4.202   2.529   2.730  0.6493 -2.3292  0.4078
  295MOL0     H38890   4.123   2.489   2.890  1.5008  2.6094  0.0061
  295MOL0     H38891   3.970   2.339   2.798  1.7188 -0.4853  2.5979
  295MOL0     H38892   4.139   2.296   2.795 -0.8080 -0.6501  0.4207
  295MOL0     H38893   4.282   2.314   2.565 -1.1734 -0.8151  2.8144
  295MOL0     H38894   4.152   2.225   2.193  2.2137  0.3624 -1.6225
  295MOL0     H38895   4.258   2.132   2.289 -1.4594 -1.0809  0.1372
  295MOL0     H38896   4.418   2.311   2.324  2.7207  0.4185 -2.4274
  295MOL0     H38897   4.288   2.430   2.267 -2.7773 -1.3032  0.7326
  295MOL0     H38898   4.413   2.242   2.065 -2.0484  2.4167 -3.7426
  295MOL0     H38899   4.320   2.393   2.040  1.0838  0.8766 -2.2149
  295MOL0     H38900   4.486   2.527   2.119  1.9318  0.2605  0.5121
  295MOL0     H38901   4.537   2.406   1.990  1.2864  0.5568  0.4682
  295MOL0     H38902   4.774   2.194   2.283 -1.3345  1.7201  0.6968
  295MOL0     H38903   4.998   2.130   2.192 -3.8427 -1.8434  0.5437
  295MOL0     H38904   5.418   2.169   1.984 -1.7344  1.4955  1.6711
  295MOL0     H38905   5.625   2.226   1.954 -3.1772 -1.4405  1.7292
  295MOL0     H38906   5.708   2.612   1.782  0.7347  1.4911 -2.8716
  295MOL0     H38907   5.709   2.541   1.633 -1.7213  1.3672  0.2047
  295MOL0     H38908   5.935   2.634   1.647  2.5795 -0.5282 -0.0470
  295MOL0     H38909   5.973   2.479   1.708  2.3574  1.4784 -1.2569
  295MOL0     H38910   5.909   2.547   1.939  0.1349  0.0361  0.0872
  295MOL0     H38911   5.870   2.710   1.878  1.3539  1.9643 -0.7142
  295MOL0     H38912   6.152   2.607   1.909  0.2988  1.6092  1.0308
  295MOL0     H38913   6.110   2.724   1.786  0.9831  1.2603  0.0373
  295MOL0     H38914   6.050   2.763   2.089 -1.3153 -0.0456 -0.0856
  295MOL0     H38915   5.989   2.863   1.961 -0.7301  0.0818  2.6090
  295MOL0     H38916   6.237   2.883   1.883  1.3494  1.0384  0.2506
  295MOL0     H38917   6.287   2.811   2.026 -0.2980  0.2252  1.3103
  295MOL0     H38918   6.302   3.045   2.049  0.0659 -1.9533 -0.5531
  295MOL0     H38919   6.132   3.074   2.002 -2.3051 -3.6436 -0.4882
  295MOL0     H38920   6.064   2.942   2.226 -0.8303  1.1009 -1.4944
  295MOL0     H38921   6.137   3.102   2.248  0.1272  0.1435  0.2372
  295MOL0     H38922   5.515   2.515   1.657  0.4097 -0.1094  0.5080
  295MOL0     H38923   5.284   2.464   1.717 -2.1660 -1.0646  2.7448
  295MOL0     H38924   4.975   2.437   1.901  0.0372  0.2928  0.0797
  295MOL0     H38925   4.737   2.476   1.971 -2.5905 -0.5613  2.4175
  295MOL0     H38926   4.013   3.390   3.031 -0.4689 -1.8285  0.2918
  295MOL0     H38927   4.054   3.623   3.102  2.2623  1.2044  1.5324
  295MOL0     H38928   4.082   4.026   3.175 -3.1549  0.4902  0.5016
  295MOL0     H38929   4.076   4.283   3.268 -0.6002  1.3559 -0.1559
  295MOL0     H38930   4.133   4.362   3.664 -0.0480  2.5196  2.7090
  295MOL0     H38931   3.952   4.321   3.662 -0.9177 -0.5381 -1.6775
  295MOL0     H38932   3.906   4.535   3.583  0.2562  0.3739  0.0034
  295MOL0     H38933   3.983   4.556   3.746  3.2679  0.2378 -0.0122
  295MOL0     H38934   4.136   4.625   3.478  0.0383  2.1943  0.0120
  295MOL0     H38935   4.203   4.632   3.643  0.7531 -0.6240 -0.6661
  295MOL0     H38936   4.008   4.778   3.709 -0.2595 -1.6670 -0.4409
  295MOL0     H38937   4.124   4.842   3.588  0.7431 -0.3363 -2.5742
  295MOL0     H38938   3.750   4.875   3.416 -0.4136 -1.1282  0.1272
  295MOL0     H38939   4.059   4.139   3.657  2.5594  1.5213  0.0301
  295MOL0     H38940   4.099   3.896   3.576  0.7264  1.0551 -0.8678
  296MOL0     O38941   4.445  10.418   0.728  0.4219  0.0417  0.0813
  296MOL0     C38942   4.488  10.491   0.820 -0.2746  0.2746  0.0828
  296MOL0     O38943   4.442  10.610   0.858  0.2486 -0.1520  0.0216
  296MOL0     C38944   4.330  10.656   0.780 -0.7727  0.7969 -0.5670
  296MOL0     C38945   4.201  10.639   0.823 -0.1547 -0.3228 -0.2306
  296MOL0     C38946   4.089  10.664   0.744 -0.0408  1.2754 -0.6340
  296MOL0     C38947   4.101  10.724   0.627  0.3579  0.1824  0.1339
  296MOL0     O38948   4.001  10.775   0.546  0.4809  0.2719  0.2021
  296MOL0     C38949   3.870  10.782   0.609 -0.7787 -0.4516 -0.6413
  296MOL0     C38950   3.790  10.889   0.535  0.5107 -0.0674 -0.2982
  296MOL0     C38951   3.853  11.028   0.539  0.6768  0.7035 -1.3766
  296MOL0     C38952   3.864  11.080   0.686  0.4310 -0.5572  0.4409
  296MOL0     C38953   3.961  11.205   0.690 -0.0136  1.1411  0.2402
  296MOL0     C38954   4.103  11.163   0.684 -0.1722 -0.2741 -1.0119
  296MOL0     C38955   4.211  11.275   0.681 -0.3069 -0.0216 -0.9036
  296MOL0     C38956   4.276  11.294   0.819 -0.4310  0.0462  0.0891
  296MOL0     N38957   4.177  11.357   0.909 -0.0155 -0.1693  0.3225
  296MOL0     C38958   4.140  11.298   1.027  0.4105 -1.2620  0.4467
  296MOL0     C38959   4.064  11.389   1.084 -0.1646  0.2421  0.5827
  296MOL0     C38960   3.985  11.377   1.222  0.4029  0.1354  1.3516
  296MOL0     C38961   3.847  11.441   1.207  0.6628  0.6192  0.1933
  296MOL0     C38962   3.765  11.373   1.094 -0.0602 -0.8944 -0.4624
  296MOL0     C38963   3.684  11.483   1.022 -0.0865 -0.8108  0.6581
  296MOL0     O38964   3.552  11.431   1.006  0.0928  0.2626 -0.2267
  296MOL0     C38965   3.525  11.344   0.902 -0.2356 -0.8597 -0.2484
  296MOL0     C38966   3.431  11.247   0.925 -0.0705 -0.1390  0.2800
  296MOL0     C38967   3.387  11.168   0.816 -0.1965  0.3707 -0.3747
  296MOL0     C38968   3.438  11.196   0.692  0.4577  0.6076  0.3392
  296MOL0     C38969   3.385  11.110   0.584 -0.2206 -0.4278  0.1107
  296MOL0     O38970   3.260  11.048   0.600 -0.3503  0.7415 -0.3161
  296MOL0     C38971   3.214  10.972   0.489 -0.2683  0.2773 -0.1170
  296MOL0     C38972   3.208  11.019   0.361 -0.3747 -0.0654 -0.0721
  296MOL0     C38973   3.161  10.936   0.258 -0.3935 -0.7704  0.1035
  296MOL0     C38974   3.093  10.818   0.282  0.3075 -0.1709 -0.7827
  296MOL0     O38975   3.029  10.757   0.174 -0.1341  0.9315  0.2953
  296MOL0     C38976   2.955  10.632   0.194 -0.2047 -0.1982 -0.2156
  296MOL0     C38977   2.899  10.573   0.075 -0.4173  1.2225  0.0531
  296MOL0     C38978   2.760  10.636   0.032  0.0476  0.2933  0.6376
  296MOL0     C38979   2.656  10.564   0.112  1.2783 -0.1343  0.1787
  296MOL0     C38980   2.518  10.632   0.076 -0.4318  0.1160  0.0891
  296MOL0     C38981   2.508  10.758   0.144 -0.7414 -0.8400 -0.3977
  296MOL0     C38982   2.354  10.783   0.157 -0.6927  0.7126 -0.1018
  296MOL0     C38983   2.333  10.919   0.224  0.4795 -0.8185  0.6859
  296MOL0    Cl38984   2.184  10.914   0.323  0.0956 -0.3169  0.1963
  296MOL0     C38985   3.098  10.778   0.427  0.5551  0.7745 -0.2240
  296MOL0     C38986   3.152  10.852   0.524 -0.3174 -0.4436 -0.2053
  296MOL0     O38987   3.464  11.108   0.485  0.6108 -0.9160 -0.1156
  296MOL0     C38988   3.535  11.288   0.671 -0.6947  0.4376 -0.3520
  296MOL0     C38989   3.572  11.371   0.775  0.0887  1.4702 -1.4586
  296MOL0     N38990   4.043  11.496   1.000 -0.2005  0.3534  0.2202
  296MOL0     N38991   4.119  11.481   0.894  0.6545 -0.5817 -0.7657
  296MOL0     C38992   4.236  10.737   0.577  0.2999  0.6312 -0.0277
  296MOL0     C38993   4.352  10.700   0.647 -0.3383  0.5102 -0.4405
  296MOL0     C38994   4.606  10.452   0.888 -0.0285 -0.2810  0.6350
  296MOL0     C38995   4.694  10.356   0.838  0.2805 -0.7539  0.5132
  296MOL0     C38996   4.809  10.318   0.905 -0.2378  0.0968  0.8751
  296MOL0     C38997   4.839  10.384   1.023 -0.6989 -0.4644  0.3082
  296MOL0     O38998   4.952  10.378   1.100 -0.5953 -0.2936 -0.4508
  296MOL0     C38999   5.054  10.278   1.081  0.3621 -0.1507 -0.6181
  296MOL0     C39000   5.122  10.262   1.213 -0.3500  0.4277  0.5483
  296MOL0     C39001   5.028  10.253   1.338 -0.4206  0.3042  0.4990
  296MOL0     C39002   5.128  10.239   1.452  0.2118 -0.3140  0.0720
  296MOL0     C39003   5.057  10.210   1.581 -0.1094  0.3597 -0.2962
  296MOL0     C39004   4.988  10.168   1.667  0.3668  0.8230 -0.0600
  296MOL0     C39005   4.755  10.482   1.071 -0.5330  0.7558 -0.2626
  296MOL0     C39006   4.638  10.508   1.012  0.9174  0.4760  0.2021
  296MOL0     H39007   4.177  10.619   0.927  0.0634 -0.1717 -0.1496
  296MOL0     H39008   4.000  10.643   0.803  1.4423 -0.4222  1.1152
  296MOL0     H39009   3.877  10.801   0.717  0.8425  0.2957 -0.8469
  296MOL0     H39010   3.817  10.687   0.603  0.8994 -1.6311  1.7324
  296MOL0     H39011   3.690  10.901   0.578 -0.6437 -1.6380 -2.3875
  296MOL0     H39012   3.789  10.846   0.435  0.5239  2.5090 -1.4798
  296MOL0     H39013   3.800  11.103   0.479 -2.8103  0.3662  1.0144
  296MOL0     H39014   3.957  11.026   0.505  0.3465  1.0728 -2.4484
  296MOL0     H39015   3.768  11.116   0.724  0.8957  1.1183  0.0712
  296MOL0     H39016   3.903  11.009   0.760  2.7252  0.0546 -0.1052
  296MOL0     H39017   3.930  11.247   0.786 -2.0344  3.2740 -1.2386
  296MOL0     H39018   3.931  11.282   0.619 -3.7736 -1.3515 -1.1652
  296MOL0     H39019   4.125  11.093   0.603 -3.2362 -2.5629 -0.0689
  296MOL0     H39020   4.130  11.102   0.771 -0.7830 -0.1246 -0.7093
  296MOL0     H39021   4.290  11.249   0.610  1.6843  1.1579  0.7435
  296MOL0     H39022   4.175  11.374   0.654 -0.2113  0.5501  0.9058
  296MOL0     H39023   4.368  11.352   0.804 -0.9751  1.1860  1.0267
  296MOL0     H39024   4.308  11.202   0.868 -0.1938  0.2227  0.2671
  296MOL0     H39025   4.156  11.201   1.072 -2.8699 -3.8596 -3.3608
  296MOL0     H39026   4.038  11.415   1.310  2.4543  0.5948 -0.0164
  296MOL0     H39027   3.981  11.268   1.229  0.9976 -0.7872 -5.6544
  296MOL0     H39028   3.856  11.545   1.177 -2.9212 -0.3244 -5.8041
  296MOL0     H39029   3.795  11.417   1.301 -1.3383 -2.2163 -1.4669
  296MOL0     H39030   3.832  11.328   1.021  1.0477 -1.0058  0.5896
  296MOL0     H39031   3.694  11.300   1.134  0.6042 -0.9237  0.6834
  296MOL0     H39032   3.729  11.510   0.926 -1.0044  2.2318  0.9840
  296MOL0     H39033   3.675  11.581   1.071 -1.4493 -0.3262 -0.4787
  296MOL0     H39034   3.389  11.231   1.023 -0.2492 -3.4580 -0.2116
  296MOL0     H39035   3.306  11.099   0.836  1.2221 -0.7833  1.9298
  296MOL0     H39036   3.234  11.121   0.335 -0.9402 -0.4783 -2.4343
  296MOL0     H39037   3.179  10.976   0.159  2.6954 -4.0014 -0.8557
  296MOL0     H39038   2.877  10.654   0.268  2.2257 -0.1457  2.5399
  296MOL0     H39039   3.021  10.560   0.244  1.4924  2.3657  1.4780
  296MOL0     H39040   2.882  10.467   0.095  1.1757  1.0474  0.6920
  296MOL0     H39041   2.977  10.583  -0.001 -0.4741  1.1805 -0.0111
  296MOL0     H39042   2.752  10.633  -0.077 -1.3497  1.8768  0.6482
  296MOL0     H39043   2.759  10.740   0.066 -6.2268  0.5828  0.6461
  296MOL0     H39044   2.638  10.466   0.067 -3.1162 -0.6002  2.3622
  296MOL0     H39045   2.679  10.560   0.219 -0.4911 -2.1377  0.5602
  296MOL0     H39046   2.442  10.559   0.105 -0.8696 -0.5354 -2.4977
  296MOL0     H39047   2.506  10.647  -0.031  0.8830  2.7760  0.2242
  296MOL0     H39048   2.550  10.836   0.080 -0.0156 -1.2039 -0.3785
  296MOL0     H39049   2.570  10.760   0.234  0.4496 -0.7162 -1.1972
  296MOL0     H39050   2.316  10.791   0.055  3.9290 -1.0377 -2.2311
  296MOL0     H39051   2.317  10.699   0.218  1.1116  1.6963  2.5329
  296MOL0     H39052   2.308  10.982   0.137 -0.1512 -0.0712  1.3918
  296MOL0     H39053   2.415  10.953   0.287  2.0694  2.1107 -2.6175
  296MOL0     H39054   3.048  10.690   0.466  2.0548  0.0870  0.1938
  296MOL0     H39055   3.146  10.829   0.630  1.3797  0.6828  0.1854
  296MOL0     H39056   3.574  11.324   0.577  1.9572 -1.8002 -0.2294
  296MOL0     H39057   3.630  11.459   0.750  3.9334 -0.1925  0.7057
  296MOL0     H39058   4.256  10.774   0.477 -0.6331  0.1651 -0.3983
  296MOL0     H39059   4.450  10.719   0.603 -0.3732 -2.8020 -2.2757
  296MOL0     H39060   4.688  10.309   0.740  1.8255 -1.1840  0.5993
  296MOL0     H39061   4.866  10.246   0.847 -1.0094 -0.5297  0.8870
  296MOL0     H39062   5.130  10.313   1.010 -0.3928 -0.9337 -1.8605
  296MOL0     H39063   5.000  10.194   1.035 -3.5300  0.9786  1.4282
  296MOL0     H39064   5.172  10.166   1.201  0.8628  1.2956 -1.9709
  296MOL0     H39065   5.197  10.340   1.228 -1.0892  1.4599 -0.9063
  296MOL0     H39066   4.961  10.167   1.342  1.7398 -1.4728  0.4456
  296MOL0     H39067   4.968  10.345   1.342 -0.6335  0.1755  0.2714
  296MOL0     H39068   5.205  10.164   1.433  1.5345  1.0274  0.0019
  296MOL0     H39069   5.175  10.336   1.471 -1.6033  0.0950  3.1164
  296MOL0     H39070   4.924  10.131   1.744  0.8001 -1.6080 -0.7658
  296MOL0     H39071   4.779  10.525   1.167 -0.0969  3.5075 -1.5316
  296MOL0     H39072   4.581  10.576   1.075  1.7309  1.2939  0.0816
  297MOL0     O39073   5.251   8.315   7.127 -0.4825 -0.4205  0.2060
  297MOL0     C39074   5.319   8.362   7.217  0.1338  1.0563  0.4584
  297MOL0     O39075   5.453   8.342   7.234  0.3779 -1.1570  0.3375
  297MOL0     C39076   5.505   8.229   7.182  0.1440  0.2707  0.1004
  297MOL0     C39077   5.526   8.117   7.265 -0.5124  0.3580 -0.4045
  297MOL0     C39078   5.561   7.994   7.214 -0.0276  0.0385  0.4231
  297MOL0     C39079   5.577   7.977   7.076 -0.1726  0.0918 -0.5511
  297MOL0     O39080   5.620   7.852   7.029  0.2001  0.1045 -0.8904
  297MOL0     C39081   5.690   7.823   6.910  0.6745 -0.4008  0.3393
  297MOL0     C39082   5.844   7.833   6.934  0.1581  0.7267  0.2319
  297MOL0     C39083   5.903   7.755   7.043 -0.2027  0.6458 -0.7541
  297MOL0     C39084   6.063   7.742   7.036 -0.4409  0.6936  0.7306
  297MOL0     C39085   6.109   7.609   6.971  0.2255  0.0662  0.2599
  297MOL0     C39086   6.070   7.482   7.050  0.6903  0.9247  0.3681
  297MOL0     C39087   6.144   7.353   6.998  0.7069  1.0757  0.6558
  297MOL0     C39088   6.065   7.277   6.892 -0.0348 -0.3203  0.1803
  297MOL0     N39089   6.058   7.138   6.931  0.8052  0.5897 -0.1099
  297MOL0     C39090   6.007   7.085   7.049  0.5036  0.2223 -0.2254
  297MOL0     C39091   5.961   6.966   7.015 -0.0892 -0.1614 -1.0626
  297MOL0     C39092   5.911   6.856   7.115 -0.5680 -0.0615  0.3121
  297MOL0     C39093   5.982   6.855   7.255  0.0006  0.6321  0.0910
  297MOL0     C39094   5.946   6.733   7.331  0.2304  0.1630 -0.2180
  297MOL0     C39095   5.801   6.730   7.379 -0.7173  0.1621  0.0394
  297MOL0     O39096   5.768   6.605   7.448 -0.1574  0.1167  0.1704
  297MOL0     C39097   5.833   6.590   7.570 -0.6890  1.4166 -0.8610
  297MOL0     C39098   5.907   6.476   7.604  0.2236  0.1986 -0.0035
  297MOL0     C39099   5.965   6.453   7.729 -0.5063  0.3575  0.2609
  297MOL0     C39100   5.963   6.538   7.839  0.3686  0.8171 -0.0660
  297MOL0     C39101   6.036   6.503   7.969 -0.2053 -0.4718  1.2436
  297MOL0     O39102   6.108   6.601   8.040  0.3818  0.1214  0.3202
  297MOL0     C39103   6.199   6.557   8.131  0.2847 -0.1472  1.2025
  297MOL0     C39104   6.292   6.450   8.108  0.9498  0.5921  0.0467
  297MOL0     C39105   6.366   6.397   8.211  0.3168  0.1138  0.1026
  297MOL0     C39106   6.368   6.459   8.334 -0.4319  0.1584  0.5298
  297MOL0     O39107   6.438   6.409   8.447 -0.2628 -0.0944  0.8484
  297MOL0     C39108   6.538   6.309   8.419  0.4633 -0.9178  0.1162
  297MOL0     C39109   6.604   6.280   8.545  0.1374  0.8426  1.2609
  297MOL0     C39110   6.668   6.407   8.604  1.0875  0.2047 -0.2635
  297MOL0     C39111   6.766   6.359   8.713  0.1156 -0.1208 -0.4120
  297MOL0     C39112   6.912   6.331   8.660 -0.2097 -0.0605 -0.5721
  297MOL0     C39113   7.011   6.274   8.756 -0.0935  0.9613 -0.5355
  297MOL0     C39114   7.142   6.267   8.682 -1.1252 -0.2579  0.2734
  297MOL0     C39115   7.138   6.178   8.556  0.4104 -0.0269  0.2348
  297MOL0    Cl39116   7.314   6.153   8.490 -0.0513  0.3780  0.1080
  297MOL0     C39117   6.281   6.564   8.357  0.3287 -1.3555 -0.2271
  297MOL0     C39118   6.199   6.616   8.256 -0.7633 -0.8584  0.4755
  297MOL0     O39119   6.037   6.379   7.990 -0.1765 -0.0852  0.2507
  297MOL0     C39120   5.877   6.647   7.804 -1.0996 -0.1155  0.7390
  297MOL0     C39121   5.816   6.679   7.681  0.1045  0.5603 -0.1794
  297MOL0     N39122   5.989   6.940   6.879  0.2796 -0.4959  0.2015
  297MOL0     N39123   6.029   7.053   6.827  0.1226  0.8219  0.0968
  297MOL0     C39124   5.580   8.091   6.995  0.8955 -0.3766  0.0144
  297MOL0     C39125   5.540   8.217   7.048 -0.2925  0.0873  0.6406
  297MOL0     C39126   5.259   8.477   7.286 -0.1542  0.5981  0.0342
  297MOL0     C39127   5.216   8.600   7.225  0.0262 -0.1015  0.0467
  297MOL0     C39128   5.171   8.711   7.296 -0.4230  0.5947 -0.0792
  297MOL0     C39129   5.170   8.708   7.436 -0.3151 -0.0252 -0.3957
  297MOL0     O39130   5.138   8.808   7.529  0.6576 -0.0577  0.0568
  297MOL0     C39131   5.084   8.922   7.475  0.7421  0.2341  0.8884
  297MOL0     C39132   5.028   9.002   7.595  0.4185  0.2347  0.5245
  297MOL0     C39133   5.136   9.091   7.661 -0.3610 -1.3449 -0.8803
  297MOL0     C39134   5.253   9.019   7.735 -0.5323 -0.1071 -0.5679
  297MOL0     C39135   5.315   9.122   7.822 -0.2318  0.8932 -0.0358
  297MOL0     C39136   5.346   9.214   7.888  0.4216 -0.5815 -0.5218
  297MOL0     C39137   5.222   8.590   7.499  0.6237 -0.5527 -0.5917
  297MOL0     C39138   5.257   8.478   7.430 -0.5332  0.5893  0.4657
  297MOL0     H39139   5.513   8.106   7.373  3.2021 -0.6549  0.0837
  297MOL0     H39140   5.561   7.908   7.280  1.5244 -0.3064  0.0200
  297MOL0     H39141   5.657   7.888   6.828  1.9606  1.8981  1.5522
  297MOL0     H39142   5.665   7.718   6.888 -3.1879  0.0568  1.7372
  297MOL0     H39143   5.868   7.939   6.943  1.4482  1.0134 -4.2481
  297MOL0     H39144   5.902   7.803   6.846  2.4061  2.5820  0.9746
  297MOL0     H39145   5.846   7.661   7.049  0.7122  0.1359  0.3354
  297MOL0     H39146   5.875   7.790   7.143  0.2730  0.5409 -0.5826
  297MOL0     H39147   6.106   7.824   6.977  0.0643  0.1633  0.3466
  297MOL0     H39148   6.111   7.746   7.134 -1.8816  0.7115  1.4602
  297MOL0     H39149   6.219   7.609   6.970  0.2453  1.2849 -0.6344
  297MOL0     H39150   6.084   7.607   6.865  0.4354  2.1602  0.1273
  297MOL0     H39151   5.963   7.469   7.065  0.6441  2.2028  1.3574
  297MOL0     H39152   6.111   7.504   7.149 -2.1219  1.8502  1.4127
  297MOL0     H39153   6.242   7.376   6.955  0.0946  0.7498 -1.0110
  297MOL0     H39154   6.164   7.282   7.078  2.5654  2.1972  1.2544
  297MOL0     H39155   6.111   7.293   6.794  0.3040 -1.4125  0.1486
  297MOL0     H39156   5.965   7.318   6.880 -0.1615 -0.0869  1.8245
  297MOL0     H39157   6.003   7.142   7.142  0.9633  2.1915 -1.3481
  297MOL0     H39158   5.930   6.760   7.067 -1.6061 -0.4136  0.5784
  297MOL0     H39159   5.806   6.857   7.144 -1.2602 -0.3261 -1.9874
  297MOL0     H39160   5.961   6.949   7.307  0.0833  0.8542 -0.2759
  297MOL0     H39161   6.090   6.866   7.246  0.6908 -4.2829 -0.0295
  297MOL0     H39162   5.946   6.653   7.257  1.4010  0.9254 -1.0654
  297MOL0     H39163   6.021   6.717   7.409  2.1122 -0.0876 -2.0165
  297MOL0     H39164   5.744   6.739   7.287 -0.8814 -1.2816 -0.0254
  297MOL0     H39165   5.788   6.819   7.441  1.7217 -0.4763  1.6449
  297MOL0     H39166   5.914   6.389   7.540 -1.0278 -0.1309  0.2746
  297MOL0     H39167   6.016   6.359   7.748 -0.6273 -0.4678 -2.8933
  297MOL0     H39168   6.312   6.400   8.014  0.3704  2.6402 -1.2244
  297MOL0     H39169   6.411   6.308   8.169 -0.0475  0.3871 -0.9099
  297MOL0     H39170   6.607   6.337   8.338 -2.6983  1.3523 -2.0395
  297MOL0     H39171   6.495   6.224   8.366  0.5078  0.3430 -2.0658
  297MOL0     H39172   6.685   6.207   8.533  0.0350  0.7673  1.0177
  297MOL0     H39173   6.538   6.242   8.622 -1.1451  0.2519 -0.0842
  297MOL0     H39174   6.585   6.460   8.653  1.1211  0.8867 -0.9238
  297MOL0     H39175   6.707   6.478   8.530  3.8443 -1.3745 -0.4393
  297MOL0     H39176   6.780   6.438   8.788  1.5834 -2.0338  1.4522
  297MOL0     H39177   6.732   6.278   8.778 -0.3147  0.6513  0.3578
  297MOL0     H39178   6.948   6.433   8.641 -1.6410  0.9182  1.5134
  297MOL0     H39179   6.901   6.267   8.572  3.7568 -1.6418 -0.1323
  297MOL0     H39180   6.975   6.178   8.792  1.3655  0.5078 -0.2417
  297MOL0     H39181   7.018   6.329   8.850 -1.0837  0.9375 -0.4325
  297MOL0     H39182   7.179   6.367   8.660 -1.0029 -0.1576  0.8984
  297MOL0     H39183   7.215   6.210   8.741  0.6396  0.5153 -1.0900
  297MOL0     H39184   7.077   6.244   8.493  2.6840  1.4477 -0.5688
  297MOL0     H39185   7.086   6.084   8.576 -1.4975  0.1513 -3.0386
  297MOL0     H39186   6.278   6.617   8.452  0.0395  0.6346 -1.2842
  297MOL0     H39187   6.135   6.697   8.286  2.7388  0.7598  4.6022
  297MOL0     H39188   5.869   6.729   7.875 -1.9979  1.4665 -1.1167
  297MOL0     H39189   5.764   6.773   7.659 -0.6925 -0.0773 -1.1346
  297MOL0     H39190   5.606   8.081   6.890 -0.0278  1.0096 -0.3711
  297MOL0     H39191   5.529   8.303   6.983 -0.1212  0.2967  0.8916
  297MOL0     H39192   5.230   8.605   7.117  0.5792 -1.4389  0.0298
  297MOL0     H39193   5.144   8.805   7.249  3.7740  0.3839 -3.5429
  297MOL0     H39194   4.996   8.892   7.418  0.8347  2.5595 -0.6097
  297MOL0     H39195   5.151   8.977   7.409  0.5176  1.3572  1.5685
  297MOL0     H39196   4.948   9.072   7.568 -1.5086 -2.3877 -1.0671
  297MOL0     H39197   4.985   8.920   7.655 -2.5906  1.1848 -0.1506
  297MOL0     H39198   5.088   9.164   7.727  2.4374  0.2522 -0.4518
  297MOL0     H39199   5.190   9.147   7.583  2.1060 -0.8029  1.0880
  297MOL0     H39200   5.232   8.933   7.800 -0.2301  1.2632  1.4030
  297MOL0     H39201   5.315   8.996   7.648 -0.3753  0.2975 -0.5618
  297MOL0     H39202   5.360   9.295   7.957 -0.8311 -1.8648  1.3372
  297MOL0     H39203   5.212   8.583   7.607 -2.9323 -1.7640 -0.8668
  297MOL0     H39204   5.278   8.384   7.480 -3.2915 -1.4863 -1.9225
  298MOL0     O39205   5.938   9.030   2.917  0.0606 -0.3241  0.2064
  298MOL0     C39206   5.824   9.029   2.892  0.2202 -1.0385  0.4023
  298MOL0     O39207   5.726   9.110   2.946  0.4422 -0.3817 -0.1514
  298MOL0     C39208   5.733   9.164   3.073 -0.4039 -0.6796  1.1860
  298MOL0     C39209   5.758   9.088   3.191  0.2047  0.8367 -0.7441
  298MOL0     C39210   5.785   9.150   3.315 -0.9944  0.1957 -1.0418
  298MOL0     C39211   5.766   9.291   3.329 -0.3082 -0.4086 -0.2110
  298MOL0     O39212   5.789   9.363   3.445 -0.0545 -0.0459 -0.5932
  298MOL0     C39213   5.921   9.357   3.499 -0.3447 -0.6882 -0.9150
  298MOL0     C39214   5.991   9.491   3.545 -0.2866  0.3051 -0.0786
  298MOL0     C39215   5.942   9.556   3.674  0.4217  0.0576  0.4306
  298MOL0     C39216   5.803   9.611   3.660  0.5252 -0.2447 -0.1719
  298MOL0     C39217   5.766   9.720   3.766 -0.2196  0.2624 -0.4486
  298MOL0     C39218   5.779   9.666   3.911  0.1880  0.5971 -0.2739
  298MOL0     C39219   5.662   9.692   4.004 -0.4176  0.9487 -1.9538
  298MOL0     C39220   5.697   9.640   4.148 -0.2444  0.5683 -0.3721
  298MOL0     N39221   5.797   9.719   4.219 -0.2368 -1.4168 -0.1820
  298MOL0     C39222   5.761   9.845   4.268 -1.0197 -0.1909  0.7115
  298MOL0     C39223   5.854   9.879   4.357 -0.6592 -0.8012  0.1675
  298MOL0     C39224   5.868  10.013   4.428  0.7647 -1.7978  0.9113
  298MOL0     C39225   5.725  10.063   4.488  1.1693 -0.4715 -0.0104
  298MOL0     C39226   5.708  10.216   4.512 -0.6499  0.2774 -0.3658
  298MOL0     C39227   5.680  10.299   4.382  0.0747 -0.0137  0.3407
  298MOL0     O39228   5.689  10.438   4.406 -0.7138  0.2172  0.1734
  298MOL0     C39229   5.805  10.496   4.444 -0.1341 -0.0356 -1.7161
  298MOL0     C39230   5.790  10.617   4.508  0.0577 -0.7645 -0.2071
  298MOL0     C39231   5.898  10.691   4.564  0.0529 -1.3709 -0.1141
  298MOL0     C39232   6.032  10.636   4.555 -1.1620  0.0433  0.4499
  298MOL0     C39233   6.140  10.717   4.611 -0.6625 -0.2550 -0.2680
  298MOL0     O39234   6.106  10.837   4.672 -0.0422 -0.0199  0.2472
  298MOL0     C39235   6.175  10.884   4.779 -0.3246 -0.3213  0.2450
  298MOL0     C39236   6.197  11.027   4.789 -0.2051 -0.5274  0.6729
  298MOL0     C39237   6.261  11.073   4.906  0.8861  0.4955  0.0946
  298MOL0     C39238   6.311  10.985   4.998  0.3028  0.1938  0.2692
  298MOL0     O39239   6.371  11.043   5.104  0.3236 -0.1763 -0.3648
  298MOL0     C39240   6.417  10.959   5.215  0.8525 -0.0706  0.8959
  298MOL0     C39241   6.295  10.907   5.312 -0.1376  0.1206 -1.2446
  298MOL0     C39242   6.190  11.015   5.353 -0.3828 -0.0816  0.3014
  298MOL0     C39243   6.249  11.152   5.385  0.1438  0.0553  0.7030
  298MOL0     C39244   6.131  11.240   5.427  0.2250  0.0106 -0.0337
  298MOL0     C39245   6.164  11.381   5.468  0.3469  0.2298 -0.3431
  298MOL0     C39246   6.043  11.440   5.540  0.0502 -0.2015 -0.0724
  298MOL0     C39247   6.078  11.590   5.569 -0.7014  0.5720  0.3489
  298MOL0    Cl39248   6.003  11.651   5.721 -0.5078  0.2933  0.4461
  298MOL0     C39249   6.283  10.853   4.987 -0.8662 -0.3315  0.1739
  298MOL0     C39250   6.205  10.801   4.888  0.9853 -0.4325  0.5621
  298MOL0     O39251   6.252  10.665   4.616  0.0312  0.7388 -0.0376
  298MOL0     C39252   6.047  10.510   4.499 -0.1125  0.4644  0.4076
  298MOL0     C39253   5.935  10.447   4.444  0.5231 -0.3354  0.4588
  298MOL0     N39254   5.935   9.774   4.381 -0.3105 -0.9427  0.1592
  298MOL0     N39255   5.898   9.677   4.296 -0.1890 -0.5856  0.4522
  298MOL0     C39256   5.736   9.363   3.209  0.3261 -0.5888  0.3434
  298MOL0     C39257   5.717   9.300   3.078 -0.2607  0.6805  0.2030
  298MOL0     C39258   5.777   8.963   2.776 -1.2678 -0.6431 -0.1830
  298MOL0     C39259   5.880   8.912   2.690 -0.6465  0.7742  0.6703
  298MOL0     C39260   5.850   8.834   2.580 -0.1179  0.1455  0.5375
  298MOL0     C39261   5.717   8.798   2.557 -0.0873 -0.4223 -0.0280
  298MOL0     O39262   5.699   8.710   2.450  0.1639  0.5892 -0.0865
  298MOL0     C39263   5.572   8.632   2.445 -0.1757  0.0577  0.0491
  298MOL0     C39264   5.572   8.547   2.319  0.5039  0.2407 -0.8214
  298MOL0     C39265   5.604   8.632   2.192  0.1293  0.3599  0.3049
  298MOL0     C39266   5.624   8.549   2.065  0.8157 -0.0337  0.2519
  298MOL0     C39267   5.502   8.495   2.008 -0.6533 -0.1055  0.0261
  298MOL0     C39268   5.414   8.431   1.943  1.0563 -0.4324 -1.3449
  298MOL0     C39269   5.610   8.855   2.640 -0.0042  0.0856 -0.0010
  298MOL0     C39270   5.642   8.931   2.751 -0.0964  1.5937 -0.3133
  298MOL0     H39271   5.779   8.982   3.185  1.9781  0.7297  3.6640
  298MOL0     H39272   5.818   9.090   3.399 -3.7264 -0.9856 -0.6714
  298MOL0     H39273   5.990   9.302   3.435  0.2089 -0.6071 -0.3997
  298MOL0     H39274   5.916   9.304   3.595  2.1752  0.3172 -0.1660
  298MOL0     H39275   5.973   9.571   3.472  1.7710  0.5188 -0.4043
  298MOL0     H39276   6.098   9.471   3.544 -0.8418 -3.4974  0.3760
  298MOL0     H39277   6.015   9.634   3.699  4.1263 -2.8081 -0.5450
  298MOL0     H39278   5.944   9.486   3.758  0.4010  0.0437  0.4196
  298MOL0     H39279   5.802   9.665   3.564  1.2308 -2.5502 -1.5582
  298MOL0     H39280   5.723   9.538   3.649 -1.9597  1.9535  1.9112
  298MOL0     H39281   5.663   9.748   3.742  0.1244  0.6257 -1.5587
  298MOL0     H39282   5.838   9.801   3.760 -0.1896  0.4583  1.6486
  298MOL0     H39283   5.874   9.690   3.958 -1.4451  1.4190  2.9104
  298MOL0     H39284   5.801   9.559   3.920  0.6934  0.8979  4.6998
  298MOL0     H39285   5.649   9.800   4.019  0.2230  0.9306 -1.1966
  298MOL0     H39286   5.564   9.654   3.975 -0.8683  0.2554  0.3176
  298MOL0     H39287   5.730   9.537   4.138 -2.1914 -0.2938  1.3302
  298MOL0     H39288   5.603   9.643   4.204 -0.0887  4.0637 -0.0635
  298MOL0     H39289   5.684   9.912   4.228  0.9452  2.5504  1.2615
  298MOL0     H39290   5.906  10.085   4.355 -1.3282  0.1446  1.6276
  298MOL0     H39291   5.939  10.008   4.510 -2.0574 -2.2588  3.5185
  298MOL0     H39292   5.702  10.003   4.577 -0.4323 -4.2165 -2.6681
  298MOL0     H39293   5.636  10.038   4.429 -0.8031 -0.7693  2.8493
  298MOL0     H39294   5.622  10.235   4.578 -2.2385 -1.4974 -1.7955
  298MOL0     H39295   5.803  10.254   4.550  0.1962  0.7483 -2.7820
  298MOL0     H39296   5.582  10.268   4.346  1.5681 -1.7826 -2.6406
  298MOL0     H39297   5.751  10.267   4.305  1.0847 -0.4899  1.4156
  298MOL0     H39298   5.688  10.653   4.509  0.4176  0.5080  2.5661
  298MOL0     H39299   5.878  10.794   4.591  0.1309 -1.6849  1.1837
  298MOL0     H39300   6.152  11.105   4.728 -0.0932 -0.9194  0.0746
  298MOL0     H39301   6.278  11.180   4.918 -1.0214  1.0564 -1.6547
  298MOL0     H39302   6.483  11.023   5.274 -0.5329  2.3136 -0.0241
  298MOL0     H39303   6.472  10.874   5.173  0.5109  0.9248 -1.7403
  298MOL0     H39304   6.340  10.877   5.407 -0.8155 -0.2716 -1.0403
  298MOL0     H39305   6.241  10.820   5.271  0.5229  0.0622 -2.0147
  298MOL0     H39306   6.142  10.982   5.446 -2.9120 -0.4134 -1.0297
  298MOL0     H39307   6.112  11.025   5.277 -0.5790  1.0932  0.6394
  298MOL0     H39308   6.316  11.140   5.471 -0.7479 -0.7576  1.3106
  298MOL0     H39309   6.297  11.199   5.299 -1.2600 -1.1246 -0.8140
  298MOL0     H39310   6.072  11.200   5.510 -2.3248  1.2080 -1.1696
  298MOL0     H39311   6.064  11.228   5.341  0.7802 -0.0198 -0.4705
  298MOL0     H39312   6.186  11.452   5.387 -0.9139  1.6906  0.5253
  298MOL0     H39313   6.249  11.382   5.537  0.2783  0.0177 -0.2566
  298MOL0     H39314   5.953  11.443   5.479  0.4237 -0.5762 -0.6388
  298MOL0     H39315   6.020  11.393   5.637 -1.2227 -1.3107 -0.8799
  298MOL0     H39316   6.048  11.651   5.483  1.0002  0.4496 -0.3571
  298MOL0     H39317   6.187  11.598   5.569 -0.3788 -1.4305 -3.2393
  298MOL0     H39318   6.317  10.782   5.063 -2.1754 -1.8195 -0.5647
  298MOL0     H39319   6.180  10.695   4.880 -4.3186  0.4380  1.7232
  298MOL0     H39320   6.146  10.467   4.486 -0.8307 -0.6664 -2.0325
  298MOL0     H39321   5.953  10.347   4.406  1.5832 -0.9477  2.4102
  298MOL0     H39322   5.739   9.469   3.229 -0.2945 -0.9028  2.3310
  298MOL0     H39323   5.707   9.362   2.989  0.4490  0.6770  0.1115
  298MOL0     H39324   5.985   8.917   2.719  0.3479 -1.3885 -2.0549
  298MOL0     H39325   5.925   8.801   2.509 -0.8880 -0.4974  0.0162
  298MOL0     H39326   5.491   8.705   2.441  0.1255  0.3748 -0.2720
  298MOL0     H39327   5.573   8.576   2.540  1.0454 -1.7646 -0.9646
  298MOL0     H39328   5.649   8.470   2.321 -1.7210 -2.1202 -0.2655
  298MOL0     H39329   5.477   8.492   2.321  0.5439  0.0199  3.6526
  298MOL0     H39330   5.698   8.686   2.203  2.4028 -2.7504 -1.8830
  298MOL0     H39331   5.526   8.706   2.170  0.8430  1.2211  0.6262
  298MOL0     H39332   5.663   8.610   1.983  0.9532 -0.4303  0.0166
  298MOL0     H39333   5.689   8.461   2.076  0.2569 -0.4573  0.1870
  298MOL0     H39334   5.336   8.382   1.889 -0.6235  0.0907  0.4602
  298MOL0     H39335   5.505   8.829   2.631  0.0510 -0.3798  0.6279
  298MOL0     H39336   5.571   8.965   2.825  2.5418 -1.9410  4.3945
  299MOL0     O39337   4.325   5.713   7.854  0.0389  0.0099  0.1721
  299MOL0     C39338   4.416   5.631   7.839 -1.1137  1.4591  0.0656
  299MOL0     O39339   4.458   5.574   7.725 -0.1754  0.7937 -0.5033
  299MOL0     C39340   4.401   5.614   7.609  0.8973 -0.0767 -0.1686
  299MOL0     C39341   4.459   5.712   7.520 -0.3404 -0.0007 -0.3467
  299MOL0     C39342   4.402   5.759   7.396 -0.4851  1.0178 -0.5391
  299MOL0     C39343   4.287   5.692   7.354  0.2196  0.6683  0.0796
  299MOL0     O39344   4.233   5.734   7.233 -1.3061  0.3977  0.6492
  299MOL0     C39345   4.289   5.650   7.135  0.4296 -0.7099  0.5758
  299MOL0     C39346   4.237   5.666   6.987 -0.0650  0.0305 -0.0678
  299MOL0     C39347   4.334   5.735   6.891 -0.0312 -0.0334  0.4939
  299MOL0     C39348   4.339   5.878   6.908 -0.1843 -0.9889  0.0572
  299MOL0     C39349   4.230   5.967   6.838  0.9422 -0.3064  0.8238
  299MOL0     C39350   4.277   5.985   6.692 -0.2459 -0.3086  0.2232
  299MOL0     C39351   4.179   6.049   6.598  0.4213 -0.3778  0.1441
  299MOL0     C39352   4.092   5.939   6.553  0.2798 -0.1493  0.5104
  299MOL0     N39353   4.124   5.881   6.424 -0.2173  0.0452 -0.7343
  299MOL0     C39354   4.021   5.881   6.334 -0.7331  1.4473 -0.4970
  299MOL0     C39355   4.075   5.808   6.228  0.7634 -0.7762 -0.8122
  299MOL0     C39356   3.998   5.798   6.087  0.3116 -0.3330  0.5400
  299MOL0     C39357   4.085   5.704   6.010  1.2318  0.3840 -0.2676
  299MOL0     C39358   4.014   5.657   5.880 -0.4805  0.1280  0.1815
  299MOL0     C39359   4.118   5.610   5.773  0.1690  0.0262 -1.0869
  299MOL0     O39360   4.203   5.720   5.730 -1.3049  0.9104 -0.4189
  299MOL0     C39361   4.155   5.822   5.653  0.3225 -0.1361  0.0584
  299MOL0     C39362   4.022   5.831   5.595 -1.3221  0.6501  0.4135
  299MOL0     C39363   3.987   5.929   5.514  0.1202  0.5151  0.5616
  299MOL0     C39364   4.059   6.044   5.497 -0.8255 -0.3345 -0.1114
  299MOL0     C39365   4.002   6.154   5.418 -0.7063 -1.3429 -0.0388
  299MOL0     O39366   4.085   6.262   5.428  0.1084 -0.1013  0.1225
  299MOL0     C39367   4.054   6.381   5.364 -0.1062  0.4950 -0.4603
  299MOL0     C39368   3.949   6.462   5.405 -0.0958  1.0917 -0.1600
  299MOL0     C39369   3.926   6.580   5.347  0.4149  0.4873  0.0939
  299MOL0     C39370   3.986   6.622   5.230 -0.0276 -0.4467  1.8794
  299MOL0     O39371   3.940   6.736   5.166  0.5532  0.5446  0.1607
  299MOL0     C39372   3.987   6.763   5.039  0.0507 -0.8668 -0.1600
  299MOL0     C39373   3.914   6.884   4.986  0.8394 -1.0517  0.5358
  299MOL0     C39374   3.924   7.010   5.076 -0.2819  0.1012 -0.0272
  299MOL0     C39375   3.851   7.143   5.024  0.1740  0.5475 -0.3695
  299MOL0     C39376   3.708   7.132   4.978  0.8234 -0.0404  0.3398
  299MOL0     C39377   3.668   7.261   4.904 -0.0112 -0.1781  0.3077
  299MOL0     C39378   3.732   7.293   4.763  0.3413  0.1854 -0.0588
  299MOL0     C39379   3.660   7.416   4.706  0.9504  0.9935  0.0557
  299MOL0    Cl39380   3.679   7.560   4.808 -0.2074  0.2547  0.2747
  299MOL0     C39381   4.092   6.538   5.171  0.0303  0.2493  0.9870
  299MOL0     C39382   4.121   6.419   5.244 -1.2205  0.5662 -0.7039
  299MOL0     O39383   3.901   6.146   5.352 -0.0696  1.1697  0.0399
  299MOL0     C39384   4.196   6.038   5.540  0.5515 -0.2433  0.1883
  299MOL0     C39385   4.246   5.926   5.609 -0.1510  0.1240 -1.0959
  299MOL0     N39386   4.203   5.783   6.254 -0.3447  0.0723  0.8630
  299MOL0     N39387   4.232   5.821   6.370 -0.3885 -0.1022 -0.2257
  299MOL0     C39388   4.227   5.605   7.436  0.4780 -0.1335  0.7142
  299MOL0     C39389   4.284   5.560   7.561 -1.4216 -0.0379  1.0794
  299MOL0     C39390   4.499   5.595   7.961  0.3320 -0.8030  0.1337
  299MOL0     C39391   4.618   5.522   7.954  0.5033 -0.3733 -0.1044
  299MOL0     C39392   4.700   5.487   8.066  0.8010 -0.2648 -0.2774
  299MOL0     C39393   4.660   5.527   8.194  0.4281  0.2167  0.1551
  299MOL0     O39394   4.715   5.497   8.310 -0.0846 -0.6625 -0.4121
  299MOL0     C39395   4.852   5.465   8.302  0.2605  0.1915 -0.9371
  299MOL0     C39396   4.913   5.477   8.447 -0.8795 -0.9337  0.0128
  299MOL0     C39397   5.060   5.516   8.442 -1.0235  0.3066 -0.2769
  299MOL0     C39398   5.114   5.536   8.592 -0.0021  0.2265  0.7233
  299MOL0     C39399   5.140   5.417   8.671 -0.2156 -0.0644 -0.1463
  299MOL0     C39400   5.160   5.331   8.750  0.3857  0.4319  0.0481
  299MOL0     C39401   4.545   5.614   8.193 -0.4533 -0.0434 -0.5408
  299MOL0     C39402   4.462   5.642   8.091  0.5986 -0.1347  0.3318
  299MOL0     H39403   4.556   5.734   7.564  0.1859 -1.6651 -0.6018
  299MOL0     H39404   4.458   5.815   7.322 -1.9761 -0.7710 -3.1595
  299MOL0     H39405   4.260   5.550   7.168  0.5165 -0.0702  2.7393
  299MOL0     H39406   4.398   5.640   7.129  0.5866 -0.1476  2.1103
  299MOL0     H39407   4.137   5.711   6.983 -0.6189 -1.0738 -4.5348
  299MOL0     H39408   4.216   5.564   6.954  2.6211 -0.9973  1.1222
  299MOL0     H39409   4.301   5.720   6.787  1.9966 -1.0272 -0.0501
  299MOL0     H39410   4.435   5.695   6.895  1.4382  2.8557 -2.3731
  299MOL0     H39411   4.345   5.914   7.012 -0.0487  0.5138 -0.4446
  299MOL0     H39412   4.440   5.911   6.882 -1.4643  4.7516  0.8997
  299MOL0     H39413   4.218   6.063   6.887 -4.1622  1.7858 -3.4567
  299MOL0     H39414   4.127   5.929   6.835  0.8135  0.0779  0.3951
  299MOL0     H39415   4.301   5.891   6.642 -1.8780 -0.0597 -1.1113
  299MOL0     H39416   4.372   6.038   6.682 -2.1081  2.9462 -2.4369
  299MOL0     H39417   4.134   6.136   6.645  2.6603  0.4070  0.9538
  299MOL0     H39418   4.232   6.088   6.511  1.5644 -1.3241  0.3919
  299MOL0     H39419   3.995   5.988   6.565  1.3154  1.9590  0.7434
  299MOL0     H39420   4.091   5.855   6.624 -0.0233 -0.4535  0.1513
  299MOL0     H39421   3.929   5.937   6.339 -2.5622 -1.4056 -0.1084
  299MOL0     H39422   4.007   5.898   6.044  4.9685 -0.5252  0.5135
  299MOL0     H39423   3.893   5.770   6.101  0.0306  1.7618  3.4886
  299MOL0     H39424   4.108   5.618   6.074 -2.8237 -0.7020  0.0374
  299MOL0     H39425   4.178   5.755   5.986 -0.5215  4.0041 -0.0252
  299MOL0     H39426   3.947   5.570   5.885 -1.4856  0.8982  4.6821
  299MOL0     H39427   3.957   5.741   5.840 -2.7770 -1.0862  0.6555
  299MOL0     H39428   4.075   5.565   5.683  1.0230 -0.5917 -1.1998
  299MOL0     H39429   4.181   5.533   5.818 -0.0485 -0.3057 -1.3505
  299MOL0     H39430   3.964   5.740   5.606 -2.6020  1.4535  0.5040
  299MOL0     H39431   3.890   5.918   5.467 -1.0690  0.3948  2.8629
  299MOL0     H39432   3.890   6.422   5.487 -1.4935  3.2894 -0.0108
  299MOL0     H39433   3.848   6.644   5.388  0.3277 -0.2861  1.1581
  299MOL0     H39434   3.965   6.674   4.979 -1.6007  0.4535 -1.6117
  299MOL0     H39435   4.094   6.783   5.043 -0.0456  0.1856 -1.8567
  299MOL0     H39436   3.806   6.869   4.976  0.7355 -1.0360  1.5658
  299MOL0     H39437   3.945   6.902   4.883 -3.8730  1.1196 -0.7753
  299MOL0     H39438   4.029   7.035   5.089 -1.2154  4.2303  1.0134
  299MOL0     H39439   3.870   6.988   5.169 -3.1358  1.1529 -1.3061
  299MOL0     H39440   3.838   7.199   5.117  0.5870 -0.3838  0.2670
  299MOL0     H39441   3.909   7.195   4.947 -2.0134  0.3156 -2.2748
  299MOL0     H39442   3.640   7.118   5.063 -1.2184 -1.0556 -1.3715
  299MOL0     H39443   3.696   7.050   4.907  0.5958  1.5552 -1.5546
  299MOL0     H39444   3.713   7.345   4.957 -0.0971 -0.5665  1.0080
  299MOL0     H39445   3.559   7.268   4.903  0.0153  0.6259 -1.3071
  299MOL0     H39446   3.840   7.309   4.765  1.4089 -5.0517 -0.6117
  299MOL0     H39447   3.721   7.209   4.694  2.4726  1.8255 -2.5984
  299MOL0     H39448   3.554   7.395   4.688  0.9590 -1.7206  2.3151
  299MOL0     H39449   3.703   7.443   4.609 -0.5853  0.4913 -0.7971
  299MOL0     H39450   4.146   6.575   5.085 -0.7049 -0.9154 -0.0010
  299MOL0     H39451   4.211   6.365   5.215 -1.4360  0.5339 -1.3468
  299MOL0     H39452   4.266   6.120   5.525 -0.2797  0.5892  0.7957
  299MOL0     H39453   4.348   5.924   5.647 -0.4845  3.4962  0.3525
  299MOL0     H39454   4.135   5.565   7.396  0.4878  1.6904 -1.3072
  299MOL0     H39455   4.227   5.486   7.617  0.0416 -1.8099  0.2927
  299MOL0     H39456   4.649   5.481   7.858 -4.3741 -0.2852 -1.9970
  299MOL0     H39457   4.790   5.430   8.046  1.8073  2.5871 -5.6574
  299MOL0     H39458   4.907   5.536   8.239  0.2135  4.9390  3.6280
  299MOL0     H39459   4.876   5.361   8.277 -0.3335  0.6086 -3.4845
  299MOL0     H39460   4.859   5.554   8.504 -3.0314 -2.4186  0.1055
  299MOL0     H39461   4.891   5.384   8.502 -0.8040 -0.2924  1.1703
  299MOL0     H39462   5.089   5.605   8.384  0.0219  0.6168  0.6811
  299MOL0     H39463   5.116   5.433   8.397 -1.6868 -0.1287 -0.3038
  299MOL0     H39464   5.207   5.592   8.602 -1.0032  1.6229  2.8440
  299MOL0     H39465   5.050   5.604   8.649 -0.1594  0.1509  0.6400
  299MOL0     H39466   5.184   5.245   8.809  1.2164  0.9045  0.4207
  299MOL0     H39467   4.514   5.647   8.291  1.3934 -0.4901  0.2383
  299MOL0     H39468   4.366   5.687   8.117  1.4294  2.5955 -1.0033
  300MOL0     O39469   0.670   7.925   4.751 -0.3548  0.7048  0.3596
  300MOL0     C39470   0.553   7.902   4.731  0.3621  0.2859  0.1688
  300MOL0     O39471   0.475   7.824   4.814 -0.1466  0.0012  0.1828
  300MOL0     C39472   0.527   7.744   4.906  0.1694 -0.3643 -0.1603
  300MOL0     C39473   0.581   7.798   5.031 -0.8472 -0.2375  0.4633
  300MOL0     C39474   0.658   7.719   5.117  0.4192 -0.5737  0.2633
  300MOL0     C39475   0.667   7.582   5.083 -0.5677 -0.0511  0.4205
  300MOL0     O39476   0.746   7.506   5.163  0.0457  0.5883  0.2685
  300MOL0     C39477   0.678   7.443   5.275  0.3134  0.6524  0.3406
  300MOL0     C39478   0.692   7.519   5.408  0.1265  0.3722 -0.4876
  300MOL0     C39479   0.834   7.570   5.428  0.2036  0.3361  0.0123
  300MOL0     C39480   0.853   7.607   5.571 -0.7084 -0.6278 -0.3842
  300MOL0     C39481   0.997   7.642   5.613 -0.3383  0.6082  0.4330
  300MOL0     C39482   1.019   7.733   5.737 -0.2491  1.1803  0.3602
  300MOL0     C39483   1.150   7.681   5.793 -0.1542  0.0913 -0.2198
  300MOL0     C39484   1.223   7.782   5.880 -0.4424 -0.3858 -1.0515
  300MOL0     N39485   1.135   7.825   5.990  0.1611  1.3785  0.3936
  300MOL0     C39486   1.145   7.774   6.117 -0.2419 -0.3753 -0.0735
  300MOL0     C39487   1.036   7.835   6.175  0.4751  1.5267 -0.5144
  300MOL0     C39488   0.995   7.805   6.324  0.2035  0.8678  0.0208
  300MOL0     C39489   0.888   7.695   6.331 -0.7428 -0.1714  0.0986
  300MOL0     C39490   0.790   7.687   6.212  0.0344  0.7986 -0.5189
  300MOL0     C39491   0.705   7.562   6.212  0.8566 -0.9744  0.5190
  300MOL0     O39492   0.780   7.442   6.199  0.0678  1.3989 -0.4128
  300MOL0     C39493   0.735   7.373   6.091  1.1027 -0.8448 -0.2904
  300MOL0     C39494   0.679   7.251   6.122 -1.1227 -0.2274 -0.2591
  300MOL0     C39495   0.613   7.184   6.024  0.6275  1.0839 -0.5438
  300MOL0     C39496   0.590   7.240   5.896 -1.2427 -0.8484  0.3440
  300MOL0     C39497   0.515   7.161   5.805 -0.7649 -0.6029  0.4634
  300MOL0     O39498   0.440   7.071   5.864  0.3661  0.2135  0.1991
  300MOL0     C39499   0.335   7.016   5.798  0.0972  0.3242  0.0933
  300MOL0     C39500   0.301   6.880   5.814  0.2662 -0.4923 -0.4763
  300MOL0     C39501   0.194   6.811   5.752 -0.1518  0.1485 -0.4351
  300MOL0     C39502   0.092   6.894   5.692  0.6533 -0.6434  0.3701
  300MOL0     O39503  -0.025   6.831   5.655  0.3005  0.6529 -0.5213
  300MOL0     C39504  -0.091   6.760   5.758  0.2103  1.2813  0.0354
  300MOL0     C39505  -0.215   6.851   5.811 -0.3018 -0.1185  0.6751
  300MOL0     C39506  -0.334   6.844   5.711  0.2930 -0.1919  0.0788
  300MOL0     C39507  -0.443   6.946   5.756 -1.4025  0.2200 -0.8880
  300MOL0     C39508  -0.518   6.942   5.899  0.0725  0.0524  0.0955
  300MOL0     C39509  -0.651   6.881   5.862  0.4815  0.0450 -0.5841
  300MOL0     C39510  -0.715   6.799   5.980 -0.9766 -1.1242 -0.5712
  300MOL0     C39511  -0.769   6.890   6.087 -0.1315 -0.4943  0.1356
  300MOL0    Cl39512  -0.840   6.781   6.211  0.1868 -0.2296  0.2514
  300MOL0     C39513   0.113   7.035   5.679 -0.0328 -0.1949 -0.2681
  300MOL0     C39514   0.239   7.096   5.723  0.1957 -0.1088 -0.3485
  300MOL0     O39515   0.508   7.194   5.687 -0.6128 -0.1121  0.7205
  300MOL0     C39516   0.651   7.360   5.867  0.0877 -0.6379  0.9036
  300MOL0     C39517   0.731   7.428   5.961 -0.1880 -0.0235  0.6071
  300MOL0     N39518   0.977   7.921   6.087 -0.6085  0.5253 -0.1331
  300MOL0     N39519   1.043   7.914   5.979  0.3276 -0.3479 -0.3175
  300MOL0     C39520   0.613   7.526   4.967 -0.0601  1.0292 -0.3082
  300MOL0     C39521   0.544   7.605   4.873 -0.0273 -0.1181 -0.1010
  300MOL0     C39522   0.492   7.968   4.610  0.5920  0.1586 -0.2466
  300MOL0     C39523   0.347   7.969   4.599 -0.0367  0.2307  0.9608
  300MOL0     C39524   0.297   8.018   4.483 -0.2954  0.4829 -0.6932
  300MOL0     C39525   0.378   8.064   4.376 -0.5394  0.0758 -0.1712
  300MOL0     O39526   0.296   8.099   4.260  0.0189 -0.7518 -0.5124
  300MOL0     C39527   0.357   8.172   4.149 -0.8388  0.6883  0.0437
  300MOL0     C39528   0.270   8.282   4.088  0.0577  0.5647 -0.5722
  300MOL0     C39529   0.291   8.412   4.166  0.0302 -0.0837 -0.4629
  300MOL0     C39530   0.282   8.406   4.323 -0.5490 -0.3599 -0.1984
  300MOL0     C39531   0.154   8.353   4.385 -0.0893 -0.1062 -0.3325
  300MOL0     C39532   0.076   8.273   4.436  0.0909  0.6247 -0.9897
  300MOL0     C39533   0.517   8.067   4.393  0.2382 -1.6750 -0.1315
  300MOL0     C39534   0.573   8.014   4.506  0.0546  1.5039  0.3827
  300MOL0     H39535   0.580   7.905   5.052  0.8877 -0.0424 -0.3137
  300MOL0     H39536   0.692   7.759   5.213  2.7003 -3.2947  0.7296
  300MOL0     H39537   0.727   7.346   5.288 -1.4048 -0.2187  0.6812
  300MOL0     H39538   0.571   7.431   5.257  0.3287  1.5846 -0.4665
  300MOL0     H39539   0.661   7.459   5.494  1.7796  2.6450  1.8425
  300MOL0     H39540   0.613   7.594   5.399 -0.8470 -0.7809 -2.0778
  300MOL0     H39541   0.845   7.660   5.366 -1.7602 -0.0029 -0.8997
  300MOL0     H39542   0.901   7.493   5.388  0.4382  1.3241 -1.5815
  300MOL0     H39543   0.798   7.700   5.589 -0.2293 -0.2237 -1.0069
  300MOL0     H39544   0.807   7.523   5.626 -2.7993  0.1375 -0.8507
  300MOL0     H39545   1.049   7.662   5.518  1.0823  0.1958  1.0891
  300MOL0     H39546   1.029   7.540   5.635 -4.4518 -1.3364 -1.4927
  300MOL0     H39547   0.935   7.723   5.808 -2.1447 -0.3388 -1.9459
  300MOL0     H39548   1.038   7.836   5.703 -4.3143  1.2050 -2.5825
  300MOL0     H39549   1.132   7.587   5.845  3.0011 -0.8427 -0.6250
  300MOL0     H39550   1.225   7.661   5.716 -0.1177  2.5733 -0.9171
  300MOL0     H39551   1.246   7.869   5.818 -1.5136  0.7101  0.0470
  300MOL0     H39552   1.317   7.734   5.907 -0.2921 -0.2165 -1.2743
  300MOL0     H39553   1.221   7.716   6.167  0.2780 -0.3102 -0.7671
  300MOL0     H39554   0.962   7.888   6.387 -2.2049  2.2301 -2.7736
  300MOL0     H39555   1.093   7.773   6.358  0.1452  1.0113  0.3252
  300MOL0     H39556   0.853   7.697   6.434 -0.7851  1.1906  0.0671
  300MOL0     H39557   0.939   7.598   6.323  0.8105  0.7138 -1.6956
  300MOL0     H39558   0.728   7.778   6.209  0.5181  1.1059 -3.3504
  300MOL0     H39559   0.841   7.698   6.117 -1.5420 -1.4726 -1.7227
  300MOL0     H39560   0.646   7.593   6.126  1.2935 -1.8580 -0.1068
  300MOL0     H39561   0.632   7.558   6.294  0.4879 -0.8879  0.2019
  300MOL0     H39562   0.702   7.224   6.224  2.7981  2.9181 -0.0588
  300MOL0     H39563   0.563   7.095   6.063  2.0250  1.3501  2.0950
  300MOL0     H39564   0.371   6.816   5.866  0.6774  0.3406  0.0137
  300MOL0     H39565   0.184   6.704   5.766 -1.6061  0.4922  1.4877
  300MOL0     H39566  -0.028   6.732   5.843 -0.5772 -1.5916 -0.2316
  300MOL0     H39567  -0.129   6.667   5.714 -2.8709  2.8373 -0.8618
  300MOL0     H39568  -0.189   6.957   5.821  1.9301  0.0459 -3.9845
  300MOL0     H39569  -0.246   6.818   5.911 -0.3976 -0.6734  0.4689
  300MOL0     H39570  -0.372   6.741   5.706  1.2221 -0.4965 -3.0155
  300MOL0     H39571  -0.308   6.859   5.606 -0.8804  0.8005 -0.0927
  300MOL0     H39572  -0.389   7.041   5.762  3.7532 -2.3937  0.0054
  300MOL0     H39573  -0.517   6.952   5.676 -0.6997  2.8047 -1.4290
  300MOL0     H39574  -0.534   7.036   5.952 -2.7250  2.2591 -4.0674
  300MOL0     H39575  -0.460   6.873   5.960 -0.9908 -0.9638 -0.0215
  300MOL0     H39576  -0.642   6.806   5.782 -1.1734  0.8054 -1.5342
  300MOL0     H39577  -0.723   6.959   5.833 -0.8747 -0.2725  1.6307
  300MOL0     H39578  -0.800   6.743   5.937 -0.9194 -2.5654  1.1007
  300MOL0     H39579  -0.646   6.725   6.022 -0.8183  0.1323  1.4878
  300MOL0     H39580  -0.861   6.944   6.064 -1.4705 -1.5426  2.5965
  300MOL0     H39581  -0.691   6.955   6.129 -0.1063 -3.1781  5.0768
  300MOL0     H39582   0.028   7.088   5.636 -2.9959 -3.0116  1.6736
  300MOL0     H39583   0.251   7.202   5.702  0.8763 -0.1313 -0.1084
  300MOL0     H39584   0.660   7.390   5.763 -0.3406  1.1173  1.3484
  300MOL0     H39585   0.786   7.520   5.946  0.1274 -0.4425 -1.0636
  300MOL0     H39586   0.642   7.424   4.945 -0.8242  0.8357 -0.4335
  300MOL0     H39587   0.524   7.563   4.774 -0.5758 -0.0162 -0.0312
  300MOL0     H39588   0.279   7.922   4.669  0.1748 -2.6297 -0.6166
  300MOL0     H39589   0.190   8.012   4.467 -0.3847  1.2133 -0.3927
  300MOL0     H39590   0.392   8.103   4.072 -0.9850 -1.0854  1.5004
  300MOL0     H39591   0.446   8.220   4.191  0.3898 -0.3718 -1.2633
  300MOL0     H39592   0.293   8.311   3.985  0.9685  3.9554  0.4365
  300MOL0     H39593   0.170   8.239   4.084 -0.0215  0.1655  2.7380
  300MOL0     H39594   0.213   8.481   4.131  0.1104 -0.8265 -2.1920
  300MOL0     H39595   0.388   8.458   4.143 -0.7863  4.3286  3.2903
  300MOL0     H39596   0.364   8.343   4.359  1.2307  1.7237 -0.4352
  300MOL0     H39597   0.289   8.509   4.359 -2.6101 -0.4366  0.5692
  300MOL0     H39598   0.007   8.204   4.480  1.2367  0.0980  0.0547
  300MOL0     H39599   0.590   8.110   4.326  0.9413  2.2031  2.7790
  300MOL0     H39600   0.679   7.991   4.511 -0.4623 -1.5961 -0.8286
  301MOL0     O39601   0.857   2.392   1.007 -0.2417 -0.6955 -0.7835
  301MOL0     C39602   0.753   2.359   0.944 -0.5154 -0.4408 -0.2957
  301MOL0     O39603   0.745   2.311   0.819 -0.7362 -1.1095 -0.5182
  301MOL0     C39604   0.865   2.300   0.746 -0.2176 -0.0084 -0.0868
  301MOL0     C39605   0.939   2.183   0.756 -0.8752  0.1371 -0.5974
  301MOL0     C39606   1.066   2.186   0.692 -0.0077 -0.5546  0.3493
  301MOL0     C39607   1.126   2.298   0.625 -1.2297  0.1955 -0.5155
  301MOL0     O39608   1.251   2.287   0.563 -0.3477  0.7870  1.0837
  301MOL0     C39609   1.329   2.402   0.525 -0.0825  0.7591  0.2821
  301MOL0     C39610   1.454   2.367   0.440 -0.7060  0.3347 -0.0144
  301MOL0     C39611   1.512   2.231   0.464 -0.0726 -0.6710 -0.1419
  301MOL0     C39612   1.450   2.108   0.376 -0.3442  0.2380  0.1404
  301MOL0     C39613   1.478   1.963   0.421  0.9523  0.6716  0.0134
  301MOL0     C39614   1.622   1.928   0.442 -0.3243  1.3722  0.1597
  301MOL0     C39615   1.645   1.775   0.455  0.0989 -0.7889  0.3833
  301MOL0     C39616   1.785   1.730   0.505 -0.3174 -0.7331 -0.1476
  301MOL0     N39617   1.883   1.756   0.393 -0.5634 -0.2316  0.2475
  301MOL0     C39618   1.896   1.674   0.277 -0.4976  0.3541 -0.7060
  301MOL0     C39619   2.000   1.740   0.214 -0.4693 -0.9657 -0.0186
  301MOL0     C39620   2.067   1.714   0.072  0.6197  0.3240 -0.4828
  301MOL0     C39621   1.964   1.736  -0.049  0.5327  0.0545 -0.3758
  301MOL0     C39622   2.024   1.726  -0.194 -0.9318  1.1187  0.0103
  301MOL0     C39623   1.920   1.734  -0.303  0.2127  0.9656  0.0317
  301MOL0     O39624   1.854   1.603  -0.325  0.8117 -0.2463  0.1965
  301MOL0     C39625   1.721   1.588  -0.344 -0.0297 -0.3773  0.1733
  301MOL0     C39626   1.657   1.625  -0.469 -0.0998  0.1954  0.1865
  301MOL0     C39627   1.520   1.592  -0.488 -0.5000 -0.0933  1.1454
  301MOL0     C39628   1.444   1.524  -0.393 -0.2658 -0.5326 -0.4679
  301MOL0     C39629   1.315   1.477  -0.419 -0.1551 -0.7232  0.4192
  301MOL0     O39630   1.253   1.438  -0.298  0.3167 -0.0585  0.7853
  301MOL0     C39631   1.127   1.374  -0.307 -0.1692 -0.9057  0.1924
  301MOL0     C39632   1.095   1.269  -0.222  0.0889  0.1637 -0.6827
  301MOL0     C39633   0.966   1.211  -0.224 -0.2627  0.2625  0.8455
  301MOL0     C39634   0.867   1.263  -0.297  0.2634 -0.2082 -0.1493
  301MOL0     O39635   0.747   1.198  -0.275 -0.5821 -0.1517 -0.7473
  301MOL0     C39636   0.638   1.233  -0.357 -1.0590 -0.3104  0.3744
  301MOL0     C39637   0.641   1.153  -0.485 -0.8217 -0.6880  0.2934
  301MOL0     C39638   0.601   1.007  -0.453  0.0934 -0.3463 -0.4332
  301MOL0     C39639   0.613   0.909  -0.569 -0.2189  0.0228  0.2216
  301MOL0     C39640   0.589   0.766  -0.522  0.0679  0.3565  0.3970
  301MOL0     C39641   0.698   0.714  -0.430  0.5562  0.2505  0.5598
  301MOL0     C39642   0.672   0.570  -0.391 -1.0753  0.4608 -0.3290
  301MOL0     C39643   0.551   0.544  -0.303 -0.5519 -0.8630 -0.3629
  301MOL0    Cl39644   0.591   0.444  -0.163 -0.3643 -0.0729 -0.0854
  301MOL0     C39645   0.897   1.372  -0.384  0.3991 -0.6009 -0.2403
  301MOL0     C39646   1.029   1.424  -0.395  0.4857  0.6951 -0.6990
  301MOL0     O39647   1.279   1.469  -0.535  0.5147 -0.4282  0.5569
  301MOL0     C39648   1.512   1.481  -0.271 -1.1703 -0.0665  0.9219
  301MOL0     C39649   1.650   1.514  -0.254  0.2172 -0.6797 -0.2764
  301MOL0     N39650   2.040   1.849   0.288 -1.0550  0.3153 -0.3993
  301MOL0     N39651   1.972   1.859   0.395  0.0977  0.2752 -0.6483
  301MOL0     C39652   1.042   2.404   0.609 -0.4827  0.3645  0.0966
  301MOL0     C39653   0.916   2.403   0.668  0.4027  0.3557 -0.9831
  301MOL0     C39654   0.630   2.392   1.013 -0.4665 -0.5348 -0.9783
  301MOL0     C39655   0.524   2.303   1.001  0.6656 -0.1703  1.2923
  301MOL0     C39656   0.400   2.327   1.056 -1.0301  0.4287 -0.4708
  301MOL0     C39657   0.373   2.446   1.123 -0.7327 -0.6659 -0.9455
  301MOL0     O39658   0.260   2.493   1.185  0.7081  0.4411  0.0451
  301MOL0     C39659   0.136   2.425   1.160  0.0803  0.1042  0.2188
  301MOL0     C39660   0.010   2.524   1.163 -0.0997 -0.1421  0.7481
  301MOL0     C39661  -0.038   2.569   1.018 -0.7378 -0.4801  0.2947
  301MOL0     C39662  -0.106   2.700   1.048 -1.0805 -1.6221  1.0965
  301MOL0     C39663  -0.166   2.764   0.932  0.2316  0.7403 -0.4307
  301MOL0     C39664  -0.228   2.819   0.848 -0.3415  0.4995 -0.2785
  301MOL0     C39665   0.488   2.530   1.149 -0.5542 -0.3252  0.8287
  301MOL0     C39666   0.613   2.509   1.089  0.0984 -0.5191 -0.1722
  301MOL0     H39667   0.909   2.091   0.806 -0.7487  0.2174 -0.3719
  301MOL0     H39668   1.128   2.097   0.688 -1.0574 -1.2592 -1.4281
  301MOL0     H39669   1.350   2.456   0.618 -0.0689  0.9304  0.1804
  301MOL0     H39670   1.266   2.465   0.461  2.6769  1.2182 -2.2017
  301MOL0     H39671   1.534   2.439   0.461 -1.9988  2.7736 -2.7661
  301MOL0     H39672   1.415   2.362   0.338  0.5858 -1.7015 -0.4663
  301MOL0     H39673   1.501   2.217   0.572  0.5504  2.4867  0.4154
  301MOL0     H39674   1.619   2.226   0.442  0.2934  0.2957  1.2748
  301MOL0     H39675   1.341   2.111   0.380 -0.4179 -0.2651  4.8340
  301MOL0     H39676   1.475   2.123   0.271 -0.9193  1.2356  0.1360
  301MOL0     H39677   1.443   1.886   0.351  1.6201 -0.4065  0.8134
  301MOL0     H39678   1.419   1.944   0.511 -1.7148  1.6615 -1.4071
  301MOL0     H39679   1.667   1.978   0.528  1.4279  0.6005 -0.2585
  301MOL0     H39680   1.671   1.958   0.349  2.4545  2.2219  1.7698
  301MOL0     H39681   1.565   1.733   0.517 -2.3422 -0.1361 -2.1085
  301MOL0     H39682   1.624   1.723   0.361 -2.9078 -1.6166  1.4071
  301MOL0     H39683   1.778   1.625   0.535 -1.7102 -0.8335 -0.7759
  301MOL0     H39684   1.836   1.783   0.587  3.2739 -0.5650 -2.2552
  301MOL0     H39685   1.829   1.592   0.256 -0.2863  0.5375 -2.2191
  301MOL0     H39686   2.096   1.610   0.054  0.3724 -0.3847  2.6172
  301MOL0     H39687   2.147   1.787   0.065  0.8386  0.2603  1.0156
  301MOL0     H39688   1.923   1.835  -0.025 -3.4595 -1.9781  2.4280
  301MOL0     H39689   1.878   1.670  -0.037  0.8876 -0.0778  2.0646
  301MOL0     H39690   2.097   1.805  -0.212  2.4067 -2.1249 -2.0791
  301MOL0     H39691   2.077   1.632  -0.210  0.0102  1.9021 -1.8158
  301MOL0     H39692   1.985   1.757  -0.389 -0.3041 -0.3518 -0.7386
  301MOL0     H39693   1.856   1.821  -0.285 -0.7614  0.6768 -1.7680
  301MOL0     H39694   1.709   1.687  -0.541  0.5469 -2.1448 -1.4647
  301MOL0     H39695   1.485   1.627  -0.584  3.2025  1.8990  0.3214
  301MOL0     H39696   1.178   1.227  -0.166 -2.0311 -1.7280  1.2596
  301MOL0     H39697   0.948   1.129  -0.155 -1.6699  1.7017  2.2584
  301MOL0     H39698   0.638   1.339  -0.387  2.3802 -1.1124 -3.4224
  301MOL0     H39699   0.542   1.219  -0.307 -3.1956 -3.1574 -3.9174
  301MOL0     H39700   0.739   1.146  -0.534 -0.9359  1.4519 -0.3087
  301MOL0     H39701   0.565   1.199  -0.548 -1.4872 -1.0627  0.8085
  301MOL0     H39702   0.493   1.010  -0.434 -0.1877 -0.6495 -1.8903
  301MOL0     H39703   0.661   0.977  -0.366  3.7279  0.5120 -2.4739
  301MOL0     H39704   0.545   0.929  -0.653 -0.2560  0.3962  0.3413
  301MOL0     H39705   0.715   0.919  -0.607 -0.1828 -0.5793  0.1521
  301MOL0     H39706   0.580   0.703  -0.611 -3.8259  0.0300  0.8438
  301MOL0     H39707   0.497   0.748  -0.465  0.5845 -1.5395  0.6953
  301MOL0     H39708   0.704   0.775  -0.339 -1.9219  2.2086 -0.4571
  301MOL0     H39709   0.797   0.724  -0.475  1.7680 -0.2148  2.9332
  301MOL0     H39710   0.651   0.510  -0.481  0.7890  1.4893 -1.4942
  301MOL0     H39711   0.759   0.533  -0.337 -1.0414  0.2476 -0.5276
  301MOL0     H39712   0.471   0.486  -0.350 -3.7031  0.6850  2.6169
  301MOL0     H39713   0.520   0.645  -0.274  1.1477 -0.2138 -0.6558
  301MOL0     H39714   0.811   1.410  -0.438 -1.5415 -2.2112  1.5862
  301MOL0     H39715   1.045   1.507  -0.464 -0.5178  0.4927 -1.1931
  301MOL0     H39716   1.468   1.420  -0.194  0.2869  0.4849  2.2432
  301MOL0     H39717   1.706   1.473  -0.171 -1.9898  0.4279  1.8762
  301MOL0     H39718   1.083   2.489   0.555  3.6910  0.9098  3.6146
  301MOL0     H39719   0.845   2.484   0.653 -1.9426 -0.2192  4.6248
  301MOL0     H39720   0.532   2.214   0.939 -0.7351  0.4297  0.1905
  301MOL0     H39721   0.321   2.253   1.053 -0.3934 -0.2625 -0.3770
  301MOL0     H39722   0.135   2.349   1.239  3.1409 -0.1992  0.0900
  301MOL0     H39723   0.138   2.381   1.060 -0.3371  2.9870 -1.1405
  301MOL0     H39724  -0.074   2.476   1.215 -2.1826  5.4531  3.4662
  301MOL0     H39725   0.029   2.609   1.229  2.4766 -0.9928  1.1885
  301MOL0     H39726  -0.117   2.502   0.983  0.1684 -0.8824 -1.0766
  301MOL0     H39727   0.050   2.561   0.954 -2.6111 -0.2617 -2.4616
  301MOL0     H39728  -0.181   2.686   1.127  0.5377  0.0576  3.0748
  301MOL0     H39729  -0.041   2.775   1.094 -0.1273 -1.8409  0.1261
  301MOL0     H39730  -0.290   2.881   0.786 -0.9293 -1.2185 -1.5109
  301MOL0     H39731   0.477   2.620   1.208  0.6045  0.6990 -0.4571
  301MOL0     H39732   0.682   2.591   1.106  0.7394 -0.9127 -0.8075
  302MOL0     O39733   2.257   5.141  10.983 -0.4574  0.4120 -0.2650
  302MOL0     C39734   2.149   5.184  10.948  0.6544 -0.6772 -0.1364
  302MOL0     O39735   2.062   5.244  11.028 -0.0036 -0.2548 -0.0899
  302MOL0     C39736   2.085   5.277  11.162 -0.1211 -0.4049 -0.3961
  302MOL0     C39737   2.054   5.411  11.200 -0.7733  0.6095 -0.1563
  302MOL0     C39738   2.052   5.443  11.336 -0.4056  0.4837  0.5053
  302MOL0     C39739   2.082   5.345  11.432 -0.2619  0.4613 -0.1153
  302MOL0     O39740   2.059   5.380  11.562  0.3361 -0.3108  0.1873
  302MOL0     C39741   2.115   5.498  11.621  0.0574  0.7105 -0.1138
  302MOL0     C39742   2.112   5.474  11.774  0.4244  0.5727 -0.6962
  302MOL0     C39743   2.217   5.567  11.842  0.4083 -0.3946 -0.3340
  302MOL0     C39744   2.250   5.528  11.992  0.3977 -0.1831 -0.1006
  302MOL0     C39745   2.373   5.434  12.006 -0.3048  0.1584  0.4982
  302MOL0     C39746   2.417   5.411  12.148 -0.3497  0.4411  0.0410
  302MOL0     C39747   2.505   5.529  12.194  0.0589  0.5206 -0.4138
  302MOL0     C39748   2.554   5.529  12.343 -0.5670 -0.0267 -0.3734
  302MOL0     N39749   2.680   5.454  12.348 -0.1525  0.9716  0.1454
  302MOL0     C39750   2.700   5.326  12.306 -0.3066 -1.0428 -0.0489
  302MOL0     C39751   2.828   5.297  12.326  0.0776  0.2637  0.3196
  302MOL0     C39752   2.889   5.167  12.308 -0.3228  0.8251 -0.0274
  302MOL0     C39753   2.812   5.046  12.380 -1.1537  0.0824  0.3286
  302MOL0     C39754   2.797   5.072  12.535 -0.3460  0.2770 -0.6198
  302MOL0     C39755   2.708   5.178  12.590  0.0211 -0.0400  0.4669
  302MOL0     O39756   2.583   5.157  12.512 -0.4193  0.0996 -0.8526
  302MOL0     C39757   2.466   5.207  12.561  0.8956  0.6508  0.7549
  302MOL0     C39758   2.458   5.305  12.659 -0.2293  0.6840  0.0149
  302MOL0     C39759   2.336   5.338  12.711 -0.0177  0.0337 -0.4719
  302MOL0     C39760   2.218   5.281  12.665  0.8022 -0.8914  0.9170
  302MOL0     C39761   2.087   5.334  12.716  1.1690  0.8022 -0.6869
  302MOL0     O39762   2.082   5.425  12.823 -0.6610 -0.1179 -0.2129
  302MOL0     C39763   1.955   5.460  12.857 -0.2528  0.2746 -0.4375
  302MOL0     C39764   1.903   5.600  12.849  0.1757 -0.9018  0.4158
  302MOL0     C39765   1.777   5.638  12.900  0.5127 -0.1325  0.2233
  302MOL0     C39766   1.704   5.552  12.978 -0.6281  0.5083  0.7701
  302MOL0     O39767   1.585   5.588  13.047 -0.4550  0.0311 -0.2940
  302MOL0     C39768   1.475   5.614  12.970  0.6155 -1.4465  0.4118
  302MOL0     C39769   1.382   5.491  12.974  1.1103  0.7559 -0.1502
  302MOL0     C39770   1.281   5.513  13.091 -0.6777 -0.8124 -0.8228
  302MOL0     C39771   1.194   5.387  13.116 -0.0628 -0.3563 -0.0780
  302MOL0     C39772   1.091   5.407  13.224 -0.5413 -0.4110  0.4078
  302MOL0     C39773   0.955   5.346  13.193  0.1687  0.8766  0.1432
  302MOL0     C39774   0.830   5.438  13.220  0.5950  0.4550  0.3260
  302MOL0     C39775   0.708   5.350  13.216 -0.2645  0.6048 -0.7124
  302MOL0    Cl39776   0.566   5.441  13.259 -0.0671 -0.0379 -0.3045
  302MOL0     C39777   1.753   5.419  12.993  0.0878  0.1645 -0.5748
  302MOL0     C39778   1.875   5.368  12.943  0.3494 -0.1688  0.5314
  302MOL0     O39779   1.988   5.300  12.643  0.0828  0.3667 -1.3073
  302MOL0     C39780   2.228   5.180  12.560  0.4602 -1.3252 -0.1590
  302MOL0     C39781   2.353   5.147  12.511 -0.0214 -0.3170 -0.0591
  302MOL0     N39782   2.888   5.399  12.386 -0.0451  0.3220  0.4803
  302MOL0     N39783   2.800   5.491  12.398  0.0774 -0.2182 -0.5881
  302MOL0     C39784   2.121   5.217  11.391 -0.3327 -0.3810 -0.1560
  302MOL0     C39785   2.124   5.192  11.256  0.4177 -0.3313 -1.3741
  302MOL0     C39786   2.121   5.160  10.803  0.2231 -0.5340 -0.3704
  302MOL0     C39787   2.012   5.219  10.737 -0.4644 -1.2866  0.1089
  302MOL0     C39788   1.976   5.184  10.606 -0.6526  0.3629  1.6700
  302MOL0     C39789   2.055   5.102  10.529 -0.3633 -0.3898 -1.0849
  302MOL0     O39790   2.020   5.089  10.400  0.0182  0.1045 -0.2403
  302MOL0     C39791   2.085   5.001  10.311 -0.2479 -0.0939  0.1704
  302MOL0     C39792   1.995   4.979  10.188 -0.1496 -0.5755  0.1130
  302MOL0     C39793   2.024   5.092  10.087  0.1503 -0.9272  0.6202
  302MOL0     C39794   2.044   5.055   9.944  0.3034  0.0448  0.5896
  302MOL0     C39795   1.934   4.977   9.898  0.2740 -0.0325  0.1296
  302MOL0     C39796   1.826   4.930   9.866 -0.2905  0.0728  0.4529
  302MOL0     C39797   2.172   5.042  10.598  1.0512  0.0362  0.8931
  302MOL0     C39798   2.206   5.072  10.731 -0.3651  0.4381  0.3588
  302MOL0     H39799   2.039   5.483  11.120  0.5678 -0.3790 -1.3637
  302MOL0     H39800   2.021   5.545  11.355  0.5911  0.4331  2.7756
  302MOL0     H39801   2.058   5.588  11.598 -3.7141 -1.2383  0.9009
  302MOL0     H39802   2.217   5.513  11.583 -0.7443  0.1258 -2.6698
  302MOL0     H39803   2.131   5.370  11.801 -1.1403  0.0558 -1.4736
  302MOL0     H39804   2.010   5.479  11.814  0.2456  2.0374 -1.2687
  302MOL0     H39805   2.188   5.671  11.826 -1.2252 -0.8193 -0.3282
  302MOL0     H39806   2.306   5.562  11.779  2.6749 -1.4833  2.6927
  302MOL0     H39807   2.251   5.622  12.048  3.6889  0.3015 -0.8004
  302MOL0     H39808   2.161   5.479  12.032  1.8443 -0.9448  2.4327
  302MOL0     H39809   2.455   5.467  11.942 -0.9969 -0.8645 -0.9534
  302MOL0     H39810   2.336   5.337  11.970  0.9234 -0.1370 -0.0304
  302MOL0     H39811   2.476   5.319  12.139  2.1142  1.7457  1.8358
  302MOL0     H39812   2.331   5.390  12.213  1.2399 -3.1573  1.2552
  302MOL0     H39813   2.589   5.545  12.126  0.3065  1.2855  0.0597
  302MOL0     H39814   2.446   5.621  12.184  0.3031  0.5910 -1.2759
  302MOL0     H39815   2.486   5.481  12.414  0.6281  0.2148  0.9649
  302MOL0     H39816   2.573   5.633  12.374  0.7535 -1.3150  3.7690
  302MOL0     H39817   2.619   5.258  12.282 -2.1758  0.5655  1.3211
  302MOL0     H39818   2.988   5.165  12.355 -0.3867 -1.3465  0.1291
  302MOL0     H39819   2.907   5.149  12.202 -1.4561  0.2990 -0.1520
  302MOL0     H39820   2.875   4.959  12.358  0.8976  1.6381 -0.2835
  302MOL0     H39821   2.712   5.031  12.338 -0.4591  0.0376 -1.4310
  302MOL0     H39822   2.764   4.977  12.577  0.6955 -1.0104 -2.5236
  302MOL0     H39823   2.891   5.093  12.588 -3.0074  3.1300  3.5046
  302MOL0     H39824   2.756   5.273  12.566 -0.9887  0.0256 -1.5238
  302MOL0     H39825   2.697   5.162  12.697 -4.0419 -0.0129  0.2061
  302MOL0     H39826   2.545   5.344  12.710  1.7155 -3.0553 -0.1502
  302MOL0     H39827   2.340   5.406  12.796  1.2666 -2.0428  1.2376
  302MOL0     H39828   1.966   5.661  12.786 -0.0476 -2.3370 -1.2642
  302MOL0     H39829   1.752   5.743  12.892 -1.6218 -0.5873  0.3913
  302MOL0     H39830   1.505   5.628  12.866 -2.1737  2.7876 -0.0521
  302MOL0     H39831   1.424   5.709  12.989  3.5802  0.1698  0.8879
  302MOL0     H39832   1.435   5.395  12.982 -0.6416 -0.2227  0.1661
  302MOL0     H39833   1.326   5.491  12.881  1.5902  1.3901 -0.4463
  302MOL0     H39834   1.219   5.599  13.064  1.8962  0.7486 -2.2147
  302MOL0     H39835   1.341   5.528  13.181 -0.7250 -2.3173 -0.5079
  302MOL0     H39836   1.143   5.365  13.022  1.5642 -0.0940 -1.0718
  302MOL0     H39837   1.250   5.298  13.148 -1.0327 -0.5331  1.2344
  302MOL0     H39838   1.064   5.513  13.231 -1.3357 -0.5281 -0.7032
  302MOL0     H39839   1.130   5.364  13.317 -3.2964 -3.1884  0.4524
  302MOL0     H39840   0.938   5.253  13.248 -2.9168  2.2612  1.7712
  302MOL0     H39841   0.950   5.307  13.091  0.9575 -1.2044  0.8491
  302MOL0     H39842   0.842   5.492  13.315 -1.4453 -0.4697  1.1486
  302MOL0     H39843   0.828   5.515  13.142  1.2471 -1.8168 -2.0874
  302MOL0     H39844   0.729   5.263  13.279  4.6591 -0.1244 -2.8992
  302MOL0     H39845   0.697   5.308  13.116  0.1912  0.6007 -0.7619
  302MOL0     H39846   1.694   5.350  13.053 -0.7450 -0.9511 -2.5750
  302MOL0     H39847   1.911   5.267  12.962  2.3847  0.4660  0.3124
  302MOL0     H39848   2.156   5.121  12.503  2.1526 -2.0688 -1.6359
  302MOL0     H39849   2.362   5.069  12.436 -0.5389  1.0229 -1.5697
  302MOL0     H39850   2.138   5.136  11.461 -1.4974 -1.6110 -1.2366
  302MOL0     H39851   2.170   5.095  11.237 -2.3826 -1.8682 -0.9299
  302MOL0     H39852   1.951   5.288  10.794  0.8262  1.4297 -1.5524
  302MOL0     H39853   1.890   5.218  10.549  1.3957 -1.6567 -3.1616
  302MOL0     H39854   2.084   4.908  10.369 -0.0661  1.9091  3.7257
  302MOL0     H39855   2.188   5.025  10.286  0.2756 -1.4818  0.9126
  302MOL0     H39856   2.026   4.887  10.138  0.3079  0.1655 -1.0001
  302MOL0     H39857   1.892   4.971  10.225 -0.2301 -1.8852 -0.3451
  302MOL0     H39858   2.120   5.139  10.111  0.4344  0.7414 -3.1542
  302MOL0     H39859   1.946   5.169  10.097  1.8583  0.9468  0.3093
  302MOL0     H39860   2.083   5.127   9.871  0.4246 -1.8833 -1.3471
  302MOL0     H39861   2.122   4.980   9.938  2.5360  2.0370  2.5761
  302MOL0     H39862   1.730   4.882   9.869  0.3675 -1.3252  3.1247
  302MOL0     H39863   2.232   4.976  10.536 -1.7401  0.8104 -3.0088
  302MOL0     H39864   2.288   5.015  10.773 -0.5981  0.0104  0.2373
  303MOL0     O39865   2.923   8.327   4.049  0.0165 -1.0676  0.3516
  303MOL0     C39866   2.855   8.244   3.995  0.9506 -0.9416 -0.4638
  303MOL0     O39867   2.864   8.106   4.000  0.5113 -0.3412 -0.3813
  303MOL0     C39868   2.955   8.049   4.090 -0.1650  0.9328 -0.2400
  303MOL0     C39869   2.980   8.100   4.218 -0.4707 -0.5472 -0.3666
  303MOL0     C39870   3.066   8.028   4.308 -0.5036 -0.6184  0.4546
  303MOL0     C39871   3.125   7.910   4.267  0.8210  0.0020  1.4491
  303MOL0     O39872   3.215   7.839   4.342  0.4083  0.3181 -0.5199
  303MOL0     C39873   3.314   7.919   4.419  0.2444  0.2268  0.7993
  303MOL0     C39874   3.318   7.903   4.574 -0.0667 -0.1627  0.6724
  303MOL0     C39875   3.350   7.761   4.617  0.6633  0.3021 -0.8862
  303MOL0     C39876   3.229   7.672   4.636 -0.4306 -0.0462  0.4276
  303MOL0     C39877   3.265   7.557   4.733  0.7862 -0.3221  0.1040
  303MOL0     C39878   3.151   7.496   4.811  0.1591  0.0841 -0.1137
  303MOL0     C39879   3.209   7.403   4.917  0.3611  0.5878 -1.1598
  303MOL0     C39880   3.099   7.343   5.004 -0.3264 -0.5523  0.3725
  303MOL0     N39881   2.995   7.285   4.924  0.5035  0.6021  0.6777
  303MOL0     C39882   3.006   7.170   4.848  0.8544 -1.0145 -0.2621
  303MOL0     C39883   2.873   7.149   4.806 -0.0418  0.3504  0.1261
  303MOL0     C39884   2.804   7.053   4.708  0.3366  0.4677 -0.1527
  303MOL0     C39885   2.715   7.137   4.608  0.2690 -0.2823 -0.4974
  303MOL0     C39886   2.656   7.051   4.489 -0.5523 -0.6009  0.8112
  303MOL0     C39887   2.572   7.124   4.395  0.4683 -0.9061  0.2209
  303MOL0     O39888   2.648   7.219   4.328 -0.4239  0.0771 -0.6585
  303MOL0     C39889   2.599   7.253   4.202  1.5954  0.2515 -0.5139
  303MOL0     C39890   2.486   7.327   4.193  0.2708 -1.1963 -0.4492
  303MOL0     C39891   2.435   7.363   4.068 -0.1531 -0.0615 -0.3425
  303MOL0     C39892   2.489   7.319   3.946 -1.0829  0.1854  1.0246
  303MOL0     C39893   2.438   7.345   3.809 -0.4017  0.1542  0.4931
  303MOL0     O39894   2.326   7.416   3.809  0.5363  0.0130 -0.1811
  303MOL0     C39895   2.272   7.472   3.694  0.2767  0.9017 -0.0593
  303MOL0     C39896   2.300   7.431   3.559 -0.7584 -0.0047 -0.6189
  303MOL0     C39897   2.264   7.510   3.450  0.1791  0.0489  0.3863
  303MOL0     C39898   2.182   7.618   3.466  0.7144  0.2111  0.1555
  303MOL0     O39899   2.138   7.685   3.351 -0.0480 -0.0947  0.3662
  303MOL0     C39900   1.996   7.729   3.332  0.1150  0.2947  0.2113
  303MOL0     C39901   1.955   7.684   3.194  1.1506  0.4857  0.1539
  303MOL0     C39902   1.978   7.527   3.158 -0.0056  0.3447 -1.0421
  303MOL0     C39903   1.933   7.424   3.268 -0.0651  0.4746 -0.5109
  303MOL0     C39904   2.004   7.295   3.248 -0.3940  0.5535 -0.0182
  303MOL0     C39905   1.994   7.186   3.344  0.5723  0.0239 -0.6237
  303MOL0     C39906   1.849   7.131   3.360 -0.3707 -0.3190 -0.3489
  303MOL0     C39907   1.847   6.990   3.430 -0.9577 -0.0439  0.3888
  303MOL0    Cl39908   1.674   6.938   3.409 -0.6311  0.2901  0.4576
  303MOL0     C39909   2.139   7.644   3.594 -0.5038 -0.1618  0.8778
  303MOL0     C39910   2.181   7.573   3.710 -0.9116 -0.8300 -0.2207
  303MOL0     O39911   2.514   7.316   3.713 -0.5710 -0.2483  0.3338
  303MOL0     C39912   2.611   7.241   3.961  0.0930 -0.0025  0.0064
  303MOL0     C39913   2.660   7.203   4.087 -0.4911 -0.0460  0.2200
  303MOL0     N39914   2.794   7.235   4.877 -0.8967 -0.2569  0.0620
  303MOL0     N39915   2.864   7.329   4.932  0.1285  0.8249  0.0876
  303MOL0     C39916   3.087   7.864   4.137 -0.3514  0.5930  0.9791
  303MOL0     C39917   2.999   7.935   4.058 -0.1393  0.4318  0.8173
  303MOL0     C39918   2.750   8.309   3.919 -0.8822  0.2213 -1.0024
  303MOL0     C39919   2.633   8.237   3.907 -0.7089  0.0572 -0.3966
  303MOL0     C39920   2.527   8.301   3.838  0.1049  0.2976  0.6046
  303MOL0     C39921   2.543   8.428   3.777 -0.3386  1.0984 -0.4277
  303MOL0     O39922   2.434   8.488   3.726 -0.0434 -0.1964  0.4809
  303MOL0     C39923   2.407   8.618   3.786 -0.2402 -0.6551  0.0942
  303MOL0     C39924   2.326   8.598   3.910  0.4227 -0.6211  0.2690
  303MOL0     C39925   2.207   8.704   3.911 -0.9857 -0.3710 -1.1823
  303MOL0     C39926   2.157   8.714   4.053  0.5033  0.7816  0.0086
  303MOL0     C39927   2.079   8.844   4.079  0.4640 -0.0966  0.0250
  303MOL0     C39928   2.021   8.953   4.091 -0.7312 -0.0282  0.0035
  303MOL0     C39929   2.667   8.490   3.794 -0.3361  0.4421 -0.2097
  303MOL0     C39930   2.766   8.430   3.864 -1.1307 -0.3701 -0.5704
  303MOL0     H39931   2.938   8.191   4.256  1.2662 -0.6411  1.9940
  303MOL0     H39932   3.084   8.054   4.412  1.8318  0.7091 -0.1810
  303MOL0     H39933   3.292   8.025   4.407 -0.5184  0.1564  1.4687
  303MOL0     H39934   3.412   7.900   4.375 -0.0932 -1.3866  0.6718
  303MOL0     H39935   3.219   7.927   4.613 -0.8800 -0.4704 -1.0869
  303MOL0     H39936   3.402   7.965   4.605 -0.9860  1.4118  0.1611
  303MOL0     H39937   3.396   7.776   4.715  1.0244  3.8731 -1.4640
  303MOL0     H39938   3.419   7.713   4.547 -0.7048 -1.6822 -0.9691
  303MOL0     H39939   3.147   7.725   4.684 -1.0691 -0.5860 -0.0556
  303MOL0     H39940   3.199   7.633   4.539 -5.3719  1.6981  0.9401
  303MOL0     H39941   3.343   7.586   4.803 -0.9989 -2.8787  3.4524
  303MOL0     H39942   3.306   7.482   4.664  2.2748  2.1564 -1.8631
  303MOL0     H39943   3.087   7.436   4.746  0.2507  1.5966 -1.6635
  303MOL0     H39944   3.085   7.574   4.849 -0.6105 -0.4244 -0.3955
  303MOL0     H39945   3.256   7.321   4.862 -0.2655 -0.3448 -0.3462
  303MOL0     H39946   3.281   7.449   4.985  0.5737  0.2486 -1.1549
  303MOL0     H39947   3.049   7.420   5.063  0.9817  1.7593 -1.3573
  303MOL0     H39948   3.133   7.262   5.069  2.2688  0.0122 -0.1745
  303MOL0     H39949   3.090   7.103   4.831 -0.5040 -2.2493 -2.6405
  303MOL0     H39950   2.751   6.971   4.757  1.1027 -1.2742 -2.0710
  303MOL0     H39951   2.873   7.006   4.636 -0.9313 -2.1557  0.2161
  303MOL0     H39952   2.772   7.227   4.581  2.1829 -0.3507  2.8067
  303MOL0     H39953   2.628   7.176   4.661 -0.3117 -0.9078 -0.9739
  303MOL0     H39954   2.741   7.002   4.442  0.4311 -0.9271  2.8291
  303MOL0     H39955   2.607   6.965   4.536 -1.0859 -1.6834 -1.5845
  303MOL0     H39956   2.491   7.177   4.445  0.6612 -0.2734 -0.1222
  303MOL0     H39957   2.525   7.051   4.327  0.1378  0.6355 -1.2836
  303MOL0     H39958   2.433   7.358   4.282  3.0121 -0.9127  1.1926
  303MOL0     H39959   2.350   7.430   4.068 -0.4725 -0.3786  1.8731
  303MOL0     H39960   2.355   7.338   3.544 -1.3396 -0.6548  1.0780
  303MOL0     H39961   2.297   7.479   3.352  4.5339  3.7215  0.3844
  303MOL0     H39962   1.996   7.838   3.341 -2.2167  0.1698  3.7828
  303MOL0     H39963   1.933   7.687   3.411  3.4002 -2.4447  1.6240
  303MOL0     H39964   2.019   7.737   3.123  0.9310  2.8301  1.6146
  303MOL0     H39965   1.852   7.716   3.176  0.2936 -1.4376  1.3353
  303MOL0     H39966   2.085   7.517   3.143  0.4433 -3.0837  2.7250
  303MOL0     H39967   1.934   7.500   3.062  2.7820  1.2697 -2.6997
  303MOL0     H39968   1.935   7.456   3.372 -1.1939 -1.7012  0.2313
  303MOL0     H39969   1.824   7.414   3.263 -0.4158  2.8607  0.7161
  303MOL0     H39970   2.111   7.315   3.250 -0.2731 -0.0075  2.8229
  303MOL0     H39971   1.966   7.253   3.154  2.9277  1.2917 -1.8400
  303MOL0     H39972   2.023   7.226   3.442  0.1322 -0.9004 -0.1054
  303MOL0     H39973   2.070   7.113   3.316  1.3579  1.2122 -1.7534
  303MOL0     H39974   1.783   7.197   3.417  0.1667 -2.6271  3.3025
  303MOL0     H39975   1.813   7.123   3.257 -0.5611 -2.9371 -0.1541
  303MOL0     H39976   1.879   7.011   3.532  0.1748  1.6982 -0.2869
  303MOL0     H39977   1.921   6.925   3.381 -1.5911 -0.6500  0.2310
  303MOL0     H39978   2.066   7.724   3.590 -1.4158 -1.0047 -1.5412
  303MOL0     H39979   2.147   7.614   3.805 -0.3776  0.9810 -0.7680
  303MOL0     H39980   2.664   7.203   3.873  1.4352  1.4067  0.1678
  303MOL0     H39981   2.741   7.132   4.102  1.8453  1.3650 -4.1240
  303MOL0     H39982   3.146   7.781   4.099 -0.1595  0.5955  1.2700
  303MOL0     H39983   2.975   7.917   3.953 -2.3251  0.5670  1.2329
  303MOL0     H39984   2.626   8.134   3.938  0.0230 -0.1888 -1.0144
  303MOL0     H39985   2.427   8.261   3.825  1.4211 -2.2437 -3.1001
  303MOL0     H39986   2.352   8.671   3.708 -0.9857 -1.3478  0.1321
  303MOL0     H39987   2.485   8.692   3.808  1.3256 -1.6456 -1.8498
  303MOL0     H39988   2.292   8.496   3.932 -3.7722  0.3170 -0.8241
  303MOL0     H39989   2.390   8.638   3.989  1.9407 -0.3489 -1.0533
  303MOL0     H39990   2.133   8.675   3.835  0.0821  2.2498 -3.3965
  303MOL0     H39991   2.237   8.803   3.876  0.5757 -1.3956 -2.9418
  303MOL0     H39992   2.088   8.632   4.078 -1.1748  1.5880 -1.7716
  303MOL0     H39993   2.237   8.702   4.127  1.5532 -1.0291 -1.3225
  303MOL0     H39994   1.963   9.042   4.103  0.0727  0.5418 -0.2558
  303MOL0     H39995   2.690   8.585   3.746  2.4645 -1.7755 -3.7614
  303MOL0     H39996   2.848   8.497   3.887 -0.8080 -0.6323 -0.9494
  304MOL0     O39997   2.153   4.255   1.836  0.9635  0.5975  0.1568
  304MOL0     C39998   2.159   4.183   1.735  0.1150 -0.0326  0.7547
  304MOL0     O39999   2.053   4.163   1.656 -0.1843  0.3035 -0.0117
  304MOL0     C40000   1.935   4.226   1.677  0.2101 -1.0258  0.2310
  304MOL0     C40001   1.919   4.365   1.679  0.6913 -0.1284 -0.0322
  304MOL0     C40002   1.790   4.415   1.701  0.0013  0.2098  0.6014
  304MOL0     C40003   1.678   4.338   1.701  0.5978  0.3028  0.6324
  304MOL0     O40004   1.548   4.377   1.714  0.3903  0.0195  0.0384
  304MOL0     C40005   1.520   4.505   1.771 -0.3476 -1.3981  0.1069
  304MOL0     C40006   1.371   4.548   1.795  0.0091  0.1172 -0.6632
  304MOL0     C40007   1.297   4.455   1.895 -0.2737  1.2989  0.1945
  304MOL0     C40008   1.165   4.501   1.935  0.3066 -1.4026  0.0679
  304MOL0     C40009   1.086   4.412   2.034 -0.5648  0.3679 -0.3441
  304MOL0     C40010   1.056   4.276   1.963 -0.3660  0.1257 -0.1790
  304MOL0     C40011   0.970   4.198   2.058 -0.3650 -0.0834  0.6862
  304MOL0     C40012   1.045   4.093   2.138  0.4696 -0.1582  0.5684
  304MOL0     N40013   0.958   4.035   2.231  0.3595  0.3091 -0.7141
  304MOL0     C40014   0.894   4.108   2.331  0.4956  0.5927  0.1305
  304MOL0     C40015   0.800   4.018   2.370 -0.6087  0.3758  0.2220
  304MOL0     C40016   0.704   4.068   2.471  0.4970  0.4324  0.5091
  304MOL0     C40017   0.748   4.068   2.615  0.6418  0.8602 -0.1138
  304MOL0     C40018   0.635   4.109   2.719 -0.1088 -0.2832  0.7817
  304MOL0     C40019   0.694   4.161   2.852 -0.4361 -0.1551  0.8641
  304MOL0     O40020   0.581   4.199   2.931  0.2739 -0.4167 -0.1501
  304MOL0     C40021   0.593   4.257   3.056  0.2894  0.5127  0.2344
  304MOL0     C40022   0.480   4.296   3.131  0.5157 -0.8219 -0.0580
  304MOL0     C40023   0.491   4.371   3.248  0.0450  0.1493 -1.0309
  304MOL0     C40024   0.621   4.390   3.305  0.8756 -0.4611 -0.0697
  304MOL0     C40025   0.633   4.475   3.424  0.7584  0.6583  0.1983
  304MOL0     O40026   0.524   4.502   3.485 -0.9050  0.4681  0.0283
  304MOL0     C40027   0.523   4.568   3.607  0.1305  0.4416  0.4424
  304MOL0     C40028   0.624   4.620   3.693  0.3094 -0.2427  1.4322
  304MOL0     C40029   0.604   4.676   3.813  0.2431  0.8089 -0.3507
  304MOL0     C40030   0.469   4.691   3.854 -0.3281  0.3453  0.7189
  304MOL0     O40031   0.441   4.754   3.973  0.0710 -0.0929 -0.7558
  304MOL0     C40032   0.451   4.675   4.093 -0.1130 -0.2048  1.7029
  304MOL0     C40033   0.519   4.746   4.210 -0.7575 -0.5626  0.2818
  304MOL0     C40034   0.468   4.889   4.214 -0.3383 -0.0456 -0.2529
  304MOL0     C40035   0.502   4.968   4.340  0.1341  0.2758 -0.5428
  304MOL0     C40036   0.478   5.113   4.329 -0.4896 -0.5152 -0.3480
  304MOL0     C40037   0.589   5.184   4.258 -0.2229 -0.0876  0.3693
  304MOL0     C40038   0.549   5.323   4.231 -0.0398  0.6332 -0.3343
  304MOL0     C40039   0.587   5.360   4.086  0.1364  0.6329  0.3305
  304MOL0    Cl40040   0.531   5.527   4.044 -0.5910 -0.3412 -0.1424
  304MOL0     C40041   0.360   4.632   3.781 -0.3360  0.1958  0.1385
  304MOL0     C40042   0.390   4.569   3.655 -0.9140  0.2175  0.5591
  304MOL0     O40043   0.750   4.507   3.455  0.5902  0.2020  0.4894
  304MOL0     C40044   0.731   4.345   3.236  0.6135  0.5189  0.3547
  304MOL0     C40045   0.717   4.282   3.115 -0.4435  1.2422  0.0238
  304MOL0     N40046   0.803   3.898   2.306 -1.0275  0.5360 -0.1443
  304MOL0     N40047   0.910   3.906   2.226  0.3100 -0.0367  0.5599
  304MOL0     C40048   1.694   4.202   1.670 -0.0353 -0.5406 -0.5828
  304MOL0     C40049   1.824   4.151   1.660 -0.7368 -0.6890  0.0916
  304MOL0     C40050   2.277   4.101   1.723 -0.9882  0.7124  0.9196
  304MOL0     C40051   2.348   4.061   1.840 -0.6942  0.5221 -0.0506
  304MOL0     C40052   2.465   3.984   1.828  0.3572  0.0612 -0.3458
  304MOL0     C40053   2.505   3.931   1.700  0.3511 -0.7754 -0.7466
  304MOL0     O40054   2.619   3.859   1.670 -0.0286 -0.0175  0.0844
  304MOL0     C40055   2.723   3.847   1.764 -0.8426 -0.4276  0.8269
  304MOL0     C40056   2.828   3.768   1.688 -0.1877 -0.2546  0.3125
  304MOL0     C40057   2.977   3.792   1.727 -0.8957 -0.1066  0.0800
  304MOL0     C40058   3.013   3.941   1.692 -0.1009  0.0263 -0.2295
  304MOL0     C40059   3.150   3.982   1.709 -0.4103 -0.0167  0.1699
  304MOL0     C40060   3.261   4.030   1.732 -0.4182  0.0417  0.2670
  304MOL0     C40061   2.435   3.965   1.585 -0.0521  0.3582  0.5425
  304MOL0     C40062   2.315   4.049   1.595  0.9457  0.2287 -0.7485
  304MOL0     H40063   2.005   4.430   1.663  0.8845 -0.7870 -1.9054
  304MOL0     H40064   1.792   4.523   1.711  1.2189  0.3998 -1.1516
  304MOL0     H40065   1.576   4.581   1.718  0.4389 -0.2818  2.4141
  304MOL0     H40066   1.565   4.498   1.871  1.5274 -0.6277 -0.6485
  304MOL0     H40067   1.324   4.539   1.697  0.5121 -0.4617 -0.8617
  304MOL0     H40068   1.360   4.650   1.831  1.8775  0.0166  0.3408
  304MOL0     H40069   1.348   4.446   1.991  0.8807  0.1913 -0.4936
  304MOL0     H40070   1.295   4.352   1.857 -2.3961  1.9772 -1.7742
  304MOL0     H40071   1.178   4.604   1.968  0.1033 -0.2932 -3.0585
  304MOL0     H40072   1.100   4.492   1.848  3.1253 -4.4887 -1.9553
  304MOL0     H40073   0.989   4.460   2.047 -0.6926 -0.0004  0.0793
  304MOL0     H40074   1.138   4.409   2.130 -0.7213  2.9115 -0.1018
  304MOL0     H40075   1.146   4.217   1.940 -2.8077 -3.1029 -2.4226
  304MOL0     H40076   0.995   4.290   1.873 -2.3054 -1.2240  0.8555
  304MOL0     H40077   0.907   4.262   2.121 -1.6567 -0.4298 -0.2169
  304MOL0     H40078   0.892   4.155   1.994 -0.7325  0.4249  0.7852
  304MOL0     H40079   1.122   4.145   2.198 -0.6953 -1.9378  3.8603
  304MOL0     H40080   1.088   4.023   2.066 -4.1721 -1.4833 -1.2491
  304MOL0     H40081   0.919   4.206   2.370 -1.0020  1.2930 -0.5986
  304MOL0     H40082   0.614   4.007   2.464 -0.8624  2.4268 -0.2247
  304MOL0     H40083   0.686   4.169   2.432  1.3646 -0.0465 -1.2185
  304MOL0     H40084   0.835   4.134   2.632  2.5815 -1.4746 -0.4626
  304MOL0     H40085   0.768   3.968   2.653 -0.1725  0.9833  0.6859
  304MOL0     H40086   0.577   4.189   2.672  1.4620 -0.8340 -2.3885
  304MOL0     H40087   0.570   4.022   2.735  2.0074 -1.8061  1.4851
  304MOL0     H40088   0.760   4.246   2.835 -1.3108  0.9138  2.4457
  304MOL0     H40089   0.740   4.082   2.912  0.3084 -1.0410 -0.8353
  304MOL0     H40090   0.383   4.290   3.081  1.0466 -2.5375 -0.9474
  304MOL0     H40091   0.405   4.396   3.309 -1.1768 -0.2720 -2.5162
  304MOL0     H40092   0.730   4.623   3.669  0.2686  0.1893  1.2897
  304MOL0     H40093   0.684   4.705   3.879  0.5300  0.4845 -0.5569
  304MOL0     H40094   0.503   4.583   4.066 -0.4834  0.6096 -2.5092
  304MOL0     H40095   0.350   4.653   4.127 -0.1806 -2.0130  0.4391
  304MOL0     H40096   0.625   4.738   4.186 -0.7398  0.6211 -0.0843
  304MOL0     H40097   0.485   4.691   4.298 -2.1481  0.0504  0.1561
  304MOL0     H40098   0.359   4.879   4.218 -0.4620  1.5558  2.0199
  304MOL0     H40099   0.514   4.944   4.132  4.1904 -3.1651 -0.1707
  304MOL0     H40100   0.444   4.924   4.422  0.1072  3.8478  1.5875
  304MOL0     H40101   0.608   4.950   4.356  0.1411  1.0152  0.3175
  304MOL0     H40102   0.464   5.161   4.427 -1.1718 -1.0938 -0.1501
  304MOL0     H40103   0.385   5.134   4.275  0.4029  0.0857 -1.6916
  304MOL0     H40104   0.619   5.128   4.169  2.2372 -0.7036  1.4937
  304MOL0     H40105   0.680   5.180   4.319 -0.9580 -2.0471  1.4114
  304MOL0     H40106   0.442   5.341   4.237 -0.4396 -1.9395  2.6959
  304MOL0     H40107   0.601   5.384   4.305  1.1055 -0.7599  0.0688
  304MOL0     H40108   0.534   5.294   4.016  1.3719  1.5764 -1.5865
  304MOL0     H40109   0.696   5.356   4.076  0.2570  1.6342  1.1148
  304MOL0     H40110   0.261   4.624   3.825 -1.9152 -0.0984 -3.1810
  304MOL0     H40111   0.313   4.515   3.603 -0.3152  1.5567 -1.8840
  304MOL0     H40112   0.831   4.352   3.277  1.3928  0.9314 -1.5222
  304MOL0     H40113   0.806   4.258   3.057 -0.0098  1.9148  0.4015
  304MOL0     H40114   1.605   4.141   1.683 -1.5068  1.4007 -1.1051
  304MOL0     H40115   1.841   4.044   1.647  2.9578 -0.4003  1.3978
  304MOL0     H40116   2.324   4.072   1.945  0.6617  0.0288  0.3324
  304MOL0     H40117   2.524   3.952   1.913  1.1876 -0.9609 -1.2674
  304MOL0     H40118   2.684   3.808   1.858 -0.9756  2.4131  2.0337
  304MOL0     H40119   2.763   3.945   1.792  1.0486 -0.9519  0.0972
  304MOL0     H40120   2.805   3.667   1.721 -1.3102 -0.1800 -0.1777
  304MOL0     H40121   2.819   3.771   1.579  3.3172  0.7175 -0.0737
  304MOL0     H40122   3.036   3.723   1.667 -0.3847  1.6597 -1.5433
  304MOL0     H40123   3.008   3.775   1.831  3.0302 -2.4537 -1.2384
  304MOL0     H40124   2.969   3.971   1.596 -0.9660 -2.3436 -0.6506
  304MOL0     H40125   2.964   3.996   1.773 -1.1966 -1.4827  0.1872
  304MOL0     H40126   3.361   4.069   1.738  0.3663 -1.9318  0.7617
  304MOL0     H40127   2.454   3.940   1.481 -3.8997  2.9430 -1.0376
  304MOL0     H40128   2.248   4.057   1.510 -2.3495 -4.1299  1.0358
  305MOL0     O40129  11.019  10.161   1.687  0.8243 -0.1979 -0.9107
  305MOL0     C40130  10.960  10.056   1.697  0.4735  0.7732 -0.1318
  305MOL0     O40131  10.886  10.012   1.807  0.3445 -0.8018  0.4351
  305MOL0     C40132  10.873  10.096   1.910  0.2605 -0.5053  0.0446
  305MOL0     C40133  10.939  10.065   2.033 -0.1842 -0.5083 -0.9811
  305MOL0     C40134  10.916  10.125   2.154 -1.3398 -0.1744 -0.4434
  305MOL0     C40135  10.840  10.251   2.145  0.8125 -1.1863 -1.1845
  305MOL0     O40136  10.829  10.323   2.273  0.1432 -0.4831  0.1489
  305MOL0     C40137  10.766  10.458   2.271 -0.5389  0.2955  1.3812
  305MOL0     C40138  10.782  10.529   2.402 -0.4565 -0.2241  0.1623
  305MOL0     C40139  10.776  10.688   2.395  1.3399  0.1089  0.1744
  305MOL0     C40140  10.656  10.722   2.316 -0.0287 -0.2800  0.2814
  305MOL0     C40141  10.610  10.870   2.334  0.2244 -0.1974 -0.7364
  305MOL0     C40142  10.482  10.895   2.239  0.1519 -0.2710  0.2221
  305MOL0     C40143  10.405  11.018   2.291 -0.4444  1.3458 -0.0060
  305MOL0     C40144  10.359  11.115   2.187 -0.8671 -0.1460  0.0263
  305MOL0     N40145  10.264  11.042   2.094 -0.1809 -0.1780  0.4199
  305MOL0     C40146  10.160  10.971   2.124 -1.4726  0.0591 -0.7828
  305MOL0     C40147  10.111  10.913   2.012 -0.3150  0.4035  0.1697
  305MOL0     C40148   9.984  10.840   2.003  0.9002  0.1518 -0.3014
  305MOL0     C40149   9.864  10.925   2.041  0.0401  1.0384  0.6378
  305MOL0     C40150   9.723  10.863   2.064 -0.3013 -0.4118  0.1008
  305MOL0     C40151   9.608  10.953   2.099  0.4820 -0.3695 -1.1175
  305MOL0     O40152   9.607  11.073   2.029 -0.5775 -0.2141 -0.4987
  305MOL0     C40153   9.500  11.163   2.062 -0.5014  0.4309  0.1177
  305MOL0     C40154   9.372  11.136   2.099  0.2016  0.1351  0.5164
  305MOL0     C40155   9.289  11.238   2.143  0.4913  1.1353  0.5287
  305MOL0     C40156   9.316  11.375   2.119  0.6873  0.1383  0.5017
  305MOL0     C40157   9.222  11.478   2.140 -0.4195 -0.5821  0.4523
  305MOL0     O40158   9.109  11.439   2.214  0.2166 -0.1959 -0.1073
  305MOL0     C40159   9.002  11.517   2.241  0.1569  0.0088 -0.1735
  305MOL0     C40160   8.931  11.553   2.129  0.8607  0.8196 -0.8273
  305MOL0     C40161   8.808  11.616   2.141  0.3217  0.3649 -0.2674
  305MOL0     C40162   8.755  11.646   2.271  1.4831  0.1514 -0.3019
  305MOL0     O40163   8.632  11.704   2.285 -0.0054 -0.0062 -0.2130
  305MOL0     C40164   8.549  11.641   2.387 -0.0076 -0.4480  0.0395
  305MOL0     C40165   8.398  11.655   2.365  0.2134  0.1405  0.2680
  305MOL0     C40166   8.350  11.809   2.341 -0.3022  0.9419 -1.0882
  305MOL0     C40167   8.194  11.819   2.339  0.4178  0.9290  0.2641
  305MOL0     C40168   8.120  11.858   2.210  0.2077 -0.2866 -0.3159
  305MOL0     C40169   7.993  11.781   2.175  0.5852  0.8813 -0.5210
  305MOL0     C40170   7.941  11.840   2.045  0.5927 -0.9483 -0.7049
  305MOL0     C40171   7.821  11.777   1.978  0.9182  0.8117  0.0493
  305MOL0    Cl40172   7.687  11.843   2.065  0.1656  0.4724 -0.0536
  305MOL0     C40173   8.836  11.616   2.384  0.0912 -0.6589  0.1885
  305MOL0     C40174   8.957  11.549   2.370 -0.0418  0.0969  0.3462
  305MOL0     O40175   9.248  11.593   2.103 -0.0850  0.2839  0.1394
  305MOL0     C40176   9.445  11.402   2.080  1.3025 -0.2052  0.6127
  305MOL0     C40177   9.535  11.292   2.043  0.0934  0.3430 -0.8900
  305MOL0     N40178  10.191  10.949   1.900 -0.3950  0.4076 -0.0671
  305MOL0     N40179  10.275  11.034   1.951  0.9910 -0.0727 -0.4598
  305MOL0     C40180  10.782  10.294   2.027  0.5835  0.6211 -0.2678
  305MOL0     C40181  10.810  10.220   1.913 -0.2353  0.3420 -0.1133
  305MOL0     C40182  10.974   9.962   1.592 -0.8583  0.2911  0.1718
  305MOL0     C40183  11.038   9.995   1.471  0.1407 -0.3426  0.9852
  305MOL0     C40184  11.039   9.894   1.372  0.4535 -1.0366  0.2886
  305MOL0     C40185  10.979   9.774   1.387  0.3009  0.3610  0.5833
  305MOL0     O40186  10.974   9.675   1.289  0.3847  0.1491  0.2822
  305MOL0     C40187  11.103   9.643   1.234 -0.4078  0.9812 -1.2146
  305MOL0     C40188  11.173   9.574   1.358 -0.0351 -0.2684 -0.3641
  305MOL0     C40189  11.104   9.439   1.380 -0.1458 -0.6314 -0.3180
  305MOL0     C40190  11.186   9.359   1.485 -0.2513  0.4659 -0.0061
  305MOL0     C40191  11.110   9.240   1.531  0.4853  0.7464 -0.1526
  305MOL0     C40192  11.059   9.140   1.562 -0.0714 -0.1162 -0.6777
  305MOL0     C40193  10.905   9.748   1.503 -0.6499  1.0553 -0.6013
  305MOL0     C40194  10.919   9.831   1.607  0.8042 -0.3424  0.2190
  305MOL0     H40195  10.994   9.972   2.021  1.0790  0.1149 -0.3410
  305MOL0     H40196  10.925  10.081   2.252 -1.4626  2.1362  0.6597
  305MOL0     H40197  10.664  10.458   2.230  0.4799  1.8916 -1.4823
  305MOL0     H40198  10.821  10.519   2.198  0.1000 -1.6520  0.1452
  305MOL0     H40199  10.880  10.504   2.444 -0.8644  0.8084  1.8158
  305MOL0     H40200  10.701  10.500   2.470  1.4733 -2.0699  1.8262
  305MOL0     H40201  10.861  10.732   2.342  0.2028 -1.6180 -3.4117
  305MOL0     H40202  10.764  10.724   2.497  0.2252 -2.8656  1.1943
  305MOL0     H40203  10.678  10.703   2.211 -2.4305  3.4418 -1.0879
  305MOL0     H40204  10.572  10.658   2.347  2.2907 -4.0142 -0.4775
  305MOL0     H40205  10.692  10.937   2.306 -1.0608  1.8272  0.1275
  305MOL0     H40206  10.601  10.895   2.440  0.2886 -1.1819 -0.4925
  305MOL0     H40207  10.411  10.812   2.238  0.1577 -0.2779 -0.7004
  305MOL0     H40208  10.508  10.898   2.133 -0.7882 -1.8619 -0.0769
  305MOL0     H40209  10.325  10.976   2.352 -0.7449  2.7176  0.5811
  305MOL0     H40210  10.476  11.072   2.354 -0.4398  1.0969  0.2032
  305MOL0     H40211  10.448  11.154   2.137  0.2556  1.2563  2.9067
  305MOL0     H40212  10.309  11.200   2.235  0.1818 -0.9105  2.6835
  305MOL0     H40213  10.108  10.972   2.220 -3.3926  0.3578 -1.7814
  305MOL0     H40214   9.987  10.755   2.071 -1.6704 -2.7133 -3.3867
  305MOL0     H40215   9.978  10.797   1.902 -0.7720  0.1993 -0.2441
  305MOL0     H40216   9.866  11.013   1.976 -1.5687  0.3122 -0.4576
  305MOL0     H40217   9.885  10.954   2.144  0.6952 -0.7628  1.0423
  305MOL0     H40218   9.698  10.806   1.974 -2.7639 -0.1716  0.5624
  305MOL0     H40219   9.746  10.790   2.143  3.6770 -0.4820 -0.9044
  305MOL0     H40220   9.615  10.980   2.205 -2.0032  1.6200 -1.3436
  305MOL0     H40221   9.515  10.900   2.076  1.3482 -1.1157 -3.0489
  305MOL0     H40222   9.340  11.038   2.132 -0.2784 -0.3742 -1.3631
  305MOL0     H40223   9.185  11.215   2.166 -0.4852  1.5602 -2.9256
  305MOL0     H40224   8.970  11.522   2.032 -1.4357 -1.1714 -1.2098
  305MOL0     H40225   8.758  11.640   2.048 -0.2574 -0.0453 -0.0678
  305MOL0     H40226   8.572  11.697   2.478  6.4472 -0.9983 -0.8075
  305MOL0     H40227   8.578  11.537   2.406  0.3329 -0.2659  0.5393
  305MOL0     H40228   8.349  11.604   2.449 -0.1754  1.2397  0.7206
  305MOL0     H40229   8.367  11.589   2.283  0.0435 -0.6365  0.9364
  305MOL0     H40230   8.400  11.832   2.246  2.1607 -2.7961 -0.9203
  305MOL0     H40231   8.369  11.880   2.421 -2.5994 -0.5381  0.9371
  305MOL0     H40232   8.153  11.722   2.370  3.3952 -0.5344 -0.0178
  305MOL0     H40233   8.172  11.886   2.422  1.8862 -0.8925  2.2302
  305MOL0     H40234   8.201  11.854   2.136  1.6592 -1.0867  1.2321
  305MOL0     H40235   8.086  11.961   2.218  1.7739  0.1072  2.6825
  305MOL0     H40236   7.919  11.805   2.252 -0.9254 -2.7896 -0.6555
  305MOL0     H40237   8.008  11.674   2.163 -1.5680  0.6469 -1.5525
  305MOL0     H40238   7.914  11.945   2.062 -3.6893 -2.1552  1.4881
  305MOL0     H40239   8.021  11.847   1.971  1.1174 -1.4098 -0.1920
  305MOL0     H40240   7.817  11.668   1.993  1.9869  0.8149  0.4674
  305MOL0     H40241   7.810  11.793   1.871 -1.3876  0.4246  0.1753
  305MOL0     H40242   8.796  11.624   2.485  3.5804 -0.3291  1.6730
  305MOL0     H40243   9.006  11.520   2.463  0.2843  3.5184  1.3774
  305MOL0     H40244   9.481  11.505   2.074  0.6035 -0.0431 -2.3747
  305MOL0     H40245   9.630  11.314   1.996  0.8492  2.6289  1.4653
  305MOL0     H40246  10.710  10.374   2.013  0.3531  0.5146  0.2808
  305MOL0     H40247  10.762  10.248   1.819 -1.4402 -2.1604 -0.3336
  305MOL0     H40248  11.083  10.093   1.458  1.7299 -1.1300  0.2809
  305MOL0     H40249  11.094   9.921   1.282 -2.6108 -2.2451 -2.1048
  305MOL0     H40250  11.154   9.731   1.195  3.7159  0.7458  2.7288
  305MOL0     H40251  11.103   9.560   1.163 -2.6145 -0.8471  0.7724
  305MOL0     H40252  11.280   9.563   1.339  0.1054  1.0378 -0.4353
  305MOL0     H40253  11.167   9.632   1.451 -1.4778 -2.6039  1.0939
  305MOL0     H40254  11.106   9.394   1.280 -0.1085 -1.7173  0.1501
  305MOL0     H40255  11.000   9.453   1.410 -0.3784 -2.8537  0.1036
  305MOL0     H40256  11.275   9.321   1.434 -0.6508 -0.4113 -0.0693
  305MOL0     H40257  11.221   9.428   1.563 -1.3936  1.0006  0.0504
  305MOL0     H40258  11.010   9.058   1.611 -1.2646  0.8691 -0.1703
  305MOL0     H40259  10.850   9.658   1.525  1.6799  0.0514  1.6211
  305MOL0     H40260  10.870   9.804   1.700  2.3650  0.0001  1.1787
  306MOL0     O40261   0.290   7.775  11.129  0.1416  0.5502 -0.2859
  306MOL0     C40262   0.215   7.716  11.200 -1.5036 -0.2047  0.2527
  306MOL0     O40263   0.200   7.580  11.200  0.6331 -0.2642  0.5175
  306MOL0     C40264   0.238   7.491  11.112  0.2237 -0.3953  0.1883
  306MOL0     C40265   0.307   7.381  11.156  0.0363 -0.7629  0.9596
  306MOL0     C40266   0.350   7.275  11.071  1.0777  0.0703 -0.4152
  306MOL0     C40267   0.301   7.284  10.943  0.4100  0.0143  0.3290
  306MOL0     O40268   0.314   7.178  10.858 -0.2298  0.0623 -0.2630
  306MOL0     C40269   0.432   7.167  10.784  0.3722  0.6240 -0.2391
  306MOL0     C40270   0.409   7.204  10.645  0.5912 -0.0323 -0.9427
  306MOL0     C40271   0.279   7.161  10.570  0.4987  0.7446  0.0285
  306MOL0     C40272   0.275   7.211  10.423  0.8985  0.2355  0.4092
  306MOL0     C40273   0.350   7.115  10.334  1.0391  1.0705  0.5218
  306MOL0     C40274   0.266   7.000  10.291  0.6191 -0.1815 -0.2160
  306MOL0     C40275   0.334   6.908  10.193  0.2505  0.0981 -0.9407
  306MOL0     C40276   0.278   6.764  10.192 -0.5770  0.0127  0.2916
  306MOL0     N40277   0.308   6.690  10.310 -0.2352 -0.2387  0.1002
  306MOL0     C40278   0.424   6.616  10.326  0.0942 -0.3145  0.3139
  306MOL0     C40279   0.420   6.574  10.454 -0.7306 -0.6377 -0.7056
  306MOL0     C40280   0.552   6.525  10.526  0.4426  0.5907 -0.5488
  306MOL0     C40281   0.524   6.391  10.594 -1.2381  0.5559  0.7540
  306MOL0     C40282   0.419   6.392  10.716  0.2842  1.6775  0.6974
  306MOL0     C40283   0.495   6.450  10.833  0.6542 -0.1858 -0.6812
  306MOL0     O40284   0.482   6.589  10.816 -0.4099  0.3456 -0.3666
  306MOL0     C40285   0.523   6.661  10.922  0.5581  0.2169  0.0226
  306MOL0     C40286   0.520   6.807  10.907 -0.4803 -0.1785  0.1577
  306MOL0     C40287   0.558   6.889  11.010  0.3111 -0.0912  0.1352
  306MOL0     C40288   0.579   6.837  11.133  0.7434  0.3149 -0.0336
  306MOL0     C40289   0.605   6.933  11.248  0.1102 -1.0393  0.6468
  306MOL0     O40290   0.569   7.064  11.213  0.6701 -0.5724 -0.4990
  306MOL0     C40291   0.599   7.167  11.307 -0.0740 -0.3434  0.1239
  306MOL0     C40292   0.708   7.256  11.293 -0.1128 -1.2382  0.1793
  306MOL0     C40293   0.739   7.344  11.392  0.3205  0.0289  0.8644
  306MOL0     C40294   0.660   7.342  11.504  1.5613  0.0253  0.1823
  306MOL0     O40295   0.690   7.446  11.591 -0.1744 -0.8149 -0.0422
  306MOL0     C40296   0.639   7.437  11.724  0.7642  0.8384 -0.4169
  306MOL0     C40297   0.674   7.305  11.801 -0.1575 -0.0214 -0.5178
  306MOL0     C40298   0.668   7.325  11.953 -0.0967 -0.2607 -0.4893
  306MOL0     C40299   0.802   7.404  11.999 -0.1121  0.5027 -0.4557
  306MOL0     C40300   0.815   7.422  12.153  0.2511 -0.7858  0.7828
  306MOL0     C40301   0.953   7.475  12.195  0.1796 -0.5219  1.0600
  306MOL0     C40302   1.068   7.376  12.167  0.5072  0.5756 -0.3772
  306MOL0     C40303   1.141   7.336  12.295  0.1139  0.6728  0.5734
  306MOL0    Cl40304   1.017   7.268  12.406 -0.1818  0.3301  0.3851
  306MOL0     C40305   0.552   7.248  11.524  0.4617 -0.0374  0.4961
  306MOL0     C40306   0.530   7.153  11.427  0.9596  0.3391 -0.1077
  306MOL0     O40307   0.667   6.903  11.347  0.1169 -0.4023 -0.7133
  306MOL0     C40308   0.578   6.700  11.161  0.7725  0.2120 -0.0329
  306MOL0     C40309   0.545   6.605  11.056 -0.0019 -0.4349  0.1265
  306MOL0     N40310   0.299   6.619  10.511  0.3974  0.0720  0.5527
  306MOL0     N40311   0.231   6.680  10.416  0.3160 -0.0001 -0.4124
  306MOL0     C40312   0.232   7.389  10.906  0.0144 -0.5279 -0.8575
  306MOL0     C40313   0.195   7.497  10.985 -0.3712 -0.7263  0.0812
  306MOL0     C40314   0.149   7.785  11.317 -0.1671  1.1880  0.4339
  306MOL0     C40315   0.179   7.916  11.340 -0.1004 -0.0093  0.0574
  306MOL0     C40316   0.112   7.986  11.446 -0.3543  0.1605  0.4807
  306MOL0     C40317   0.033   7.916  11.531  0.8152  0.7639  0.1412
  306MOL0     O40318  -0.027   7.976  11.639  0.6487  0.7119 -0.0679
  306MOL0     C40319   0.030   7.931  11.763 -0.9490  0.0517 -0.1052
  306MOL0     C40320  -0.064   7.867  11.860 -0.3652  0.0167  0.1620
  306MOL0     C40321   0.002   7.827  11.993 -0.0549 -0.2610  0.3125
  306MOL0     C40322  -0.091   7.753  12.098  0.3124  0.3085 -0.5405
  306MOL0     C40323  -0.141   7.622  12.048 -0.4599  0.7887 -0.2705
  306MOL0     C40324  -0.163   7.506  12.035 -0.2945  0.1506 -0.8043
  306MOL0     C40325   0.014   7.775  11.517  0.7121  0.1393 -0.3290
  306MOL0     C40326   0.067   7.713  11.411 -0.4764  0.0900  0.1366
  306MOL0     H40327   0.322   7.378  11.264 -0.6574  2.4861  1.2410
  306MOL0     H40328   0.405   7.194  11.117 -0.1087  0.1590  1.2328
  306MOL0     H40329   0.465   7.063  10.784  0.9671  0.8062  0.6201
  306MOL0     H40330   0.508   7.234  10.827 -0.4106  0.7918  0.9063
  306MOL0     H40331   0.495   7.158  10.595  1.0779 -1.2655  0.9075
  306MOL0     H40332   0.421   7.312  10.633  2.0492  0.0189  0.5263
  306MOL0     H40333   0.201   7.205  10.633  2.2460  1.8444  1.5306
  306MOL0     H40334   0.263   7.053  10.575 -1.6961  0.8716 -2.1508
  306MOL0     H40335   0.173   7.219  10.387  0.5999  0.1542  1.2179
  306MOL0     H40336   0.323   7.310  10.419  0.4944  0.3998 -2.9016
  306MOL0     H40337   0.441   7.074  10.379 -0.3268 -1.4808  1.1366
  306MOL0     H40338   0.361   7.158  10.234 -1.2772 -0.2662 -0.3749
  306MOL0     H40339   0.168   7.029  10.251  2.0371  1.0237 -3.1415
  306MOL0     H40340   0.269   6.940  10.383  0.2559  0.6952  0.3822
  306MOL0     H40341   0.315   6.960  10.099 -1.2123  1.5351  0.0856
  306MOL0     H40342   0.442   6.906  10.210 -0.0710 -1.2417  1.3757
  306MOL0     H40343   0.336   6.709  10.118  0.0620 -1.3002  1.7007
  306MOL0     H40344   0.170   6.761  10.174 -0.6225  0.7539  0.3707
  306MOL0     H40345   0.504   6.609  10.253 -0.4067  1.2324 -0.4158
  306MOL0     H40346   0.599   6.596  10.594  1.6283 -2.2005  1.7781
  306MOL0     H40347   0.619   6.503  10.442  0.3913 -2.4620  0.0850
  306MOL0     H40348   0.610   6.326  10.612 -0.0887  1.3755 -1.4805
  306MOL0     H40349   0.472   6.326  10.524 -0.2259 -1.4501  1.7838
  306MOL0     H40350   0.324   6.438  10.690 -2.2094 -3.7466 -1.4247
  306MOL0     H40351   0.395   6.286  10.734  5.1587  0.5005  1.9108
  306MOL0     H40352   0.603   6.431  10.836  0.9766  1.4642 -0.8463
  306MOL0     H40353   0.439   6.418  10.922 -2.9684  1.2236 -2.2714
  306MOL0     H40354   0.511   6.838  10.803  3.0747 -1.5557 -0.6925
  306MOL0     H40355   0.574   6.994  10.991  0.0911 -0.0965 -0.0950
  306MOL0     H40356   0.739   7.259  11.190 -2.2098  1.7269 -0.4955
  306MOL0     H40357   0.821   7.414  11.395 -0.5367  1.2998 -1.9608
  306MOL0     H40358   0.532   7.454  11.711  0.7435 -0.3998 -2.4399
  306MOL0     H40359   0.688   7.522  11.771  1.5870  0.0058  0.2841
  306MOL0     H40360   0.775   7.270  11.777 -0.1116 -1.0025  0.9597
  306MOL0     H40361   0.610   7.220  11.774  0.3328  0.0284 -1.8736
  306MOL0     H40362   0.647   7.233  12.007 -5.0024  2.0086  2.2238
  306MOL0     H40363   0.595   7.400  11.985  1.3233  0.9785 -0.0355
  306MOL0     H40364   0.892   7.345  11.978  0.0968 -1.0439  3.9006
  306MOL0     H40365   0.813   7.499  11.946 -1.5510  1.3246  0.6632
  306MOL0     H40366   0.805   7.323  12.197  2.2250 -1.2907  0.1854
  306MOL0     H40367   0.732   7.481  12.193 -0.6107  0.6334 -2.6644
  306MOL0     H40368   0.962   7.499  12.301  6.1563  1.1629  0.5813
  306MOL0     H40369   0.978   7.566  12.139  1.1357 -0.7813  1.0347
  306MOL0     H40370   1.016   7.290  12.124  0.4068  0.6986 -0.5017
  306MOL0     H40371   1.142   7.419  12.098  0.1456  0.7247 -0.6758
  306MOL0     H40372   1.179   7.429  12.337 -2.3888  0.7921  2.9512
  306MOL0     H40373   1.218   7.261  12.276 -0.8598 -0.3147  0.3691
  306MOL0     H40374   0.483   7.245  11.608  0.6903 -1.0179  0.6619
  306MOL0     H40375   0.457   7.073  11.434  3.0994 -1.8014 -0.5631
  306MOL0     H40376   0.605   6.678  11.264  4.0991  1.7706 -0.4138
  306MOL0     H40377   0.554   6.499  11.080  0.1254 -0.4871 -0.1475
  306MOL0     H40378   0.209   7.392  10.800  2.5991 -0.0184 -1.4683
  306MOL0     H40379   0.148   7.587  10.946  3.4409  3.5281  4.0485
  306MOL0     H40380   0.246   7.967  11.271  0.4957 -3.6175 -2.3023
  306MOL0     H40381   0.127   8.091  11.470  0.2166  0.1562  0.1712
  306MOL0     H40382   0.063   8.026  11.805 -0.1407  0.6780 -2.0442
  306MOL0     H40383   0.117   7.864  11.759  0.9225  2.2491  1.1825
  306MOL0     H40384  -0.145   7.936  11.886  0.7006  0.5330  2.3638
  306MOL0     H40385  -0.098   7.774  11.813  2.2990 -0.3809 -1.1841
  306MOL0     H40386   0.041   7.920  12.036  0.4272 -0.0728 -0.4977
  306MOL0     H40387   0.088   7.762  11.974 -2.8267 -4.5709  1.1343
  306MOL0     H40388  -0.053   7.730  12.198 -0.6726 -0.2173 -0.2659
  306MOL0     H40389  -0.184   7.809  12.109  1.2913  2.2643 -1.7301
  306MOL0     H40390  -0.177   7.400  12.037  3.1896 -0.4677 -1.7964
  306MOL0     H40391  -0.062   7.731  11.580  2.1800 -0.2102  1.2831
  306MOL0     H40392   0.056   7.605  11.416 -0.1370  0.1140  2.3417
  307MOL0     O40393   5.073   9.794   0.880 -0.5490  0.1018  1.1458
  307MOL0     C40394   5.114   9.762   0.990  0.4634 -0.7264  1.0305
  307MOL0     O40395   5.043   9.785   1.104 -0.0634  0.6091  0.3665
  307MOL0     C40396   4.923   9.852   1.111  0.9312  0.2968 -0.6863
  307MOL0     C40397   4.880   9.905   1.235 -0.1923 -0.3775 -0.6508
  307MOL0     C40398   4.761   9.990   1.234 -0.8315 -0.4146 -0.8064
  307MOL0     C40399   4.681  10.004   1.120 -0.1349  0.3993  0.2198
  307MOL0     O40400   4.584  10.094   1.137  0.4354  0.7788  0.2070
  307MOL0     C40401   4.486  10.089   1.039  1.3590 -0.0397  0.2797
  307MOL0     C40402   4.409  10.214   1.067 -0.0998  0.1705  0.6188
  307MOL0     C40403   4.282  10.225   0.979 -0.3030  0.7018 -0.7743
  307MOL0     C40404   4.199  10.340   1.018  0.0089  0.2922  0.3717
  307MOL0     C40405   4.060  10.335   0.947  0.2392  0.0106 -0.8539
  307MOL0     C40406   3.948  10.394   1.029 -0.4468 -0.1153 -0.2901
  307MOL0     C40407   3.806  10.392   0.955  0.2746  0.5729  0.5304
  307MOL0     C40408   3.703  10.487   1.022 -0.7100  0.3256 -0.6278
  307MOL0     N40409   3.588  10.497   0.932 -1.1061 -0.7069 -0.9392
  307MOL0     C40410   3.465  10.462   0.974 -0.0436  0.9179  0.1139
  307MOL0     C40411   3.380  10.545   0.917 -0.9458  0.6688 -0.0163
  307MOL0     C40412   3.235  10.535   0.958  0.7436 -0.3185  0.8881
  307MOL0     C40413   3.194  10.635   1.073  0.6922 -0.0005 -0.0647
  307MOL0     C40414   3.043  10.630   1.124  0.6230  0.2813  0.4436
  307MOL0     C40415   2.985  10.487   1.134 -1.4963 -0.1081  0.3462
  307MOL0     O40416   2.847  10.484   1.171 -0.8087 -0.3276 -0.4741
  307MOL0     C40417   2.802  10.467   1.303 -0.4379  0.0070  0.5973
  307MOL0     C40418   2.662  10.463   1.325  0.4344 -0.9225 -0.3083
  307MOL0     C40419   2.609  10.436   1.449 -0.6944 -0.4891  0.3375
  307MOL0     C40420   2.691  10.416   1.565  0.2120 -0.1582 -0.3756
  307MOL0     C40421   2.631  10.390   1.698  0.0144  0.0402  0.8229
  307MOL0     O40422   2.493  10.370   1.707  0.2435 -0.3858  0.9525
  307MOL0     C40423   2.433  10.369   1.835 -0.7806  0.2706 -0.0230
  307MOL0     C40424   2.301  10.319   1.838  0.1486 -0.4498  0.5202
  307MOL0     C40425   2.232  10.307   1.952  0.9242  0.0947  0.1488
  307MOL0     C40426   2.277  10.373   2.068  0.4878 -0.2784  0.2732
  307MOL0     O40427   2.198  10.389   2.182 -0.0172 -0.0003  0.5535
  307MOL0     C40428   2.083  10.317   2.209 -0.6314  0.3301  0.3753
  307MOL0     C40429   1.970  10.410   2.177  0.6635 -0.5957 -0.1727
  307MOL0     C40430   1.846  10.376   2.262 -1.0372  0.0545  0.5189
  307MOL0     C40431   1.770  10.254   2.209  0.8619 -0.4257 -0.8113
  307MOL0     C40432   1.637  10.250   2.287  0.2411 -0.7840 -0.2567
  307MOL0     C40433   1.553  10.130   2.253  0.5993 -1.1115  1.0566
  307MOL0     C40434   1.406  10.159   2.247  1.1697  0.2144 -0.0228
  307MOL0     C40435   1.311  10.071   2.170  0.3068 -0.1525 -0.0800
  307MOL0    Cl40436   1.157  10.149   2.181  0.4323  0.1471  0.0066
  307MOL0     C40437   2.413  10.429   2.071  0.3292 -0.7241  0.7856
  307MOL0     C40438   2.487  10.421   1.954 -0.2500 -0.2062 -0.2469
  307MOL0     O40439   2.713  10.386   1.791  0.2790  0.3822 -0.3965
  307MOL0     C40440   2.825  10.407   1.540  0.5391  0.9157  0.5593
  307MOL0     C40441   2.884  10.443   1.417 -0.0429 -0.1106  1.0303
  307MOL0     N40442   3.445  10.623   0.826 -0.7477 -0.0769  0.3108
  307MOL0     N40443   3.571  10.596   0.836  0.2720 -0.5718 -0.1934
  307MOL0     C40444   4.714   9.941   1.009  0.2099  0.5480 -0.3080
  307MOL0     C40445   4.834   9.870   1.003 -1.1225  1.2829 -0.2449
  307MOL0     C40446   5.231   9.681   0.990  0.2086 -0.3773 -0.2242
  307MOL0     C40447   5.344   9.696   0.912  0.8743  0.0534 -0.8539
  307MOL0     C40448   5.471   9.636   0.947  0.2371  0.1807 -1.3239
  307MOL0     C40449   5.479   9.564   1.068 -0.4930  0.1140  0.7393
  307MOL0     O40450   5.580   9.487   1.115 -0.8377 -0.0979  0.3860
  307MOL0     C40451   5.685   9.454   1.025  0.4965  0.0448 -0.5072
  307MOL0     C40452   5.797   9.370   1.100 -0.1379 -0.1340 -0.4176
  307MOL0     C40453   5.858   9.454   1.220  0.5654 -0.1263 -0.0346
  307MOL0     C40454   5.969   9.386   1.298 -0.2853  0.8112  0.6095
  307MOL0     C40455   5.923   9.273   1.377 -0.4414 -0.3638  0.4266
  307MOL0     C40456   5.885   9.169   1.433 -0.9771  0.2540  1.1830
  307MOL0     C40457   5.362   9.539   1.137  0.7050  0.1474 -0.6837
  307MOL0     C40458   5.243   9.604   1.102  0.2393 -0.2009  0.5758
  307MOL0     H40459   4.932   9.877   1.326 -0.8371  2.3589  0.6598
  307MOL0     H40460   4.743  10.050   1.324  0.1519 -0.1126 -0.7996
  307MOL0     H40461   4.425  10.002   1.067  4.3928 -1.6665  2.4972
  307MOL0     H40462   4.515  10.084   0.934  1.2104  1.1988  0.1657
  307MOL0     H40463   4.473  10.301   1.048 -0.5630  0.9006  2.3230
  307MOL0     H40464   4.381  10.207   1.172  3.0255 -1.3394  1.4706
  307MOL0     H40465   4.223  10.132   0.981  1.0215 -0.1577  0.2035
  307MOL0     H40466   4.312  10.234   0.874  1.5673  1.2675 -0.2357
  307MOL0     H40467   4.187  10.336   1.127  7.4603 -3.9566  1.7432
  307MOL0     H40468   4.252  10.432   0.994 -0.0350  0.2840  0.2382
  307MOL0     H40469   4.030  10.232   0.928  1.7960 -0.6278  0.0018
  307MOL0     H40470   4.061  10.393   0.854  1.2324  4.7506  1.7968
  307MOL0     H40471   3.975  10.499   1.039 -0.7844 -0.0439 -0.1151
  307MOL0     H40472   3.941  10.357   1.132  2.0678  1.0098  0.3599
  307MOL0     H40473   3.821  10.428   0.853  1.7595 -0.3499  0.4045
  307MOL0     H40474   3.764  10.294   0.933  5.5297 -2.1325  1.0491
  307MOL0     H40475   3.754  10.583   1.036 -1.5131  0.5805  0.7288
  307MOL0     H40476   3.682  10.461   1.126  1.5137  0.2455 -0.1431
  307MOL0     H40477   3.425  10.385   1.039 -0.0620 -0.2123 -1.1828
  307MOL0     H40478   3.227  10.429   0.985 -0.1573 -0.9552 -1.6076
  307MOL0     H40479   3.170  10.541   0.870  1.4174  0.6279  0.4356
  307MOL0     H40480   3.204  10.735   1.030  1.3960  1.5057  3.2719
  307MOL0     H40481   3.266  10.618   1.154  1.2047  0.1819 -0.4753
  307MOL0     H40482   3.048  10.667   1.227 -2.3544  2.6812 -0.1467
  307MOL0     H40483   2.975  10.691   1.065  1.3177  0.0967 -0.5678
  307MOL0     H40484   3.050  10.429   1.200 -0.7353  0.8956  0.4959
  307MOL0     H40485   2.981  10.454   1.030 -2.6668  1.1684 -0.0515
  307MOL0     H40486   2.591  10.491   1.248 -1.1003  0.3147  1.4663
  307MOL0     H40487   2.501  10.438   1.458 -0.7991 -3.4021  0.9317
  307MOL0     H40488   2.269  10.296   1.737  1.0517  1.8366 -0.3387
  307MOL0     H40489   2.142  10.247   1.948  0.9798 -0.0980  1.4271
  307MOL0     H40490   2.084  10.285   2.313  0.3158 -1.4822 -0.1522
  307MOL0     H40491   2.074  10.224   2.152 -0.9274 -0.9190  2.3781
  307MOL0     H40492   1.941  10.416   2.072 -2.1802  3.7203  0.6306
  307MOL0     H40493   2.005  10.508   2.211  2.3257 -1.8015  1.9134
  307MOL0     H40494   1.779  10.462   2.259 -0.8229  0.2566  1.3931
  307MOL0     H40495   1.880  10.368   2.365  0.4785  0.9817  0.1096
  307MOL0     H40496   1.756  10.259   2.101  1.1932 -0.0264 -0.8362
  307MOL0     H40497   1.817  10.157   2.227  0.1808 -0.9536 -1.7798
  307MOL0     H40498   1.581  10.344   2.280  1.3897  0.5438  4.8124
  307MOL0     H40499   1.654  10.246   2.395 -2.8784  2.2275  0.5144
  307MOL0     H40500   1.586  10.057   2.328  2.0668 -0.8231  0.7281
  307MOL0     H40501   1.578  10.093   2.153 -3.7018 -0.9012 -0.3066
  307MOL0     H40502   1.376  10.151   2.352  0.6993 -2.2165 -0.2873
  307MOL0     H40503   1.397  10.263   2.214 -1.3528  0.0762  0.0555
  307MOL0     H40504   1.302   9.972   2.217 -4.5693  0.6877  1.3540
  307MOL0     H40505   1.332  10.061   2.064 -0.9629 -0.6621 -0.3079
  307MOL0     H40506   2.462  10.494   2.144 -1.1125  1.8288 -0.3717
  307MOL0     H40507   2.578  10.480   1.955 -2.1957  3.1749 -2.0066
  307MOL0     H40508   2.886  10.368   1.621  1.2563  1.1683  0.1502
  307MOL0     H40509   2.990  10.418   1.412  0.3582  1.6723 -0.8749
  307MOL0     H40510   4.634   9.935   0.936 -0.5600 -2.8251  0.6475
  307MOL0     H40511   4.851   9.816   0.911 -0.0183 -0.8889  1.1434
  307MOL0     H40512   5.345   9.775   0.838 -0.2794  3.0295  2.0356
  307MOL0     H40513   5.553   9.653   0.877  1.3915 -2.5081 -0.7656
  307MOL0     H40514   5.732   9.547   0.992  0.0895  1.1042  1.7166
  307MOL0     H40515   5.645   9.391   0.945 -3.8014  0.0071  1.3782
  307MOL0     H40516   5.749   9.281   1.143  2.3758 -1.0595  0.6568
  307MOL0     H40517   5.883   9.342   1.039 -0.7036  2.1980 -2.4453
  307MOL0     H40518   5.780   9.485   1.290 -0.5053 -0.9930 -0.8052
  307MOL0     H40519   5.906   9.541   1.175  1.2061  0.9498  2.5559
  307MOL0     H40520   6.040   9.357   1.220 -1.5346  1.7081 -0.9443
  307MOL0     H40521   6.014   9.459   1.366  1.3772 -0.8316  1.3574
  307MOL0     H40522   5.856   9.074   1.473  0.5048 -2.0751 -2.7421
  307MOL0     H40523   5.369   9.475   1.224 -1.7040  0.3580 -0.2718
  307MOL0     H40524   5.161   9.587   1.171 -0.2580  1.5654  0.4629
  308MOL0     O40525   2.583   7.710   4.051 -0.1589 -0.1879  0.3762
  308MOL0     C40526   2.519   7.814   4.054  0.4003 -0.6222 -0.4360
  308MOL0     O40527   2.507   7.903   4.165 -0.1224 -0.4727 -0.4557
  308MOL0     C40528   2.572   7.870   4.285 -0.1560  0.1227 -0.3432
  308MOL0     C40529   2.481   7.874   4.397  0.8240  0.6900 -0.3254
  308MOL0     C40530   2.524   7.860   4.526  0.1191  0.0402 -1.0819
  308MOL0     C40531   2.654   7.819   4.551  0.3822 -0.1394  0.2747
  308MOL0     O40532   2.708   7.808   4.677 -0.1436  0.4967 -0.3318
  308MOL0     C40533   2.713   7.669   4.711  0.1146  0.3996  0.7637
  308MOL0     C40534   2.818   7.661   4.817 -0.2869  0.6309  0.2775
  308MOL0     C40535   2.793   7.751   4.944 -1.2424  0.5818 -0.4546
  308MOL0     C40536   2.664   7.716   5.026 -0.2920 -0.5332  0.5891
  308MOL0     C40537   2.683   7.748   5.178 -0.2067  0.5584  0.4507
  308MOL0     C40538   2.772   7.652   5.254 -0.8092  0.1070 -0.3912
  308MOL0     C40539   2.732   7.502   5.252 -0.1978  0.5465  0.2896
  308MOL0     C40540   2.836   7.423   5.339 -0.2431 -0.3201 -0.3979
  308MOL0     N40541   2.779   7.361   5.458 -1.1773 -0.2650 -0.4310
  308MOL0     C40542   2.730   7.232   5.476 -0.6596 -0.7218  0.3597
  308MOL0     C40543   2.696   7.213   5.608  0.4733  0.8049  0.5601
  308MOL0     C40544   2.649   7.090   5.684  0.5339  0.0969 -0.6170
  308MOL0     C40545   2.499   7.082   5.647  0.2389  0.5472 -0.2520
  308MOL0     C40546   2.411   7.207   5.710  0.6945  0.6432  0.5999
  308MOL0     C40547   2.258   7.177   5.720  0.0094  0.2882 -0.6208
  308MOL0     O40548   2.232   7.084   5.824 -1.0019 -0.0847 -0.2445
  308MOL0     C40549   2.112   7.020   5.834  0.2630 -0.5673 -0.8922
  308MOL0     C40550   2.092   6.939   5.948 -0.2733 -0.5081  0.6884
  308MOL0     C40551   1.953   6.910   5.979  0.8982  0.7941  0.4199
  308MOL0     C40552   1.852   6.942   5.884  0.5567 -0.9448 -0.0758
  308MOL0     C40553   1.719   6.901   5.919 -0.2992  0.9106 -0.7952
  308MOL0     O40554   1.637   6.896   5.822  0.1096  0.3006  0.2274
  308MOL0     C40555   1.507   6.848   5.842 -0.3116 -0.1929 -0.6743
  308MOL0     C40556   1.417   6.888   5.947 -0.9050 -0.4018  0.0131
  308MOL0     C40557   1.290   6.839   5.970 -0.2858  0.0466  0.5290
  308MOL0     C40558   1.255   6.734   5.889  1.1821  0.5657 -0.0281
  308MOL0     O40559   1.131   6.671   5.920 -0.9615 -0.2535 -0.5472
  308MOL0     C40560   1.087   6.568   5.840 -0.8093  0.1302 -0.4679
  308MOL0     C40561   0.950   6.527   5.886  0.6930  0.2055 -0.7786
  308MOL0     C40562   0.882   6.442   5.777  0.0912  0.0556 -0.6385
  308MOL0     C40563   0.731   6.428   5.810 -1.0003  0.5133 -0.1536
  308MOL0     C40564   0.715   6.353   5.939  0.2494 -0.4309 -0.0511
  308MOL0     C40565   0.571   6.344   5.999  0.3330  0.3031 -0.0123
  308MOL0     C40566   0.529   6.483   6.041 -0.6959 -0.3248 -0.0167
  308MOL0     C40567   0.378   6.491   6.091  0.6352 -0.4773 -0.4735
  308MOL0    Cl40568   0.273   6.449   5.957  0.5003 -0.4755 -0.1252
  308MOL0     C40569   1.338   6.696   5.783  0.0474  0.7449  0.1840
  308MOL0     C40570   1.460   6.750   5.756 -0.0738 -0.2132  0.1622
  308MOL0     O40571   1.691   6.876   6.036  0.2286  0.1226  0.0129
  308MOL0     C40572   1.877   7.018   5.777  0.7167  0.2398 -0.5004
  308MOL0     C40573   2.005   7.054   5.750  0.1047  0.1575 -0.6200
  308MOL0     N40574   2.713   7.339   5.667 -0.7136  0.7954 -0.1693
  308MOL0     N40575   2.776   7.420   5.580  0.3165  0.4894 -0.7843
  308MOL0     C40576   2.742   7.810   4.442 -0.4601  0.0505 -0.7469
  308MOL0     C40577   2.701   7.827   4.310  0.5380  0.1004  0.2790
  308MOL0     C40578   2.445   7.853   3.920 -0.6659  0.0500  0.8736
  308MOL0     C40579   2.462   7.793   3.794 -0.4194 -0.0178  0.4907
  308MOL0     C40580   2.394   7.835   3.678  0.1375  0.4565 -0.1971
  308MOL0     C40581   2.288   7.922   3.697 -0.2978 -0.5658  0.5156
  308MOL0     O40582   2.203   7.940   3.592 -0.3369 -0.1440  0.8519
  308MOL0     C40583   2.189   8.078   3.539  0.3094  0.7239  0.0595
  308MOL0     C40584   2.316   8.146   3.498 -0.6328 -0.1713  0.7314
  308MOL0     C40585   2.285   8.291   3.454  0.8499  1.4749  0.7021
  308MOL0     C40586   2.419   8.367   3.427 -0.5106 -0.0344  0.9032
  308MOL0     C40587   2.480   8.320   3.301 -0.1457  0.3017  0.4969
  308MOL0     C40588   2.524   8.285   3.188 -0.0711  0.1943  0.0992
  308MOL0     C40589   2.270   7.982   3.815  1.1336  0.1637 -0.1923
  308MOL0     C40590   2.343   7.952   3.923 -0.1162  0.4194  0.3894
  308MOL0     H40591   2.380   7.909   4.378  0.7801 -0.3831 -2.3976
  308MOL0     H40592   2.465   7.877   4.615  0.9149 -2.0282 -0.0811
  308MOL0     H40593   2.749   7.609   4.627  2.8877  2.0633  0.6173
  308MOL0     H40594   2.616   7.625   4.733 -0.5095  1.3598  0.0204
  308MOL0     H40595   2.913   7.688   4.770  1.6529 -2.9094  1.7615
  308MOL0     H40596   2.830   7.555   4.840  1.2457  0.1050 -2.5453
  308MOL0     H40597   2.779   7.853   4.909  0.3863  0.1638 -2.5246
  308MOL0     H40598   2.880   7.747   5.011 -0.9760 -1.7342 -0.8499
  308MOL0     H40599   2.580   7.772   4.984  0.3788 -0.5411 -0.8163
  308MOL0     H40600   2.640   7.609   5.024  2.7189 -1.3198 -1.8094
  308MOL0     H40601   2.585   7.749   5.226  1.7605  0.9022  4.9648
  308MOL0     H40602   2.723   7.850   5.188 -1.4626  1.1804 -0.6030
  308MOL0     H40603   2.764   7.683   5.359  1.6644 -1.0870  0.2121
  308MOL0     H40604   2.873   7.677   5.223 -0.6763  1.0296  0.6934
  308MOL0     H40605   2.629   7.481   5.283 -0.2376 -3.4639 -1.7757
  308MOL0     H40606   2.752   7.450   5.157  3.3979 -1.6660  2.0286
  308MOL0     H40607   2.925   7.485   5.346  1.3805 -1.7033 -5.1148
  308MOL0     H40608   2.875   7.342   5.277 -0.2998 -2.1782  1.8391
  308MOL0     H40609   2.739   7.142   5.415  0.5490 -0.6209  0.3547
  308MOL0     H40610   2.662   7.108   5.792 -0.6061  0.7097 -0.5702
  308MOL0     H40611   2.711   7.001   5.672 -0.1541 -0.3281 -1.0435
  308MOL0     H40612   2.466   7.006   5.718  2.2797  1.3792  1.6933
  308MOL0     H40613   2.482   7.054   5.543 -2.9398 -1.0543  0.5645
  308MOL0     H40614   2.440   7.240   5.811  1.8421 -2.2466  1.3159
  308MOL0     H40615   2.430   7.294   5.647  0.9882  0.2281  0.0986
  308MOL0     H40616   2.227   7.138   5.623 -0.0682 -2.8547  0.5617
  308MOL0     H40617   2.201   7.267   5.744  0.5040  0.2426  0.8541
  308MOL0     H40618   2.174   6.912   6.014  0.0563  0.7464  0.8211
  308MOL0     H40619   1.943   6.836   6.058  1.6306 -2.9973 -2.7054
  308MOL0     H40620   1.452   6.972   6.007  2.5789 -0.0122 -2.2711
  308MOL0     H40621   1.229   6.881   6.049 -0.8211  1.1051 -0.4158
  308MOL0     H40622   1.151   6.481   5.858 -0.3192  0.6062  0.1499
  308MOL0     H40623   1.082   6.600   5.736 -1.4860  2.2933  0.1767
  308MOL0     H40624   0.892   6.615   5.918  0.3367 -0.3694  0.1804
  308MOL0     H40625   0.973   6.472   5.977  0.5577  0.6539 -0.4680
  308MOL0     H40626   0.934   6.351   5.745 -2.3043 -2.0502  1.0054
  308MOL0     H40627   0.876   6.503   5.686  0.0714 -1.1583 -1.4801
  308MOL0     H40628   0.689   6.528   5.797 -0.8945  0.1965 -3.6582
  308MOL0     H40629   0.675   6.377   5.731  0.1297 -0.6308 -0.2496
  308MOL0     H40630   0.776   6.386   6.024 -1.3653  0.4102  0.8395
  308MOL0     H40631   0.760   6.255   5.923  3.2335  1.1067 -1.9429
  308MOL0     H40632   0.570   6.272   6.081  1.7151  1.2191  0.8612
  308MOL0     H40633   0.503   6.311   5.920  3.3718 -1.7902 -1.9638
  308MOL0     H40634   0.601   6.510   6.120 -0.7655  3.5113 -1.0561
  308MOL0     H40635   0.542   6.558   5.963 -0.3602 -1.0278 -0.6555
  308MOL0     H40636   0.357   6.594   6.119 -5.3967 -1.6711  0.7835
  308MOL0     H40637   0.341   6.439   6.180 -0.0233  2.2422  0.9342
  308MOL0     H40638   1.308   6.615   5.716 -1.7583 -0.3239  2.1374
  308MOL0     H40639   1.520   6.699   5.682  1.4581  1.3580  0.2614
  308MOL0     H40640   1.795   7.046   5.713  1.0686  0.6236 -0.7885
  308MOL0     H40641   2.019   7.116   5.662 -1.0712  0.9430 -0.2785
  308MOL0     H40642   2.844   7.794   4.475 -0.7872  1.2119  0.9986
  308MOL0     H40643   2.775   7.813   4.231  0.3086  1.4419 -0.1957
  308MOL0     H40644   2.526   7.707   3.780  0.1230  0.4735 -0.0988
  308MOL0     H40645   2.393   7.781   3.583 -1.3435 -2.7200  1.4506
  308MOL0     H40646   2.130   8.121   3.620 -0.6932  0.2767 -0.4198
  308MOL0     H40647   2.118   8.072   3.456 -0.0021 -0.3333  0.3737
  308MOL0     H40648   2.391   8.156   3.577 -0.7513  1.3232  0.6801
  308MOL0     H40649   2.354   8.098   3.407 -5.5358 -3.3762  0.0137
  308MOL0     H40650   2.249   8.341   3.544  1.2989  0.5111  1.4305
  308MOL0     H40651   2.208   8.296   3.376  1.7685  0.8109 -0.2723
  308MOL0     H40652   2.399   8.473   3.414  0.1022  0.0070  0.2265
  308MOL0     H40653   2.490   8.357   3.509 -0.2782  1.4093  0.8873
  308MOL0     H40654   2.563   8.232   3.104  1.1749  0.6185  0.3887
  308MOL0     H40655   2.187   8.050   3.834  0.7931 -0.1235 -0.6432
  308MOL0     H40656   2.320   8.002   4.017 -0.3384  2.1505 -0.5334
  309MOL0     O40657   2.870   2.796   6.777 -0.0856  0.3451 -0.8019
  309MOL0     C40658   2.760   2.790   6.838  0.1612 -0.0647 -0.4494
  309MOL0     O40659   2.738   2.736   6.964  0.1865  0.4096  0.5679
  309MOL0     C40660   2.819   2.632   7.005 -0.2109 -0.3160 -0.4527
  309MOL0     C40661   2.934   2.655   7.074  0.1410 -0.2184  0.2346
  309MOL0     C40662   3.017   2.555   7.107  0.7655 -0.1158  0.3427
  309MOL0     C40663   2.979   2.419   7.078 -0.2814 -0.2152  0.0746
  309MOL0     O40664   3.055   2.321   7.139 -0.5330 -0.6259  0.3415
  309MOL0     C40665   3.089   2.190   7.086  0.1272 -1.2321  0.5867
  309MOL0     C40666   2.999   2.090   7.155  0.9325 -0.2338 -0.1605
  309MOL0     C40667   3.000   2.094   7.304  0.5420  0.2922 -0.3374
  309MOL0     C40668   3.127   2.047   7.382  0.5907  0.2039 -0.7686
  309MOL0     C40669   3.125   2.101   7.531  0.1967 -0.0586  0.5241
  309MOL0     C40670   3.261   2.106   7.592 -0.4174 -0.1302  1.1439
  309MOL0     C40671   3.260   2.197   7.721 -0.8149 -0.2188 -0.1577
  309MOL0     C40672   3.400   2.219   7.793  1.0118 -0.1116  0.6020
  309MOL0     N40673   3.386   2.262   7.938  0.3212 -0.7461 -0.6899
  309MOL0     C40674   3.283   2.339   7.991  0.2623 -0.4496  1.2764
  309MOL0     C40675   3.329   2.357   8.119 -0.0087  0.8460 -0.2143
  309MOL0     C40676   3.269   2.437   8.230  1.0056 -0.3951 -0.8491
  309MOL0     C40677   3.269   2.583   8.175 -0.3014 -0.8571  0.2056
  309MOL0     C40678   3.193   2.683   8.260 -0.1622  0.5128 -0.0202
  309MOL0     C40679   3.262   2.701   8.395 -0.5511  0.4334 -0.1927
  309MOL0     O40680   3.396   2.751   8.373 -1.0608  0.3178  0.2178
  309MOL0     C40681   3.457   2.813   8.476 -0.6516  0.6393  0.5523
  309MOL0     C40682   3.585   2.852   8.453 -0.3511 -0.3558 -0.0795
  309MOL0     C40683   3.667   2.921   8.548 -0.0988  0.8335  0.2960
  309MOL0     C40684   3.616   2.948   8.682 -0.0855  0.2910 -0.2455
  309MOL0     C40685   3.699   3.015   8.782 -0.8722 -0.9739 -1.0205
  309MOL0     O40686   3.652   3.015   8.915  0.4118 -0.1700  0.0437
  309MOL0     C40687   3.696   3.097   9.013 -0.0500 -0.4039  0.6289
  309MOL0     C40688   3.699   3.234   9.011 -0.5928 -0.5238  0.2210
  309MOL0     C40689   3.748   3.305   9.119  1.6923 -0.4602 -0.5186
  309MOL0     C40690   3.803   3.234   9.229  0.3363  0.1252 -0.1679
  309MOL0     O40691   3.859   3.311   9.331 -0.3548 -0.3353  0.2228
  309MOL0     C40692   3.980   3.274   9.397 -0.4160  1.0257  0.3614
  309MOL0     C40693   3.959   3.212   9.539  0.6614  0.2291 -0.0184
  309MOL0     C40694   4.077   3.168   9.621 -1.2316 -0.5090 -0.6034
  309MOL0     C40695   4.035   3.083   9.740  0.1160 -0.2423 -0.2703
  309MOL0     C40696   4.151   3.058   9.845  0.2093 -0.0783  0.1331
  309MOL0     C40697   4.267   2.973   9.792 -0.2507  0.1728 -0.1977
  309MOL0     C40698   4.262   2.829   9.825 -0.2344 -0.0310  0.1450
  309MOL0     C40699   4.379   2.743   9.805  0.0190  0.4069 -0.3352
  309MOL0    Cl40700   4.515   2.810   9.915 -0.5092 -0.6937 -0.2303
  309MOL0     C40701   3.810   3.096   9.217  0.6564  0.2956  1.3656
  309MOL0     C40702   3.754   3.027   9.116 -0.7789 -0.8829  0.5865
  309MOL0     O40703   3.787   3.096   8.743 -0.0040 -0.0218  1.0546
  309MOL0     C40704   3.482   2.907   8.709 -0.4798  0.8279 -0.0839
  309MOL0     C40705   3.404   2.839   8.606  0.7485 -0.5996  0.1276
  309MOL0     N40706   3.439   2.279   8.138 -0.2380 -0.5169 -0.6584
  309MOL0     N40707   3.478   2.230   8.026  0.4101 -0.2217 -1.4356
  309MOL0     C40708   2.860   2.401   7.019 -0.3800 -0.0442  0.4523
  309MOL0     C40709   2.789   2.502   6.967 -0.1936  0.4124  0.7471
  309MOL0     C40710   2.649   2.878   6.786  0.1308  0.8198  0.9589
  309MOL0     C40711   2.513   2.869   6.816  0.1432  0.5647 -0.9589
  309MOL0     C40712   2.417   2.951   6.740 -1.2042  0.3345 -0.4648
  309MOL0     C40713   2.465   3.049   6.646  0.2596 -0.6050 -0.1908
  309MOL0     O40714   2.393   3.152   6.586  0.8184 -0.0517 -0.6442
  309MOL0     C40715   2.261   3.178   6.652  0.1490 -1.1403  0.3696
  309MOL0     C40716   2.208   3.285   6.560  0.0355  0.0670  0.0161
  309MOL0     C40717   2.068   3.334   6.617 -0.2404  0.0888 -0.4751
  309MOL0     C40718   2.036   3.465   6.551 -0.3794  0.1715  0.3031
  309MOL0     C40719   2.125   3.576   6.589 -0.2891 -0.7502 -0.3210
  309MOL0     C40720   2.208   3.659   6.619  0.0164 -0.2051  0.0968
  309MOL0     C40721   2.603   3.049   6.625 -0.8262  0.3739 -0.3655
  309MOL0     C40722   2.690   2.967   6.688 -0.9884 -0.3251 -0.1965
  309MOL0     H40723   2.975   2.755   7.082  2.3546 -0.9294 -1.3496
  309MOL0     H40724   3.100   2.587   7.168 -0.4484  1.1669  1.4111
  309MOL0     H40725   3.197   2.180   7.097  1.4028  6.1289  0.1176
  309MOL0     H40726   3.079   2.198   6.977 -0.2405 -0.9074  0.6403
  309MOL0     H40727   3.032   1.995   7.113  1.1094 -0.6644  0.9002
  309MOL0     H40728   2.900   2.094   7.108  0.0072 -1.5094  1.5692
  309MOL0     H40729   2.917   2.025   7.324  0.5104  0.7673  1.3229
  309MOL0     H40730   2.960   2.191   7.336  0.4714 -0.2788  1.4291
  309MOL0     H40731   3.125   1.937   7.387 -0.3332  0.2244 -0.3727
  309MOL0     H40732   3.219   2.073   7.330  0.3073 -2.9754 -3.1932
  309MOL0     H40733   3.058   2.034   7.586 -0.8156 -0.3264 -0.9710
  309MOL0     H40734   3.079   2.200   7.532  0.2497 -0.0276  2.3107
  309MOL0     H40735   3.336   2.152   7.528 -0.1956 -2.3773 -0.3042
  309MOL0     H40736   3.298   2.004   7.595  0.2093 -0.1405 -2.5716
  309MOL0     H40737   3.211   2.289   7.688  0.7320  0.7872  0.2273
  309MOL0     H40738   3.199   2.153   7.801  0.9137  2.2424  2.7700
  309MOL0     H40739   3.445   2.305   7.742 -3.8163  2.0547 -0.5483
  309MOL0     H40740   3.452   2.122   7.796 -0.2601 -0.9152 -1.1140
  309MOL0     H40741   3.194   2.384   7.950  1.8719  1.7030 -0.0660
  309MOL0     H40742   3.318   2.439   8.327 -1.2726  3.6789  0.4363
  309MOL0     H40743   3.170   2.402   8.261  2.0706 -0.6836  2.6522
  309MOL0     H40744   3.209   2.604   8.085  0.5382  1.9584  0.1916
  309MOL0     H40745   3.373   2.606   8.151  0.6730 -3.5249  1.5675
  309MOL0     H40746   3.182   2.785   8.223 -1.4334 -0.1147 -1.4869
  309MOL0     H40747   3.092   2.644   8.276  0.1302 -0.2740 -0.0430
  309MOL0     H40748   3.271   2.609   8.454  2.2256  0.7540  0.0026
  309MOL0     H40749   3.199   2.773   8.448  1.2019  2.0775 -0.2614
  309MOL0     H40750   3.619   2.820   8.355 -1.1155  0.9920 -0.8122
  309MOL0     H40751   3.768   2.950   8.522  0.9278 -1.2462  1.6626
  309MOL0     H40752   3.640   3.280   8.933  0.6873 -0.4194 -0.7096
  309MOL0     H40753   3.713   3.406   9.136  0.5283 -0.3379 -3.2429
  309MOL0     H40754   4.041   3.363   9.412  1.6718  0.0036 -1.5476
  309MOL0     H40755   4.043   3.222   9.325 -1.4782 -1.1063  0.8819
  309MOL0     H40756   3.898   3.121   9.532 -1.5961  1.4707  2.3138
  309MOL0     H40757   3.891   3.277   9.594 -0.9219 -1.9390  0.7286
  309MOL0     H40758   4.143   3.246   9.660  3.4228 -2.5004 -3.6033
  309MOL0     H40759   4.139   3.101   9.560 -2.2384 -1.3125 -0.7711
  309MOL0     H40760   3.958   3.138   9.794  4.7149  3.3968  3.4789
  309MOL0     H40761   4.005   2.987   9.697  5.3823 -2.4607  0.1776
  309MOL0     H40762   4.095   3.004   9.922  1.3542  1.2552  1.9812
  309MOL0     H40763   4.196   3.148   9.888 -1.5573  0.5033  0.8591
  309MOL0     H40764   4.360   3.006   9.839 -0.3867 -0.7395  0.7714
  309MOL0     H40765   4.281   2.998   9.687 -1.5721  1.7486 -0.0420
  309MOL0     H40766   4.253   2.829   9.934  3.6093  1.9627  0.6201
  309MOL0     H40767   4.180   2.791   9.763 -0.6851 -2.9229  2.2606
  309MOL0     H40768   4.407   2.762   9.701  4.7075  1.0569  0.8303
  309MOL0     H40769   4.353   2.637   9.807  0.3997  0.1696 -3.7269
  309MOL0     H40770   3.860   3.042   9.297 -0.9826 -1.3352  1.3598
  309MOL0     H40771   3.764   2.919   9.113 -2.9901 -1.1181 -1.1713
  309MOL0     H40772   3.433   2.928   8.804 -0.6626 -0.2633  0.0796
  309MOL0     H40773   3.302   2.812   8.632  0.2606 -0.8201 -1.8759
  309MOL0     H40774   2.820   2.300   7.009 -0.9248 -0.1149  2.8004
  309MOL0     H40775   2.707   2.475   6.900  1.2902 -2.2609 -0.1479
  309MOL0     H40776   2.463   2.811   6.893 -3.3457  3.3133 -0.9198
  309MOL0     H40777   2.314   2.931   6.767 -1.1469  0.0094 -0.4888
  309MOL0     H40778   2.251   3.222   6.752 -2.2478  3.0828 -1.4389
  309MOL0     H40779   2.189   3.097   6.641 -0.6439 -0.1969 -2.1451
  309MOL0     H40780   2.280   3.368   6.561 -1.6451  1.5716  0.6892
  309MOL0     H40781   2.188   3.254   6.457 -1.5700 -1.3744  0.6989
  309MOL0     H40782   2.079   3.354   6.724  2.8299 -1.1458 -0.4469
  309MOL0     H40783   1.995   3.257   6.589  1.1777 -1.2378 -0.6568
  309MOL0     H40784   2.066   3.444   6.447  0.1491 -0.0173  0.4864
  309MOL0     H40785   1.930   3.488   6.557 -0.4131 -0.3356  2.2233
  309MOL0     H40786   2.287   3.729   6.639 -0.3505  0.2568 -0.0421
  309MOL0     H40787   2.651   3.119   6.556  1.9953  0.4317  1.4809
  309MOL0     H40788   2.797   2.984   6.680 -0.7107 -2.0791 -0.6389
  310MOL0     O40789  10.012  11.124  10.017 -0.5148 -0.2711  0.3230
  310MOL0     C40790  10.099  11.074   9.946  0.1981 -0.0817 -0.4504
  310MOL0     O40791  10.152  10.941   9.969  0.2722  0.8761 -0.0543
  310MOL0     C40792  10.089  10.873  10.066  0.7130  0.4729 -0.1029
  310MOL0     C40793  10.171  10.794  10.159 -0.3182 -0.3149  0.3174
  310MOL0     C40794  10.112  10.720  10.259 -0.0071  0.2262  0.4312
  310MOL0     C40795   9.969  10.699  10.261 -0.1204 -0.1235  0.0016
  310MOL0     O40796   9.922  10.603  10.338  0.6705  0.4243  1.5013
  310MOL0     C40797   9.797  10.639  10.399 -0.6814 -0.5521  0.1170
  310MOL0     C40798   9.816  10.581  10.546  0.6901  0.9126 -0.6705
  310MOL0     C40799   9.822  10.429  10.557 -0.5803 -0.2424 -1.4007
  310MOL0     C40800   9.686  10.369  10.553  0.0040  0.4050 -1.1802
  310MOL0     C40801   9.701  10.224  10.588  0.0839 -0.2660 -0.0807
  310MOL0     C40802   9.571  10.153  10.647  0.5794 -0.7056 -1.2952
  310MOL0     C40803   9.479  10.086  10.539 -0.7474  0.3982  0.8803
  310MOL0     C40804   9.327  10.062  10.587 -0.9653 -0.6413  0.0189
  310MOL0     N40805   9.255  10.168  10.660 -0.0898  1.3572  0.6578
  310MOL0     C40806   9.186  10.266  10.596 -0.3288  0.1009 -0.9881
  310MOL0     C40807   9.122  10.334  10.700 -0.5759 -0.1713  0.4909
  310MOL0     C40808   9.015  10.442  10.695  0.6434  0.1069 -0.4645
  310MOL0     C40809   8.886  10.385  10.626  0.2061 -0.2358  0.8355
  310MOL0     C40810   8.782  10.490  10.593  0.3738 -0.7327 -0.2811
  310MOL0     C40811   8.660  10.413  10.569  0.1419  0.2657  0.0435
  310MOL0     O40812   8.554  10.500  10.544 -0.3028 -0.6250  1.5550
  310MOL0     C40813   8.429  10.439  10.539  1.1033 -0.4021 -0.1261
  310MOL0     C40814   8.402  10.328  10.457  0.4394  0.6055 -0.2437
  310MOL0     C40815   8.274  10.285  10.433  0.3702  0.5121 -0.4476
  310MOL0     C40816   8.161  10.342  10.495 -0.0904 -1.0372 -0.5632
  310MOL0     C40817   8.032  10.280  10.480 -0.6729 -0.2162 -0.3784
  310MOL0     O40818   7.997  10.240  10.357 -0.0542 -0.0873  0.5249
  310MOL0     C40819   7.874  10.192  10.326 -0.1146 -0.3382  0.9679
  310MOL0     C40820   7.761  10.227  10.393  0.2064  0.3420 -0.1466
  310MOL0     C40821   7.628  10.191  10.353 -0.7694 -0.0781 -0.0141
  310MOL0     C40822   7.618  10.094  10.253  0.5341  0.4530  0.3693
  310MOL0     O40823   7.501  10.036  10.230 -0.1752 -0.4380 -0.0576
  310MOL0     C40824   7.491   9.908  10.165 -0.1017 -0.7352  0.0142
  310MOL0     C40825   7.357   9.818  10.194 -0.1057  0.1752  0.6479
  310MOL0     C40826   7.359   9.759  10.337 -0.4681  0.1021 -0.1726
  310MOL0     C40827   7.216   9.736  10.387 -0.8274 -0.2385 -0.9555
  310MOL0     C40828   7.219   9.654  10.519  0.5205 -0.0947 -0.2029
  310MOL0     C40829   7.078   9.621  10.564 -0.4894 -0.1340  0.1822
  310MOL0     C40830   7.077   9.517  10.673  0.1411 -0.2195 -0.4383
  310MOL0     C40831   7.096   9.376  10.614 -0.5450 -0.2194 -0.0060
  310MOL0    Cl40832   7.089   9.249  10.744  0.1299  0.3977  0.2736
  310MOL0     C40833   7.741  10.065  10.190  0.5872  0.8139  0.5548
  310MOL0     C40834   7.866  10.115  10.211  0.3681 -0.4319  0.2506
  310MOL0     O40835   7.963  10.272  10.579  0.4154 -0.2696 -0.2372
  310MOL0     C40836   8.186  10.447  10.575 -0.1087 -0.0923  0.3326
  310MOL0     C40837   8.317  10.501  10.592  1.2319  0.0032  0.3806
  310MOL0     N40838   9.152  10.259  10.822 -1.2041 -0.5910 -0.3527
  310MOL0     N40839   9.243  10.174  10.798 -0.1195  0.9215  0.2847
  310MOL0     C40840   9.894  10.760  10.160  0.0016 -0.0695  0.1904
  310MOL0     C40841   9.957  10.836  10.063 -0.1539  0.4611 -0.0466
  310MOL0     C40842  10.176  11.170   9.862 -0.4095 -0.9145  0.4344
  310MOL0     C40843  10.283  11.112   9.795 -0.5846 -1.1862  0.7364
  310MOL0     C40844  10.392  11.191   9.736 -0.2180  0.5129  0.2087
  310MOL0     C40845  10.376  11.329   9.738 -0.0473 -0.0236 -0.3595
  310MOL0     O40846  10.461  11.413   9.677 -0.3205  0.0301  0.5341
  310MOL0     C40847  10.543  11.363   9.565 -0.4514 -0.2967  0.3957
  310MOL0     C40848  10.630  11.483   9.524  0.0666  0.1422 -0.2200
  310MOL0     C40849  10.756  11.446   9.447 -0.8047 -0.0265 -0.0236
  310MOL0     C40850  10.747  11.445   9.300  0.1260  0.9450 -0.0159
  310MOL0     C40851  10.751  11.574   9.233 -0.2858  0.7119 -0.2590
  310MOL0     C40852  10.763  11.670   9.153 -0.0847  0.1071  0.1461
  310MOL0     C40853  10.260  11.387   9.795 -0.9804 -0.0217 -0.5340
  310MOL0     C40854  10.161  11.312   9.856 -0.0306 -0.1749  0.5118
  310MOL0     H40855  10.277  10.818  10.163  0.3267 -2.5133 -1.5262
  310MOL0     H40856  10.169  10.671  10.336  1.2509  2.1691  0.8264
  310MOL0     H40857   9.720  10.591  10.338 -3.5945 -0.1912  3.2622
  310MOL0     H40858   9.775  10.746  10.395  1.6289 -0.0409 -2.1680
  310MOL0     H40859   9.732  10.612  10.610 -0.7830 -2.8371 -0.5184
  310MOL0     H40860   9.912  10.623  10.577  0.7186  2.5840 -2.8077
  310MOL0     H40861   9.869  10.404  10.652 -0.7521 -0.6367 -1.4174
  310MOL0     H40862   9.881  10.388  10.475  1.3853  0.0985 -0.2146
  310MOL0     H40863   9.628  10.414  10.634  1.9786 -0.1328  0.6268
  310MOL0     H40864   9.649  10.381  10.450  0.6658  0.0087 -1.4705
  310MOL0     H40865   9.777  10.220  10.666  0.0761  1.2444  0.0223
  310MOL0     H40866   9.736  10.165  10.502 -0.1297 -1.3408  0.5448
  310MOL0     H40867   9.515  10.235  10.693  2.2584 -0.6086  0.7507
  310MOL0     H40868   9.582  10.098  10.741  0.4999  2.8872  1.0300
  310MOL0     H40869   9.476  10.151  10.450 -2.2940  0.1341  0.7009
  310MOL0     H40870   9.515   9.989  10.503 -0.8273  0.7690 -0.2438
  310MOL0     H40871   9.310   9.967  10.638  1.0504 -0.9968  0.1197
  310MOL0     H40872   9.279  10.046  10.490 -1.8939 -2.7975  0.7706
  310MOL0     H40873   9.181  10.284  10.489  2.6518 -1.1785 -1.4597
  310MOL0     H40874   9.034  10.531  10.634 -2.2954 -0.2434 -2.0721
  310MOL0     H40875   9.000  10.476  10.797  1.3430 -0.1767 -0.2597
  310MOL0     H40876   8.847  10.297  10.679 -0.9652 -1.0604 -1.2691
  310MOL0     H40877   8.914  10.354  10.525 -1.0266  1.4210 -0.0652
  310MOL0     H40878   8.743  10.553  10.673 -0.1387  0.4380 -1.4323
  310MOL0     H40879   8.815  10.547  10.506 -0.5660  0.0952 -0.1061
  310MOL0     H40880   8.629  10.355  10.656  0.7364 -1.6436 -0.9529
  310MOL0     H40881   8.682  10.335  10.495  0.9818 -0.1254  0.6946
  310MOL0     H40882   8.494  10.297  10.408  0.9297  3.2875 -1.2566
  310MOL0     H40883   8.255  10.204  10.364  1.0416 -0.3953  0.4017
  310MOL0     H40884   7.769  10.299  10.474  1.7630 -1.2145  1.1707
  310MOL0     H40885   7.541  10.221  10.411 -3.0020 -1.7071 -2.3173
  310MOL0     H40886   7.577   9.845  10.189  0.1337  0.2425  1.9561
  310MOL0     H40887   7.490   9.920  10.056  0.8528 -2.1830 -0.1848
  310MOL0     H40888   7.362   9.736  10.121  0.7092 -0.8380  1.7886
  310MOL0     H40889   7.266   9.876  10.179 -0.6755 -0.4941  1.4528
  310MOL0     H40890   7.420   9.828  10.396  3.5264 -1.7571 -1.7917
  310MOL0     H40891   7.415   9.665  10.334  1.5589  1.2392 -0.0115
  310MOL0     H40892   7.169   9.831  10.415  0.2765  0.2602 -0.7181
  310MOL0     H40893   7.157   9.676  10.317 -2.6297  2.6888 -2.1263
  310MOL0     H40894   7.261   9.729  10.587  1.6031 -1.0352  0.1982
  310MOL0     H40895   7.282   9.566  10.512  2.6429  1.3371 -0.0229
  310MOL0     H40896   7.018   9.593  10.477 -0.5550  0.4608  0.0281
  310MOL0     H40897   7.035   9.714  10.604 -1.3900 -0.2954 -0.3791
  310MOL0     H40898   7.156   9.552  10.741  0.6647  0.4957 -1.3808
  310MOL0     H40899   6.983   9.516  10.727  0.1934 -1.0982 -0.3436
  310MOL0     H40900   7.193   9.354  10.568 -0.3555  1.3087 -0.3873
  310MOL0     H40901   7.031   9.356  10.528  1.2340 -1.2177 -1.1873
  310MOL0     H40902   7.740   9.993  10.109  0.5890  1.5538 -0.1195
  310MOL0     H40903   7.960  10.092  10.162  1.4359  1.7230  1.1490
  310MOL0     H40904   8.099  10.490  10.625 -1.9860  0.0179 -2.7843
  310MOL0     H40905   8.330  10.590  10.653 -1.1240  0.3773  0.4134
  310MOL0     H40906   9.792  10.730  10.137  0.0525 -0.1887  0.1164
  310MOL0     H40907   9.887  10.871   9.988  0.6218  0.8502 -0.5987
  310MOL0     H40908  10.301  11.005   9.789  1.5635 -0.8387  0.3925
  310MOL0     H40909  10.484  11.140   9.711  0.1767  2.2113 -2.1437
  310MOL0     H40910  10.467  11.338   9.490 -0.1508 -1.2465  0.3916
  310MOL0     H40911  10.608  11.276   9.581 -0.2331 -0.0223  1.0304
  310MOL0     H40912  10.572  11.561   9.473  1.0956 -0.5706 -2.6360
  310MOL0     H40913  10.674  11.520   9.617  0.6551 -0.4195 -0.2696
  310MOL0     H40914  10.802  11.352   9.478 -2.3050 -0.2645  1.6192
  310MOL0     H40915  10.834  11.519   9.472 -0.8726  0.3403 -0.8687
  310MOL0     H40916  10.835  11.387   9.270  0.6816  0.2516  2.7374
  310MOL0     H40917  10.654  11.392   9.278 -0.4215  0.9018  2.2518
  310MOL0     H40918  10.763  11.747   9.080  0.7059 -1.1952 -1.2835
  310MOL0     H40919  10.250  11.493   9.775 -0.2291 -0.0911 -1.3533
  310MOL0     H40920  10.079  11.364   9.904 -1.2162 -0.3125 -1.2581
  311MOL0     O40921  10.005   3.391   1.508 -0.4447  0.5187  0.2170
  311MOL0     C40922  10.045   3.502   1.481  0.2427  0.3571 -0.2749
  311MOL0     O40923   9.965   3.616   1.468  0.1201  0.7764 -0.4222
  311MOL0     C40924   9.825   3.603   1.487 -0.1144 -0.8743 -0.3038
  311MOL0     C40925   9.759   3.699   1.566  0.1624  0.5987  0.8846
  311MOL0     C40926   9.624   3.692   1.588 -1.0439 -0.5563 -1.0391
  311MOL0     C40927   9.549   3.589   1.521 -0.5002 -0.9501  0.1468
  311MOL0     O40928   9.414   3.589   1.511  0.5441  0.8867 -0.2599
  311MOL0     C40929   9.354   3.706   1.559  0.3486 -0.7392 -0.5492
  311MOL0     C40930   9.199   3.675   1.558 -1.1590  0.2411 -1.1074
  311MOL0     C40931   9.146   3.652   1.414 -0.3727  0.2312 -0.0747
  311MOL0     C40932   9.023   3.563   1.421  0.0862  0.0953 -0.1242
  311MOL0     C40933   8.924   3.571   1.301  0.1854 -0.3008 -0.0425
  311MOL0     C40934   8.787   3.501   1.344 -0.2943  0.0336  0.1517
  311MOL0     C40935   8.691   3.512   1.211  0.1707  0.8308 -0.1742
  311MOL0     C40936   8.546   3.472   1.251 -0.1725  0.7591 -0.3090
  311MOL0     N40937   8.471   3.452   1.129  0.8397  0.5884 -0.2411
  311MOL0     C40938   8.453   3.545   1.032 -0.3043 -0.4225 -0.1662
  311MOL0     C40939   8.403   3.470   0.932  0.5746 -0.3371  0.3845
  311MOL0     C40940   8.376   3.504   0.789 -0.2769  0.4072 -0.0877
  311MOL0     C40941   8.509   3.511   0.713 -0.8052  1.5997  0.2209
  311MOL0     C40942   8.597   3.381   0.708 -0.7513 -0.5722  0.0168
  311MOL0     C40943   8.698   3.378   0.592  0.9172  0.3621  0.7301
  311MOL0     O40944   8.772   3.494   0.559 -0.3904 -1.0072  0.8616
  311MOL0     C40945   8.853   3.539   0.650 -0.1757 -0.2225  0.2898
  311MOL0     C40946   8.851   3.672   0.651 -0.5282 -0.3345 -0.2260
  311MOL0     C40947   8.937   3.734   0.737 -0.1047  0.6919 -0.6180
  311MOL0     C40948   9.030   3.661   0.814  0.4753  1.0647 -0.0513
  311MOL0     C40949   9.148   3.721   0.871  0.2435 -0.5221 -0.7805
  311MOL0     O40950   9.221   3.649   0.961  0.3491 -1.2258 -0.0515
  311MOL0     C40951   9.346   3.704   1.003  1.2221 -0.1863  0.2855
  311MOL0     C40952   9.399   3.836   0.986  0.2882  0.6116 -0.2679
  311MOL0     C40953   9.527   3.867   1.017 -0.9370  0.3286 -0.2858
  311MOL0     C40954   9.610   3.769   1.074 -0.5783 -0.2295 -0.4749
  311MOL0     O40955   9.746   3.785   1.118  0.1207 -0.5475 -0.0510
  311MOL0     C40956   9.838   3.692   1.054  0.4834 -0.4415 -0.0417
  311MOL0     C40957   9.969   3.762   1.022  0.0831 -0.3740 -1.4095
  311MOL0     C40958   9.946   3.879   0.914  0.3186  0.4271 -0.9392
  311MOL0     C40959  10.076   3.952   0.895  0.3578  0.2291 -0.7769
  311MOL0     C40960  10.070   4.012   0.753 -0.2013  0.2064 -0.2572
  311MOL0     C40961  10.157   4.138   0.718 -0.0643  0.7921 -0.0412
  311MOL0     C40962  10.292   4.137   0.790  0.2812 -0.3211 -0.4239
  311MOL0     C40963  10.380   4.015   0.759 -0.5460  0.0373  0.0981
  311MOL0    Cl40964  10.545   4.043   0.817 -0.5693 -0.2129  0.0285
  311MOL0     C40965   9.556   3.643   1.096  0.2305 -0.5998 -1.3381
  311MOL0     C40966   9.424   3.610   1.061 -1.2666 -0.2071  0.2445
  311MOL0     O40967   9.175   3.831   0.820 -1.3349  0.4265  0.0956
  311MOL0     C40968   9.016   3.520   0.820  0.6980  0.3003 -0.0537
  311MOL0     C40969   8.930   3.453   0.728  0.1941 -0.5689  0.4518
  311MOL0     N40970   8.380   3.337   0.959 -0.3405  0.8398 -0.8582
  311MOL0     N40971   8.411   3.333   1.084 -0.0991  0.7796  0.3548
  311MOL0     C40972   9.612   3.500   1.422 -0.3288 -0.2705  0.3547
  311MOL0     C40973   9.755   3.512   1.409 -0.1112  0.1434  0.7449
  311MOL0     C40974  10.185   3.537   1.489  0.8169 -0.0545 -0.9107
  311MOL0     C40975  10.244   3.650   1.437  0.0028 -0.1826 -0.7007
  311MOL0     C40976  10.389   3.677   1.452  0.1272  0.2700 -0.1537
  311MOL0     C40977  10.466   3.581   1.514  0.6770 -1.5510  0.4644
  311MOL0     O40978  10.601   3.584   1.539 -0.4332  0.2952 -0.0212
  311MOL0     C40979  10.677   3.692   1.479  0.0891  0.0524 -0.6400
  311MOL0     C40980  10.828   3.655   1.516  0.5781  0.1969 -0.1381
  311MOL0     C40981  10.913   3.725   1.404 -0.0343  0.1379  0.1559
  311MOL0     C40982  11.053   3.657   1.403 -0.1543  0.5559  0.3917
  311MOL0     C40983  11.131   3.645   1.528  0.2860  0.5135 -0.3764
  311MOL0     C40984  11.206   3.641   1.626  0.9807 -0.0531  0.3209
  311MOL0     C40985  10.401   3.477   1.584 -0.2067  0.0815  0.1443
  311MOL0     C40986  10.268   3.452   1.573  0.6643 -0.5210  0.8768
  311MOL0     H40987   9.817   3.769   1.625 -2.2775  2.9768  0.6373
  311MOL0     H40988   9.591   3.765   1.661  0.4950  0.5420 -1.3888
  311MOL0     H40989   9.370   3.793   1.494 -1.1344 -1.3090 -1.7638
  311MOL0     H40990   9.386   3.745   1.655  0.0423  0.5997 -0.9689
  311MOL0     H40991   9.152   3.760   1.607  1.1893  0.9442  0.0849
  311MOL0     H40992   9.192   3.589   1.626  0.9747  2.1659  1.8406
  311MOL0     H40993   9.218   3.603   1.348  0.4321  2.1252 -0.6744
  311MOL0     H40994   9.132   3.756   1.384  1.4180  1.0295  1.5878
  311MOL0     H40995   9.046   3.458   1.440 -1.7110 -0.7063 -1.9745
  311MOL0     H40996   8.959   3.592   1.505  1.1719 -1.9338  1.4920
  311MOL0     H40997   8.951   3.521   1.207  1.8738 -1.3828  0.9602
  311MOL0     H40998   8.896   3.675   1.287  0.5371 -0.4632 -2.4296
  311MOL0     H40999   8.735   3.550   1.427  0.7630 -0.2514  1.0223
  311MOL0     H41000   8.817   3.397   1.362 -2.0078 -0.1050  2.8131
  311MOL0     H41001   8.699   3.612   1.169 -0.9020  1.6150  1.3738
  311MOL0     H41002   8.719   3.449   1.126  1.6234  1.6969 -0.3745
  311MOL0     H41003   8.505   3.543   1.323 -0.1502 -0.9765  1.5265
  311MOL0     H41004   8.562   3.380   1.309  3.8887  0.1986 -2.0274
  311MOL0     H41005   8.482   3.648   1.048 -0.1706 -0.8101  2.4488
  311MOL0     H41006   8.316   3.595   0.792 -0.7068  0.1079  1.0991
  311MOL0     H41007   8.317   3.425   0.744 -1.3470  0.1329  1.6895
  311MOL0     H41008   8.575   3.591   0.748  3.7234 -2.4106  1.9910
  311MOL0     H41009   8.480   3.536   0.610  0.7676  0.6800 -0.4766
  311MOL0     H41010   8.648   3.376   0.804 -1.0255 -1.6988  0.1158
  311MOL0     H41011   8.541   3.287   0.700  0.4380 -2.2876  6.5449
  311MOL0     H41012   8.643   3.360   0.499  0.5418  3.3677  0.2672
  311MOL0     H41013   8.760   3.290   0.613 -1.5102 -1.5948  0.1681
  311MOL0     H41014   8.781   3.732   0.594 -3.4473 -1.7788  1.5508
  311MOL0     H41015   8.959   3.837   0.713  1.8283  0.0703 -1.7082
  311MOL0     H41016   9.340   3.913   0.937 -1.3065 -0.6182 -0.3805
  311MOL0     H41017   9.567   3.968   1.014  5.5765 -1.6020 -7.0212
  311MOL0     H41018   9.800   3.633   0.970 -2.2580 -1.9926  2.0748
  311MOL0     H41019   9.861   3.613   1.126 -1.1245  0.5792  1.7136
  311MOL0     H41020  10.050   3.696   0.991  0.3341  0.5529 -2.8154
  311MOL0     H41021   9.996   3.809   1.117  3.2446 -1.8392 -1.4613
  311MOL0     H41022   9.869   3.950   0.946  0.3453 -0.0129  0.1348
  311MOL0     H41023   9.912   3.838   0.819  2.7580  1.4936 -2.3667
  311MOL0     H41024  10.081   4.031   0.970 -0.9736  1.9096 -2.3511
  311MOL0     H41025  10.159   3.883   0.907  1.0731  1.1303 -0.4100
  311MOL0     H41026   9.970   4.055   0.749  0.6635  2.4705  0.8214
  311MOL0     H41027  10.075   3.930   0.680  0.3507 -1.1995  1.2891
  311MOL0     H41028  10.108   4.234   0.733 -4.0678 -0.8887 -1.0947
  311MOL0     H41029  10.165   4.140   0.609 -0.6498  1.6625 -0.0718
  311MOL0     H41030  10.353   4.225   0.764  1.3317 -0.2419  2.0246
  311MOL0     H41031  10.269   4.146   0.896 -1.8665  1.2293 -0.9340
  311MOL0     H41032  10.392   4.000   0.652 -0.3296  1.0275 -0.0248
  311MOL0     H41033  10.340   3.930   0.815 -1.7487  0.7354  0.3341
  311MOL0     H41034   9.616   3.568   1.146 -1.2380  0.1978  1.8875
  311MOL0     H41035   9.385   3.510   1.053 -0.6344 -0.4458  0.0548
  311MOL0     H41036   9.089   3.460   0.873 -0.5553 -2.7616 -1.5345
  311MOL0     H41037   8.933   3.346   0.706  2.1751  0.0990 -3.4727
  311MOL0     H41038   9.557   3.423   1.370 -0.3466  0.3650 -0.6081
  311MOL0     H41039   9.809   3.447   1.341  1.4426 -1.5152  3.3998
  311MOL0     H41040  10.179   3.722   1.388 -1.4627  0.2512  1.6816
  311MOL0     H41041  10.437   3.754   1.392  4.3831 -2.7074 -0.9826
  311MOL0     H41042  10.658   3.786   1.532 -0.2855 -0.2657 -0.1989
  311MOL0     H41043  10.647   3.692   1.374 -0.0463 -0.8232 -0.6099
  311MOL0     H41044  10.858   3.672   1.620  0.7370  1.3703 -0.3617
  311MOL0     H41045  10.834   3.548   1.493  1.6099  0.2405 -0.0940
  311MOL0     H41046  10.926   3.833   1.416  4.3448 -0.0060 -1.5200
  311MOL0     H41047  10.882   3.711   1.300  2.5253 -1.9031 -0.4506
  311MOL0     H41048  11.028   3.553   1.382 -0.1353  0.1194  2.3149
  311MOL0     H41049  11.116   3.693   1.322 -1.7906 -1.6842 -2.0105
  311MOL0     H41050  11.265   3.653   1.715  2.0784 -3.3113  0.1702
  311MOL0     H41051  10.455   3.409   1.649 -0.8468  0.1440  0.7449
  311MOL0     H41052  10.220   3.369   1.625  1.4421 -2.1257 -0.8685
  312MOL0     O41053   5.791   9.511   2.833  0.4930  0.5492  0.4785
  312MOL0     C41054   5.864   9.435   2.776 -0.5768 -0.5837 -0.5053
  312MOL0     O41055   5.998   9.415   2.810  0.7695  0.3287  1.1441
  312MOL0     C41056   6.047   9.456   2.931  0.0785  0.1029 -0.7602
  312MOL0     C41057   6.058   9.597   2.951 -0.0095  0.1300 -0.4746
  312MOL0     C41058   6.120   9.649   3.062  0.3025 -0.1409 -0.5388
  312MOL0     C41059   6.174   9.562   3.159 -0.4802 -0.9109 -0.2761
  312MOL0     O41060   6.225   9.617   3.273 -0.0864 -0.3219 -0.0743
  312MOL0     C41061   6.363   9.582   3.307 -0.2418 -0.0887 -0.3477
  312MOL0     C41062   6.369   9.530   3.453 -0.1054 -0.1454 -0.8863
  312MOL0     C41063   6.504   9.537   3.523 -0.0267 -0.2974  0.9720
  312MOL0     C41064   6.588   9.411   3.507  0.1238  0.6032 -0.0733
  312MOL0     C41065   6.742   9.414   3.536  0.1169 -0.6347  0.5098
  312MOL0     C41066   6.775   9.464   3.681 -0.4826  0.0108  0.2151
  312MOL0     C41067   6.712   9.377   3.791 -0.3521 -0.0843  0.3643
  312MOL0     C41068   6.822   9.294   3.848 -0.6372 -0.5876 -1.2264
  312MOL0     N41069   6.765   9.219   3.957 -0.0774  0.5537 -1.1079
  312MOL0     C41070   6.839   9.184   4.070 -0.4773  0.3358  0.9982
  312MOL0     C41071   6.780   9.075   4.121  1.0378  0.1948  1.0544
  312MOL0     C41072   6.808   8.984   4.243 -0.6313 -1.2205 -0.8489
  312MOL0     C41073   6.901   9.036   4.359 -0.3142  0.4356  0.1216
  312MOL0     C41074   6.849   9.151   4.436 -0.3101  0.1866 -0.4942
  312MOL0     C41075   6.935   9.179   4.560  0.6388 -0.0435 -0.9224
  312MOL0     O41076   7.077   9.168   4.532 -0.5891  0.3000 -0.4025
  312MOL0     C41077   7.161   9.233   4.625 -0.0227 -0.2987  0.5725
  312MOL0     C41078   7.119   9.310   4.736 -0.0667 -0.6349  0.2744
  312MOL0     C41079   7.212   9.386   4.810  0.2295  0.5942  1.5980
  312MOL0     C41080   7.347   9.384   4.784  0.5842 -0.0315 -0.1482
  312MOL0     C41081   7.450   9.428   4.878 -0.7704  0.9106 -0.2804
  312MOL0     O41082   7.578   9.385   4.862  0.1151 -0.4377  0.2920
  312MOL0     C41083   7.661   9.374   4.973  0.6868  0.2939  0.3780
  312MOL0     C41084   7.786   9.420   4.958 -0.2793  0.2426  0.6313
  312MOL0     C41085   7.868   9.434   5.067 -0.2511 -0.7014 -0.2022
  312MOL0     C41086   7.828   9.396   5.191  0.0596 -0.4064 -0.4565
  312MOL0     O41087   7.905   9.403   5.304  0.7322  0.0039  0.2742
  312MOL0     C41088   8.047   9.426   5.293 -0.3699  0.7386 -0.1976
  312MOL0     C41089   8.105   9.403   5.432  0.5589 -0.3253 -0.1811
  312MOL0     C41090   8.260   9.411   5.430 -0.4286  1.0592 -0.1076
  312MOL0     C41091   8.325   9.347   5.546 -0.4984  0.4827  0.0806
  312MOL0     C41092   8.475   9.337   5.510 -0.2478  0.9703 -0.7281
  312MOL0     C41093   8.567   9.297   5.627  0.0546  0.2543 -0.3787
  312MOL0     C41094   8.680   9.208   5.578 -0.0843 -0.4470 -0.1395
  312MOL0     C41095   8.798   9.220   5.668  0.2714  0.3840 -0.2470
  312MOL0    Cl41096   8.920   9.114   5.621 -0.8578  0.7154 -0.1632
  312MOL0     C41097   7.704   9.348   5.208  0.7232 -0.7201 -0.6309
  312MOL0     C41098   7.616   9.342   5.100  0.6306 -0.2870 -1.6498
  312MOL0     O41099   7.406   9.505   4.962  0.5721  0.0230 -0.1595
  312MOL0     C41100   7.391   9.317   4.670 -0.1178 -0.7952  1.0200
  312MOL0     C41101   7.296   9.235   4.596  0.6968 -0.7305 -0.7440
  312MOL0     N41102   6.676   9.038   4.041  0.3177 -0.7581 -0.2690
  312MOL0     N41103   6.668   9.122   3.945 -0.1816  0.1021 -1.6309
  312MOL0     C41104   6.156   9.421   3.137 -0.4734  0.1838  0.4403
  312MOL0     C41105   6.090   9.371   3.025 -1.3138  1.1200 -0.4454
  312MOL0     C41106   5.800   9.362   2.659 -0.2769  0.0448 -0.0062
  312MOL0     C41107   5.868   9.299   2.552  0.1391  0.4640 -0.4447
  312MOL0     C41108   5.802   9.216   2.460 -0.7081 -1.0266  0.5459
  312MOL0     C41109   5.669   9.192   2.471  0.5514 -0.5043  0.1335
  312MOL0     O41110   5.591   9.124   2.384  0.3694  1.0891 -0.0867
  312MOL0     C41111   5.652   9.023   2.306 -0.0239  0.6928  0.9565
  312MOL0     C41112   5.695   9.085   2.168  0.4211  0.2685  0.3181
  312MOL0     C41113   5.766   8.974   2.082  0.3299 -0.5671  0.5418
  312MOL0     C41114   5.712   8.974   1.936 -0.0290  0.2703 -0.3473
  312MOL0     C41115   5.761   8.861   1.862  0.7844 -0.1588  0.8844
  312MOL0     C41116   5.807   8.774   1.789  0.2760 -0.5841  0.2531
  312MOL0     C41117   5.596   9.260   2.569 -0.3804 -0.2743  0.4521
  312MOL0     C41118   5.659   9.343   2.659 -0.2651  0.8359  0.1032
  312MOL0     H41119   6.015   9.660   2.874  3.9881  0.8152 -2.3954
  312MOL0     H41120   6.137   9.755   3.079 -0.6779  0.1879 -1.5188
  312MOL0     H41121   6.413   9.678   3.289 -0.5134 -0.5941 -4.8167
  312MOL0     H41122   6.413   9.522   3.231  1.9770  1.1381  0.0673
  312MOL0     H41123   6.331   9.427   3.449 -1.1581  0.1718  0.1777
  312MOL0     H41124   6.289   9.575   3.513 -0.1539 -2.3581  0.8872
  312MOL0     H41125   6.509   9.563   3.629  2.6300 -0.0682  0.8689
  312MOL0     H41126   6.566   9.618   3.482  1.2131 -0.0515  3.1894
  312MOL0     H41127   6.548   9.320   3.553  0.6333  0.4491  0.0733
  312MOL0     H41128   6.565   9.388   3.403 -0.1959  0.5205  0.0130
  312MOL0     H41129   6.787   9.481   3.462 -0.4590 -1.4889 -0.6373
  312MOL0     H41130   6.778   9.314   3.511 -2.3883 -1.0448 -1.9281
  312MOL0     H41131   6.749   9.569   3.695  1.2012  0.1571  2.9934
  312MOL0     H41132   6.884   9.466   3.692 -0.2202 -3.2041 -0.7306
  312MOL0     H41133   6.670   9.446   3.865 -1.6908 -2.6326  2.1162
  312MOL0     H41134   6.634   9.308   3.757 -1.3392  0.6794  1.0132
  312MOL0     H41135   6.907   9.353   3.881  2.1520 -2.7727 -3.8414
  312MOL0     H41136   6.862   9.234   3.765  1.5980 -3.2159  1.5186
  312MOL0     H41137   6.926   9.240   4.102  0.2457 -0.8789  1.2232
  312MOL0     H41138   6.864   8.893   4.221  2.1179  0.0761  0.3081
  312MOL0     H41139   6.711   8.952   4.284 -1.4587 -2.0117 -3.2644
  312MOL0     H41140   7.002   9.055   4.321 -0.7436 -0.4307 -1.5261
  312MOL0     H41141   6.911   8.951   4.427 -3.3621 -0.5043 -0.4826
  312MOL0     H41142   6.834   9.237   4.370 -0.0915  0.0954 -0.6634
  312MOL0     H41143   6.749   9.136   4.477  0.6631  0.8100  2.3426
  312MOL0     H41144   6.914   9.120   4.650  2.2166  1.1848  0.3028
  312MOL0     H41145   6.897   9.277   4.589 -2.6255 -1.0333 -1.4432
  312MOL0     H41146   7.020   9.311   4.781  0.0180  0.7486  0.4512
  312MOL0     H41147   7.172   9.439   4.895  0.9051  3.3084  0.3405
  312MOL0     H41148   7.822   9.442   4.858  2.8400  0.8484  1.7961
  312MOL0     H41149   7.965   9.481   5.048 -0.7802  1.9762  2.8275
  312MOL0     H41150   8.080   9.523   5.256  1.1097 -0.3147 -1.7924
  312MOL0     H41151   8.090   9.354   5.223 -2.4348 -1.7873  0.9375
  312MOL0     H41152   8.068   9.308   5.471 -1.4823  0.3015 -0.4737
  312MOL0     H41153   8.059   9.474   5.502  0.2775  0.1213 -0.8118
  312MOL0     H41154   8.301   9.512   5.426 -1.0295  1.2877 -0.6898
  312MOL0     H41155   8.305   9.363   5.343  2.3542  4.5924 -0.8487
  312MOL0     H41156   8.307   9.423   5.623 -0.8731  0.5120 -0.0314
  312MOL0     H41157   8.278   9.250   5.567 -1.1049  0.4187 -1.4221
  312MOL0     H41158   8.513   9.424   5.457  1.7807  0.2823 -0.5085
  312MOL0     H41159   8.497   9.261   5.435 -2.1503 -0.1327 -0.2310
  312MOL0     H41160   8.504   9.248   5.701  0.0094  1.7635  0.6159
  312MOL0     H41161   8.595   9.386   5.684 -1.3897 -0.5923  1.7821
  312MOL0     H41162   8.648   9.104   5.573  1.9372 -1.2458  2.0484
  312MOL0     H41163   8.707   9.233   5.475  4.1265  0.5195  0.9834
  312MOL0     H41164   8.769   9.211   5.773 -2.6326  1.0106 -0.9038
  312MOL0     H41165   8.853   9.314   5.657  4.2884 -1.7314 -0.0417
  312MOL0     H41166   7.672   9.330   5.310  0.1711  2.6020 -0.1062
  312MOL0     H41167   7.513   9.311   5.113  1.1177 -0.5950  4.8666
  312MOL0     H41168   7.494   9.312   4.635 -0.0810 -0.9749  1.1560
  312MOL0     H41169   7.322   9.176   4.508 -1.4800 -4.6274  0.9753
  312MOL0     H41170   6.191   9.346   3.207 -3.4946 -4.3835 -2.3917
  312MOL0     H41171   6.072   9.267   3.001  1.5579  0.2475  0.8386
  312MOL0     H41172   5.976   9.306   2.546  0.2129 -1.1476 -1.4647
  312MOL0     H41173   5.870   9.181   2.383  1.5505  1.3537  1.2959
  312MOL0     H41174   5.573   8.949   2.290 -1.6368  2.5902 -0.4698
  312MOL0     H41175   5.741   8.979   2.350  1.0109 -0.9983 -2.4753
  312MOL0     H41176   5.608   9.132   2.122  0.0671 -0.6694  0.0088
  312MOL0     H41177   5.784   9.146   2.185  4.4241 -4.7322 -0.4792
  312MOL0     H41178   5.756   8.873   2.123  0.0694 -0.4682  0.7225
  312MOL0     H41179   5.872   8.999   2.073 -0.1698  1.2501 -0.9216
  312MOL0     H41180   5.603   8.973   1.948  0.1817  1.0929  2.2243
  312MOL0     H41181   5.737   9.067   1.883  0.2395  0.5969  0.3405
  312MOL0     H41182   5.832   8.688   1.731 -0.9545 -0.0029 -1.2098
  312MOL0     H41183   5.489   9.251   2.586 -0.5552  0.0111 -0.4579
  312MOL0     H41184   5.600   9.389   2.738 -1.4176 -1.3498  0.6020
  313MOL0     O41185   1.363   6.198   8.974 -0.3822  1.1343  0.1761
  313MOL0     C41186   1.286   6.126   9.045  0.1213 -0.3424 -0.1166
  313MOL0     O41187   1.231   6.006   9.011 -0.2619 -0.9505 -0.2284
  313MOL0     C41188   1.248   5.932   8.900 -0.1003  0.5031  1.2398
  313MOL0     C41189   1.352   5.942   8.821 -0.5942 -0.4151  0.8189
  313MOL0     C41190   1.355   5.862   8.705 -0.8222 -0.6023  0.6036
  313MOL0     C41191   1.271   5.761   8.667  0.1911 -0.5026 -1.1101
  313MOL0     O41192   1.275   5.711   8.542 -0.2831 -0.0368  0.0277
  313MOL0     C41193   1.167   5.624   8.500 -0.8525 -0.6867 -0.5097
  313MOL0     C41194   1.183   5.581   8.352  0.2874  0.1869  0.3508
  313MOL0     C41195   1.324   5.532   8.315  0.3537  0.6378 -0.4186
  313MOL0     C41196   1.321   5.487   8.163 -0.4787 -0.1943  0.3243
  313MOL0     C41197   1.189   5.415   8.113  0.8893 -0.2701  0.7859
  313MOL0     C41198   1.211   5.355   7.970  0.4376  0.0062 -0.0385
  313MOL0     C41199   1.088   5.263   7.930 -0.4334  0.0483  0.0587
  313MOL0     C41200   0.960   5.347   7.928 -0.8037 -0.9401  0.1599
  313MOL0     N41201   0.868   5.303   7.815 -0.3304  0.4687 -0.3199
  313MOL0     C41202   0.831   5.165   7.797 -0.4030 -0.2537  0.5461
  313MOL0     C41203   0.733   5.161   7.705  0.3989  0.4976  0.2142
  313MOL0     C41204   0.692   5.033   7.639 -0.1157  0.4371 -0.5771
  313MOL0     C41205   0.647   5.067   7.490 -0.1492 -0.3769  0.5781
  313MOL0     C41206   0.593   4.946   7.407  0.3693 -1.3571  0.0265
  313MOL0     C41207   0.465   4.875   7.462 -0.1083  0.4053 -0.0641
  313MOL0     O41208   0.341   4.949   7.443  0.5020 -1.0752  0.0465
  313MOL0     C41209   0.211   4.904   7.450  0.4307 -0.0707 -0.2648
  313MOL0     C41210   0.118   5.004   7.468 -0.4859 -0.0359 -0.0018
  313MOL0     C41211  -0.016   4.968   7.471  0.5377  0.4882 -0.6203
  313MOL0     C41212  -0.055   4.844   7.443  0.3675 -0.4532  1.1200
  313MOL0     C41213  -0.195   4.792   7.443 -0.1259 -0.3639  0.1213
  313MOL0     O41214  -0.288   4.880   7.415 -0.5179  0.3372 -1.0155
  313MOL0     C41215  -0.418   4.838   7.430 -0.7351  0.0685  0.6014
  313MOL0     C41216  -0.493   4.783   7.331  0.0186  0.1041  0.8195
  313MOL0     C41217  -0.621   4.727   7.346  0.1665  1.2729 -0.3233
  313MOL0     C41218  -0.691   4.741   7.470 -0.7396  0.1040  1.1514
  313MOL0     O41219  -0.819   4.708   7.488 -0.8572  0.2485  0.8050
  313MOL0     C41220  -0.842   4.570   7.435  0.6882  1.0957  0.1155
  313MOL0     C41221  -0.988   4.535   7.466 -0.7199 -0.4992 -0.8241
  313MOL0     C41222  -1.030   4.395   7.423 -0.1507  0.2044 -0.6548
  313MOL0     C41223  -1.152   4.330   7.497 -0.3866  0.7234  0.5220
  313MOL0     C41224  -1.285   4.368   7.436  0.5192  0.1784  0.3013
  313MOL0     C41225  -1.417   4.289   7.481 -0.5632  0.5785 -0.5010
  313MOL0     C41226  -1.529   4.382   7.502 -0.3077  0.4722  0.0457
  313MOL0     C41227  -1.584   4.405   7.638  0.3930  0.1543 -0.9679
  313MOL0    Cl41228  -1.563   4.263   7.747  0.2548  0.0842  0.0483
  313MOL0     C41229  -0.621   4.805   7.573 -0.5461 -0.2525  0.1868
  313MOL0     C41230  -0.487   4.852   7.567 -0.2845  0.2459  1.5835
  313MOL0     O41231  -0.223   4.680   7.474 -0.3780  0.8536  0.0407
  313MOL0     C41232   0.047   4.741   7.437  0.8713  0.7505 -0.5118
  313MOL0     C41233   0.179   4.770   7.447  1.0863 -0.5316  0.6378
  313MOL0     N41234   0.700   5.296   7.687 -0.7050 -0.4444 -0.4859
  313MOL0     N41235   0.781   5.373   7.752 -1.1287 -0.0792  0.7453
  313MOL0     C41236   1.156   5.753   8.760  0.1609  0.5217 -0.6524
  313MOL0     C41237   1.151   5.837   8.872  0.1655 -0.3469  0.8650
  313MOL0     C41238   1.244   6.194   9.178  0.7230  0.5206 -0.4347
  313MOL0     C41239   1.343   6.253   9.249  0.1553  0.8752 -0.3828
  313MOL0     C41240   1.318   6.309   9.378  0.1532  0.1626  0.7708
  313MOL0     C41241   1.184   6.296   9.437 -0.0263 -0.7234  1.3909
  313MOL0     O41242   1.142   6.352   9.551  0.8064 -0.3261 -0.4548
  313MOL0     C41243   1.240   6.376   9.654  0.1550 -0.5733  0.5943
  313MOL0     C41244   1.242   6.529   9.696 -0.2064  0.1217  0.5696
  313MOL0     C41245   1.346   6.607   9.626 -0.2218 -0.7621 -0.0928
  313MOL0     C41246   1.343   6.745   9.678 -0.3955  0.7641 -0.6125
  313MOL0     C41247   1.461   6.815   9.623 -0.1635 -0.6489  0.2555
  313MOL0     C41248   1.560   6.879   9.601  0.1886 -0.0643  0.5130
  313MOL0     C41249   1.078   6.236   9.355  0.8348 -0.4992  0.6399
  313MOL0     C41250   1.108   6.186   9.230  0.5466  0.3197  0.7156
  313MOL0     H41251   1.433   6.012   8.837 -0.7796 -0.4160  1.8382
  313MOL0     H41252   1.433   5.879   8.632 -1.6225  5.1485  0.6532
  313MOL0     H41253   1.069   5.669   8.519 -0.5293  1.7116 -3.7258
  313MOL0     H41254   1.166   5.529   8.554 -0.9823 -1.2956 -1.5535
  313MOL0     H41255   1.146   5.662   8.288 -1.5912  0.0944  1.2573
  313MOL0     H41256   1.115   5.497   8.335 -1.0411  1.4678 -0.9967
  313MOL0     H41257   1.328   5.439   8.372 -2.1633  1.1310  0.6871
  313MOL0     H41258   1.399   5.610   8.334 -0.0042  0.9411 -0.2470
  313MOL0     H41259   1.338   5.574   8.099  0.5162  0.9129  1.9800
  313MOL0     H41260   1.406   5.419   8.146 -0.6939  0.0950 -2.2579
  313MOL0     H41261   1.100   5.478   8.102 -1.4558 -3.6360 -1.4047
  313MOL0     H41262   1.151   5.337   8.179 -1.3562 -0.5724 -0.7663
  313MOL0     H41263   1.302   5.295   7.959  2.9873  3.8638 -2.4797
  313MOL0     H41264   1.221   5.434   7.895 -1.3082  0.5365  0.2292
  313MOL0     H41265   1.108   5.206   7.839 -0.7220  1.0390 -0.6403
  313MOL0     H41266   1.077   5.189   8.010 -0.8833 -2.1278 -1.9112
  313MOL0     H41267   0.973   5.454   7.907  1.6338 -1.8025 -3.6457
  313MOL0     H41268   0.911   5.328   8.024 -2.3508 -3.6578 -1.0525
  313MOL0     H41269   0.873   5.076   7.841 -0.8579  0.1996  1.9723
  313MOL0     H41270   0.630   4.973   7.706  0.7323  0.0969 -0.0864
  313MOL0     H41271   0.781   4.971   7.628 -1.2462 -1.0935 -1.5730
  313MOL0     H41272   0.727   5.110   7.429  0.2005 -1.0779  0.5391
  313MOL0     H41273   0.567   5.138   7.515 -0.8947 -0.9370 -0.1480
  313MOL0     H41274   0.567   4.987   7.310 -0.9264 -0.9432  0.5337
  313MOL0     H41275   0.670   4.871   7.386  0.5419 -1.2236  0.1761
  313MOL0     H41276   0.484   4.872   7.570 -1.9941  1.8249  0.3440
  313MOL0     H41277   0.457   4.773   7.421 -1.5559 -0.0138  1.1638
  313MOL0     H41278   0.150   5.105   7.491  0.4757 -0.7270  1.8761
  313MOL0     H41279  -0.093   5.037   7.501 -1.6534 -2.2870  0.6064
  313MOL0     H41280  -0.455   4.784   7.229 -2.9234 -0.7116 -0.3697
  313MOL0     H41281  -0.670   4.678   7.263  2.1291  0.3492 -0.9886
  313MOL0     H41282  -0.775   4.496   7.480  0.1874 -0.5500 -1.7404
  313MOL0     H41283  -0.835   4.564   7.326  1.4376  0.4582  0.1938
  313MOL0     H41284  -1.052   4.607   7.415 -0.2392  1.0417  0.6607
  313MOL0     H41285  -1.012   4.543   7.573  2.8280 -2.7977  0.3352
  313MOL0     H41286  -0.948   4.336   7.465 -1.6584  0.0905  2.4177
  313MOL0     H41287  -1.044   4.379   7.316 -0.7953 -4.8032 -0.0716
  313MOL0     H41288  -1.139   4.222   7.490 -0.3304  0.6680  1.3875
  313MOL0     H41289  -1.155   4.350   7.604 -2.2449 -2.7563  1.2621
  313MOL0     H41290  -1.284   4.383   7.327 -1.2558  1.7891  0.4544
  313MOL0     H41291  -1.298   4.474   7.458 -0.1364  0.6561 -2.0757
  313MOL0     H41292  -1.398   4.221   7.565 -2.2603  1.6478  0.8208
  313MOL0     H41293  -1.451   4.228   7.397 -0.0688  0.6558 -0.7572
  313MOL0     H41294  -1.502   4.476   7.453  0.0654  0.3049 -0.0713
  313MOL0     H41295  -1.618   4.344   7.451 -0.6361  1.9209 -0.4962
  313MOL0     H41296  -1.689   4.436   7.631  0.1919 -0.0336  0.7841
  313MOL0     H41297  -1.522   4.477   7.691  0.4898  1.4409 -2.7507
  313MOL0     H41298  -0.674   4.811   7.668 -1.9214  2.2168 -0.6421
  313MOL0     H41299  -0.449   4.901   7.655 -0.7062 -0.4372  2.1564
  313MOL0     H41300   0.024   4.636   7.429 -1.5053  1.2369 -0.6688
  313MOL0     H41301   0.252   4.690   7.445  0.0150 -1.5320 -2.1334
  313MOL0     H41302   1.093   5.666   8.746 -1.4018  1.7135 -1.2838
  313MOL0     H41303   1.075   5.814   8.946 -0.2915  0.3897  0.6381
  313MOL0     H41304   1.447   6.267   9.222  1.1674 -1.5821  1.7833
  313MOL0     H41305   1.392   6.359   9.440 -0.3891  0.5368  1.1250
  313MOL0     H41306   1.341   6.340   9.629  1.2647  2.9518 -0.6749
  313MOL0     H41307   1.210   6.330   9.748  1.8700 -0.0147  1.4707
  313MOL0     H41308   1.145   6.568   9.665  1.5663  3.7604 -0.9311
  313MOL0     H41309   1.259   6.535   9.804  0.4818  1.7403  0.3934
  313MOL0     H41310   1.344   6.604   9.517  2.8014  0.1248 -0.2406
  313MOL0     H41311   1.441   6.558   9.649 -0.4250  0.0879  2.9469
  313MOL0     H41312   1.244   6.782   9.650 -2.8201 -2.5448  2.5457
  313MOL0     H41313   1.340   6.737   9.787  0.3015 -2.3532 -0.7437
  313MOL0     H41314   1.657   6.923   9.589  0.4928 -0.0999  2.5491
  313MOL0     H41315   0.985   6.223   9.411  0.0514  4.2425  0.8900
  313MOL0     H41316   1.038   6.130   9.170  2.5448  0.3572 -1.8468
  314MOL0     O41317   8.781   1.373   9.218  1.3107  0.2001 -0.0495
  314MOL0     C41318   8.697   1.308   9.159 -0.7915 -0.5923  0.4230
  314MOL0     O41319   8.720   1.187   9.092  0.2009 -0.5656  0.1642
  314MOL0     C41320   8.842   1.122   9.095 -0.7588 -0.0916  0.6368
  314MOL0     C41321   8.845   0.984   9.092  0.4275  0.6797 -0.1309
  314MOL0     C41322   8.961   0.905   9.084 -0.0152 -0.6543 -0.0126
  314MOL0     C41323   9.077   0.972   9.110 -0.7580  0.1379 -0.5454
  314MOL0     O41324   9.197   0.894   9.108  1.1392  0.0244  0.2989
  314MOL0     C41325   9.315   0.938   9.171  0.2816 -0.2283 -0.4026
  314MOL0     C41326   9.413   0.822   9.210  0.4833 -0.4525 -1.6096
  314MOL0     C41327   9.530   0.860   9.286 -0.0579 -0.1810 -1.3129
  314MOL0     C41328   9.509   0.859   9.437 -0.7971 -0.7850 -0.3744
  314MOL0     C41329   9.656   0.883   9.505 -0.5611 -0.7792 -0.4338
  314MOL0     C41330   9.645   0.938   9.649 -0.3039  0.3580 -0.7770
  314MOL0     C41331   9.765   0.923   9.738 -0.3226  0.9513 -0.0769
  314MOL0     C41332   9.894   0.993   9.685 -0.2542 -0.7353  0.2270
  314MOL0     N41333   9.864   1.137   9.675 -0.0202  1.0424  0.3026
  314MOL0     C41334   9.864   1.228   9.784 -0.2572 -0.3156  0.1798
  314MOL0     C41335   9.826   1.352   9.733  0.4309 -0.9392 -1.1995
  314MOL0     C41336   9.802   1.481   9.814 -0.4235 -0.6061  0.8608
  314MOL0     C41337   9.934   1.553   9.837  0.0096 -0.7507  0.5140
  314MOL0     C41338   9.976   1.621   9.706  0.1399 -0.8722 -0.8637
  314MOL0     C41339  10.102   1.711   9.720 -0.2152  0.5291  0.3810
  314MOL0     O41340  10.092   1.814   9.821 -0.1410  0.5708  1.3332
  314MOL0     C41341  10.221   1.873   9.854 -0.5542 -0.7306  0.9786
  314MOL0     C41342  10.303   1.930   9.753 -0.0954 -0.0918  0.3784
  314MOL0     C41343  10.438   1.970   9.763  0.2932  1.1137 -0.8521
  314MOL0     C41344  10.494   1.947   9.891 -0.3236 -0.1205  0.0255
  314MOL0     C41345  10.638   1.967   9.908 -0.3205 -0.8199  0.0759
  314MOL0     O41346  10.677   1.982  10.042  0.8308  0.6675 -0.3112
  314MOL0     C41347  10.813   2.007  10.070  0.2202 -0.8631 -0.2151
  314MOL0     C41348  10.883   1.895  10.125  0.5672 -0.2172  0.4082
  314MOL0     C41349  11.011   1.908  10.173  0.1665  0.7022 -0.2025
  314MOL0     C41350  11.070   2.031  10.187 -0.7462 -0.5145  0.6433
  314MOL0     O41351  11.186   2.037  10.261  0.4358  0.4058 -0.0778
  314MOL0     C41352  11.266   2.147  10.266 -0.3593  1.2764  0.0797
  314MOL0     C41353  11.228   2.235  10.382  0.0805 -0.0824  0.1458
  314MOL0     C41354  11.308   2.213  10.514 -0.3367 -1.4266  0.0647
  314MOL0     C41355  11.450   2.270  10.505 -0.5477  0.0696 -0.1346
  314MOL0     C41356  11.516   2.269  10.639 -0.6976 -0.1371  0.1586
  314MOL0     C41357  11.625   2.370  10.642 -0.4237 -0.1061  0.2079
  314MOL0     C41358  11.711   2.349  10.760 -0.6145  0.2421  0.7181
  314MOL0     C41359  11.814   2.243  10.734  0.4609 -0.2449  0.0846
  314MOL0    Cl41360  11.950   2.284  10.850  0.3215 -0.3752 -0.0247
  314MOL0     C41361  10.998   2.147  10.144 -0.3874 -0.7134  0.2720
  314MOL0     C41362  10.873   2.135  10.086  0.5169  0.0041  0.0566
  314MOL0     O41363  10.714   1.972   9.808  0.0745  0.0448  0.5128
  314MOL0     C41364  10.424   1.893   9.997  0.2747 -0.5296  0.1266
  314MOL0     C41365  10.283   1.871   9.977  0.3629 -0.2581  0.6430
  314MOL0     N41366   9.809   1.337   9.592  0.3366 -0.5332 -0.9707
  314MOL0     N41367   9.837   1.212   9.560 -0.0665 -0.2832 -0.5050
  314MOL0     C41368   9.079   1.115   9.127 -0.6364  0.0105 -0.8080
  314MOL0     C41369   8.966   1.183   9.115 -0.1273 -0.8556 -0.1748
  314MOL0     C41370   8.567   1.365   9.133  0.0615  0.1895  0.6139
  314MOL0     C41371   8.527   1.483   9.193 -0.5924  0.4048 -0.5667
  314MOL0     C41372   8.393   1.530   9.177 -0.2778 -0.9074 -0.6544
  314MOL0     C41373   8.306   1.461   9.102  0.8779 -0.1830  0.7671
  314MOL0     O41374   8.187   1.526   9.098  0.4093  0.0426 -0.0124
  314MOL0     C41375   8.068   1.466   9.031  0.1191 -0.1542  0.4386
  314MOL0     C41376   7.931   1.550   9.034 -0.0885 -0.7153 -0.0758
  314MOL0     C41377   7.951   1.692   8.986  0.7501  0.1371 -0.0926
  314MOL0     C41378   7.866   1.798   9.056  0.2101  1.0288  0.4573
  314MOL0     C41379   7.723   1.764   9.046  0.8144 -0.3233 -0.0289
  314MOL0     C41380   7.606   1.730   9.038 -0.4946  0.5594 -0.5862
  314MOL0     C41381   8.342   1.351   9.030  0.1193  1.3563 -0.7224
  314MOL0     C41382   8.476   1.299   9.055  1.4204  0.6854  0.1095
  314MOL0     H41383   8.753   0.932   9.069 -1.2164  0.5398  5.4171
  314MOL0     H41384   8.950   0.799   9.064 -1.2158 -0.5708  0.0960
  314MOL0     H41385   9.289   1.000   9.257 -0.3643  0.2575 -0.9291
  314MOL0     H41386   9.360   1.010   9.102 -0.4871 -0.3742 -1.0783
  314MOL0     H41387   9.454   0.772   9.122 -2.8322 -0.8483 -3.0805
  314MOL0     H41388   9.358   0.743   9.263  1.6860 -0.1821  0.1193
  314MOL0     H41389   9.585   0.947   9.248 -0.3236 -0.0962 -1.5022
  314MOL0     H41390   9.598   0.776   9.266 -0.4509 -1.3340  1.7293
  314MOL0     H41391   9.433   0.934   9.461 -0.4693 -0.3535 -0.6513
  314MOL0     H41392   9.466   0.760   9.452 -0.7379 -1.1052 -2.0732
  314MOL0     H41393   9.724   0.943   9.444  1.7001 -1.9849  0.7910
  314MOL0     H41394   9.706   0.786   9.500  0.6115 -0.3987  2.1039
  314MOL0     H41395   9.568   0.876   9.696  2.8010 -3.3736 -0.0622
  314MOL0     H41396   9.609   1.041   9.651 -0.8341  0.1603  0.5922
  314MOL0     H41397   9.743   0.952   9.841 -0.8174  0.2085  0.0339
  314MOL0     H41398   9.790   0.817   9.740  1.1508  1.2672 -0.5236
  314MOL0     H41399   9.925   0.964   9.584 -0.2506  0.7087 -0.2082
  314MOL0     H41400   9.981   0.981   9.751 -0.7849  1.1496  1.3562
  314MOL0     H41401   9.896   1.220   9.887  1.2943  0.3120 -0.2206
  314MOL0     H41402   9.758   1.457   9.911  0.1621  0.9734  1.5474
  314MOL0     H41403   9.734   1.546   9.758  0.5202  1.0653  1.5709
  314MOL0     H41404  10.016   1.489   9.871  0.6563  0.7464  1.9201
  314MOL0     H41405   9.923   1.633   9.911 -1.3697 -0.5383  0.1034
  314MOL0     H41406   9.975   1.561   9.615  0.8426 -1.6595 -0.3700
  314MOL0     H41407   9.898   1.694   9.683 -1.1728 -1.8224  0.4670
  314MOL0     H41408  10.118   1.766   9.626 -1.0052  1.0563  0.5372
  314MOL0     H41409  10.186   1.643   9.731  0.5020  0.8836 -2.1141
  314MOL0     H41410  10.256   1.948   9.657 -0.7136  1.9591  1.0104
  314MOL0     H41411  10.499   1.990   9.675  2.5071 -0.6280  0.2130
  314MOL0     H41412  10.832   1.799  10.129 -3.2127  1.4789 -1.8392
  314MOL0     H41413  11.066   1.827  10.220  0.4846  1.0601  0.0352
  314MOL0     H41414  11.283   2.192  10.167  2.3129 -0.8523 -0.5582
  314MOL0     H41415  11.366   2.107  10.287 -0.9857 -0.7099 -0.5025
  314MOL0     H41416  11.125   2.207  10.406 -0.3670  0.5867 -0.9673
  314MOL0     H41417  11.223   2.341  10.359  4.2506  0.5335  1.2467
  314MOL0     H41418  11.304   2.108  10.545 -0.4316 -1.0005  1.5892
  314MOL0     H41419  11.258   2.270  10.593  3.2517  0.4571  1.1757
  314MOL0     H41420  11.501   2.222  10.421 -1.5729 -0.0448 -0.7016
  314MOL0     H41421  11.438   2.373  10.469 -0.1155  1.8861  4.2261
  314MOL0     H41422  11.568   2.174  10.659  1.0249  0.0861 -2.7778
  314MOL0     H41423  11.442   2.293  10.716  0.8379  0.7061  1.4514
  314MOL0     H41424  11.581   2.469  10.657 -1.1406 -0.1096 -1.5790
  314MOL0     H41425  11.690   2.384  10.555  2.6783 -0.8068  2.2644
  314MOL0     H41426  11.770   2.441  10.762 -0.3900  0.1094  0.4018
  314MOL0     H41427  11.656   2.329  10.852 -0.3115  2.1046  1.3473
  314MOL0     H41428  11.856   2.246  10.633  2.0659  3.0442  0.7166
  314MOL0     H41429  11.775   2.143  10.755  2.0500 -1.3048 -1.6941
  314MOL0     H41430  11.035   2.249  10.156  0.0235 -0.4245 -2.7538
  314MOL0     H41431  10.815   2.222  10.058 -0.7342 -0.4680  1.0798
  314MOL0     H41432  10.477   1.869  10.088 -1.7296 -0.6095  1.3401
  314MOL0     H41433  10.236   1.825  10.063 -1.4682  3.4723  1.8516
  314MOL0     H41434   9.170   1.172   9.139 -0.1736 -0.8550 -0.1376
  314MOL0     H41435   8.975   1.291   9.106  0.1994 -0.8372  0.3250
  314MOL0     H41436   8.596   1.541   9.252 -1.1438  0.4107  0.0868
  314MOL0     H41437   8.389   1.617   9.241  1.0322  0.2689 -2.1092
  314MOL0     H41438   8.047   1.378   9.093 -0.1122 -0.8237 -0.5778
  314MOL0     H41439   8.083   1.430   8.929 -1.3484  0.6488 -0.0729
  314MOL0     H41440   7.851   1.493   8.985  2.5533 -3.0729 -1.9700
  314MOL0     H41441   7.898   1.535   9.137 -1.5145 -2.8926 -0.7789
  314MOL0     H41442   7.912   1.695   8.884  0.2557 -2.1684 -0.0127
  314MOL0     H41443   8.059   1.714   8.988  1.6574 -3.4044 -2.4422
  314MOL0     H41444   7.904   1.803   9.159  1.1746 -1.3444  0.2750
  314MOL0     H41445   7.889   1.889   9.000  0.4511 -0.6465 -2.3735
  314MOL0     H41446   7.507   1.697   9.013 -1.3874  2.7995 -0.2757
  314MOL0     H41447   8.268   1.310   8.963 -0.1111  1.0865 -0.3119
  314MOL0     H41448   8.504   1.207   9.004  0.7984 -0.0234  1.0112
  315MOL0     O41449   8.708   3.077   1.390 -0.0538  0.2305 -0.4435
  315MOL0     C41450   8.659   3.158   1.472 -0.6981  0.7839 -0.3859
  315MOL0     O41451   8.730   3.231   1.563 -0.3151  0.0749  0.1781
  315MOL0     C41452   8.867   3.209   1.569  1.3012 -0.2031  0.3594
  315MOL0     C41453   8.917   3.202   1.698 -0.2396 -0.1298  0.1110
  315MOL0     C41454   9.053   3.197   1.722 -0.8719  0.8152 -1.0578
  315MOL0     C41455   9.141   3.189   1.617 -0.2913  0.4319  0.0808
  315MOL0     O41456   9.272   3.174   1.664  1.1238 -0.1782 -0.4132
  315MOL0     C41457   9.373   3.257   1.595  0.7329  0.9546  0.4209
  315MOL0     C41458   9.503   3.235   1.667  0.2975  0.0638  0.6517
  315MOL0     C41459   9.510   3.240   1.825 -0.1108  0.4407  0.0495
  315MOL0     C41460   9.463   3.373   1.900  0.8954  0.2393  0.1779
  315MOL0     C41461   9.572   3.427   1.988 -0.4904 -0.4064 -1.0168
  315MOL0     C41462   9.668   3.517   1.900  0.1338  0.5037 -0.8660
  315MOL0     C41463   9.808   3.516   1.972  0.2152  0.8635  0.2530
  315MOL0     C41464   9.918   3.498   1.858  0.1241 -0.6957 -0.0332
  315MOL0     N41465  10.048   3.490   1.915 -1.1036 -0.4025 -0.9150
  315MOL0     C41466  10.103   3.547   2.028 -1.2484  0.4722  0.1343
  315MOL0     C41467  10.238   3.520   2.012  0.3492 -0.4806 -0.4180
  315MOL0     C41468  10.356   3.547   2.102  0.2159  0.8714 -0.5385
  315MOL0     C41469  10.424   3.687   2.071 -0.2165 -0.1651 -0.5600
  315MOL0     C41470  10.475   3.710   1.931  0.2565  0.2372 -0.3956
  315MOL0     C41471  10.568   3.599   1.884  0.1364 -0.5935  0.5242
  315MOL0     O41472  10.702   3.609   1.941 -0.0145  1.3023 -0.4598
  315MOL0     C41473  10.802   3.517   1.909  0.0980 -0.6526 -0.6546
  315MOL0     C41474  10.796   3.407   1.828  0.1185 -0.9035 -1.2027
  315MOL0     C41475  10.913   3.342   1.784  0.1066 -0.3394  0.1785
  315MOL0     C41476  11.044   3.381   1.832  0.6146  0.8679  0.5871
  315MOL0     C41477  11.173   3.320   1.789  0.6475 -0.3381 -0.3981
  315MOL0     O41478  11.287   3.380   1.828 -0.7763 -0.0385 -0.4172
  315MOL0     C41479  11.396   3.295   1.820  0.5606  0.6490 -0.7240
  315MOL0     C41480  11.454   3.257   1.701 -0.2894 -0.1466 -0.4741
  315MOL0     C41481  11.584   3.194   1.705  0.2342 -0.6827 -0.5980
  315MOL0     C41482  11.637   3.150   1.831  0.1277 -1.0470 -0.1062
  315MOL0     O41483  11.746   3.072   1.821 -0.1610  0.9820 -0.2643
  315MOL0     C41484  11.817   3.030   1.941 -0.1145 -0.1695 -0.1925
  315MOL0     C41485  11.963   3.003   1.898 -0.3436 -0.7400 -0.8913
  315MOL0     C41486  12.050   3.128   1.879  0.5251 -0.3170  0.3727
  315MOL0     C41487  12.061   3.221   2.003 -0.3362  0.8381 -0.5686
  315MOL0     C41488  12.155   3.340   1.991 -0.3871 -0.1035  0.4316
  315MOL0     C41489  12.126   3.440   1.874  0.3790 -0.5467  0.2149
  315MOL0     C41490  12.094   3.595   1.900  0.0905  0.0258  0.1916
  315MOL0     C41491  12.193   3.676   1.988  1.0578  0.7108  0.1262
  315MOL0    Cl41492  12.359   3.672   1.913 -0.0329 -0.1784 -0.0879
  315MOL0     C41493  11.562   3.181   1.942 -0.1828  0.7506 -0.7746
  315MOL0     C41494  11.451   3.254   1.941 -0.0896 -0.5443  0.3945
  315MOL0     O41495  11.166   3.224   1.711 -0.1583  0.2064 -0.5142
  315MOL0     C41496  11.047   3.489   1.921  0.4560 -0.7426  0.3911
  315MOL0     C41497  10.926   3.555   1.949  0.4492 -0.4047  0.2394
  315MOL0     N41498  10.262   3.442   1.906  0.3890  0.6216  0.3761
  315MOL0     N41499  10.146   3.429   1.854 -0.6244 -0.0133  0.5212
  315MOL0     C41500   9.096   3.181   1.484 -0.6413 -0.8603  0.5442
  315MOL0     C41501   8.954   3.189   1.462 -0.4983 -0.8047 -0.2840
  315MOL0     C41502   8.506   3.150   1.480  0.6300 -0.6460 -0.1145
  315MOL0     C41503   8.447   3.254   1.558 -0.8110  0.8132  0.2624
  315MOL0     C41504   8.304   3.244   1.575 -0.3326  0.1748  0.4318
  315MOL0     C41505   8.220   3.147   1.520 -0.0645 -0.5304  0.1042
  315MOL0     O41506   8.082   3.156   1.549 -0.3638 -0.5500 -0.1133
  315MOL0     C41507   7.992   3.062   1.491 -0.2110  0.4131 -0.1760
  315MOL0     C41508   7.862   3.129   1.454 -0.6195  0.2607  0.6739
  315MOL0     C41509   7.786   3.037   1.360  0.0121  0.2275  1.3241
  315MOL0     C41510   7.701   2.907   1.418 -0.6103 -1.0568 -0.6261
  315MOL0     C41511   7.575   2.952   1.480 -1.0863 -0.4913  0.5550
  315MOL0     C41512   7.471   3.011   1.509 -0.1110 -0.7880 -0.2149
  315MOL0     C41513   8.289   3.048   1.451 -0.0524 -0.2356  0.0916
  315MOL0     C41514   8.426   3.049   1.417 -0.5921 -0.3467 -0.3944
  315MOL0     H41515   8.854   3.212   1.785  0.9024 -0.7750  1.0409
  315MOL0     H41516   9.093   3.212   1.822 -1.3848  3.7099 -1.2033
  315MOL0     H41517   9.337   3.360   1.601  0.4391  0.7909  4.3833
  315MOL0     H41518   9.388   3.221   1.493 -0.3016 -1.6349  1.0942
  315MOL0     H41519   9.572   3.308   1.624  0.6596 -0.8977 -0.4746
  315MOL0     H41520   9.543   3.140   1.630 -2.7780 -1.9411  2.0546
  315MOL0     H41521   9.614   3.229   1.856 -1.0877 -2.9717  2.6766
  315MOL0     H41522   9.462   3.157   1.876 -0.6439  0.4494 -0.4310
  315MOL0     H41523   9.424   3.449   1.833  0.7147  0.4225  0.4903
  315MOL0     H41524   9.380   3.343   1.965  2.6753 -0.5374  2.2134
  315MOL0     H41525   9.623   3.347   2.042 -2.7987 -1.4436 -0.2778
  315MOL0     H41526   9.542   3.492   2.070  0.8924 -1.3559  0.2850
  315MOL0     H41527   9.633   3.621   1.900  3.0232  1.6675  2.0433
  315MOL0     H41528   9.678   3.467   1.804  1.9408  1.9368 -1.4888
  315MOL0     H41529   9.817   3.606   2.034 -0.8505  1.9013 -1.0582
  315MOL0     H41530   9.806   3.430   2.041 -1.4451 -1.0854 -2.0804
  315MOL0     H41531   9.913   3.588   1.796 -2.5936  0.2575  1.4357
  315MOL0     H41532   9.893   3.421   1.785 -0.5023 -1.3149  0.8144
  315MOL0     H41533  10.063   3.621   2.097  5.3739  4.6596  0.3368
  315MOL0     H41534  10.421   3.460   2.117 -0.5533  0.7676  3.4225
  315MOL0     H41535  10.326   3.557   2.207 -0.1951 -1.6170 -0.3491
  315MOL0     H41536  10.497   3.695   2.152 -0.4131 -0.6532 -0.3296
  315MOL0     H41537  10.347   3.761   2.094 -1.7710 -0.9979 -2.7506
  315MOL0     H41538  10.390   3.709   1.861 -0.6050  1.2047  0.6015
  315MOL0     H41539  10.529   3.805   1.931  3.4736 -1.4046 -2.8118
  315MOL0     H41540  10.578   3.623   1.778  3.3992 -0.8365  0.6984
  315MOL0     H41541  10.532   3.496   1.896  1.9670 -1.6619 -2.3288
  315MOL0     H41542  10.706   3.376   1.775 -0.1711 -1.0731 -0.6195
  315MOL0     H41543  10.909   3.252   1.723 -1.0202 -2.3758  3.0323
  315MOL0     H41544  11.408   3.303   1.614 -0.8088 -1.1948 -0.7659
  315MOL0     H41545  11.634   3.174   1.611  0.0232 -0.4655 -0.7572
  315MOL0     H41546  11.772   2.937   1.979  0.4343 -1.3445 -2.2422
  315MOL0     H41547  11.814   3.101   2.024 -2.7397 -2.1749  1.6247
  315MOL0     H41548  11.960   2.973   1.793 -0.6333 -0.8767 -0.8433
  315MOL0     H41549  12.006   2.920   1.955 -0.8339 -0.1002  0.4773
  315MOL0     H41550  12.006   3.180   1.793  0.5850 -1.2129 -0.2150
  315MOL0     H41551  12.148   3.097   1.841  1.6874  0.8398  2.2520
  315MOL0     H41552  11.962   3.256   2.032 -0.5404  0.1704 -0.4444
  315MOL0     H41553  12.094   3.151   2.080 -2.4190 -0.6640 -0.9723
  315MOL0     H41554  12.254   3.294   1.978 -0.8286 -0.7592 -0.7576
  315MOL0     H41555  12.161   3.401   2.081  2.0251  0.9419 -0.3595
  315MOL0     H41556  12.044   3.405   1.811 -0.3268  1.6884 -0.1830
  315MOL0     H41557  12.209   3.438   1.803  2.5437  1.8666  2.4772
  315MOL0     H41558  12.079   3.639   1.800 -0.1865  0.9303  0.6150
  315MOL0     H41559  11.996   3.599   1.948 -0.5499 -0.0356 -1.0653
  315MOL0     H41560  12.189   3.621   2.082  0.6498 -0.2052 -0.4094
  315MOL0     H41561  12.157   3.776   2.015  0.3700 -0.1757  2.7616
  315MOL0     H41562  11.592   3.153   2.043 -2.5102  0.6413 -0.0661
  315MOL0     H41563  11.399   3.296   2.027 -0.0411  1.5548 -0.5352
  315MOL0     H41564  11.140   3.528   1.961  1.4830 -0.4195 -2.1569
  315MOL0     H41565  10.937   3.636   2.021 -0.1944 -0.7868  0.7818
  315MOL0     H41566   9.168   3.176   1.403  0.5102  1.1242  1.3656
  315MOL0     H41567   8.936   3.201   1.355  2.5939  2.4935 -0.6517
  315MOL0     H41568   8.504   3.329   1.612 -1.5900  0.1980  2.0070
  315MOL0     H41569   8.254   3.315   1.640  1.4285  4.1890 -2.2225
  315MOL0     H41570   7.967   2.978   1.557 -0.2407 -1.4959 -2.4958
  315MOL0     H41571   8.039   3.014   1.406  1.2009  0.6095  0.4672
  315MOL0     H41572   7.781   3.152   1.524 -0.8687  3.7274 -0.5475
  315MOL0     H41573   7.887   3.223   1.403 -0.7196 -0.0295  0.0809
  315MOL0     H41574   7.854   3.000   1.283 -1.8053 -0.3052 -0.1048
  315MOL0     H41575   7.714   3.096   1.303 -3.2518 -1.3570  3.5202
  315MOL0     H41576   7.682   2.829   1.344 -2.3750  0.1352 -1.5085
  315MOL0     H41577   7.774   2.875   1.493 -1.1232  3.0857  1.9978
  315MOL0     H41578   7.383   3.058   1.547  0.1015 -1.9661  1.9167
  315MOL0     H41579   8.240   2.952   1.440 -0.2619 -0.2676  1.1652
  315MOL0     H41580   8.470   2.975   1.352  4.0883  2.5160 -0.8956
  316MOL0     O41581  11.085   3.581   6.987 -0.3927 -0.2610 -0.4680
  316MOL0     C41582  11.198   3.527   6.981  0.6063  0.8788  0.4366
  316MOL0     O41583  11.300   3.559   6.893  0.2895  0.1576  0.7612
  316MOL0     C41584  11.269   3.654   6.794 -0.9826  0.1700  1.0372
  316MOL0     C41585  11.263   3.790   6.838  1.3327  0.9524 -0.3210
  316MOL0     C41586  11.225   3.887   6.746 -0.2683  0.2477 -0.6627
  316MOL0     C41587  11.197   3.864   6.616 -0.4040 -0.1675  0.2058
  316MOL0     O41588  11.147   3.974   6.549  0.8148  0.2108 -0.6319
  316MOL0     C41589  11.117   3.964   6.409  0.6580  0.6188  0.1950
  316MOL0     C41590  10.979   3.901   6.377  0.4495  0.5435 -0.1934
  316MOL0     C41591  10.852   3.983   6.399 -0.3795  0.8724 -0.9129
  316MOL0     C41592  10.847   4.024   6.548  0.4005  0.5403  0.2851
  316MOL0     C41593  10.720   4.103   6.576  0.4076 -0.0080 -0.3413
  316MOL0     C41594  10.601   4.017   6.552  1.0212  0.1944  0.5356
  316MOL0     C41595  10.473   4.079   6.610  0.5730  0.3151  0.8204
  316MOL0     C41596  10.378   4.137   6.506 -0.5885 -0.0559  1.4269
  316MOL0     N41597  10.412   4.273   6.467  0.0987 -0.4776  0.5610
  316MOL0     C41598  10.499   4.308   6.365  0.6068 -0.7503 -0.6168
  316MOL0     C41599  10.502   4.442   6.343  0.0996  0.4193  0.3206
  316MOL0     C41600  10.576   4.518   6.240  0.2774  0.1469  0.4416
  316MOL0     C41601  10.495   4.519   6.111  0.1252 -0.1659 -0.0542
  316MOL0     C41602  10.546   4.621   6.005 -1.0235  0.1829  0.0139
  316MOL0     C41603  10.553   4.762   6.055 -2.0555 -1.1189  0.1279
  316MOL0     O41604  10.503   4.859   5.953  0.1507  0.0235  0.0259
  316MOL0     C41605  10.592   4.960   5.921  0.2242 -0.0796 -0.2385
  316MOL0     C41606  10.668   4.935   5.813 -0.3379 -0.7435  0.0133
  316MOL0     C41607  10.757   5.033   5.762  0.8522 -0.2560  0.7842
  316MOL0     C41608  10.755   5.159   5.824 -0.7344  0.5464  0.5529
  316MOL0     C41609  10.835   5.265   5.768 -0.6151 -0.2169 -0.0404
  316MOL0     O41610  10.850   5.366   5.851 -0.2326 -0.2472 -0.2213
  316MOL0     C41611  10.927   5.478   5.843 -0.0493 -0.2444 -0.9500
  316MOL0     C41612  10.951   5.539   5.965  0.9149  0.0912  0.0190
  316MOL0     C41613  11.046   5.640   5.977 -0.0801 -1.4769 -0.9388
  316MOL0     C41614  11.122   5.685   5.871  0.7499 -0.6473  0.2840
  316MOL0     O41615  11.204   5.791   5.879  0.1933  0.3764  0.6244
  316MOL0     C41616  11.164   5.899   5.794  0.3391 -0.3023 -0.2319
  316MOL0     C41617  11.250   6.018   5.812 -0.2543 -0.1338 -0.6797
  316MOL0     C41618  11.202   6.143   5.725  1.2153  0.3987 -0.0441
  316MOL0     C41619  11.306   6.230   5.694  0.2639  0.8074 -0.9593
  316MOL0     C41620  11.265   6.359   5.626  0.1172 -0.6927 -0.0338
  316MOL0     C41621  11.333   6.370   5.485 -1.4480 -0.2948  0.4104
  316MOL0     C41622  11.495   6.394   5.500  0.4427  0.4001 -0.9483
  316MOL0     C41623  11.530   6.533   5.451  0.4712 -0.7706  0.6245
  316MOL0    Cl41624  11.542   6.538   5.269 -0.0199 -0.0311 -0.4735
  316MOL0     C41625  11.102   5.616   5.748  0.0728  0.4482 -0.5539
  316MOL0     C41626  10.992   5.526   5.730 -0.1878 -0.9160  0.4031
  316MOL0     O41627  10.898   5.244   5.662  0.0820  0.1174 -1.1994
  316MOL0     C41628  10.664   5.183   5.926 -0.3726  0.2564 -0.2684
  316MOL0     C41629  10.573   5.089   5.959 -0.3943 -0.7887 -0.1334
  316MOL0     N41630  10.401   4.487   6.427 -0.4522 -0.0631 -0.1465
  316MOL0     N41631  10.352   4.396   6.506 -0.0258  0.5341  0.8792
  316MOL0     C41632  11.214   3.734   6.559  0.3517  0.6404 -0.1261
  316MOL0     C41633  11.258   3.630   6.648 -0.4857 -1.1182 -0.5932
  316MOL0     C41634  11.211   3.417   7.077 -0.3410  0.2054 -0.6220
  316MOL0     C41635  11.113   3.382   7.178  0.8890 -0.9896 -0.4100
  316MOL0     C41636  11.123   3.285   7.273 -0.5801 -0.0582 -0.7764
  316MOL0     C41637  11.254   3.229   7.302 -0.6491  0.4243  0.9535
  316MOL0     O41638  11.286   3.136   7.396  0.6405  0.2889 -0.0362
  316MOL0     C41639  11.172   3.099   7.481  0.3328  0.0109 -0.3795
  316MOL0     C41640  11.208   2.992   7.589 -0.6152  0.0897 -0.5952
  316MOL0     C41641  11.256   2.864   7.532 -0.2265  0.4726  0.0915
  316MOL0     C41642  11.401   2.832   7.583  0.8083 -0.7216  0.0442
  316MOL0     C41643  11.464   2.732   7.498  0.4580 -0.4506 -0.1341
  316MOL0     C41644  11.505   2.640   7.430  0.2950  0.1536  0.0842
  316MOL0     C41645  11.359   3.269   7.216 -0.2188  0.9842 -0.0525
  316MOL0     C41646  11.344   3.359   7.104  0.0296 -0.2420 -0.6191
  316MOL0     H41647  11.277   3.820   6.942  1.2528 -0.5698  0.1520
  316MOL0     H41648  11.226   3.986   6.790  0.4815 -0.0592  0.0394
  316MOL0     H41649  11.193   3.907   6.354  0.3583 -1.7252  2.0689
  316MOL0     H41650  11.115   4.072   6.389 -2.2011  0.8644  1.3152
  316MOL0     H41651  10.969   3.820   6.451  2.7780 -0.7945 -1.2382
  316MOL0     H41652  10.971   3.855   6.278 -0.9008 -0.6012  0.4117
  316MOL0     H41653  10.769   3.912   6.388 -0.9391  1.4065 -0.2156
  316MOL0     H41654  10.847   4.062   6.324 -1.7181  1.6380 -0.0549
  316MOL0     H41655  10.852   3.938   6.615  0.2061  0.7474  0.5698
  316MOL0     H41656  10.930   4.093   6.565  1.1645 -0.4571  0.6610
  316MOL0     H41657  10.715   4.203   6.534  2.5632  0.7447  1.0178
  316MOL0     H41658  10.717   4.129   6.683  1.5282  0.4032 -0.3974
  316MOL0     H41659  10.613   3.914   6.587  0.8928  0.3991  1.1979
  316MOL0     H41660  10.599   4.008   6.443 -0.3301 -3.1093  0.6966
  316MOL0     H41661  10.430   3.996   6.668 -3.3292  2.5974  1.5754
  316MOL0     H41662  10.491   4.164   6.677 -0.1973  0.0341  1.3953
  316MOL0     H41663  10.277   4.138   6.547 -1.9754  5.9673 -1.0111
  316MOL0     H41664  10.392   4.076   6.417  0.9960  0.2523  1.4268
  316MOL0     H41665  10.540   4.239   6.292 -0.0984 -0.0042 -1.7350
  316MOL0     H41666  10.677   4.483   6.219  0.2948 -0.1870  1.0583
  316MOL0     H41667  10.601   4.622   6.264  0.6292  0.6355 -1.8070
  316MOL0     H41668  10.400   4.555   6.152 -0.0312  1.6044 -1.7855
  316MOL0     H41669  10.479   4.418   6.072  1.7726 -0.7324  0.6522
  316MOL0     H41670  10.641   4.592   5.959 -1.5472 -1.3703 -0.1273
  316MOL0     H41671  10.481   4.607   5.918  1.4301 -1.1090 -1.7657
  316MOL0     H41672  10.653   4.792   6.086 -2.1282  0.2836 -0.8598
  316MOL0     H41673  10.503   4.787   6.150  0.9001  2.3746  0.9799
  316MOL0     H41674  10.655   4.834   5.774 -2.0735 -0.1857 -0.9446
  316MOL0     H41675  10.831   5.019   5.684 -1.2470  1.4085 -1.6700
  316MOL0     H41676  10.900   5.508   6.056  0.0081  1.2124 -0.0928
  316MOL0     H41677  11.062   5.690   6.072  0.7168 -0.5570 -1.5203
  316MOL0     H41678  11.061   5.927   5.819  0.3134  2.7814 -2.9991
  316MOL0     H41679  11.170   5.874   5.687 -0.7966  2.4283 -1.0241
  316MOL0     H41680  11.352   5.992   5.782  0.1415  0.3992  0.1602
  316MOL0     H41681  11.250   6.053   5.916  2.2959 -0.8270 -0.3668
  316MOL0     H41682  11.125   6.189   5.787 -0.1070  1.2977 -2.2486
  316MOL0     H41683  11.146   6.113   5.636  1.2470  0.2866 -0.0275
  316MOL0     H41684  11.359   6.262   5.785  0.0713  2.5775 -1.4342
  316MOL0     H41685  11.383   6.174   5.640  0.4674 -1.9190  1.8974
  316MOL0     H41686  11.293   6.436   5.698  2.2161 -3.1158  1.9074
  316MOL0     H41687  11.156   6.370   5.624  0.1896 -0.0057 -0.8379
  316MOL0     H41688  11.298   6.460   5.434  2.2875  0.8757 -0.3486
  316MOL0     H41689  11.313   6.277   5.431  2.6729 -0.5481 -1.0295
  316MOL0     H41690  11.527   6.376   5.603 -0.2041 -3.7121 -1.2885
  316MOL0     H41691  11.550   6.324   5.436  0.4638 -0.9750  0.5249
  316MOL0     H41692  11.632   6.556   5.483  1.0188  1.2861 -2.2564
  316MOL0     H41693  11.469   6.616   5.488 -1.0241 -1.3772 -0.3878
  316MOL0     H41694  11.163   5.643   5.662 -1.0330 -0.4957 -1.6743
  316MOL0     H41695  10.966   5.496   5.630  0.8116  1.3516 -0.6191
  316MOL0     H41696  10.654   5.286   5.959 -4.5411 -0.3138  0.8504
  316MOL0     H41697  10.504   5.112   6.039  1.4262  2.7707  0.6069
  316MOL0     H41698  11.178   3.702   6.462  0.2095  0.8207 -0.1334
  316MOL0     H41699  11.284   3.534   6.604  2.1515 -1.3622  1.2201
  316MOL0     H41700  11.015   3.428   7.184 -0.5186 -3.5565 -2.1181
  316MOL0     H41701  11.041   3.288   7.344  0.9848 -1.3178  1.2117
  316MOL0     H41702  11.095   3.043   7.427 -1.1967 -1.9240  3.4061
  316MOL0     H41703  11.121   3.180   7.532 -0.6899 -1.3951  0.9297
  316MOL0     H41704  11.291   3.036   7.645 -1.9435  1.1804  0.5582
  316MOL0     H41705  11.122   2.971   7.653 -1.1022  0.3292 -1.1667
  316MOL0     H41706  11.256   2.882   7.424 -1.1118  1.3935  0.2322
  316MOL0     H41707  11.191   2.780   7.557 -0.3832  0.9101  1.2075
  316MOL0     H41708  11.460   2.921   7.609  0.3137 -0.1569 -0.7279
  316MOL0     H41709  11.378   2.783   7.678  1.3848 -4.5314 -1.6170
  316MOL0     H41710  11.539   2.546   7.390 -2.3572 -0.8258 -0.0668
  316MOL0     H41711  11.460   3.231   7.227  0.8187  1.2816 -5.5167
  316MOL0     H41712  11.429   3.396   7.049  0.9335  0.3252  1.0900
  317MOL0     O41713   7.218  10.439   8.958  0.3473  0.5647 -0.0897
  317MOL0     C41714   7.300  10.426   8.869  0.1386  0.7674 -0.6397
  317MOL0     O41715   7.426  10.484   8.871 -0.9928  0.0718  0.5124
  317MOL0     C41716   7.436  10.584   8.960 -1.5063  0.2960  0.4357
  317MOL0     C41717   7.432  10.570   9.097  0.3947  0.1942  0.2344
  317MOL0     C41718   7.468  10.683   9.184  0.2487  0.3315 -1.0744
  317MOL0     C41719   7.490  10.812   9.133 -0.8781  0.0977  0.0527
  317MOL0     O41720   7.513  10.929   9.199 -0.5682 -1.0373 -0.3497
  317MOL0     C41721   7.469  10.940   9.339 -0.3009 -0.5608  0.3387
  317MOL0     C41722   7.577  10.904   9.432 -0.0047  0.8558 -0.0995
  317MOL0     C41723   7.679  11.011   9.455 -0.0505 -0.3673 -0.7771
  317MOL0     C41724   7.648  11.109   9.566 -0.5927  0.2845 -0.5572
  317MOL0     C41725   7.743  11.229   9.589 -0.4282 -0.2451  0.7912
  317MOL0     C41726   7.691  11.336   9.684  0.0527  0.1729 -0.8995
  317MOL0     C41727   7.792  11.441   9.728 -0.3257  0.5124 -0.0233
  317MOL0     C41728   7.820  11.560   9.640 -0.4720  0.2959 -0.1290
  317MOL0     N41729   7.935  11.534   9.556 -0.0886 -0.1222  0.7872
  317MOL0     C41730   7.926  11.479   9.428 -0.7836 -0.8533 -0.5139
  317MOL0     C41731   8.059  11.463   9.399  0.2015 -0.8182 -0.3733
  317MOL0     C41732   8.123  11.426   9.267  0.9177  0.4720  0.0550
  317MOL0     C41733   8.060  11.292   9.215 -0.2423  0.1378 -0.0944
  317MOL0     C41734   8.061  11.176   9.308 -0.3020  0.5403 -0.1444
  317MOL0     C41735   7.977  11.059   9.272 -0.0346 -0.2876  0.3485
  317MOL0     O41736   8.021  11.010   9.144  0.1072  0.1984  0.5660
  317MOL0     C41737   7.981  10.887   9.108  0.2088 -0.0565 -0.8176
  317MOL0     C41738   8.035  10.837   8.995 -0.0790 -0.0352  0.9901
  317MOL0     C41739   8.008  10.704   8.947  0.6345  0.2940  0.8013
  317MOL0     C41740   7.911  10.624   9.007 -0.7842  0.6288  1.3990
  317MOL0     C41741   7.877  10.498   8.942  0.7390  0.0271 -0.0025
  317MOL0     O41742   7.945  10.467   8.821  0.6718 -0.3315 -1.1398
  317MOL0     C41743   7.908  10.348   8.756 -0.2707  0.2881 -0.0296
  317MOL0     C41744   7.925  10.351   8.615  0.2750  0.4785  0.8715
  317MOL0     C41745   7.901  10.233   8.549 -0.1488  0.8367  0.0619
  317MOL0     C41746   7.861  10.116   8.619 -0.1016  0.1030  0.9893
  317MOL0     O41747   7.842  10.005   8.548 -0.0172  1.2556 -0.7616
  317MOL0     C41748   7.710   9.984   8.517 -0.3629  0.2383 -0.1862
  317MOL0     C41749   7.716   9.877   8.402  0.2665 -0.1878 -0.7714
  317MOL0     C41750   7.732   9.931   8.260 -0.9197 -1.0036  0.3174
  317MOL0     C41751   7.738   9.814   8.163 -0.8065  0.4824  0.5209
  317MOL0     C41752   7.724   9.873   8.013 -0.7397 -0.2738 -0.6258
  317MOL0     C41753   7.854   9.883   7.932 -0.6535  0.1945 -0.2768
  317MOL0     C41754   7.834   9.956   7.793 -0.1598  0.2328  0.9630
  317MOL0     C41755   7.754   9.869   7.692  0.2678 -1.0298  0.3068
  317MOL0    Cl41756   7.844   9.723   7.659 -0.3940  0.6228  0.3217
  317MOL0     C41757   7.846  10.114   8.755  0.1407 -1.2929  0.2658
  317MOL0     C41758   7.879  10.231   8.827  0.2652 -0.7217 -0.4948
  317MOL0     O41759   7.781  10.440   8.995 -0.3417  0.5231  0.6013
  317MOL0     C41760   7.849  10.668   9.127 -0.2836  0.3902  0.0450
  317MOL0     C41761   7.887  10.801   9.177 -0.8677  0.1613 -0.1889
  317MOL0     N41762   8.137  11.516   9.501 -0.4544  0.0640  0.0755
  317MOL0     N41763   8.060  11.556   9.593  0.2345  0.1774 -0.5192
  317MOL0     C41764   7.493  10.814   8.994 -0.7460 -0.8216 -0.1619
  317MOL0     C41765   7.474  10.711   8.908 -0.1443  1.0763  0.8476
  317MOL0     C41766   7.261  10.328   8.773  0.0013  0.0005 -0.3226
  317MOL0     C41767   7.129  10.262   8.766  0.2485 -0.2186 -0.3145
  317MOL0     C41768   7.097  10.162   8.680 -0.0183  0.6434 -0.0861
  317MOL0     C41769   7.195  10.105   8.599 -0.1060  0.2246 -0.1997
  317MOL0     O41770   7.150  10.017   8.514 -0.0944  0.4230  0.3550
  317MOL0     C41771   7.244   9.936   8.435  0.0416 -0.8386 -0.3031
  317MOL0     C41772   7.146   9.867   8.340 -0.6503 -0.4746  0.6326
  317MOL0     C41773   7.222   9.758   8.255  0.6950 -0.3252 -0.9026
  317MOL0     C41774   7.305   9.831   8.153 -0.1147 -0.0821 -0.0688
  317MOL0     C41775   7.391   9.734   8.086  0.2600  0.1757 -0.9678
  317MOL0     C41776   7.452   9.649   8.025 -0.8404  1.1194 -1.2504
  317MOL0     C41777   7.326  10.168   8.598  1.0025 -1.1518  0.2346
  317MOL0     C41778   7.360  10.269   8.689  0.0708  1.0859  0.4215
  317MOL0     H41779   7.411  10.470   9.134 -4.6148  0.9461  0.0917
  317MOL0     H41780   7.483  10.678   9.292  1.8831  1.6546 -1.1853
  317MOL0     H41781   7.386  10.873   9.363 -0.8454  0.5854  1.7863
  317MOL0     H41782   7.439  11.045   9.347  2.2205  0.2849 -0.2771
  317MOL0     H41783   7.617  10.808   9.399  0.9557  1.4443 -0.6843
  317MOL0     H41784   7.532  10.880   9.529  1.8274 -4.3299 -0.2045
  317MOL0     H41785   7.679  11.068   9.362 -1.9587  2.7233  0.9616
  317MOL0     H41786   7.779  10.968   9.464  1.6862  3.0154 -2.0719
  317MOL0     H41787   7.550  11.156   9.551  0.7728  3.0783 -1.3105
  317MOL0     H41788   7.656  11.058   9.662  1.4089  1.8256  0.1626
  317MOL0     H41789   7.754  11.284   9.495 -0.2770 -0.4033  0.7159
  317MOL0     H41790   7.840  11.189   9.619  0.8910  1.4034 -1.0700
  317MOL0     H41791   7.676  11.270   9.770  2.4474 -1.4604 -1.6607
  317MOL0     H41792   7.597  11.376   9.644 -0.4293 -2.0201 -2.1137
  317MOL0     H41793   7.768  11.479   9.828  0.1309 -1.7450  1.0053
  317MOL0     H41794   7.890  11.394   9.742 -0.6303 -0.0320  0.3402
  317MOL0     H41795   7.823  11.652   9.699  0.1649 -1.7182  3.2637
  317MOL0     H41796   7.736  11.581   9.572 -1.0348  0.8439  0.7205
  317MOL0     H41797   7.850  11.444   9.357  0.1556 -0.7781 -1.5834
  317MOL0     H41798   8.232  11.419   9.273  0.7482 -1.5388  2.8885
  317MOL0     H41799   8.091  11.501   9.194 -1.5351 -0.8696 -0.3619
  317MOL0     H41800   8.110  11.255   9.125  1.6911 -0.0565  0.9905
  317MOL0     H41801   7.960  11.324   9.186  0.4345  0.2802 -2.4129
  317MOL0     H41802   8.155  11.120   9.313 -0.1107  0.9485  1.8757
  317MOL0     H41803   8.031  11.196   9.411 -0.9151  1.0717 -0.4151
  317MOL0     H41804   7.871  11.077   9.257 -0.5097 -4.0972 -2.2199
  317MOL0     H41805   8.000  10.986   9.350  6.1135  0.1413 -0.5561
  317MOL0     H41806   8.108  10.901   8.946 -2.8817  1.9883 -0.8756
  317MOL0     H41807   8.071  10.658   8.871  0.0102  0.2601  0.2962
  317MOL0     H41808   7.947  10.437   8.553 -1.4808 -0.1340 -0.6802
  317MOL0     H41809   7.921  10.235   8.442 -1.3680 -1.0384 -0.2507
  317MOL0     H41810   7.667  10.082   8.492 -2.2979 -0.3201  0.7589
  317MOL0     H41811   7.647   9.948   8.598 -1.7574 -0.4332 -1.5176
  317MOL0     H41812   7.620   9.826   8.401 -0.0061  0.2840  0.0091
  317MOL0     H41813   7.796   9.803   8.413 -0.2362 -1.0959 -2.8441
  317MOL0     H41814   7.813  10.004   8.264 -1.6588  0.0447 -2.2112
  317MOL0     H41815   7.643   9.991   8.235 -0.0839 -0.8707 -2.7392
  317MOL0     H41816   7.834   9.762   8.160  0.0350  2.0332 -0.2883
  317MOL0     H41817   7.659   9.742   8.189 -2.6775  2.7413  1.5241
  317MOL0     H41818   7.682   9.973   8.003  0.8019  0.2377 -3.0322
  317MOL0     H41819   7.659   9.807   7.955 -0.5913 -2.4996  1.5882
  317MOL0     H41820   7.907   9.788   7.920  1.6964  0.9843  2.7651
  317MOL0     H41821   7.920   9.954   7.981 -2.1755  2.1383 -0.9159
  317MOL0     H41822   7.785  10.052   7.808  4.2956  2.3748  3.6204
  317MOL0     H41823   7.926   9.984   7.741 -1.7531 -0.1130 -2.3132
  317MOL0     H41824   7.738   9.919   7.596 -1.6709 -0.0799  1.0558
  317MOL0     H41825   7.652   9.853   7.728 -0.2345  1.6382  0.2669
  317MOL0     H41826   7.806  10.028   8.808  0.5763 -0.5176  1.9240
  317MOL0     H41827   7.882  10.218   8.935  1.6981  0.2499 -0.3962
  317MOL0     H41828   7.788  10.606   9.192 -0.9947  0.7872 -0.2350
  317MOL0     H41829   7.846  10.831   9.273 -1.0652 -1.4082  0.2315
  317MOL0     H41830   7.520  10.905   8.943  4.0368 -0.9009  1.7344
  317MOL0     H41831   7.485  10.716   8.800 -1.7406 -1.7030  0.4702
  317MOL0     H41832   7.041  10.297   8.820 -0.4363  0.7172 -1.9679
  317MOL0     H41833   7.000  10.114   8.676  0.9353 -1.3390 -0.5010
  317MOL0     H41834   7.296   9.868   8.502 -0.6037 -1.3754 -0.3433
  317MOL0     H41835   7.318   9.997   8.381  2.1422  0.0840  3.2804
  317MOL0     H41836   7.064   9.826   8.401  0.0077 -2.4762  0.2278
  317MOL0     H41837   7.101   9.936   8.268 -2.3499 -1.7229  0.4225
  317MOL0     H41838   7.153   9.694   8.199  1.0195 -0.9018 -0.6465
  317MOL0     H41839   7.281   9.684   8.309  1.4722  1.5524  0.9443
  317MOL0     H41840   7.235   9.879   8.083  0.3748  1.2131  0.3077
  317MOL0     H41841   7.369   9.907   8.198  1.5220 -0.4140 -1.6825
  317MOL0     H41842   7.489   9.568   7.965 -0.3042 -0.7546  1.4275
  317MOL0     H41843   7.409  10.136   8.535  1.2883 -0.9050  0.4795
  317MOL0     H41844   7.464  10.300   8.687 -0.1143  1.8529 -2.4631
  318MOL0     O41845  10.267   3.953   1.196  0.3804  1.0770  0.2771
  318MOL0     C41846  10.304   4.056   1.231 -0.5844 -0.3463 -0.1988
  318MOL0     O41847  10.232   4.155   1.291 -0.0498 -0.4075 -0.4704
  318MOL0     C41848  10.096   4.146   1.299 -0.5120  0.6777 -1.3775
  318MOL0     C41849  10.013   4.031   1.305 -0.3406  0.5262 -0.4119
  318MOL0     C41850   9.873   4.045   1.330 -0.1938  0.8284 -0.6370
  318MOL0     C41851   9.807   4.167   1.354 -0.2393  0.2391 -0.3001
  318MOL0     O41852   9.679   4.186   1.377  0.0071 -0.3545  0.2092
  318MOL0     C41853   9.590   4.085   1.333 -0.1251  0.7824 -0.2927
  318MOL0     C41854   9.437   4.123   1.342  0.1807  0.7050  0.1693
  318MOL0     C41855   9.344   4.022   1.254 -0.5257 -0.3933  0.1326
  318MOL0     C41856   9.199   4.063   1.284 -0.2699  0.3620 -0.4023
  318MOL0     C41857   9.102   3.988   1.187  1.1199  0.7524 -0.0180
  318MOL0     C41858   8.956   4.002   1.213  0.3230  0.6415  0.8459
  318MOL0     C41859   8.887   4.137   1.204 -0.6621 -0.3929  0.7182
  318MOL0     C41860   8.747   4.135   1.251  0.6676  0.6211 -0.3766
  318MOL0     N41861   8.662   4.060   1.156 -0.3312  0.0244  0.0709
  318MOL0     C41862   8.610   4.116   1.046  0.2015  0.0155 -0.1418
  318MOL0     C41863   8.529   4.028   1.002  0.2737  1.5852  0.5967
  318MOL0     C41864   8.454   4.051   0.882  0.0018 -0.7407  1.4424
  318MOL0     C41865   8.341   3.942   0.856 -0.4636  0.1888  0.6625
  318MOL0     C41866   8.221   4.001   0.772 -0.1831  0.4627 -0.2231
  318MOL0     C41867   8.191   3.903   0.655 -0.1349 -0.3156 -0.2681
  318MOL0     O41868   8.147   3.780   0.714 -0.4464 -0.4319  0.0614
  318MOL0     C41869   8.024   3.729   0.685 -1.3668  0.1158  0.0955
  318MOL0     C41870   8.004   3.610   0.744 -0.3975  0.9572 -0.1954
  318MOL0     C41871   7.877   3.551   0.746  1.5850  0.4733 -0.0405
  318MOL0     C41872   7.765   3.610   0.690  0.1196 -0.1824  0.5641
  318MOL0     C41873   7.616   3.570   0.705 -0.4102  0.0609  0.2226
  318MOL0     O41874   7.585   3.533   0.832  0.8576  0.2039  0.5841
  318MOL0     C41875   7.449   3.509   0.857  0.3022  0.7993  0.2201
  318MOL0     C41876   7.414   3.389   0.932 -0.2908 -0.3504 -0.1774
  318MOL0     C41877   7.277   3.354   0.964 -0.6830  0.6472 -0.1257
  318MOL0     C41878   7.179   3.448   0.924  1.6612  0.5067  0.4964
  318MOL0     O41879   7.049   3.413   0.937  0.4238 -0.2290  0.7742
  318MOL0     C41880   7.006   3.382   1.072  0.0359  0.0846  0.2561
  318MOL0     C41881   6.856   3.419   1.086  0.3521  0.4979 -0.6244
  318MOL0     C41882   6.844   3.568   1.134  1.6567 -0.1535  0.0890
  318MOL0     C41883   6.704   3.617   1.103  0.7454 -0.8097  0.2906
  318MOL0     C41884   6.675   3.642   0.951  0.7220 -0.3716 -0.1838
  318MOL0     C41885   6.532   3.690   0.927  0.3610  0.8291  0.0676
  318MOL0     C41886   6.511   3.719   0.773  0.4846  0.6319 -1.0902
  318MOL0     C41887   6.392   3.821   0.755 -0.4056 -0.6596 -0.0045
  318MOL0    Cl41888   6.230   3.734   0.747  0.1529 -0.1101 -0.0079
  318MOL0     C41889   7.215   3.568   0.866  0.2935  0.7668 -0.0692
  318MOL0     C41890   7.342   3.611   0.841  0.0101  0.2323  0.0123
  318MOL0     O41891   7.539   3.580   0.604  0.4149  0.0686  0.1992
  318MOL0     C41892   7.793   3.731   0.619 -0.5409 -0.8633 -0.8617
  318MOL0     C41893   7.917   3.793   0.616 -0.6156  0.5818  0.5057
  318MOL0     N41894   8.524   3.913   1.081  0.0390  0.1232  0.6861
  318MOL0     N41895   8.598   3.947   1.178 -0.0477  0.3007 -0.7140
  318MOL0     C41896   9.886   4.279   1.354  0.2475  0.0134  0.6962
  318MOL0     C41897  10.021   4.269   1.325  0.5293  0.2357 -0.3973
  318MOL0     C41898  10.450   4.075   1.236 -0.1396  0.1772 -0.7928
  318MOL0     C41899  10.506   4.180   1.307  0.2492 -0.5026  0.6781
  318MOL0     C41900  10.642   4.195   1.305 -0.7790 -0.5881  1.0935
  318MOL0     C41901  10.725   4.103   1.249  0.3559 -0.5078  0.5230
  318MOL0     O41902  10.859   4.124   1.243  0.4105  0.3745 -0.3240
  318MOL0     C41903  10.901   4.207   1.134  0.3333  0.1745  0.2161
  318MOL0     C41904  11.050   4.231   1.136 -0.6327  0.5885  0.4870
  318MOL0     C41905  11.089   4.306   1.270  0.0586  0.0319  0.9939
  318MOL0     C41906  11.241   4.325   1.292 -0.3025 -0.8213  0.3162
  318MOL0     C41907  11.302   4.392   1.179  0.4423 -0.3539  0.0450
  318MOL0     C41908  11.364   4.451   1.096 -0.2715 -0.7690  0.0603
  318MOL0     C41909  10.676   3.990   1.193 -0.3124 -0.0063  0.3170
  318MOL0     C41910  10.540   3.977   1.180  1.1048  0.6612 -0.1247
  318MOL0     H41911  10.060   3.935   1.288  2.1835  1.3873  1.1263
  318MOL0     H41912   9.808   3.958   1.324 -0.8188  0.9645  2.4420
  318MOL0     H41913   9.592   3.990   1.387  0.8686  1.6534  1.2398
  318MOL0     H41914   9.615   4.056   1.230  2.9140 -0.9757  0.8276
  318MOL0     H41915   9.435   4.227   1.308  0.3926  1.0995  1.3077
  318MOL0     H41916   9.413   4.126   1.449  1.2271 -0.5356  0.4569
  318MOL0     H41917   9.341   3.914   1.271  1.5288 -0.4592  0.3703
  318MOL0     H41918   9.362   4.043   1.148 -1.9502  0.6583  0.0729
  318MOL0     H41919   9.169   4.041   1.387 -1.6367  1.9517 -0.4252
  318MOL0     H41920   9.186   4.170   1.270  2.6439  0.7714 -0.6978
  318MOL0     H41921   9.125   3.881   1.186 -2.7945 -0.2835 -2.3523
  318MOL0     H41922   9.114   4.026   1.085  1.5076  0.2399 -0.1748
  318MOL0     H41923   8.925   3.960   1.310  0.1785 -1.3195 -0.0135
  318MOL0     H41924   8.890   3.956   1.139  0.3912  1.9389 -0.0515
  318MOL0     H41925   8.947   4.204   1.266  0.1436 -1.5584  1.2359
  318MOL0     H41926   8.881   4.183   1.105 -0.1037  1.7459  1.6179
  318MOL0     H41927   8.709   4.237   1.265  1.9489  1.7489 -4.0760
  318MOL0     H41928   8.742   4.088   1.350 -2.3826 -1.8633 -1.5526
  318MOL0     H41929   8.640   4.214   1.011 -0.8392  0.5988  0.5391
  318MOL0     H41930   8.528   4.035   0.803 -0.8805 -2.7940  0.9715
  318MOL0     H41931   8.400   4.146   0.885 -4.0086 -2.7832  4.4862
  318MOL0     H41932   8.308   3.896   0.950 -1.6870 -0.9102 -0.2651
  318MOL0     H41933   8.390   3.859   0.804  0.6505  0.1775  1.6770
  318MOL0     H41934   8.138   4.036   0.834  1.0243  2.7653  0.2126
  318MOL0     H41935   8.258   4.092   0.724 -1.8178  1.3316  0.0729
  318MOL0     H41936   8.270   3.877   0.584  0.0937  0.4165 -0.2905
  318MOL0     H41937   8.123   3.969   0.600  2.1760  2.0100 -0.5145
  318MOL0     H41938   8.084   3.557   0.794  1.0645  2.1315 -1.2242
  318MOL0     H41939   7.861   3.469   0.815 -0.1066 -0.8997 -1.9705
  318MOL0     H41940   7.492   3.317   0.956 -0.0784 -0.5610 -1.4273
  318MOL0     H41941   7.261   3.256   1.007 -0.1216 -0.3329 -2.0244
  318MOL0     H41942   7.064   3.426   1.154 -0.9227 -0.0581  1.0380
  318MOL0     H41943   7.024   3.274   1.084 -0.4733  0.1636  2.0333
  318MOL0     H41944   6.812   3.369   1.173  2.1477 -1.5973 -0.8258
  318MOL0     H41945   6.795   3.390   1.000 -4.4069 -1.4314  2.9716
  318MOL0     H41946   6.918   3.616   1.069 -0.0079 -0.2724 -2.0121
  318MOL0     H41947   6.862   3.587   1.240 -1.1597  0.1623  0.5821
  318MOL0     H41948   6.636   3.548   1.153  0.9478 -2.8923 -2.1156
  318MOL0     H41949   6.697   3.716   1.150  1.3770  0.6757 -2.5093
  318MOL0     H41950   6.692   3.552   0.891 -1.4206 -3.1928  3.0557
  318MOL0     H41951   6.737   3.728   0.925 -1.3328  1.4390  0.5348
  318MOL0     H41952   6.512   3.772   0.997 -0.9269  0.9925 -0.4688
  318MOL0     H41953   6.461   3.613   0.957 -0.5963  1.2797 -0.9754
  318MOL0     H41954   6.605   3.755   0.729  0.7361  0.8051 -0.4241
  318MOL0     H41955   6.479   3.625   0.727 -0.6681 -0.1294  1.1010
  318MOL0     H41956   6.416   3.867   0.659 -2.1284 -1.3330 -0.8178
  318MOL0     H41957   6.392   3.892   0.837  1.1518  1.2396 -1.5610
  318MOL0     H41958   7.137   3.639   0.843 -0.9255 -1.1096 -2.1085
  318MOL0     H41959   7.363   3.710   0.801 -3.1908  1.2083  0.4330
  318MOL0     H41960   7.706   3.793   0.600  0.7603  1.5226  0.5663
  318MOL0     H41961   7.917   3.890   0.568  0.2321 -0.6230 -2.1262
  318MOL0     H41962   9.833   4.374   1.357 -0.1967 -0.2305  0.7944
  318MOL0     H41963  10.073   4.364   1.311 -4.3212  3.3154  0.2668
  318MOL0     H41964  10.449   4.265   1.343  0.4124 -0.1684  0.1637
  318MOL0     H41965  10.686   4.286   1.346 -2.8651  1.6116 -1.2331
  318MOL0     H41966  10.860   4.309   1.129  1.3567  0.5587 -0.8431
  318MOL0     H41967  10.872   4.164   1.038 -1.4365  4.8762 -1.6319
  318MOL0     H41968  11.085   4.128   1.140  0.0368  0.7995  0.1153
  318MOL0     H41969  11.097   4.274   1.047  1.8904 -1.5592  0.6651
  318MOL0     H41970  11.057   4.244   1.354  2.1092  1.5580  3.0470
  318MOL0     H41971  11.048   4.407   1.262 -1.1147 -0.5241 -0.2489
  318MOL0     H41972  11.258   4.379   1.386 -1.9816 -0.6815  0.5770
  318MOL0     H41973  11.302   4.235   1.291 -0.1522 -0.7194  0.2428
  318MOL0     H41974  11.427   4.502   1.027 -0.9178 -1.1237 -0.8138
  318MOL0     H41975  10.743   3.914   1.156 -1.8445 -0.8987 -0.7363
  318MOL0     H41976  10.500   3.893   1.124 -1.8693  1.3643  0.7345
  319MOL0     O41977   7.655   1.293   6.502 -0.7361 -0.1687  0.0807
  319MOL0     C41978   7.730   1.235   6.584  0.4936 -0.5458  0.3892
  319MOL0     O41979   7.693   1.155   6.686 -0.0854 -0.1224 -0.1585
  319MOL0     C41980   7.571   1.162   6.745 -0.2692 -0.0845 -0.1122
  319MOL0     C41981   7.484   1.048   6.748  0.0264  0.7577 -1.5070
  319MOL0     C41982   7.374   1.057   6.822  0.3417 -0.9424  0.6759
  319MOL0     C41983   7.334   1.180   6.875  0.0358  1.2412  0.3935
  319MOL0     O41984   7.224   1.187   6.958  0.0427  0.2329  0.8379
  319MOL0     C41985   7.132   1.079   6.953 -0.0610  0.2338  0.0180
  319MOL0     C41986   6.998   1.114   7.028 -0.7372  0.1881  0.1906
  319MOL0     C41987   6.866   1.089   6.949  0.0766 -1.1320  0.5621
  319MOL0     C41988   6.741   1.173   7.010 -0.9718 -0.5387  0.2987
  319MOL0     C41989   6.616   1.151   6.931  0.2830 -0.2771 -0.9907
  319MOL0     C41990   6.539   1.274   6.892 -0.7809 -0.5987 -0.1732
  319MOL0     C41991   6.415   1.234   6.815  0.5869 -0.6090 -0.6514
  319MOL0     C41992   6.333   1.358   6.767  1.0643 -0.4621 -0.3139
  319MOL0     N41993   6.298   1.440   6.885  0.2059 -0.5654  0.1977
  319MOL0     C41994   6.200   1.430   6.978  0.5793 -0.3607  0.5483
  319MOL0     C41995   6.208   1.540   7.050  0.8410 -0.4056  0.0240
  319MOL0     C41996   6.095   1.578   7.143 -0.4298  0.1495 -0.0006
  319MOL0     C41997   5.982   1.629   7.057 -0.3027  0.0671  1.0465
  319MOL0     C41998   5.849   1.645   7.125 -0.9949 -0.5770  0.0210
  319MOL0     C41999   5.850   1.731   7.251  0.5397  0.0819 -0.4529
  319MOL0     O42000   5.882   1.668   7.376 -0.3122 -0.3801 -0.2404
  319MOL0     C42001   5.808   1.561   7.418 -0.0295 -0.1319 -0.3958
  319MOL0     C42002   5.673   1.562   7.452  0.1088 -0.8385  0.6911
  319MOL0     C42003   5.601   1.449   7.486  0.0891  0.4451 -0.4415
  319MOL0     C42004   5.665   1.317   7.491 -0.3672  1.0160 -0.2419
  319MOL0     C42005   5.583   1.195   7.523  0.7074 -0.0146 -0.4448
  319MOL0     O42006   5.456   1.212   7.581  0.1646  0.2787  0.1551
  319MOL0     C42007   5.368   1.108   7.611 -0.1047  0.5254  0.1728
  319MOL0     C42008   5.240   1.122   7.567  0.5245  0.2493  0.8902
  319MOL0     C42009   5.153   1.009   7.585  0.1854  0.3553  0.6717
  319MOL0     C42010   5.208   0.883   7.634  0.1252  1.1901  0.2583
  319MOL0     O42011   5.122   0.776   7.650 -0.4032 -0.2802  1.2205
  319MOL0     C42012   5.074   0.745   7.783  0.3888 -0.1635  0.2247
  319MOL0     C42013   4.944   0.665   7.753  0.3671  0.5745 -1.0185
  319MOL0     C42014   4.911   0.578   7.875 -0.5723  0.7303 -0.1668
  319MOL0     C42015   4.798   0.477   7.853  0.3333 -0.6211  0.2768
  319MOL0     C42016   4.806   0.390   7.982 -0.3925  0.3199 -0.5800
  319MOL0     C42017   4.862   0.253   7.966  0.1088  0.3127 -0.2769
  319MOL0     C42018   4.784   0.158   7.878 -0.6186  0.4275  0.4135
  319MOL0     C42019   4.868   0.041   7.820  0.0474  0.6290  0.1534
  319MOL0    Cl42020   4.997   0.107   7.715 -0.4095  0.2544  0.0651
  319MOL0     C42021   5.333   0.879   7.686  0.5586  1.0141 -0.1446
  319MOL0     C42022   5.413   0.993   7.676 -0.5893  0.5860  1.2160
  319MOL0     O42023   5.633   1.085   7.499 -0.3291  0.5154  0.3737
  319MOL0     C42024   5.800   1.312   7.455  0.7531  0.0361 -1.1434
  319MOL0     C42025   5.867   1.436   7.418 -0.7015 -1.1265 -0.3682
  319MOL0     N42026   6.320   1.610   7.012 -0.0633 -0.1931  0.0291
  319MOL0     N42027   6.376   1.546   6.923 -0.1376  0.5487 -0.4426
  319MOL0     C42028   7.423   1.298   6.861  0.9854  0.8230 -0.7873
  319MOL0     C42029   7.543   1.282   6.803 -0.3523 -0.8233 -0.4817
  319MOL0     C42030   7.878   1.235   6.545  0.7252  0.7960 -0.2308
  319MOL0     C42031   7.911   1.292   6.415  0.6531  0.1588 -0.3311
  319MOL0     C42032   8.037   1.283   6.364  0.4960  0.4244 -0.3292
  319MOL0     C42033   8.140   1.232   6.440  1.0099  0.1933  0.3580
  319MOL0     O42034   8.270   1.246   6.402 -0.6278 -0.0427 -0.6961
  319MOL0     C42035   8.348   1.123   6.420 -0.1498  0.4282 -0.5034
  319MOL0     C42036   8.343   1.044   6.291  0.1133 -0.3182 -0.5722
  319MOL0     C42037   8.423   1.113   6.183  0.1586 -0.7113  0.0569
  319MOL0     C42038   8.425   1.023   6.063  0.8065 -0.4118 -0.0348
  319MOL0     C42039   8.298   0.980   6.004 -0.6105  1.3640 -0.1722
  319MOL0     C42040   8.182   0.960   5.982 -0.0883  0.1403 -0.6519
  319MOL0     C42041   8.113   1.203   6.568 -1.0998  0.5514  0.4187
  319MOL0     C42042   7.989   1.189   6.628 -0.3125  0.2191  0.0222
  319MOL0     H42043   7.513   0.951   6.708 -0.5629 -0.7519  1.4840
  319MOL0     H42044   7.313   0.968   6.830  0.9993 -1.5873 -1.0238
  319MOL0     H42045   7.176   0.985   6.990 -2.1578 -0.0266  2.0946
  319MOL0     H42046   7.103   1.064   6.848  2.1939 -2.7339 -0.3539
  319MOL0     H42047   7.006   1.214   7.070 -1.1849  0.1992  0.2622
  319MOL0     H42048   6.990   1.056   7.120  2.4563  1.4119  1.3656
  319MOL0     H42049   6.850   0.981   6.937 -0.6950 -1.0532  0.8451
  319MOL0     H42050   6.875   1.134   6.849 -2.1366  3.3362  2.1236
  319MOL0     H42051   6.735   1.149   7.117  1.5364 -1.3432  0.3277
  319MOL0     H42052   6.765   1.279   7.006  0.5736 -0.8911 -1.0060
  319MOL0     H42053   6.546   1.098   6.997  1.5531  0.0625  0.7036
  319MOL0     H42054   6.636   1.091   6.842  0.1668 -2.0038  0.0818
  319MOL0     H42055   6.601   1.333   6.824  0.2367 -4.1415 -2.5622
  319MOL0     H42056   6.509   1.331   6.981  0.9469 -2.0598  1.4342
  319MOL0     H42057   6.435   1.175   6.725  2.6214  0.4360 -0.9321
  319MOL0     H42058   6.359   1.173   6.887  1.4852  1.1699  1.7063
  319MOL0     H42059   6.242   1.329   6.714 -0.6409  3.8362 -0.1439
  319MOL0     H42060   6.387   1.427   6.702 -0.8291  1.4218  0.0222
  319MOL0     H42061   6.118   1.359   6.987 -0.7770  0.4726 -3.2881
  319MOL0     H42062   6.114   1.651   7.222 -1.5417  1.3987 -0.8412
  319MOL0     H42063   6.066   1.491   7.202 -1.2538  1.3051  1.3660
  319MOL0     H42064   5.969   1.567   6.968  0.6686 -0.0731  0.9941
  319MOL0     H42065   6.018   1.722   7.012  4.6068 -2.9456 -2.1198
  319MOL0     H42066   5.788   1.693   7.047  3.3833  0.6171 -3.0887
  319MOL0     H42067   5.798   1.549   7.141 -2.1245  0.3726  2.3868
  319MOL0     H42068   5.746   1.757   7.271  0.2939 -1.0453 -0.1681
  319MOL0     H42069   5.906   1.822   7.229 -1.0909  1.4688  0.9265
  319MOL0     H42070   5.613   1.653   7.456 -2.9309 -2.7389  1.1678
  319MOL0     H42071   5.496   1.458   7.509 -0.1988  1.3991 -2.0590
  319MOL0     H42072   5.215   1.212   7.512  2.8580 -0.0232 -0.7954
  319MOL0     H42073   5.053   1.012   7.543  0.4979  2.9946 -0.0647
  319MOL0     H42074   5.042   0.834   7.838 -2.7479 -0.3741 -1.0377
  319MOL0     H42075   5.150   0.694   7.843  1.1968 -0.2929 -0.8667
  319MOL0     H42076   4.960   0.597   7.668  2.2912 -0.4478  0.0875
  319MOL0     H42077   4.866   0.737   7.729  0.7602  1.8588  1.3246
  319MOL0     H42078   4.888   0.646   7.958 -1.5512 -0.8007  0.8774
  319MOL0     H42079   4.999   0.517   7.900  0.4703  2.6498  1.0599
  319MOL0     H42080   4.699   0.516   7.830  0.1873  0.3723  2.3243
  319MOL0     H42081   4.813   0.407   7.770 -0.6091 -1.4351  0.7748
  319MOL0     H42082   4.704   0.379   8.020  0.3573  0.5995  1.6844
  319MOL0     H42083   4.864   0.437   8.063 -1.8740 -2.2791  2.1851
  319MOL0     H42084   4.886   0.202   8.060 -4.1790 -1.7179 -0.0743
  319MOL0     H42085   4.953   0.265   7.907  1.0664  3.3264  1.6063
  319MOL0     H42086   4.701   0.124   7.940 -0.8108 -0.8850 -0.5043
  319MOL0     H42087   4.730   0.227   7.811  0.4056 -0.7055 -1.6962
  319MOL0     H42088   4.806  -0.032   7.767  0.8507 -0.2469  0.4083
  319MOL0     H42089   4.911  -0.017   7.901  0.9208 -0.7696 -1.2675
  319MOL0     H42090   5.372   0.785   7.722 -0.0801  0.7944 -0.0042
  319MOL0     H42091   5.518   0.993   7.703 -0.1292  0.2308 -0.4729
  319MOL0     H42092   5.838   1.210   7.454 -2.3356 -1.2369  0.4009
  319MOL0     H42093   5.972   1.429   7.395 -0.7195 -1.8495 -0.2377
  319MOL0     H42094   7.400   1.397   6.900  0.8853 -0.7992  3.9192
  319MOL0     H42095   7.596   1.374   6.781 -1.5171 -0.1204 -0.4234
  319MOL0     H42096   7.833   1.321   6.345 -2.1347 -3.1201  1.1323
  319MOL0     H42097   8.053   1.306   6.259  2.5983 -0.6719 -0.2969
  319MOL0     H42098   8.297   1.065   6.497 -1.3123  0.5448 -1.1693
  319MOL0     H42099   8.453   1.147   6.440  0.8676 -0.7611 -3.7355
  319MOL0     H42100   8.375   0.943   6.315 -0.8195  0.0757  2.7927
  319MOL0     H42101   8.235   1.048   6.269 -0.1872  1.0566  0.9448
  319MOL0     H42102   8.521   1.138   6.224 -1.3059 -0.6016  3.9267
  319MOL0     H42103   8.377   1.204   6.143  1.3076 -0.1650 -0.0499
  319MOL0     H42104   8.482   1.076   5.985  1.9591 -3.5095 -1.4476
  319MOL0     H42105   8.492   0.941   6.087  2.1466 -0.0353 -2.2337
  319MOL0     H42106   8.081   0.933   5.959 -0.5986 -0.0335  1.6124
  319MOL0     H42107   8.205   1.206   6.626 -1.1907  3.4234  0.5492
  319MOL0     H42108   7.967   1.161   6.731 -1.2701 -0.7771 -0.4415
  320MOL0     O42109   0.562   8.856   3.494 -0.3759 -0.2605 -0.8812
  320MOL0     C42110   0.618   8.914   3.589  0.4091  0.4139  0.2125
  320MOL0     O42111   0.562   8.942   3.713  0.5060 -0.0932  0.6000
  320MOL0     C42112   0.435   8.888   3.740  1.0388  0.2536  0.9922
  320MOL0     C42113   0.314   8.948   3.684  0.0612  0.7117  0.0269
  320MOL0     C42114   0.187   8.895   3.699 -0.1141 -0.6410  0.3684
  320MOL0     C42115   0.170   8.775   3.768 -0.5666  0.6651  0.2756
  320MOL0     O42116   0.047   8.721   3.775 -0.3276 -0.5315 -0.0130
  320MOL0     C42117   0.026   8.614   3.868  0.4217 -1.0931  1.0358
  320MOL0     C42118  -0.007   8.670   4.004 -0.4011  0.7055 -0.6240
  320MOL0     C42119  -0.065   8.559   4.097  0.0101 -0.5081  0.5328
  320MOL0     C42120  -0.115   8.594   4.239  0.6302  0.4777 -0.2595
  320MOL0     C42121  -0.245   8.673   4.229  1.2401  0.4154  0.2048
  320MOL0     C42122  -0.232   8.821   4.245  0.0516 -0.1220  1.0153
  320MOL0     C42123  -0.361   8.904   4.274  0.2168  0.8651  0.8770
  320MOL0     C42124  -0.417   8.978   4.150 -0.2193 -0.3362 -0.0966
  320MOL0     N42125  -0.343   9.104   4.136  0.1266  0.2792  1.1137
  320MOL0     C42126  -0.359   9.233   4.188  0.4569  0.0144 -0.7868
  320MOL0     C42127  -0.294   9.315   4.107  0.3016 -0.5327  0.9183
  320MOL0     C42128  -0.256   9.451   4.131  0.3147 -0.4976  0.6493
  320MOL0     C42129  -0.389   9.540   4.118 -0.9416  0.3065 -0.4319
  320MOL0     C42130  -0.363   9.682   4.145  0.6539  0.8347  0.0495
  320MOL0     C42131  -0.487   9.762   4.082 -0.5895 -0.8495  0.2037
  320MOL0     O42132  -0.485   9.908   4.070 -0.4686  0.6769 -0.3642
  320MOL0     C42133  -0.520   9.975   4.186 -0.6635 -0.4659 -0.0438
  320MOL0     C42134  -0.543   9.913   4.309 -0.3297 -0.2443  0.0450
  320MOL0     C42135  -0.591  10.001   4.415 -0.2122  0.4074  0.4000
  320MOL0     C42136  -0.593  10.139   4.406 -0.0557  0.8137  0.2944
  320MOL0     C42137  -0.640  10.218   4.526 -0.3024 -0.5470 -0.3712
  320MOL0     O42138  -0.612  10.344   4.512 -0.2441 -0.2160 -0.8085
  320MOL0     C42139  -0.688  10.432   4.577 -0.4881  0.5540 -1.1613
  320MOL0     C42140  -0.614  10.546   4.613  0.3936  0.7740  1.4206
  320MOL0     C42141  -0.683  10.651   4.666 -0.1051 -0.3183  0.1111
  320MOL0     C42142  -0.825  10.650   4.686  0.0310 -1.1556 -0.0159
  320MOL0     O42143  -0.902  10.756   4.709 -0.3657  0.0536  0.3013
  320MOL0     C42144  -0.827  10.856   4.783  0.4104 -1.0197 -0.3283
  320MOL0     C42145  -0.925  10.935   4.872 -0.4111  0.6443  0.9050
  320MOL0     C42146  -0.952  10.875   5.004  0.1550  0.2237  0.3632
  320MOL0     C42147  -1.022  10.968   5.095  0.1498 -0.6205  0.2281
  320MOL0     C42148  -0.999  10.950   5.243  0.2550  0.1444  0.5831
  320MOL0     C42149  -1.084  11.053   5.323 -0.0139  0.3418 -0.5800
  320MOL0     C42150  -1.127  11.006   5.467  0.0400  0.5081 -0.3955
  320MOL0     C42151  -1.020  11.028   5.569 -0.1004  0.0489  1.3236
  320MOL0    Cl42152  -1.072  11.017   5.747  0.2508  0.3137  0.2527
  320MOL0     C42153  -0.890  10.539   4.651  0.0505  0.6781 -0.7497
  320MOL0     C42154  -0.826  10.426   4.602 -0.5976 -0.6428  0.5097
  320MOL0     O42155  -0.681  10.164   4.625 -0.8984 -0.0551 -0.1734
  320MOL0     C42156  -0.561  10.190   4.276 -0.1398 -0.3925 -0.0261
  320MOL0     C42157  -0.520  10.109   4.174 -0.6638  0.3879  0.2502
  320MOL0     N42158  -0.221   9.245   4.016  0.2591 -0.0720 -0.6633
  320MOL0     N42159  -0.251   9.123   4.033 -0.3612  0.2129 -0.6525
  320MOL0     C42160   0.282   8.710   3.824  0.2425 -0.1214  0.1489
  320MOL0     C42161   0.413   8.770   3.815 -0.3561 -0.0698  0.3025
  320MOL0     C42162   0.753   8.970   3.573  0.1200 -0.0709 -1.2089
  320MOL0     C42163   0.842   9.000   3.680 -0.5394 -0.2438 -0.1127
  320MOL0     C42164   0.966   9.064   3.658 -0.3897  0.3394 -1.1093
  320MOL0     C42165   1.002   9.093   3.529  0.6565 -0.8429  0.1401
  320MOL0     O42166   1.110   9.165   3.493  0.0285  0.2398 -0.3611
  320MOL0     C42167   1.237   9.129   3.553  0.3925  0.2469  0.3083
  320MOL0     C42168   1.337   9.161   3.448  0.3330  1.2062  0.5068
  320MOL0     C42169   1.473   9.119   3.507  0.1269  0.1354  0.0704
  320MOL0     C42170   1.591   9.171   3.424  0.1367 -0.1898  1.3668
  320MOL0     C42171   1.632   9.075   3.328  0.1080  0.4650 -0.0976
  320MOL0     C42172   1.648   8.992   3.242  1.2519 -1.0064  1.1769
  320MOL0     C42173   0.932   9.036   3.432  0.4336 -0.2282 -0.3363
  320MOL0     C42174   0.809   8.970   3.445 -0.1469 -0.2365 -0.8338
  320MOL0     H42175   0.334   9.031   3.618 -1.8587  0.9244 -0.3602
  320MOL0     H42176   0.104   8.946   3.651  0.0175 -1.4198 -0.7101
  320MOL0     H42177   0.092   8.526   3.867  2.7155  0.5093 -1.1944
  320MOL0     H42178  -0.075   8.587   3.835 -0.3855  0.4966  2.0825
  320MOL0     H42179  -0.079   8.752   3.990 -0.4829  0.3539 -2.6139
  320MOL0     H42180   0.084   8.708   4.052 -0.5190  0.2503 -0.0359
  320MOL0     H42181   0.018   8.488   4.103  0.7642  0.2797 -0.2815
  320MOL0     H42182  -0.146   8.515   4.039 -0.7671 -1.1178  2.0091
  320MOL0     H42183  -0.131   8.505   4.301  3.0742  1.6742  2.3441
  320MOL0     H42184  -0.040   8.645   4.300  1.0105 -1.0075  0.5680
  320MOL0     H42185  -0.311   8.650   4.313 -0.0625  1.8839 -0.3745
  320MOL0     H42186  -0.296   8.647   4.135 -1.1428 -5.6865  2.6275
  320MOL0     H42187  -0.189   8.853   4.150 -0.1683  0.4937  1.1236
  320MOL0     H42188  -0.160   8.842   4.325  0.0897 -0.0284  0.9564
  320MOL0     H42189  -0.446   8.842   4.305 -0.4134  0.0260 -2.1732
  320MOL0     H42190  -0.340   8.979   4.350  0.2795  1.6905  0.0668
  320MOL0     H42191  -0.515   9.013   4.183  0.9713  2.3245  0.9557
  320MOL0     H42192  -0.406   8.914   4.062 -5.1112  0.8098 -1.8024
  320MOL0     H42193  -0.408   9.253   4.283 -2.1308  4.8939 -2.7754
  320MOL0     H42194  -0.186   9.501   4.062  0.3001 -0.1210  0.8998
  320MOL0     H42195  -0.217   9.452   4.234  0.8123 -0.8043  0.4661
  320MOL0     H42196  -0.464   9.514   4.193  1.1977  0.1352  1.8125
  320MOL0     H42197  -0.444   9.527   4.025 -0.0846 -1.4356 -0.7393
  320MOL0     H42198  -0.347   9.705   4.251 -3.4284  0.4941  0.8992
  320MOL0     H42199  -0.273   9.713   4.091 -0.8045  1.4617 -2.1734
  320MOL0     H42200  -0.577   9.732   4.137 -0.1426 -1.3187  0.6922
  320MOL0     H42201  -0.491   9.728   3.978 -0.2516  0.5200 -0.2812
  320MOL0     H42202  -0.530   9.806   4.322  0.0122 -0.0301  1.7283
  320MOL0     H42203  -0.626   9.946   4.502 -5.4296  2.0356 -0.2943
  320MOL0     H42204  -0.509  10.533   4.591 -0.3684 -5.2953 -0.6247
  320MOL0     H42205  -0.624  10.742   4.673 -1.5443  0.8730 -2.0581
  320MOL0     H42206  -0.780  10.925   4.712 -1.2894  0.4520 -0.1150
  320MOL0     H42207  -0.753  10.815   4.851 -0.0508 -1.5315 -0.1283
  320MOL0     H42208  -1.020  10.938   4.817 -0.4821 -0.6454  0.9376
  320MOL0     H42209  -0.874  11.032   4.875  1.7063 -0.3603  0.0197
  320MOL0     H42210  -0.868  10.824   5.051 -0.9522 -1.1770  0.8903
  320MOL0     H42211  -1.031  10.802   4.985  0.2816  0.5292 -1.5542
  320MOL0     H42212  -0.980  11.068   5.082 -1.7764  0.3874  1.2836
  320MOL0     H42213  -1.124  10.974   5.056  0.2640  1.3730  0.1386
  320MOL0     H42214  -0.891  10.947   5.260  1.1019 -1.6467 -3.6377
  320MOL0     H42215  -1.034  10.848   5.260 -1.0297  0.6360  1.0129
  320MOL0     H42216  -1.180  11.056   5.271  0.3086 -1.2678 -1.3408
  320MOL0     H42217  -1.031  11.148   5.322 -2.4416  1.8447  1.3661
  320MOL0     H42218  -1.206  11.072   5.504 -0.5422 -0.8015  0.8009
  320MOL0     H42219  -1.153  10.900   5.461  0.2924  0.2704  1.8631
  320MOL0     H42220  -0.985  11.129   5.548 -2.3961  0.7458  0.6887
  320MOL0     H42221  -0.938  10.956   5.557  0.3803  0.5268  1.7113
  320MOL0     H42222  -0.995  10.538   4.677  1.0529  0.4655  4.2418
  320MOL0     H42223  -0.869  10.334   4.566 -0.1449 -1.5076  2.0969
  320MOL0     H42224  -0.556  10.296   4.253  0.5672 -0.3479  0.3330
  320MOL0     H42225  -0.507  10.139   4.070  1.4415 -4.6643 -1.2929
  320MOL0     H42226   0.274   8.610   3.866 -0.1213  0.2188  0.9258
  320MOL0     H42227   0.501   8.711   3.840  0.3412  0.2762 -1.1954
  320MOL0     H42228   0.814   8.983   3.783  2.7146 -1.6731  0.6483
  320MOL0     H42229   1.036   9.095   3.734 -0.4323 -0.2235 -0.8357
  320MOL0     H42230   1.251   9.022   3.571  2.6175  0.6269  1.1758
  320MOL0     H42231   1.255   9.186   3.645 -1.7486  0.2252  0.7987
  320MOL0     H42232   1.321   9.107   3.355 -3.9298  3.4393 -0.3114
  320MOL0     H42233   1.328   9.266   3.421 -0.7021  0.7917 -0.8505
  320MOL0     H42234   1.471   9.011   3.523  1.0933 -0.4681 -3.0946
  320MOL0     H42235   1.486   9.164   3.606  5.5475 -2.9389  1.1288
  320MOL0     H42236   1.552   9.263   3.380 -1.4208 -1.4945 -0.1122
  320MOL0     H42237   1.675   9.201   3.487 -0.2596 -0.7181  2.1757
  320MOL0     H42238   1.662   8.920   3.163  0.6588  0.9468 -0.8117
  320MOL0     H42239   0.963   9.045   3.328 -1.3804 -0.9806 -0.9824
  320MOL0     H42240   0.761   8.925   3.359  2.4464 -2.4848 -1.2543
  321MOL0     O42241   4.009   6.613   1.844  0.1884 -0.1600 -0.3668
  321MOL0     C42242   4.004   6.492   1.833 -0.1084  0.9090 -0.7619
  321MOL0     O42243   3.902   6.411   1.869 -0.2034  0.4588 -0.5012
  321MOL0     C42244   3.781   6.451   1.908 -0.3022 -0.6910 -0.2109
  321MOL0     C42245   3.719   6.572   1.862 -0.3552 -0.3197 -0.4777
  321MOL0     C42246   3.593   6.608   1.910  0.1667  1.2369 -0.4036
  321MOL0     C42247   3.531   6.527   2.005 -0.3529  0.5762  0.3455
  321MOL0     O42248   3.414   6.582   2.051 -0.2935 -0.4778  0.6536
  321MOL0     C42249   3.371   6.553   2.183  0.3268 -0.0088 -1.4438
  321MOL0     C42250   3.466   6.624   2.292  1.2719 -0.1954 -0.2391
  321MOL0     C42251   3.396   6.623   2.436  0.1406 -0.5270 -0.3032
  321MOL0     C42252   3.321   6.488   2.465 -0.4345 -0.5388 -0.3514
  321MOL0     C42253   3.265   6.482   2.607  0.3145  0.5081 -1.0618
  321MOL0     C42254   3.175   6.366   2.645 -0.3620 -1.1937 -0.5069
  321MOL0     C42255   3.226   6.235   2.590 -0.1665 -0.1994  0.9173
  321MOL0     C42256   3.113   6.135   2.625 -0.5880  0.0676  0.3198
  321MOL0     N42257   3.163   5.993   2.669 -0.6269 -1.0329  0.8651
  321MOL0     C42258   3.238   5.972   2.786 -0.4499  0.4739  0.4792
  321MOL0     C42259   3.252   5.835   2.790 -1.0161  0.5119 -0.3146
  321MOL0     C42260   3.337   5.764   2.887 -0.4765  0.1978 -0.3371
  321MOL0     C42261   3.264   5.722   3.017  0.1708  0.2980  1.0817
  321MOL0     C42262   3.351   5.633   3.108  0.1877 -0.8330 -0.0987
  321MOL0     C42263   3.281   5.600   3.238 -0.2592 -0.2987  0.4569
  321MOL0     O42264   3.175   5.514   3.203 -0.4089  0.0354 -1.3323
  321MOL0     C42265   3.108   5.441   3.300 -0.3554  0.0802  0.0546
  321MOL0     C42266   3.017   5.364   3.235  0.4990 -1.0738  0.6137
  321MOL0     C42267   2.925   5.289   3.318 -1.0544 -0.0724  0.7761
  321MOL0     C42268   2.911   5.308   3.457  0.0187  0.4706 -0.9758
  321MOL0     C42269   2.800   5.247   3.532  0.3914  0.5804 -0.1342
  321MOL0     O42270   2.728   5.150   3.476 -0.1972  0.2291 -0.7022
  321MOL0     C42271   2.620   5.102   3.554 -0.3475  0.1041  0.1424
  321MOL0     C42272   2.510   5.188   3.580 -0.0867 -0.0086  0.2278
  321MOL0     C42273   2.399   5.132   3.653 -0.2696  0.1651  0.0352
  321MOL0     C42274   2.407   4.997   3.696  0.0565 -0.6611 -0.0507
  321MOL0     O42275   2.290   4.965   3.763 -0.3072 -0.4108  0.0309
  321MOL0     C42276   2.239   4.836   3.737 -0.1281  0.8196  1.0329
  321MOL0     C42277   2.092   4.831   3.768 -0.5218  0.2832  0.3194
  321MOL0     C42278   2.026   4.690   3.723 -0.1970 -1.2773  0.2589
  321MOL0     C42279   1.952   4.730   3.601 -0.1372  0.8368  0.2484
  321MOL0     C42280   1.912   4.609   3.511  0.3235 -0.7057  0.7273
  321MOL0     C42281   1.828   4.505   3.583 -0.1092 -0.3498 -0.0576
  321MOL0     C42282   1.784   4.405   3.481 -0.9760 -0.3076  0.3161
  321MOL0     C42283   1.721   4.284   3.546  0.9878 -0.4644  0.9114
  321MOL0    Cl42284   1.862   4.172   3.588  0.1402  0.0325  0.1457
  321MOL0     C42285   2.517   4.914   3.676 -0.8641  0.0114  0.2403
  321MOL0     C42286   2.625   4.972   3.600 -0.0354 -0.2714 -0.1484
  321MOL0     O42287   2.781   5.289   3.645 -0.5010 -0.3087 -0.6337
  321MOL0     C42288   2.995   5.404   3.514  0.0408 -0.3353 -0.1263
  321MOL0     C42289   3.092   5.466   3.433 -0.6805  0.2448 -0.0303
  321MOL0     N42290   3.176   5.781   2.685 -0.5712 -0.2529 -0.1519
  321MOL0     N42291   3.116   5.877   2.615 -0.1563 -0.6632 -0.3097
  321MOL0     C42292   3.596   6.419   2.066 -0.2877 -0.4061  0.3539
  321MOL0     C42293   3.724   6.376   2.011  0.2216  0.2845 -0.1018
  321MOL0     C42294   4.117   6.439   1.762  1.3369 -0.1491  0.6870
  321MOL0     C42295   4.134   6.306   1.753  0.9419  1.0198 -0.4597
  321MOL0     C42296   4.248   6.246   1.701 -0.1925  0.2598  0.2774
  321MOL0     C42297   4.336   6.326   1.625  0.3438 -0.3415  0.0384
  321MOL0     O42298   4.432   6.246   1.562  0.8622  0.1420  0.0980
  321MOL0     C42299   4.547   6.302   1.509  0.7981 -0.1805  0.5608
  321MOL0     C42300   4.665   6.197   1.514 -0.4187  0.5605 -0.7381
  321MOL0     C42301   4.787   6.288   1.487  0.1379  0.0772  0.9655
  321MOL0     C42302   4.910   6.209   1.503  0.2760 -0.2664  0.4705
  321MOL0     C42303   4.953   6.208   1.637  0.1037  0.0857 -1.2282
  321MOL0     C42304   4.984   6.198   1.758 -0.2586 -0.5380 -0.8072
  321MOL0     C42305   4.320   6.463   1.627  0.4553 -0.7030 -0.0681
  321MOL0     C42306   4.212   6.522   1.698 -0.3610 -0.7504  0.0785
  321MOL0     H42307   3.775   6.633   1.792  1.0601 -2.5066 -1.3803
  321MOL0     H42308   3.548   6.703   1.885 -0.3076  0.8171 -1.1783
  321MOL0     H42309   3.376   6.445   2.194  0.2728  0.1287  0.2798
  321MOL0     H42310   3.265   6.578   2.196  0.4295  0.0709 -0.6924
  321MOL0     H42311   3.464   6.731   2.269 -2.0139  0.4786  2.4039
  321MOL0     H42312   3.571   6.593   2.299  1.8259  1.4417 -0.9168
  321MOL0     H42313   3.316   6.697   2.434  1.5837  1.1318  0.0445
  321MOL0     H42314   3.469   6.659   2.510 -1.3713  1.1785  0.4249
  321MOL0     H42315   3.242   6.477   2.391  0.3456 -0.3381 -1.2385
  321MOL0     H42316   3.383   6.398   2.462 -0.9871 -1.1913  3.2672
  321MOL0     H42317   3.220   6.576   2.638  0.1354  0.3573 -0.8636
  321MOL0     H42318   3.345   6.469   2.681 -1.2836 -0.5049  0.5772
  321MOL0     H42319   3.070   6.385   2.621 -0.3035  0.0065  0.1611
  321MOL0     H42320   3.188   6.357   2.753 -2.7126  1.4626  0.1184
  321MOL0     H42321   3.242   6.241   2.482  1.6541 -1.6496  1.0618
  321MOL0     H42322   3.327   6.215   2.629  1.3391 -0.3176 -2.6751
  321MOL0     H42323   3.037   6.121   2.546 -2.9186  2.4571  1.9732
  321MOL0     H42324   3.056   6.168   2.712 -4.0946  1.5679 -2.2582
  321MOL0     H42325   3.280   6.050   2.849 -0.0694 -0.3967  1.3290
  321MOL0     H42326   3.428   5.823   2.901 -0.5421  0.4751 -1.0781
  321MOL0     H42327   3.354   5.664   2.845 -0.4130 -3.0163  6.0102
  321MOL0     H42328   3.188   5.650   2.984 -1.5913  2.0980  0.9897
  321MOL0     H42329   3.221   5.811   3.064 -0.2027 -0.1612  1.6229
  321MOL0     H42330   3.396   5.552   3.050 -1.6115 -0.8898 -1.5067
  321MOL0     H42331   3.439   5.694   3.132  0.2814 -1.6104  1.6652
  321MOL0     H42332   3.243   5.691   3.286  0.8917 -0.8807  2.6143
  321MOL0     H42333   3.342   5.553   3.316 -0.4574  0.5460  1.1427
  321MOL0     H42334   3.022   5.361   3.126 -1.2568 -0.0414  0.4762
  321MOL0     H42335   2.858   5.222   3.266  0.6146 -0.4678 -1.0091
  321MOL0     H42336   2.507   5.293   3.554 -3.3259 -0.0088  0.2269
  321MOL0     H42337   2.305   5.185   3.669 -0.3146 -0.3350  1.5457
  321MOL0     H42338   2.290   4.762   3.799 -0.5017 -0.3195  0.0095
  321MOL0     H42339   2.260   4.812   3.632  0.8357  0.0211  1.3959
  321MOL0     H42340   2.047   4.923   3.729  0.5664  2.3045  3.4280
  321MOL0     H42341   2.074   4.833   3.876 -0.6291 -1.7721  0.3839
  321MOL0     H42342   1.955   4.648   3.794 -0.1982 -0.4960  0.7358
  321MOL0     H42343   2.111   4.621   3.720  3.1693  2.4044  1.8202
  321MOL0     H42344   1.856   4.778   3.622 -1.9950 -1.6411 -1.8864
  321MOL0     H42345   2.014   4.797   3.540  0.0323  0.2702 -0.2095
  321MOL0     H42346   1.996   4.563   3.458  0.3658 -1.9321  1.8231
  321MOL0     H42347   1.850   4.659   3.436  1.0655  2.0128  1.8069
  321MOL0     H42348   1.750   4.559   3.637  0.2330 -1.2812  1.4279
  321MOL0     H42349   1.888   4.453   3.658  3.4451  1.8553 -1.0747
  321MOL0     H42350   1.717   4.464   3.418 -2.2777 -0.9664  1.0362
  321MOL0     H42351   1.868   4.368   3.422 -0.0928  1.7922  0.1563
  321MOL0     H42352   1.660   4.227   3.474 -1.7122  0.8943  1.9983
  321MOL0     H42353   1.661   4.305   3.635  0.8276 -2.6163  1.3700
  321MOL0     H42354   2.521   4.810   3.707  1.4274 -0.2347 -0.6897
  321MOL0     H42355   2.719   4.919   3.591  0.7537  1.4259 -4.9766
  321MOL0     H42356   2.992   5.424   3.620 -0.5497  1.0215 -0.3805
  321MOL0     H42357   3.164   5.533   3.481 -2.1488  3.6678 -2.2221
  321MOL0     H42358   3.546   6.348   2.132 -1.8954  0.2472 -0.1116
  321MOL0     H42359   3.779   6.296   2.060  0.9374  0.0553 -1.2667
  321MOL0     H42360   4.054   6.248   1.800  1.2349  3.3529  3.3368
  321MOL0     H42361   4.254   6.137   1.699 -0.5260  0.1900 -3.2841
  321MOL0     H42362   4.578   6.384   1.574  0.2060  0.7387 -0.2896
  321MOL0     H42363   4.519   6.357   1.418  0.9789 -2.4490 -0.9690
  321MOL0     H42364   4.684   6.156   1.613  3.6996  4.4254  0.4155
  321MOL0     H42365   4.646   6.121   1.437  4.3693 -2.0468  0.2433
  321MOL0     H42366   4.784   6.370   1.559  0.4146 -0.6436  1.8254
  321MOL0     H42367   4.784   6.329   1.386  4.1846  1.4799  1.2544
  321MOL0     H42368   4.899   6.110   1.458  3.9786  0.3339 -2.2280
  321MOL0     H42369   4.982   6.259   1.437 -2.8437  2.7948 -0.8908
  321MOL0     H42370   5.014   6.174   1.859  1.4893  0.0415 -1.1528
  321MOL0     H42371   4.384   6.525   1.565  0.4877 -0.3907  0.2699
  321MOL0     H42372   4.186   6.627   1.700 -1.6240 -1.0341 -0.1842
  322MOL0     O42373   1.785   2.996   8.383 -0.1907 -0.0119 -0.0162
  322MOL0     C42374   1.846   2.967   8.276  0.6363 -0.6576 -0.1389
  322MOL0     O42375   1.906   3.074   8.198 -0.0143  0.4105 -0.1853
  322MOL0     C42376   1.912   3.205   8.244 -0.7510 -0.2733  0.5039
  322MOL0     C42377   1.878   3.304   8.155 -0.1757 -0.1931 -0.6756
  322MOL0     C42378   1.884   3.436   8.199  0.3522 -0.1075 -0.2792
  322MOL0     C42379   1.927   3.478   8.324 -0.0441 -0.0725  0.4718
  322MOL0     O42380   1.944   3.607   8.362  0.2663 -0.0938 -0.5991
  322MOL0     C42381   2.035   3.642   8.462 -0.1289 -0.0533  0.7824
  322MOL0     C42382   2.017   3.794   8.490  0.2679 -0.5777  0.2960
  322MOL0     C42383   1.888   3.833   8.570  0.2785 -0.0379 -0.3638
  322MOL0     C42384   1.885   3.985   8.575 -0.1741 -0.2349 -0.0362
  322MOL0     C42385   1.766   4.036   8.662 -0.1711  0.0955  0.3393
  322MOL0     C42386   1.761   4.183   8.689  0.0817 -0.4970 -0.2962
  322MOL0     C42387   1.661   4.253   8.599  0.8126  0.1318  0.2642
  322MOL0     C42388   1.675   4.404   8.591  0.3760  0.1606  0.0781
  322MOL0     N42389   1.658   4.462   8.725 -0.6536 -0.1722  1.0444
  322MOL0     C42390   1.538   4.460   8.793  0.7694 -0.1579  1.1250
  322MOL0     C42391   1.560   4.490   8.924  0.1457 -0.3944  1.3736
  322MOL0     C42392   1.455   4.489   9.033 -0.4425 -0.5312  0.8050
  322MOL0     C42393   1.433   4.620   9.105 -0.3170 -0.5707 -0.4585
  322MOL0     C42394   1.324   4.606   9.210  0.2405  0.0308  0.2656
  322MOL0     C42395   1.367   4.687   9.330  0.2322  0.1545 -0.8695
  322MOL0     O42396   1.273   4.658   9.446 -0.0878 -0.8921  0.0357
  322MOL0     C42397   1.287   4.724   9.565 -0.0926  0.4916 -0.1183
  322MOL0     C42398   1.188   4.703   9.665 -0.4451 -0.3082  0.0676
  322MOL0     C42399   1.200   4.757   9.792 -0.3495 -0.7899  0.6134
  322MOL0     C42400   1.320   4.829   9.820  1.6005 -0.3235 -0.3068
  322MOL0     C42401   1.334   4.881   9.962 -0.1287  0.1467 -0.5271
  322MOL0     O42402   1.462   4.885  10.005 -0.1093  0.4814  0.1052
  322MOL0     C42403   1.488   4.916  10.140 -0.6770  0.3543  1.0507
  322MOL0     C42404   1.442   4.833  10.247  0.5205 -0.5320 -0.4410
  322MOL0     C42405   1.495   4.844  10.378 -0.4996  0.7861 -0.0556
  322MOL0     C42406   1.585   4.947  10.405 -0.2613  0.2485 -0.5554
  322MOL0     O42407   1.644   4.985  10.529 -0.4080  0.3769  0.0536
  322MOL0     C42408   1.636   4.908  10.643  0.2544 -0.2059 -0.5965
  322MOL0     C42409   1.780   4.874  10.683  0.3959 -0.3613  0.2414
  322MOL0     C42410   1.798   4.807  10.821 -0.3722  1.5331 -0.5670
  322MOL0     C42411   1.946   4.832  10.868  0.4938 -0.4665  0.7242
  322MOL0     C42412   1.942   4.806  11.015  0.1346 -0.7026 -1.3520
  322MOL0     C42413   2.068   4.859  11.072 -0.6292 -1.1676 -1.0514
  322MOL0     C42414   2.114   4.785  11.204  0.8405 -1.0197 -0.9045
  322MOL0     C42415   2.004   4.804  11.303  0.2514 -0.0325 -0.1548
  322MOL0    Cl42416   2.068   4.772  11.463 -0.3974 -0.2357  0.3711
  322MOL0     C42417   1.627   5.032  10.296 -0.4147  0.7577  0.6752
  322MOL0     C42418   1.578   5.019  10.170 -0.5110 -0.8413  0.5860
  322MOL0     O42419   1.231   4.922  10.019 -0.7844 -0.3750  0.0273
  322MOL0     C42420   1.423   4.848   9.724  0.3271  0.6389 -0.3059
  322MOL0     C42421   1.398   4.812   9.592 -0.0209 -0.4934  0.5260
  322MOL0     N42422   1.704   4.503   8.935 -0.0115 -0.0833  0.0495
  322MOL0     N42423   1.757   4.482   8.817 -0.3781 -0.1179 -0.2519
  322MOL0     C42424   1.960   3.375   8.413 -0.7895 -0.3772  0.1109
  322MOL0     C42425   1.956   3.236   8.373  1.3128  0.3533  0.7226
  322MOL0     C42426   1.861   2.832   8.230  0.4415  0.1086 -0.6055
  322MOL0     C42427   1.893   2.800   8.093 -0.1262  0.3227 -0.0518
  322MOL0     C42428   1.901   2.661   8.050  0.0181  0.3897 -0.0120
  322MOL0     C42429   1.848   2.559   8.131 -0.1460  0.5175 -0.6208
  322MOL0     O42430   1.859   2.435   8.086  0.3266 -0.6130  0.1874
  322MOL0     C42431   1.804   2.323   8.161  0.7989 -1.8081 -0.6512
  322MOL0     C42432   1.804   2.200   8.078  0.4577 -0.2229  0.0959
  322MOL0     C42433   1.779   2.081   8.162 -0.7055  0.7665 -0.7855
  322MOL0     C42434   1.681   2.097   8.288 -0.0233  0.0380  0.5717
  322MOL0     C42435   1.549   2.127   8.229 -0.1433 -0.6779  0.1072
  322MOL0     C42436   1.446   2.137   8.171 -0.3924  1.2841 -0.1568
  322MOL0     C42437   1.816   2.593   8.267 -0.4136  0.3836  0.2428
  322MOL0     C42438   1.828   2.724   8.311 -0.7267 -0.3783 -0.1735
  322MOL0     H42439   1.834   3.285   8.057 -3.1920 -1.1908  0.7608
  322MOL0     H42440   1.844   3.510   8.130 -1.9533 -1.5522 -0.5739
  322MOL0     H42441   2.137   3.629   8.426 -1.1789  0.1384 -2.5499
  322MOL0     H42442   2.016   3.591   8.557  0.1410  2.7437  2.4599
  322MOL0     H42443   2.020   3.856   8.399 -2.0845 -2.1261 -0.9372
  322MOL0     H42444   2.103   3.825   8.550  1.1597 -1.6851 -0.3691
  322MOL0     H42445   1.893   3.784   8.668 -0.9881 -2.7462 -1.5479
  322MOL0     H42446   1.795   3.811   8.518  0.0108  2.3558 -0.9820
  322MOL0     H42447   1.972   4.033   8.621 -1.5580  0.7583  1.6387
  322MOL0     H42448   1.877   4.033   8.477  0.0907 -1.2508 -0.5710
  322MOL0     H42449   1.779   3.991   8.760 -0.0505 -0.6216  0.0033
  322MOL0     H42450   1.671   4.008   8.615  0.3244  0.7278 -1.1117
  322MOL0     H42451   1.863   4.223   8.681 -0.7142  1.4369 -1.6461
  322MOL0     H42452   1.722   4.213   8.787 -2.9528  1.8891 -2.0532
  322MOL0     H42453   1.666   4.206   8.501 -2.2786 -0.7896  0.4473
  322MOL0     H42454   1.561   4.231   8.636 -0.2103 -0.4649 -2.6109
  322MOL0     H42455   1.595   4.445   8.529  1.5964  0.3977 -1.3941
  322MOL0     H42456   1.769   4.431   8.541  0.5680  0.3484  0.5350
  322MOL0     H42457   1.436   4.442   8.761  1.1105  1.5131 -1.1499
  322MOL0     H42458   1.493   4.422   9.111  2.2025 -0.5929 -0.4271
  322MOL0     H42459   1.371   4.451   8.974  0.7850 -0.8490 -0.8018
  322MOL0     H42460   1.403   4.693   9.029  2.3705 -0.8691 -1.9055
  322MOL0     H42461   1.521   4.665   9.152 -0.5792  1.9004 -2.1738
  322MOL0     H42462   1.237   4.650   9.160  2.1584  3.7266 -0.1692
  322MOL0     H42463   1.306   4.500   9.228  1.8585 -0.5484 -1.2508
  322MOL0     H42464   1.364   4.795   9.309 -1.3386  0.8547  2.2845
  322MOL0     H42465   1.470   4.660   9.353  1.2024  0.1865 -4.5856
  322MOL0     H42466   1.108   4.631   9.649  0.2427 -0.5205 -2.7621
  322MOL0     H42467   1.121   4.740   9.864 -2.6948  0.2610 -1.5272
  322MOL0     H42468   1.370   4.757  10.215 -2.5381  1.1886  1.8577
  322MOL0     H42469   1.458   4.775  10.454 -1.2674  0.4323 -0.7325
  322MOL0     H42470   1.572   4.820  10.633  2.4312 -1.8868 -0.3321
  322MOL0     H42471   1.595   4.967  10.726  1.2526  2.6604 -1.9998
  322MOL0     H42472   1.855   4.954  10.683  1.8522 -1.6469 -1.2277
  322MOL0     H42473   1.815   4.803  10.609 -0.6658  0.3200 -0.9478
  322MOL0     H42474   1.779   4.699  10.824 -0.9025  1.6392  0.6993
  322MOL0     H42475   1.729   4.849  10.896  0.7686  1.9913  0.2568
  322MOL0     H42476   2.000   4.754  10.814 -0.1735  1.0200 -2.2974
  322MOL0     H42477   1.975   4.936  10.846  0.9958 -1.1329 -2.2848
  322MOL0     H42478   1.929   4.700  11.039  1.4075 -0.4953  0.4667
  322MOL0     H42479   1.860   4.853  11.070  0.2731  0.8879 -2.4347
  322MOL0     H42480   2.047   4.964  11.094 -0.6116 -0.9708 -1.9181
  322MOL0     H42481   2.147   4.865  10.996  0.8278  1.4214  0.5429
  322MOL0     H42482   2.152   4.683  11.191 -0.6664 -1.7538  0.2162
  322MOL0     H42483   2.200   4.842  11.240 -0.1562 -1.1468  1.8711
  322MOL0     H42484   1.919   4.736  11.290  1.1439 -1.3897  0.9242
  322MOL0     H42485   1.966   4.907  11.304 -1.2372 -0.5436  1.0282
  322MOL0     H42486   1.714   5.096  10.304  1.4741 -1.7969  2.2206
  322MOL0     H42487   1.607   5.071  10.080 -2.3067 -2.4388 -0.9933
  322MOL0     H42488   1.517   4.901   9.734 -0.5365  2.7185 -2.1459
  322MOL0     H42489   1.465   4.850   9.516 -2.4478  0.6688 -1.1531
  322MOL0     H42490   1.994   3.386   8.516 -1.2749 -1.0362  0.3466
  322MOL0     H42491   1.986   3.163   8.448  0.5940 -0.2658  0.4223
  322MOL0     H42492   1.917   2.877   8.021 -0.7006 -0.4089 -1.0619
  322MOL0     H42493   1.941   2.635   7.952  1.7755  2.0511  0.1974
  322MOL0     H42494   1.704   2.354   8.194  1.6995  1.8020 -0.8610
  322MOL0     H42495   1.866   2.309   8.250  0.5563  2.0748  0.3102
  322MOL0     H42496   1.728   2.208   8.000 -0.5604 -0.4582  1.0386
  322MOL0     H42497   1.897   2.196   8.022  1.1760  1.5107  1.0548
  322MOL0     H42498   1.875   2.050   8.204 -0.8815 -1.1300 -1.7039
  322MOL0     H42499   1.743   2.004   8.093 -1.0004 -0.5651  0.7914
  322MOL0     H42500   1.673   2.004   8.344  0.4806  0.3801  1.2296
  322MOL0     H42501   1.712   2.172   8.362  0.1237 -1.0182  1.6160
  322MOL0     H42502   1.357   2.152   8.113  1.0080  0.7921 -2.5923
  322MOL0     H42503   1.764   2.518   8.325 -0.5758 -0.4163 -0.9184
  322MOL0     H42504   1.808   2.749   8.415 -1.4996 -1.2592 -0.0937
  323MOL0     O42505   1.463   7.823  10.804 -0.0211  0.1933  0.0039
  323MOL0     C42506   1.417   7.745  10.722  0.0160 -0.2064  0.3572
  323MOL0     O42507   1.323   7.650  10.751 -0.5502 -0.4155  0.1280
  323MOL0     C42508   1.275   7.647  10.876 -0.4845  0.1775 -0.5936
  323MOL0     C42509   1.312   7.536  10.966  0.5282 -0.5808  0.4942
  323MOL0     C42510   1.269   7.537  11.102  0.2963 -0.4074 -0.1225
  323MOL0     C42511   1.182   7.629  11.152 -0.5850  0.5678 -0.3106
  323MOL0     O42512   1.146   7.611  11.285 -0.2150  0.0936  0.2693
  323MOL0     C42513   1.035   7.680  11.336  0.4943 -0.2440 -0.6571
  323MOL0     C42514   0.998   7.645  11.481  0.5363 -0.1450  0.0239
  323MOL0     C42515   1.119   7.621  11.571 -0.1044 -0.3986 -0.5456
  323MOL0     C42516   1.064   7.610  11.703  0.4471  0.1256 -1.0355
  323MOL0     C42517   1.175   7.561  11.804 -0.6653  0.2583 -0.1234
  323MOL0     C42518   1.227   7.418  11.779 -0.5269 -0.6922  0.4866
  323MOL0     C42519   1.120   7.303  11.787 -0.3326  0.2096 -0.5095
  323MOL0     C42520   1.155   7.173  11.711  0.3436  0.0466  1.5712
  323MOL0     N42521   1.180   7.187  11.567  1.1228  0.6609 -0.0657
  323MOL0     C42522   1.080   7.172  11.469 -0.7226  0.3188 -0.2720
  323MOL0     C42523   1.144   7.208  11.356  0.8765  0.3810  0.1973
  323MOL0     C42524   1.084   7.210  11.213  0.1176  0.4467  0.0809
  323MOL0     C42525   1.052   7.071  11.165 -0.4786  0.2961 -0.3453
  323MOL0     C42526   0.935   7.066  11.070 -0.4644  0.6479 -0.2793
  323MOL0     C42527   0.985   7.060  10.927  0.4738 -0.1881 -1.1565
  323MOL0     O42528   1.029   7.189  10.899 -0.3580 -0.1753 -0.8072
  323MOL0     C42529   1.052   7.222  10.766 -0.5211 -0.2055 -0.1030
  323MOL0     C42530   1.021   7.156  10.648  0.6295  1.1930 -0.7613
  323MOL0     C42531   1.031   7.214  10.525  0.2828  0.1781  0.4005
  323MOL0     C42532   1.086   7.345  10.507  0.0044  0.2084  0.2487
  323MOL0     C42533   1.110   7.414  10.386 -0.4277  0.3904  0.2864
  323MOL0     O42534   1.104   7.333  10.264 -0.5219 -0.1702  0.3076
  323MOL0     C42535   1.132   7.400  10.144 -0.3355 -0.1693  0.3008
  323MOL0     C42536   1.256   7.454  10.128  0.1552  0.0901 -1.1541
  323MOL0     C42537   1.300   7.496  10.006  0.8267 -0.6478 -0.1008
  323MOL0     C42538   1.218   7.482   9.887  0.2579 -0.2867  0.8356
  323MOL0     O42539   1.259   7.555   9.779 -0.2837 -0.7095 -0.0807
  323MOL0     C42540   1.226   7.499   9.652  0.0116  0.4574  0.8697
  323MOL0     C42541   1.275   7.593   9.541  0.4321 -0.4480 -0.0184
  323MOL0     C42542   1.222   7.738   9.566  0.2852  0.2829 -0.1850
  323MOL0     C42543   1.295   7.826   9.659 -0.8826 -0.6463 -0.2201
  323MOL0     C42544   1.264   7.973   9.645  0.1977  0.1704 -0.9420
  323MOL0     C42545   1.337   8.063   9.746 -0.2710 -0.5995 -1.2015
  323MOL0     C42546   1.289   8.064   9.896  0.1640  0.5875 -0.5561
  323MOL0     C42547   1.325   8.195   9.973  0.4970 -0.1415  0.4672
  323MOL0    Cl42548   1.501   8.189  10.006 -0.5160 -0.4195 -0.0276
  323MOL0     C42549   1.091   7.423   9.912  0.5859  0.8491  0.3023
  323MOL0     C42550   1.052   7.369  10.032  0.6584  0.1169 -0.7889
  323MOL0     O42551   1.121   7.537  10.392 -0.1008 -0.0520 -0.6847
  323MOL0     C42552   1.125   7.407  10.634 -0.3304 -0.5902  0.5422
  323MOL0     C42553   1.107   7.342  10.754 -0.8850  0.3319  0.6927
  323MOL0     N42554   1.277   7.221  11.382 -0.4836 -0.2798 -0.1353
  323MOL0     N42555   1.297   7.201  11.507  0.5583 -0.6604  0.0063
  323MOL0     C42556   1.149   7.741  11.073  0.1697  0.0146  0.5440
  323MOL0     C42557   1.190   7.738  10.932  0.2489 -0.2844 -0.1178
  323MOL0     C42558   1.470   7.755  10.581 -0.2276 -0.4996  0.1213
  323MOL0     C42559   1.553   7.865  10.546  0.1363  0.6409  0.6295
  323MOL0     C42560   1.578   7.893  10.415  0.2268  0.3637 -0.6404
  323MOL0     C42561   1.528   7.821  10.314  0.4767 -0.2174  0.7863
  323MOL0     O42562   1.542   7.869  10.184 -0.6134  0.5827 -0.4176
  323MOL0     C42563   1.665   7.842  10.118 -0.2916  0.5887 -1.3413
  323MOL0     C42564   1.675   7.909   9.976 -0.4490 -0.0540 -0.5114
  323MOL0     C42565   1.804   7.866   9.907  0.0655  0.2207 -0.0288
  323MOL0     C42566   1.824   7.926   9.765  0.3267 -0.0519  0.5901
  323MOL0     C42567   1.741   7.842   9.681  0.1284  1.1298 -0.5380
  323MOL0     C42568   1.671   7.761   9.617  0.6000 -0.0679 -0.7307
  323MOL0     C42569   1.441   7.715  10.340 -0.7448  1.0922  1.0548
  323MOL0     C42570   1.409   7.683  10.473 -0.2245 -0.4885 -0.2265
  323MOL0     H42571   1.368   7.457  10.916 -1.2068 -0.1207 -2.3501
  323MOL0     H42572   1.317   7.460  11.161 -0.1561 -0.4702  0.1717
  323MOL0     H42573   0.951   7.667  11.267  0.0183  1.6815 -0.5097
  323MOL0     H42574   1.053   7.788  11.338 -2.8194  0.3893  0.4467
  323MOL0     H42575   0.948   7.548  11.484  2.2895 -1.3484 -3.5591
  323MOL0     H42576   0.939   7.728  11.520  1.9447 -0.1574  2.3899
  323MOL0     H42577   1.188   7.705  11.563 -1.1776  0.7712  1.5550
  323MOL0     H42578   1.167   7.531  11.530  0.9100  0.8508 -2.2404
  323MOL0     H42579   1.053   7.714  11.736  5.2058 -0.1462  2.6125
  323MOL0     H42580   0.977   7.544  11.713  2.0088 -1.7362  2.2202
  323MOL0     H42581   1.143   7.571  11.908  2.1874 -1.2288  1.0271
  323MOL0     H42582   1.264   7.624  11.796 -0.6560  0.2221 -0.3232
  323MOL0     H42583   1.300   7.398  11.859 -0.3422 -1.5958  0.0986
  323MOL0     H42584   1.278   7.424  11.683 -1.2794  1.4943  0.1689
  323MOL0     H42585   1.103   7.279  11.892 -0.2119 -2.8431 -1.0990
  323MOL0     H42586   1.024   7.333  11.744 -0.8558  0.6404  0.9241
  323MOL0     H42587   1.071   7.108  11.737  0.7469 -1.9714 -1.5863
  323MOL0     H42588   1.246   7.132  11.754  0.5253 -0.3158  0.8696
  323MOL0     H42589   0.973   7.156  11.478 -0.9638  1.8129 -0.2500
  323MOL0     H42590   1.151   7.270  11.151  2.0452  0.0657  1.7110
  323MOL0     H42591   0.994   7.271  11.230  0.7831  1.4379  0.1467
  323MOL0     H42592   1.023   7.015  11.255  2.7236  1.1634  1.4000
  323MOL0     H42593   1.144   7.023  11.130 -1.3875 -0.3143 -1.9890
  323MOL0     H42594   0.882   6.974  11.097  0.5704 -0.0646 -0.5749
  323MOL0     H42595   0.861   7.145  11.076 -1.1676  0.0200 -0.5651
  323MOL0     H42596   0.901   7.034  10.861  0.0761  0.9594 -1.1136
  323MOL0     H42597   1.060   6.981  10.911 -0.3891 -1.1491 -0.5659
  323MOL0     H42598   0.977   7.057  10.647 -1.5087  2.0283  1.1453
  323MOL0     H42599   0.987   7.160  10.442 -0.9969  0.8196  0.6424
  323MOL0     H42600   1.318   7.482  10.212 -2.2264  0.1876  0.6545
  323MOL0     H42601   1.396   7.542   9.986  0.8141 -0.8664 -0.6855
  323MOL0     H42602   1.119   7.477   9.639  0.7387 -2.5921 -1.1163
  323MOL0     H42603   1.272   7.401   9.638  3.1623  1.7772  1.3089
  323MOL0     H42604   1.246   7.567   9.438  0.8446 -0.2187 -0.1928
  323MOL0     H42605   1.384   7.599   9.543  0.5548 -1.8322 -1.2467
  323MOL0     H42606   1.118   7.729   9.598 -0.4371 -1.5364 -2.7210
  323MOL0     H42607   1.229   7.787   9.469 -2.0799  2.0572  0.4288
  323MOL0     H42608   1.261   7.795   9.758 -3.4751 -1.3348 -1.2653
  323MOL0     H42609   1.405   7.830   9.658 -0.9104  0.5129 -1.1778
  323MOL0     H42610   1.159   7.982   9.675  0.2072 -1.4893 -0.2906
  323MOL0     H42611   1.274   8.006   9.541 -0.9399 -1.2795 -1.5565
  323MOL0     H42612   1.326   8.164   9.705  1.6183  0.5102  0.8507
  323MOL0     H42613   1.442   8.032   9.747  0.4467  1.6242  0.7585
  323MOL0     H42614   1.184   8.035   9.894  0.1544  0.6361 -1.5962
  323MOL0     H42615   1.331   7.976   9.944 -2.2616 -0.3939 -0.1088
  323MOL0     H42616   1.276   8.211  10.069  4.6260  0.4195  2.7171
  323MOL0     H42617   1.304   8.281   9.907 -1.8025  0.5407  1.9614
  323MOL0     H42618   1.025   7.403   9.828  0.1106  0.9188  0.6536
  323MOL0     H42619   0.958   7.315  10.037  1.2032 -0.8330 -0.5703
  323MOL0     H42620   1.173   7.504  10.647 -0.8175 -0.3794  0.8199
  323MOL0     H42621   1.132   7.397  10.844 -0.9429  3.7420 -1.1886
  323MOL0     H42622   1.074   7.809  11.113  2.8062  2.9769  0.8212
  323MOL0     H42623   1.147   7.816  10.870  2.6075  2.1536  1.0406
  323MOL0     H42624   1.587   7.929  10.627 -1.9734  2.3950  0.2335
  323MOL0     H42625   1.641   7.976  10.385 -0.6328  1.2645 -0.0057
  323MOL0     H42626   1.674   7.735  10.099 -0.0929  0.7676 -2.3264
  323MOL0     H42627   1.743   7.871  10.189 -1.5909 -1.9440  1.3450
  323MOL0     H42628   1.586   7.879   9.919 -2.3894  1.5220  1.5087
  323MOL0     H42629   1.672   8.018   9.978  0.1434 -0.0376  1.0050
  323MOL0     H42630   1.806   7.756   9.901  3.0935  0.2186 -0.3013
  323MOL0     H42631   1.889   7.901   9.966 -0.3260 -0.1662  0.7925
  323MOL0     H42632   1.792   8.029   9.752 -2.3564 -0.6837  1.5787
  323MOL0     H42633   1.925   7.894   9.740  1.1402 -1.0089  4.3493
  323MOL0     H42634   1.617   7.693   9.553  1.4496  0.1204 -1.6813
  323MOL0     H42635   1.395   7.648  10.268  1.8291 -2.4566  2.3849
  323MOL0     H42636   1.324   7.619  10.495 -1.0156  0.2652 -0.9858
  324MOL0     O42637   6.190   5.498   3.219 -0.6337  1.1539  0.8599
  324MOL0     C42638   6.213   5.599   3.275  0.4685  0.2456 -0.1989
  324MOL0     O42639   6.115   5.671   3.336 -0.2628 -0.4693 -0.3591
  324MOL0     C42640   5.985   5.644   3.313 -0.1386  0.3579  0.1775
  324MOL0     C42641   5.910   5.702   3.217 -0.3843 -0.8144 -0.3069
  324MOL0     C42642   5.781   5.654   3.187 -0.4336  0.2165  1.2183
  324MOL0     C42643   5.720   5.552   3.260 -0.3140 -0.7506  0.0444
  324MOL0     O42644   5.596   5.506   3.231 -0.7708 -0.0199  0.0024
  324MOL0     C42645   5.601   5.385   3.152 -0.3267 -0.7385 -0.2932
  324MOL0     C42646   5.485   5.293   3.176  0.1850  0.7406 -1.5445
  324MOL0     C42647   5.518   5.164   3.118 -0.4251  0.2812 -0.2699
  324MOL0     C42648   5.412   5.049   3.141  0.8320 -0.1205  0.4500
  324MOL0     C42649   5.458   4.905   3.114 -0.7308 -0.4758  1.2126
  324MOL0     C42650   5.398   4.843   2.980 -0.0890  0.7298  0.4465
  324MOL0     C42651   5.495   4.839   2.860  0.4562 -0.8438 -0.3986
  324MOL0     C42652   5.455   4.736   2.749 -0.5098  0.1538  0.7093
  324MOL0     N42653   5.563   4.732   2.641  0.0610  0.4167  0.7513
  324MOL0     C42654   5.541   4.764   2.513 -1.1830 -0.7368  0.4826
  324MOL0     C42655   5.658   4.737   2.460 -0.3772 -0.3712 -0.5927
  324MOL0     C42656   5.681   4.765   2.308 -1.0001  0.0456 -0.0851
  324MOL0     C42657   5.599   4.683   2.213  0.6319 -0.0136 -0.6737
  324MOL0     C42658   5.575   4.548   2.261 -0.0916 -0.5495 -0.3233
  324MOL0     C42659   5.541   4.466   2.132 -0.6024  0.2538 -0.4478
  324MOL0     O42660   5.438   4.526   2.060  0.7652  1.1887  0.1654
  324MOL0     C42661   5.400   4.476   1.934 -0.4336 -0.2891 -0.5358
  324MOL0     C42662   5.296   4.540   1.867  0.1369 -0.0798  0.6628
  324MOL0     C42663   5.244   4.486   1.751  0.4450  0.9409  0.5066
  324MOL0     C42664   5.301   4.370   1.693  0.0901 -0.4750 -0.6009
  324MOL0     C42665   5.240   4.305   1.574 -0.2483  0.2816  0.4963
  324MOL0     O42666   5.123   4.356   1.523  0.2367 -0.9201 -0.5703
  324MOL0     C42667   5.069   4.290   1.423  0.3442  0.3425 -0.0470
  324MOL0     C42668   5.117   4.312   1.294  1.0754 -0.5013 -0.3565
  324MOL0     C42669   5.038   4.267   1.189 -0.7560  0.5405  0.1972
  324MOL0     C42670   4.926   4.189   1.200  0.8274 -0.3426 -0.7180
  324MOL0     O42671   4.852   4.136   1.092  0.1317  0.1139  0.1624
  324MOL0     C42672   4.818   4.235   0.998  0.9864 -0.3389  0.6569
  324MOL0     C42673   4.710   4.185   0.905  1.1004  0.2081  0.3775
  324MOL0     C42674   4.566   4.177   0.963  0.3958  0.5895 -0.8086
  324MOL0     C42675   4.467   4.108   0.863  0.2701  0.8901 -0.4873
  324MOL0     C42676   4.462   3.960   0.888 -0.1490 -0.6607  0.2355
  324MOL0     C42677   4.411   3.879   0.772  1.6243 -0.3252  1.6917
  324MOL0     C42678   4.251   3.872   0.753 -1.6143  0.7080 -0.0686
  324MOL0     C42679   4.193   4.010   0.715 -0.0090 -0.3281  0.8716
  324MOL0    Cl42680   4.259   4.079   0.558 -0.0431 -0.0738 -0.3101
  324MOL0     C42681   4.883   4.148   1.334  0.3083 -1.2270 -0.0845
  324MOL0     C42682   4.959   4.200   1.442 -0.5627  0.1183 -0.5867
  324MOL0     O42683   5.300   4.207   1.519  0.3359 -1.1121 -0.3226
  324MOL0     C42684   5.415   4.321   1.752 -0.2300  0.4707 -0.8278
  324MOL0     C42685   5.464   4.373   1.874  0.0960  0.0757  0.2816
  324MOL0     N42686   5.746   4.681   2.549  0.4723 -0.2756  0.0032
  324MOL0     N42687   5.686   4.676   2.664  0.4417 -0.2967 -0.1325
  324MOL0     C42688   5.797   5.494   3.368  0.2266 -0.2023 -1.1345
  324MOL0     C42689   5.930   5.535   3.391  0.6015 -0.6718  1.0828
  324MOL0     C42690   6.348   5.657   3.257 -0.1466 -0.1318  0.8277
  324MOL0     C42691   6.378   5.773   3.317 -0.2284 -0.3271 -0.7696
  324MOL0     C42692   6.509   5.817   3.307  0.3831  0.2496  0.6981
  324MOL0     C42693   6.603   5.769   3.206 -0.0791  0.7855  0.2428
  324MOL0     O42694   6.730   5.817   3.186 -0.3823  0.8456 -0.5056
  324MOL0     C42695   6.778   5.917   3.269  0.9465 -0.2236  0.5756
  324MOL0     C42696   6.712   6.044   3.206  0.8846  0.6100 -0.6993
  324MOL0     C42697   6.781   6.173   3.224 -0.2684 -0.7555 -1.0671
  324MOL0     C42698   6.794   6.219   3.367 -0.1582  0.5407  1.4312
  324MOL0     C42699   6.879   6.136   3.449 -0.4082  0.8838 -0.1017
  324MOL0     C42700   6.947   6.069   3.531  0.0604 -0.1565  0.2982
  324MOL0     C42701   6.559   5.660   3.128 -0.2688  0.0397  0.2247
  324MOL0     C42702   6.441   5.596   3.170 -0.0183 -0.8730  0.4358
  324MOL0     H42703   5.935   5.788   3.155 -0.9097  0.5904  1.3421
  324MOL0     H42704   5.728   5.712   3.112  0.8095  2.8456  2.2328
  324MOL0     H42705   5.699   5.337   3.162 -0.4772 -1.4742 -1.8781
  324MOL0     H42706   5.593   5.419   3.048  0.8279 -2.4561 -1.0123
  324MOL0     H42707   5.397   5.342   3.133 -1.7628 -0.0696  1.2018
  324MOL0     H42708   5.467   5.275   3.283 -0.9312 -0.5470 -1.9143
  324MOL0     H42709   5.615   5.132   3.157  0.5902 -0.4807 -3.1303
  324MOL0     H42710   5.545   5.182   3.013  2.7490 -0.4644  0.3133
  324MOL0     H42711   5.390   5.058   3.248  3.9993  3.9471  0.9967
  324MOL0     H42712   5.320   5.061   3.082 -0.1610 -0.0216  1.9604
  324MOL0     H42713   5.446   4.838   3.199 -0.8816 -0.2259  1.3903
  324MOL0     H42714   5.564   4.904   3.084 -1.6064 -5.1223 -3.0870
  324MOL0     H42715   5.302   4.890   2.956  0.9602  2.7846  0.0276
  324MOL0     H42716   5.370   4.740   3.004 -2.5272  1.6912  2.2374
  324MOL0     H42717   5.505   4.943   2.830 -1.0613 -0.0836  1.5642
  324MOL0     H42718   5.592   4.805   2.897 -0.2668  0.3157  2.8778
  324MOL0     H42719   5.358   4.762   2.706  0.4375 -0.2153 -1.8265
  324MOL0     H42720   5.460   4.633   2.786 -2.6150 -0.1942  0.1361
  324MOL0     H42721   5.454   4.799   2.458  0.1363 -0.6411 -1.6577
  324MOL0     H42722   5.787   4.742   2.290 -0.7790  2.4080 -2.2885
  324MOL0     H42723   5.672   4.872   2.292 -0.0967  0.3903  1.4133
  324MOL0     H42724   5.649   4.680   2.116 -1.8085  0.6370 -2.0467
  324MOL0     H42725   5.507   4.738   2.192 -0.5255 -2.8596 -4.2151
  324MOL0     H42726   5.658   4.515   2.325 -0.6600 -0.5460  0.4264
  324MOL0     H42727   5.486   4.553   2.325  0.0686  2.7004 -0.1839
  324MOL0     H42728   5.499   4.372   2.171  2.8344 -0.3180  2.3548
  324MOL0     H42729   5.629   4.442   2.073  1.8921  2.2255  2.2215
  324MOL0     H42730   5.250   4.621   1.923 -0.4879 -2.0600  3.1941
  324MOL0     H42731   5.156   4.531   1.705  0.7579 -0.3345 -1.4920
  324MOL0     H42732   5.197   4.386   1.287  2.5890 -1.7525  2.1247
  324MOL0     H42733   5.073   4.289   1.089  0.4743 -0.6209  0.3466
  324MOL0     H42734   4.908   4.249   0.938 -1.6659  3.2388 -3.0487
  324MOL0     H42735   4.797   4.336   1.035  0.9591 -0.6607  1.5439
  324MOL0     H42736   4.728   4.079   0.885 -1.7916 -0.6353  1.6260
  324MOL0     H42737   4.705   4.246   0.814  1.9899  0.3367  0.4115
  324MOL0     H42738   4.531   4.278   0.985 -0.0294  0.2244  0.2691
  324MOL0     H42739   4.576   4.124   1.058 -1.2690 -0.2750 -1.0645
  324MOL0     H42740   4.367   4.149   0.878 -0.0824  0.5506 -1.7769
  324MOL0     H42741   4.501   4.120   0.759 -1.3387 -0.7081 -1.2601
  324MOL0     H42742   4.404   3.933   0.977  1.1388 -0.7579  1.0651
  324MOL0     H42743   4.563   3.926   0.912 -0.5447 -0.0018  3.2482
  324MOL0     H42744   4.439   3.776   0.795 -2.2120 -1.3367  2.3937
  324MOL0     H42745   4.456   3.907   0.676  1.3107  0.6408  1.8182
  324MOL0     H42746   4.230   3.800   0.674  0.3961  0.3088 -0.2918
  324MOL0     H42747   4.204   3.837   0.846 -2.5612  2.3356  0.1207
  324MOL0     H42748   4.210   4.091   0.786 -2.0330  0.9905 -0.0458
  324MOL0     H42749   4.088   3.998   0.687  1.0304 -0.7338 -3.6219
  324MOL0     H42750   4.788   4.094   1.335 -0.5417  0.2103  1.3666
  324MOL0     H42751   4.916   4.179   1.540  0.7905  1.9391  0.4683
  324MOL0     H42752   5.469   4.232   1.719 -1.6031 -1.9923  2.8583
  324MOL0     H42753   5.546   4.311   1.906  0.3673 -2.1563 -3.9588
  324MOL0     H42754   5.762   5.405   3.419 -0.0049  1.8079  2.6257
  324MOL0     H42755   5.995   5.491   3.466  1.9695  2.3610  1.8106
  324MOL0     H42756   6.313   5.827   3.385  2.5823  2.5325 -0.1055
  324MOL0     H42757   6.539   5.889   3.382 -0.5283  0.6712  0.6695
  324MOL0     H42758   6.886   5.911   3.253  0.7400 -0.0905 -0.9880
  324MOL0     H42759   6.747   5.903   3.373  4.1880  2.2022  2.0569
  324MOL0     H42760   6.704   6.022   3.099 -0.9584 -4.5837  0.2252
  324MOL0     H42761   6.615   6.046   3.256  0.5615 -0.7565 -1.2259
  324MOL0     H42762   6.720   6.251   3.177  3.6866  0.9434 -3.8773
  324MOL0     H42763   6.873   6.175   3.165 -0.1404 -1.2086 -0.8909
  324MOL0     H42764   6.826   6.323   3.377  1.5503  0.4823 -2.0275
  324MOL0     H42765   6.697   6.225   3.417 -0.3251  2.5654  0.9422
  324MOL0     H42766   7.002   6.007   3.598  0.1099 -0.8924 -0.4171
  324MOL0     H42767   6.619   5.613   3.051  0.4876  2.2001 -0.5805
  324MOL0     H42768   6.426   5.501   3.121  0.3769  0.6826 -3.0515
  325MOL0     O42769   0.774   8.344  10.580 -0.9415 -0.0156 -0.2477
  325MOL0     C42770   0.728   8.425  10.656 -0.3670  0.5479  0.0631
  325MOL0     O42771   0.795   8.523  10.724 -0.1227 -0.1726 -0.4265
  325MOL0     C42772   0.904   8.577  10.678 -0.3176 -0.1779  0.2776
  325MOL0     C42773   0.905   8.640  10.552  0.8694  0.0987 -0.1072
  325MOL0     C42774   1.022   8.696  10.510  0.0777  0.9487  0.4146
  325MOL0     C42775   1.129   8.717  10.594 -0.4784 -0.0126  1.0301
  325MOL0     O42776   1.243   8.775  10.533  0.0348  0.0717 -0.2925
  325MOL0     C42777   1.369   8.706  10.550 -0.1807 -0.6336 -0.5701
  325MOL0     C42778   1.449   8.780  10.654 -0.1547  0.0835 -0.7379
  325MOL0     C42779   1.597   8.748  10.637  0.3696  0.5531  0.0843
  325MOL0     C42780   1.673   8.821  10.742  0.0524  1.0546  0.3515
  325MOL0     C42781   1.820   8.827  10.714 -0.2681 -0.8242  0.3431
  325MOL0     C42782   1.905   8.872  10.827  0.3656 -0.2852  0.9665
  325MOL0     C42783   1.866   9.015  10.874  1.3028 -0.4865 -1.4328
  325MOL0     C42784   1.983   9.074  10.948  0.3274 -0.4478  0.1442
  325MOL0     N42785   2.081   9.122  10.854 -0.5849 -0.7735  0.1897
  325MOL0     C42786   2.105   9.257  10.828 -1.2538 -0.0293  0.0377
  325MOL0     C42787   2.232   9.253  10.799  0.9195  0.2941  0.5162
  325MOL0     C42788   2.309   9.377  10.780 -0.8072 -0.0056  0.3596
  325MOL0     C42789   2.456   9.357  10.825 -0.7112  0.1403  0.5945
  325MOL0     C42790   2.513   9.488  10.876 -0.3535 -0.0427  0.2411
  325MOL0     C42791   2.535   9.586  10.746 -0.0681  1.0183  0.9248
  325MOL0     O42792   2.589   9.707  10.808  0.5410  0.0820 -0.1394
  325MOL0     C42793   2.503   9.810  10.815 -0.4735 -0.4445 -0.1967
  325MOL0     C42794   2.468   9.872  10.706  1.0287 -0.3311  0.7106
  325MOL0     C42795   2.395   9.992  10.714  0.7036 -0.4218  0.1446
  325MOL0     C42796   2.350  10.035  10.839  0.6656 -0.5451  1.8117
  325MOL0     C42797   2.256  10.160  10.836 -0.1189 -0.1001 -0.4406
  325MOL0     O42798   2.192  10.184  10.956  0.0134 -0.3946  0.0325
  325MOL0     C42799   2.080  10.250  10.963 -0.4289 -0.3135  0.3490
  325MOL0     C42800   1.974  10.226  10.870  0.3566 -0.0609 -0.2649
  325MOL0     C42801   1.852  10.297  10.883 -1.0771 -0.9025  0.1355
  325MOL0     C42802   1.842  10.402  10.969 -0.3909 -0.0328  0.5743
  325MOL0     O42803   1.730  10.476  10.955 -0.1174 -0.7135 -0.4260
  325MOL0     C42804   1.668  10.529  11.076  0.0069 -0.1310 -1.1476
  325MOL0     C42805   1.556  10.637  11.068  0.8171 -0.4129 -0.1802
  325MOL0     C42806   1.505  10.682  11.214 -0.0294  0.3932  0.0476
  325MOL0     C42807   1.372  10.742  11.209  1.1760  0.1230 -0.4095
  325MOL0     C42808   1.337  10.802  11.346 -0.4440 -0.4539  0.7117
  325MOL0     C42809   1.307  10.704  11.464  0.2032 -0.3532 -0.2559
  325MOL0     C42810   1.184  10.618  11.446  0.0742 -0.0963 -0.1392
  325MOL0     C42811   1.127  10.535  11.555  0.0963 -0.2933  0.0225
  325MOL0    Cl42812   1.273  10.435  11.592 -0.0635  0.0748 -0.0288
  325MOL0     C42813   1.947  10.424  11.053  1.1548 -1.3876 -0.0727
  325MOL0     C42814   2.057  10.352  11.052  0.3179  0.7800 -0.3740
  325MOL0     O42815   2.262  10.240  10.743  0.8647  0.2861  0.1219
  325MOL0     C42816   2.375   9.955  10.954  0.0385  0.1024  0.6046
  325MOL0     C42817   2.467   9.851  10.945 -0.1863 -0.2677 -0.6424
  325MOL0     N42818   2.280   9.127  10.800  0.0162  0.6270  0.1619
  325MOL0     N42819   2.188   9.042  10.830 -0.2137  0.3010  1.2261
  325MOL0     C42820   1.118   8.681  10.731 -0.7747  0.6182 -0.3564
  325MOL0     C42821   1.011   8.600  10.765 -0.0758 -0.7495 -0.7120
  325MOL0     C42822   0.589   8.404  10.711  0.1755  0.2603 -0.3430
  325MOL0     C42823   0.502   8.309  10.646 -0.6396 -0.4542  0.7834
  325MOL0     C42824   0.370   8.301  10.693  0.3213  0.1999  0.4593
  325MOL0     C42825   0.331   8.365  10.806 -0.1779 -0.7120 -0.4837
  325MOL0     O42826   0.199   8.352  10.842 -0.4469 -0.2616  0.5813
  325MOL0     C42827   0.163   8.349  10.970 -0.2662 -0.4687 -0.2152
  325MOL0     C42828   0.215   8.211  11.033  0.1239 -1.4101  0.1413
  325MOL0     C42829   0.178   8.081  10.960 -0.0684  0.1325  0.6080
  325MOL0     C42830   0.299   7.998  10.905  0.8225 -0.2087 -0.3974
  325MOL0     C42831   0.270   7.875  10.832 -0.1639 -1.2329  0.3985
  325MOL0     C42832   0.255   7.767  10.778  0.9604  0.4797  0.3974
  325MOL0     C42833   0.418   8.454  10.868  1.0505 -1.2369  0.3840
  325MOL0     C42834   0.545   8.473  10.824 -1.0905  0.9383  0.2543
  325MOL0     H42835   0.818   8.629  10.488  1.8863  2.3277 -2.0060
  325MOL0     H42836   1.029   8.729  10.407 -0.2883 -0.5688 -0.1186
  325MOL0     H42837   1.419   8.706  10.452 -1.0863  2.6050 -1.1490
  325MOL0     H42838   1.353   8.602  10.578 -2.2242 -0.5279 -1.1885
  325MOL0     H42839   1.419   8.736  10.750  3.3603 -3.2790 -0.9489
  325MOL0     H42840   1.419   8.884  10.640 -4.1684 -0.0181  4.0362
  325MOL0     H42841   1.626   8.781  10.537  3.7749  2.0824  1.4154
  325MOL0     H42842   1.619   8.643  10.656  1.2373  0.7807  0.4199
  325MOL0     H42843   1.637   8.924  10.753 -1.1048  0.6126  0.8166
  325MOL0     H42844   1.655   8.774  10.839 -0.5394  2.9264  1.1847
  325MOL0     H42845   1.842   8.891  10.628  0.8065 -3.7657 -1.7461
  325MOL0     H42846   1.856   8.725  10.695 -0.5223 -1.2852  2.1784
  325MOL0     H42847   2.013   8.871  10.808  0.6076  0.9249  2.1221
  325MOL0     H42848   1.870   8.805  10.906 -0.5866  1.3722  2.0024
  325MOL0     H42849   1.824   9.083  10.799 -0.6765 -1.0059 -0.8512
  325MOL0     H42850   1.784   9.000  10.945  2.3815 -1.3658 -0.3242
  325MOL0     H42851   2.014   8.991  11.012 -0.0068 -2.1883 -1.8644
  325MOL0     H42852   1.936   9.158  11.001 -1.2867  1.1744 -3.4782
  325MOL0     H42853   2.053   9.348  10.856 -1.1394  0.5467 -1.5240
  325MOL0     H42854   2.270   9.463  10.836  1.0377  2.4615 -1.8853
  325MOL0     H42855   2.304   9.401  10.674 -5.3865  2.4010  0.8866
  325MOL0     H42856   2.519   9.333  10.739 -0.3117  2.0393  0.3078
  325MOL0     H42857   2.456   9.277  10.899 -0.6849  0.6230  1.1159
  325MOL0     H42858   2.441   9.530  10.946 -1.1281  0.6126 -0.9295
  325MOL0     H42859   2.611   9.467  10.921  0.2701 -0.2852 -1.1728
  325MOL0     H42860   2.451   9.614  10.682  1.9233  0.2066 -2.2392
  325MOL0     H42861   2.603   9.538  10.676  1.6294  1.5920  2.1112
  325MOL0     H42862   2.491   9.833  10.607 -1.3580  0.4776 -0.2445
  325MOL0     H42863   2.366  10.044  10.624 -1.7616  1.4325  1.8520
  325MOL0     H42864   1.991  10.169  10.779 -1.7693  1.7333 -1.9039
  325MOL0     H42865   1.772  10.278  10.811  2.0514 -3.8599 -2.9800
  325MOL0     H42866   1.735  10.569  11.152  1.3509 -1.1668 -1.7577
  325MOL0     H42867   1.639  10.449  11.146  1.0829  0.2971 -0.1794
  325MOL0     H42868   1.468  10.591  11.023 -0.1239  1.4945 -0.3997
  325MOL0     H42869   1.595  10.716  11.003 -0.5405  1.0132  0.6844
  325MOL0     H42870   1.579  10.750  11.258 -0.1351 -1.2559  3.0135
  325MOL0     H42871   1.495  10.603  11.289  2.9874 -0.0204  0.1144
  325MOL0     H42872   1.387  10.828  11.142 -0.0884  2.0924  1.6859
  325MOL0     H42873   1.291  10.670  11.194 -1.5314  2.3889  2.1034
  325MOL0     H42874   1.249  10.863  11.321  0.1624  0.0830 -0.2073
  325MOL0     H42875   1.411  10.874  11.384 -3.7478  2.6939  1.7629
  325MOL0     H42876   1.285  10.776  11.543 -1.5113  0.0403 -1.0245
  325MOL0     H42877   1.394  10.639  11.476 -1.0785 -1.9494  0.7170
  325MOL0     H42878   1.108  10.692  11.418  1.4419  0.9967 -1.0823
  325MOL0     H42879   1.185  10.558  11.355  0.9223  0.1707 -0.3101
  325MOL0     H42880   1.042  10.475  11.518 -1.0557 -0.0933  2.2045
  325MOL0     H42881   1.107  10.594  11.645 -1.7346 -1.1416  0.2142
  325MOL0     H42882   1.933  10.508  11.120  1.3242 -2.5382  1.4606
  325MOL0     H42883   2.139  10.372  11.120  1.1460 -0.9471 -0.8084
  325MOL0     H42884   2.339   9.992  11.049  2.2069 -1.3077  2.0632
  325MOL0     H42885   2.513   9.804  11.032 -1.3057 -1.4439 -0.6611
  325MOL0     H42886   1.204   8.690  10.796 -3.1927 -2.0707  3.6115
  325MOL0     H42887   1.016   8.556  10.864  0.5406 -0.0160 -0.4103
  325MOL0     H42888   0.535   8.252  10.561  0.9408 -3.0738  2.9832
  325MOL0     H42889   0.308   8.228  10.641  0.5438 -0.2337  0.7906
  325MOL0     H42890   0.053   8.354  10.970 -0.2211  0.7851 -0.3678
  325MOL0     H42891   0.201   8.435  11.025 -1.3481 -0.2328  0.2062
  325MOL0     H42892   0.321   8.230  11.052  0.3996  0.0492 -2.5086
  325MOL0     H42893   0.156   8.208  11.126 -2.7054  1.5401 -1.3754
  325MOL0     H42894   0.106   8.094  10.879 -1.1832 -1.1445  1.3599
  325MOL0     H42895   0.128   8.015  11.032 -0.2372 -1.3534 -0.8143
  325MOL0     H42896   0.353   8.069  10.841  2.6441  2.3208  3.5613
  325MOL0     H42897   0.359   7.971  10.992 -1.6300 -0.4132  1.3142
  325MOL0     H42898   0.253   7.680  10.715 -0.4478  0.7398  0.0582
  325MOL0     H42899   0.403   8.534  10.940 -0.1180 -0.5941 -0.5294
  325MOL0     H42900   0.614   8.545  10.867 -0.2756  0.8204 -0.7929
  326MOL0     O42901   3.233   1.951   2.460 -1.1751 -0.4589 -0.2647
  326MOL0     C42902   3.138   2.007   2.405 -0.2728 -0.1760 -0.9305
  326MOL0     O42903   3.128   2.030   2.266  0.5849 -0.2583  0.4347
  326MOL0     C42904   3.202   1.963   2.169  0.6711 -0.6663 -0.9343
  326MOL0     C42905   3.153   1.970   2.043  0.1093  0.2583  0.2707
  326MOL0     C42906   3.215   1.900   1.933  0.3449  0.6875 -0.5693
  326MOL0     C42907   3.323   1.816   1.974  0.9217  0.0467  1.0104
  326MOL0     O42908   3.374   1.734   1.883  0.4917 -0.3137  0.2885
  326MOL0     C42909   3.498   1.783   1.825 -0.5684  0.3168 -0.3400
  326MOL0     C42910   3.549   1.663   1.739 -0.4490 -0.9833  0.4605
  326MOL0     C42911   3.704   1.679   1.731  0.7404  0.9994  0.0295
  326MOL0     C42912   3.770   1.587   1.634 -0.6905  0.5756  0.7932
  326MOL0     C42913   3.787   1.647   1.491 -0.1833  0.4098 -0.0327
  326MOL0     C42914   3.798   1.545   1.385  0.0496 -0.6745 -0.8971
  326MOL0     C42915   3.904   1.578   1.278 -0.5170 -0.2063 -0.4282
  326MOL0     C42916   4.047   1.579   1.326  0.1525 -0.6853  0.2674
  326MOL0     N42917   4.121   1.457   1.298 -0.2822 -0.5487  0.3606
  326MOL0     C42918   4.092   1.340   1.365  0.2724  0.1079 -0.4017
  326MOL0     C42919   4.151   1.253   1.284  0.5399  0.1037  0.1805
  326MOL0     C42920   4.148   1.107   1.303  0.2402 -0.3484 -0.3069
  326MOL0     C42921   4.279   1.060   1.384  0.5060  0.3348 -0.2266
  326MOL0     C42922   4.409   1.073   1.305 -0.2555 -1.3535 -1.0008
  326MOL0     C42923   4.530   1.033   1.386  1.0534  0.6082 -0.6404
  326MOL0     O42924   4.520   0.899   1.430  0.5337  0.4698 -0.6116
  326MOL0     C42925   4.600   0.808   1.373  1.3000  0.0493 -0.7318
  326MOL0     C42926   4.727   0.784   1.412 -0.2037 -1.0406 -0.2190
  326MOL0     C42927   4.803   0.688   1.349  0.8393  1.0785 -0.0953
  326MOL0     C42928   4.749   0.603   1.249 -0.0552  0.5125 -0.4679
  326MOL0     C42929   4.831   0.511   1.183 -0.2627 -0.4741  0.1111
  326MOL0     O42930   4.786   0.468   1.071 -0.0597  0.1262  0.0288
  326MOL0     C42931   4.860   0.364   1.013 -0.2585  0.1806 -0.4078
  326MOL0     C42932   4.845   0.235   1.059 -0.4724  0.1781 -1.0310
  326MOL0     C42933   4.930   0.133   1.013 -0.0401  0.7503 -1.3133
  326MOL0     C42934   5.030   0.157   0.909  0.3332 -0.1099 -0.4347
  326MOL0     O42935   5.117   0.063   0.858 -0.2291 -0.5459 -0.0247
  326MOL0     C42936   5.132  -0.067   0.904  0.3904  1.5925  0.2824
  326MOL0     C42937   5.194  -0.161   0.792  0.2714 -0.1226  0.9505
  326MOL0     C42938   5.192  -0.311   0.826  0.5895 -0.0980  0.2720
  326MOL0     C42939   5.304  -0.347   0.917 -1.5454 -0.5671  0.7660
  326MOL0     C42940   5.444  -0.363   0.841 -0.1730  0.1841 -1.1103
  326MOL0     C42941   5.551  -0.438   0.920  0.2398 -0.0918 -0.2546
  326MOL0     C42942   5.507  -0.576   0.980  0.8335  0.4371 -0.2892
  326MOL0     C42943   5.632  -0.664   1.009 -0.6065 -0.5329  0.8653
  326MOL0    Cl42944   5.685  -0.698   0.837 -0.1709 -0.3223  0.5707
  326MOL0     C42945   5.038   0.290   0.869  0.4636 -0.1676 -0.5134
  326MOL0     C42946   4.958   0.389   0.920 -0.0789 -0.8133  0.2137
  326MOL0     O42947   4.938   0.483   1.229  0.0021  0.0028 -0.1468
  326MOL0     C42948   4.615   0.629   1.215 -0.2818 -0.3246 -0.2032
  326MOL0     C42949   4.537   0.735   1.276  0.3843 -0.4710  0.4445
  326MOL0     N42950   4.207   1.310   1.173  0.6712 -0.3107  0.1878
  326MOL0     N42951   4.196   1.435   1.186  0.7223  0.5440  0.3237
  326MOL0     C42952   3.385   1.809   2.093 -0.6225  0.2148 -0.0208
  326MOL0     C42953   3.322   1.881   2.188 -0.0232 -0.3130 -0.5422
  326MOL0     C42954   3.063   2.082   2.506 -1.0600  0.7008  1.0924
  326MOL0     C42955   2.958   2.172   2.457 -0.2086 -0.5799  0.3030
  326MOL0     C42956   2.884   2.254   2.556  0.2745 -0.0090  0.4298
  326MOL0     C42957   2.915   2.238   2.691 -0.5000  0.5874 -0.1796
  326MOL0     O42958   2.858   2.312   2.793 -0.5779 -0.2463  0.1438
  326MOL0     C42959   2.746   2.397   2.762 -0.6791 -0.3974 -0.1255
  326MOL0     C42960   2.742   2.490   2.887  0.0648 -0.0301  0.1811
  326MOL0     C42961   2.605   2.560   2.889  0.2247 -0.7778  0.0664
  326MOL0     C42962   2.485   2.477   2.955  0.5532 -0.5789 -0.3262
  326MOL0     C42963   2.498   2.432   3.092 -1.4774 -0.5943 -0.0111
  326MOL0     C42964   2.518   2.379   3.196  0.5896 -0.7889 -0.2926
  326MOL0     C42965   3.007   2.142   2.737 -0.0185 -0.7091 -0.7893
  326MOL0     C42966   3.086   2.064   2.645 -0.6940  0.1875 -0.0474
  326MOL0     H42967   3.063   2.028   2.026  0.9562  1.8534  1.0467
  326MOL0     H42968   3.193   1.918   1.828 -0.0262 -0.7493 -0.7546
  326MOL0     H42969   3.571   1.810   1.901 -0.0846  1.2682 -1.1187
  326MOL0     H42970   3.481   1.865   1.754 -0.9990 -0.5114 -1.2096
  326MOL0     H42971   3.505   1.678   1.640 -0.2296  3.7364  0.8545
  326MOL0     H42972   3.515   1.568   1.780  2.5992 -2.9249 -1.1470
  326MOL0     H42973   3.741   1.664   1.833 -1.5542  0.0773  0.7854
  326MOL0     H42974   3.733   1.780   1.703 -1.5989  1.3651 -1.2856
  326MOL0     H42975   3.864   1.541   1.667 -0.2857 -0.0665 -1.1588
  326MOL0     H42976   3.695   1.513   1.607  0.0437 -0.0148  0.3123
  326MOL0     H42977   3.859   1.728   1.492 -1.7642  1.9547 -2.0781
  326MOL0     H42978   3.695   1.705   1.478 -0.2089  0.3186 -0.2610
  326MOL0     H42979   3.704   1.526   1.333  0.9615  0.9231 -3.3308
  326MOL0     H42980   3.844   1.456   1.429  3.5009  2.8454  3.6693
  326MOL0     H42981   3.885   1.511   1.193 -0.8974  1.0337 -1.3562
  326MOL0     H42982   3.876   1.679   1.246 -5.4965 -0.4900  2.0479
  326MOL0     H42983   4.037   1.589   1.435 -1.6643  0.4397  0.0443
  326MOL0     H42984   4.090   1.671   1.285  0.1306 -0.5110  0.6246
  326MOL0     H42985   4.042   1.320   1.459 -0.3992  0.4145 -0.6885
  326MOL0     H42986   4.136   1.059   1.205 -0.7470  0.9174 -0.8344
  326MOL0     H42987   4.057   1.071   1.351 -2.6301  1.0000 -4.1818
  326MOL0     H42988   4.266   0.958   1.421 -2.0970  1.1612  1.3721
  326MOL0     H42989   4.291   1.117   1.477 -0.8869 -0.3648  0.4045
  326MOL0     H42990   4.389   1.009   1.219 -2.4310 -0.1335 -1.4769
  326MOL0     H42991   4.431   1.176   1.277 -1.9042  0.0911  2.3933
  326MOL0     H42992   4.535   1.106   1.467  3.0398  0.9844 -1.0492
  326MOL0     H42993   4.628   1.042   1.339  2.1822  0.0698  1.4822
  326MOL0     H42994   4.772   0.845   1.489  5.6598 -0.5494 -3.4645
  326MOL0     H42995   4.904   0.675   1.387  1.0587  1.5262 -0.5156
  326MOL0     H42996   4.761   0.223   1.127 -0.9692  0.0941 -1.6509
  326MOL0     H42997   4.916   0.037   1.062  0.4300  0.1132 -2.3787
  326MOL0     H42998   5.042  -0.114   0.946  1.5011 -1.5981 -0.5944
  326MOL0     H42999   5.207  -0.074   0.983  0.1500 -2.1377  0.3778
  326MOL0     H43000   5.295  -0.129   0.764  0.8647 -0.7927  2.2486
  326MOL0     H43001   5.127  -0.145   0.706 -2.2318  0.7447  2.9334
  326MOL0     H43002   5.201  -0.373   0.736  2.3729  2.2515 -1.2989
  326MOL0     H43003   5.095  -0.342   0.866  1.7619 -4.3486  0.3905
  326MOL0     H43004   5.325  -0.289   1.007  0.3899 -1.9722  1.2785
  326MOL0     H43005   5.280  -0.450   0.947  0.5845 -0.3948  3.4823
  326MOL0     H43006   5.486  -0.263   0.828 -0.5935  0.5693  0.3848
  326MOL0     H43007   5.431  -0.422   0.749  2.3749 -1.7237 -0.3669
  326MOL0     H43008   5.581  -0.367   0.998  2.2651  0.5175 -1.5238
  326MOL0     H43009   5.633  -0.440   0.848 -0.8012  3.0481 -1.7324
  326MOL0     H43010   5.455  -0.561   1.075 -1.0744 -3.5105 -0.4966
  326MOL0     H43011   5.437  -0.622   0.909 -0.8284  5.2403 -2.2186
  326MOL0     H43012   5.593  -0.757   1.053 -1.6237 -0.8105 -0.5587
  326MOL0     H43013   5.713  -0.610   1.059  0.3236 -0.6387 -0.4650
  326MOL0     H43014   5.121   0.316   0.805  1.1974  1.4158  0.9890
  326MOL0     H43015   4.974   0.494   0.896 -1.0898 -0.0469  2.5818
  326MOL0     H43016   4.567   0.564   1.142 -2.0486  1.3820 -0.6458
  326MOL0     H43017   4.431   0.752   1.262  0.8239  2.2685 -0.1604
  326MOL0     H43018   3.473   1.748   2.112  0.3668  1.2636 -1.0347
  326MOL0     H43019   3.361   1.872   2.289 -0.2411  0.2406 -0.4088
  326MOL0     H43020   2.935   2.191   2.353  1.9501  0.0993 -0.0990
  326MOL0     H43021   2.817   2.326   2.510 -1.7293 -2.4331 -0.7047
  326MOL0     H43022   2.658   2.333   2.754 -2.4738  1.7920  1.0900
  326MOL0     H43023   2.771   2.444   2.666  2.0184  0.6030  0.9460
  326MOL0     H43024   2.755   2.438   2.982 -0.5049 -2.3428 -0.9365
  326MOL0     H43025   2.825   2.561   2.887  0.5836 -0.5102 -2.5520
  326MOL0     H43026   2.575   2.585   2.787  0.1995 -3.1230 -0.5604
  326MOL0     H43027   2.615   2.653   2.947  0.2745 -0.4957 -0.3864
  326MOL0     H43028   2.390   2.529   2.940  0.6067 -0.6375 -0.8958
  326MOL0     H43029   2.457   2.387   2.898 -2.0747 -0.6232  0.8814
  326MOL0     H43030   2.526   2.333   3.293 -1.2850 -2.0284 -0.6686
  326MOL0     H43031   3.027   2.121   2.842  2.3591 -3.5482 -1.6547
  326MOL0     H43032   3.165   2.002   2.686  1.4402  2.1741 -0.9219
  327MOL0     O43033   0.687  10.284   2.143  0.5266  0.3083 -0.0744
  327MOL0     C43034   0.766  10.371   2.179  0.0884  0.0957 -0.2361
  327MOL0     O43035   0.887  10.403   2.121  0.1936 -0.0427  0.4049
  327MOL0     C43036   0.923  10.389   1.989  0.7747 -0.4323  0.1051
  327MOL0     C43037   0.835  10.393   1.880 -0.2527  0.6500 -0.4502
  327MOL0     C43038   0.896  10.396   1.748  0.5474 -1.3248  0.0273
  327MOL0     C43039   1.030  10.393   1.728 -0.1526  0.4416 -0.9046
  327MOL0     O43040   1.098  10.387   1.610 -0.7181 -0.5017  0.5415
  327MOL0     C43041   1.037  10.326   1.500 -0.0310 -0.5716 -0.1776
  327MOL0     C43042   1.008  10.176   1.504  0.5981  0.6968  0.9394
  327MOL0     C43043   1.123  10.094   1.569 -0.2175  0.2147 -0.2942
  327MOL0     C43044   1.255  10.095   1.490 -0.1003 -0.5232 -0.1734
  327MOL0     C43045   1.344   9.972   1.518 -0.2949  0.5171 -0.1880
  327MOL0     C43046   1.396   9.991   1.655  0.2677  0.1189  0.4275
  327MOL0     C43047   1.485   9.880   1.705  0.3276 -0.3743  0.2054
  327MOL0     C43048   1.549   9.915   1.835 -0.2460  0.5621  0.5505
  327MOL0     N43049   1.645  10.025   1.817 -0.3549  0.2693  0.0921
  327MOL0     C43050   1.759  10.029   1.745  0.9744  1.1048  0.0787
  327MOL0     C43051   1.799  10.156   1.754 -0.0168  0.8097 -0.7301
  327MOL0     C43052   1.929  10.209   1.698  0.4649  0.3080 -0.2595
  327MOL0     C43053   1.919  10.225   1.546 -0.5759 -0.6686 -0.0696
  327MOL0     C43054   1.819  10.326   1.494  0.3907  0.0557  0.4516
  327MOL0     C43055   1.678  10.259   1.448  0.0975 -0.0919  0.2749
  327MOL0     O43056   1.712  10.201   1.317 -0.0324 -0.2071  0.5591
  327MOL0     C43057   1.603  10.200   1.220  0.0401  0.4915 -0.2403
  327MOL0     C43058   1.630  10.134   1.092 -0.2741  0.2678  0.3257
  327MOL0     C43059   1.537  10.111   0.993 -0.8390 -0.5911  1.3022
  327MOL0     C43060   1.409  10.150   1.013  0.2306 -0.0297 -0.0110
  327MOL0     C43061   1.304  10.150   0.912 -0.0067 -0.1114  0.6333
  327MOL0     O43062   1.178  10.146   0.957  0.7202  0.0733  0.6910
  327MOL0     C43063   1.073  10.121   0.860 -0.8494 -0.4110  0.0978
  327MOL0     C43064   1.041   9.996   0.809 -0.2714  0.6968  0.4606
  327MOL0     C43065   0.927   9.958   0.743 -0.2803  0.0346 -0.8714
  327MOL0     C43066   0.830  10.056   0.721  1.1028  0.0769 -0.5398
  327MOL0     O43067   0.707  10.021   0.669 -0.0560 -0.9019  0.9950
  327MOL0     C43068   0.717   9.956   0.537 -0.3594 -0.6831 -0.1173
  327MOL0     C43069   0.615  10.026   0.454  0.5030  0.3707 -0.1098
  327MOL0     C43070   0.592   9.953   0.315 -0.6510 -0.3368  0.2714
  327MOL0     C43071   0.457   9.993   0.256  0.0799 -0.5405 -0.0572
  327MOL0     C43072   0.456  10.130   0.187  0.5004  0.4535  0.3422
  327MOL0     C43073   0.530  10.129   0.058  0.3464  1.0783 -0.0228
  327MOL0     C43074   0.498  10.008  -0.030 -0.5430 -0.2151 -0.0296
  327MOL0     C43075   0.353   9.998  -0.054  0.1579 -1.8516  0.0967
  327MOL0    Cl43076   0.340   9.932  -0.216  0.4094 -0.0199 -0.0253
  327MOL0     C43077   0.847  10.183   0.786 -0.8985  0.1414  0.6107
  327MOL0     C43078   0.967  10.220   0.851  0.0302  0.3185 -0.0033
  327MOL0     O43079   1.347  10.124   0.801  0.2005 -0.8347  0.4285
  327MOL0     C43080   1.379  10.210   1.135  0.3571  0.4603 -0.1756
  327MOL0     C43081   1.474  10.232   1.236 -0.1189 -1.0453  0.9412
  327MOL0     N43082   1.715  10.226   1.848 -0.4325  0.1612  0.4020
  327MOL0     N43083   1.617  10.142   1.881 -0.1632  0.0456  0.7200
  327MOL0     C43084   1.123  10.397   1.844  0.3184 -0.2716  1.0440
  327MOL0     C43085   1.063  10.406   1.968 -0.4021  0.5278 -0.4740
  327MOL0     C43086   0.731  10.425   2.308  0.1539 -0.2017  0.6974
  327MOL0     C43087   0.831  10.514   2.365  0.9947 -0.1563  0.2440
  327MOL0     C43088   0.804  10.572   2.485  0.7195 -0.4989 -1.1224
  327MOL0     C43089   0.685  10.554   2.557 -0.2583  0.5093  0.7755
  327MOL0     O43090   0.673  10.628   2.675  0.1073  0.3876 -1.1557
  327MOL0     C43091   0.538  10.674   2.713  0.6018  1.0195  0.0446
  327MOL0     C43092   0.533  10.768   2.837 -0.5603  0.0552  0.1772
  327MOL0     C43093   0.390  10.755   2.902  0.6381 -0.2035 -0.2154
  327MOL0     C43094   0.284  10.814   2.805 -0.2909  1.0043  0.0709
  327MOL0     C43095   0.150  10.786   2.856 -0.6249 -0.0223  0.1367
  327MOL0     C43096   0.035  10.771   2.907 -0.7850 -1.0502  0.9309
  327MOL0     C43097   0.586  10.468   2.498 -0.6444 -0.3516  0.5430
  327MOL0     C43098   0.614  10.404   2.367 -0.1379  0.6667  0.2251
  327MOL0     H43099   0.730  10.401   1.907  0.2282 -0.7959  2.2096
  327MOL0     H43100   0.828  10.402   1.664  0.1062 -2.3799  0.3017
  327MOL0     H43101   1.103  10.337   1.413 -0.4369 -2.1376 -0.7155
  327MOL0     H43102   0.939  10.370   1.481 -0.9252 -2.4571 -0.1681
  327MOL0     H43103   0.988  10.139   1.403 -2.0936  2.2689  0.8148
  327MOL0     H43104   0.911  10.167   1.554 -0.6507 -1.2318 -1.6157
  327MOL0     H43105   1.104   9.987   1.562  2.1820 -0.1718 -2.8031
  327MOL0     H43106   1.139  10.118   1.675 -0.3004  0.4285 -0.3285
  327MOL0     H43107   1.233  10.085   1.383 -0.0816  0.0092 -0.2323
  327MOL0     H43108   1.319  10.184   1.503  0.5972 -1.1928  1.1155
  327MOL0     H43109   1.428   9.963   1.449  2.1852  2.5935  2.3508
  327MOL0     H43110   1.289   9.878   1.508  1.2212 -0.3334 -0.8230
  327MOL0     H43111   1.306  10.004   1.715 -1.8007 -1.7861 -2.0224
  327MOL0     H43112   1.460  10.079   1.646  4.0379 -2.5038 -1.8332
  327MOL0     H43113   1.424   9.790   1.716 -1.2233  0.3198 -2.0124
  327MOL0     H43114   1.561   9.852   1.632  0.7691  0.3442  0.3790
  327MOL0     H43115   1.603   9.830   1.878 -2.4518 -0.9758  0.4767
  327MOL0     H43116   1.473   9.940   1.910  1.1832 -0.2472  2.3427
  327MOL0     H43117   1.814   9.946   1.703 -1.2684 -0.3397 -0.1773
  327MOL0     H43118   2.005  10.143   1.740 -1.2265 -2.0981 -0.7634
  327MOL0     H43119   1.940  10.311   1.735 -0.1464  0.7257 -1.2020
  327MOL0     H43120   1.883  10.130   1.507 -3.4079 -0.5078  1.8225
  327MOL0     H43121   2.021  10.250   1.517 -0.8861  0.2144 -0.4357
  327MOL0     H43122   1.791  10.403   1.567 -0.6595  2.8468 -2.6633
  327MOL0     H43123   1.862  10.381   1.410 -1.2351 -0.5173 -0.8028
  327MOL0     H43124   1.601  10.336   1.443 -0.4394 -0.6864 -0.9075
  327MOL0     H43125   1.637  10.187   1.519 -0.0225 -1.6341 -1.2830
  327MOL0     H43126   1.726  10.090   1.068 -1.9545 -3.2499 -0.6728
  327MOL0     H43127   1.567  10.073   0.895  1.0029  1.2058  1.1105
  327MOL0     H43128   1.111   9.915   0.829 -0.4177  0.2806 -0.6437
  327MOL0     H43129   0.925   9.859   0.696  0.0760 -0.1636 -0.4756
  327MOL0     H43130   0.693   9.850   0.550 -1.3529 -0.3638  0.7988
  327MOL0     H43131   0.815   9.968   0.491 -0.0532 -6.0388 -1.5703
  327MOL0     H43132   0.663  10.124   0.444  1.7842  0.6008  5.2436
  327MOL0     H43133   0.520  10.047   0.504 -0.9485 -2.9528 -1.2219
  327MOL0     H43134   0.599   9.845   0.329  0.2329 -0.4901 -1.1412
  327MOL0     H43135   0.671   9.985   0.246  0.1470 -2.7740 -0.0569
  327MOL0     H43136   0.425   9.906   0.198  3.0304 -1.8836  0.1628
  327MOL0     H43137   0.384   9.992   0.337 -3.0817 -1.3706 -2.7119
  327MOL0     H43138   0.483  10.224   0.236 -2.4036  2.7153 -2.0308
  327MOL0     H43139   0.347  10.139   0.179  0.5467  1.4590  0.7251
  327MOL0     H43140   0.637  10.121   0.079  0.4950  2.9032  0.0728
  327MOL0     H43141   0.495  10.219   0.007  0.5871 -0.1806 -2.5495
  327MOL0     H43142   0.544  10.035  -0.125 -0.9239  2.9111  0.5555
  327MOL0     H43143   0.518   9.907   0.008 -3.5734 -0.8144  0.2720
  327MOL0     H43144   0.309  10.097  -0.043  2.0874 -0.9409 -0.0100
  327MOL0     H43145   0.305   9.937   0.024 -0.4986  0.5524  1.6715
  327MOL0     H43146   0.774  10.261   0.770  2.7062  3.5512 -0.7481
  327MOL0     H43147   0.971  10.318   0.899  1.8317  1.7336 -2.7887
  327MOL0     H43148   1.276  10.245   1.143  0.6055  2.0947 -3.0208
  327MOL0     H43149   1.431  10.276   1.326 -1.9536  2.6991 -1.5243
  327MOL0     H43150   1.229  10.405   1.822  0.2988  2.9366  1.6638
  327MOL0     H43151   1.134  10.417   2.050  2.5365  2.1142 -2.9974
  327MOL0     H43152   0.924  10.538   2.316  0.0112  2.6585 -0.3796
  327MOL0     H43153   0.878  10.633   2.535  2.3212 -3.2698  0.1393
  327MOL0     H43154   0.484  10.580   2.730  1.1506  0.6977  0.0066
  327MOL0     H43155   0.488  10.720   2.627  0.4929 -0.1249 -0.5306
  327MOL0     H43156   0.607  10.729   2.907  1.5349  0.6158 -1.6204
  327MOL0     H43157   0.551  10.868   2.798 -1.4703 -0.5301 -1.9078
  327MOL0     H43158   0.379  10.811   2.995  1.8593 -0.1308 -0.0927
  327MOL0     H43159   0.376  10.651   2.934 -0.2486 -0.5027 -1.4915
  327MOL0     H43160   0.306  10.921   2.795  0.8130  1.1940  3.3261
  327MOL0     H43161   0.283  10.760   2.710 -4.1095 -0.4291  0.7437
  327MOL0     H43162  -0.067  10.763   2.936 -0.8019 -1.9728  0.6393
  327MOL0     H43163   0.494  10.448   2.551 -0.4677 -0.0239  0.9808
  327MOL0     H43164   0.541  10.337   2.322 -1.2959  0.9596  1.5792
  328MOL0     O43165   2.311   2.952   9.953  0.2805 -0.6145 -0.2437
  328MOL0     C43166   2.350   3.029   9.874  0.2872  0.0929 -1.7740
  328MOL0     O43167   2.418   3.140   9.897  0.3208 -0.7196  0.7097
  328MOL0     C43168   2.450   3.170  10.022 -0.0590 -0.5594 -0.2601
  328MOL0     C43169   2.505   3.076  10.113 -1.1011 -0.2400 -0.4829
  328MOL0     C43170   2.529   3.101  10.251 -0.0783 -0.2382  0.3154
  328MOL0     C43171   2.497   3.221  10.303 -0.3924 -0.1294  0.8279
  328MOL0     O43172   2.520   3.265  10.431 -0.6739  0.3290  0.8103
  328MOL0     C43173   2.582   3.170  10.525 -0.2382 -1.0310  0.3287
  328MOL0     C43174   2.624   3.256  10.641  0.8082  0.2530  0.4166
  328MOL0     C43175   2.750   3.329  10.607  0.6981  0.3565  0.7185
  328MOL0     C43176   2.734   3.462  10.531  1.1530 -0.1039 -0.8375
  328MOL0     C43177   2.856   3.568  10.523  0.7315 -0.3343 -0.4891
  328MOL0     C43178   2.795   3.714  10.490 -0.8835 -0.5257  0.3473
  328MOL0     C43179   2.880   3.829  10.561  0.8163  0.0807  0.4284
  328MOL0     C43180   2.801   3.960  10.569  0.7924 -0.2578  0.0131
  328MOL0     N43181   2.793   4.034  10.437  0.0893  0.0893 -0.3801
  328MOL0     C43182   2.742   4.156  10.440  0.0225  0.2295  0.0113
  328MOL0     C43183   2.693   4.184  10.312 -0.1541 -0.8484 -0.0594
  328MOL0     C43184   2.596   4.307  10.295 -0.2195  0.7434  0.5754
  328MOL0     C43185   2.611   4.365  10.151 -0.5720  1.1290  0.1198
  328MOL0     C43186   2.536   4.483  10.107  1.2199 -0.2848 -0.3459
  328MOL0     C43187   2.593   4.540   9.988 -0.6049  0.1042  1.1090
  328MOL0     O43188   2.530   4.476   9.881  0.3222 -0.4728  0.5859
  328MOL0     C43189   2.600   4.444   9.773  0.0739  0.2586 -0.0197
  328MOL0     C43190   2.630   4.309   9.762 -0.0080  0.1876 -0.3478
  328MOL0     C43191   2.694   4.268   9.647 -0.0045  0.2043  0.5663
  328MOL0     C43192   2.738   4.361   9.552  0.0804  0.2293  0.2553
  328MOL0     C43193   2.810   4.327   9.429  0.7155 -0.3411 -0.2188
  328MOL0     O43194   2.923   4.406   9.408  0.1671 -0.0431 -0.4019
  328MOL0     C43195   3.004   4.375   9.311  0.3201  0.1494  0.5178
  328MOL0     C43196   3.140   4.378   9.342  0.1673  0.0387  0.1646
  328MOL0     C43197   3.233   4.349   9.248 -0.2962 -1.2388  0.5819
  328MOL0     C43198   3.200   4.342   9.110  0.8924 -0.1436  0.4764
  328MOL0     O43199   3.288   4.324   9.010 -0.5247 -0.7164 -0.3451
  328MOL0     C43200   3.427   4.337   9.033 -0.3246 -0.2660 -0.1126
  328MOL0     C43201   3.509   4.395   8.914  0.6099 -0.0447  0.3322
  328MOL0     C43202   3.465   4.326   8.785  0.4413 -0.1669 -0.2438
  328MOL0     C43203   3.373   4.411   8.690 -0.3024  0.4880  0.6690
  328MOL0     C43204   3.361   4.340   8.554 -1.1941  0.4282  0.5476
  328MOL0     C43205   3.229   4.391   8.495 -1.5278 -1.0172  0.7408
  328MOL0     C43206   3.202   4.324   8.357  0.0501 -0.7029 -0.9503
  328MOL0     C43207   3.134   4.197   8.362 -0.2455  0.1457  0.7166
  328MOL0    Cl43208   3.114   4.152   8.188  0.0905  0.1904  0.3560
  328MOL0     C43209   3.062   4.323   9.079  0.0764  0.3498 -0.1775
  328MOL0     C43210   2.963   4.354   9.175 -0.7375 -0.0022  0.1309
  328MOL0     O43211   2.765   4.250   9.351 -0.2388  0.4696 -0.0712
  328MOL0     C43212   2.721   4.492   9.576  0.3217 -0.6445 -0.4964
  328MOL0     C43213   2.650   4.533   9.679  0.6628  0.0026  0.3313
  328MOL0     N43214   2.726   4.078  10.232  0.1909  0.9355  0.3492
  328MOL0     N43215   2.787   3.988  10.308  0.9845  0.2617 -0.3058
  328MOL0     C43216   2.452   3.317  10.211  0.0081  0.7354 -0.2535
  328MOL0     C43217   2.430   3.303  10.073 -0.7630  1.2761  0.3713
  328MOL0     C43218   2.309   3.001   9.738  1.0746  0.3779 -0.2488
  328MOL0     C43219   2.389   3.039   9.633 -1.0142 -0.2061  0.2989
  328MOL0     C43220   2.352   3.018   9.500  0.7060 -0.4425 -0.2204
  328MOL0     C43221   2.229   2.962   9.473 -0.1181 -0.5029 -0.1199
  328MOL0     O43222   2.182   2.936   9.348 -0.6832 -0.0763 -0.6631
  328MOL0     C43223   2.271   2.963   9.236  0.0756 -0.8180 -0.6720
  328MOL0     C43224   2.179   2.985   9.115 -0.2398  1.1089  0.1516
  328MOL0     C43225   2.079   3.096   9.136  0.7558  0.0046  0.2407
  328MOL0     C43226   2.128   3.222   9.213  0.4123  0.9116  0.9652
  328MOL0     C43227   2.207   3.313   9.122  1.4560 -0.3718  0.2834
  328MOL0     C43228   2.264   3.403   9.057  0.6706  0.5197 -0.4252
  328MOL0     C43229   2.139   2.930   9.579  0.4271 -0.4304 -0.3108
  328MOL0     C43230   2.176   2.947   9.709 -0.1122 -0.9182  0.5872
  328MOL0     H43231   2.523   2.976  10.076 -1.9157 -0.8057  0.6208
  328MOL0     H43232   2.570   3.019  10.309 -0.0032 -0.8490 -0.5865
  328MOL0     H43233   2.663   3.109  10.483  3.0773  2.7426  0.5912
  328MOL0     H43234   2.506   3.098  10.556  0.1032 -0.4077  2.8257
  328MOL0     H43235   2.639   3.193  10.730  0.8993  1.6998  1.4613
  328MOL0     H43236   2.549   3.327  10.676 -0.0151  0.7668 -2.2189
  328MOL0     H43237   2.820   3.264  10.554  0.8419  2.1698 -1.4500
  328MOL0     H43238   2.793   3.348  10.706 -0.1017  0.7160  1.0055
  328MOL0     H43239   2.717   3.429  10.428 -3.0930 -2.4677  0.3776
  328MOL0     H43240   2.646   3.512  10.571  0.5136 -2.1561  0.4840
  328MOL0     H43241   2.923   3.542  10.440 -1.0548 -4.1006 -0.9521
  328MOL0     H43242   2.906   3.568  10.620 -2.7143 -0.4321  1.4235
  328MOL0     H43243   2.693   3.733  10.524  0.2190  2.1164  2.5290
  328MOL0     H43244   2.807   3.737  10.383 -0.3457 -0.5582  0.4014
  328MOL0     H43245   2.925   3.798  10.656  3.7218  0.9471 -0.5431
  328MOL0     H43246   2.975   3.844  10.509  1.1294 -0.1087  0.9342
  328MOL0     H43247   2.854   4.027  10.637  0.3598 -0.0638  0.1607
  328MOL0     H43248   2.698   3.947  10.603 -0.4996  2.0785 -2.6022
  328MOL0     H43249   2.736   4.215  10.530 -1.8694 -0.2711  0.2605
  328MOL0     H43250   2.636   4.385  10.360 -1.0434 -0.4906  2.6762
  328MOL0     H43251   2.502   4.264  10.332  1.9542 -3.8143  1.5511
  328MOL0     H43252   2.601   4.281  10.082  1.5158  0.5765  0.4252
  328MOL0     H43253   2.716   4.395  10.148 -0.1623 -0.3275 -0.7941
  328MOL0     H43254   2.428   4.471  10.103  0.4783  3.9727  1.2986
  328MOL0     H43255   2.561   4.559  10.181 -3.7270  0.2108  1.1312
  328MOL0     H43256   2.700   4.518   9.995 -1.0319 -2.6992  0.1124
  328MOL0     H43257   2.585   4.649   9.978  2.3142  0.1948 -2.5463
  328MOL0     H43258   2.585   4.239   9.832 -0.2962  3.7635  3.4203
  328MOL0     H43259   2.701   4.164   9.618  0.2222  0.4666 -0.3621
  328MOL0     H43260   3.175   4.406   9.440  0.1823 -0.2746  0.2512
  328MOL0     H43261   3.336   4.356   9.283  0.4453 -3.7597 -0.8466
  328MOL0     H43262   3.481   4.243   9.047  0.1142 -0.0332 -0.1855
  328MOL0     H43263   3.453   4.394   9.123  0.7526 -3.2108  1.5938
  328MOL0     H43264   3.617   4.379   8.925  0.9620  1.4136 -0.7488
  328MOL0     H43265   3.494   4.501   8.895 -3.2850 -0.8181 -2.0705
  328MOL0     H43266   3.427   4.232   8.827 -0.0375 -0.1530 -0.6367
  328MOL0     H43267   3.554   4.294   8.730  1.6162  2.6133 -0.1011
  328MOL0     H43268   3.280   4.430   8.745 -0.2698  1.1050  0.5239
  328MOL0     H43269   3.418   4.510   8.677  1.9637 -0.7046 -1.5143
  328MOL0     H43270   3.355   4.232   8.570 -0.8892  0.5722  1.7300
  328MOL0     H43271   3.443   4.369   8.488 -2.0852  0.1301 -0.7204
  328MOL0     H43272   3.236   4.499   8.482 -2.9171 -0.8372  1.3599
  328MOL0     H43273   3.152   4.368   8.569 -1.6491  1.1819  1.3605
  328MOL0     H43274   3.132   4.385   8.299 -1.1475 -0.2297  0.8930
  328MOL0     H43275   3.292   4.312   8.296  0.6514  2.8199 -0.9838
  328MOL0     H43276   3.039   4.206   8.414  0.8536  1.0725  2.6669
  328MOL0     H43277   3.185   4.112   8.410 -0.7747 -1.2485 -1.0649
  328MOL0     H43278   3.019   4.278   8.990 -0.2871 -0.1929  0.2639
  328MOL0     H43279   2.856   4.356   9.159 -0.5162  3.6608 -2.1056
  328MOL0     H43280   2.753   4.568   9.506  0.4778 -1.5499 -1.4217
  328MOL0     H43281   2.638   4.640   9.689 -1.5900 -0.2574  0.9215
  328MOL0     H43282   2.447   3.415  10.257 -1.4128 -0.3185  2.0146
  328MOL0     H43283   2.403   3.389  10.012  1.2043 -0.5151 -3.3041
  328MOL0     H43284   2.487   3.079   9.657 -1.4187  1.6455 -0.9556
  328MOL0     H43285   2.432   3.052   9.435  2.8101 -5.0562 -0.4586
  328MOL0     H43286   2.330   2.872   9.218  1.0360 -0.4775  0.6746
  328MOL0     H43287   2.341   3.046   9.242  1.8145 -2.3495  3.5223
  328MOL0     H43288   2.257   3.007   9.042 -0.1055 -0.1368 -0.1041
  328MOL0     H43289   2.124   2.894   9.089 -0.4874  1.5400 -0.8678
  328MOL0     H43290   1.996   3.060   9.198 -0.8368  2.9837 -0.0166
  328MOL0     H43291   2.018   3.124   9.050 -0.0417 -2.2985 -0.0328
  328MOL0     H43292   2.047   3.278   9.260  1.3204  2.4060  0.8034
  328MOL0     H43293   2.192   3.192   9.296  2.1030 -1.2676 -0.9939
  328MOL0     H43294   2.306   3.487   9.005 -0.4661  2.8393  2.1653
  328MOL0     H43295   2.040   2.892   9.558 -0.3277  0.3179  1.6516
  328MOL0     H43296   2.108   2.919   9.788 -0.3548 -2.1058 -0.0206
  329MOL0     O43297  10.421   6.076   3.829 -0.6469  0.6272  1.3793
  329MOL0     C43298  10.525   6.094   3.764  0.2199 -0.7867  0.6910
  329MOL0     O43299  10.656   6.067   3.803 -0.5252  0.8730 -0.6751
  329MOL0     C43300  10.681   5.986   3.910  0.2335  0.1435 -0.3594
  329MOL0     C43301  10.725   5.853   3.902  0.1648 -0.4637 -0.0740
  329MOL0     C43302  10.731   5.772   4.009  0.0363  0.0240 -0.2941
  329MOL0     C43303  10.699   5.808   4.139 -0.2125  0.8621  0.2445
  329MOL0     O43304  10.727   5.719   4.242 -0.1702 -0.6106  0.2962
  329MOL0     C43305  10.764   5.767   4.370  0.3504 -0.2005 -0.0353
  329MOL0     C43306  10.853   5.663   4.426 -0.0405 -0.3383  0.3725
  329MOL0     C43307  10.996   5.694   4.381  0.6972  0.3852  0.7550
  329MOL0     C43308  11.059   5.817   4.455  1.0448  0.0390  0.2822
  329MOL0     C43309  11.191   5.860   4.385 -0.0731  0.0007 -0.5833
  329MOL0     C43310  11.271   5.957   4.460  0.6816 -1.6118  0.2159
  329MOL0     C43311  11.208   6.103   4.469  0.1143  1.1224 -0.2024
  329MOL0     C43312  11.239   6.189   4.350 -0.1411 -0.4310  0.5331
  329MOL0     N43313  11.373   6.248   4.361 -0.3447  0.1123  0.3256
  329MOL0     C43314  11.425   6.342   4.444  0.6696 -0.8632 -0.5179
  329MOL0     C43315  11.553   6.366   4.404  0.8317  0.1136  0.3998
  329MOL0     C43316  11.654   6.464   4.451  0.1458 -0.2461 -0.4334
  329MOL0     C43317  11.771   6.417   4.545  0.3340 -0.1508  0.0998
  329MOL0     C43318  11.845   6.303   4.471  0.3041  1.1830 -0.2778
  329MOL0     C43319  11.922   6.345   4.351 -0.3731 -0.2063 -0.5793
  329MOL0     O43320  12.046   6.271   4.340  0.5128 -0.1771 -0.0521
  329MOL0     C43321  12.111   6.299   4.221  1.0363  1.1768 -1.2186
  329MOL0     C43322  12.132   6.425   4.174  0.0804  0.4354 -0.3982
  329MOL0     C43323  12.177   6.445   4.042 -0.4548  0.2415 -0.9253
  329MOL0     C43324  12.196   6.342   3.953  0.1117  0.2857 -0.1090
  329MOL0     C43325  12.242   6.365   3.814 -0.9232  0.8754 -0.3350
  329MOL0     O43326  12.227   6.255   3.734  0.4163 -0.3265  0.1066
  329MOL0     C43327  12.225   6.278   3.600 -0.0023  0.2716 -0.7016
  329MOL0     C43328  12.103   6.273   3.524  0.1170 -0.1652  0.8031
  329MOL0     C43329  12.099   6.297   3.384  0.2706  1.0598 -0.1102
  329MOL0     C43330  12.220   6.329   3.324  0.8579  0.4676  0.5446
  329MOL0     O43331  12.230   6.352   3.194 -0.3250 -0.2928  0.2288
  329MOL0     C43332  12.173   6.265   3.097  0.0229 -0.4426 -0.5112
  329MOL0     C43333  12.231   6.278   2.963 -0.4809 -0.5560  0.1832
  329MOL0     C43334  12.380   6.224   2.958  0.2775  0.0592  1.4239
  329MOL0     C43335  12.422   6.256   2.813  0.3916  0.3442  0.0039
  329MOL0     C43336  12.538   6.174   2.769 -0.1596 -0.8458  0.0635
  329MOL0     C43337  12.671   6.189   2.854 -0.4073 -0.1405  0.3120
  329MOL0     C43338  12.783   6.291   2.811  1.4050  0.3405 -0.6838
  329MOL0     C43339  12.735   6.431   2.775  0.3027 -0.2042  0.2189
  329MOL0    Cl43340  12.873   6.535   2.777 -0.3485 -0.1733  0.1501
  329MOL0     C43341  12.334   6.342   3.394  0.5152 -0.7316 -0.1007
  329MOL0     C43342  12.341   6.314   3.536 -0.3320 -0.7970  0.3908
  329MOL0     O43343  12.302   6.464   3.787 -0.5335  0.0689  0.6701
  329MOL0     C43344  12.164   6.212   3.998 -1.0723  0.3499  0.1802
  329MOL0     C43345  12.125   6.189   4.135 -0.1469 -0.2074 -0.1909
  329MOL0     N43346  11.575   6.286   4.290  0.6894  0.0606 -0.7025
  329MOL0     N43347  11.469   6.218   4.271 -0.5030  1.1494  0.0654
  329MOL0     C43348  10.666   5.938   4.161 -0.4469  0.7682  0.1923
  329MOL0     C43349  10.660   6.025   4.042  0.2816 -0.2531 -0.3436
  329MOL0     C43350  10.512   6.163   3.628 -0.8729  0.8724 -0.0285
  329MOL0     C43351  10.392   6.229   3.596 -0.2581 -0.2608 -1.0495
  329MOL0     C43352  10.378   6.307   3.492 -0.0713  0.0518 -0.1019
  329MOL0     C43353  10.480   6.304   3.398 -0.7710 -0.4203  0.5912
  329MOL0     O43354  10.453   6.384   3.289 -0.1091  0.0812 -0.7523
  329MOL0     C43355  10.490   6.323   3.155  0.2558 -0.1359 -0.5793
  329MOL0     C43356  10.409   6.196   3.138  0.2237  0.3782  0.4330
  329MOL0     C43357  10.256   6.209   3.114  0.3594 -0.3931 -1.0788
  329MOL0     C43358  10.190   6.088   3.059  0.1899  0.6606 -0.1503
  329MOL0     C43359  10.049   6.103   3.065  1.2257  0.5453 -0.7542
  329MOL0     C43360   9.937   6.125   3.051  0.2899  0.1341 -0.3127
  329MOL0     C43361  10.600   6.232   3.417  2.1808  0.7329 -0.1293
  329MOL0     C43362  10.619   6.170   3.542 -0.4600 -0.0615  1.0368
  329MOL0     H43363  10.743   5.807   3.805  0.6038 -1.8260  0.6153
  329MOL0     H43364  10.761   5.669   3.994 -1.1385  0.0218 -3.2698
  329MOL0     H43365  10.675   5.768   4.433  1.5530  0.6629  1.7243
  329MOL0     H43366  10.797   5.871   4.377  3.2736 -0.9355 -1.3689
  329MOL0     H43367  10.820   5.561   4.402  0.2473 -0.3332 -0.0602
  329MOL0     H43368  10.849   5.668   4.535 -0.6934  1.0617  0.3002
  329MOL0     H43369  11.004   5.710   4.273  2.9937  1.1356  0.9783
  329MOL0     H43370  11.063   5.609   4.395  0.4923 -0.2443 -1.7182
  329MOL0     H43371  10.996   5.907   4.452  3.9402  2.3465  2.3674
  329MOL0     H43372  11.075   5.797   4.561  0.4387  1.6414  0.7196
  329MOL0     H43373  11.169   5.902   4.287 -2.4317  0.4232  0.0642
  329MOL0     H43374  11.244   5.764   4.381 -2.7882 -1.6004 -0.4185
  329MOL0     H43375  11.365   5.966   4.404 -0.6610  1.4012 -1.8153
  329MOL0     H43376  11.281   5.932   4.566 -0.9457 -0.2832  0.7307
  329MOL0     H43377  11.100   6.090   4.458 -0.3224 -2.3408  4.9855
  329MOL0     H43378  11.228   6.149   4.566  1.4943 -0.9622  0.5652
  329MOL0     H43379  11.171   6.275   4.344  0.9901  0.3890 -1.2348
  329MOL0     H43380  11.236   6.139   4.254 -2.3005  2.2386 -0.9489
  329MOL0     H43381  11.377   6.398   4.523  0.6398  1.9582 -2.3821
  329MOL0     H43382  11.598   6.541   4.505 -3.6168 -2.4832 -0.7809
  329MOL0     H43383  11.699   6.524   4.371  0.5114 -2.3053 -1.8309
  329MOL0     H43384  11.721   6.383   4.636 -1.4326  2.1047  0.0454
  329MOL0     H43385  11.841   6.496   4.573  0.9669 -1.7040  3.4552
  329MOL0     H43386  11.908   6.252   4.545 -0.5041  1.6147  0.7457
  329MOL0     H43387  11.761   6.234   4.455 -1.4896  3.3109 -0.5288
  329MOL0     H43388  11.945   6.451   4.368  1.3605 -1.1368  5.1750
  329MOL0     H43389  11.861   6.312   4.267 -1.0503 -2.3152  0.6523
  329MOL0     H43390  12.133   6.509   4.243  3.5965  1.2383 -1.2309
  329MOL0     H43391  12.218   6.543   4.023 -2.9469  1.3749 -0.9003
  329MOL0     H43392  12.003   6.252   3.561 -0.3833 -0.6192 -0.7107
  329MOL0     H43393  12.006   6.306   3.327  0.8567  2.7173 -0.8753
  329MOL0     H43394  12.069   6.300   3.089  0.5066  1.1188 -0.4296
  329MOL0     H43395  12.176   6.161   3.131  1.0133 -0.3882 -0.4155
  329MOL0     H43396  12.234   6.385   2.940  0.3438 -0.4642  0.6595
  329MOL0     H43397  12.170   6.231   2.886 -1.4790  2.7763 -1.2594
  329MOL0     H43398  12.373   6.115   2.965 -1.1551  0.0677  0.4456
  329MOL0     H43399  12.449   6.252   3.039  1.3642 -1.8448  1.1885
  329MOL0     H43400  12.343   6.231   2.742 -0.9943  1.7689  0.9610
  329MOL0     H43401  12.449   6.361   2.795  1.7410 -0.3266 -2.2134
  329MOL0     H43402  12.552   6.206   2.666  0.0584 -5.2355 -1.4885
  329MOL0     H43403  12.501   6.071   2.778 -1.9561 -0.3385 -1.0388
  329MOL0     H43404  12.723   6.093   2.861 -0.5435 -0.1678  1.0578
  329MOL0     H43405  12.639   6.207   2.957 -0.0558 -0.2878  0.4454
  329MOL0     H43406  12.860   6.304   2.888 -0.8025  1.2348  1.5041
  329MOL0     H43407  12.830   6.245   2.723  0.7926 -2.3262  0.3002
  329MOL0     H43408  12.675   6.464   2.860  0.4097  2.5695 -0.6824
  329MOL0     H43409  12.670   6.436   2.687 -1.3576  0.3259  1.4278
  329MOL0     H43410  12.421   6.375   3.338  0.6787  2.7474  1.9182
  329MOL0     H43411  12.433   6.321   3.593 -1.2972  0.3594  1.8796
  329MOL0     H43412  12.178   6.115   3.950  0.2420  0.8504 -0.5041
  329MOL0     H43413  12.117   6.090   4.178  1.1503  0.0003  0.5570
  329MOL0     H43414  10.650   5.975   4.262 -0.4525  0.0368  0.4680
  329MOL0     H43415  10.627   6.125   4.066 -0.7691 -0.7254  0.2487
  329MOL0     H43416  10.312   6.247   3.666  0.6947  2.0780 -0.4549
  329MOL0     H43417  10.289   6.364   3.469 -0.3903 -0.8185 -1.1451
  329MOL0     H43418  10.598   6.304   3.149  0.0949 -1.6620  0.8549
  329MOL0     H43419  10.460   6.400   3.083  2.7382  0.7631 -0.7451
  329MOL0     H43420  10.448   6.147   3.049 -2.8691 -0.9356 -0.3249
  329MOL0     H43421  10.423   6.115   3.210  0.6289 -1.7458 -1.8912
  329MOL0     H43422  10.240   6.280   3.032 -1.5030 -3.0092 -3.1411
  329MOL0     H43423  10.216   6.250   3.207  1.5466 -3.5535  0.9825
  329MOL0     H43424  10.208   6.084   2.951  1.4717  2.0634 -0.0239
  329MOL0     H43425  10.212   5.995   3.113 -0.9607  1.1385  1.1914
  329MOL0     H43426   9.834   6.153   3.065  0.3402 -0.4566  1.5853
  329MOL0     H43427  10.672   6.239   3.336 -0.3197  1.9784 -2.3882
  329MOL0     H43428  10.710   6.122   3.575 -0.0957 -0.5501 -0.6029
  330MOL0     O43429   2.099   4.488   3.943 -0.2807  0.0680 -0.7204
  330MOL0     C43430   2.113   4.366   3.965 -1.0842 -0.5739  0.3840
  330MOL0     O43431   2.228   4.296   4.001 -0.8911 -0.3347  0.0517
  330MOL0     C43432   2.341   4.379   3.976 -0.5331  0.9046 -0.1797
  330MOL0     C43433   2.386   4.403   3.853  0.5932 -0.4270  0.5009
  330MOL0     C43434   2.500   4.487   3.840  0.5628 -0.1835  0.3051
  330MOL0     C43435   2.572   4.535   3.955 -0.7309 -0.1746  1.5473
  330MOL0     O43436   2.684   4.598   3.936 -0.6214 -0.0934 -0.1183
  330MOL0     C43437   2.707   4.728   4.004  0.1825  0.2498  0.4952
  330MOL0     C43438   2.855   4.765   3.983  0.4721  0.6631  0.7616
  330MOL0     C43439   2.861   4.843   3.844  0.5912  0.4098 -1.0896
  330MOL0     C43440   2.979   4.922   3.848  0.2605  0.5706 -0.8097
  330MOL0     C43441   3.011   4.963   3.709  1.2270 -0.2008  1.0339
  330MOL0     C43442   3.135   5.053   3.692 -0.7544  0.4494 -0.1612
  330MOL0     C43443   3.188   5.025   3.544  0.8830  0.7874  0.3208
  330MOL0     C43444   3.312   5.098   3.506  0.3625 -0.0532 -0.0838
  330MOL0     N43445   3.431   5.065   3.590  0.4106 -0.9367  0.0026
  330MOL0     C43446   3.439   4.962   3.679  0.5059  0.0170  0.2703
  330MOL0     C43447   3.553   4.988   3.746 -0.1910  0.1620 -0.1494
  330MOL0     C43448   3.610   4.900   3.852  0.3188 -0.8404 -0.3032
  330MOL0     C43449   3.706   4.799   3.791  0.6171  0.3446 -0.7436
  330MOL0     C43450   3.680   4.650   3.819  0.1767 -0.1834  0.8202
  330MOL0     C43451   3.583   4.597   3.722  0.0852  0.1925  0.4921
  330MOL0     O43452   3.453   4.660   3.737 -0.7497  0.1666  0.5959
  330MOL0     C43453   3.357   4.629   3.641  0.6555  0.2432  0.0069
  330MOL0     C43454   3.224   4.659   3.678 -0.2314 -0.4703 -1.0051
  330MOL0     C43455   3.117   4.628   3.587 -1.0460 -0.7570 -0.1610
  330MOL0     C43456   3.142   4.588   3.449 -0.3907 -0.2190 -0.6967
  330MOL0     C43457   3.031   4.585   3.346  0.1333  0.4368  0.2768
  330MOL0     O43458   3.047   4.530   3.227  0.3169  0.7427  1.0138
  330MOL0     C43459   2.933   4.515   3.148 -0.6076  0.7894  0.0759
  330MOL0     C43460   2.901   4.632   3.072  0.0490  0.0860  0.5468
  330MOL0     C43461   2.796   4.635   2.992 -0.6120 -0.6528 -1.0034
  330MOL0     C43462   2.703   4.527   2.979 -0.3209 -0.0221  0.0078
  330MOL0     O43463   2.597   4.546   2.889 -0.2121 -0.4480  0.0843
  330MOL0     C43464   2.509   4.438   2.877 -0.2853 -0.4068 -0.0066
  330MOL0     C43465   2.401   4.470   2.768 -0.7409  0.1783  0.0586
  330MOL0     C43466   2.288   4.540   2.837  0.4831 -0.8199 -0.6044
  330MOL0     C43467   2.188   4.589   2.731  0.3520 -0.6820 -0.3539
  330MOL0     C43468   2.079   4.682   2.798 -0.3158  1.2308  0.5280
  330MOL0     C43469   1.974   4.718   2.696  0.5229 -0.0792  1.1003
  330MOL0     C43470   1.866   4.811   2.767 -0.2530  0.0027 -0.0057
  330MOL0     C43471   1.757   4.860   2.674  0.6520  0.0279  0.3153
  330MOL0    Cl43472   1.671   5.008   2.735  0.0015 -0.0259 -0.0874
  330MOL0     C43473   2.731   4.415   3.056 -0.9810  0.1228  0.8329
  330MOL0     C43474   2.846   4.405   3.139 -0.2912 -0.5553  0.3052
  330MOL0     O43475   2.923   4.607   3.393 -0.9434  0.0482 -0.2824
  330MOL0     C43476   3.277   4.561   3.422 -0.3163 -0.1477 -0.7494
  330MOL0     C43477   3.375   4.566   3.519 -0.1839 -1.1068 -0.8864
  330MOL0     N43478   3.606   5.103   3.699 -0.6336 -0.1440 -0.3212
  330MOL0     N43479   3.539   5.143   3.602 -0.3462 -0.5348  0.3665
  330MOL0     C43480   2.517   4.499   4.080  0.3888  0.6524 -0.8464
  330MOL0     C43481   2.405   4.422   4.089  0.2304 -0.5196 -0.4412
  330MOL0     C43482   1.985   4.292   3.952 -0.2268 -0.3927 -0.1931
  330MOL0     C43483   1.862   4.352   3.922  0.2738 -0.4408  0.5573
  330MOL0     C43484   1.737   4.281   3.918  0.4700 -0.5208  0.3637
  330MOL0     C43485   1.747   4.142   3.939 -0.0766 -0.2458 -0.2559
  330MOL0     O43486   1.638   4.054   3.928  0.0410 -0.4008  0.5993
  330MOL0     C43487   1.508   4.101   3.931 -0.0060  0.1542  0.5932
  330MOL0     C43488   1.430   4.055   3.801 -0.3462  0.0896 -0.3658
  330MOL0     C43489   1.294   4.123   3.789 -0.1811  0.5365  0.1215
  330MOL0     C43490   1.223   4.090   3.657  0.4767  1.3357 -0.3572
  330MOL0     C43491   1.225   3.942   3.634  0.4595 -0.3803 -0.7566
  330MOL0     C43492   1.208   3.822   3.617 -0.3557  0.0092  0.0118
  330MOL0     C43493   1.867   4.080   3.956  0.1080  0.1208 -0.2135
  330MOL0     C43494   1.994   4.152   3.971 -0.6033 -0.0625 -0.0894
  330MOL0     H43495   2.325   4.380   3.766 -0.7123  2.2738  0.6013
  330MOL0     H43496   2.538   4.508   3.740 -1.6549 -0.8210 -0.7456
  330MOL0     H43497   2.671   4.716   4.107  1.1095 -1.7803  0.6158
  330MOL0     H43498   2.647   4.808   3.959  0.4597  0.4984  0.5633
  330MOL0     H43499   2.925   4.682   3.993  1.7061  1.6424  0.4299
  330MOL0     H43500   2.889   4.835   4.060  3.3380  1.2412 -0.8808
  330MOL0     H43501   2.770   4.901   3.827 -0.0554  0.0084  0.8102
  330MOL0     H43502   2.870   4.757   3.776 -2.4248 -2.1301  1.3900
  330MOL0     H43503   2.976   5.014   3.907  2.0962 -0.1189  0.4679
  330MOL0     H43504   3.061   4.855   3.878 -0.0376  0.9135  0.9109
  330MOL0     H43505   2.929   5.018   3.662  1.2108 -1.5071 -0.5561
  330MOL0     H43506   3.031   4.876   3.647 -2.1164  0.3081 -1.0257
  330MOL0     H43507   3.211   5.047   3.770  0.8015  0.5154 -1.6354
  330MOL0     H43508   3.103   5.158   3.692  0.5751  0.8656  0.4107
  330MOL0     H43509   3.204   4.920   3.521  1.6844  0.9222  0.2549
  330MOL0     H43510   3.105   5.062   3.483  0.5687 -0.9603 -0.3546
  330MOL0     H43511   3.292   5.205   3.512 -0.7141 -0.3015  1.6210
  330MOL0     H43512   3.337   5.076   3.402  1.5803  0.6334  0.0533
  330MOL0     H43513   3.379   4.874   3.704  0.3459  0.5007  1.6965
  330MOL0     H43514   3.526   4.847   3.898 -2.2493  2.9756 -0.1424
  330MOL0     H43515   3.657   4.954   3.935 -4.1040 -0.3503  2.1495
  330MOL0     H43516   3.805   4.819   3.834  0.6506  0.7037 -0.9843
  330MOL0     H43517   3.707   4.816   3.683 -0.4561  1.9810 -0.5414
  330MOL0     H43518   3.777   4.600   3.807  1.6811  3.0410 -2.5105
  330MOL0     H43519   3.638   4.625   3.917  2.4338 -1.3652  1.5616
  330MOL0     H43520   3.545   4.496   3.739  0.1120  0.5369  2.8719
  330MOL0     H43521   3.618   4.626   3.622  0.8196  0.5539  0.8496
  330MOL0     H43522   3.198   4.696   3.777 -1.0372 -1.2200 -0.9142
  330MOL0     H43523   3.014   4.629   3.621 -0.7222 -0.3450  0.8360
  330MOL0     H43524   2.969   4.717   3.072  1.1819 -0.7973  1.1893
  330MOL0     H43525   2.771   4.721   2.932  0.0235  0.7202  0.6156
  330MOL0     H43526   2.475   4.425   2.980  1.1587 -0.9787  0.4255
  330MOL0     H43527   2.556   4.341   2.856  1.2452  0.4610 -0.8081
  330MOL0     H43528   2.364   4.381   2.716 -0.3713  1.6585 -2.9475
  330MOL0     H43529   2.431   4.539   2.689  1.4741 -0.3535  0.3651
  330MOL0     H43530   2.310   4.624   2.903 -0.1420 -1.1256  0.0094
  330MOL0     H43531   2.235   4.471   2.903  0.2241 -1.0934 -1.0924
  330MOL0     H43532   2.252   4.646   2.662  0.4291  3.5058  2.7706
  330MOL0     H43533   2.137   4.504   2.686  0.5524 -0.1791 -1.5814
  330MOL0     H43534   2.124   4.760   2.860  0.9468 -0.5904  2.0366
  330MOL0     H43535   2.031   4.609   2.864  1.1351  1.7833  2.2905
  330MOL0     H43536   1.938   4.629   2.644 -1.4634  1.8128 -0.9996
  330MOL0     H43537   2.017   4.773   2.612 -2.4166 -1.8588 -1.7766
  330MOL0     H43538   1.831   4.761   2.858  3.6955 -0.3910  1.4699
  330MOL0     H43539   1.923   4.899   2.799 -0.4218 -0.4492  1.6480
  330MOL0     H43540   1.683   4.779   2.670  1.6951 -0.8973 -1.8583
  330MOL0     H43541   1.796   4.873   2.573  0.0772 -1.0105 -0.0569
  330MOL0     H43542   2.666   4.329   3.051  0.8217 -1.2933 -3.5237
  330MOL0     H43543   2.874   4.317   3.196  1.9509  2.1810  3.8790
  330MOL0     H43544   3.309   4.533   3.322 -1.5691  1.8228 -1.7681
  330MOL0     H43545   3.478   4.543   3.496  0.0031  0.3292 -1.6169
  330MOL0     H43546   2.578   4.532   4.163  1.7275 -1.6180 -0.8377
  330MOL0     H43547   2.351   4.403   4.181 -3.6785  1.9320 -1.9946
  330MOL0     H43548   1.850   4.456   3.892  1.1902 -0.6011 -0.4245
  330MOL0     H43549   1.644   4.332   3.893  1.2297  0.1698 -1.1990
  330MOL0     H43550   1.504   4.209   3.948 -0.5689 -0.0240  1.7166
  330MOL0     H43551   1.464   4.060   4.023  0.7810  3.0052  2.3791
  330MOL0     H43552   1.481   4.072   3.706 -4.1854 -0.5159 -2.7104
  330MOL0     H43553   1.426   3.947   3.813  1.8558 -0.0102  0.0665
  330MOL0     H43554   1.305   4.231   3.797  2.6123  0.3932 -0.6214
  330MOL0     H43555   1.227   4.099   3.872  0.3570  0.3813  0.5170
  330MOL0     H43556   1.119   4.121   3.653 -0.1149 -0.5504 -0.4129
  330MOL0     H43557   1.276   4.142   3.576  1.5258 -0.4074 -0.8630
  330MOL0     H43558   1.188   3.717   3.606  1.0691 -0.4727  1.5072
  330MOL0     H43559   1.860   3.973   3.967  0.3560  0.1056 -0.2079
  330MOL0     H43560   2.093   4.113   3.994  0.3739  0.9640 -2.2308
  331MOL0     O43561   4.682   8.173   2.072 -0.4428  0.0605 -0.0867
  331MOL0     C43562   4.768   8.263   2.065  0.4882  1.3453 -0.2935
  331MOL0     O43563   4.739   8.392   2.039  0.0719 -0.4848 -0.1247
  331MOL0     C43564   4.621   8.462   2.016 -0.1669 -0.7743 -0.5721
  331MOL0     C43565   4.629   8.594   1.967 -0.2080 -0.0629  0.3467
  331MOL0     C43566   4.513   8.662   1.944  0.5596  0.1969 -0.6065
  331MOL0     C43567   4.388   8.619   1.987  0.4904  0.8546 -1.3187
  331MOL0     O43568   4.278   8.693   1.955 -0.0315 -0.3171 -0.0140
  331MOL0     C43569   4.181   8.614   1.883 -0.0856 -0.6201 -0.2843
  331MOL0     C43570   4.089   8.700   1.800  0.7355  0.2380 -0.8128
  331MOL0     C43571   3.959   8.626   1.762 -0.0507  0.3347  0.3801
  331MOL0     C43572   3.861   8.722   1.684 -0.2153  1.0771  0.2685
  331MOL0     C43573   3.846   8.674   1.539  0.4642  0.0552 -0.1586
  331MOL0     C43574   3.733   8.746   1.466  0.3517 -0.6621 -0.0674
  331MOL0     C43575   3.687   8.675   1.340 -0.2763  0.2077  0.0745
  331MOL0     C43576   3.790   8.697   1.238 -0.2444 -0.9694  0.0509
  331MOL0     N43577   3.775   8.636   1.111  0.3772 -0.5352  0.6797
  331MOL0     C43578   3.792   8.502   1.073 -0.7545 -0.3266 -0.4151
  331MOL0     C43579   3.823   8.503   0.943 -0.3253  0.6429 -0.2575
  331MOL0     C43580   3.859   8.394   0.844  0.1596 -0.4824 -0.0375
  331MOL0     C43581   3.911   8.267   0.904 -0.4133  0.6018  0.4027
  331MOL0     C43582   4.054   8.306   0.967  0.2368  1.5207 -0.1025
  331MOL0     C43583   4.117   8.168   0.984  0.2311  0.2198  1.0743
  331MOL0     O43584   4.254   8.210   0.974  0.0364  0.0952  0.3141
  331MOL0     C43585   4.346   8.106   0.996  0.1830 -0.2777  0.6029
  331MOL0     C43586   4.334   7.977   0.949 -0.4912  0.7170 -0.0061
  331MOL0     C43587   4.429   7.882   0.978 -0.8759 -0.4737  0.2838
  331MOL0     C43588   4.544   7.910   1.064  0.2091  0.2768 -0.2618
  331MOL0     C43589   4.636   7.795   1.092 -0.2019 -0.1582 -0.0775
  331MOL0     O43590   4.612   7.675   1.031 -0.1690 -0.3684  0.5546
  331MOL0     C43591   4.725   7.612   0.986  1.2485 -0.1659 -0.0295
  331MOL0     C43592   4.786   7.652   0.869  0.1745  0.7576  1.5459
  331MOL0     C43593   4.905   7.599   0.840 -0.7420  0.3396 -0.0343
  331MOL0     C43594   4.960   7.480   0.893  0.3170  0.5426  0.5862
  331MOL0     O43595   5.077   7.434   0.833  0.1098  0.2348 -0.3100
  331MOL0     C43596   5.152   7.335   0.894  0.1042  0.6086 -0.2956
  331MOL0     C43597   5.272   7.309   0.802 -0.0201 -0.1594  0.7518
  331MOL0     C43598   5.224   7.275   0.655  0.7159 -0.1421  0.4286
  331MOL0     C43599   5.352   7.267   0.571  0.2468 -0.3896 -0.9349
  331MOL0     C43600   5.340   7.191   0.430  0.5262  1.1005  0.4786
  331MOL0     C43601   5.475   7.187   0.370  0.0221  1.1935  0.5533
  331MOL0     C43602   5.477   7.162   0.219 -0.4048  0.4366  0.1157
  331MOL0     C43603   5.459   7.015   0.189 -0.1268 -0.2796 -0.3325
  331MOL0    Cl43604   5.610   6.913   0.229 -0.2484 -0.3856 -0.5714
  331MOL0     C43605   4.885   7.420   0.996 -0.8632 -0.4735  0.1392
  331MOL0     C43606   4.770   7.487   1.041  0.4750 -0.3703 -0.5949
  331MOL0     O43607   4.731   7.823   1.162  0.2841  0.2925 -0.3033
  331MOL0     C43608   4.561   8.038   1.107 -1.2323  0.3599 -1.3448
  331MOL0     C43609   4.462   8.132   1.074 -0.1849  0.6299  0.2208
  331MOL0     N43610   3.811   8.631   0.900  0.0510  1.2270  0.3324
  331MOL0     N43611   3.799   8.708   1.004 -0.0454  0.5462 -0.2339
  331MOL0     C43612   4.377   8.493   2.044 -0.3005 -0.5782 -0.1664
  331MOL0     C43613   4.492   8.407   2.041  0.0124 -0.0499 -0.6307
  331MOL0     C43614   4.904   8.225   2.094 -0.4753  1.0264 -1.7033
  331MOL0     C43615   4.942   8.089   2.100  0.4898 -0.6201  0.2951
  331MOL0     C43616   5.065   8.050   2.137  0.2995  0.3733 -0.4598
  331MOL0     C43617   5.161   8.143   2.163  0.2518 -0.1835 -0.2105
  331MOL0     O43618   5.290   8.091   2.177 -0.0956 -0.3653  0.0955
  331MOL0     C43619   5.403   8.182   2.179  0.5360  0.1059 -0.2446
  331MOL0     C43620   5.521   8.101   2.228 -0.0422  0.1227  0.6417
  331MOL0     C43621   5.648   8.170   2.200  1.4878  1.4108 -0.3329
  331MOL0     C43622   5.762   8.079   2.227 -1.1409  0.0492  0.6422
  331MOL0     C43623   5.894   8.124   2.194  0.4796  0.4421  0.5922
  331MOL0     C43624   6.009   8.153   2.161 -0.1966 -0.0727 -0.5342
  331MOL0     C43625   5.139   8.281   2.136  0.2893 -0.1390 -0.1627
  331MOL0     C43626   5.003   8.323   2.115  0.2414 -0.4797 -0.0932
  331MOL0     H43627   4.725   8.643   1.957  0.4247 -0.9628  1.6472
  331MOL0     H43628   4.521   8.762   1.902 -1.8771  0.8504  0.2946
  331MOL0     H43629   4.119   8.552   1.949 -0.2111  1.4128  1.5914
  331MOL0     H43630   4.236   8.560   1.805 -2.4721 -0.6605 -2.0637
  331MOL0     H43631   4.137   8.724   1.705  1.9256  2.0359  0.1762
  331MOL0     H43632   4.055   8.789   1.855 -1.7489  0.1253 -2.0482
  331MOL0     H43633   3.904   8.584   1.847 -1.5661  0.9469 -0.2651
  331MOL0     H43634   3.997   8.541   1.704  1.6429  2.4378 -1.7456
  331MOL0     H43635   3.761   8.718   1.727 -0.3489  0.7734 -0.0690
  331MOL0     H43636   3.897   8.825   1.692  0.5892  0.6718  2.7079
  331MOL0     H43637   3.798   8.579   1.563 -1.0347  1.2514  2.0525
  331MOL0     H43638   3.937   8.660   1.481 -0.1070  2.7226 -1.8710
  331MOL0     H43639   3.748   8.853   1.453 -2.9190  0.2272  2.2877
  331MOL0     H43640   3.642   8.739   1.526 -0.5949  2.7494 -0.8950
  331MOL0     H43641   3.681   8.570   1.367 -1.2674  0.0685 -0.5990
  331MOL0     H43642   3.587   8.710   1.311  0.4873  1.5402 -1.1065
  331MOL0     H43643   3.884   8.665   1.284 -1.7100 -1.1216  3.1101
  331MOL0     H43644   3.798   8.806   1.227 -3.3956 -0.4620  1.7602
  331MOL0     H43645   3.792   8.420   1.145  1.2014  2.1445  2.6998
  331MOL0     H43646   3.939   8.434   0.780 -0.5331 -1.1343 -1.3570
  331MOL0     H43647   3.769   8.377   0.785 -1.4522 -0.1360  2.1965
  331MOL0     H43648   3.912   8.193   0.823  3.6466  2.1324 -1.2305
  331MOL0     H43649   3.847   8.225   0.982 -0.4696 -0.9240 -0.4112
  331MOL0     H43650   4.103   8.374   0.896  0.9595  1.3655  0.2405
  331MOL0     H43651   4.057   8.346   1.069  2.2320 -0.7721  0.8257
  331MOL0     H43652   4.097   8.109   0.894  1.1293  1.1777  0.2055
  331MOL0     H43653   4.099   8.123   1.082  1.4900  1.2569  1.8187
  331MOL0     H43654   4.254   7.947   0.883  1.6687  2.0472 -3.5411
  331MOL0     H43655   4.419   7.783   0.934  0.5338 -0.9497  0.9541
  331MOL0     H43656   4.762   7.738   0.807  3.1663 -1.3781 -3.0708
  331MOL0     H43657   4.959   7.648   0.759  0.3925  2.1257  1.6985
  331MOL0     H43658   5.090   7.245   0.904 -2.4830  2.5334  2.7611
  331MOL0     H43659   5.177   7.371   0.994 -1.9941  1.0281  0.1236
  331MOL0     H43660   5.339   7.233   0.843  1.8550 -0.1369 -1.9734
  331MOL0     H43661   5.336   7.398   0.800 -1.2970  0.7809 -1.1039
  331MOL0     H43662   5.157   7.356   0.625  0.4357  0.2752  2.0920
  331MOL0     H43663   5.166   7.182   0.647  0.2425  0.2285 -0.6185
  331MOL0     H43664   5.383   7.371   0.555  1.4595 -0.5178  0.4325
  331MOL0     H43665   5.433   7.219   0.626 -1.5219 -3.3684 -0.7053
  331MOL0     H43666   5.258   7.236   0.373 -1.8918 -5.4413 -2.1601
  331MOL0     H43667   5.320   7.085   0.445  1.3418  0.6280 -1.4354
  331MOL0     H43668   5.540   7.119   0.425 -2.0780 -0.0613  1.6286
  331MOL0     H43669   5.528   7.282   0.378  1.9951  0.1052  0.8575
  331MOL0     H43670   5.400   7.217   0.165 -0.6617  0.8882  0.9263
  331MOL0     H43671   5.566   7.209   0.175  0.0895 -0.4531  0.1368
  331MOL0     H43672   5.436   7.021   0.083  0.7835  2.4213 -0.4429
  331MOL0     H43673   5.372   6.983   0.249  0.1972 -0.7802 -0.1234
  331MOL0     H43674   4.917   7.327   1.042  1.4823 -0.4720 -1.3001
  331MOL0     H43675   4.709   7.438   1.117  2.2490 -2.0012 -0.1368
  331MOL0     H43676   4.630   8.067   1.185 -3.1877  0.1018  0.5933
  331MOL0     H43677   4.496   8.227   1.112  3.4189  0.8452 -2.9353
  331MOL0     H43678   4.277   8.464   2.076 -0.6048  2.0432  1.5056
  331MOL0     H43679   4.490   8.305   2.077 -0.6185 -1.0759 -3.3068
  331MOL0     H43680   4.872   8.018   2.056  0.6492 -0.1219 -0.7976
  331MOL0     H43681   5.075   7.943   2.128 -2.4448  0.1016 -1.2329
  331MOL0     H43682   5.387   8.270   2.242 -0.7576  0.2019 -0.6924
  331MOL0     H43683   5.432   8.217   2.079 -3.4570 -2.1986 -2.4473
  331MOL0     H43684   5.505   8.076   2.334 -0.9517  0.0479  0.4966
  331MOL0     H43685   5.529   8.008   2.172 -3.0474 -0.7271  1.4358
  331MOL0     H43686   5.647   8.252   2.272 -5.4183  0.2550  1.6113
  331MOL0     H43687   5.643   8.204   2.096  1.0269  2.8700  0.1471
  331MOL0     H43688   5.746   8.043   2.329 -0.2905 -0.5824  0.5675
  331MOL0     H43689   5.761   7.994   2.158  1.2283  1.6121 -1.5117
  331MOL0     H43690   6.106   8.173   2.121 -1.7996  0.6165 -4.5835
  331MOL0     H43691   5.222   8.351   2.142  2.1854 -2.0732 -1.9045
  331MOL0     H43692   4.979   8.428   2.129 -3.0376 -1.2479  0.8276
  332MOL0     O43693   0.138   0.539   0.435 -0.3621 -0.0515  0.0499
  332MOL0     C43694   0.170   0.604   0.335 -0.7987 -0.0992  0.9328
  332MOL0     O43695   0.266   0.566   0.248  0.9724 -0.3425  0.1986
  332MOL0     C43696   0.363   0.486   0.292  1.0221  0.0937  0.2725
  332MOL0     C43697   0.425   0.495   0.411 -0.1983 -0.4125 -0.1728
  332MOL0     C43698   0.514   0.398   0.454 -0.7862 -1.1229 -1.1822
  332MOL0     C43699   0.560   0.296   0.374  0.6217  0.4527 -0.0816
  332MOL0     O43700   0.653   0.196   0.415  0.6374 -0.6743 -0.4797
  332MOL0     C43701   0.742   0.238   0.520  0.1958 -0.1610  0.0447
  332MOL0     C43702   0.859   0.145   0.530 -0.0465 -0.3086  0.5306
  332MOL0     C43703   0.990   0.212   0.589  0.7068 -0.9652  0.3594
  332MOL0     C43704   1.083   0.106   0.635  0.1650  0.1491  1.3209
  332MOL0     C43705   1.216   0.167   0.695  0.7986 -0.2358  0.1216
  332MOL0     C43706   1.294   0.055   0.771  0.7442 -0.5149 -0.6385
  332MOL0     C43707   1.431   0.089   0.808  0.8653 -0.6884 -1.0897
  332MOL0     C43708   1.536  -0.008   0.745 -0.3611 -0.2832 -0.6168
  332MOL0     N43709   1.674   0.021   0.762 -0.4877  0.2963  0.3175
  332MOL0     C43710   1.757   0.089   0.663 -0.2262  0.3367 -0.2953
  332MOL0     C43711   1.880   0.096   0.712 -0.9346 -0.2975  0.6813
  332MOL0     C43712   1.995   0.135   0.623  0.5882 -1.4472 -0.0145
  332MOL0     C43713   1.974   0.272   0.558  0.7697 -0.2691  1.0232
  332MOL0     C43714   2.102   0.337   0.532 -0.3448 -0.5385  0.1275
  332MOL0     C43715   2.178   0.304   0.400 -0.1060  0.4352  0.2011
  332MOL0     O43716   2.169   0.168   0.373  0.4176  0.2101 -0.1148
  332MOL0     C43717   2.271   0.107   0.299 -0.1726  0.2547 -0.4029
  332MOL0     C43718   2.387   0.165   0.238  1.2004  0.3154 -0.4000
  332MOL0     C43719   2.479   0.068   0.183 -0.5918 -0.8961  0.8353
  332MOL0     C43720   2.456  -0.067   0.165  0.5400 -0.3510  0.7711
  332MOL0     C43721   2.557  -0.159   0.102 -0.2991 -0.6499  0.3650
  332MOL0     O43722   2.532  -0.289   0.102  0.9736  0.0980  0.3126
  332MOL0     C43723   2.598  -0.369   0.013 -0.3360  0.5323  0.6467
  332MOL0     C43724   2.736  -0.406   0.034 -0.4649 -0.4772  0.2272
  332MOL0     C43725   2.810  -0.466  -0.067 -0.3099 -0.1075 -0.1498
  332MOL0     C43726   2.746  -0.488  -0.188  0.9303  0.3194  0.2896
  332MOL0     O43727   2.804  -0.553  -0.291  0.0229  0.0261 -1.0678
  332MOL0     C43728   2.930  -0.633  -0.274  0.6190 -0.5353 -0.3592
  332MOL0     C43729   2.989  -0.705  -0.396 -0.8665 -0.1904  0.0954
  332MOL0     C43730   2.935  -0.848  -0.398  0.7977  0.3363  0.5531
  332MOL0     C43731   3.026  -0.950  -0.478 -0.0801 -0.7608 -0.6167
  332MOL0     C43732   3.046  -0.916  -0.626 -0.1942  0.1634 -0.5565
  332MOL0     C43733   3.190  -0.953  -0.669 -0.5985  0.9256 -0.0844
  332MOL0     C43734   3.206  -0.939  -0.822  0.7078  0.2719 -0.4307
  332MOL0     C43735   3.334  -0.994  -0.871  0.0697 -1.1491 -0.6796
  332MOL0    Cl43736   3.339  -1.175  -0.871 -0.3945 -0.2252 -0.0673
  332MOL0     C43737   2.610  -0.455  -0.214 -0.3566 -0.1459  0.3523
  332MOL0     C43738   2.536  -0.391  -0.119  0.8432 -1.2810  0.0561
  332MOL0     O43739   2.642  -0.110   0.034  0.0551  0.2093 -0.5558
  332MOL0     C43740   2.330  -0.112   0.209 -1.0566 -0.4800  0.3149
  332MOL0     C43741   2.245  -0.034   0.288 -0.1455 -0.1813  0.9525
  332MOL0     N43742   1.880   0.026   0.834  0.0621 -0.0101 -0.0781
  332MOL0     N43743   1.758  -0.016   0.867  0.3986 -0.4075  0.3921
  332MOL0     C43744   0.501   0.289   0.244  0.1953  0.3949 -1.1822
  332MOL0     C43745   0.403   0.381   0.209 -0.0467  0.2136  0.2057
  332MOL0     C43746   0.095   0.733   0.308  0.9334  0.0730 -0.5126
  332MOL0     C43747   0.067   0.794   0.181  0.3807 -0.4887 -1.0536
  332MOL0     C43748  -0.011   0.908   0.177 -0.3570  0.2869  0.1704
  332MOL0     C43749  -0.069   0.966   0.299 -0.1861  0.1324  0.4533
  332MOL0     O43750  -0.166   1.064   0.302 -0.1322 -0.6883 -0.4361
  332MOL0     C43751  -0.243   1.107   0.188 -0.1181  0.8452 -0.6220
  332MOL0     C43752  -0.352   1.197   0.249  0.0090  0.0623  0.5797
  332MOL0     C43753  -0.289   1.336   0.284 -0.0803  0.7256  0.3265
  332MOL0     C43754  -0.288   1.430   0.159 -0.2977  1.0684  0.0848
  332MOL0     C43755  -0.347   1.558   0.187  0.4898  0.0265  1.0221
  332MOL0     C43756  -0.388   1.666   0.210  0.9068 -0.2126 -0.7559
  332MOL0     C43757  -0.031   0.912   0.418  0.1936 -1.1626 -0.0759
  332MOL0     C43758   0.054   0.804   0.422 -0.1654 -0.2071 -1.2617
  332MOL0     H43759   0.412   0.578   0.480  1.3793  0.3651 -0.7621
  332MOL0     H43760   0.555   0.416   0.552  2.1330  3.2645 -2.9091
  332MOL0     H43761   0.685   0.241   0.613  3.2626 -1.2974  2.0898
  332MOL0     H43762   0.778   0.341   0.508  2.5946 -1.0758 -1.5183
  332MOL0     H43763   0.881   0.117   0.427 -0.9859  2.1523 -0.4003
  332MOL0     H43764   0.835   0.057   0.592 -1.5163  0.1022  0.5974
  332MOL0     H43765   0.966   0.263   0.683  0.2061  3.0625 -1.7524
  332MOL0     H43766   1.032   0.293   0.529 -2.1299 -0.3468 -0.9587
  332MOL0     H43767   1.042   0.040   0.713  1.8109 -1.7860  0.6400
  332MOL0     H43768   1.107   0.053   0.543 -1.6406  2.0859 -0.3727
  332MOL0     H43769   1.185   0.241   0.769  1.4859 -1.0401  1.2604
  332MOL0     H43770   1.272   0.209   0.611  1.3979 -2.0916 -0.4677
  332MOL0     H43771   1.296  -0.041   0.719  2.4435 -2.4182  2.6269
  332MOL0     H43772   1.238   0.034   0.863 -2.2304  0.4567 -2.0865
  332MOL0     H43773   1.448   0.188   0.766  2.2033 -1.1326 -1.6544
  332MOL0     H43774   1.437   0.089   0.917 -3.8327 -3.2333 -0.5873
  332MOL0     H43775   1.517  -0.007   0.638 -1.0130  3.8340 -0.6151
  332MOL0     H43776   1.518  -0.111   0.779  2.0190  0.1563  2.4284
  332MOL0     H43777   1.723   0.118   0.564 -2.5642 -1.5214 -0.1366
  332MOL0     H43778   2.017   0.065   0.541  3.4481 -1.9314  1.0434
  332MOL0     H43779   2.085   0.139   0.685  2.7814 -2.2956 -2.8951
  332MOL0     H43780   1.939   0.344   0.633  3.2357  0.6902  1.3306
  332MOL0     H43781   1.914   0.270   0.466  1.5773 -2.1466  0.5070
  332MOL0     H43782   2.095   0.446   0.534  0.5761 -0.4795  1.0125
  332MOL0     H43783   2.175   0.317   0.611 -0.2813 -0.3583  0.1148
  332MOL0     H43784   2.283   0.335   0.393 -0.2070  0.6319 -0.4964
  332MOL0     H43785   2.130   0.349   0.313 -1.5452 -1.8014 -0.2289
  332MOL0     H43786   2.399   0.272   0.242  0.7461  0.3404  2.9833
  332MOL0     H43787   2.563   0.118   0.136 -0.5300 -1.3948  0.4115
  332MOL0     H43788   2.788  -0.382   0.126  3.5044  0.0404 -1.9397
  332MOL0     H43789   2.916  -0.485  -0.056  0.3228  2.0826 -1.7358
  332MOL0     H43790   2.914  -0.696  -0.186 -0.9988  0.4266  0.0901
  332MOL0     H43791   3.014  -0.573  -0.238  0.0906 -1.9387  3.8207
  332MOL0     H43792   3.098  -0.709  -0.392 -0.8826 -0.0854  3.1817
  332MOL0     H43793   2.958  -0.645  -0.483 -4.4384  0.0081  1.3343
  332MOL0     H43794   2.842  -0.850  -0.455  0.1162  0.3072  1.6565
  332MOL0     H43795   2.916  -0.882  -0.296 -1.2631  1.2198  0.5085
  332MOL0     H43796   3.129  -0.951  -0.443  0.1907  1.3058 -1.1998
  332MOL0     H43797   2.992  -1.053  -0.465 -1.6949 -0.3134 -1.0303
  332MOL0     H43798   3.027  -0.813  -0.655 -1.6873  0.4048  1.0478
  332MOL0     H43799   2.971  -0.978  -0.675 -1.6103  1.5163 -0.1673
  332MOL0     H43800   3.211  -1.051  -0.626 -0.8055  0.8863 -0.0698
  332MOL0     H43801   3.252  -0.877  -0.620 -1.9869  0.7302  2.1283
  332MOL0     H43802   3.123  -0.973  -0.884  1.8829 -2.3055 -0.6918
  332MOL0     H43803   3.218  -0.832  -0.842 -2.1363  1.0739  1.5057
  332MOL0     H43804   3.417  -0.950  -0.815 -1.3123  2.6938 -1.2903
  332MOL0     H43805   3.342  -0.971  -0.977  1.8390  0.9220 -0.1609
  332MOL0     H43806   2.568  -0.470  -0.313 -2.0320  3.4607  0.3217
  332MOL0     H43807   2.437  -0.352  -0.139  1.4019 -0.1481 -0.6401
  332MOL0     H43808   2.309  -0.218   0.205 -1.5390 -0.3411 -1.4153
  332MOL0     H43809   2.166  -0.072   0.352 -0.2392 -1.2813  0.2132
  332MOL0     H43810   0.524   0.218   0.166 -1.8161  0.7798 -2.1765
  332MOL0     H43811   0.351   0.370   0.115 -1.0012  2.0245  0.4758
  332MOL0     H43812   0.104   0.749   0.089 -2.0225 -1.2361 -1.7325
  332MOL0     H43813  -0.052   0.936   0.080 -1.7765 -1.0929  0.3285
  332MOL0     H43814  -0.297   1.020   0.150  1.4167 -0.3226 -0.2152
  332MOL0     H43815  -0.178   1.150   0.112  0.8715 -1.1595 -0.9683
  332MOL0     H43816  -0.441   1.198   0.185 -3.2798 -0.2712  4.7075
  332MOL0     H43817  -0.396   1.156   0.340 -0.1924  2.9031  1.8810
  332MOL0     H43818  -0.196   1.326   0.340  1.2407 -0.0963 -1.8901
  332MOL0     H43819  -0.356   1.378   0.360 -0.3095  4.1185 -1.5433
  332MOL0     H43820  -0.183   1.440   0.130  0.1613 -3.8691 -0.9005
  332MOL0     H43821  -0.334   1.379   0.073  3.8797  0.7250 -2.2165
  332MOL0     H43822  -0.419   1.766   0.235  0.0501 -0.4577 -0.7990
  332MOL0     H43823  -0.059   0.946   0.518  2.8153 -1.3085  0.7743
  332MOL0     H43824   0.076   0.772   0.524 -1.3806  0.8966 -0.6206
  333MOL0     O43825   4.466   3.895   8.729  0.2145 -0.2289  0.4088
  333MOL0     C43826   4.456   3.831   8.628 -0.9067 -0.2013  0.5666
  333MOL0     O43827   4.482   3.884   8.502 -0.0581 -0.2127  0.2412
  333MOL0     C43828   4.484   4.020   8.490  0.8602  0.9282 -0.1611
  333MOL0     C43829   4.356   4.083   8.454  0.1967  0.8784 -0.2391
  333MOL0     C43830   4.358   4.220   8.429  0.5112  1.2423 -0.1378
  333MOL0     C43831   4.469   4.295   8.441 -0.6203 -0.6583 -0.4319
  333MOL0     O43832   4.466   4.428   8.399 -0.5103 -0.3198 -0.1659
  333MOL0     C43833   4.537   4.446   8.275  0.2564 -0.6160  0.2881
  333MOL0     C43834   4.440   4.465   8.160 -0.8348  0.0113 -0.1625
  333MOL0     C43835   4.334   4.571   8.179  0.4422  0.1570 -0.2032
  333MOL0     C43836   4.246   4.604   8.051 -0.5780 -0.5411  0.3075
  333MOL0     C43837   4.307   4.709   7.949  0.4453  0.2254  0.3302
  333MOL0     C43838   4.302   4.853   7.998 -0.0447 -0.4405  0.0043
  333MOL0     C43839   4.379   4.924   7.892 -0.2784 -1.6276  0.5601
  333MOL0     C43840   4.340   5.077   7.889 -0.0714  0.0659  0.1793
  333MOL0     N43841   4.391   5.151   7.771  0.2225 -0.2619 -0.2689
  333MOL0     C43842   4.526   5.182   7.745 -0.3189  0.8109 -0.9161
  333MOL0     C43843   4.523   5.239   7.622  0.4347  0.2771  0.1829
  333MOL0     C43844   4.642   5.291   7.543  0.0934 -0.6285  0.6568
  333MOL0     C43845   4.638   5.264   7.391 -0.3148 -1.0667  0.3741
  333MOL0     C43846   4.723   5.354   7.295  0.3490 -0.0003 -0.0931
  333MOL0     C43847   4.665   5.496   7.270 -0.8159  0.3137  0.5723
  333MOL0     O43848   4.712   5.526   7.145 -0.1498 -0.5528  0.7468
  333MOL0     C43849   4.645   5.500   7.026  0.4538 -0.6942 -0.1941
  333MOL0     C43850   4.533   5.406   7.017  0.0481  0.9798  0.3217
  333MOL0     C43851   4.469   5.384   6.895  0.0190 -0.3874  0.9639
  333MOL0     C43852   4.517   5.455   6.778  0.4389 -0.1519 -0.9336
  333MOL0     C43853   4.451   5.438   6.651 -0.8351  0.8004  0.4565
  333MOL0     O43854   4.327   5.402   6.662 -0.6014 -0.1056 -0.1460
  333MOL0     C43855   4.263   5.369   6.549 -0.3760 -0.5212  0.6078
  333MOL0     C43856   4.158   5.455   6.509  0.0739  0.2567  0.4216
  333MOL0     C43857   4.074   5.418   6.396  0.6952  0.5267  0.0198
  333MOL0     C43858   4.103   5.302   6.318 -0.2805  0.2254 -0.2680
  333MOL0     O43859   4.024   5.267   6.213  0.1085  0.1535 -0.5080
  333MOL0     C43860   4.058   5.156   6.136 -0.9345  0.2695  0.0867
  333MOL0     C43861   3.956   5.137   6.020  0.9192  0.8234  0.8902
  333MOL0     C43862   3.984   5.009   5.938 -0.5048 -0.2347 -0.4395
  333MOL0     C43863   3.848   4.939   5.902  0.0521 -1.1166  0.0735
  333MOL0     C43864   3.866   4.834   5.798 -0.4820 -0.4547  0.6700
  333MOL0     C43865   3.978   4.741   5.813 -0.5845 -1.0520  0.1678
  333MOL0     C43866   3.951   4.635   5.917  0.6982  0.2179  0.6821
  333MOL0     C43867   4.044   4.520   5.902  0.7037  0.9758 -0.5911
  333MOL0    Cl43868   4.020   4.388   6.035 -0.2577 -0.1838 -0.0436
  333MOL0     C43869   4.210   5.223   6.364 -0.2202  0.3093  0.0810
  333MOL0     C43870   4.282   5.255   6.484 -0.0534  0.0074  0.6174
  333MOL0     O43871   4.519   5.454   6.547 -0.8105  0.5346  0.7687
  333MOL0     C43872   4.607   5.558   6.798  0.1297  0.1061  0.4627
  333MOL0     C43873   4.667   5.584   6.916 -0.4630 -0.2393 -0.8751
  333MOL0     N43874   4.392   5.257   7.573  0.5773 -0.6751 -0.2184
  333MOL0     N43875   4.320   5.205   7.668  0.5662 -0.2303  0.1966
  333MOL0     C43876   4.595   4.234   8.473 -0.0492 -0.8375 -0.2777
  333MOL0     C43877   4.597   4.095   8.491 -0.3915 -0.0181  0.0057
  333MOL0     C43878   4.417   3.687   8.644  0.2203 -0.9429  0.3064
  333MOL0     C43879   4.385   3.635   8.763 -0.9892 -0.0176 -0.2591
  333MOL0     C43880   4.348   3.508   8.767  0.0080  0.9150  0.5667
  333MOL0     C43881   4.360   3.423   8.657  1.1387 -0.3308 -0.6126
  333MOL0     O43882   4.343   3.285   8.679  0.8670  0.5411 -0.2886
  333MOL0     C43883   4.201   3.241   8.661  0.3842  0.6539 -0.5725
  333MOL0     C43884   4.116   3.207   8.790 -0.9427  0.3723 -0.3770
  333MOL0     C43885   4.149   3.065   8.857 -0.2725  0.7805  0.4632
  333MOL0     C43886   4.280   3.064   8.938 -0.1605  0.3795 -0.2457
  333MOL0     C43887   4.309   2.950   9.019 -0.2046 -0.3535  0.6578
  333MOL0     C43888   4.320   2.839   9.080 -0.1684  0.6921 -0.2845
  333MOL0     C43889   4.392   3.467   8.533 -0.2105  0.1046  1.0710
  333MOL0     C43890   4.420   3.608   8.529  0.3148  0.3323  0.4836
  333MOL0     H43891   4.262   4.030   8.444 -0.3519  1.5359  1.1655
  333MOL0     H43892   4.265   4.275   8.414 -0.6170  0.5406  3.4389
  333MOL0     H43893   4.603   4.362   8.250 -0.5524 -1.0062 -0.5964
  333MOL0     H43894   4.598   4.536   8.289 -0.4620 -0.3131  1.6848
  333MOL0     H43895   4.397   4.365   8.148 -0.4697 -0.2772  0.8289
  333MOL0     H43896   4.503   4.481   8.072 -0.9310 -3.0583 -0.9006
  333MOL0     H43897   4.377   4.661   8.224  0.3612  0.6157 -1.0180
  333MOL0     H43898   4.264   4.528   8.251  0.1014 -2.3607 -1.8821
  333MOL0     H43899   4.224   4.516   7.991  2.1977 -0.1208 -1.5393
  333MOL0     H43900   4.149   4.646   8.079 -0.4256 -1.6946  2.8421
  333MOL0     H43901   4.226   4.704   7.876 -1.1907  1.0382  2.0096
  333MOL0     H43902   4.400   4.672   7.905  0.1408  1.5609 -1.5709
  333MOL0     H43903   4.344   4.874   8.097 -1.6120 -2.1433  1.0714
  333MOL0     H43904   4.196   4.879   7.998  0.4186  1.9302  2.2533
  333MOL0     H43905   4.484   4.911   7.920 -0.1488 -1.0582  0.3526
  333MOL0     H43906   4.375   4.881   7.792 -1.5387  0.9037 -0.5851
  333MOL0     H43907   4.381   5.132   7.974  0.5149  0.2762 -0.2325
  333MOL0     H43908   4.232   5.095   7.882  0.0838  0.5416 -1.6336
  333MOL0     H43909   4.609   5.168   7.813 -0.2815  3.3241 -0.3301
  333MOL0     H43910   4.737   5.251   7.581  1.3001  1.2525 -0.2003
  333MOL0     H43911   4.631   5.397   7.569 -3.0170 -0.4565 -0.8900
  333MOL0     H43912   4.533   5.269   7.360 -0.9917  0.4807  2.6583
  333MOL0     H43913   4.655   5.160   7.360 -0.5615 -1.0595  0.2058
  333MOL0     H43914   4.818   5.355   7.350  0.7916  2.8177 -0.7745
  333MOL0     H43915   4.711   5.292   7.206 -1.6692  0.6403 -0.3029
  333MOL0     H43916   4.721   5.561   7.338  0.7345 -1.2310  0.8251
  333MOL0     H43917   4.559   5.519   7.289 -0.3198  5.1951 -1.2372
  333MOL0     H43918   4.524   5.342   7.105  1.8638  2.6804  1.8663
  333MOL0     H43919   4.398   5.302   6.896  1.1944 -1.4493  2.6572
  333MOL0     H43920   4.117   5.536   6.568  1.7522  1.1904  0.3662
  333MOL0     H43921   3.990   5.483   6.374 -0.4508 -0.1557  2.0318
  333MOL0     H43922   4.058   5.063   6.194  0.4586 -0.8463 -1.6067
  333MOL0     H43923   4.159   5.171   6.099 -0.3760 -0.1386  1.3635
  333MOL0     H43924   3.954   5.217   5.945 -1.7863 -1.2831 -1.4875
  333MOL0     H43925   3.854   5.122   6.056  1.3103 -3.8959  0.5449
  333MOL0     H43926   4.047   4.938   5.993 -0.1905 -0.0687 -0.5827
  333MOL0     H43927   4.040   5.024   5.845  0.8502  1.7305  0.6278
  333MOL0     H43928   3.816   4.902   5.999  0.3972 -0.2374  0.5295
  333MOL0     H43929   3.796   5.023   5.855  1.0296 -0.2110  0.5604
  333MOL0     H43930   3.865   4.871   5.695 -5.0527 -1.2958  0.1823
  333MOL0     H43931   3.776   4.773   5.812  1.9997 -4.6149  0.0760
  333MOL0     H43932   4.074   4.790   5.834 -0.6800 -1.6436  2.2232
  333MOL0     H43933   3.989   4.685   5.720  0.8496 -1.7998  0.7598
  333MOL0     H43934   3.957   4.682   6.015  0.4207 -3.2245  2.4838
  333MOL0     H43935   3.851   4.593   5.905  0.4546 -0.1022  3.2690
  333MOL0     H43936   4.146   4.557   5.914  1.9285 -2.6982  2.8194
  333MOL0     H43937   4.026   4.458   5.813  1.7302 -0.6665  0.2776
  333MOL0     H43938   4.240   5.130   6.317  0.8165  0.4774  0.3860
  333MOL0     H43939   4.352   5.184   6.526 -1.4867 -0.4781  2.3393
  333MOL0     H43940   4.626   5.617   6.708 -1.0662  0.5876  0.4950
  333MOL0     H43941   4.734   5.669   6.927  0.2237 -0.7031 -1.3731
  333MOL0     H43942   4.683   4.299   8.468 -0.5850  0.1179  1.5576
  333MOL0     H43943   4.696   4.058   8.518 -1.2836 -3.8104 -1.1696
  333MOL0     H43944   4.383   3.702   8.849 -1.6948  0.0239 -0.3044
  333MOL0     H43945   4.298   3.467   8.855 -0.8321 -1.8041 -1.0661
  333MOL0     H43946   4.187   3.146   8.607 -1.8877  0.1671  0.7666
  333MOL0     H43947   4.144   3.311   8.599 -3.9760  1.6392  3.9433
  333MOL0     H43948   4.130   3.285   8.866  1.1426 -0.7888  0.5030
  333MOL0     H43949   4.009   3.214   8.772 -0.9880  1.4211  0.1851
  333MOL0     H43950   4.159   2.996   8.774 -1.2478 -0.8683  1.6710
  333MOL0     H43951   4.069   3.023   8.919  0.7708 -1.1694  0.5543
  333MOL0     H43952   4.354   3.097   8.865 -1.7352  2.6031 -0.9618
  333MOL0     H43953   4.265   3.144   9.012  0.5169 -0.5914  0.9841
  333MOL0     H43954   4.321   2.749   9.138 -1.8943  1.5128  1.1006
  333MOL0     H43955   4.405   3.389   8.459  0.5255 -0.5652  1.8786
  333MOL0     H43956   4.441   3.657   8.434 -2.5800  2.2488  0.7030
  334MOL0     O43957  10.611   6.668  10.236 -0.8140  0.8539  0.3442
  334MOL0     C43958  10.715   6.665  10.170 -0.4534 -0.1575  0.4024
  334MOL0     O43959  10.743   6.606  10.048  0.4827 -0.2216 -0.5449
  334MOL0     C43960  10.668   6.530   9.965  0.9310 -0.2772  0.6669
  334MOL0     C43961  10.545   6.482   9.999 -0.4457  0.1771  0.5578
  334MOL0     C43962  10.465   6.431   9.894 -0.3946 -0.2190  0.7918
  334MOL0     C43963  10.509   6.402   9.766  0.7074  0.2459 -1.1784
  334MOL0     O43964  10.422   6.335   9.682 -0.3895  0.1645 -0.3674
  334MOL0     C43965  10.459   6.311   9.543 -0.4858 -0.7626  0.2678
  334MOL0     C43966  10.545   6.179   9.541  0.3365  0.2559 -0.9428
  334MOL0     C43967  10.641   6.202   9.423  0.8115 -0.6087  0.4980
  334MOL0     C43968  10.577   6.191   9.280 -0.1920  0.1784  0.4762
  334MOL0     C43969  10.527   6.047   9.228  0.5466 -0.6885 -0.2594
  334MOL0     C43970  10.628   5.936   9.225  0.0443  0.2106 -0.1900
  334MOL0     C43971  10.566   5.800   9.185 -0.0972  0.4656  0.2383
  334MOL0     C43972  10.662   5.675   9.207  0.3760 -0.2226  0.8141
  334MOL0     N43973  10.725   5.656   9.340  0.1778 -0.3143 -0.0994
  334MOL0     C43974  10.858   5.656   9.376  0.3930 -0.1048 -0.0290
  334MOL0     C43975  10.862   5.644   9.512 -0.4510  0.2703 -0.1903
  334MOL0     C43976  10.974   5.634   9.609 -0.0856  0.5719  0.6226
  334MOL0     C43977  11.093   5.565   9.543 -0.6961 -0.6249  0.1796
  334MOL0     C43978  11.062   5.425   9.497 -0.1361 -0.7129 -0.2477
  334MOL0     C43979  11.167   5.370   9.415  0.3689 -0.2220  0.8395
  334MOL0     O43980  11.122   5.260   9.332 -0.5820  0.0908 -0.5840
  334MOL0     C43981  11.214   5.170   9.284  1.6537  0.4046  1.1857
  334MOL0     C43982  11.354   5.175   9.304 -0.9617  0.0629  0.1201
  334MOL0     C43983  11.441   5.074   9.253  0.0750 -0.1191  0.1515
  334MOL0     C43984  11.394   4.967   9.177  0.3696 -0.0391 -0.0790
  334MOL0     C43985  11.487   4.882   9.101 -0.6948  0.6911 -0.5323
  334MOL0     O43986  11.626   4.913   9.095  0.5131  0.1900 -0.1009
  334MOL0     C43987  11.709   4.824   9.035  0.0992  0.3699 -0.2230
  334MOL0     C43988  11.707   4.796   8.898 -0.0971  0.6052 -0.2191
  334MOL0     C43989  11.789   4.692   8.840 -0.1104 -0.3436  0.1195
  334MOL0     C43990  11.852   4.612   8.932  0.9177 -0.2476 -0.0647
  334MOL0     O43991  11.887   4.481   8.900  0.1252 -0.0850  0.5199
  334MOL0     C43992  11.949   4.451   8.769 -0.7844 -0.7072 -1.3259
  334MOL0     C43993  11.953   4.294   8.764 -0.3055  1.0034  0.3533
  334MOL0     C43994  11.815   4.242   8.808 -0.4602  0.3695 -0.4268
  334MOL0     C43995  11.824   4.085   8.812  0.2577 -0.3633 -0.2281
  334MOL0     C43996  11.692   4.026   8.835 -0.3557  0.5336 -0.1497
  334MOL0     C43997  11.696   3.868   8.836  0.6433  0.3650 -0.4147
  334MOL0     C43998  11.560   3.826   8.897 -0.1842  0.2672 -0.7991
  334MOL0     C43999  11.548   3.678   8.873  0.7852 -0.5972  0.7659
  334MOL0    Cl44000  11.499   3.668   8.705  0.1572 -0.1369  0.1096
  334MOL0     C44001  11.852   4.638   9.067 -0.2246  0.6716  0.1320
  334MOL0     C44002  11.793   4.749   9.117 -1.0331  0.5822 -0.3524
  334MOL0     O44003  11.435   4.780   9.056 -0.1456  0.1711  0.0697
  334MOL0     C44004  11.253   4.957   9.159 -0.7913  0.3310  0.1956
  334MOL0     C44005  11.172   5.060   9.205 -0.4516  0.0756 -0.0590
  334MOL0     N44006  10.736   5.634   9.552 -0.5756 -0.0073 -0.0383
  334MOL0     N44007  10.655   5.639   9.457 -0.3670 -1.2154  0.6766
  334MOL0     C44008  10.637   6.433   9.746 -0.5376  1.3298 -0.0743
  334MOL0     C44009  10.717   6.501   9.840  0.7015  0.6525 -0.3761
  334MOL0     C44010  10.828   6.756  10.205 -0.4130  0.7075 -0.7712
  334MOL0     C44011  10.958   6.731  10.143  0.8662 -0.1970  0.1818
  334MOL0     C44012  11.074   6.781  10.195 -0.0813 -0.7983  0.3858
  334MOL0     C44013  11.059   6.875  10.298 -0.2128 -0.9878 -0.4021
  334MOL0     O44014  11.158   6.962  10.346 -0.2572  0.2505  0.0979
  334MOL0     C44015  11.220   7.049  10.245  0.0029  0.3577 -0.1731
  334MOL0     C44016  11.192   7.192  10.272 -1.3783 -0.4462 -0.0885
  334MOL0     C44017  11.063   7.239  10.206 -0.3324  0.2308 -0.4338
  334MOL0     C44018  11.077   7.279  10.061  0.9743 -0.6895 -0.1407
  334MOL0     C44019  10.952   7.236   9.992  0.0572 -0.2679 -0.1555
  334MOL0     C44020  10.845   7.228   9.941  0.1883  0.3288  0.1100
  334MOL0     C44021  10.938   6.904  10.359 -0.1219  0.3275  0.2166
  334MOL0     C44022  10.825   6.833  10.319  0.1728 -0.5837 -0.0704
  334MOL0     H44023  10.503   6.514  10.094  3.3719  3.9347  1.3117
  334MOL0     H44024  10.358   6.411   9.902 -0.5241  0.4864  0.9049
  334MOL0     H44025  10.510   6.401   9.507  2.2948 -0.9722  3.1407
  334MOL0     H44026  10.361   6.291   9.499  0.5560 -1.9685 -1.6326
  334MOL0     H44027  10.474   6.097   9.532 -0.8383  1.1108  0.0536
  334MOL0     H44028  10.593   6.167   9.639  1.1362 -0.4219 -1.4111
  334MOL0     H44029  10.711   6.118   9.430  0.5944 -0.7986  0.3783
  334MOL0     H44030  10.694   6.297   9.430  1.3396 -0.5575 -2.6833
  334MOL0     H44031  10.511   6.277   9.276  0.6194  0.8059  0.3320
  334MOL0     H44032  10.665   6.205   9.216 -0.3732 -0.0282  0.1826
  334MOL0     H44033  10.510   6.067   9.122  0.7913  2.6068  0.2267
  334MOL0     H44034  10.439   6.017   9.286  0.9181  0.0792  0.7229
  334MOL0     H44035  10.675   5.933   9.324 -0.8202  0.5138  0.2451
  334MOL0     H44036  10.711   5.951   9.155  0.1444  0.2221 -0.0703
  334MOL0     H44037  10.482   5.780   9.252  1.5519 -1.7375  1.8059
  334MOL0     H44038  10.532   5.807   9.081  2.4581 -5.4046 -1.4156
  334MOL0     H44039  10.736   5.675   9.125 -0.8053  0.0395 -0.2874
  334MOL0     H44040  10.594   5.590   9.200  1.0505 -0.7996  1.1584
  334MOL0     H44041  10.933   5.663   9.299 -1.5536  1.4234 -1.9050
  334MOL0     H44042  10.941   5.567   9.689  1.8244  0.6042  1.4921
  334MOL0     H44043  11.005   5.737   9.633  2.7035  0.3098 -1.3636
  334MOL0     H44044  11.175   5.553   9.615  0.8301  0.6596 -1.2347
  334MOL0     H44045  11.143   5.622   9.463  0.5296 -1.6442  0.1759
  334MOL0     H44046  11.065   5.354   9.581 -2.5363 -0.8820 -0.2152
  334MOL0     H44047  10.961   5.403   9.460 -0.3939  1.2730 -0.8208
  334MOL0     H44048  11.247   5.334   9.480  0.2417 -2.3512 -0.0620
  334MOL0     H44049  11.205   5.440   9.339 -2.2547 -0.7217 -1.0817
  334MOL0     H44050  11.395   5.260   9.358 -1.8926 -0.4004  1.6047
  334MOL0     H44051  11.548   5.086   9.265  0.1967 -0.6659 -0.3426
  334MOL0     H44052  11.648   4.859   8.833 -0.5814 -0.1148 -0.4956
  334MOL0     H44053  11.790   4.676   8.732  2.3269  1.5497 -0.2313
  334MOL0     H44054  12.044   4.502   8.759 -2.4896  2.6093 -1.8853
  334MOL0     H44055  11.880   4.482   8.690 -0.6478 -2.2069 -2.0663
  334MOL0     H44056  12.027   4.261   8.838  2.0230 -0.1611 -2.2953
  334MOL0     H44057  11.990   4.249   8.672 -0.3240  0.5423  0.5660
  334MOL0     H44058  11.732   4.271   8.743  0.4641 -2.1914 -2.9334
  334MOL0     H44059  11.789   4.281   8.907  0.4319  2.1190 -0.8278
  334MOL0     H44060  11.863   4.037   8.722 -0.8557 -0.4849 -0.6586
  334MOL0     H44061  11.896   4.054   8.888 -1.3361  0.6048  1.7630
  334MOL0     H44062  11.626   4.053   8.753 -2.9045 -1.9735  0.9398
  334MOL0     H44063  11.659   4.068   8.931 -2.0077 -0.8069 -0.1026
  334MOL0     H44064  11.774   3.831   8.903 -1.1812  0.9603  2.2003
  334MOL0     H44065  11.708   3.827   8.736 -1.8829 -2.4567  0.2703
  334MOL0     H44066  11.556   3.846   9.004 -2.4297 -0.7554 -0.6453
  334MOL0     H44067  11.483   3.881   8.843  1.4821  2.4819 -1.0387
  334MOL0     H44068  11.473   3.638   8.941  0.1050 -2.7594 -1.1223
  334MOL0     H44069  11.642   3.628   8.901  2.3165  2.5398  1.6604
  334MOL0     H44070  11.894   4.572   9.142 -0.7508  2.3827  2.0303
  334MOL0     H44071  11.806   4.773   9.222  0.5303  1.8862 -0.7913
  334MOL0     H44072  11.201   4.880   9.104 -0.1510 -1.5575  2.1071
  334MOL0     H44073  11.066   5.044   9.188 -0.6973 -2.4499  2.8751
  334MOL0     H44074  10.690   6.406   9.655  1.3289  3.5936  0.2492
  334MOL0     H44075  10.817   6.532   9.814  0.9079  0.8453  0.6492
  334MOL0     H44076  10.963   6.663  10.058 -0.0265  0.2056 -0.2096
  334MOL0     H44077  11.172   6.753  10.159 -0.0392  0.7654 -0.8391
  334MOL0     H44078  11.196   7.020  10.142  0.1117  0.6368 -0.2773
  334MOL0     H44079  11.326   7.024  10.251 -0.6227 -4.2709 -2.8491
  334MOL0     H44080  11.204   7.192  10.381 -0.4208  2.5160 -0.1079
  334MOL0     H44081  11.271   7.260  10.240 -2.2561  1.6786  1.9510
  334MOL0     H44082  11.040   7.332  10.259 -0.2564 -0.5662  1.0427
  334MOL0     H44083  10.986   7.163  10.223 -0.9850  1.0599  0.4300
  334MOL0     H44084  11.081   7.388  10.052  1.7796 -0.6276  0.7706
  334MOL0     H44085  11.156   7.228  10.005  2.0664 -1.8063  2.2665
  334MOL0     H44086  10.742   7.214   9.913 -0.3690 -4.2212  3.2883
  334MOL0     H44087  10.955   6.984  10.431  5.3729  0.5996 -0.9274
  334MOL0     H44088  10.736   6.851  10.378  0.4049  3.2494 -0.6816
  335MOL0     O44089   4.131   9.699   2.208 -0.4353 -0.8440 -0.3371
  335MOL0     C44090   4.105   9.776   2.306  0.3391 -0.5118  0.7329
  335MOL0     O44091   3.979   9.827   2.346 -0.3484 -0.5272 -0.5387
  335MOL0     C44092   3.873   9.749   2.317  0.3938  0.4528  0.3127
  335MOL0     C44093   3.746   9.804   2.318  1.2026  0.0665  1.2913
  335MOL0     C44094   3.631   9.730   2.289  0.5932 -0.0118 -0.5003
  335MOL0     C44095   3.646   9.591   2.278 -0.1922 -0.1360  0.1690
  335MOL0     O44096   3.523   9.527   2.259  0.0419  0.3725 -0.5140
  335MOL0     C44097   3.532   9.392   2.197 -0.3125  0.0606  0.2466
  335MOL0     C44098   3.394   9.319   2.187  0.1699 -0.8775  0.0028
  335MOL0     C44099   3.281   9.405   2.115 -0.5516 -0.7495  0.0032
  335MOL0     C44100   3.280   9.384   1.966  0.3889 -0.4140 -0.1335
  335MOL0     C44101   3.176   9.482   1.900 -0.5365  0.7458 -0.1004
  335MOL0     C44102   3.167   9.435   1.755 -0.4686  0.1777  0.2388
  335MOL0     C44103   3.060   9.514   1.680  0.0128 -0.1569  0.5382
  335MOL0     C44104   3.021   9.468   1.534 -0.9101  0.5734 -0.3568
  335MOL0     N44105   2.930   9.575   1.496 -0.5590  0.6186  0.5963
  335MOL0     C44106   2.969   9.694   1.433 -0.5365  0.4744  1.0999
  335MOL0     C44107   2.854   9.745   1.385 -0.7896  1.4736 -0.5848
  335MOL0     C44108   2.868   9.879   1.302  0.4227  0.8306  0.7033
  335MOL0     C44109   2.946   9.860   1.171 -0.0004 -0.4100 -0.2941
  335MOL0     C44110   2.953   9.995   1.095 -1.1511 -0.4098 -0.4005
  335MOL0     C44111   3.057  10.101   1.136 -0.4495  0.4413  0.0095
  335MOL0     O44112   3.115  10.101   1.264  0.5470  0.0754  0.1608
  335MOL0     C44113   3.244  10.111   1.288  0.2148  0.5490 -0.0057
  335MOL0     C44114   3.332  10.197   1.223  0.6247 -0.5831  0.6279
  335MOL0     C44115   3.472  10.181   1.257 -0.2762 -0.7196  0.1459
  335MOL0     C44116   3.512  10.088   1.341 -0.4252  0.6271 -0.1702
  335MOL0     C44117   3.655  10.057   1.374 -0.9037 -0.7485  0.6386
  335MOL0     O44118   3.747  10.154   1.335 -0.1160  0.1270  0.5202
  335MOL0     C44119   3.880  10.133   1.368 -0.0051  0.1381 -0.5968
  335MOL0     C44120   3.932  10.155   1.496  0.9389  0.4874 -0.3586
  335MOL0     C44121   4.071  10.155   1.513  0.1302  0.0335  0.1160
  335MOL0     C44122   4.146  10.108   1.405 -0.6233 -1.1443 -0.2267
  335MOL0     O44123   4.283  10.097   1.422  0.0283  0.6650 -0.0255
  335MOL0     C44124   4.330  10.000   1.517 -0.4377  1.1391 -0.1202
  335MOL0     C44125   4.478   9.969   1.487  0.2088 -0.0383  0.0265
  335MOL0     C44126   4.537   9.910   1.614  0.1654  0.4939 -0.5561
  335MOL0     C44127   4.663   9.831   1.588  0.5776 -0.5858  0.1386
  335MOL0     C44128   4.706   9.763   1.718 -0.4705 -0.2562  0.1111
  335MOL0     C44129   4.834   9.669   1.699  0.2532 -0.9214 -0.5264
  335MOL0     C44130   4.925   9.719   1.817 -0.3792  0.2733 -0.7194
  335MOL0     C44131   5.074   9.675   1.786 -0.2036 -0.3925 -0.8771
  335MOL0    Cl44132   5.134   9.782   1.654 -0.3524  0.3671 -0.0326
  335MOL0     C44133   4.097  10.084   1.277 -0.1929  0.2262  0.0933
  335MOL0     C44134   3.960  10.102   1.260 -0.1961  0.2743 -0.5173
  335MOL0     O44135   3.688   9.951   1.411  0.1849  1.0328  0.2996
  335MOL0     C44136   3.421   9.994   1.397  0.1134 -0.3968  0.0023
  335MOL0     C44137   3.294  10.011   1.370 -0.1268  0.5408  0.9730
  335MOL0     N44138   2.752   9.653   1.418  0.0719 -0.5346 -0.2917
  335MOL0     N44139   2.798   9.554   1.486  0.7515 -0.0578  0.3142
  335MOL0     C44140   3.771   9.523   2.290  0.3676 -0.0430  1.1455
  335MOL0     C44141   3.881   9.610   2.295 -0.7382  0.2182 -0.3351
  335MOL0     C44142   4.220   9.794   2.401 -0.2069 -0.0120 -0.3085
  335MOL0     C44143   4.204   9.867   2.522 -0.8568 -0.5773 -0.2601
  335MOL0     C44144   4.294   9.889   2.631 -0.0030 -0.0338  0.3568
  335MOL0     C44145   4.428   9.835   2.611  1.0027 -0.8978  1.2694
  335MOL0     O44146   4.531   9.847   2.698  0.1381 -0.1519 -0.2790
  335MOL0     C44147   4.513   9.862   2.840  0.3160 -0.1271  0.5521
  335MOL0     C44148   4.563   9.999   2.890  0.2370  0.0338  0.6145
  335MOL0     C44149   4.713  10.018   2.895 -0.1262  0.0113 -0.3837
  335MOL0     C44150   4.749  10.144   2.972 -0.2983  0.5657 -0.1942
  335MOL0     C44151   4.892  10.183   2.954  0.6853 -0.3641  0.8648
  335MOL0     C44152   5.005  10.206   2.983  0.4552  0.4768 -0.3195
  335MOL0     C44153   4.455   9.787   2.477  0.1308  0.1598  1.0226
  335MOL0     C44154   4.358   9.769   2.376  0.5213  0.7683 -0.5567
  335MOL0     H44155   3.723   9.904   2.353  1.8039  1.4388 -1.8694
  335MOL0     H44156   3.538   9.784   2.302  1.1281  0.4253  2.1530
  335MOL0     H44157   3.592   9.326   2.260  2.2857  1.2890 -0.7950
  335MOL0     H44158   3.580   9.396   2.099  1.2235  0.6269  0.9965
  335MOL0     H44159   3.364   9.300   2.290  3.4666 -0.8154  1.0900
  335MOL0     H44160   3.398   9.225   2.132 -0.8502  0.5156 -2.6465
  335MOL0     H44161   3.306   9.510   2.136  0.8470 -1.7164  4.0007
  335MOL0     H44162   3.181   9.386   2.155 -0.5274  0.0670  0.4798
  335MOL0     H44163   3.380   9.402   1.924 -0.2078  2.2735 -0.6161
  335MOL0     H44164   3.251   9.280   1.949 -0.7690  0.1099 -1.5753
  335MOL0     H44165   3.211   9.585   1.908  0.5696  0.4578 -0.8696
  335MOL0     H44166   3.081   9.476   1.952 -2.3437 -0.9934 -3.2748
  335MOL0     H44167   3.135   9.331   1.771  1.8602 -0.5041  0.7930
  335MOL0     H44168   3.263   9.449   1.705  0.1268  1.2237  1.5859
  335MOL0     H44169   2.972   9.494   1.741 -0.2178 -0.8412 -0.0022
  335MOL0     H44170   3.075   9.622   1.691 -1.1331 -0.0242  0.8825
  335MOL0     H44171   2.982   9.366   1.539  2.0092 -0.6154  0.0814
  335MOL0     H44172   3.101   9.455   1.461  0.0999 -1.8742  1.0541
  335MOL0     H44173   3.062   9.741   1.405 -0.8338  0.6704  0.4367
  335MOL0     H44174   2.927   9.951   1.360  1.7844 -0.2261  0.6834
  335MOL0     H44175   2.765   9.901   1.272  1.2236 -1.4260 -4.9749
  335MOL0     H44176   2.897   9.784   1.110  1.4351 -1.0950 -0.6228
  335MOL0     H44177   3.050   9.837   1.195  1.3448  0.7827 -4.2268
  335MOL0     H44178   2.975   9.970   0.991 -0.8395  4.1439 -1.6472
  335MOL0     H44179   2.854  10.041   1.092 -1.3340 -0.8095 -0.4300
  335MOL0     H44180   3.014  10.200   1.120  1.0929  0.8257 -2.1108
  335MOL0     H44181   3.147  10.085   1.075  1.2410 -0.4149  2.5464
  335MOL0     H44182   3.286  10.272   1.158  0.3058  0.5792  2.1549
  335MOL0     H44183   3.545  10.250   1.215 -0.7624  0.1261  0.6594
  335MOL0     H44184   3.861  10.165   1.577 -0.1090 -1.4959 -0.9827
  335MOL0     H44185   4.100  10.182   1.614 -1.3061 -1.7087  1.0651
  335MOL0     H44186   4.275   9.906   1.509 -1.5624  1.8802 -1.6314
  335MOL0     H44187   4.314  10.039   1.618  0.5404 -0.3764  0.6581
  335MOL0     H44188   4.523  10.064   1.458  0.7844 -0.5644 -0.8179
  335MOL0     H44189   4.471   9.894   1.407 -0.2458 -0.0540  0.0757
  335MOL0     H44190   4.455   9.853   1.658  1.9359  0.0342  2.4860
  335MOL0     H44191   4.569   9.991   1.681  3.3605 -0.4993 -0.7213
  335MOL0     H44192   4.645   9.757   1.509 -3.1311 -0.7776  1.0003
  335MOL0     H44193   4.732   9.908   1.554 -2.9376  2.0116 -1.7467
  335MOL0     H44194   4.625   9.711   1.769 -0.7264 -0.9291 -0.9326
  335MOL0     H44195   4.722   9.839   1.795 -1.7134 -1.0604  1.2010
  335MOL0     H44196   4.877   9.680   1.599  0.0967 -0.1402 -0.5098
  335MOL0     H44197   4.814   9.562   1.710  0.1299 -0.6497  2.9092
  335MOL0     H44198   4.922   9.828   1.813 -6.2956  0.3673 -1.8967
  335MOL0     H44199   4.895   9.669   1.910 -0.2751 -1.7085 -1.6966
  335MOL0     H44200   5.073   9.568   1.763  2.9400 -1.3018  2.3060
  335MOL0     H44201   5.140   9.680   1.873 -2.1062  1.0199  0.5641
  335MOL0     H44202   4.161  10.053   1.195  0.5419 -2.9323  1.7300
  335MOL0     H44203   3.929  10.065   1.162  1.2978  1.2831 -1.4018
  335MOL0     H44204   3.452   9.934   1.482 -1.7921  1.6185  2.2711
  335MOL0     H44205   3.228   9.939   1.417 -0.2095 -0.1945 -0.2319
  335MOL0     H44206   3.777   9.415   2.279 -2.1212 -0.0877 -0.8097
  335MOL0     H44207   3.977   9.558   2.291 -0.2662  1.0014  0.4910
  335MOL0     H44208   4.103   9.886   2.557 -2.3717 -5.8539 -0.8427
  335MOL0     H44209   4.269   9.948   2.718 -2.2214  0.7521 -0.7515
  335MOL0     H44210   4.576   9.794   2.898 -0.4372  0.4217  2.0762
  335MOL0     H44211   4.416   9.825   2.873 -0.2598  1.1829  0.3957
  335MOL0     H44212   4.520  10.073   2.821  4.9862  1.3822 -1.3581
  335MOL0     H44213   4.517  10.010   2.988  1.3404  1.0515  1.0496
  335MOL0     H44214   4.755  10.008   2.794  1.1919 -3.5114  0.3700
  335MOL0     H44215   4.758   9.932   2.944  0.0273  0.7536  0.8223
  335MOL0     H44216   4.677  10.224   2.953 -2.0811 -0.8728  0.2046
  335MOL0     H44217   4.744  10.126   3.080 -0.0112 -0.0017 -0.2753
  335MOL0     H44218   5.099  10.229   3.029  1.4145 -0.7217 -1.5828
  335MOL0     H44219   4.563   9.785   2.459  0.4532  0.2123  2.7717
  335MOL0     H44220   4.399   9.729   2.284  0.5110 -0.5952  0.0033
  336MOL0     O44221  10.984   8.215   2.109 -0.2536  0.1038 -0.5897
  336MOL0     C44222  11.006   8.284   2.208 -0.2930 -0.3189 -0.0172
  336MOL0     O44223  11.114   8.269   2.291 -0.5049  0.1033  0.2502
  336MOL0     C44224  11.203   8.170   2.266 -0.2446  0.2468 -0.1735
  336MOL0     C44225  11.335   8.198   2.282  0.5753 -0.5098  0.2373
  336MOL0     C44226  11.433   8.111   2.265  0.2229  0.5025 -0.0747
  336MOL0     C44227  11.403   7.980   2.231 -0.1889 -0.2300  0.0118
  336MOL0     O44228  11.501   7.884   2.218  1.4582 -0.5472  0.3393
  336MOL0     C44229  11.512   7.817   2.088  0.3826 -0.2093 -0.1190
  336MOL0     C44230  11.610   7.890   1.999  0.6435 -0.1119 -0.1893
  336MOL0     C44231  11.550   8.027   1.943  0.0055 -0.3018 -0.8297
  336MOL0     C44232  11.432   8.015   1.855 -0.0196 -1.1386  0.8263
  336MOL0     C44233  11.379   8.140   1.775  0.1350 -0.0476 -0.6310
  336MOL0     C44234  11.242   8.110   1.725 -0.0110 -0.6662 -0.0461
  336MOL0     C44235  11.179   8.225   1.654 -0.0564  0.0251  0.1692
  336MOL0     C44236  11.039   8.206   1.598  0.2213  0.0889  0.7970
  336MOL0     N44237  11.036   8.094   1.509 -0.3774  0.5167 -0.1853
  336MOL0     C44238  11.076   8.088   1.381 -0.5732  0.1048 -0.3306
  336MOL0     C44239  11.029   7.973   1.330 -0.3148 -0.2733 -0.0933
  336MOL0     C44240  11.054   7.918   1.197  0.3685 -0.0655 -0.1044
  336MOL0     C44241  10.917   7.921   1.116  0.5990 -0.9207  0.4940
  336MOL0     C44242  10.931   7.832   0.986  0.3419 -0.5547  0.0183
  336MOL0     C44243  10.968   7.909   0.863 -0.3180  0.3738  0.4485
  336MOL0     O44244  11.093   7.982   0.881  0.2603 -0.2913  0.7864
  336MOL0     C44245  11.159   8.034   0.766  0.6117 -0.4673 -0.4801
  336MOL0     C44246  11.111   8.041   0.633  0.8690 -0.1640 -0.2619
  336MOL0     C44247  11.177   8.110   0.531 -0.6829 -0.3371 -0.8035
  336MOL0     C44248  11.301   8.167   0.559 -0.2328  0.2790  0.2394
  336MOL0     C44249  11.364   8.248   0.457 -0.0335 -0.5828  0.4821
  336MOL0     O44250  11.292   8.278   0.349 -0.1059  0.0188  0.1487
  336MOL0     C44251  11.356   8.355   0.251  1.1021  0.1983  0.2326
  336MOL0     C44252  11.394   8.491   0.261  0.3460  0.1174  0.0874
  336MOL0     C44253  11.452   8.567   0.169  0.4601 -0.4571  1.3845
  336MOL0     C44254  11.470   8.505   0.038 -0.1110  0.4427 -0.7116
  336MOL0     O44255  11.525   8.573  -0.071 -0.6593  0.1752  0.4626
  336MOL0     C44256  11.494   8.699  -0.118 -0.2524 -0.7145  0.0486
  336MOL0     C44257  11.588   8.719  -0.234 -0.0337 -0.1508  0.8481
  336MOL0     C44258  11.741   8.716  -0.196  0.5888  0.2425 -0.6644
  336MOL0     C44259  11.853   8.740  -0.306  0.9066 -0.4788  0.3463
  336MOL0     C44260  11.993   8.711  -0.247 -0.4288  0.0710 -0.3919
  336MOL0     C44261  12.103   8.747  -0.347 -0.4448 -0.4131 -0.2690
  336MOL0     C44262  12.243   8.683  -0.310  0.2470  0.7441  0.2261
  336MOL0     C44263  12.289   8.700  -0.163 -0.6509  1.3272  1.1243
  336MOL0    Cl44264  12.462   8.653  -0.166 -0.0642 -0.4533  0.3144
  336MOL0     C44265  11.426   8.372   0.011  0.3074 -0.0494 -0.3486
  336MOL0     C44266  11.366   8.302   0.116 -0.1802  1.2173 -0.1650
  336MOL0     O44267  11.484   8.276   0.474  0.2317 -0.1591  1.0816
  336MOL0     C44268  11.366   8.136   0.681 -0.0253  0.4332  0.2545
  336MOL0     C44269  11.294   8.074   0.779  0.5915  0.7947 -0.5278
  336MOL0     N44270  10.947   7.914   1.426 -0.4611 -0.9956  0.3039
  336MOL0     N44271  10.963   7.984   1.536  0.1633 -0.1057  0.1264
  336MOL0     C44272  11.267   7.941   2.214  0.7898  0.3899  0.5917
  336MOL0     C44273  11.174   8.039   2.228  0.4791 -0.0707 -0.5073
  336MOL0     C44274  10.892   8.364   2.240  0.3686  0.0444 -0.1917
  336MOL0     C44275  10.760   8.306   2.239  0.0277 -0.2021 -1.4218
  336MOL0     C44276  10.643   8.389   2.258  0.6039  0.0180  0.8572
  336MOL0     C44277  10.658   8.520   2.300 -0.3923 -0.2773  0.6089
  336MOL0     O44278  10.556   8.619   2.322  0.1162 -0.5524  0.2448
  336MOL0     C44279  10.426   8.583   2.271 -0.1633  0.0687 -0.3442
  336MOL0     C44280  10.361   8.487   2.365  0.3870 -0.5283  0.0890
  336MOL0     C44281  10.254   8.552   2.449 -0.9184 -0.3425  1.0345
  336MOL0     C44282  10.153   8.448   2.506  0.1515 -0.0225  0.2189
  336MOL0     C44283  10.217   8.352   2.592 -0.5784  0.0704 -0.1500
  336MOL0     C44284  10.253   8.268   2.671 -0.5411 -0.3224  0.3077
  336MOL0     C44285  10.784   8.571   2.316 -1.0899 -0.2201 -0.0416
  336MOL0     C44286  10.898   8.492   2.281  0.6873  0.0426  0.1007
  336MOL0     H44287  11.353   8.301   2.312 -0.6505 -0.6657  1.5662
  336MOL0     H44288  11.534   8.152   2.268  1.2270 -1.8263  0.4210
  336MOL0     H44289  11.412   7.799   2.047 -0.3631 -0.5024  1.7428
  336MOL0     H44290  11.565   7.722   2.104  0.9143 -0.1884 -1.5267
  336MOL0     H44291  11.641   7.827   1.915  3.2415  2.6786 -1.4996
  336MOL0     H44292  11.705   7.906   2.051  0.6631 -1.6033  0.2917
  336MOL0     H44293  11.642   8.059   1.893  0.7393 -2.3338 -0.8758
  336MOL0     H44294  11.535   8.103   2.021 -0.1226 -1.4736  0.3317
  336MOL0     H44295  11.444   7.929   1.789  0.7861 -1.5294  1.4744
  336MOL0     H44296  11.347   8.005   1.923 -0.8830  2.3544  0.4971
  336MOL0     H44297  11.446   8.153   1.689  0.9041  0.3868  0.0159
  336MOL0     H44298  11.380   8.226   1.843 -0.3877 -0.9151  0.5013
  336MOL0     H44299  11.181   8.086   1.812  1.3947 -0.9051  0.8963
  336MOL0     H44300  11.241   8.030   1.650 -0.6032 -0.5569 -0.1583
  336MOL0     H44301  11.182   8.311   1.722  2.1315  0.1266 -0.0119
  336MOL0     H44302  11.246   8.253   1.573 -0.0253 -0.0331  0.1757
  336MOL0     H44303  10.993   8.295   1.555  1.4261 -0.2494 -1.3576
  336MOL0     H44304  10.962   8.178   1.670  0.4102  2.4460  2.0016
  336MOL0     H44305  11.131   8.168   1.332 -0.7098  0.6864  0.4417
  336MOL0     H44306  11.073   7.812   1.217  1.3444 -0.6315 -3.3546
  336MOL0     H44307  11.127   7.966   1.131  1.3361 -1.4948 -0.1391
  336MOL0     H44308  10.885   8.023   1.092  2.4944 -0.4060  0.0558
  336MOL0     H44309  10.839   7.872   1.177  1.7885 -0.8296  2.1526
  336MOL0     H44310  11.002   7.751   1.002  1.7290  0.3399 -1.3293
  336MOL0     H44311  10.830   7.798   0.963 -0.0108  1.1542 -1.2225
  336MOL0     H44312  10.894   7.981   0.827 -0.7116 -0.7856 -1.1958
  336MOL0     H44313  10.988   7.845   0.776 -1.8507  1.5964 -0.8732
  336MOL0     H44314  11.013   8.005   0.604 -0.4000  0.4990  2.7838
  336MOL0     H44315  11.121   8.147   0.446 -2.4068 -0.0094  0.4124
  336MOL0     H44316  11.410   8.529   0.362 -0.1935  1.2425 -0.2346
  336MOL0     H44317  11.488   8.669   0.172 -0.8929  0.2949 -2.4878
  336MOL0     H44318  11.519   8.771  -0.039 -4.4548 -1.2586  2.1377
  336MOL0     H44319  11.389   8.717  -0.144 -1.1003 -1.0262  2.8997
  336MOL0     H44320  11.570   8.819  -0.274 -0.4571 -0.4574  0.2583
  336MOL0     H44321  11.562   8.637  -0.302  0.8770 -0.4222  0.8170
  336MOL0     H44322  11.765   8.618  -0.154  0.2064  0.8351  1.0142
  336MOL0     H44323  11.765   8.782  -0.112  4.8797  0.4012 -1.7966
  336MOL0     H44324  11.834   8.689  -0.401  0.7630 -0.1125  0.1769
  336MOL0     H44325  11.846   8.846  -0.330  3.2064 -0.1620  0.8500
  336MOL0     H44326  11.993   8.605  -0.223  0.6214  0.3056  0.7164
  336MOL0     H44327  12.003   8.757  -0.148  2.8994 -4.0166  1.4497
  336MOL0     H44328  12.122   8.855  -0.344  2.6123 -0.8786  0.2825
  336MOL0     H44329  12.074   8.732  -0.452 -0.7181  3.5688 -0.9151
  336MOL0     H44330  12.224   8.576  -0.327  1.6629  0.3224  1.1491
  336MOL0     H44331  12.322   8.714  -0.380  0.6064  0.2753  0.4171
  336MOL0     H44332  12.217   8.643  -0.102  0.2997  1.2562  2.2085
  336MOL0     H44333  12.291   8.803  -0.129 -1.7888  1.1061  1.9297
  336MOL0     H44334  11.438   8.321  -0.084 -1.3832  0.5652 -0.9349
  336MOL0     H44335  11.321   8.208   0.087 -0.9819  1.9137 -1.2922
  336MOL0     H44336  11.467   8.161   0.710  0.6012 -0.6109 -0.9225
  336MOL0     H44337  11.349   8.061   0.872  0.7481 -0.0020 -0.7178
  336MOL0     H44338  11.243   7.840   2.181 -3.3811  2.1849 -2.9479
  336MOL0     H44339  11.070   8.015   2.208 -0.8502  1.4631  3.6186
  336MOL0     H44340  10.739   8.202   2.218  0.6617 -0.5993 -0.1571
  336MOL0     H44341  10.543   8.354   2.234  0.1374  1.6762  0.2817
  336MOL0     H44342  10.440   8.540   2.172 -2.0216  0.6275 -0.8955
  336MOL0     H44343  10.366   8.672   2.250 -3.7144 -2.3936 -1.5690
  336MOL0     H44344  10.321   8.401   2.312 -0.5526 -0.8356  1.2752
  336MOL0     H44345  10.436   8.442   2.431  0.0729 -1.3427 -0.1021
  336MOL0     H44346  10.202   8.633   2.398 -1.0613  0.8031  2.8867
  336MOL0     H44347  10.297   8.588   2.543 -0.8351  1.9772  0.1516
  336MOL0     H44348  10.079   8.508   2.559  1.8238  2.6507 -0.2607
  336MOL0     H44349  10.095   8.396   2.429 -0.3377 -0.0845  0.6269
  336MOL0     H44350  10.295   8.198   2.740 -0.3381  0.1841  0.7044
  336MOL0     H44351  10.794   8.670   2.357 -1.2563 -0.7154  1.2327
  336MOL0     H44352  10.993   8.545   2.281  1.1414 -0.7065 -1.6692
  337MOL0     O44353   4.322   1.340  10.311  0.3601 -0.4098 -0.1834
  337MOL0     C44354   4.375   1.296  10.208  0.1356 -0.9328  0.2305
  337MOL0     O44355   4.317   1.308  10.076  0.2340 -0.1282 -0.3217
  337MOL0     C44356   4.225   1.410  10.041  0.0205  0.5999  0.8172
  337MOL0     C44357   4.211   1.435   9.895  0.4928 -0.1531 -0.0013
  337MOL0     C44358   4.124   1.544   9.860  0.1680  0.5957  0.2623
  337MOL0     C44359   4.050   1.620   9.952  0.6423 -0.8951  0.2266
  337MOL0     O44360   3.976   1.724   9.898 -0.4203 -0.3534  0.6092
  337MOL0     C44361   3.988   1.852   9.956  0.3909 -0.4382  0.2083
  337MOL0     C44362   3.972   1.965   9.855 -1.3366  0.1432 -1.3699
  337MOL0     C44363   4.067   1.949   9.736 -0.2693  0.7897 -0.4746
  337MOL0     C44364   3.979   1.899   9.625  0.2608 -0.6570  0.2544
  337MOL0     C44365   4.076   1.886   9.494 -0.1303  0.7566 -0.3503
  337MOL0     C44366   3.991   1.905   9.369  0.6467 -0.4784 -1.1747
  337MOL0     C44367   4.087   1.898   9.245  0.1292 -0.0306  0.2577
  337MOL0     C44368   4.002   1.890   9.118 -0.8008  1.0793 -0.6997
  337MOL0     N44369   4.082   1.833   9.002  0.2679 -0.2755  0.2479
  337MOL0     C44370   4.016   1.813   8.886 -0.1466  0.9239 -0.1465
  337MOL0     C44371   4.117   1.784   8.796 -0.5936  0.2088 -0.0623
  337MOL0     C44372   4.097   1.715   8.669 -0.6126  0.8389  1.2916
  337MOL0     C44373   4.172   1.574   8.683  0.3862 -0.0236 -0.9572
  337MOL0     C44374   4.093   1.488   8.791  0.5756  0.1405 -1.1526
  337MOL0     C44375   4.119   1.334   8.799 -0.0386  1.0757 -0.0968
  337MOL0     O44376   4.141   1.259   8.673 -1.2264 -0.4387  0.2066
  337MOL0     C44377   4.119   1.121   8.678  0.3942  0.8001 -1.3266
  337MOL0     C44378   4.203   1.016   8.726  0.2152 -0.6352 -0.0403
  337MOL0     C44379   4.170   0.879   8.707  1.4783 -1.6068  1.4541
  337MOL0     C44380   4.047   0.852   8.637  0.4957  0.2137  0.0727
  337MOL0     C44381   4.009   0.710   8.595 -0.8458 -0.4094 -1.2059
  337MOL0     O44382   3.910   0.684   8.512  0.3534  0.3982  0.1097
  337MOL0     C44383   3.850   0.561   8.506  0.4362  0.6405  0.3207
  337MOL0     C44384   3.787   0.534   8.385 -0.9562 -0.9489 -0.2540
  337MOL0     C44385   3.710   0.417   8.357  0.9557 -0.3820 -0.1264
  337MOL0     C44386   3.722   0.310   8.451  1.2772 -0.3800  0.6717
  337MOL0     O44387   3.644   0.205   8.420  0.0234 -0.0689  0.2015
  337MOL0     C44388   3.633   0.097   8.511  0.3062  0.2925 -0.2067
  337MOL0     C44389   3.508   0.007   8.489  0.8221  0.2955 -0.3409
  337MOL0     C44390   3.372   0.080   8.469  0.6095 -0.6928 -0.6613
  337MOL0     C44391   3.267  -0.028   8.479  0.4271 -1.0314  0.0802
  337MOL0     C44392   3.127   0.036   8.470  0.1405 -0.6310 -0.6476
  337MOL0     C44393   3.027  -0.071   8.464  0.8432 -0.2180 -0.2482
  337MOL0     C44394   2.893  -0.015   8.432 -0.2199 -1.1643 -0.2513
  337MOL0     C44395   2.777  -0.120   8.428 -0.0775  0.1016  0.4934
  337MOL0    Cl44396   2.782  -0.224   8.565 -0.2126  0.1759  0.0987
  337MOL0     C44397   3.787   0.329   8.568  1.0263 -0.7011  0.4091
  337MOL0     C44398   3.847   0.456   8.600 -0.4675 -0.8328 -0.2853
  337MOL0     O44399   4.083   0.626   8.643 -0.4140 -0.1783 -0.4725
  337MOL0     C44400   3.969   0.947   8.595  0.3157 -0.1793 -0.5540
  337MOL0     C44401   4.005   1.081   8.619  1.3223 -0.4581  0.6936
  337MOL0     N44402   4.243   1.809   8.860  0.2320  0.2383  0.3007
  337MOL0     N44403   4.212   1.845   8.978 -0.1063 -0.5541 -0.8562
  337MOL0     C44404   4.055   1.586  10.091  0.4161  0.1720 -0.5636
  337MOL0     C44405   4.133   1.482  10.129 -0.0377 -0.1520  0.4671
  337MOL0     C44406   4.513   1.241  10.207 -0.0836 -0.5945  0.0334
  337MOL0     C44407   4.562   1.182  10.324  0.1059  0.6248 -0.3795
  337MOL0     C44408   4.694   1.144  10.337  0.5642 -0.9888 -0.7090
  337MOL0     C44409   4.783   1.158  10.232 -1.0772  0.4951  0.4525
  337MOL0     O44410   4.915   1.135  10.220  1.3180 -0.2498  0.3610
  337MOL0     C44411   4.985   1.075  10.325 -0.4150  0.5127 -0.4157
  337MOL0     C44412   4.988   0.922  10.326  0.0449 -0.5681 -0.3979
  337MOL0     C44413   5.100   0.877  10.420 -0.2623  0.5673 -0.1412
  337MOL0     C44414   5.145   0.732  10.401  1.2100 -0.4984  0.2307
  337MOL0     C44415   5.254   0.701  10.499  0.2415  0.3160  1.1969
  337MOL0     C44416   5.350   0.676  10.567  0.0362 -0.0514  0.4285
  337MOL0     C44417   4.739   1.238  10.119  0.3714  0.3904 -0.7465
  337MOL0     C44418   4.604   1.268  10.100  0.6441  0.2286  0.4059
  337MOL0     H44419   4.267   1.378   9.822 -0.6236  1.3601 -2.1627
  337MOL0     H44420   4.116   1.564   9.754  1.7287 -0.6082 -0.1147
  337MOL0     H44421   4.086   1.858  10.004  0.0814  1.0717  0.6828
  337MOL0     H44422   3.905   1.861  10.027  1.2934 -1.2138  1.4105
  337MOL0     H44423   4.003   2.059   9.902  0.0056  0.8617 -3.4937
  337MOL0     H44424   3.867   1.979   9.830 -0.7423  2.5718 -2.8592
  337MOL0     H44425   4.131   1.862   9.752  0.4077  1.8316  3.6428
  337MOL0     H44426   4.131   2.036   9.719  3.3434 -1.5784 -0.1173
  337MOL0     H44427   3.935   1.807   9.663 -1.1468 -0.7325 -1.4597
  337MOL0     H44428   3.896   1.969   9.615 -0.1016 -0.9836  0.8920
  337MOL0     H44429   4.114   1.784   9.489  4.0028  1.9326  2.2624
  337MOL0     H44430   4.151   1.965   9.487 -0.8292  2.0077  3.7727
  337MOL0     H44431   3.939   2.001   9.369  1.4047 -0.0383  0.3299
  337MOL0     H44432   3.917   1.825   9.378  0.5531 -0.3178 -0.5089
  337MOL0     H44433   4.146   1.990   9.248  1.6423 -0.9850  1.4189
  337MOL0     H44434   4.156   1.814   9.260 -1.0854 -0.7940  1.9541
  337MOL0     H44435   3.960   1.990   9.098  1.3882  1.9396 -1.2834
  337MOL0     H44436   3.917   1.824   9.140  0.2502 -1.0552 -2.6143
  337MOL0     H44437   3.910   1.803   8.867 -0.1526  0.7053 -0.0052
  337MOL0     H44438   4.155   1.772   8.596  2.0462 -1.1050  1.7184
  337MOL0     H44439   3.995   1.698   8.634  1.1804 -2.0599 -3.5669
  337MOL0     H44440   4.275   1.572   8.721 -0.5562  0.3563  1.8736
  337MOL0     H44441   4.178   1.524   8.586  1.7981  1.4284 -1.6709
  337MOL0     H44442   4.102   1.535   8.890  0.6848  0.3876 -1.2778
  337MOL0     H44443   3.986   1.498   8.774 -0.0764 -1.1833  1.5275
  337MOL0     H44444   4.045   1.284   8.863 -0.9901  1.5751 -0.7775
  337MOL0     H44445   4.219   1.337   8.843  1.1949  1.1150 -2.7182
  337MOL0     H44446   4.302   1.044   8.761 -0.4799  1.6279  0.2796
  337MOL0     H44447   4.240   0.797   8.720  0.2418 -3.7901 -3.3901
  337MOL0     H44448   3.803   0.599   8.301  1.4330  0.8010  1.4134
  337MOL0     H44449   3.651   0.406   8.267 -2.2913  0.9927  1.6742
  337MOL0     H44450   3.617   0.136   8.612 -0.6319  0.3758 -0.3778
  337MOL0     H44451   3.727   0.043   8.502  1.1016  0.8377  3.2352
  337MOL0     H44452   3.495  -0.064   8.571 -1.0799 -0.3736 -1.1454
  337MOL0     H44453   3.513  -0.054   8.398 -0.1914 -1.9839  1.0352
  337MOL0     H44454   3.371   0.124   8.369  0.6969  0.9638  0.0253
  337MOL0     H44455   3.378   0.162   8.542  1.0429 -0.2331 -1.1978
  337MOL0     H44456   3.280  -0.101   8.398 -0.5449 -0.1017 -0.9560
  337MOL0     H44457   3.279  -0.080   8.574 -1.9998 -0.5310  0.7243
  337MOL0     H44458   3.106   0.092   8.378  1.8946  0.9003 -0.1614
  337MOL0     H44459   3.114   0.105   8.553  1.3599 -1.3414  0.1521
  337MOL0     H44460   3.020  -0.124   8.560 -0.0639 -0.3098 -0.3484
  337MOL0     H44461   3.063  -0.151   8.400  0.6348 -0.2606 -0.3151
  337MOL0     H44462   2.866   0.078   8.481  0.4433 -1.0621 -0.0640
  337MOL0     H44463   2.894   0.006   8.325 -3.3650  0.5093 -0.0463
  337MOL0     H44464   2.780  -0.174   8.333 -1.6797 -2.3092  1.7211
  337MOL0     H44465   2.685  -0.061   8.419  0.1680  0.2795 -1.3593
  337MOL0     H44466   3.791   0.259   8.651 -1.9951  1.1386  2.3097
  337MOL0     H44467   3.902   0.470   8.692 -4.0057  1.6762  1.6709
  337MOL0     H44468   3.871   0.919   8.559  0.1992 -0.5876  0.0638
  337MOL0     H44469   3.954   1.156   8.559 -2.6106 -3.3498  0.0040
  337MOL0     H44470   4.001   1.632  10.173 -0.8660 -2.5475  0.2234
  337MOL0     H44471   4.142   1.460  10.235 -1.6603 -1.3274  0.3960
  337MOL0     H44472   4.495   1.160  10.406 -1.0140  0.2355 -1.3700
  337MOL0     H44473   4.728   1.129  10.439  0.8930  5.5401  0.5423
  337MOL0     H44474   4.947   1.116  10.419  1.5401 -0.4133  0.8730
  337MOL0     H44475   5.088   1.113  10.324  0.0587 -0.6535  0.8679
  337MOL0     H44476   4.889   0.892  10.362 -0.1996  0.6747  0.0111
  337MOL0     H44477   5.011   0.884  10.226  2.0479 -2.1355  0.5978
  337MOL0     H44478   5.073   0.885  10.526 -0.4999 -2.7710  0.1417
  337MOL0     H44479   5.183   0.946  10.402 -1.3694  2.3914  1.3049
  337MOL0     H44480   5.069   0.655  10.420  2.2229 -2.5209 -3.0162
  337MOL0     H44481   5.170   0.721  10.295  1.7365  0.2072  0.2746
  337MOL0     H44482   5.433   0.673  10.635  0.8158 -2.3391 -0.5198
  337MOL0     H44483   4.817   1.246  10.043  0.5216  2.1830 -0.4474
  337MOL0     H44484   4.578   1.320  10.008  1.1575 -1.3232 -0.6519
  338MOL0     O44485   6.726   5.821   8.981 -0.3716 -0.3450  0.6762
  338MOL0     C44486   6.642   5.740   8.945  0.2227 -0.1525  0.7265
  338MOL0     O44487   6.507   5.773   8.929 -0.5000  0.3275 -0.2678
  338MOL0     C44488   6.470   5.895   8.974 -0.5200 -0.3961 -0.2383
  338MOL0     C44489   6.392   5.902   9.096 -0.6404 -1.4478  0.1859
  338MOL0     C44490   6.390   6.028   9.161 -0.2680  1.0637 -1.7055
  338MOL0     C44491   6.452   6.137   9.110  0.1336  0.4137  0.2099
  338MOL0     O44492   6.470   6.266   9.162 -0.2766  0.5999  0.9761
  338MOL0     C44493   6.419   6.294   9.293 -0.8647 -0.4345 -0.0734
  338MOL0     C44494   6.458   6.440   9.326  0.9895 -0.0334  0.5496
  338MOL0     C44495   6.403   6.493   9.464 -0.4162  1.1108  0.0717
  338MOL0     C44496   6.409   6.638   9.471  0.6565 -0.2974 -0.1304
  338MOL0     C44497   6.350   6.682   9.610  0.5764  0.3132  0.0944
  338MOL0     C44498   6.326   6.829   9.633 -0.3255  0.3556 -0.1694
  338MOL0     C44499   6.465   6.905   9.629  0.4687  0.0080  0.1360
  338MOL0     C44500   6.456   7.058   9.677  0.4701 -0.9391 -0.3910
  338MOL0     N44501   6.368   7.137   9.598  0.7730 -0.8300  0.9499
  338MOL0     C44502   6.400   7.195   9.476 -1.2034 -0.2670  0.2624
  338MOL0     C44503   6.293   7.273   9.450  0.6750 -0.4012  0.5628
  338MOL0     C44504   6.279   7.359   9.328  0.6245 -0.2073  0.0351
  338MOL0     C44505   6.394   7.457   9.333 -0.5459 -0.1473  0.1693
  338MOL0     C44506   6.397   7.544   9.455  0.2417  0.9725  0.4737
  338MOL0     C44507   6.270   7.622   9.492  0.3627 -0.1126 -0.3396
  338MOL0     O44508   6.256   7.708   9.373  0.3541 -0.4148 -0.7267
  338MOL0     C44509   6.279   7.838   9.411  0.1105  0.1265 -0.9430
  338MOL0     C44510   6.410   7.889   9.428 -0.4372  0.6698 -0.5719
  338MOL0     C44511   6.425   8.021   9.466 -0.4851 -0.0276 -0.3296
  338MOL0     C44512   6.312   8.112   9.484  0.1243  0.2576 -0.6399
  338MOL0     C44513   6.333   8.245   9.549 -0.1593 -0.4879  0.1244
  338MOL0     O44514   6.214   8.312   9.575 -0.3040  0.2117  0.1546
  338MOL0     C44515   6.235   8.425   9.659  0.7482 -0.4094  0.4966
  338MOL0     C44516   6.328   8.433   9.772 -0.1864 -0.3934  0.4281
  338MOL0     C44517   6.332   8.546   9.850 -0.4155  1.1478  0.5484
  338MOL0     C44518   6.235   8.642   9.833 -0.6521 -0.2327  0.5295
  338MOL0     O44519   6.253   8.753   9.918 -0.0907  0.2602 -0.2548
  338MOL0     C44520   6.200   8.875   9.883  0.9500 -0.1452  0.7258
  338MOL0     C44521   6.236   8.981   9.981  0.5764 -0.9729 -0.6198
  338MOL0     C44522   6.190   9.118   9.917  0.5624 -0.2028  0.1457
  338MOL0     C44523   6.247   9.238   9.986 -0.5757 -0.0164  0.1150
  338MOL0     C44524   6.242   9.363   9.902  0.1714 -0.1287 -0.2809
  338MOL0     C44525   6.104   9.414   9.858  0.1287 -0.1067  0.5565
  338MOL0     C44526   6.048   9.380   9.712  0.1236  0.3943 -0.7923
  338MOL0     C44527   5.911   9.440   9.692  0.1853  0.1239 -0.8202
  338MOL0    Cl44528   5.803   9.337   9.791  0.0555 -0.0234  0.0507
  338MOL0     C44529   6.144   8.637   9.724  0.2074 -1.2196 -0.3366
  338MOL0     C44530   6.149   8.524   9.634 -0.4341 -1.1430  0.2295
  338MOL0     O44531   6.445   8.289   9.554 -0.6320 -0.0161 -0.8044
  338MOL0     C44532   6.187   8.055   9.468 -0.2389 -0.0950  0.8108
  338MOL0     C44533   6.168   7.923   9.429 -0.1725  0.6597 -0.5962
  338MOL0     N44534   6.194   7.255   9.547 -0.3227 -0.5056  0.1500
  338MOL0     N44535   6.238   7.178   9.629 -0.4799  0.3568  0.1166
  338MOL0     C44536   6.509   6.127   8.978  0.0881  0.0705  0.8024
  338MOL0     C44537   6.516   6.012   8.907  1.1001 -0.1448  0.3786
  338MOL0     C44538   6.673   5.597   8.918 -0.1922 -0.1149  0.7557
  338MOL0     C44539   6.815   5.548   8.917 -0.2785  0.1302 -1.0493
  338MOL0     C44540   6.840   5.418   8.872  0.8644  0.6103  0.6052
  338MOL0     C44541   6.731   5.331   8.846  0.2110  0.1351 -0.4277
  338MOL0     O44542   6.748   5.203   8.809 -0.4873  0.4373 -0.3753
  338MOL0     C44543   6.878   5.135   8.846 -0.4481  1.3930 -0.0994
  338MOL0     C44544   6.860   4.988   8.818 -0.5394  0.9201  0.2990
  338MOL0     C44545   6.885   4.965   8.663 -0.0875 -0.0252 -0.0184
  338MOL0     C44546   6.893   4.807   8.646 -0.8161  1.0893  0.4030
  338MOL0     C44547   6.912   4.763   8.500 -0.9131 -0.2539  0.9402
  338MOL0     C44548   6.927   4.720   8.386  0.0663 -0.2505  0.0808
  338MOL0     C44549   6.599   5.377   8.854 -0.7597  0.3452  0.7908
  338MOL0     C44550   6.566   5.504   8.894 -0.1826 -0.6614 -0.3296
  338MOL0     H44551   6.355   5.811   9.141  2.0717 -1.9086  1.7270
  338MOL0     H44552   6.333   6.036   9.253  1.1052 -8.2776  1.0050
  338MOL0     H44553   6.459   6.224   9.367 -0.6568 -1.4961 -1.1423
  338MOL0     H44554   6.311   6.273   9.289 -0.7769 -0.7819 -0.7875
  338MOL0     H44555   6.411   6.491   9.241 -0.6949  0.6173  1.8292
  338MOL0     H44556   6.567   6.452   9.326  1.0150 -0.2254  0.1511
  338MOL0     H44557   6.455   6.444   9.547 -1.3794  2.5372  1.5648
  338MOL0     H44558   6.297   6.468   9.473 -0.0159 -1.3983 -1.1263
  338MOL0     H44559   6.511   6.677   9.469  0.4932  0.2018  0.5533
  338MOL0     H44560   6.350   6.678   9.387 -0.6341 -2.1975 -0.1860
  338MOL0     H44561   6.407   6.642   9.694 -2.4124 -0.5203  1.8964
  338MOL0     H44562   6.253   6.632   9.624  0.8876 -0.3453 -0.0675
  338MOL0     H44563   6.286   6.845   9.733  2.3387  2.5074  0.7151
  338MOL0     H44564   6.258   6.874   9.561  0.5067  2.6924  0.3919
  338MOL0     H44565   6.546   6.854   9.681 -0.4810 -0.2955  1.3835
  338MOL0     H44566   6.498   6.906   9.525  0.6748  0.0249  0.2021
  338MOL0     H44567   6.552   7.106   9.699 -0.5021 -0.5323  3.9485
  338MOL0     H44568   6.425   7.048   9.782 -0.5005 -1.2507 -0.6983
  338MOL0     H44569   6.492   7.191   9.419  1.8368 -0.2146  4.6724
  338MOL0     H44570   6.178   7.397   9.306  0.7277  1.8015  2.4971
  338MOL0     H44571   6.295   7.303   9.236  0.0144  0.5255 -0.5420
  338MOL0     H44572   6.372   7.523   9.249 -1.5405 -1.1543 -0.3936
  338MOL0     H44573   6.494   7.415   9.317  0.6803  2.6625 -0.1258
  338MOL0     H44574   6.426   7.486   9.543  3.3448 -0.3537 -1.2576
  338MOL0     H44575   6.486   7.606   9.437  0.6122  0.1277 -0.6976
  338MOL0     H44576   6.287   7.678   9.584  0.6738  0.8100 -0.9394
  338MOL0     H44577   6.180   7.561   9.504  0.5774  0.0393  2.8639
  338MOL0     H44578   6.498   7.827   9.414 -0.4851 -0.5125  3.1329
  338MOL0     H44579   6.528   8.049   9.485 -0.6252 -0.0976  0.5460
  338MOL0     H44580   6.367   8.336   9.801  3.5790  0.2499 -1.8122
  338MOL0     H44581   6.409   8.557   9.926 -0.1873  2.8487  0.1088
  338MOL0     H44582   6.092   8.873   9.892  0.6591  1.2309 -1.6354
  338MOL0     H44583   6.228   8.903   9.780 -1.7096  0.8284  0.1949
  338MOL0     H44584   6.342   8.980  10.009  0.5436  0.2500 -0.3739
  338MOL0     H44585   6.180   8.968  10.074 -1.7668  3.4369 -1.1282
  338MOL0     H44586   6.082   9.136   9.917  0.6077  0.2916  2.0940
  338MOL0     H44587   6.225   9.131   9.814  0.0133 -0.4565 -0.0806
  338MOL0     H44588   6.182   9.248  10.073  0.7967  1.0935  1.0557
  338MOL0     H44589   6.351   9.227  10.016 -1.0542 -1.3909  1.3508
  338MOL0     H44590   6.302   9.342   9.813  1.3527  1.8299  0.0029
  338MOL0     H44591   6.297   9.439   9.958  0.6199 -0.7426  0.1317
  338MOL0     H44592   6.111   9.524   9.861 -0.3386  0.2116 -3.3884
  338MOL0     H44593   6.032   9.374   9.929 -2.4835 -0.7330 -2.2082
  338MOL0     H44594   6.115   9.421   9.636 -0.3792  3.1535  0.1681
  338MOL0     H44595   6.045   9.271   9.705  0.9605  0.3258 -0.2117
  338MOL0     H44596   5.874   9.441   9.589 -0.4443  0.9208 -0.5933
  338MOL0     H44597   5.918   9.539   9.736  0.9888 -0.8900  1.4990
  338MOL0     H44598   6.074   8.718   9.709  0.5874 -0.7866  0.1875
  338MOL0     H44599   6.080   8.520   9.551 -1.2131 -3.8226  0.9250
  338MOL0     H44600   6.102   8.109   9.508 -0.0861 -0.2044  1.2930
  338MOL0     H44601   6.067   7.885   9.420  0.1017  0.1752 -1.7628
  338MOL0     H44602   6.544   6.218   8.931  2.5353 -0.2854  1.7830
  338MOL0     H44603   6.569   6.000   8.813 -1.3162  0.6286 -1.1596
  338MOL0     H44604   6.897   5.617   8.932  1.1759 -1.5560 -0.9596
  338MOL0     H44605   6.940   5.378   8.867 -0.8265 -3.9911 -2.6443
  338MOL0     H44606   6.899   5.140   8.953 -2.4610 -1.1804  0.5256
  338MOL0     H44607   6.969   5.177   8.801 -0.0399  1.0568  0.3886
  338MOL0     H44608   6.933   4.922   8.867  1.9532 -0.4870 -4.6462
  338MOL0     H44609   6.759   4.952   8.839 -0.7570 -0.2490 -2.4258
  338MOL0     H44610   6.986   5.004   8.648  0.5297 -1.2050  0.9512
  338MOL0     H44611   6.801   5.017   8.615 -0.8234 -0.3031  0.9392
  338MOL0     H44612   6.979   4.757   8.692  0.9573 -0.6455 -4.1592
  338MOL0     H44613   6.798   4.763   8.679  0.4915 -0.2405  2.6131
  338MOL0     H44614   6.931   4.683   8.286 -3.6037 -3.9619  1.0395
  338MOL0     H44615   6.528   5.303   8.818 -1.2646  1.1934 -0.0159
  338MOL0     H44616   6.466   5.544   8.887 -0.1229 -0.3741  0.4222
  339MOL0     O44617   0.744   2.832   1.141  0.5677  0.0305  0.8503
  339MOL0     C44618   0.790   2.924   1.073 -0.0512 -0.4392 -0.6486
  339MOL0     O44619   0.724   3.001   0.994 -0.2058 -0.1106  0.2076
  339MOL0     C44620   0.592   2.992   0.994 -0.0767  0.2282  0.0848
  339MOL0     C44621   0.517   3.109   0.976 -1.3624 -0.2599 -0.0207
  339MOL0     C44622   0.382   3.111   0.976 -0.0152 -0.0822 -0.8231
  339MOL0     C44623   0.306   2.991   0.991 -1.5146 -0.3766 -0.3012
  339MOL0     O44624   0.168   2.980   0.995  0.4717  0.5918  0.3414
  339MOL0     C44625   0.076   3.096   1.002  0.2037  0.0275  0.4336
  339MOL0     C44626   0.005   3.110   0.865  0.1214 -0.0214  0.7732
  339MOL0     C44627   0.096   3.174   0.765  0.7622  0.7406 -0.2304
  339MOL0     C44628   0.028   3.184   0.632 -0.4288  0.2115  0.3968
  339MOL0     C44629   0.011   3.061   0.558  0.3171  0.2104 -0.2289
  339MOL0     C44630  -0.100   3.070   0.455 -1.1565  0.7405  0.2035
  339MOL0     C44631  -0.073   3.156   0.338 -0.0523 -0.4177  0.1757
  339MOL0     C44632  -0.201   3.182   0.259 -0.3682 -0.0576  0.5898
  339MOL0     N44633  -0.176   3.285   0.158  0.5506  0.2435  0.2914
  339MOL0     C44634  -0.137   3.260   0.027 -0.9018  0.8684 -0.4414
  339MOL0     C44635  -0.111   3.385  -0.028 -0.1191 -0.1834 -0.9009
  339MOL0     C44636  -0.084   3.410  -0.174 -0.3593 -0.5218  0.4769
  339MOL0     C44637  -0.002   3.285  -0.220  0.1831 -0.3391 -0.0971
  339MOL0     C44638   0.041   3.297  -0.363 -0.4260  1.1315  0.1191
  339MOL0     C44639   0.113   3.166  -0.415  0.0463 -0.3372  0.9723
  339MOL0     O44640   0.015   3.053  -0.413 -0.0177 -0.9033  1.0144
  339MOL0     C44641  -0.078   3.049  -0.515  0.3080  0.4711 -0.1826
  339MOL0     C44642  -0.095   3.138  -0.623 -0.3679  0.0237  0.2943
  339MOL0     C44643  -0.179   3.114  -0.726  0.3301 -0.0972  0.0948
  339MOL0     C44644  -0.252   2.993  -0.723 -0.5520 -0.7115 -0.9014
  339MOL0     C44645  -0.344   2.970  -0.838 -0.6708 -0.0242  0.8751
  339MOL0     O44646  -0.428   2.864  -0.824  0.0401 -0.6855  0.6021
  339MOL0     C44647  -0.549   2.857  -0.899  0.2555  1.6353  0.8308
  339MOL0     C44648  -0.630   2.964  -0.942 -0.0756 -0.0462  0.3253
  339MOL0     C44649  -0.730   2.955  -1.039  1.5091  1.0252 -0.5498
  339MOL0     C44650  -0.758   2.821  -1.090  0.0230 -0.3355  0.0264
  339MOL0     O44651  -0.842   2.783  -1.192  0.6824 -0.4167 -0.1852
  339MOL0     C44652  -0.939   2.883  -1.233  0.0135  0.6735  0.3484
  339MOL0     C44653  -1.058   2.818  -1.305  1.3015 -0.3035  0.9878
  339MOL0     C44654  -1.050   2.865  -1.451 -0.3486 -0.0451 -0.7771
  339MOL0     C44655  -1.159   2.786  -1.529 -0.7707  0.7637  0.1763
  339MOL0     C44656  -1.220   2.875  -1.640  1.2687  0.0056  0.4210
  339MOL0     C44657  -1.353   2.819  -1.707 -0.1195 -0.1964 -0.1601
  339MOL0     C44658  -1.359   2.668  -1.727 -0.5786  0.2078  0.0022
  339MOL0     C44659  -1.497   2.621  -1.758 -0.3463  0.2213 -0.0915
  339MOL0    Cl44660  -1.481   2.459  -1.804  0.0782  0.1164  0.7998
  339MOL0     C44661  -0.688   2.713  -1.040  0.7179 -0.2755 -0.5223
  339MOL0     C44662  -0.583   2.726  -0.951  0.0246 -0.6187 -0.4495
  339MOL0     O44663  -0.347   3.045  -0.933  0.4345 -0.3730 -0.1362
  339MOL0     C44664  -0.248   2.910  -0.603 -0.6838  0.5454  0.3492
  339MOL0     C44665  -0.161   2.937  -0.499  0.2292  0.0292 -0.7078
  339MOL0     N44666  -0.158   3.477   0.061 -1.0286  0.2129  0.1607
  339MOL0     N44667  -0.193   3.427   0.167 -0.0478  0.2023 -0.4775
  339MOL0     C44668   0.377   2.873   0.988 -0.0911 -0.1299  1.3160
  339MOL0     C44669   0.517   2.868   0.990 -0.8133 -0.0332 -0.5524
  339MOL0     C44670   0.931   2.951   1.094  0.4242  0.1264  0.1741
  339MOL0     C44671   0.996   3.056   1.014 -0.6854  0.3520  0.2064
  339MOL0     C44672   1.133   3.060   1.016 -0.9372  0.4057 -0.4688
  339MOL0     C44673   1.215   2.975   1.094  0.3651  0.0367 -0.7249
  339MOL0     O44674   1.353   2.997   1.099  0.0076  0.3036 -0.3088
  339MOL0     C44675   1.446   2.907   1.161  0.0458  0.1339  0.3324
  339MOL0     C44676   1.587   2.945   1.101 -0.5504  1.5667 -0.7237
  339MOL0     C44677   1.704   2.859   1.168  0.3958 -1.1061 -0.0656
  339MOL0     C44678   1.829   2.882   1.090 -0.4415  0.1411 -0.5521
  339MOL0     C44679   1.945   2.824   1.166 -0.9409  0.6473 -0.1172
  339MOL0     C44680   2.025   2.758   1.234  0.5471  0.2139  0.0782
  339MOL0     C44681   1.153   2.875   1.171  0.6285  0.5648  0.3317
  339MOL0     C44682   1.011   2.864   1.174  0.5974  0.0951  0.7083
  339MOL0     H44683   0.571   3.203   0.972 -2.6339  0.5245  0.5355
  339MOL0     H44684   0.327   3.204   0.970 -1.0384 -0.2841  3.1564
  339MOL0     H44685   0.128   3.187   1.033  1.0516 -0.1675 -0.3535
  339MOL0     H44686  -0.003   3.086   1.077 -1.6068 -0.3541 -1.4313
  339MOL0     H44687  -0.089   3.166   0.874  0.5878  0.4193  4.0266
  339MOL0     H44688  -0.017   3.006   0.840 -0.8805 -0.2554  2.4924
  339MOL0     H44689   0.196   3.130   0.762  1.6384  2.4308  1.8311
  339MOL0     H44690   0.104   3.279   0.794  0.3814  0.4708  0.9421
  339MOL0     H44691  -0.070   3.223   0.661 -0.9447 -0.0844 -0.8602
  339MOL0     H44692   0.069   3.261   0.565  0.9374  2.0823  3.2081
  339MOL0     H44693  -0.005   2.974   0.623 -0.3496  0.3545 -0.1898
  339MOL0     H44694   0.104   3.034   0.508 -0.1966 -1.2109 -0.4685
  339MOL0     H44695  -0.196   3.098   0.499 -1.9264 -0.8602 -0.3963
  339MOL0     H44696  -0.124   2.971   0.416 -1.1116  0.9243 -0.2952
  339MOL0     H44697  -0.021   3.246   0.371  1.9349 -1.0849 -0.9273
  339MOL0     H44698  -0.011   3.096   0.270 -3.2266 -4.2761  0.3506
  339MOL0     H44699  -0.276   3.224   0.327  3.0360  2.2038  3.3088
  339MOL0     H44700  -0.244   3.091   0.216 -0.9676  0.8809 -0.8956
  339MOL0     H44701  -0.140   3.169  -0.032 -2.9205  0.5396  0.1029
  339MOL0     H44702  -0.023   3.496  -0.202  2.2138 -3.1984 -2.9374
  339MOL0     H44703  -0.174   3.409  -0.236  2.1008 -0.0092 -3.4140
  339MOL0     H44704  -0.073   3.202  -0.224 -1.2311  0.7874  0.4519
  339MOL0     H44705   0.082   3.265  -0.154 -1.1529 -2.1551  1.1686
  339MOL0     H44706  -0.038   3.334  -0.429 -0.0082 -0.5364 -1.3871
  339MOL0     H44707   0.114   3.379  -0.367 -0.9413  1.5864 -0.1894
  339MOL0     H44708   0.178   3.157  -0.328  0.2705  1.9897  1.1108
  339MOL0     H44709   0.165   3.170  -0.511 -3.5201 -1.3670 -1.2286
  339MOL0     H44710  -0.021   3.217  -0.626  1.6660 -1.7155  1.4801
  339MOL0     H44711  -0.199   3.187  -0.804 -1.0150 -1.1040 -0.5526
  339MOL0     H44712  -0.593   3.054  -0.894 -0.4774 -1.0918  2.7594
  339MOL0     H44713  -0.784   3.044  -1.071  1.5008  1.1526 -0.1784
  339MOL0     H44714  -0.884   2.956  -1.293 -0.6340 -0.4898 -1.7379
  339MOL0     H44715  -0.973   2.927  -1.138 -1.2858 -2.4929  1.5001
  339MOL0     H44716  -1.151   2.853  -1.260  0.5251  0.4677 -1.1010
  339MOL0     H44717  -1.064   2.709  -1.308 -0.4119 -0.2394  1.0826
  339MOL0     H44718  -0.946   2.852  -1.483 -0.3398  1.7885 -1.6416
  339MOL0     H44719  -1.071   2.972  -1.443  0.2841  0.0242  0.1384
  339MOL0     H44720  -1.101   2.710  -1.582  3.1452  2.9199  0.9242
  339MOL0     H44721  -1.224   2.729  -1.462  1.6778 -4.0477 -1.1172
  339MOL0     H44722  -1.143   2.900  -1.713  0.8055  3.1016  0.8369
  339MOL0     H44723  -1.253   2.971  -1.599  0.5622 -0.8145  1.8655
  339MOL0     H44724  -1.373   2.866  -1.803 -1.1668  3.1792  1.5498
  339MOL0     H44725  -1.441   2.855  -1.652 -1.5741 -0.8203 -1.9573
  339MOL0     H44726  -1.281   2.632  -1.794 -1.6292 -3.5739  0.5938
  339MOL0     H44727  -1.332   2.632  -1.627 -0.8331  0.8751  0.3187
  339MOL0     H44728  -1.563   2.678  -1.823 -2.1265 -1.8465 -0.2315
  339MOL0     H44729  -1.544   2.600  -1.661  0.5206  0.5926  0.4302
  339MOL0     H44730  -0.710   2.611  -1.072  0.6842 -0.0180 -1.3596
  339MOL0     H44731  -0.512   2.646  -0.932 -0.1457 -0.3298  1.6206
  339MOL0     H44732  -0.287   2.809  -0.599  2.0894 -0.6461 -0.6574
  339MOL0     H44733  -0.143   2.868  -0.416  0.6500  1.0997  0.1195
  339MOL0     H44734   0.308   2.790   0.995  1.2672 -1.3637  0.5636
  339MOL0     H44735   0.574   2.776   0.978  4.5585  2.2063  3.4767
  339MOL0     H44736   0.936   3.127   0.959 -1.4811 -1.4509 -1.3644
  339MOL0     H44737   1.167   3.144   0.957 -1.9388 -1.1617 -3.4867
  339MOL0     H44738   1.411   2.807   1.133  0.5469 -0.0295  0.2787
  339MOL0     H44739   1.438   2.925   1.268 -1.1808 -0.0157  0.2802
  339MOL0     H44740   1.585   2.918   0.995 -0.4352  1.8563 -0.7993
  339MOL0     H44741   1.604   3.053   1.103  0.9845  1.3273  0.4157
  339MOL0     H44742   1.671   2.756   1.147 -0.2112 -1.0603  0.6123
  339MOL0     H44743   1.699   2.881   1.275  0.7421 -4.1264  0.6835
  339MOL0     H44744   1.818   2.831   0.994 -1.0802 -0.7927  0.0056
  339MOL0     H44745   1.850   2.987   1.066 -3.6940  0.1720 -4.3317
  339MOL0     H44746   2.098   2.702   1.289 -0.4788  0.6186  1.9152
  339MOL0     H44747   1.213   2.802   1.224 -3.9565 -3.9972 -0.0628
  339MOL0     H44748   0.965   2.791   1.240 -0.4986  1.4845  1.5644
  340MOL0     O44749   0.319   0.015   0.990  0.0824  0.4356 -0.2889
  340MOL0     C44750   0.322   0.063   0.881  0.7233  0.1640  0.3873
  340MOL0     O44751   0.236   0.155   0.830 -0.3533 -0.5921 -0.9053
  340MOL0     C44752   0.139   0.211   0.915 -0.0838 -0.5560  0.6680
  340MOL0     C44753   0.106   0.343   0.895  0.2893  0.7576  0.2605
  340MOL0     C44754   0.003   0.404   0.965 -0.1481 -0.6358 -0.2861
  340MOL0     C44755  -0.075   0.343   1.059  0.9287  0.4368  0.7285
  340MOL0     O44756  -0.173   0.409   1.126 -0.7155 -0.1666  0.4327
  340MOL0     C44757  -0.263   0.342   1.215  1.2664 -0.6820 -0.2802
  340MOL0     C44758  -0.380   0.435   1.240  0.1292 -0.6045 -0.3202
  340MOL0     C44759  -0.504   0.428   1.159  1.2234  0.1842  0.0367
  340MOL0     C44760  -0.484   0.467   1.013  0.1191 -0.1494 -0.3453
  340MOL0     C44761  -0.622   0.477   0.948 -0.7816  0.8555 -0.0574
  340MOL0     C44762  -0.621   0.545   0.814 -0.1689 -0.0927 -1.0934
  340MOL0     C44763  -0.766   0.561   0.746 -0.3790 -0.4819 -0.0375
  340MOL0     C44764  -0.789   0.449   0.651  0.5914 -0.8221 -0.5695
  340MOL0     N44765  -0.921   0.466   0.578  0.3915 -0.4648  0.4945
  340MOL0     C44766  -1.044   0.432   0.628 -1.1732  0.2815 -0.7773
  340MOL0     C44767  -1.116   0.439   0.514  0.2966 -0.6827  0.3871
  340MOL0     C44768  -1.265   0.417   0.502 -0.2011  0.4167  0.8015
  340MOL0     C44769  -1.322   0.315   0.608 -0.3063 -0.3923 -0.5904
  340MOL0     C44770  -1.437   0.257   0.531  0.1233 -0.2082  0.1363
  340MOL0     C44771  -1.513   0.152   0.607 -0.0053 -0.5892 -0.5013
  340MOL0     O44772  -1.601   0.062   0.532  0.3730  0.3286 -0.1946
  340MOL0     C44773  -1.716   0.115   0.478 -0.1680 -0.5462  0.1932
  340MOL0     C44774  -1.787   0.037   0.404 -0.5499  0.3523  0.9584
  340MOL0     C44775  -1.907   0.064   0.346 -0.4666  0.1708 -0.5013
  340MOL0     C44776  -1.963   0.185   0.361 -0.4399 -0.3988 -0.2923
  340MOL0     C44777  -2.095   0.224   0.292  0.3577  0.2859  0.4089
  340MOL0     O44778  -2.148   0.130   0.209 -0.6556 -0.1053 -0.3248
  340MOL0     C44779  -2.270   0.138   0.153 -0.3574 -0.1120 -0.4913
  340MOL0     C44780  -2.342   0.252   0.131  0.0724 -0.0476 -1.1434
  340MOL0     C44781  -2.456   0.244   0.053 -0.0308 -1.2958  0.2232
  340MOL0     C44782  -2.481   0.132  -0.022  0.2674 -0.3713 -0.4671
  340MOL0     O44783  -2.585   0.116  -0.119 -0.2137  1.1056  0.7582
  340MOL0     C44784  -2.704   0.189  -0.090 -0.6324  0.4466 -0.7766
  340MOL0     C44785  -2.837   0.113  -0.109 -0.1360 -0.4919 -0.5656
  340MOL0     C44786  -2.958   0.204  -0.116 -0.3159  0.1708  0.4978
  340MOL0     C44787  -3.087   0.119  -0.119  0.1877  1.1799 -0.1684
  340MOL0     C44788  -3.214   0.213  -0.094 -0.3431 -0.2688 -0.1237
  340MOL0     C44789  -3.248   0.317  -0.197  0.4805 -0.2133  0.7627
  340MOL0     C44790  -3.257   0.253  -0.333 -0.4150  0.2352  0.8770
  340MOL0     C44791  -3.273   0.348  -0.447  0.7668  0.4974 -0.8018
  340MOL0    Cl44792  -3.114   0.420  -0.485  0.2282 -0.6656  0.4237
  340MOL0     C44793  -2.409   0.016   0.007  0.3014 -0.2314  0.9362
  340MOL0     C44794  -2.296   0.017   0.093  0.3491 -0.4412  0.6497
  340MOL0     O44795  -2.149   0.327   0.339 -0.2455  0.0758  0.1148
  340MOL0     C44796  -1.892   0.280   0.433 -0.1197  0.5166  0.5234
  340MOL0     C44797  -1.759   0.254   0.492 -0.8579  0.1749 -0.7923
  340MOL0     N44798  -1.048   0.498   0.406 -0.1246 -0.1140  0.1832
  340MOL0     N44799  -0.925   0.504   0.446  0.4576  0.4126 -0.2723
  340MOL0     C44800  -0.045   0.206   1.083  0.1049 -1.3574  0.1684
  340MOL0     C44801   0.059   0.145   1.009 -0.3840  0.1369  0.7535
  340MOL0     C44802   0.393  -0.009   0.775  0.2629  0.3211 -0.5560
  340MOL0     C44803   0.405   0.041   0.643  0.0999  0.3459 -0.2472
  340MOL0     C44804   0.475  -0.028   0.546 -1.1797  0.1934 -0.2342
  340MOL0     C44805   0.541  -0.150   0.571 -0.6771 -1.7159 -0.4083
  340MOL0     O44806   0.605  -0.225   0.480 -0.3385 -0.1263 -0.9068
  340MOL0     C44807   0.606  -0.183   0.342  0.0460  0.0371  0.2094
  340MOL0     C44808   0.654  -0.290   0.232 -0.0889  0.1456  0.2446
  340MOL0     C44809   0.545  -0.401   0.216 -0.4142  0.5907 -0.1350
  340MOL0     C44810   0.590  -0.498   0.102  0.2080  0.0529 -0.1329
  340MOL0     C44811   0.570  -0.435  -0.031 -0.8082  0.0604  0.2687
  340MOL0     C44812   0.565  -0.387  -0.138  0.1827 -0.3603  0.6509
  340MOL0     C44813   0.532  -0.196   0.705 -0.3218 -0.7228 -0.3908
  340MOL0     C44814   0.463  -0.127   0.801 -1.0460 -0.2448 -0.8021
  340MOL0     H44815   0.144   0.409   0.817  0.9146 -0.4743 -0.5235
  340MOL0     H44816  -0.015   0.509   0.947  1.7543 -0.2764 -0.3072
  340MOL0     H44817  -0.223   0.313   1.313  0.6722  4.9252  2.0608
  340MOL0     H44818  -0.307   0.254   1.168 -0.8682  1.4829 -2.6720
  340MOL0     H44819  -0.337   0.534   1.223 -0.2583  0.2010  2.8106
  340MOL0     H44820  -0.402   0.432   1.346  0.4459 -1.7813 -0.2749
  340MOL0     H44821  -0.575   0.502   1.196  1.1109  1.5291 -2.6306
  340MOL0     H44822  -0.551   0.330   1.169 -0.1176  1.0100  2.6461
  340MOL0     H44823  -0.442   0.568   1.015  0.8220 -0.4158  2.3186
  340MOL0     H44824  -0.427   0.384   0.970 -1.4171 -2.4754  1.8011
  340MOL0     H44825  -0.692   0.544   0.998 -1.9547  0.6008 -1.3089
  340MOL0     H44826  -0.665   0.377   0.939  1.5926 -0.1050 -1.7488
  340MOL0     H44827  -0.545   0.499   0.750  0.5603 -2.3546  1.2316
  340MOL0     H44828  -0.592   0.649   0.833  0.2945  0.3249 -3.6870
  340MOL0     H44829  -0.848   0.573   0.818  2.1681  1.6694  2.7652
  340MOL0     H44830  -0.769   0.652   0.685  1.9397  0.4830  1.1720
  340MOL0     H44831  -0.784   0.363   0.719 -1.2582  3.0147  5.1703
  340MOL0     H44832  -0.708   0.444   0.577  1.3620  1.2589  0.0623
  340MOL0     H44833  -1.078   0.398   0.725  0.0375 -1.0056 -0.7699
  340MOL0     H44834  -1.286   0.392   0.398  4.2523  0.7480 -0.4174
  340MOL0     H44835  -1.310   0.510   0.537  1.8757  0.9466  2.2642
  340MOL0     H44836  -1.358   0.365   0.698  1.6109 -0.7562  0.4313
  340MOL0     H44837  -1.257   0.233   0.639  0.2334  0.4973  0.7085
  340MOL0     H44838  -1.495   0.335   0.481  0.0158  0.6947  1.6215
  340MOL0     H44839  -1.389   0.200   0.451 -2.0228 -0.1745 -1.2536
  340MOL0     H44840  -1.564   0.218   0.677  1.1642 -0.0626 -0.1112
  340MOL0     H44841  -1.458   0.093   0.681  0.9064  0.5487 -0.2361
  340MOL0     H44842  -1.746  -0.060   0.376  0.0716  1.5435 -2.8194
  340MOL0     H44843  -1.957  -0.003   0.276  0.3888  1.1708 -2.1209
  340MOL0     H44844  -2.306   0.346   0.172 -1.9057 -0.6811  2.5523
  340MOL0     H44845  -2.509   0.338   0.043  1.4661 -0.3742  0.5982
  340MOL0     H44846  -2.709   0.276  -0.157 -0.6113  0.3912 -0.8512
  340MOL0     H44847  -2.705   0.221   0.014 -0.4019 -0.1930 -0.5739
  340MOL0     H44848  -2.842   0.041  -0.026 -1.0270 -0.3748 -0.5061
  340MOL0     H44849  -2.835   0.040  -0.190 -1.2163 -0.5077 -0.5923
  340MOL0     H44850  -2.949   0.269  -0.204 -0.5392  0.5034  0.7186
  340MOL0     H44851  -2.952   0.269  -0.028 -1.5872  3.1928 -1.4562
  340MOL0     H44852  -3.094   0.074  -0.219  1.1145  0.8438 -0.0909
  340MOL0     H44853  -3.087   0.035  -0.049 -1.2152  1.4788  0.2127
  340MOL0     H44854  -3.197   0.273  -0.004 -0.3838 -0.3395 -0.0681
  340MOL0     H44855  -3.299   0.147  -0.072 -2.4085  1.5584 -2.1004
  340MOL0     H44856  -3.171   0.394  -0.209 -1.0791  1.2441 -0.3534
  340MOL0     H44857  -3.334   0.377  -0.165  1.6939  1.9019  0.2562
  340MOL0     H44858  -3.163   0.205  -0.362 -0.7851  0.2895 -0.4777
  340MOL0     H44859  -3.340   0.181  -0.337 -0.5458  0.4068 -1.8958
  340MOL0     H44860  -3.341   0.428  -0.418  0.0212 -0.8147  1.2484
  340MOL0     H44861  -3.322   0.306  -0.536 -2.4183  2.8917 -0.3542
  340MOL0     H44862  -2.436  -0.072  -0.051 -3.1323  1.8441 -0.9740
  340MOL0     H44863  -2.243  -0.077   0.102 -3.2547 -3.0495 -2.0411
  340MOL0     H44864  -1.913   0.386   0.424 -0.8986  0.2293 -1.7322
  340MOL0     H44865  -1.705   0.335   0.540 -2.4321  1.2110 -0.6795
  340MOL0     H44866  -0.104   0.152   1.156 -0.7366 -0.1221  0.4348
  340MOL0     H44867   0.065   0.039   1.034 -0.1103 -0.0776 -0.1782
  340MOL0     H44868   0.362   0.135   0.612  1.4767  1.7473  1.7978
  340MOL0     H44869   0.482   0.013   0.446 -2.5408 -0.3183 -0.5709
  340MOL0     H44870   0.672  -0.097   0.328  2.5546 -1.7067  0.7028
  340MOL0     H44871   0.512  -0.146   0.301  0.6391  2.6138  1.0139
  340MOL0     H44872   0.658  -0.231   0.140 -4.1456 -0.7194 -0.6801
  340MOL0     H44873   0.753  -0.323   0.266  1.1863  3.8055  0.6192
  340MOL0     H44874   0.445  -0.359   0.199 -0.0292  0.4442 -3.1951
  340MOL0     H44875   0.543  -0.452   0.313  2.3867 -0.0748 -0.3609
  340MOL0     H44876   0.698  -0.512   0.104  0.3397 -0.8142 -4.0096
  340MOL0     H44877   0.551  -0.600   0.113 -0.5374  0.1154 -1.7875
  340MOL0     H44878   0.558  -0.337  -0.233 -0.0176 -1.4957  0.0506
  340MOL0     H44879   0.571  -0.294   0.728  1.3344 -0.4462 -1.8318
  340MOL0     H44880   0.465  -0.176   0.898  1.7681  1.5167  0.1804
  341MOL0     O44881   6.604   9.736   7.437 -0.7136  0.0569 -0.3369
  341MOL0     C44882   6.728   9.725   7.444  0.2856  0.7865 -0.2826
  341MOL0     O44883   6.788   9.601   7.444  0.3236 -0.7053  0.4446
  341MOL0     C44884   6.708   9.487   7.426 -0.4108 -1.2382 -0.0798
  341MOL0     C44885   6.704   9.399   7.536 -0.5768  0.9191  0.2081
  341MOL0     C44886   6.614   9.292   7.527  0.1557 -0.0566 -0.3936
  341MOL0     C44887   6.539   9.272   7.413 -0.6273 -0.1206 -0.0264
  341MOL0     O44888   6.447   9.178   7.387 -0.1157 -0.6922 -0.4795
  341MOL0     C44889   6.427   9.079   7.483 -0.7406  0.8060  0.6535
  341MOL0     C44890   6.336   8.973   7.428  1.6754  0.3753  0.3940
  341MOL0     C44891   6.371   8.918   7.298  0.3978 -0.9155  0.3364
  341MOL0     C44892   6.235   8.882   7.231 -0.2932 -1.4240  0.2252
  341MOL0     C44893   6.271   8.844   7.087  0.2806  0.2367 -0.8175
  341MOL0     C44894   6.146   8.778   7.023  0.8662  0.5463  0.1721
  341MOL0     C44895   6.175   8.778   6.877  0.6888 -0.8277  0.5332
  341MOL0     C44896   6.074   8.682   6.816  0.5090  0.4783  0.1722
  341MOL0     N44897   6.096   8.670   6.668 -0.6225 -0.6578  0.2740
  341MOL0     C44898   6.053   8.740   6.564  0.1601 -0.2868  0.2159
  341MOL0     C44899   6.121   8.710   6.449 -0.0245  0.0922  0.3166
  341MOL0     C44900   6.118   8.773   6.310  1.0840  0.3109 -0.3956
  341MOL0     C44901   6.243   8.859   6.298  0.3031 -0.0385  0.5372
  341MOL0     C44902   6.223   8.942   6.170  0.1430  0.6958 -0.6072
  341MOL0     C44903   6.249   8.864   6.046  0.3194 -0.4929  0.3710
  341MOL0     O44904   6.383   8.827   6.052  0.2649 -0.1549  0.2024
  341MOL0     C44905   6.444   8.753   5.943  0.0779 -0.1803 -0.4157
  341MOL0     C44906   6.585   8.750   5.936  0.4045  0.0075  0.4820
  341MOL0     C44907   6.659   8.672   5.840  0.0711  0.3881 -0.2543
  341MOL0     C44908   6.584   8.583   5.753 -0.0394  0.0709  0.4135
  341MOL0     C44909   6.651   8.491   5.656 -0.7009 -0.3525  0.9152
  341MOL0     O44910   6.787   8.497   5.652  0.5257 -1.5602  0.9226
  341MOL0     C44911   6.843   8.422   5.546  0.2704 -0.4767 -0.6094
  341MOL0     C44912   6.840   8.284   5.547  0.1503 -0.1536 -0.6280
  341MOL0     C44913   6.890   8.220   5.438 -0.9578  0.3954  0.6085
  341MOL0     C44914   6.949   8.286   5.323 -0.4495  0.3253 -0.8633
  341MOL0     O44915   6.997   8.206   5.216  0.4207 -0.5396  0.0363
  341MOL0     C44916   7.092   8.269   5.137  0.0521 -0.0927  0.1908
  341MOL0     C44917   7.173   8.176   5.047 -0.4326 -0.0248  0.3456
  341MOL0     C44918   7.242   8.253   4.935  0.5483  0.4174 -0.3589
  341MOL0     C44919   7.355   8.163   4.868  0.6412 -0.2954  0.0225
  341MOL0     C44920   7.406   8.235   4.745 -0.4382 -0.1245  0.5150
  341MOL0     C44921   7.551   8.191   4.705  0.8456 -0.0803  0.1208
  341MOL0     C44922   7.600   8.268   4.579  0.9938  0.0071 -0.5134
  341MOL0     C44923   7.748   8.307   4.585  0.5444  0.4059  0.7469
  341MOL0    Cl44924   7.849   8.165   4.568 -0.2902 -0.0092 -0.5325
  341MOL0     C44925   6.944   8.432   5.329  0.1361 -0.7689 -0.5145
  341MOL0     C44926   6.892   8.498   5.441  1.7860  0.9602  0.1850
  341MOL0     O44927   6.581   8.415   5.587 -0.4585 -0.0999  0.5319
  341MOL0     C44928   6.443   8.581   5.771  0.0348 -0.5327  0.4903
  341MOL0     C44929   6.375   8.672   5.852 -0.5906 -0.3289 -1.3888
  341MOL0     N44930   6.204   8.614   6.482  0.6622 -0.7801 -0.5104
  341MOL0     N44931   6.193   8.596   6.612 -0.1927 -0.7035 -0.3247
  341MOL0     C44932   6.549   9.363   7.306 -1.2618  0.1847  0.1328
  341MOL0     C44933   6.629   9.474   7.313  0.4780  0.3955 -0.3574
  341MOL0     C44934   6.818   9.825   7.396 -0.8600  0.0066  0.4141
  341MOL0     C44935   6.951   9.826   7.435 -0.0585  0.3007 -0.4846
  341MOL0     C44936   7.034   9.927   7.383 -0.8116  0.1311 -0.3775
  341MOL0     C44937   6.993  10.017   7.287  0.2115  1.3258 -0.4019
  341MOL0     O44938   7.071  10.110   7.221  0.0856 -0.1602  0.0130
  341MOL0     C44939   7.094  10.220   7.307  0.1225  0.1696 -0.7114
  341MOL0     C44940   7.021  10.339   7.238 -0.0072 -0.2446  0.4952
  341MOL0     C44941   7.042  10.473   7.302  0.5312  0.4596  1.2912
  341MOL0     C44942   6.960  10.497   7.427  0.3868  0.2171  0.0487
  341MOL0     C44943   7.002  10.624   7.495  0.2405 -0.5064  0.0287
  341MOL0     C44944   7.039  10.724   7.550 -0.0917 -0.1874 -0.0646
  341MOL0     C44945   6.861  10.019   7.250 -0.4899  0.6869  0.3536
  341MOL0     C44946   6.777   9.918   7.298  0.3182  0.4096 -0.1059
  341MOL0     H44947   6.766   9.419   7.622  2.9331  0.4289 -2.0381
  341MOL0     H44948   6.604   9.223   7.610 -1.0885 -1.3804 -1.5932
  341MOL0     H44949   6.379   9.127   7.569  1.1316 -0.4051  2.4707
  341MOL0     H44950   6.525   9.036   7.504 -1.3636  0.4122  2.9331
  341MOL0     H44951   6.233   9.010   7.423 -0.1317 -4.1192  0.3823
  341MOL0     H44952   6.351   8.888   7.495  0.6059 -0.8279 -0.8313
  341MOL0     H44953   6.442   8.836   7.306  0.2285 -0.9226  2.1847
  341MOL0     H44954   6.421   8.997   7.242  0.5299 -1.6521 -0.6053
  341MOL0     H44955   6.191   8.799   7.287 -0.5581 -3.4846 -2.7754
  341MOL0     H44956   6.178   8.975   7.221  2.9418  0.7739  0.7640
  341MOL0     H44957   6.359   8.781   7.099  1.1070  1.5846  0.7395
  341MOL0     H44958   6.312   8.925   7.026 -0.8041  0.3369 -1.4379
  341MOL0     H44959   6.057   8.838   7.041  0.4115 -0.4259  1.3077
  341MOL0     H44960   6.146   8.679   7.069  0.8059  1.7992  3.0474
  341MOL0     H44961   6.164   8.877   6.834  2.1102  0.8385  3.6270
  341MOL0     H44962   6.279   8.748   6.858  0.3332 -1.2408 -0.8459
  341MOL0     H44963   5.974   8.720   6.841  0.5114 -1.4542  3.8134
  341MOL0     H44964   6.083   8.581   6.858 -1.6827  0.5883  1.0654
  341MOL0     H44965   5.974   8.814   6.569 -2.9559 -3.4412  1.6141
  341MOL0     H44966   6.030   8.832   6.283  1.9306  0.3631 -3.2623
  341MOL0     H44967   6.123   8.684   6.247 -1.4291 -1.6595  1.9330
  341MOL0     H44968   6.336   8.802   6.293  0.6166  0.5680 -1.6475
  341MOL0     H44969   6.250   8.923   6.386  1.0141  0.0404  0.4291
  341MOL0     H44970   6.124   8.988   6.167 -1.5189 -2.4277  1.0040
  341MOL0     H44971   6.300   9.019   6.166  1.4874 -0.3247  2.3750
  341MOL0     H44972   6.232   8.935   5.965  0.4747 -0.4638  0.3642
  341MOL0     H44973   6.192   8.771   6.035  1.7507 -1.4449  0.7469
  341MOL0     H44974   6.648   8.807   6.004  2.8252 -1.6620 -0.2098
  341MOL0     H44975   6.766   8.685   5.841  0.1818 -0.4578 -0.1211
  341MOL0     H44976   6.806   8.228   5.634  1.3719 -1.5706 -1.0270
  341MOL0     H44977   6.886   8.113   5.450 -2.6333  0.2662 -0.6939
  341MOL0     H44978   7.154   8.330   5.203 -1.3425  0.7476  0.7841
  341MOL0     H44979   7.050   8.339   5.063  2.7544  3.0605  1.3767
  341MOL0     H44980   7.108   8.097   5.010 -1.8972  0.2693  2.1263
  341MOL0     H44981   7.250   8.134   5.112  1.2013  2.9669  0.5117
  341MOL0     H44982   7.285   8.345   4.976  1.5964  0.5582 -1.7126
  341MOL0     H44983   7.166   8.273   4.859 -1.2249 -1.2266  0.8905
  341MOL0     H44984   7.438   8.164   4.940  2.0335  2.8302 -1.4076
  341MOL0     H44985   7.331   8.057   4.856 -1.8657  0.0246  1.4579
  341MOL0     H44986   7.389   8.341   4.763 -3.7722 -0.7069  1.3642
  341MOL0     H44987   7.337   8.215   4.663  0.4377 -0.6221 -0.1224
  341MOL0     H44988   7.553   8.082   4.696  0.2648 -0.0135 -1.0436
  341MOL0     H44989   7.620   8.218   4.785  0.6556 -1.3460  0.7374
  341MOL0     H44990   7.581   8.217   4.484  0.1460  1.7438 -1.3358
  341MOL0     H44991   7.547   8.363   4.569 -3.0785 -2.0135 -0.0015
  341MOL0     H44992   7.766   8.339   4.688 -0.3912 -0.8299  1.3287
  341MOL0     H44993   7.777   8.391   4.522 -1.8339  0.5904 -0.1962
  341MOL0     H44994   6.990   8.484   5.246 -2.0373 -1.1282 -2.0143
  341MOL0     H44995   6.883   8.604   5.459  1.7340  0.5971  2.5911
  341MOL0     H44996   6.403   8.507   5.704  0.8413  0.0508 -0.6736
  341MOL0     H44997   6.266   8.674   5.856 -0.5713 -0.5312  1.3645
  341MOL0     H44998   6.502   9.343   7.210  0.9000  0.5982 -1.0717
  341MOL0     H44999   6.630   9.536   7.223 -0.3091 -1.6360 -1.8394
  341MOL0     H45000   6.982   9.751   7.506 -1.4548 -0.5563 -0.7385
  341MOL0     H45001   7.141   9.911   7.400 -0.7551  1.1029  0.2418
  341MOL0     H45002   7.201  10.236   7.322  0.4782 -0.9189 -1.9190
  341MOL0     H45003   7.052  10.200   7.406  0.1520 -0.8432 -0.8962
  341MOL0     H45004   7.062  10.354   7.137  4.4117  0.0577  2.1228
  341MOL0     H45005   6.915  10.325   7.218  0.5997 -1.4282 -2.3711
  341MOL0     H45006   7.017  10.554   7.233 -2.5580 -1.0297  0.4802
  341MOL0     H45007   7.147  10.473   7.336  0.8550 -0.7131  0.3825
  341MOL0     H45008   6.855  10.513   7.402 -0.0422  0.0993  1.6411
  341MOL0     H45009   6.983  10.415   7.496  0.1096 -1.7913 -2.1335
  341MOL0     H45010   7.088  10.797   7.612  0.0467  1.2105 -1.7182
  341MOL0     H45011   6.822  10.095   7.183  1.3495  1.3157 -0.0541
  341MOL0     H45012   6.674   9.910   7.263  1.0383 -1.1768 -2.0419
  342MOL0     O45013   7.610   3.460   7.645 -0.0242 -0.6269  0.0992
  342MOL0     C45014   7.693   3.406   7.722  0.5019 -1.3943  0.0064
  342MOL0     O45015   7.660   3.323   7.820  0.0715  0.3354 -0.3816
  342MOL0     C45016   7.525   3.300   7.843 -1.0044  0.8974  0.2585
  342MOL0     C45017   7.442   3.242   7.744 -0.2036 -0.0060  0.2729
  342MOL0     C45018   7.311   3.219   7.767  0.7201 -0.1810 -0.5444
  342MOL0     C45019   7.248   3.242   7.889  0.1299  0.9752 -0.3949
  342MOL0     O45020   7.114   3.195   7.911  1.5123  0.4265  0.0643
  342MOL0     C45021   7.081   3.139   8.037  0.2985  0.7017 -0.8402
  342MOL0     C45022   7.017   3.234   8.138 -0.1125  0.9341  0.2267
  342MOL0     C45023   6.987   3.162   8.273  0.0330  0.2015  0.9919
  342MOL0     C45024   6.920   3.259   8.365  0.2795  0.9424 -0.3727
  342MOL0     C45025   6.938   3.225   8.513  0.4794 -0.7076 -0.4323
  342MOL0     C45026   6.888   3.079   8.548  0.1004  0.1226  0.0446
  342MOL0     C45027   6.913   3.056   8.696 -0.3361 -0.4150 -0.5290
  342MOL0     C45028   6.875   2.914   8.740  0.2367  0.8037  0.0476
  342MOL0     N45029   6.969   2.840   8.665 -0.9989 -0.5246  0.3378
  342MOL0     C45030   6.952   2.759   8.557 -1.0832  0.1095 -0.7636
  342MOL0     C45031   7.084   2.704   8.545  0.2153 -0.6647 -0.8026
  342MOL0     C45032   7.117   2.616   8.428 -0.0149 -0.9665 -0.2720
  342MOL0     C45033   7.086   2.467   8.473  0.1933 -0.6143 -0.3430
  342MOL0     C45034   7.206   2.394   8.534 -0.6785  0.4125  0.2054
  342MOL0     C45035   7.250   2.447   8.662 -0.3469  0.9400  1.1877
  342MOL0     O45036   7.154   2.472   8.767  0.2308  0.9645 -0.0676
  342MOL0     C45037   7.193   2.490   8.898  0.2748  1.0260 -0.2323
  342MOL0     C45038   7.095   2.484   8.999  0.2683 -0.5901 -1.2200
  342MOL0     C45039   7.133   2.471   9.131 -0.2034 -0.5172 -0.1572
  342MOL0     C45040   7.266   2.487   9.171 -0.2522 -0.1943  0.1893
  342MOL0     C45041   7.301   2.484   9.312  0.8555 -0.4188 -1.0005
  342MOL0     O45042   7.198   2.479   9.403 -0.5463  0.6650 -0.3114
  342MOL0     C45043   7.181   2.553   9.509 -0.7012  0.2882 -1.0879
  342MOL0     C45044   7.251   2.666   9.560  1.3093 -0.9137  0.0002
  342MOL0     C45045   7.202   2.734   9.668 -1.0477  1.2785  0.5899
  342MOL0     C45046   7.104   2.676   9.743 -0.8027 -0.4642  0.2108
  342MOL0     O45047   7.075   2.733   9.867 -0.1159 -0.9055  0.6859
  342MOL0     C45048   7.031   2.658   9.979 -0.6920  0.1940  0.5350
  342MOL0     C45049   6.984   2.762  10.087  1.0837  0.1062 -0.2660
  342MOL0     C45050   7.087   2.865  10.123  0.0590 -0.3377 -0.6970
  342MOL0     C45051   7.204   2.811  10.199  0.4382  0.1394  0.4464
  342MOL0     C45052   7.306   2.905  10.267 -0.6921 -0.8275  0.0400
  342MOL0     C45053   7.342   3.032  10.181  0.4004  1.5954 -0.0298
  342MOL0     C45054   7.455   3.112  10.230  0.2900  0.2384 -0.1527
  342MOL0     C45055   7.446   3.158  10.377 -0.3260  0.5837  0.2546
  342MOL0    Cl45056   7.322   3.290  10.388 -0.6989  0.0879 -0.5185
  342MOL0     C45057   7.044   2.551   9.707 -1.0649  0.1385  0.0884
  342MOL0     C45058   7.086   2.497   9.585 -0.4272  0.0798 -1.0347
  342MOL0     O45059   7.420   2.498   9.352  1.0394  0.0911  0.2411
  342MOL0     C45060   7.364   2.495   9.072  1.0097 -0.2941  0.5131
  342MOL0     C45061   7.327   2.505   8.936 -0.3734  0.3054  0.4150
  342MOL0     N45062   7.167   2.758   8.641  0.1685 -0.4258 -0.2189
  342MOL0     N45063   7.094   2.837   8.715 -0.0385 -0.5740  0.3343
  342MOL0     C45064   7.337   3.286   7.996  0.3353  0.4590  0.5185
  342MOL0     C45065   7.471   3.306   7.968  0.2056  0.8167 -0.8523
  342MOL0     C45066   7.844   3.430   7.699 -0.1502 -0.1517 -0.5406
  342MOL0     C45067   7.882   3.475   7.575  0.1081  0.8946  0.0335
  342MOL0     C45068   8.003   3.521   7.558  0.6993 -0.9699  0.5352
  342MOL0     C45069   8.098   3.528   7.653  0.4062 -0.5861 -0.6653
  342MOL0     O45070   8.225   3.566   7.627  0.0175  0.4641 -0.4192
  342MOL0     C45071   8.333   3.474   7.630  0.2874 -1.1292 -0.4031
  342MOL0     C45072   8.324   3.338   7.551  0.6548  0.3666 -0.4043
  342MOL0     C45073   8.297   3.353   7.395 -0.7678 -0.4351 -0.8282
  342MOL0     C45074   8.325   3.230   7.310  0.2791 -0.0409 -1.1745
  342MOL0     C45075   8.271   3.222   7.176  0.0734 -0.4011 -0.5409
  342MOL0     C45076   8.213   3.233   7.073  0.1375  0.8459 -0.9528
  342MOL0     C45077   8.069   3.469   7.775 -0.4780  0.0451  0.4134
  342MOL0     C45078   7.941   3.422   7.805  0.4716 -0.2943  0.1443
  342MOL0     H45079   7.492   3.208   7.655  1.9157 -1.8672  2.0443
  342MOL0     H45080   7.245   3.183   7.689 -0.4142 -0.2824  0.4355
  342MOL0     H45081   7.168   3.099   8.089 -1.2957 -1.1829  0.4860
  342MOL0     H45082   7.013   3.056   8.016 -0.9521  1.1862  1.0515
  342MOL0     H45083   6.928   3.270   8.086  0.1912 -0.3183 -1.2554
  342MOL0     H45084   7.083   3.317   8.162  2.5651 -0.6655 -1.0348
  342MOL0     H45085   7.077   3.118   8.316 -0.0777  0.9088  1.9784
  342MOL0     H45086   6.923   3.074   8.259  1.5000 -0.6357 -0.7901
  342MOL0     H45087   6.961   3.358   8.347 -2.9359  2.5587  0.4289
  342MOL0     H45088   6.812   3.267   8.347  0.1933 -0.8215 -0.8513
  342MOL0     H45089   6.893   3.310   8.564  0.5376  0.2537 -1.9362
  342MOL0     H45090   7.047   3.222   8.524  0.6777 -1.8516 -2.2119
  342MOL0     H45091   6.927   3.003   8.480 -0.7338 -0.2949  0.0294
  342MOL0     H45092   6.781   3.085   8.531  0.4766  0.7156 -2.6282
  342MOL0     H45093   7.017   3.080   8.721 -0.8617 -0.2328  1.7503
  342MOL0     H45094   6.853   3.123   8.758 -1.3084 -2.5823  0.9839
  342MOL0     H45095   6.771   2.889   8.719  1.0705 -1.1651 -2.1498
  342MOL0     H45096   6.888   2.889   8.846 -2.7259 -1.1803  0.0570
  342MOL0     H45097   6.866   2.742   8.493 -0.5226  1.5414 -1.9545
  342MOL0     H45098   7.224   2.626   8.405  1.3949  3.3693  5.6894
  342MOL0     H45099   7.056   2.643   8.341  0.5609  1.8206  0.0934
  342MOL0     H45100   7.074   2.402   8.386 -0.6924 -2.4044  1.0503
  342MOL0     H45101   6.993   2.464   8.530 -0.3236 -1.5447 -1.2035
  342MOL0     H45102   7.192   2.286   8.538  6.6176 -1.0511  1.1302
  342MOL0     H45103   7.292   2.410   8.468  0.6607  1.1680  2.0217
  342MOL0     H45104   7.303   2.542   8.656  0.8606  0.3150  1.5604
  342MOL0     H45105   7.312   2.365   8.699 -1.9321 -1.2192 -0.6407
  342MOL0     H45106   6.991   2.472   8.967 -0.4211  1.0114  0.2837
  342MOL0     H45107   7.046   2.465   9.195 -1.1861  3.2613 -0.8592
  342MOL0     H45108   7.326   2.711   9.496 -0.1668 -0.2842 -1.3479
  342MOL0     H45109   7.241   2.831   9.699  0.2300  1.7868 -2.2364
  342MOL0     H45110   7.099   2.581  10.015  1.2931  2.0229  0.8706
  342MOL0     H45111   6.938   2.608   9.948 -0.4670  2.5528 -5.2611
  342MOL0     H45112   6.963   2.706  10.179  2.3243 -2.8123 -1.6308
  342MOL0     H45113   6.893   2.815  10.058  1.7799  1.6046  0.1899
  342MOL0     H45114   7.051   2.943  10.191  0.7875 -0.7713  0.2077
  342MOL0     H45115   7.119   2.911  10.029  0.1704 -0.2091 -0.5968
  342MOL0     H45116   7.170   2.732  10.266  0.7608 -1.7826 -1.5155
  342MOL0     H45117   7.262   2.750  10.128 -0.2928 -1.5473  1.2577
  342MOL0     H45118   7.398   2.855  10.299 -0.3925  0.6331  1.5896
  342MOL0     H45119   7.264   2.941  10.362  2.1193  0.3591  0.9305
  342MOL0     H45120   7.253   3.094  10.174 -2.0018 -1.5350  0.7857
  342MOL0     H45121   7.374   2.981  10.089 -1.2746  1.7333 -0.7116
  342MOL0     H45122   7.542   3.047  10.215  0.2097  0.1324 -0.1637
  342MOL0     H45123   7.470   3.196  10.162  0.6911  1.3490  1.2764
  342MOL0     H45124   7.544   3.188  10.417 -0.5716  1.1073  0.4774
  342MOL0     H45125   7.404   3.079  10.440 -0.5326  1.1803  0.8837
  342MOL0     H45126   6.967   2.496   9.760  0.3251 -0.4787  1.5614
  342MOL0     H45127   7.031   2.406   9.562 -0.5959 -0.2145  0.4570
  342MOL0     H45128   7.470   2.502   9.095  1.1482 -2.0217  0.5530
  342MOL0     H45129   7.407   2.523   8.865 -1.3613 -3.0026 -1.8005
  342MOL0     H45130   7.301   3.298   8.098 -2.0815  1.0798 -0.3187
  342MOL0     H45131   7.531   3.328   8.056  2.0274 -0.8221 -1.6120
  342MOL0     H45132   7.814   3.485   7.490  1.9553 -0.5646 -1.7037
  342MOL0     H45133   8.033   3.535   7.455 -1.5527  2.2629  0.1913
  342MOL0     H45134   8.354   3.443   7.733 -2.6318  1.4693  1.1597
  342MOL0     H45135   8.420   3.522   7.585  0.7747 -0.0396  1.5801
  342MOL0     H45136   8.421   3.289   7.564  0.7087  0.9890  2.1793
  342MOL0     H45137   8.244   3.281   7.599  1.9459 -0.5100  0.7988
  342MOL0     H45138   8.352   3.437   7.351  0.2845 -0.3484  0.5640
  342MOL0     H45139   8.194   3.387   7.388 -1.6074 -2.7818 -0.6058
  342MOL0     H45140   8.432   3.207   7.301 -0.2007 -2.0655 -2.4071
  342MOL0     H45141   8.275   3.144   7.354  1.5060  0.1617  0.7228
  342MOL0     H45142   8.174   3.257   6.976  1.6134 -0.9840 -2.0600
  342MOL0     H45143   8.144   3.463   7.854 -1.7807 -0.4265  1.6674
  342MOL0     H45144   7.901   3.389   7.900 -3.3517  0.5097 -1.0088
  343MOL0     O45145  10.130   7.343   2.971  0.0495  0.7579 -0.1586
  343MOL0     C45146  10.182   7.252   3.025 -0.1102 -0.1965  0.5661
  343MOL0     O45147  10.312   7.244   3.058  0.3920 -0.0636  0.2060
  343MOL0     C45148  10.411   7.344   3.030 -0.4695 -0.3039 -0.7624
  343MOL0     C45149  10.542   7.305   3.064 -1.0286 -0.8776 -0.1725
  343MOL0     C45150  10.645   7.394   3.049 -0.8821 -0.1403 -1.2399
  343MOL0     C45151  10.620   7.524   3.010  0.8049 -0.5088  0.2838
  343MOL0     O45152  10.723   7.627   2.997 -0.4245  0.3241 -1.1411
  343MOL0     C45153  10.855   7.601   3.050 -1.2543 -0.6516 -0.3843
  343MOL0     C45154  10.946   7.534   2.948 -1.3184  0.0386  0.2749
  343MOL0     C45155  11.060   7.443   3.007 -1.3551 -0.2425  0.3267
  343MOL0     C45156  11.176   7.532   3.079  0.7216  0.7963 -0.0526
  343MOL0     C45157  11.313   7.471   3.081 -0.7589 -0.2848 -0.4549
  343MOL0     C45158  11.323   7.328   3.156 -0.0661 -0.0541  0.4672
  343MOL0     C45159  11.470   7.279   3.186  0.2462  0.4658  0.3719
  343MOL0     C45160  11.551   7.223   3.072 -0.0081  0.6137 -0.1340
  343MOL0     N45161  11.523   7.082   3.037 -0.3080  0.1678 -0.9076
  343MOL0     C45162  11.556   6.977   3.116  1.0843 -0.3364 -0.1750
  343MOL0     C45163  11.496   6.871   3.051  0.4111  0.5276  0.7753
  343MOL0     C45164  11.516   6.722   3.092 -1.1117 -0.4255  0.6304
  343MOL0     C45165  11.651   6.674   3.058  0.4350 -0.7179  0.0800
  343MOL0     C45166  11.686   6.540   3.130  0.1303 -0.2231 -0.8469
  343MOL0     C45167  11.593   6.423   3.125  0.7226 -0.1504 -0.5879
  343MOL0     O45168  11.591   6.333   3.236  0.5017 -0.7023  0.2137
  343MOL0     C45169  11.462   6.285   3.278  0.3378 -0.9255  0.0982
  343MOL0     C45170  11.387   6.192   3.203 -0.2623 -0.0468 -1.0538
  343MOL0     C45171  11.271   6.133   3.250  0.1413  0.1363  0.0308
  343MOL0     C45172  11.216   6.172   3.373 -0.5025 -0.1693  0.6935
  343MOL0     C45173  11.090   6.126   3.416  0.4281  0.6581  0.8942
  343MOL0     O45174  11.039   6.022   3.347  0.8330 -0.0188 -0.4642
  343MOL0     C45175  10.961   5.923   3.403  0.7718  0.1091  0.1006
  343MOL0     C45176  10.969   5.871   3.535  0.0527  0.4035  0.2734
  343MOL0     C45177  10.886   5.757   3.571  0.2266 -0.0844  0.1596
  343MOL0     C45178  10.796   5.710   3.475  1.1474  0.5362  0.7546
  343MOL0     O45179  10.713   5.604   3.499 -0.4486  0.0629  0.5397
  343MOL0     C45180  10.592   5.632   3.572 -0.2907 -0.0905 -0.2476
  343MOL0     C45181  10.534   5.511   3.635  0.2837  0.2841  0.8679
  343MOL0     C45182  10.397   5.552   3.692 -0.4178  0.3946 -0.6204
  343MOL0     C45183  10.423   5.634   3.818  0.8663  0.7031 -0.0142
  343MOL0     C45184  10.283   5.668   3.877  0.6873  0.5195  0.3416
  343MOL0     C45185  10.303   5.756   3.997  0.8877 -0.6845  0.1822
  343MOL0     C45186  10.165   5.803   4.058 -0.5103  1.0914 -0.8391
  343MOL0     C45187  10.080   5.889   3.964  0.0015 -0.6153 -0.3402
  343MOL0    Cl45188   9.962   5.973   4.076  0.0471  0.3121  0.2814
  343MOL0     C45189  10.779   5.761   3.348  0.1056  0.2549 -1.3414
  343MOL0     C45190  10.865   5.867   3.318 -0.1966  0.3775  0.3432
  343MOL0     O45191  11.039   6.178   3.515  0.1967 -0.5237  0.8605
  343MOL0     C45192  11.288   6.267   3.448  0.8707 -0.3306  0.8453
  343MOL0     C45193  11.421   6.317   3.413 -0.2085  0.6001  0.0110
  343MOL0     N45194  11.428   6.913   2.938  1.3046 -0.6845 -1.1364
  343MOL0     N45195  11.439   7.046   2.934  1.4444  0.7391 -0.3104
  343MOL0     C45196  10.495   7.573   2.974  0.2176  0.6390 -0.6423
  343MOL0     C45197  10.395   7.478   2.985 -1.1829  0.5918  0.1278
  343MOL0     C45198  10.100   7.146   3.075  0.3176 -1.1750  0.5435
  343MOL0     C45199  10.152   7.052   3.159 -0.8320 -0.2902  0.1892
  343MOL0     C45200  10.093   6.923   3.183 -0.3708  0.0570  0.5492
  343MOL0     C45201   9.953   6.916   3.148 -0.7469  0.9071 -0.0998
  343MOL0     O45202   9.892   6.794   3.179 -0.0720 -0.4243 -0.1814
  343MOL0     C45203   9.755   6.770   3.147  0.2627 -0.4557  1.0222
  343MOL0     C45204   9.739   6.703   3.009 -0.6325 -0.1691  0.8105
  343MOL0     C45205   9.859   6.606   2.989 -0.0189 -0.1135  0.2145
  343MOL0     C45206   9.854   6.515   2.875 -0.4909 -0.3895 -1.6482
  343MOL0     C45207   9.760   6.407   2.901 -0.7825 -0.4807  0.4195
  343MOL0     C45208   9.673   6.328   2.909  0.3846  0.3392 -0.2899
  343MOL0     C45209   9.895   7.015   3.073 -0.0416 -0.2024 -1.1945
  343MOL0     C45210   9.966   7.127   3.034 -0.1866 -0.7976  0.0515
  343MOL0     H45211  10.544   7.205   3.107 -2.2661 -0.5462  0.7132
  343MOL0     H45212  10.746   7.356   3.052 -0.5588  0.6795 -1.4662
  343MOL0     H45213  10.838   7.532   3.133  1.5902 -0.1957  0.6867
  343MOL0     H45214  10.914   7.683   3.091  2.6557 -3.1238 -0.4911
  343MOL0     H45215  11.000   7.614   2.896  0.9768 -1.9922 -0.6696
  343MOL0     H45216  10.893   7.466   2.880 -0.2609  1.0100 -1.6240
  343MOL0     H45217  11.104   7.393   2.921  0.2945 -1.6735  1.9275
  343MOL0     H45218  11.022   7.368   3.076 -0.2590 -0.7829  0.3590
  343MOL0     H45219  11.182   7.630   3.032  1.5502 -0.5663 -3.0645
  343MOL0     H45220  11.142   7.563   3.178  0.7046  0.2570  0.1137
  343MOL0     H45221  11.376   7.537   3.142 -1.2884 -0.2513  0.0519
  343MOL0     H45222  11.346   7.467   2.976  1.1451 -0.1610  0.1015
  343MOL0     H45223  11.268   7.258   3.092  1.0031  0.9019 -1.5780
  343MOL0     H45224  11.281   7.346   3.255  0.3353 -0.6290  0.7499
  343MOL0     H45225  11.524   7.369   3.216  1.5099 -0.7924  2.0511
  343MOL0     H45226  11.459   7.207   3.268  2.9482 -0.3472  0.1126
  343MOL0     H45227  11.657   7.236   3.092 -0.4734  1.4604  1.9744
  343MOL0     H45228  11.521   7.283   2.985 -2.6063 -2.8971 -1.9411
  343MOL0     H45229  11.628   6.968   3.196  0.7616 -1.6587 -0.0031
  343MOL0     H45230  11.458   6.662   3.020 -0.1261 -0.2955 -0.2946
  343MOL0     H45231  11.488   6.700   3.195 -0.3038 -1.2411  0.6782
  343MOL0     H45232  11.718   6.754   3.091 -0.7581 -0.2602  1.4504
  343MOL0     H45233  11.660   6.653   2.951  1.1481  1.2396 -0.2811
  343MOL0     H45234  11.787   6.510   3.099  0.5816  1.3752 -1.0149
  343MOL0     H45235  11.709   6.580   3.230 -0.9453  0.0824 -0.7136
  343MOL0     H45236  11.635   6.375   3.036  1.3177  1.3610 -1.1657
  343MOL0     H45237  11.491   6.453   3.099 -0.4039 -1.8805  1.5435
  343MOL0     H45238  11.407   6.184   3.096  0.6255 -0.8048 -0.8385
  343MOL0     H45239  11.209   6.077   3.181  0.1822 -0.3009  0.3421
  343MOL0     H45240  11.043   5.900   3.608 -1.9830  2.5417  1.6354
  343MOL0     H45241  10.879   5.710   3.669  0.4732  1.0646  0.7517
  343MOL0     H45242  10.526   5.678   3.498 -0.6831 -1.8971 -1.0590
  343MOL0     H45243  10.613   5.706   3.651 -0.1072  1.5213 -1.7285
  343MOL0     H45244  10.605   5.472   3.708  0.8373 -3.6920 -1.5238
  343MOL0     H45245  10.521   5.435   3.558 -2.9864  1.2054  0.3695
  343MOL0     H45246  10.341   5.459   3.707 -1.7640  0.3355 -4.7346
  343MOL0     H45247  10.346   5.617   3.620 -0.9477  0.7233  0.0378
  343MOL0     H45248  10.478   5.573   3.890  1.1427  1.7338  0.6636
  343MOL0     H45249  10.471   5.731   3.809 -1.6607  2.0286 -0.0186
  343MOL0     H45250  10.224   5.583   3.910  0.8378 -0.0705 -0.8604
  343MOL0     H45251  10.250   5.733   3.795  4.7588 -0.8431 -2.7414
  343MOL0     H45252  10.356   5.846   3.965 -1.4487  1.7890  2.8178
  343MOL0     H45253  10.364   5.716   4.079 -1.7463 -1.0083  2.1184
  343MOL0     H45254  10.109   5.711   4.080  1.7130  0.5367  3.7566
  343MOL0     H45255  10.197   5.859   4.146 -2.3062  0.0668  0.5421
  343MOL0     H45256  10.028   5.838   3.882  0.7289 -2.7892  0.4793
  343MOL0     H45257  10.150   5.960   3.919 -0.3727 -0.5632 -0.8511
  343MOL0     H45258  10.716   5.712   3.275  1.0101  0.8966 -2.5989
  343MOL0     H45259  10.874   5.886   3.211  0.6007 -1.7838 -0.0263
  343MOL0     H45260  11.250   6.312   3.540  1.8704  0.6025  0.8293
  343MOL0     H45261  11.489   6.373   3.476  4.1627 -2.5722 -1.3926
  343MOL0     H45262  10.484   7.679   2.953  1.0967  1.2937  1.8387
  343MOL0     H45263  10.295   7.508   2.953 -0.8390  1.4277 -0.1883
  343MOL0     H45264  10.249   7.059   3.207  1.2767  1.2259 -3.8106
  343MOL0     H45265  10.143   6.841   3.234  6.2093  0.8291 -3.5273
  343MOL0     H45266   9.694   6.860   3.138 -1.7054 -1.9133 -3.3494
  343MOL0     H45267   9.702   6.705   3.217  0.7210 -2.3029 -0.2456
  343MOL0     H45268   9.640   6.657   3.007 -0.7569  0.1182  0.1853
  343MOL0     H45269   9.737   6.777   2.929 -1.5548  0.8055  1.7039
  343MOL0     H45270   9.875   6.544   3.078 -1.0775 -0.3801  0.2348
  343MOL0     H45271   9.952   6.663   2.977  0.2132 -0.2135  1.4040
  343MOL0     H45272   9.835   6.566   2.780  3.1143  4.1622 -0.3066
  343MOL0     H45273   9.956   6.476   2.874  0.6368  2.3354 -1.0668
  343MOL0     H45274   9.597   6.252   2.903 -1.9481  2.3734  1.4817
  343MOL0     H45275   9.797   6.994   3.032 -0.4688 -0.3249 -0.1660
  343MOL0     H45276   9.932   7.190   2.953  3.1137 -2.0918 -2.6089
  344MOL0     O45277   2.962   1.582   3.814 -0.2476 -0.9377  0.5395
  344MOL0     C45278   3.004   1.698   3.837 -0.1133  0.0798 -0.1477
  344MOL0     O45279   3.024   1.796   3.753 -0.3864 -0.0564  0.2368
  344MOL0     C45280   3.023   1.749   3.617 -0.3101 -0.7394 -1.0527
  344MOL0     C45281   3.145   1.747   3.545 -0.0991 -0.8635  0.3601
  344MOL0     C45282   3.145   1.701   3.412  0.0289 -0.5923 -0.8695
  344MOL0     C45283   3.025   1.669   3.344  0.3064 -0.6005  0.6340
  344MOL0     O45284   3.011   1.631   3.217 -0.4681 -0.3309 -0.2486
  344MOL0     C45285   3.132   1.581   3.154 -0.8139 -0.6415  0.0625
  344MOL0     C45286   3.095   1.533   3.017 -1.0469  0.3824  0.8380
  344MOL0     C45287   3.032   1.640   2.919  0.1625  0.6897 -0.0085
  344MOL0     C45288   3.001   1.571   2.788  0.2643  1.4797  0.1775
  344MOL0     C45289   3.016   1.674   2.673 -0.2740  0.5245  0.3835
  344MOL0     C45290   2.940   1.632   2.546  0.0662  0.4008 -0.3697
  344MOL0     C45291   2.973   1.732   2.433  0.0533  0.4213 -0.5526
  344MOL0     C45292   2.910   1.682   2.305  0.0008  0.3531 -0.5977
  344MOL0     N45293   2.991   1.565   2.255 -0.8057 -0.2473 -0.1002
  344MOL0     C45294   3.114   1.574   2.192  0.0487  0.4975 -0.2997
  344MOL0     C45295   3.146   1.441   2.172  0.6105  0.6791  0.5336
  344MOL0     C45296   3.259   1.382   2.094 -0.6469  0.0599  0.4014
  344MOL0     C45297   3.395   1.399   2.169  0.4717  0.7269 -1.1680
  344MOL0     C45298   3.409   1.300   2.283 -0.3234  0.5846  0.4341
  344MOL0     C45299   3.358   1.356   2.409  0.1441  0.0461 -1.2392
  344MOL0     O45300   3.412   1.491   2.434  0.1515  0.0922  0.5306
  344MOL0     C45301   3.418   1.555   2.557  0.0035  0.4358 -0.4251
  344MOL0     C45302   3.379   1.681   2.575 -0.1243  0.0900 -0.2941
  344MOL0     C45303   3.392   1.742   2.695 -0.4548 -0.3587  0.1577
  344MOL0     C45304   3.426   1.676   2.811 -0.6403 -0.1339 -0.3051
  344MOL0     C45305   3.400   1.734   2.946 -1.2055 -0.1044 -0.1510
  344MOL0     O45306   3.314   1.846   2.957 -0.9254  0.8488 -0.4194
  344MOL0     C45307   3.297   1.903   3.086  0.0021 -0.1029  0.8245
  344MOL0     C45308   3.394   1.920   3.180 -0.2805 -0.0413  0.9175
  344MOL0     C45309   3.377   2.003   3.294  1.0015  0.1039  0.6151
  344MOL0     C45310   3.258   2.061   3.313  0.2771  0.1261 -0.3319
  344MOL0     O45311   3.247   2.123   3.440  0.4524 -1.2290 -0.3996
  344MOL0     C45312   3.123   2.185   3.479 -0.5612 -0.1076 -0.0627
  344MOL0     C45313   3.052   2.088   3.566 -0.0442 -0.7533  0.3743
  344MOL0     C45314   2.938   2.173   3.625 -0.1032  0.7024  0.4139
  344MOL0     C45315   2.889   2.090   3.743  1.3836  0.1486 -0.2430
  344MOL0     C45316   2.791   2.174   3.829 -0.3386  0.0416  0.2645
  344MOL0     C45317   2.736   2.102   3.952 -0.1330 -0.9214 -0.4361
  344MOL0     C45318   2.635   1.979   3.921 -0.3031 -0.4757 -0.4939
  344MOL0     C45319   2.494   2.025   3.867  0.0950 -0.6221 -0.0172
  344MOL0    Cl45320   2.415   1.872   3.833  0.2022 -0.0041 -0.5779
  344MOL0     C45321   3.151   2.034   3.235  0.5373  0.5191  0.0729
  344MOL0     C45322   3.172   1.956   3.118 -0.6483  0.5126 -0.6352
  344MOL0     O45323   3.454   1.676   3.041  0.1702 -0.6169  0.1015
  344MOL0     C45324   3.467   1.545   2.797 -1.1555 -0.0193  0.3177
  344MOL0     C45325   3.461   1.478   2.665  0.4042 -0.3848 -0.9195
  344MOL0     N45326   3.054   1.351   2.231  0.1897 -0.3665  0.1892
  344MOL0     N45327   2.957   1.432   2.276 -0.7723  0.2399 -0.6984
  344MOL0     C45328   2.908   1.676   3.414 -0.1870 -1.7074 -1.6668
  344MOL0     C45329   2.901   1.709   3.554  0.4260 -0.3827 -0.1027
  344MOL0     C45330   3.010   1.733   3.983 -0.3245 -0.3252 -0.0613
  344MOL0     C45331   3.054   1.854   4.034  0.3330  1.0338  1.0102
  344MOL0     C45332   3.065   1.887   4.170 -1.6525 -0.6953  0.2590
  344MOL0     C45333   3.005   1.806   4.264 -0.4361  0.4239  0.0035
  344MOL0     O45334   3.001   1.861   4.394  0.5928  1.4162 -0.6783
  344MOL0     C45335   2.911   1.788   4.486  0.5665  0.4516 -1.1296
  344MOL0     C45336   2.759   1.835   4.462  0.0496  1.0234 -0.1131
  344MOL0     C45337   2.746   1.995   4.480 -0.0058  1.1688  1.3788
  344MOL0     C45338   2.615   2.034   4.541  0.3812  0.4146 -0.3318
  344MOL0     C45339   2.503   1.955   4.491  0.3008  1.0508 -0.1044
  344MOL0     C45340   2.421   1.873   4.457 -0.0510  0.1596 -0.8091
  344MOL0     C45341   2.956   1.687   4.218 -0.4796  0.6746  0.7940
  344MOL0     C45342   2.954   1.645   4.086  0.8100  0.2728  0.9380
  344MOL0     H45343   3.239   1.776   3.591 -0.0314 -0.9379  0.2697
  344MOL0     H45344   3.238   1.697   3.356  0.5781  0.0323 -0.0244
  344MOL0     H45345   3.165   1.491   3.205 -1.0123 -0.9349 -0.3200
  344MOL0     H45346   3.214   1.653   3.151 -2.0986  0.8527 -1.1107
  344MOL0     H45347   3.026   1.448   3.026  0.9488 -1.5573 -1.0399
  344MOL0     H45348   3.181   1.484   2.970 -2.0199 -0.2885 -0.2787
  344MOL0     H45349   3.105   1.720   2.902  0.9232  0.7547  2.8992
  344MOL0     H45350   2.939   1.679   2.963  0.5088 -0.8982  2.3043
  344MOL0     H45351   3.058   1.484   2.755 -1.0001  1.4398 -2.1144
  344MOL0     H45352   2.897   1.537   2.792  1.4496 -2.6504  0.4095
  344MOL0     H45353   3.125   1.682   2.666 -0.4467  2.7676 -0.4780
  344MOL0     H45354   2.997   1.778   2.700 -0.5624  0.2953  1.0915
  344MOL0     H45355   2.832   1.623   2.556  0.0905 -2.3437 -1.6126
  344MOL0     H45356   2.974   1.533   2.515  2.5396 -0.2839  3.7379
  344MOL0     H45357   2.938   1.835   2.443 -1.2060  0.1695 -2.0385
  344MOL0     H45358   3.082   1.741   2.431  0.0425  0.8658  0.1853
  344MOL0     H45359   2.895   1.765   2.235  0.3670  1.5361  0.6735
  344MOL0     H45360   2.808   1.645   2.314  0.4334 -1.2893 -1.9631
  344MOL0     H45361   3.170   1.662   2.163  0.4390  0.1641 -0.5694
  344MOL0     H45362   3.263   1.432   1.996 -1.4239  2.3818  1.4750
  344MOL0     H45363   3.253   1.274   2.077  0.7747 -0.4983  2.9427
  344MOL0     H45364   3.421   1.500   2.203 -1.4419  0.2927  1.9411
  344MOL0     H45365   3.466   1.370   2.091 -0.6979 -1.1848 -1.5846
  344MOL0     H45366   3.376   1.199   2.257  1.1277  0.5867 -1.7270
  344MOL0     H45367   3.516   1.282   2.287 -0.2840  1.0744  2.9175
  344MOL0     H45368   3.385   1.289   2.491  0.7012 -0.7634 -2.0537
  344MOL0     H45369   3.250   1.366   2.410  0.2127  1.5932  1.4387
  344MOL0     H45370   3.335   1.733   2.491 -3.4062  2.5805  2.6812
  344MOL0     H45371   3.372   1.848   2.711  2.0664 -0.2247  3.4335
  344MOL0     H45372   3.491   1.871   3.172 -0.5736 -0.9907  2.7099
  344MOL0     H45373   3.462   2.023   3.359  0.1485 -1.3403  2.2424
  344MOL0     H45374   3.063   2.221   3.395  0.6392  2.9860  0.2537
  344MOL0     H45375   3.154   2.269   3.542  2.3362 -0.7083 -0.5413
  344MOL0     H45376   3.123   2.047   3.639 -3.6035 -4.1320  2.3301
  344MOL0     H45377   3.016   2.006   3.503  2.7311 -2.6588  1.0741
  344MOL0     H45378   2.864   2.172   3.545  1.3563  2.6506 -1.0759
  344MOL0     H45379   2.967   2.276   3.647  2.6545 -0.4412  2.7648
  344MOL0     H45380   2.839   2.004   3.697 -4.2908  2.9130 -0.1323
  344MOL0     H45381   2.966   2.051   3.810  0.4914 -3.1285 -0.9536
  344MOL0     H45382   2.712   2.208   3.762 -0.1722  2.1731  1.0806
  344MOL0     H45383   2.845   2.262   3.865  3.1766 -1.6652 -0.3816
  344MOL0     H45384   2.682   2.180   4.007 -2.3168 -0.6841 -2.7294
  344MOL0     H45385   2.805   2.060   4.025 -2.4725 -1.4286  1.6259
  344MOL0     H45386   2.678   1.920   3.840  0.6709  0.3290 -0.5698
  344MOL0     H45387   2.627   1.911   4.007  0.0928 -0.5576 -0.5195
  344MOL0     H45388   2.499   2.094   3.783  2.3306 -1.4387 -0.6476
  344MOL0     H45389   2.440   2.083   3.942  1.0201  0.1666  0.0609
  344MOL0     H45390   3.050   2.070   3.254 -0.4639 -2.5630  1.2154
  344MOL0     H45391   3.092   1.943   3.047 -2.0344  0.1058  0.9281
  344MOL0     H45392   3.525   1.498   2.876  2.1700  1.3466 -1.1355
  344MOL0     H45393   3.506   1.380   2.657  0.1298 -1.3912  5.4324
  344MOL0     H45394   2.811   1.668   3.367  0.5257 -2.2432 -3.1093
  344MOL0     H45395   2.809   1.739   3.604  2.2714  1.5747  2.3861
  344MOL0     H45396   3.086   1.929   3.962  4.0692 -1.5809 -0.3436
  344MOL0     H45397   3.102   1.986   4.196  2.2715 -1.9586  0.1983
  344MOL0     H45398   2.933   1.791   4.593 -0.9072 -0.8188 -0.7504
  344MOL0     H45399   2.914   1.679   4.470  0.0504  0.7526 -3.6457
  344MOL0     H45400   2.718   1.808   4.364 -1.8215  1.8084  0.4157
  344MOL0     H45401   2.702   1.783   4.539  0.9799  0.3657  0.1481
  344MOL0     H45402   2.752   2.047   4.384 -2.4120  1.7489  1.4723
  344MOL0     H45403   2.811   2.031   4.561 -0.7944 -1.5313  3.3455
  344MOL0     H45404   2.619   1.993   4.642  1.5643 -1.0387 -0.9311
  344MOL0     H45405   2.592   2.141   4.542  0.2210  0.3973 -1.0955
  344MOL0     H45406   2.347   1.797   4.440 -0.3759 -0.7747  3.4746
  344MOL0     H45407   2.918   1.613   4.288 -0.7575 -0.4003 -0.4685
  344MOL0     H45408   2.929   1.543   4.058  1.6772 -0.0561  1.2938
  345MOL0     O45409   6.076   2.737   3.551 -0.1975 -0.5583  0.1897
  345MOL0     C45410   6.001   2.670   3.617 -0.8306  0.5689  0.5738
  345MOL0     O45411   6.011   2.652   3.757 -0.2702  0.0989 -0.8914
  345MOL0     C45412   6.100   2.717   3.840  0.7245 -1.1938  1.0278
  345MOL0     C45413   6.096   2.659   3.958 -0.4556  0.5365 -0.7214
  345MOL0     C45414   6.153   2.717   4.077  0.5396  0.4558 -0.1843
  345MOL0     C45415   6.233   2.836   4.061  0.9296  0.1666  0.1597
  345MOL0     O45416   6.286   2.906   4.166 -0.0715 -0.4758 -0.5297
  345MOL0     C45417   6.265   2.862   4.299  0.4461  0.2380 -1.0404
  345MOL0     C45418   6.321   2.722   4.346 -0.6491 -0.6785  0.3954
  345MOL0     C45419   6.290   2.709   4.491  0.3392  1.1605 -1.0946
  345MOL0     C45420   6.312   2.569   4.534  0.2515 -0.5625 -0.6021
  345MOL0     C45421   6.462   2.543   4.550 -1.4808 -0.3394  0.5270
  345MOL0     C45422   6.483   2.423   4.642  0.3301  0.3528  0.6148
  345MOL0     C45423   6.456   2.290   4.563  0.3345  0.0619  1.4012
  345MOL0     C45424   6.462   2.184   4.672 -0.8299  0.0436  0.4260
  345MOL0     N45425   6.597   2.150   4.689  0.2231 -0.2762 -0.8690
  345MOL0     C45426   6.658   2.060   4.606  0.2161  0.5022 -0.9772
  345MOL0     C45427   6.790   2.053   4.639 -0.2763 -0.0423  0.4456
  345MOL0     C45428   6.887   1.975   4.566 -0.2968 -0.2739  0.2476
  345MOL0     C45429   7.001   1.923   4.652  0.6449 -0.1643 -0.3297
  345MOL0     C45430   7.105   1.847   4.572  0.2952 -0.4073  0.0671
  345MOL0     C45431   7.220   1.799   4.655 -0.4247 -0.3758  0.2605
  345MOL0     O45432   7.316   1.749   4.568 -0.0099  0.4815  0.4205
  345MOL0     C45433   7.421   1.695   4.630  0.3084  0.4585 -0.2597
  345MOL0     C45434   7.553   1.736   4.602 -0.0065 -0.2257 -0.0028
  345MOL0     C45435   7.675   1.688   4.663 -0.2878  0.4676  0.2264
  345MOL0     C45436   7.663   1.573   4.743  0.7463 -0.9175 -0.4014
  345MOL0     C45437   7.785   1.516   4.805 -0.6102 -0.1057  0.6232
  345MOL0     O45438   7.902   1.578   4.772  0.8602 -0.3418  0.3883
  345MOL0     C45439   8.027   1.550   4.827 -0.4802 -0.2935 -0.1225
  345MOL0     C45440   8.125   1.646   4.817 -0.1986 -1.1711 -0.2597
  345MOL0     C45441   8.255   1.629   4.849 -0.0210 -0.6670  0.4214
  345MOL0     C45442   8.302   1.520   4.914 -0.4622  0.5290 -0.3542
  345MOL0     O45443   8.426   1.529   4.971  0.1910  0.8795 -0.2396
  345MOL0     C45444   8.466   1.429   5.065  0.1338  0.6270 -0.2391
  345MOL0     C45445   8.569   1.502   5.155  0.2573 -1.1306 -0.3388
  345MOL0     C45446   8.691   1.558   5.074 -0.6396 -0.0169  0.1452
  345MOL0     C45447   8.800   1.607   5.170 -0.6835  0.2614 -0.5344
  345MOL0     C45448   8.807   1.758   5.200  0.6126  1.2291  0.5995
  345MOL0     C45449   8.950   1.794   5.251 -0.5535 -0.8004  0.4443
  345MOL0     C45450   9.041   1.816   5.132  1.1875  0.4161  0.5899
  345MOL0     C45451   8.986   1.917   5.027  0.1598 -0.9028 -0.6141
  345MOL0    Cl45452   8.889   2.050   5.099  0.3087  0.0355 -0.6127
  345MOL0     C45453   8.211   1.416   4.934  0.8246  0.8489  0.6972
  345MOL0     C45454   8.073   1.432   4.893 -0.3501 -0.2505 -0.6910
  345MOL0     O45455   7.768   1.420   4.878  0.3702  0.3089  0.2301
  345MOL0     C45456   7.534   1.517   4.764 -0.0735  0.4408  0.0257
  345MOL0     C45457   7.409   1.582   4.721 -0.5286 -0.3521  0.5326
  345MOL0     N45458   6.798   2.134   4.754  0.0945  0.3653 -0.3849
  345MOL0     N45459   6.683   2.186   4.785 -0.3290  0.3091  0.6314
  345MOL0     C45460   6.244   2.883   3.930 -0.0168 -0.1878 -1.3911
  345MOL0     C45461   6.172   2.834   3.815  0.0681 -2.0185  0.0325
  345MOL0     C45462   5.895   2.591   3.546  0.4571 -1.4201 -0.4478
  345MOL0     C45463   5.914   2.539   3.418  0.3990 -0.4305  0.5435
  345MOL0     C45464   5.806   2.471   3.359  0.5497  0.6338  0.3172
  345MOL0     C45465   5.685   2.447   3.423  0.2224 -0.3715 -0.2701
  345MOL0     O45466   5.579   2.367   3.383  0.0116  0.5789  1.0235
  345MOL0     C45467   5.605   2.221   3.403  0.2690 -0.3951 -0.9592
  345MOL0     C45468   5.623   2.137   3.270  0.8424 -0.2600 -0.2435
  345MOL0     C45469   5.535   2.207   3.157  0.4276 -0.0664 -0.6761
  345MOL0     C45470   5.511   2.120   3.036 -0.8844 -0.2276 -0.9936
  345MOL0     C45471   5.441   1.997   3.078  0.5479 -0.2875 -0.3216
  345MOL0     C45472   5.370   1.894   3.102 -0.5443 -0.5161 -0.3744
  345MOL0     C45473   5.672   2.483   3.560 -0.9571  0.2021  0.0288
  345MOL0     C45474   5.769   2.572   3.613  0.2683  0.4694  0.2845
  345MOL0     H45475   6.053   2.561   3.976  1.7529 -0.5924 -1.1388
  345MOL0     H45476   6.134   2.671   4.173 -0.2422  1.8664  0.3568
  345MOL0     H45477   6.157   2.869   4.313  0.4327  3.8633 -1.8284
  345MOL0     H45478   6.315   2.932   4.366  0.0069 -1.8874  1.6530
  345MOL0     H45479   6.430   2.735   4.339 -0.7423  0.0869  0.2658
  345MOL0     H45480   6.291   2.632   4.291  1.3131  0.1733 -2.3262
  345MOL0     H45481   6.186   2.733   4.511 -1.0765 -4.1746 -0.4305
  345MOL0     H45482   6.348   2.779   4.552 -0.2426  1.6383 -1.0880
  345MOL0     H45483   6.259   2.548   4.627 -0.1633 -3.2858 -1.3713
  345MOL0     H45484   6.284   2.510   4.447  2.1649  0.7362 -2.1909
  345MOL0     H45485   6.509   2.630   4.596  0.8336 -1.6249  0.7184
  345MOL0     H45486   6.500   2.527   4.448 -3.0107  0.3605 -0.1862
  345MOL0     H45487   6.426   2.428   4.735  1.0270 -2.5968  1.3178
  345MOL0     H45488   6.588   2.418   4.673  0.3117 -0.5884  0.5660
  345MOL0     H45489   6.354   2.302   4.526 -0.0857 -0.1303  2.4587
  345MOL0     H45490   6.524   2.273   4.479 -1.1219 -1.8087  0.5390
  345MOL0     H45491   6.415   2.089   4.645  1.1587 -1.1600  0.9808
  345MOL0     H45492   6.412   2.222   4.762 -1.5875  2.5389 -0.9577
  345MOL0     H45493   6.611   1.996   4.532 -2.2216 -0.0624  0.9456
  345MOL0     H45494   6.940   2.044   4.500  3.0328 -0.2470  2.7128
  345MOL0     H45495   6.831   1.899   4.510 -1.1997  2.1085 -2.2712
  345MOL0     H45496   6.955   1.860   4.729 -1.2904  0.4535 -0.9174
  345MOL0     H45497   7.049   2.008   4.702 -0.2778  1.3579 -1.9251
  345MOL0     H45498   7.060   1.758   4.526 -1.1472  0.0406  0.5539
  345MOL0     H45499   7.146   1.918   4.500  0.4941 -1.9893 -1.4408
  345MOL0     H45500   7.190   1.720   4.725  1.4513  0.6875  2.3901
  345MOL0     H45501   7.271   1.879   4.709 -3.8840  3.4254 -1.5704
  345MOL0     H45502   7.551   1.832   4.552 -2.3843  0.5317  1.3952
  345MOL0     H45503   7.762   1.727   4.612 -1.3224  0.1573 -1.8886
  345MOL0     H45504   8.117   1.737   4.758 -2.7132 -0.3242  1.2249
  345MOL0     H45505   8.334   1.703   4.838 -1.4184  0.8807  0.4404
  345MOL0     H45506   8.508   1.342   5.016 -3.4288 -1.4291 -0.0204
  345MOL0     H45507   8.377   1.404   5.124  0.8555 -0.4636  0.4021
  345MOL0     H45508   8.608   1.426   5.224 -0.5074 -1.8636 -0.6834
  345MOL0     H45509   8.505   1.581   5.195  2.3310  1.5377 -1.9257
  345MOL0     H45510   8.660   1.639   5.008  1.7924  2.3696  1.7266
  345MOL0     H45511   8.742   1.481   5.015 -0.4576  1.9759 -2.4925
  345MOL0     H45512   8.812   1.550   5.263  2.5167 -1.0051 -1.5692
  345MOL0     H45513   8.889   1.578   5.114  0.3619  1.0395  0.6687
  345MOL0     H45514   8.742   1.780   5.285 -1.1122  0.4159 -0.4491
  345MOL0     H45515   8.772   1.801   5.106 -0.2972 -1.3932 -0.3733
  345MOL0     H45516   8.990   1.718   5.319  0.6425  1.2666  2.1854
  345MOL0     H45517   8.942   1.894   5.295 -1.5783 -0.0002 -1.4726
  345MOL0     H45518   9.130   1.866   5.169  0.5275  0.9203  1.5367
  345MOL0     H45519   9.071   1.721   5.086 -0.2444  0.6186 -0.8892
  345MOL0     H45520   8.913   1.863   4.966  2.3752 -3.9337 -0.8252
  345MOL0     H45521   9.068   1.955   4.966 -0.4223  1.7665  0.1173
  345MOL0     H45522   8.245   1.323   4.977  2.8123  1.4951  0.5996
  345MOL0     H45523   8.011   1.343   4.895 -2.2042  0.9595  1.6372
  345MOL0     H45524   7.528   1.420   4.811 -1.3574 -0.6074 -2.1193
  345MOL0     H45525   7.312   1.536   4.734  0.0005 -1.0284  2.3573
  345MOL0     H45526   6.314   2.965   3.918  0.1639  0.1887  1.4160
  345MOL0     H45527   6.167   2.893   3.724  1.5792  0.1510  1.2872
  345MOL0     H45528   6.001   2.555   3.354 -1.5831  1.6416 -1.8691
  345MOL0     H45529   5.818   2.441   3.256  3.0898 -0.7555  0.9449
  345MOL0     H45530   5.516   2.183   3.454 -0.2163  3.1808  1.2238
  345MOL0     H45531   5.693   2.206   3.466 -1.3958 -0.9902  1.3690
  345MOL0     H45532   5.729   2.147   3.247  0.4856  1.6562 -1.2857
  345MOL0     H45533   5.589   2.036   3.295  1.5684 -0.6496 -0.8185
  345MOL0     H45534   5.585   2.296   3.118 -0.7480  1.7312  1.6870
  345MOL0     H45535   5.435   2.230   3.195  0.4954  1.6489 -1.4434
  345MOL0     H45536   5.455   2.175   2.960 -1.4636  1.5745  0.6310
  345MOL0     H45537   5.605   2.092   2.989  0.1233  0.5072  0.4858
  345MOL0     H45538   5.327   1.803   3.138 -2.4713  0.0676 -1.0706
  345MOL0     H45539   5.582   2.448   3.610  0.4161  3.0145  5.2372
  345MOL0     H45540   5.751   2.607   3.714 -2.6296  4.1846 -1.2338
  346MOL0     O45541   3.224   6.118   7.936  0.1317  0.0831 -0.1864
  346MOL0     C45542   3.304   6.165   7.855  0.2281  0.0252  0.2543
  346MOL0     O45543   3.294   6.274   7.784 -0.1575 -0.1588 -0.4770
  346MOL0     C45544   3.207   6.365   7.815 -0.0553 -0.0349 -0.1023
  346MOL0     C45545   3.208   6.461   7.916  0.5635 -0.6971 -1.1219
  346MOL0     C45546   3.109   6.568   7.917 -0.1416 -0.1488 -0.1201
  346MOL0     C45547   3.012   6.582   7.819 -0.1513  0.2607 -0.3542
  346MOL0     O45548   2.931   6.687   7.819  0.3799  0.2775 -0.2291
  346MOL0     C45549   2.829   6.695   7.920 -0.0505  0.6079 -0.8058
  346MOL0     C45550   2.793   6.839   7.953  0.2474 -0.0404  0.0015
  346MOL0     C45551   2.669   6.850   8.037 -0.2279  0.2361 -0.7143
  346MOL0     C45552   2.605   6.987   8.049  0.7116 -0.5317 -0.0109
  346MOL0     C45553   2.532   6.997   8.183 -0.5016  0.4716  0.2183
  346MOL0     C45554   2.458   7.129   8.205 -0.0884 -0.3302  0.1270
  346MOL0     C45555   2.357   7.123   8.316 -0.0676 -0.7243 -0.0759
  346MOL0     C45556   2.271   7.249   8.323  0.2788 -0.0008  0.8328
  346MOL0     N45557   2.364   7.361   8.335  0.8616 -0.5840 -0.0500
  346MOL0     C45558   2.395   7.455   8.242 -0.8768  0.1783  0.6254
  346MOL0     C45559   2.451   7.559   8.304 -0.2954 -0.3527  1.2201
  346MOL0     C45560   2.470   7.702   8.253  0.9303  0.2521 -0.7752
  346MOL0     C45561   2.329   7.785   8.247 -0.3792 -0.9964  0.7167
  346MOL0     C45562   2.338   7.894   8.145  0.5660 -0.4733 -0.4185
  346MOL0     C45563   2.213   7.973   8.146 -0.2713  0.3246  0.1198
  346MOL0     O45564   2.216   8.038   8.273  0.0828 -0.1654  0.3614
  346MOL0     C45565   2.101   8.105   8.308 -0.7130  0.5809  1.2742
  346MOL0     C45566   1.979   8.033   8.327  0.1337  0.1187  0.2021
  346MOL0     C45567   1.879   8.084   8.408  0.1113  0.1459  0.7113
  346MOL0     C45568   1.879   8.217   8.434  0.6631 -0.7307 -0.8423
  346MOL0     C45569   1.781   8.282   8.516  0.7960 -0.1736 -0.2755
  346MOL0     O45570   1.669   8.212   8.538 -0.1165 -0.3090  1.6161
  346MOL0     C45571   1.565   8.244   8.454 -0.3009 -0.1459 -0.1483
  346MOL0     C45572   1.577   8.313   8.329  0.5694  0.2693 -0.4938
  346MOL0     C45573   1.466   8.326   8.240 -0.1134  0.3257 -0.7429
  346MOL0     C45574   1.341   8.270   8.275 -0.0307 -0.2427  0.8154
  346MOL0     O45575   1.224   8.273   8.207 -0.3925 -0.9155  0.2760
  346MOL0     C45576   1.223   8.349   8.088  0.4567 -0.7460 -0.2462
  346MOL0     C45577   1.065   8.367   8.056 -0.9471  0.2464  0.2002
  346MOL0     C45578   0.999   8.238   8.022  0.3383 -0.3559 -0.3628
  346MOL0     C45579   0.852   8.264   7.990  0.1579  0.8957  0.0891
  346MOL0     C45580   0.764   8.158   7.917 -0.3034  0.0693 -0.1676
  346MOL0     C45581   0.779   8.021   7.964 -0.3635  0.0831 -0.8420
  346MOL0     C45582   0.704   7.924   7.867 -0.8311  0.5843  0.4267
  346MOL0     C45583   0.685   7.782   7.931  0.5296  1.2503  0.3722
  346MOL0    Cl45584   0.578   7.678   7.829 -0.0736  0.1985  0.1746
  346MOL0     C45585   1.335   8.211   8.401 -0.2315 -0.4688 -0.6381
  346MOL0     C45586   1.441   8.196   8.483  0.1259 -0.3541 -0.2206
  346MOL0     O45587   1.808   8.385   8.567 -0.0346 -0.5719 -0.3404
  346MOL0     C45588   1.985   8.300   8.394  0.5832 -0.7698 -0.1664
  346MOL0     C45589   2.102   8.237   8.350 -0.1355 -0.8103  0.6838
  346MOL0     N45590   2.480   7.525   8.436  0.2678  0.6203  0.5952
  346MOL0     N45591   2.415   7.410   8.454  0.3291  0.7781  0.0601
  346MOL0     C45592   3.017   6.493   7.718  0.7752  0.0219  0.4579
  346MOL0     C45593   3.110   6.388   7.713  0.3503  0.0319 -0.2520
  346MOL0     C45594   3.434   6.086   7.846 -0.0777  0.8103 -0.2556
  346MOL0     C45595   3.542   6.139   7.761 -0.0712  0.6439 -0.8384
  346MOL0     C45596   3.653   6.064   7.746  0.4286  0.7881 -0.4838
  346MOL0     C45597   3.672   5.937   7.799 -0.0341 -0.1835 -0.1005
  346MOL0     O45598   3.787   5.870   7.815  0.1907 -0.0913 -0.1096
  346MOL0     C45599   3.842   5.822   7.702  0.0357 -0.7054 -0.4686
  346MOL0     C45600   3.947   5.723   7.720  0.6889 -0.6352  0.0942
  346MOL0     C45601   3.894   5.587   7.794 -0.3096  1.0173  0.2209
  346MOL0     C45602   3.935   5.458   7.713 -0.1645  0.4045 -0.0347
  346MOL0     C45603   3.944   5.337   7.792  0.2580  0.5716  0.6165
  346MOL0     C45604   3.936   5.243   7.870  0.2212 -0.4524 -0.2202
  346MOL0     C45605   3.570   5.889   7.882  0.2737  0.7247  0.5905
  346MOL0     C45606   3.451   5.956   7.904 -0.8862 -0.5926  0.1731
  346MOL0     H45607   3.284   6.449   7.992 -1.0617 -0.4920  0.5911
  346MOL0     H45608   3.122   6.637   7.999 -1.4915  1.6923 -1.3675
  346MOL0     H45609   2.865   6.650   8.013  1.9167  1.0774 -1.2848
  346MOL0     H45610   2.737   6.646   7.889  0.2352 -0.8783  0.5295
  346MOL0     H45611   2.780   6.901   7.864 -2.0287  1.5657  1.3412
  346MOL0     H45612   2.874   6.889   8.006 -0.7177 -0.1368  1.6562
  346MOL0     H45613   2.693   6.812   8.137  1.0771  3.8405  0.5340
  346MOL0     H45614   2.586   6.786   8.006 -0.4977  0.7938 -1.1538
  346MOL0     H45615   2.681   7.065   8.049 -0.8230  1.1252 -2.6453
  346MOL0     H45616   2.549   7.016   7.959 -1.9271  0.6222  1.8769
  346MOL0     H45617   2.612   6.997   8.257 -0.1851  0.4060 -0.1220
  346MOL0     H45618   2.460   6.916   8.197 -1.7840  0.7660 -3.5389
  346MOL0     H45619   2.394   7.146   8.119  1.6998 -0.7728 -1.3638
  346MOL0     H45620   2.534   7.208   8.213  0.7307 -1.0484 -0.3532
  346MOL0     H45621   2.289   7.038   8.304  1.2008 -1.6755 -0.7637
  346MOL0     H45622   2.412   7.100   8.408 -0.3325 -3.3366 -0.4777
  346MOL0     H45623   2.204   7.242   8.409 -2.3705  0.8575 -1.0492
  346MOL0     H45624   2.209   7.264   8.235  2.1963  2.1102 -0.2726
  346MOL0     H45625   2.378   7.465   8.135 -0.3352  1.8701  0.6691
  346MOL0     H45626   2.523   7.712   8.158 -2.9715  1.7364 -3.0161
  346MOL0     H45627   2.528   7.757   8.327  1.7768 -3.0976  1.2785
  346MOL0     H45628   2.299   7.824   8.345  1.1209 -0.7451  1.1038
  346MOL0     H45629   2.248   7.721   8.211 -1.0634  0.3401 -0.1790
  346MOL0     H45630   2.425   7.950   8.180 -0.7384  0.7975  0.9754
  346MOL0     H45631   2.362   7.847   8.049  0.8427  2.1767 -1.7338
  346MOL0     H45632   2.127   7.909   8.125  1.2981 -1.9877  0.3444
  346MOL0     H45633   2.215   8.050   8.069 -0.3323 -0.3282 -0.5417
  346MOL0     H45634   1.974   7.927   8.306  4.0521 -0.1484 -0.1662
  346MOL0     H45635   1.791   8.023   8.428  0.7684 -1.6979 -1.5952
  346MOL0     H45636   1.669   8.357   8.293  0.6619  0.4101 -0.0981
  346MOL0     H45637   1.489   8.397   8.161  0.4077 -0.1968 -1.0720
  346MOL0     H45638   1.273   8.302   8.003  1.1501 -1.2664  0.4389
  346MOL0     H45639   1.268   8.447   8.108 -1.3506  0.4236 -1.6022
  346MOL0     H45640   1.054   8.439   7.974 -2.9085  0.0723  0.2568
  346MOL0     H45641   1.018   8.405   8.148 -0.3784  0.5415  0.3767
  346MOL0     H45642   1.013   8.168   8.105  1.9496  1.7613  1.2716
  346MOL0     H45643   1.056   8.195   7.939  0.6251 -2.2012  0.7427
  346MOL0     H45644   0.799   8.295   8.081  1.0084 -3.0885  2.1740
  346MOL0     H45645   0.853   8.343   7.915  2.3252 -2.1167 -3.4120
  346MOL0     H45646   0.809   8.160   7.817 -1.2935 -1.0811 -0.6605
  346MOL0     H45647   0.658   8.184   7.921 -0.6097 -1.0120 -0.7423
  346MOL0     H45648   0.745   8.005   8.067 -1.8670  1.1013 -1.1525
  346MOL0     H45649   0.883   7.985   7.962 -0.0335  0.9159  0.3419
  346MOL0     H45650   0.605   7.966   7.844 -0.5029  2.4274  2.0972
  346MOL0     H45651   0.761   7.918   7.774  0.7595  1.7032  1.2800
  346MOL0     H45652   0.620   7.788   8.020 -3.1496 -1.4777 -1.8379
  346MOL0     H45653   0.781   7.741   7.964  0.2127  2.8922  3.8746
  346MOL0     H45654   1.243   8.167   8.438 -0.8419 -1.1177 -2.7747
  346MOL0     H45655   1.426   8.132   8.569 -0.7494 -1.4648 -1.1757
  346MOL0     H45656   1.981   8.406   8.418 -0.1113 -1.0709  1.1108
  346MOL0     H45657   2.197   8.288   8.359  0.0226 -0.4081 -2.2621
  346MOL0     H45658   2.936   6.503   7.647 -0.6319 -3.4622  1.3383
  346MOL0     H45659   3.087   6.299   7.657  1.7829 -1.3188  1.1965
  346MOL0     H45660   3.535   6.235   7.711 -2.4878  1.2856  0.5918
  346MOL0     H45661   3.727   6.118   7.688 -1.6364  2.4937 -1.6544
  346MOL0     H45662   3.880   5.905   7.643  0.5142 -1.3233 -1.0503
  346MOL0     H45663   3.765   5.781   7.636 -0.1757  0.0030 -0.6632
  346MOL0     H45664   3.974   5.711   7.615  2.8594  0.9651  0.4007
  346MOL0     H45665   4.037   5.771   7.758  0.9493  1.1890 -2.6004
  346MOL0     H45666   3.788   5.602   7.816 -0.2995  1.6532 -0.1350
  346MOL0     H45667   3.947   5.589   7.889  2.8352  1.7837 -1.4084
  346MOL0     H45668   3.865   5.432   7.633 -0.3290 -0.0397  0.2442
  346MOL0     H45669   4.026   5.493   7.664  1.7602  1.5030  3.9168
  346MOL0     H45670   3.910   5.182   7.954 -3.9512  1.7442  0.3871
  346MOL0     H45671   3.577   5.794   7.933  0.8948  0.8796  0.8048
  346MOL0     H45672   3.363   5.911   7.950  0.0551  0.0421  2.7679
  347MOL0     O45673   0.366   0.710   7.905  0.0787 -0.1085  0.1562
  347MOL0     C45674   0.264   0.740   7.964 -0.8585  0.1190  0.0781
  347MOL0     O45675   0.138   0.716   7.921  0.3583  0.3434  0.1078
  347MOL0     C45676   0.112   0.714   7.782  0.9900  0.1182 -0.9348
  347MOL0     C45677   0.200   0.646   7.685 -0.6784  0.0350 -0.0500
  347MOL0     C45678   0.163   0.650   7.555 -0.4501 -0.1146 -0.2004
  347MOL0     C45679   0.039   0.704   7.504 -0.0310  0.3246  0.2172
  347MOL0     O45680   0.010   0.695   7.372 -0.3505  0.0038 -0.4625
  347MOL0     C45681  -0.133   0.714   7.325 -1.2267  0.0896 -0.5542
  347MOL0     C45682  -0.121   0.706   7.175 -0.1908 -0.7405 -0.1625
  347MOL0     C45683  -0.243   0.732   7.090  0.8245 -0.8270 -0.4780
  347MOL0     C45684  -0.303   0.873   7.101  0.2173  0.1323 -0.1940
  347MOL0     C45685  -0.450   0.885   7.052  0.1288 -0.0118  0.3293
  347MOL0     C45686  -0.491   1.022   6.990 -0.5538 -0.2556 -0.8114
  347MOL0     C45687  -0.642   1.016   6.969 -1.3245 -0.1841 -0.3259
  347MOL0     C45688  -0.697   1.142   6.915  0.8863  0.2392  0.4866
  347MOL0     N45689  -0.663   1.163   6.771  0.3304  0.2953 -0.1915
  347MOL0     C45690  -0.538   1.204   6.724  1.1843  0.5249  0.6427
  347MOL0     C45691  -0.558   1.182   6.590  0.7652  0.7163 -0.2313
  347MOL0     C45692  -0.449   1.198   6.490 -0.4937  0.0115 -0.2868
  347MOL0     C45693  -0.346   1.081   6.472  0.9106 -0.0080  0.9431
  347MOL0     C45694  -0.249   1.054   6.592  1.5642 -0.1051 -0.0784
  347MOL0     C45695  -0.176   0.923   6.584 -0.2360  0.2715  0.9608
  347MOL0     O45696  -0.075   0.931   6.474 -0.4968  0.0391  0.5912
  347MOL0     C45697   0.001   0.822   6.430  1.1442  0.8444 -0.9692
  347MOL0     C45698   0.082   0.845   6.318  0.0731 -0.4708 -0.8561
  347MOL0     C45699   0.130   0.733   6.247 -0.5711  0.5164  0.2563
  347MOL0     C45700   0.104   0.602   6.293  0.3162  0.5368  0.3572
  347MOL0     C45701   0.134   0.486   6.211 -1.5656  0.3379  0.4301
  347MOL0     O45702   0.101   0.353   6.250  0.5186 -0.3557 -0.4728
  347MOL0     C45703   0.148   0.256   6.170  1.6600  0.6057 -0.3779
  347MOL0     C45704   0.274   0.230   6.153  0.0063 -0.1934 -0.2320
  347MOL0     C45705   0.324   0.128   6.073 -0.7997  1.3440  0.0687
  347MOL0     C45706   0.243   0.049   6.000 -0.2435 -0.5593 -0.1280
  347MOL0     O45707   0.314  -0.041   5.918  0.0520 -0.3144  0.3971
  347MOL0     C45708   0.259  -0.064   5.785 -0.3693  0.8641 -0.2516
  347MOL0     C45709   0.311  -0.200   5.728 -0.1262 -0.7761 -0.2422
  347MOL0     C45710   0.233  -0.322   5.794  0.6992  0.0188 -0.9142
  347MOL0     C45711   0.263  -0.445   5.719  0.4678  0.0201  0.0623
  347MOL0     C45712   0.228  -0.571   5.794  0.3055 -0.1693  0.6219
  347MOL0     C45713   0.220  -0.697   5.707 -1.0197 -1.4494 -0.4920
  347MOL0     C45714   0.215  -0.810   5.800  0.8736  0.3437  0.2603
  347MOL0     C45715   0.236  -0.942   5.717  1.0145  0.0420 -0.5306
  347MOL0    Cl45716   0.238  -1.084   5.816  0.3152 -0.4530  0.0605
  347MOL0     C45717   0.103   0.075   6.014  0.5913 -0.1843 -0.0409
  347MOL0     C45718   0.053   0.173   6.104  0.7468  0.2229  0.2072
  347MOL0     O45719   0.198   0.507   6.110  0.2722 -0.5928  0.9065
  347MOL0     C45720   0.032   0.581   6.406  0.5811 -0.3068 -1.1356
  347MOL0     C45721  -0.035   0.689   6.477 -0.8028  1.1181 -0.0086
  347MOL0     N45722  -0.690   1.164   6.562  0.6812  0.2464 -0.1867
  347MOL0     N45723  -0.751   1.143   6.676 -0.3270 -0.0142  0.7209
  347MOL0     C45724  -0.045   0.769   7.601  0.1099  0.8647 -0.3554
  347MOL0     C45725  -0.004   0.769   7.741  0.4182 -0.3565 -0.0194
  347MOL0     C45726   0.287   0.789   8.103 -0.7463 -0.2505  0.9637
  347MOL0     C45727   0.416   0.797   8.161  0.3826  0.1481  0.6283
  347MOL0     C45728   0.440   0.837   8.295 -0.1503 -0.1352  0.4692
  347MOL0     C45729   0.340   0.894   8.370 -0.6026  0.4000  0.0144
  347MOL0     O45730   0.366   0.941   8.490 -0.7433 -0.0762 -0.6391
  347MOL0     C45731   0.359   0.848   8.596 -0.2471  0.9572 -0.1485
  347MOL0     C45732   0.436   0.906   8.718  0.1316  1.6204  0.4971
  347MOL0     C45733   0.440   0.812   8.834 -0.3059  0.1487  0.3470
  347MOL0     C45734   0.572   0.834   8.914  0.5616  0.6526 -0.3838
  347MOL0     C45735   0.615   0.721   8.992  0.3848  0.2275  0.8096
  347MOL0     C45736   0.659   0.618   9.043  0.5895  0.2494 -0.1895
  347MOL0     C45737   0.213   0.895   8.313 -0.3997 -0.8279 -0.1816
  347MOL0     C45738   0.189   0.836   8.188  1.5230 -0.2053  0.4204
  347MOL0     H45739   0.284   0.583   7.711  0.3239  0.3856 -2.2938
  347MOL0     H45740   0.228   0.601   7.483 -0.9403  1.9665 -2.2193
  347MOL0     H45741  -0.163   0.818   7.343 -2.5782 -0.2166 -0.9270
  347MOL0     H45742  -0.206   0.651   7.376 -0.8513  1.4649  1.8041
  347MOL0     H45743  -0.087   0.603   7.156 -0.0979 -0.9964  1.3154
  347MOL0     H45744  -0.049   0.779   7.137  1.5981 -2.5872 -0.4703
  347MOL0     H45745  -0.321   0.657   7.106 -1.4354  1.9301  3.3019
  347MOL0     H45746  -0.206   0.742   6.988 -2.2354 -0.2470 -1.6340
  347MOL0     H45747  -0.304   0.902   7.207  1.8318 -1.5319  0.3311
  347MOL0     H45748  -0.238   0.948   7.056 -0.6952 -0.9932 -3.7231
  347MOL0     H45749  -0.507   0.863   7.143  1.6935  4.3287  2.6218
  347MOL0     H45750  -0.465   0.815   6.969  1.8419  1.9740 -1.7556
  347MOL0     H45751  -0.433   1.025   6.897  1.2455 -2.4700  0.1522
  347MOL0     H45752  -0.469   1.100   7.063  1.3884 -0.7514 -0.7976
  347MOL0     H45753  -0.679   0.947   6.893 -0.2311  0.5833 -1.6088
  347MOL0     H45754  -0.691   0.985   7.062  0.9142 -0.4966  0.8163
  347MOL0     H45755  -0.649   1.225   6.968  0.7523  0.3966  0.3598
  347MOL0     H45756  -0.806   1.146   6.922  0.4709 -2.2486 -2.3023
  347MOL0     H45757  -0.443   1.228   6.771  2.7546 -1.8201 -1.1060
  347MOL0     H45758  -0.398   1.289   6.524  1.7409 -0.3242 -2.3984
  347MOL0     H45759  -0.516   1.214   6.404 -5.7476  0.6498  3.4521
  347MOL0     H45760  -0.274   1.115   6.397 -0.1882  1.7556  0.5996
  347MOL0     H45761  -0.393   0.988   6.439  1.6335  0.2110 -0.7706
  347MOL0     H45762  -0.164   1.123   6.596  1.6744 -0.1831 -0.8316
  347MOL0     H45763  -0.299   1.075   6.687  0.7968 -4.4448  0.7108
  347MOL0     H45764  -0.250   0.847   6.560  0.9976 -0.7693  0.3287
  347MOL0     H45765  -0.130   0.896   6.680 -1.7074 -0.6649  1.4407
  347MOL0     H45766   0.107   0.948   6.294 -0.2422  0.1428  1.2242
  347MOL0     H45767   0.189   0.745   6.156  0.3428 -2.2697  0.3659
  347MOL0     H45768   0.356   0.286   6.197 -0.8460  0.6145  0.3808
  347MOL0     H45769   0.428   0.102   6.086 -0.0123  4.0604 -0.2854
  347MOL0     H45770   0.300   0.008   5.713  0.3448  0.0175 -0.7079
  347MOL0     H45771   0.149  -0.059   5.784 -0.4340  2.4404  2.8614
  347MOL0     H45772   0.418  -0.191   5.746 -0.3306 -2.7038  2.5362
  347MOL0     H45773   0.276  -0.208   5.625  0.1647 -0.3887 -0.3714
  347MOL0     H45774   0.127  -0.295   5.802  1.0304  0.6816  2.0943
  347MOL0     H45775   0.268  -0.337   5.896  0.5725 -6.4329 -1.4414
  347MOL0     H45776   0.226  -0.432   5.617  2.4736  4.3131 -0.3373
  347MOL0     H45777   0.371  -0.444   5.706  0.5442 -2.0694  0.1778
  347MOL0     H45778   0.141  -0.556   5.859  0.0924  1.6916 -0.0359
  347MOL0     H45779   0.319  -0.578   5.854 -0.2774  3.6759  2.2688
  347MOL0     H45780   0.309  -0.702   5.643  0.4365  1.2466  1.1654
  347MOL0     H45781   0.137  -0.676   5.639 -2.1341 -1.6768  0.7820
  347MOL0     H45782   0.297  -0.809   5.873  0.1859 -1.1166  1.0800
  347MOL0     H45783   0.113  -0.806   5.838 -0.2453  0.4672 -2.5688
  347MOL0     H45784   0.332  -0.935   5.663  1.6570  1.7004  0.7397
  347MOL0     H45785   0.156  -0.953   5.643 -2.0294  3.6190  1.8851
  347MOL0     H45786   0.032   0.022   5.951 -0.1634  1.3334 -0.5400
  347MOL0     H45787  -0.052   0.183   6.129  0.5137  1.5154 -1.1587
  347MOL0     H45788   0.019   0.482   6.449 -2.1976  0.1578 -0.6774
  347MOL0     H45789  -0.100   0.661   6.559 -1.0503  2.8933  0.4433
  347MOL0     H45790  -0.132   0.823   7.565 -0.0721  1.6892  1.2438
  347MOL0     H45791  -0.073   0.822   7.806  0.4672  1.7110 -1.5446
  347MOL0     H45792   0.495   0.753   8.101 -0.4152 -1.1245  0.4749
  347MOL0     H45793   0.537   0.844   8.343 -0.8011  0.8620  1.6809
  347MOL0     H45794   0.405   0.753   8.569 -1.7442  0.4255 -0.9970
  347MOL0     H45795   0.251   0.835   8.605 -0.8383  3.5671 -2.1262
  347MOL0     H45796   0.534   0.934   8.679  1.9393 -1.7387  2.1424
  347MOL0     H45797   0.397   1.001   8.755 -0.0462  2.4107 -1.5896
  347MOL0     H45798   0.435   0.709   8.795  2.5283  0.4754 -1.1385
  347MOL0     H45799   0.351   0.825   8.896  0.4596 -2.1815  2.0875
  347MOL0     H45800   0.654   0.870   8.852 -0.0303  0.8931 -1.0440
  347MOL0     H45801   0.543   0.911   8.987  0.8432 -0.9069  1.4561
  347MOL0     H45802   0.685   0.527   9.093  2.2117  0.1309 -1.1734
  347MOL0     H45803   0.132   0.940   8.368  0.5799 -0.5900  1.1201
  347MOL0     H45804   0.090   0.845   8.145  2.2139  2.5068 -0.8120
  348MOL0     O45805   9.070   8.501   2.661  0.1559  1.0753  0.1333
  348MOL0     C45806   9.185   8.538   2.672  0.3342  0.1602 -0.7783
  348MOL0     O45807   9.253   8.642   2.598  0.3968 -0.3391  0.5695
  348MOL0     C45808   9.209   8.678   2.471  0.4708  0.4284  0.3688
  348MOL0     C45809   9.301   8.762   2.410 -1.7814 -0.0373  0.8701
  348MOL0     C45810   9.280   8.825   2.286 -0.5015 -0.4316 -0.1819
  348MOL0     C45811   9.167   8.794   2.226  0.8412 -1.2047 -0.0822
  348MOL0     O45812   9.138   8.838   2.099  0.2684 -0.4875 -0.7256
  348MOL0     C45813   9.245   8.848   1.997 -0.6056  0.5405  0.2532
  348MOL0     C45814   9.303   8.992   1.978 -0.7299 -0.7500 -0.1382
  348MOL0     C45815   9.429   8.999   1.886  0.0222  0.0909 -0.8173
  348MOL0     C45816   9.509   9.117   1.923  0.6419 -0.4157  0.7301
  348MOL0     C45817   9.652   9.113   1.878 -0.9326 -0.3234 -0.4659
  348MOL0     C45818   9.713   9.250   1.841 -0.6859  0.0664  1.1002
  348MOL0     C45819   9.727   9.356   1.947 -0.6246  0.3893  0.4784
  348MOL0     C45820   9.817   9.467   1.878 -0.5013  0.8684 -0.1117
  348MOL0     N45821   9.959   9.444   1.880 -0.4286  1.0686 -0.2257
  348MOL0     C45822  10.038   9.395   1.980 -0.5084 -0.8612  0.3417
  348MOL0     C45823  10.146   9.345   1.920  0.6511  0.2250  0.6022
  348MOL0     C45824  10.262   9.280   1.990  0.3788 -1.1069 -1.1901
  348MOL0     C45825  10.231   9.135   2.046 -0.4907 -0.6115 -0.4428
  348MOL0     C45826  10.358   9.082   2.119 -0.2440 -0.5067 -0.0198
  348MOL0     C45827  10.334   8.939   2.177 -0.2934  0.8126 -0.0136
  348MOL0     O45828  10.315   8.837   2.079  0.7057  0.1009  0.3002
  348MOL0     C45829  10.415   8.812   1.991  0.8222 -0.1973 -0.4047
  348MOL0     C45830  10.554   8.805   2.020  0.8092  0.5538 -0.3674
  348MOL0     C45831  10.648   8.790   1.928  0.0579 -0.7159 -0.1583
  348MOL0     C45832  10.603   8.750   1.802 -0.6012  0.2449  0.7710
  348MOL0     C45833  10.713   8.719   1.701  0.8245 -0.4739 -0.2292
  348MOL0     O45834  10.837   8.714   1.742  0.3161 -0.1989 -0.9310
  348MOL0     C45835  10.946   8.699   1.653  0.1786  0.8312  0.6885
  348MOL0     C45836  10.971   8.770   1.534  0.2775  0.5724 -0.8039
  348MOL0     C45837  11.082   8.745   1.458 -0.3625 -0.3930 -1.2062
  348MOL0     C45838  11.173   8.647   1.487  0.6909 -0.5657 -1.0501
  348MOL0     O45839  11.281   8.635   1.403 -0.2501 -0.8475  1.2388
  348MOL0     C45840  11.350   8.509   1.408 -0.0248  0.2150 -0.2523
  348MOL0     C45841  11.452   8.502   1.301 -0.0649 -0.4224  0.2154
  348MOL0     C45842  11.516   8.359   1.280 -0.0000 -0.2741  0.5011
  348MOL0     C45843  11.429   8.277   1.177 -0.5748 -1.1819  0.1427
  348MOL0     C45844  11.474   8.123   1.174  0.0982 -0.4354 -0.2178
  348MOL0     C45845  11.603   8.118   1.086  0.0501 -0.3036 -0.1097
  348MOL0     C45846  11.660   7.979   1.054  0.0681  0.6333  0.4228
  348MOL0     C45847  11.796   8.003   0.982  0.8067  0.2538 -1.2535
  348MOL0    Cl45848  11.780   8.049   0.808 -0.1517  0.1724 -0.2730
  348MOL0     C45849  11.165   8.589   1.616  1.1187  0.3668 -0.9270
  348MOL0     C45850  11.047   8.607   1.696  1.2873  0.3493  0.5479
  348MOL0     O45851  10.675   8.673   1.598  0.4568 -0.2726 -0.3421
  348MOL0     C45852  10.465   8.741   1.767 -0.2585  0.8356 -0.5239
  348MOL0     C45853  10.367   8.774   1.868 -0.5743 -0.0815  0.7456
  348MOL0     N45854  10.146   9.365   1.785  0.9034 -0.0803  0.3489
  348MOL0     N45855  10.040   9.434   1.766  0.0794  0.9950  0.6142
  348MOL0     C45856   9.066   8.710   2.274  0.6654 -0.2710 -0.2845
  348MOL0     C45857   9.083   8.652   2.402 -0.3985 -0.0731  0.8491
  348MOL0     C45858   9.250   8.473   2.785  0.5074 -0.4194  0.1731
  348MOL0     C45859   9.191   8.379   2.871 -0.1418  0.5026 -0.1497
  348MOL0     C45860   9.271   8.329   2.978 -0.5407  0.2049 -1.1742
  348MOL0     C45861   9.405   8.365   3.009 -0.0999 -0.4481  0.0685
  348MOL0     O45862   9.465   8.312   3.121 -0.5485 -0.4819 -0.2005
  348MOL0     C45863   9.554   8.398   3.190  0.7067 -0.1345 -0.2594
  348MOL0     C45864   9.556   8.354   3.347 -0.4492  0.8566 -0.5358
  348MOL0     C45865   9.628   8.223   3.358 -0.7712 -0.1907 -0.0506
  348MOL0     C45866   9.662   8.206   3.509  0.1530  0.0899 -0.7027
  348MOL0     C45867   9.540   8.170   3.593 -0.0835  0.7131 -0.0995
  348MOL0     C45868   9.458   8.144   3.676 -0.1450 -0.5308  0.8202
  348MOL0     C45869   9.451   8.460   2.924 -0.3384  0.2737  0.3821
  348MOL0     C45870   9.379   8.513   2.813 -1.0030 -0.1885  1.1426
  348MOL0     H45871   9.396   8.791   2.454 -2.5029  1.5593  1.4854
  348MOL0     H45872   9.349   8.888   2.231 -1.3792 -1.0093 -1.9900
  348MOL0     H45873   9.200   8.804   1.908 -1.7144  0.2453  0.9336
  348MOL0     H45874   9.332   8.783   2.008  1.1483  2.6163 -0.5324
  348MOL0     H45875   9.316   9.038   2.077 -3.7371 -0.6552  0.3338
  348MOL0     H45876   9.214   9.043   1.939 -0.3422  0.1809  0.1666
  348MOL0     H45877   9.388   9.024   1.788 -0.3376  3.3105  0.0411
  348MOL0     H45878   9.494   8.912   1.898  0.2336  0.4194  0.6309
  348MOL0     H45879   9.472   9.212   1.884 -0.3426 -0.2570  1.9901
  348MOL0     H45880   9.500   9.122   2.032 -1.8515  0.9094  0.5406
  348MOL0     H45881   9.650   9.054   1.787  0.1909 -0.4486 -0.4253
  348MOL0     H45882   9.711   9.060   1.954 -1.9450  0.8047  1.1787
  348MOL0     H45883   9.652   9.299   1.764 -2.0596  0.4348  2.3891
  348MOL0     H45884   9.816   9.235   1.806 -0.5691 -0.1174  1.5212
  348MOL0     H45885   9.625   9.377   1.980  0.1196  0.7744  2.7276
  348MOL0     H45886   9.774   9.315   2.036 -1.5212 -3.1454 -0.5285
  348MOL0     H45887   9.812   9.564   1.927 -1.0795  1.9067 -2.1221
  348MOL0     H45888   9.782   9.487   1.776  1.4966  3.3558 -0.4132
  348MOL0     H45889  10.004   9.394   2.083 -4.4905 -2.2237 -0.7975
  348MOL0     H45890  10.287   9.350   2.069 -3.0307 -0.1198 -0.8415
  348MOL0     H45891  10.347   9.282   1.920 -0.8034  0.8507 -2.6608
  348MOL0     H45892  10.195   9.075   1.963 -1.0988 -2.0957  0.8445
  348MOL0     H45893  10.151   9.150   2.120  3.6752  4.6010  3.9106
  348MOL0     H45894  10.450   9.076   2.060  1.8987 -0.3223  3.0370
  348MOL0     H45895  10.384   9.151   2.201 -2.7613  0.9807 -0.3687
  348MOL0     H45896  10.238   8.930   2.228 -2.5151  2.5086 -3.5560
  348MOL0     H45897  10.416   8.909   2.244  0.5016  0.9868 -0.8811
  348MOL0     H45898  10.582   8.820   2.124 -0.9833 -0.2131  0.2742
  348MOL0     H45899  10.751   8.808   1.959 -0.3969  0.2069  0.8781
  348MOL0     H45900  10.908   8.855   1.507 -0.3481  0.1593 -0.6704
  348MOL0     H45901  11.112   8.807   1.374 -0.0378  0.2783 -0.6084
  348MOL0     H45902  11.274   8.431   1.394 -0.6045  0.8062 -0.4895
  348MOL0     H45903  11.398   8.503   1.506 -0.9534  1.5562  0.3311
  348MOL0     H45904  11.524   8.582   1.323 -0.8380  0.1734  0.6228
  348MOL0     H45905  11.404   8.534   1.207 -1.1460 -0.1590  0.8432
  348MOL0     H45906  11.530   8.312   1.378  1.1431  0.9766  0.9632
  348MOL0     H45907  11.619   8.365   1.245 -0.6598 -0.2085 -1.5298
  348MOL0     H45908  11.325   8.276   1.210 -0.6453 -0.7228 -0.0622
  348MOL0     H45909  11.449   8.312   1.075 -1.7696  1.3283  0.6937
  348MOL0     H45910  11.397   8.065   1.123 -2.1871  1.8732  0.3972
  348MOL0     H45911  11.493   8.092   1.278  0.4245 -0.1270 -0.1843
  348MOL0     H45912  11.681   8.180   1.132  1.6098 -1.4263 -1.1353
  348MOL0     H45913  11.579   8.158   0.988 -0.7004 -4.9626 -2.1254
  348MOL0     H45914  11.679   7.936   1.153  0.6166  3.7426  1.7578
  348MOL0     H45915  11.586   7.913   1.009 -0.5342  1.4181  0.2505
  348MOL0     H45916  11.845   7.906   0.992  0.2686  0.1208  0.4196
  348MOL0     H45917  11.865   8.067   1.039  1.3262 -3.9800  3.6171
  348MOL0     H45918  11.243   8.532   1.666  3.7010  1.2748 -3.6084
  348MOL0     H45919  11.034   8.557   1.792  1.0087  1.3068  1.0124
  348MOL0     H45920  10.431   8.709   1.669  1.9569  2.9001 -2.0800
  348MOL0     H45921  10.262   8.775   1.839 -0.1506  3.6997 -1.3888
  348MOL0     H45922   8.967   8.703   2.230  0.7498 -2.1243 -0.2956
  348MOL0     H45923   9.002   8.599   2.452 -2.8269  2.1544 -0.4292
  348MOL0     H45924   9.106   8.325   2.831  1.4658 -1.1235 -1.5308
  348MOL0     H45925   9.221   8.268   3.053  2.7966  0.6503  1.7066
  348MOL0     H45926   9.522   8.502   3.180 -0.1557 -0.4516 -0.9992
  348MOL0     H45927   9.654   8.401   3.147  0.9103 -1.2403  0.0961
  348MOL0     H45928   9.602   8.435   3.404  1.0227  0.5846 -1.3028
  348MOL0     H45929   9.455   8.340   3.386  0.1998 -0.7153  0.6925
  348MOL0     H45930   9.727   8.247   3.317 -0.4523  0.5824  1.1039
  348MOL0     H45931   9.575   8.135   3.321 -0.8527 -0.6686  1.1789
  348MOL0     H45932   9.736   8.126   3.514  1.3196  1.1311 -0.9513
  348MOL0     H45933   9.717   8.290   3.553 -1.6086  0.4658  0.9344
  348MOL0     H45934   9.380   8.131   3.748  0.3494  1.2744  1.7237
  348MOL0     H45935   9.555   8.487   2.942  0.1498 -1.5283  0.4522
  348MOL0     H45936   9.437   8.580   2.751  0.2090  1.1044  3.5462
  349MOL0     O45937   7.820   8.397   1.098  0.1279 -0.0149 -0.0137
  349MOL0     C45938   7.779   8.404   1.213 -0.4497 -0.0167 -0.4796
  349MOL0     O45939   7.859   8.388   1.329 -0.3405 -0.0756 -1.3091
  349MOL0     C45940   7.990   8.426   1.330  0.6066  0.3723 -0.1911
  349MOL0     C45941   8.011   8.557   1.299 -0.7890 -0.1956  0.0179
  349MOL0     C45942   8.146   8.600   1.312 -0.4626 -0.6010 -0.5142
  349MOL0     C45943   8.247   8.514   1.318  0.2451 -0.2214 -0.4260
  349MOL0     O45944   8.371   8.569   1.308  0.7858  0.2771  0.2817
  349MOL0     C45945   8.487   8.483   1.293 -0.4897 -0.7561 -0.5043
  349MOL0     C45946   8.620   8.562   1.299  1.6538 -0.4311 -0.0286
  349MOL0     C45947   8.594   8.688   1.374  0.4578 -0.2865 -0.1234
  349MOL0     C45948   8.712   8.761   1.432  0.1618 -0.2375 -0.1238
  349MOL0     C45949   8.668   8.866   1.538  0.6237  0.2219 -0.4160
  349MOL0     C45950   8.792   8.925   1.595  0.6169 -0.0366  0.3855
  349MOL0     C45951   8.792   9.010   1.721  0.6342 -0.0506  0.3986
  349MOL0     C45952   8.930   9.022   1.777  0.6956 -0.5548  0.8623
  349MOL0     N45953   8.941   9.142   1.864  0.4090  0.9980 -0.4226
  349MOL0     C45954   8.933   9.132   2.001  0.3244  0.2924  0.5225
  349MOL0     C45955   8.924   9.266   2.038 -0.0289 -0.3372  1.0492
  349MOL0     C45956   8.924   9.317   2.174  0.1760 -0.1123 -0.2065
  349MOL0     C45957   9.074   9.344   2.205 -0.4546 -0.4734 -0.2064
  349MOL0     C45958   9.158   9.223   2.244 -1.0004 -0.3318  0.0270
  349MOL0     C45959   9.297   9.267   2.293 -0.8356  0.4638 -0.2363
  349MOL0     O45960   9.386   9.153   2.310  0.6230  0.1626 -0.5152
  349MOL0     C45961   9.523   9.171   2.303  0.7255 -0.3990 -0.2070
  349MOL0     C45962   9.596   9.056   2.316 -0.3141 -0.6546 -0.4420
  349MOL0     C45963   9.730   9.063   2.346 -0.9569  0.8041 -0.5636
  349MOL0     C45964   9.802   9.180   2.328  0.1475 -0.0714  0.4724
  349MOL0     C45965   9.943   9.191   2.339 -0.4273  0.3205 -0.2031
  349MOL0     O45966  10.000   9.101   2.430 -0.3567 -0.2143  0.1977
  349MOL0     C45967  10.134   9.091   2.447 -0.5677 -0.7500  1.1854
  349MOL0     C45968  10.174   8.964   2.471  0.6530  0.3621 -0.1784
  349MOL0     C45969  10.308   8.931   2.509  0.2340  0.8042  0.3267
  349MOL0     C45970  10.409   9.025   2.503  0.0993 -0.1919 -0.4597
  349MOL0     O45971  10.541   8.989   2.548  0.0983 -1.0263 -0.0293
  349MOL0     C45972  10.636   9.066   2.470 -0.9080  1.5497  0.4079
  349MOL0     C45973  10.779   8.998   2.488  0.4340 -0.4243  0.2090
  349MOL0     C45974  10.826   9.030   2.627 -0.3980 -0.1481  0.1432
  349MOL0     C45975  10.765   8.948   2.743  0.9748  0.9018  0.3361
  349MOL0     C45976  10.854   8.947   2.860 -0.3640 -0.6489  0.0519
  349MOL0     C45977  10.858   9.080   2.937  0.2372  0.6710  0.5291
  349MOL0     C45978  10.959   9.066   3.059  1.0682  0.4675 -0.5501
  349MOL0     C45979  10.942   8.951   3.158  0.7436  0.1384  0.4664
  349MOL0    Cl45980  11.054   8.952   3.293 -0.4244 -0.1059  0.1034
  349MOL0     C45981  10.366   9.164   2.474 -0.2589  0.0648  0.3688
  349MOL0     C45982  10.231   9.196   2.446  0.5415  0.2025 -0.0068
  349MOL0     O45983  10.003   9.277   2.272  0.0528 -0.2078  0.1108
  349MOL0     C45984   9.733   9.290   2.276 -0.5125  0.1568 -0.8064
  349MOL0     C45985   9.590   9.292   2.273 -0.1073  0.0798 -1.3310
  349MOL0     N45986   8.921   9.347   1.923 -0.4782 -0.5011 -0.0297
  349MOL0     N45987   8.939   9.278   1.820  0.5247  0.7432 -0.6585
  349MOL0     C45988   8.223   8.373   1.332  0.2332 -0.1131  0.0387
  349MOL0     C45989   8.087   8.336   1.331  0.4727  0.4446  1.0122
  349MOL0     C45990   7.635   8.434   1.239 -0.0129  0.2236  0.5547
  349MOL0     C45991   7.580   8.442   1.373  0.0921 -0.8951  0.2401
  349MOL0     C45992   7.445   8.449   1.393  0.5233  0.0055 -0.5715
  349MOL0     C45993   7.355   8.463   1.283 -0.3332  0.3042  0.0095
  349MOL0     O45994   7.220   8.497   1.317 -0.0802 -1.0297 -0.3790
  349MOL0     C45995   7.127   8.419   1.238  0.2714 -0.0283  0.5575
  349MOL0     C45996   6.999   8.392   1.334 -0.0505  0.5022  0.3410
  349MOL0     C45997   6.913   8.290   1.263 -0.8916  0.3052 -0.6365
  349MOL0     C45998   6.771   8.258   1.324  0.5576 -0.2153  0.0880
  349MOL0     C45999   6.688   8.174   1.234  0.5851 -0.0271  0.8117
  349MOL0     C46000   6.611   8.117   1.157  0.3324 -0.4475  0.6712
  349MOL0     C46001   7.409   8.467   1.158 -0.1686  0.5371  1.0295
  349MOL0     C46002   7.543   8.443   1.133  0.6412 -0.1923  0.7791
  349MOL0     H46003   7.940   8.638   1.292  1.9666  2.4642  0.7146
  349MOL0     H46004   8.178   8.701   1.286 -0.0381 -1.1845 -2.4582
  349MOL0     H46005   8.484   8.413   1.209 -2.8573 -0.9311 -0.3459
  349MOL0     H46006   8.490   8.414   1.378 -0.5917 -1.4835 -1.0800
  349MOL0     H46007   8.657   8.599   1.203 -1.4648  2.5700 -0.2550
  349MOL0     H46008   8.692   8.496   1.350  2.0727  0.1828  0.1769
  349MOL0     H46009   8.546   8.660   1.469 -4.6323  0.7250 -2.0738
  349MOL0     H46010   8.531   8.756   1.316  0.5668 -0.2904 -0.2473
  349MOL0     H46011   8.784   8.685   1.465  1.5821  0.9922 -0.2978
  349MOL0     H46012   8.761   8.820   1.354  0.7139 -0.5776 -0.0424
  349MOL0     H46013   8.610   8.822   1.621  1.0788 -4.0991 -2.1339
  349MOL0     H46014   8.611   8.941   1.482 -2.0291 -1.0217  0.4239
  349MOL0     H46015   8.839   8.980   1.513  0.0530 -0.6428 -0.3581
  349MOL0     H46016   8.852   8.836   1.618 -0.0951 -0.1276  2.0031
  349MOL0     H46017   8.752   9.102   1.677  1.6820 -0.1292 -0.7821
  349MOL0     H46018   8.713   8.991   1.793  0.3176 -3.1685 -0.6447
  349MOL0     H46019   8.985   9.041   1.684 -1.2426 -2.2624 -0.7248
  349MOL0     H46020   8.970   8.933   1.826 -0.2775 -1.4151  0.1292
  349MOL0     H46021   8.922   9.040   2.057 -0.3615 -0.1001 -0.2451
  349MOL0     H46022   8.870   9.265   2.254 -1.1162  4.6086  2.3163
  349MOL0     H46023   8.886   9.419   2.177  1.4552  0.5341 -3.1393
  349MOL0     H46024   9.069   9.410   2.293 -3.8210  2.7221 -2.4849
  349MOL0     H46025   9.126   9.397   2.125 -0.8921 -2.5353 -1.9323
  349MOL0     H46026   9.104   9.157   2.313 -1.3659 -0.3457 -0.2672
  349MOL0     H46027   9.159   9.168   2.149 -2.2495 -0.4584  0.0724
  349MOL0     H46028   9.288   9.314   2.391 -0.8662 -1.1953  0.5870
  349MOL0     H46029   9.339   9.327   2.211 -1.6476 -3.4168 -3.8090
  349MOL0     H46030   9.552   8.956   2.317  0.4954 -1.0227 -0.9554
  349MOL0     H46031   9.788   8.975   2.373 -0.5822  0.7347 -1.5362
  349MOL0     H46032  10.115   8.873   2.478  1.7271 -0.2212  3.1094
  349MOL0     H46033  10.320   8.833   2.553 -1.6356  1.7014  3.1082
  349MOL0     H46034  10.648   9.172   2.492 -2.9077  2.1095 -0.8651
  349MOL0     H46035  10.614   9.047   2.365  2.9207 -0.8616 -0.1771
  349MOL0     H46036  10.859   9.042   2.428  0.8323 -0.0296  1.0228
  349MOL0     H46037  10.772   8.889   2.474 -1.5644 -0.4076  0.7665
  349MOL0     H46038  10.800   9.133   2.653  0.5048  0.3827 -0.9523
  349MOL0     H46039  10.936   9.028   2.627 -0.2980  2.3200 -0.2711
  349MOL0     H46040  10.667   8.984   2.774  1.0446 -0.4762  2.3631
  349MOL0     H46041  10.762   8.842   2.716 -3.5087 -0.0214  3.3766
  349MOL0     H46042  10.954   8.913   2.832 -0.2259  0.5057 -0.9293
  349MOL0     H46043  10.828   8.871   2.935 -2.8934 -1.4892 -1.5469
  349MOL0     H46044  10.759   9.097   2.981  0.2508  3.7484 -0.4200
  349MOL0     H46045  10.858   9.168   2.872 -0.0019  1.4004  1.4966
  349MOL0     H46046  11.058   9.092   3.021  0.1167  1.6419 -2.4110
  349MOL0     H46047  10.929   9.153   3.117 -0.7815 -1.0168  0.8705
  349MOL0     H46048  10.945   8.849   3.119 -2.2482 -1.0509  2.8574
  349MOL0     H46049  10.846   8.967   3.208 -0.7645 -0.7843 -1.9013
  349MOL0     H46050  10.436   9.247   2.477  0.3545 -0.4629  2.4696
  349MOL0     H46051  10.202   9.300   2.447 -2.4450 -0.5324  1.4079
  349MOL0     H46052   9.785   9.384   2.260  1.1460 -0.7025 -0.7357
  349MOL0     H46053   9.542   9.388   2.257  0.1464 -0.1756 -4.1485
  349MOL0     H46054   8.304   8.302   1.320 -0.4598 -0.6916 -1.4188
  349MOL0     H46055   8.060   8.231   1.322  1.8036  0.2525 -1.5341
  349MOL0     H46056   7.647   8.439   1.459 -0.8065  1.5922  1.1116
  349MOL0     H46057   7.397   8.447   1.491  1.7651 -0.5322  0.0517
  349MOL0     H46058   7.177   8.325   1.216 -1.8229 -0.9021 -0.7019
  349MOL0     H46059   7.113   8.467   1.141  0.4875 -0.6895  0.2000
  349MOL0     H46060   7.014   8.348   1.433 -2.3530 -1.5805 -0.1429
  349MOL0     H46061   6.951   8.486   1.359  3.0879  1.6089  2.9666
  349MOL0     H46062   6.964   8.193   1.266 -3.1700 -0.9432  0.4777
  349MOL0     H46063   6.900   8.327   1.161 -1.1834 -0.0067 -0.7149
  349MOL0     H46064   6.786   8.222   1.426  1.0612 -0.8477 -0.2008
  349MOL0     H46065   6.712   8.350   1.332  0.2063 -0.4736  0.5510
  349MOL0     H46066   6.540   8.061   1.100 -3.3051  4.2538 -0.0869
  349MOL0     H46067   7.354   8.502   1.071  3.2409  1.0317 -1.1159
  349MOL0     H46068   7.583   8.421   1.034 -0.0275 -1.3067  0.7380
  350MOL0     O46069   9.639   7.093   2.458  0.1170 -0.9208 -0.6386
  350MOL0     C46070   9.642   7.026   2.564 -0.1097 -0.4299  0.3443
  350MOL0     O46071   9.654   7.078   2.691 -0.5343  0.5281  0.5480
  350MOL0     C46072   9.671   7.209   2.715  0.8394  0.6857  0.1421
  350MOL0     C46073   9.659   7.233   2.848  0.2476  0.6829  0.3807
  350MOL0     C46074   9.676   7.356   2.905 -0.3991 -0.8693  0.3384
  350MOL0     C46075   9.738   7.453   2.829 -0.1972  0.4781 -0.5223
  350MOL0     O46076   9.758   7.578   2.881  0.2673 -0.1836 -0.6203
  350MOL0     C46077   9.894   7.622   2.895  0.7433 -0.5864  0.3336
  350MOL0     C46078   9.893   7.733   2.988  0.3986  0.0342 -0.1652
  350MOL0     C46079   9.833   7.689   3.123 -0.0558 -0.6212 -0.2777
  350MOL0     C46080   9.891   7.571   3.203  0.6093  0.0232  0.0664
  350MOL0     C46081  10.043   7.596   3.209  0.2134  0.6429 -0.4046
  350MOL0     C46082  10.106   7.519   3.323  0.2577 -0.1608  0.2830
  350MOL0     C46083  10.254   7.553   3.328 -0.6585 -0.2023  0.2886
  350MOL0     C46084  10.259   7.682   3.415  0.2006 -0.5587 -0.2012
  350MOL0     N46085  10.260   7.661   3.565 -1.1470 -0.2080  0.0925
  350MOL0     C46086  10.198   7.552   3.631  0.8825  0.1255  0.8637
  350MOL0     C46087  10.242   7.565   3.754  1.1028 -0.7295 -0.7260
  350MOL0     C46088  10.203   7.475   3.861  0.7022  0.1165  0.5385
  350MOL0     C46089  10.311   7.374   3.913  0.4814 -0.7794 -0.1240
  350MOL0     C46090  10.293   7.235   3.859  0.1552  0.2127  0.9903
  350MOL0     C46091  10.391   7.131   3.916 -0.6199  1.0944 -0.7390
  350MOL0     O46092  10.346   7.108   4.054  0.2029 -0.0735 -0.4614
  350MOL0     C46093  10.430   7.024   4.126  0.8001 -0.0390 -0.7800
  350MOL0     C46094  10.538   6.963   4.069  0.2137 -0.4223  1.0298
  350MOL0     C46095  10.620   6.871   4.134  0.3449 -0.1040 -0.5862
  350MOL0     C46096  10.577   6.822   4.252  0.2935 -0.2847  0.9729
  350MOL0     C46097  10.649   6.719   4.329  0.3011 -0.0114 -0.7585
  350MOL0     O46098  10.584   6.639   4.414  0.6324 -0.1418  0.2550
  350MOL0     C46099  10.648   6.531   4.473 -0.2681  0.4059  0.7339
  350MOL0     C46100  10.695   6.426   4.400  0.1828  0.0868 -0.5332
  350MOL0     C46101  10.781   6.330   4.464  0.0157 -0.2039 -0.7477
  350MOL0     C46102  10.820   6.336   4.603  0.2714 -0.1486 -0.1804
  350MOL0     O46103  10.911   6.250   4.651 -0.3219  0.4946  0.1358
  350MOL0     C46104  10.880   6.197   4.775  0.1157  0.7008 -0.0165
  350MOL0     C46105  10.993   6.096   4.796 -1.3590 -0.7625  0.6928
  350MOL0     C46106  10.974   6.016   4.936 -0.0224 -0.7684  0.6233
  350MOL0     C46107  11.070   5.901   4.945 -0.6135 -0.1947 -0.5010
  350MOL0     C46108  11.052   5.812   5.059  0.0812 -0.3289 -0.1340
  350MOL0     C46109  11.075   5.898   5.188 -0.0728  0.0781  0.6165
  350MOL0     C46110  11.095   5.818   5.310 -0.6593 -0.6723 -0.7767
  350MOL0     C46111  10.977   5.750   5.365 -0.4697  1.3034  1.3227
  350MOL0    Cl46112  10.822   5.840   5.348  0.0130 -0.2530 -0.1017
  350MOL0     C46113  10.777   6.448   4.666 -0.1004  0.4605  0.0229
  350MOL0     C46114  10.697   6.544   4.605 -0.4319  0.0548 -0.1180
  350MOL0     O46115  10.778   6.724   4.310  0.7395  0.3238  0.3806
  350MOL0     C46116  10.466   6.876   4.310  0.0348  0.8721  0.1741
  350MOL0     C46117  10.392   6.984   4.257  0.6342  0.7380  0.6510
  350MOL0     N46118  10.324   7.681   3.768 -1.4372 -0.6038  0.7805
  350MOL0     N46119  10.348   7.726   3.648 -0.5546  0.4106 -0.4885
  350MOL0     C46120   9.756   7.426   2.691 -0.4685 -0.6913 -0.3613
  350MOL0     C46121   9.720   7.305   2.635  0.1477 -0.3963  0.6959
  350MOL0     C46122   9.639   6.877   2.545 -0.0102  0.1078 -0.0989
  350MOL0     C46123   9.601   6.793   2.642 -0.3989  0.2748  0.2824
  350MOL0     C46124   9.606   6.655   2.628  0.1444  0.8209  0.2268
  350MOL0     C46125   9.639   6.603   2.504  0.3084  1.4278 -0.1128
  350MOL0     O46126   9.647   6.461   2.511 -0.0501 -0.5321 -0.1842
  350MOL0     C46127   9.701   6.383   2.408 -0.1652  0.3249 -0.3080
  350MOL0     C46128   9.785   6.275   2.471 -1.1636  0.4382  0.1126
  350MOL0     C46129   9.916   6.324   2.530 -0.3273 -0.2650  0.6554
  350MOL0     C46130  10.022   6.225   2.577 -1.0428 -0.2259  0.1508
  350MOL0     C46131   9.958   6.103   2.629  0.3310 -0.2904  0.7919
  350MOL0     C46132   9.905   6.003   2.674  0.2420 -0.6292  0.0493
  350MOL0     C46133   9.673   6.688   2.397 -0.1699 -1.1071  0.2574
  350MOL0     C46134   9.675   6.829   2.420 -1.0795  0.5623  0.3704
  350MOL0     H46135   9.624   7.148   2.906  2.7444 -1.6030 -1.2051
  350MOL0     H46136   9.649   7.375   3.008 -0.5217  1.6345 -0.0945
  350MOL0     H46137   9.930   7.655   2.797 -1.5626  1.6659  0.1471
  350MOL0     H46138   9.946   7.534   2.935  0.1037 -2.0232 -1.8062
  350MOL0     H46139   9.824   7.809   2.951  1.7109  0.5230 -1.7459
  350MOL0     H46140   9.992   7.773   3.012  0.6204 -0.9426  0.6041
  350MOL0     H46141   9.725   7.684   3.106 -0.0641  0.8713 -0.8373
  350MOL0     H46142   9.834   7.769   3.197 -0.3130 -0.1949 -0.7267
  350MOL0     H46143   9.856   7.579   3.307  1.4608 -1.6486  0.5179
  350MOL0     H46144   9.869   7.472   3.163 -0.9538 -0.6493  2.3676
  350MOL0     H46145  10.073   7.701   3.209 -0.7379  0.9522  1.4072
  350MOL0     H46146  10.076   7.561   3.111  0.9721 -1.4400  0.5348
  350MOL0     H46147  10.100   7.410   3.309 -3.7381 -0.1362  0.4705
  350MOL0     H46148  10.052   7.545   3.415  0.8704 -2.1269  1.2534
  350MOL0     H46149  10.316   7.478   3.378 -1.5614  0.4595  2.5451
  350MOL0     H46150  10.283   7.579   3.226 -0.8412 -1.6139 -0.1543
  350MOL0     H46151  10.164   7.733   3.397 -0.5782 -1.7174  0.4492
  350MOL0     H46152  10.341   7.748   3.386  0.7477 -0.4255  1.5292
  350MOL0     H46153  10.141   7.474   3.581  0.5703  0.6154  0.4449
  350MOL0     H46154  10.114   7.423   3.823  1.1367  0.2133 -0.6583
  350MOL0     H46155  10.166   7.534   3.945 -2.3796  1.8104 -1.7590
  350MOL0     H46156  10.304   7.369   4.022 -3.4250 -1.9344 -0.2647
  350MOL0     H46157  10.409   7.414   3.884  0.3427 -0.0678  0.3716
  350MOL0     H46158  10.190   7.203   3.875 -0.6029  1.5834 -0.8481
  350MOL0     H46159  10.312   7.238   3.751  1.6728 -0.9134  1.1818
  350MOL0     H46160  10.496   7.159   3.903 -0.1957  2.2699  3.4952
  350MOL0     H46161  10.369   7.036   3.868 -2.1628  1.2131 -0.3129
  350MOL0     H46162  10.575   6.996   3.973  0.3197  2.5586  1.9683
  350MOL0     H46163  10.703   6.832   4.075  0.2304 -1.9401  0.3938
  350MOL0     H46164  10.677   6.411   4.294  1.3047  1.3022 -0.9278
  350MOL0     H46165  10.827   6.254   4.403  2.1081  0.8434 -0.5522
  350MOL0     H46166  10.784   6.145   4.774  0.3219  0.2005  2.0957
  350MOL0     H46167  10.866   6.273   4.853 -0.8155 -0.1833  0.6919
  350MOL0     H46168  11.085   6.157   4.794 -2.1362  0.4433  0.5557
  350MOL0     H46169  10.993   6.018   4.720 -1.5168  1.1549 -1.4049
  350MOL0     H46170  10.874   5.973   4.928 -0.7208  0.6671  1.2358
  350MOL0     H46171  10.972   6.095   5.011 -0.4776  0.8086 -0.9656
  350MOL0     H46172  11.060   5.844   4.852 -0.0888  0.5220 -1.0049
  350MOL0     H46173  11.173   5.936   4.939  1.2221 -4.6869  0.6132
  350MOL0     H46174  11.113   5.721   5.055 -0.3853 -0.6524 -4.4595
  350MOL0     H46175  10.951   5.770   5.072  1.2281 -2.3352  6.5085
  350MOL0     H46176  10.992   5.968   5.197 -4.1437 -4.3420  1.1954
  350MOL0     H46177  11.165   5.957   5.167  0.8785 -2.5470 -4.0844
  350MOL0     H46178  11.177   5.746   5.308  1.4594  1.3411  2.5890
  350MOL0     H46179  11.133   5.893   5.380  1.0533  2.0496 -4.2846
  350MOL0     H46180  10.994   5.726   5.471  1.2954  0.2442  0.8329
  350MOL0     H46181  10.955   5.655   5.316  0.9972  0.5792  2.0100
  350MOL0     H46182  10.824   6.479   4.759 -1.3277  0.0325  0.8011
  350MOL0     H46183  10.673   6.628   4.670  0.2008 -0.0931  0.3166
  350MOL0     H46184  10.429   6.843   4.407  0.5159  1.9271  0.7259
  350MOL0     H46185  10.304   7.019   4.309  1.0707  1.6703  0.7819
  350MOL0     H46186   9.800   7.514   2.646 -1.5181 -0.9003 -1.8658
  350MOL0     H46187   9.743   7.295   2.530  1.8031  1.7022  0.8074
  350MOL0     H46188   9.561   6.842   2.730  0.5399  1.1848  0.2139
  350MOL0     H46189   9.576   6.594   2.713  1.6334  0.4206  0.4813
  350MOL0     H46190   9.779   6.436   2.353  0.3624  0.2489  0.3571
  350MOL0     H46191   9.625   6.357   2.334 -0.5033  1.3341 -0.3355
  350MOL0     H46192   9.719   6.214   2.532  2.4627 -3.0559  0.9393
  350MOL0     H46193   9.799   6.208   2.385  0.1097 -0.9417  1.3420
  350MOL0     H46194   9.889   6.374   2.624  0.9608  0.9785  0.4032
  350MOL0     H46195   9.961   6.403   2.469 -0.2015  0.1760  1.3094
  350MOL0     H46196  10.102   6.213   2.503  1.8053  1.1531  2.7818
  350MOL0     H46197  10.077   6.272   2.659 -1.1923 -0.3518  0.3259
  350MOL0     H46198   9.873   5.906   2.707  3.7638 -2.8227 -2.3659
  350MOL0     H46199   9.718   6.654   2.304  1.7043 -0.4136  0.8603
  350MOL0     H46200   9.685   6.905   2.343 -2.0766  1.6838  1.3115
  351MOL0     O46201   5.826  10.414   5.312  0.2416 -0.2451  0.4533
  351MOL0     C46202   5.758  10.513   5.301  0.5683 -0.0649  0.3685
  351MOL0     O46203   5.662  10.530   5.206 -0.7780  0.9622 -0.0346
  351MOL0     C46204   5.631  10.426   5.120 -0.4415  0.1823  0.3754
  351MOL0     C46205   5.610  10.452   4.989 -0.4677  0.5808  0.2172
  351MOL0     C46206   5.571  10.354   4.898  0.0811  1.4278 -0.1852
  351MOL0     C46207   5.549  10.229   4.939 -0.0696 -0.2017 -0.1069
  351MOL0     O46208   5.534  10.135   4.846  0.0556 -0.1946  0.2160
  351MOL0     C46209   5.593  10.008   4.863 -0.6887 -0.5314  0.3792
  351MOL0     C46210   5.747  10.015   4.874  0.0750  0.0837 -0.8036
  351MOL0     C46211   5.819   9.883   4.827 -1.1324  0.0502  0.6579
  351MOL0     C46212   5.970   9.892   4.823  0.9696 -0.0948 -0.8976
  351MOL0     C46213   6.019   9.763   4.745  0.0939  0.0111 -0.6734
  351MOL0     C46214   6.161   9.734   4.786  0.7163  0.4042  0.0483
  351MOL0     C46215   6.212   9.610   4.715 -0.7150  0.5846  0.1963
  351MOL0     C46216   6.181   9.629   4.563 -0.5896 -0.0009 -1.0707
  351MOL0     N46217   6.277   9.566   4.475  0.2116 -0.2747 -0.3532
  351MOL0     C46218   6.262   9.440   4.429 -0.6045 -0.3533 -0.2424
  351MOL0     C46219   6.383   9.392   4.404  0.8401 -0.2585 -0.7056
  351MOL0     C46220   6.403   9.244   4.363  0.9244  0.3905  0.5213
  351MOL0     C46221   6.295   9.193   4.268 -0.0270  0.0919  0.4331
  351MOL0     C46222   6.302   9.048   4.247 -0.2547 -0.6431  0.2212
  351MOL0     C46223   6.188   8.992   4.177  0.7128  0.1074 -0.3902
  351MOL0     O46224   6.218   8.861   4.124  0.2087 -0.5643  0.1704
  351MOL0     C46225   6.123   8.802   4.039 -0.8403 -0.3851 -0.8577
  351MOL0     C46226   6.145   8.743   3.912  0.4172  0.0401  0.4560
  351MOL0     C46227   6.048   8.692   3.830  0.2041 -0.1856 -0.0921
  351MOL0     C46228   5.916   8.694   3.869 -0.3338  0.0707  0.2962
  351MOL0     C46229   5.826   8.619   3.786  0.6178  0.9829  0.1183
  351MOL0     O46230   5.697   8.603   3.854 -0.3483  0.2380  0.4610
  351MOL0     C46231   5.608   8.528   3.775 -0.2292  0.3092  0.4545
  351MOL0     C46232   5.515   8.587   3.698 -0.4154 -0.8037  0.4218
  351MOL0     C46233   5.432   8.515   3.609  1.2043 -0.1392 -0.1769
  351MOL0     C46234   5.446   8.376   3.589 -0.2603 -0.5584 -0.6985
  351MOL0     O46235   5.384   8.313   3.490 -0.4772  0.2310  0.4055
  351MOL0     C46236   5.434   8.305   3.364 -0.0442 -0.0923 -0.2992
  351MOL0     C46237   5.324   8.328   3.262  1.1397  0.0410  0.4358
  351MOL0     C46238   5.202   8.241   3.284  0.2897  0.4010  1.2054
  351MOL0     C46239   5.101   8.255   3.165 -0.1786  0.0807  0.3004
  351MOL0     C46240   5.004   8.135   3.148 -0.6209  0.1293  0.4076
  351MOL0     C46241   4.899   8.170   3.039 -0.4231 -0.1629 -0.1551
  351MOL0     C46242   4.835   8.042   2.990  0.0752  0.2060 -0.1436
  351MOL0     C46243   4.894   7.979   2.864  0.0262  0.3525 -1.0887
  351MOL0    Cl46244   4.799   7.836   2.832  0.5899 -0.6708 -0.2799
  351MOL0     C46245   5.533   8.308   3.676 -0.6245 -0.0032 -0.2855
  351MOL0     C46246   5.617   8.389   3.767  0.1612  0.4024  0.3421
  351MOL0     O46247   5.851   8.573   3.673  0.1691  0.9769 -0.3187
  351MOL0     C46248   5.882   8.756   3.991 -0.3141  1.0588  0.0402
  351MOL0     C46249   5.981   8.812   4.069  0.0203  0.3168 -0.7902
  351MOL0     N46250   6.478   9.482   4.431  0.4643  0.0882  0.1178
  351MOL0     N46251   6.412   9.588   4.470  0.1316  0.8943 -0.3347
  351MOL0     C46252   5.557  10.196   5.073 -0.5385 -0.2911  0.4440
  351MOL0     C46253   5.582  10.302   5.169  0.1476 -0.6926  0.1489
  351MOL0     C46254   5.781  10.626   5.391  0.7022  1.4225  0.4876
  351MOL0     C46255   5.860  10.633   5.498 -0.2733  0.4648 -0.5065
  351MOL0     C46256   5.888  10.758   5.566  1.0705  0.9940  0.0607
  351MOL0     C46257   5.833  10.874   5.510  0.0942 -0.0227  0.8892
  351MOL0     O46258   5.884  10.981   5.577 -0.3122 -0.6254  0.0898
  351MOL0     C46259   5.803  11.097   5.577 -0.0789 -0.2690 -0.4250
  351MOL0     C46260   5.836  11.177   5.705 -0.0795  1.0144 -0.1567
  351MOL0     C46261   5.752  11.311   5.703 -0.1163  0.1218 -1.0526
  351MOL0     C46262   5.777  11.403   5.821 -1.0586 -0.3078  0.6172
  351MOL0     C46263   5.728  11.349   5.945 -0.2389  0.2755  0.0133
  351MOL0     C46264   5.684  11.305   6.050  0.5147 -0.8459  0.4516
  351MOL0     C46265   5.742  10.874   5.405 -0.2782 -0.9007 -0.3358
  351MOL0     C46266   5.721  10.747   5.352  0.6289  0.6845  0.5052
  351MOL0     H46267   5.626  10.557   4.967  2.4392  0.3343  0.7267
  351MOL0     H46268   5.543  10.378   4.796  1.5243  1.7334 -0.5386
  351MOL0     H46269   5.569   9.943   4.779 -2.7679 -0.7569  1.0777
  351MOL0     H46270   5.553   9.956   4.950 -1.2703  0.7401  0.9079
  351MOL0     H46271   5.769  10.023   4.981 -0.1359 -2.6128 -0.4845
  351MOL0     H46272   5.794  10.096   4.818  1.4629 -0.5899 -0.6402
  351MOL0     H46273   5.780   9.844   4.733  2.6783  1.4796 -1.7449
  351MOL0     H46274   5.788   9.811   4.903  0.1230 -1.2810 -0.0410
  351MOL0     H46275   6.010   9.982   4.775 -0.7489  1.2386  0.0261
  351MOL0     H46276   6.013   9.895   4.923  0.6837 -2.7457 -0.6253
  351MOL0     H46277   6.004   9.783   4.639  0.6581  2.0837 -0.4116
  351MOL0     H46278   5.954   9.677   4.761 -1.5224  1.2983 -0.0036
  351MOL0     H46279   6.164   9.728   4.895 -1.3460  3.0523  0.3759
  351MOL0     H46280   6.215   9.824   4.756 -1.5548  2.1918  0.9463
  351MOL0     H46281   6.318   9.599   4.741 -0.0989  2.9718 -1.0010
  351MOL0     H46282   6.162   9.528   4.768 -0.8592  2.9524  4.1734
  351MOL0     H46283   6.182   9.736   4.540 -0.5264 -0.2480 -2.2930
  351MOL0     H46284   6.085   9.581   4.543  0.2740 -2.3207 -0.0103
  351MOL0     H46285   6.168   9.389   4.406  2.2149 -3.8373 -7.2326
  351MOL0     H46286   6.421   9.182   4.451  0.8043 -1.2197 -0.5395
  351MOL0     H46287   6.496   9.245   4.305 -0.4135  0.8949 -1.7660
  351MOL0     H46288   6.302   9.241   4.170 -0.7586 -1.9986 -0.7108
  351MOL0     H46289   6.198   9.198   4.319 -0.2537 -1.0227  0.1414
  351MOL0     H46290   6.401   9.038   4.201 -0.4082 -0.2033 -0.2067
  351MOL0     H46291   6.314   8.995   4.343 -0.4789 -1.0374  0.0314
  351MOL0     H46292   6.151   9.065   4.104 -1.4422  0.3847  0.8886
  351MOL0     H46293   6.107   8.973   4.248  1.3161  0.4731  0.4171
  351MOL0     H46294   6.247   8.729   3.879 -0.1771  0.3591 -1.6611
  351MOL0     H46295   6.078   8.651   3.734  1.6359  0.7698 -0.0835
  351MOL0     H46296   5.501   8.692   3.718  0.5340  0.0259 -2.7284
  351MOL0     H46297   5.370   8.562   3.533  2.3889 -1.2679 -1.9260
  351MOL0     H46298   5.470   8.204   3.345  2.5323  1.0709 -2.3984
  351MOL0     H46299   5.515   8.378   3.353  0.1673  0.1442  2.3468
  351MOL0     H46300   5.365   8.310   3.162 -1.3573 -0.4384 -0.5648
  351MOL0     H46301   5.284   8.430   3.267  0.9601 -0.0038 -0.0078
  351MOL0     H46302   5.149   8.262   3.377  0.9552 -0.1152  1.7114
  351MOL0     H46303   5.238   8.137   3.281  0.8323  0.5999  0.3839
  351MOL0     H46304   5.046   8.346   3.188 -1.5229 -0.6497  0.0713
  351MOL0     H46305   5.156   8.278   3.073 -2.7457  2.1761 -0.8386
  351MOL0     H46306   4.952   8.116   3.243 -0.1985 -1.1998  0.4014
  351MOL0     H46307   5.078   8.060   3.119  0.4898  0.9662  0.9999
  351MOL0     H46308   4.957   8.226   2.966  0.0805  2.4878  2.0878
  351MOL0     H46309   4.815   8.224   3.084  0.3842  1.8083 -0.9179
  351MOL0     H46310   4.841   7.967   3.070 -0.2307 -0.7125 -0.9630
  351MOL0     H46311   4.731   8.047   2.959  0.0630 -2.7131 -0.8827
  351MOL0     H46312   4.994   7.937   2.875  0.0778  0.5783 -0.6785
  351MOL0     H46313   4.897   8.045   2.777  0.2040  0.1627 -1.2296
  351MOL0     H46314   5.551   8.202   3.664  0.2404 -0.2981  2.8412
  351MOL0     H46315   5.699   8.336   3.815  0.5702  0.0839 -0.6663
  351MOL0     H46316   5.778   8.760   4.022 -0.2402  0.0608  0.4811
  351MOL0     H46317   5.944   8.855   4.161 -4.0473  0.0731 -2.1144
  351MOL0     H46318   5.531  10.098   5.112  1.8848 -0.9045  0.6564
  351MOL0     H46319   5.585  10.280   5.275 -0.5593  2.3945  0.9119
  351MOL0     H46320   5.908  10.538   5.519 -1.5386 -0.7937 -2.8455
  351MOL0     H46321   5.958  10.753   5.649  0.8422  1.5188  0.2902
  351MOL0     H46322   5.695  11.086   5.568 -0.2260  2.2003 -3.9625
  351MOL0     H46323   5.840  11.150   5.488  1.6575 -3.0743 -1.5076
  351MOL0     H46324   5.801  11.105   5.780 -1.6933  1.3808 -0.5099
  351MOL0     H46325   5.943  11.197   5.697 -0.9688  6.1135 -4.0150
  351MOL0     H46326   5.644  11.291   5.707 -0.0930  0.1715  0.8801
  351MOL0     H46327   5.784  11.366   5.615 -0.1271  0.3985 -0.8852
  351MOL0     H46328   5.886  11.416   5.822 -0.6262 -3.2540 -0.1066
  351MOL0     H46329   5.742  11.506   5.808 -0.6282  0.1144  2.5172
  351MOL0     H46330   5.647  11.269   6.143 -3.9446  1.6909 -0.0482
  351MOL0     H46331   5.711  10.972   5.370  2.2780  0.3399  0.6319
  351MOL0     H46332   5.649  10.749   5.271 -0.8958  1.7577  1.8261
  352MOL0     O46333   0.253   8.378   3.697  0.2218  0.2397 -0.1997
  352MOL0     C46334   0.207   8.344   3.581  0.6533  0.8056 -0.4158
  352MOL0     O46335   0.216   8.221   3.521  0.4039 -0.2507 -0.3079
  352MOL0     C46336   0.265   8.126   3.607  1.4080  0.7535  0.2763
  352MOL0     C46337   0.180   8.015   3.642 -0.2999  0.8103 -0.7615
  352MOL0     C46338   0.228   7.908   3.727 -0.3181  0.0505 -0.0471
  352MOL0     C46339   0.371   7.905   3.754 -0.7833  0.4835 -0.4760
  352MOL0     O46340   0.405   7.799   3.838 -0.3225  0.0012  0.4504
  352MOL0     C46341   0.536   7.794   3.899  0.9274 -0.0017  0.8160
  352MOL0     C46342   0.512   7.699   4.012  0.3224 -0.7859 -1.0303
  352MOL0     C46343   0.471   7.772   4.149 -0.3108  0.8358 -1.3747
  352MOL0     C46344   0.459   7.682   4.277  1.2042 -0.6748 -0.8410
  352MOL0     C46345   0.590   7.654   4.332  1.0866 -0.5444  0.1355
  352MOL0     C46346   0.580   7.588   4.471 -1.2342 -1.3560 -1.1497
  352MOL0     C46347   0.714   7.571   4.544  0.1143 -1.0608  1.1207
  352MOL0     C46348   0.782   7.439   4.523 -0.3551 -0.3854  0.0059
  352MOL0     N46349   0.888   7.412   4.621 -0.0289 -0.3464  0.5754
  352MOL0     C46350   0.929   7.472   4.744  0.9447  0.5641  0.0505
  352MOL0     C46351   1.019   7.391   4.803  0.4769 -0.5172  0.1237
  352MOL0     C46352   1.110   7.442   4.918 -0.0389  0.2480  0.9499
  352MOL0     C46353   1.137   7.345   5.026 -0.2667 -0.2538  0.0874
  352MOL0     C46354   1.110   7.401   5.171 -1.2432 -0.1997  0.1869
  352MOL0     C46355   1.226   7.478   5.230 -0.0861  0.3258  0.3749
  352MOL0     O46356   1.201   7.529   5.366  0.5175  0.6152  0.7030
  352MOL0     C46357   1.304   7.519   5.455  0.2022  0.1232 -0.6735
  352MOL0     C46358   1.288   7.440   5.562 -0.1155 -0.9311  0.4679
  352MOL0     C46359   1.379   7.441   5.665  0.0223 -0.4200 -0.0687
  352MOL0     C46360   1.498   7.513   5.659  0.4734 -0.0314 -0.7707
  352MOL0     C46361   1.608   7.496   5.757  0.5662 -0.5383  0.6141
  352MOL0     O46362   1.744   7.534   5.728  1.2412  0.1085  0.3766
  352MOL0     C46363   1.844   7.505   5.818 -0.0179 -0.6949  0.4510
  352MOL0     C46364   1.938   7.601   5.848 -0.0295  0.1769 -0.0395
  352MOL0     C46365   2.030   7.582   5.950 -0.8762  0.3207  0.3628
  352MOL0     C46366   2.054   7.457   6.006 -0.4340 -0.7296  0.6757
  352MOL0     O46367   2.153   7.451   6.104 -0.8708 -1.2237 -0.7703
  352MOL0     C46368   2.254   7.344   6.102  0.2738 -0.1351  0.0941
  352MOL0     C46369   2.379   7.378   6.187 -0.2481 -0.2809  0.1571
  352MOL0     C46370   2.449   7.506   6.140  0.0993 -0.5114 -0.1907
  352MOL0     C46371   2.483   7.519   5.988  0.1350 -0.4074 -0.2659
  352MOL0     C46372   2.573   7.642   5.948 -0.5040  0.4988 -0.0803
  352MOL0     C46373   2.556   7.662   5.798  0.1151 -0.9086 -0.8570
  352MOL0     C46374   2.420   7.745   5.780  0.2119 -0.4656  0.1626
  352MOL0     C46375   2.386   7.735   5.626  0.8734 -0.5488 -0.3888
  352MOL0    Cl46376   2.298   7.586   5.594  0.7833 -0.2832  0.6143
  352MOL0     C46377   1.961   7.361   5.976 -0.0568 -0.1638 -0.4255
  352MOL0     C46378   1.854   7.382   5.886 -0.8468 -1.1178 -1.2546
  352MOL0     O46379   1.574   7.439   5.861 -0.1837 -1.1105 -0.8035
  352MOL0     C46380   1.507   7.606   5.557  0.0386  1.2300 -0.2828
  352MOL0     C46381   1.412   7.603   5.455 -0.1196  0.3192 -0.0956
  352MOL0     N46382   1.048   7.289   4.708  0.8161  0.0225 -0.3519
  352MOL0     N46383   0.976   7.314   4.603  0.0992  0.5841  0.0542
  352MOL0     C46384   0.460   8.002   3.704  0.0312 -0.0167 -0.3609
  352MOL0     C46385   0.406   8.111   3.632  0.1098 -0.1484 -0.9033
  352MOL0     C46386   0.169   8.445   3.484  0.0175 -0.3139 -0.7703
  352MOL0     C46387   0.232   8.571   3.479 -0.1290  0.6628 -0.1372
  352MOL0     C46388   0.193   8.658   3.379  1.3320 -0.1505 -0.5135
  352MOL0     C46389   0.113   8.624   3.273 -0.1342  0.0081 -1.0583
  352MOL0     O46390   0.081   8.719   3.184  0.0912 -0.1877  0.3873
  352MOL0     C46391  -0.005   8.693   3.075  1.0476  0.5013 -0.9735
  352MOL0     C46392   0.009   8.805   2.967 -0.0500 -0.0336 -0.7177
  352MOL0     C46393  -0.095   8.790   2.847 -0.4142 -0.4104  0.2865
  352MOL0     C46394  -0.232   8.839   2.890 -0.7704 -0.5328  1.0581
  352MOL0     C46395  -0.311   8.724   2.922 -0.9921 -0.5332  0.2932
  352MOL0     C46396  -0.372   8.623   2.938 -0.1100 -0.1185  0.4406
  352MOL0     C46397   0.054   8.503   3.278  0.0356  0.7753  0.4381
  352MOL0     C46398   0.082   8.407   3.385 -0.5936 -0.4464  0.3390
  352MOL0     H46399   0.081   8.026   3.598 -0.2566  0.2943 -1.0085
  352MOL0     H46400   0.151   7.835   3.753  1.9739 -2.1914  0.8486
  352MOL0     H46401   0.572   7.888   3.944  0.2063 -0.0974  1.6018
  352MOL0     H46402   0.617   7.776   3.826 -1.8554  1.5882 -3.0235
  352MOL0     H46403   0.610   7.653   4.024  0.9086 -0.5162 -4.0144
  352MOL0     H46404   0.432   7.627   3.990  1.8028 -2.1610 -2.1275
  352MOL0     H46405   0.372   7.817   4.147 -1.8753 -2.0845  1.1773
  352MOL0     H46406   0.543   7.853   4.164 -0.4681  0.7693 -0.1563
  352MOL0     H46407   0.397   7.733   4.352 -1.5284 -2.0460 -1.9998
  352MOL0     H46408   0.406   7.591   4.247 -3.4062  1.3366  0.1769
  352MOL0     H46409   0.631   7.755   4.325  0.2748 -0.2892 -1.3889
  352MOL0     H46410   0.644   7.590   4.262  0.5916  0.9966 -1.7341
  352MOL0     H46411   0.523   7.495   4.463 -2.4372 -1.0582  2.3251
  352MOL0     H46412   0.520   7.653   4.535  0.7429  0.1556 -0.7532
  352MOL0     H46413   0.780   7.657   4.533 -0.2208 -0.9112  0.2373
  352MOL0     H46414   0.696   7.566   4.652  0.0688 -0.1822  1.1625
  352MOL0     H46415   0.829   7.450   4.425 -0.1329  0.9328  0.2352
  352MOL0     H46416   0.706   7.361   4.531  1.1893 -1.9443  0.0245
  352MOL0     H46417   0.897   7.568   4.784 -0.3172  0.9444 -1.7436
  352MOL0     H46418   1.068   7.529   4.968 -4.1135 -0.5000 -0.7616
  352MOL0     H46419   1.205   7.479   4.880  1.3579 -0.8318  3.1936
  352MOL0     H46420   1.244   7.328   5.011  0.6953  3.3464  1.9136
  352MOL0     H46421   1.079   7.254   5.007  0.0414 -0.4643  0.1492
  352MOL0     H46422   1.018   7.459   5.167  1.3521  4.8653  3.2701
  352MOL0     H46423   1.101   7.318   5.242  0.0606 -0.4895  0.0438
  352MOL0     H46424   1.251   7.553   5.155 -0.7320 -0.1918 -0.3752
  352MOL0     H46425   1.314   7.412   5.236 -1.8361 -2.0651  5.2058
  352MOL0     H46426   1.211   7.363   5.566 -2.7745  1.5486  0.3529
  352MOL0     H46427   1.357   7.363   5.738 -0.4224 -1.5546 -1.3649
  352MOL0     H46428   1.950   7.694   5.793 -2.7308 -0.2680 -1.5971
  352MOL0     H46429   2.106   7.660   5.962  0.7199 -1.0186 -0.5294
  352MOL0     H46430   2.297   7.339   6.001  1.7611  1.4200  0.6019
  352MOL0     H46431   2.212   7.249   6.134 -0.6456 -0.9378 -3.1268
  352MOL0     H46432   2.455   7.301   6.178 -0.2454 -0.2827  0.1976
  352MOL0     H46433   2.349   7.376   6.292 -0.0829 -0.0591  0.2088
  352MOL0     H46434   2.550   7.510   6.182 -0.7949  0.3950  2.0820
  352MOL0     H46435   2.399   7.596   6.178  1.3437 -0.2955  1.0289
  352MOL0     H46436   2.539   7.429   5.961 -0.5872 -1.8611  2.5776
  352MOL0     H46437   2.388   7.536   5.937  0.2928 -0.3373 -0.5341
  352MOL0     H46438   2.675   7.606   5.962 -0.3772  0.7833 -0.2521
  352MOL0     H46439   2.556   7.732   6.008  3.9401  2.1870 -0.9921
  352MOL0     H46440   2.552   7.574   5.734  4.1787 -0.7365 -1.6484
  352MOL0     H46441   2.645   7.708   5.754  0.4624 -2.5452 -1.9784
  352MOL0     H46442   2.339   7.713   5.847  1.3572 -0.5990  1.5490
  352MOL0     H46443   2.440   7.849   5.805 -1.1530 -0.3619  0.9424
  352MOL0     H46444   2.481   7.748   5.574  1.7630 -1.1434  1.0239
  352MOL0     H46445   2.335   7.830   5.605  1.5900 -0.4083 -1.5843
  352MOL0     H46446   1.977   7.262   6.018  2.2943 -1.6238 -4.2265
  352MOL0     H46447   1.792   7.295   5.867 -1.0312 -0.9159 -1.5868
  352MOL0     H46448   1.582   7.684   5.547  0.2428  1.7466  3.8374
  352MOL0     H46449   1.437   7.657   5.364 -2.6921  0.8370 -0.5884
  352MOL0     H46450   0.565   7.997   3.734 -0.7718 -0.5392  2.7139
  352MOL0     H46451   0.464   8.197   3.601  0.7256 -0.5190 -0.7959
  352MOL0     H46452   0.301   8.588   3.561  0.0599 -2.5541  0.4853
  352MOL0     H46453   0.227   8.761   3.376 -3.4736  1.9317  2.9896
  352MOL0     H46454  -0.104   8.682   3.120  0.7515  2.0876 -1.1727
  352MOL0     H46455   0.008   8.596   3.026  2.1311  0.9042 -1.5240
  352MOL0     H46456   0.002   8.900   3.021 -0.1080 -2.0630  3.2901
  352MOL0     H46457   0.108   8.802   2.923  1.2366  2.3544  1.7166
  352MOL0     H46458  -0.099   8.686   2.815 -0.1632 -0.2394 -0.3124
  352MOL0     H46459  -0.058   8.853   2.765 -1.2258 -1.2508 -0.7440
  352MOL0     H46460  -0.234   8.901   2.980 -0.4489 -0.9120  1.3310
  352MOL0     H46461  -0.279   8.896   2.809 -0.0566  0.4414  1.3255
  352MOL0     H46462  -0.408   8.528   2.973 -0.8151  0.0785  0.2724
  352MOL0     H46463  -0.030   8.477   3.214  0.1166  0.0643  0.6130
  352MOL0     H46464   0.032   8.311   3.387  0.4269 -0.9914  0.8170
  353MOL0     O46465   9.310   9.980   3.285  0.0459 -0.6534  0.2203
  353MOL0     C46466   9.324   9.917   3.390 -0.6028 -0.0025 -1.0907
  353MOL0     O46467   9.279   9.951   3.519  0.0515  0.1933 -0.3048
  353MOL0     C46468   9.197  10.058   3.545 -0.3085 -0.3512 -0.3607
  353MOL0     C46469   9.092  10.118   3.468 -1.6576  0.5494  0.0474
  353MOL0     C46470   9.009  10.220   3.518 -0.1462  0.8048 -0.1647
  353MOL0     C46471   9.025  10.256   3.647  0.2983 -0.2100 -0.1541
  353MOL0     O46472   8.959  10.361   3.705  0.2832  0.4733 -0.0543
  353MOL0     C46473   8.835  10.327   3.780 -0.0176 -0.3587  0.0511
  353MOL0     C46474   8.791  10.450   3.859  0.0956  0.7837 -0.1059
  353MOL0     C46475   8.751  10.562   3.771  1.1352 -0.5494 -1.2958
  353MOL0     C46476   8.596  10.550   3.743  0.1651 -0.5492 -0.2886
  353MOL0     C46477   8.542  10.652   3.630  0.7726  0.8219  0.1327
  353MOL0     C46478   8.606  10.623   3.494 -0.0886 -0.0429  0.4182
  353MOL0     C46479   8.520  10.691   3.379  0.3782  0.2663  0.4719
  353MOL0     C46480   8.609  10.759   3.279  0.0171  0.7353 -0.1712
  353MOL0     N46481   8.533  10.812   3.162 -0.3606 -0.0760  0.9003
  353MOL0     C46482   8.538  10.765   3.035  0.3274 -0.1588  0.2455
  353MOL0     C46483   8.465  10.859   2.970  0.0779  0.6641 -0.1335
  353MOL0     C46484   8.436  10.849   2.826  0.0256  0.4628  0.5343
  353MOL0     C46485   8.283  10.852   2.800  0.2002  1.0538 -0.5235
  353MOL0     C46486   8.218  10.721   2.844  0.4211  0.4517 -0.3658
  353MOL0     C46487   8.062  10.737   2.815 -0.3855  0.2247 -0.5912
  353MOL0     O46488   7.991  10.613   2.848  0.5257 -0.5265  0.7333
  353MOL0     C46489   7.862  10.609   2.801  0.1587  0.6187 -0.5828
  353MOL0     C46490   7.792  10.487   2.833  0.0831 -0.4255 -0.7814
  353MOL0     C46491   7.659  10.474   2.791  0.8585  0.0789 -0.4437
  353MOL0     C46492   7.605  10.571   2.710 -0.3295 -0.9915  0.3947
  353MOL0     C46493   7.469  10.542   2.654 -0.4091  0.4519  0.0074
  353MOL0     O46494   7.392  10.444   2.722  0.0256  0.2410 -0.0955
  353MOL0     C46495   7.256  10.455   2.692 -0.2406 -0.8958 -0.0932
  353MOL0     C46496   7.186  10.573   2.686 -0.1576 -0.3681  0.7022
  353MOL0     C46497   7.049  10.566   2.654  0.4380 -0.5403 -0.4462
  353MOL0     C46498   6.982  10.447   2.633 -0.1208  0.5453 -0.4338
  353MOL0     O46499   6.853  10.437   2.597 -0.4606  0.7303  0.5243
  353MOL0     C46500   6.761  10.550   2.603 -0.3867 -0.4741 -0.2081
  353MOL0     C46501   6.625  10.518   2.554 -1.1628 -1.0267  0.7056
  353MOL0     C46502   6.570  10.399   2.620 -0.4349  0.3369 -0.3802
  353MOL0     C46503   6.431  10.383   2.571  0.3442  0.4451 -0.1285
  353MOL0     C46504   6.335  10.311   2.672 -0.5119  0.4837 -0.2841
  353MOL0     C46505   6.371  10.175   2.725 -1.1106 -0.0075  0.3167
  353MOL0     C46506   6.397  10.068   2.616 -0.0214 -0.2454 -0.2922
  353MOL0     C46507   6.408   9.922   2.659 -0.8071 -0.3238  1.2366
  353MOL0    Cl46508   6.473   9.854   2.505 -0.8358  0.3864  0.0124
  353MOL0     C46509   7.048  10.326   2.646  0.0550  0.1254  0.4166
  353MOL0     C46510   7.190  10.330   2.672  0.6826  0.8010 -0.6552
  353MOL0     O46511   7.429  10.611   2.562 -0.1962  0.4937  0.4963
  353MOL0     C46512   7.660  10.697   2.694  0.0681  0.0829  1.4356
  353MOL0     C46513   7.799  10.711   2.733  0.2980 -0.0711  1.3697
  353MOL0     N46514   8.442  10.971   3.045  0.1918 -0.1740 -0.4149
  353MOL0     N46515   8.478  10.933   3.166  0.2093  0.4252  0.6032
  353MOL0     C46516   9.110  10.186   3.731  0.7059  0.7906 -0.6257
  353MOL0     C46517   9.202  10.094   3.682  0.9036 -0.3661  0.1628
  353MOL0     C46518   9.419   9.807   3.376  0.7550  0.2189 -0.7112
  353MOL0     C46519   9.458   9.747   3.506  0.3931  0.1907 -0.1417
  353MOL0     C46520   9.535   9.636   3.498 -0.3143  0.4148  0.4516
  353MOL0     C46521   9.577   9.575   3.377 -0.7763  0.3914  0.7770
  353MOL0     O46522   9.660   9.466   3.359 -0.1930  0.3114 -0.0752
  353MOL0     C46523   9.724   9.396   3.471 -0.3242 -0.7494  0.1236
  353MOL0     C46524   9.649   9.279   3.516  0.4138  0.0100 -0.1591
  353MOL0     C46525   9.728   9.185   3.614 -0.3695  0.4948 -0.7247
  353MOL0     C46526   9.632   9.106   3.702  0.6482  0.5929 -0.0392
  353MOL0     C46527   9.557   9.183   3.800  1.4937 -0.5072 -0.3405
  353MOL0     C46528   9.493   9.212   3.899 -0.4887 -0.2505  0.5344
  353MOL0     C46529   9.540   9.641   3.257 -0.0006  0.1388  0.2272
  353MOL0     C46530   9.468   9.760   3.253 -0.5684  0.3733  0.1582
  353MOL0     H46531   9.063  10.073   3.373 -0.7653  0.3649 -0.1518
  353MOL0     H46532   8.929  10.254   3.453 -0.3915 -0.2219 -0.4264
  353MOL0     H46533   8.855  10.241   3.844  0.3109 -3.2917 -3.6155
  353MOL0     H46534   8.755  10.297   3.712  0.5847 -2.8823  0.3627
  353MOL0     H46535   8.880  10.483   3.912 -0.1642  1.2872  0.0206
  353MOL0     H46536   8.715  10.425   3.934 -0.3166  0.7114 -0.5447
  353MOL0     H46537   8.804  10.567   3.676 -0.9861 -1.5450 -2.6137
  353MOL0     H46538   8.767  10.657   3.823 -0.2000 -0.1499 -1.5815
  353MOL0     H46539   8.572  10.445   3.724  1.3900 -0.9063 -0.0091
  353MOL0     H46540   8.553  10.582   3.838  2.9954  0.3778  0.7858
  353MOL0     H46541   8.560  10.755   3.662 -0.9493  1.5244 -1.0078
  353MOL0     H46542   8.434  10.645   3.615  0.7203 -0.3472  0.9336
  353MOL0     H46543   8.605  10.514   3.481  2.2094 -0.2177  1.2072
  353MOL0     H46544   8.713  10.647   3.492  0.6515 -2.6848  2.4320
  353MOL0     H46545   8.472  10.613   3.321 -2.4182  1.0555  1.5771
  353MOL0     H46546   8.443  10.758   3.419 -0.5448  1.7669 -3.3990
  353MOL0     H46547   8.687  10.687   3.252 -0.8344 -0.2520 -0.0585
  353MOL0     H46548   8.663  10.841   3.326  1.5678 -1.0721  1.3886
  353MOL0     H46549   8.578  10.671   2.999 -1.7791 -1.5286  1.3256
  353MOL0     H46550   8.473  10.762   2.771 -1.2743  1.3287 -1.8845
  353MOL0     H46551   8.479  10.935   2.776  0.9021 -0.6162 -0.6380
  353MOL0     H46552   8.281  10.871   2.692 -1.1060  1.0327 -0.5196
  353MOL0     H46553   8.229  10.935   2.847 -0.0751  1.7009 -1.9189
  353MOL0     H46554   8.249  10.638   2.779 -0.6265 -0.3589  0.1523
  353MOL0     H46555   8.236  10.687   2.946 -0.5381  2.0557  0.3591
  353MOL0     H46556   8.034  10.762   2.712 -2.3328 -1.3823 -0.4911
  353MOL0     H46557   8.032  10.823   2.876  0.9702  0.7480 -0.6174
  353MOL0     H46558   7.833  10.398   2.880  0.5987 -2.4848 -4.6982
  353MOL0     H46559   7.613  10.378   2.813  0.3961  0.6474  1.2558
  353MOL0     H46560   7.236  10.669   2.693  1.5503 -1.3003  2.3076
  353MOL0     H46561   6.993  10.659   2.649  2.4142  0.8676  1.2655
  353MOL0     H46562   6.795  10.630   2.537 -1.7889 -1.5400 -2.3297
  353MOL0     H46563   6.767  10.604   2.698 -1.7692 -2.5915  1.1871
  353MOL0     H46564   6.630  10.498   2.447 -2.3367  0.3085  0.3710
  353MOL0     H46565   6.569  10.611   2.569  2.5749  1.3349  1.3648
  353MOL0     H46566   6.576  10.406   2.729 -1.5765 -2.0967 -0.0787
  353MOL0     H46567   6.633  10.313   2.597 -1.9135 -0.5622 -1.2419
  353MOL0     H46568   6.384  10.481   2.565 -1.1731 -0.1744  0.9466
  353MOL0     H46569   6.440  10.344   2.469  0.1297  0.5357 -0.1808
  353MOL0     H46570   6.248  10.302   2.605  1.6190 -0.6141 -3.1170
  353MOL0     H46571   6.300  10.372   2.756  3.4364  2.3966  0.1813
  353MOL0     H46572   6.299  10.121   2.787  1.2206 -1.8070  1.6156
  353MOL0     H46573   6.465  10.174   2.781 -0.9500 -2.2550  0.1075
  353MOL0     H46574   6.310  10.080   2.551 -0.4908 -1.5284  0.0827
  353MOL0     H46575   6.488  10.091   2.560 -1.2483  1.6570 -1.6141
  353MOL0     H46576   6.308   9.887   2.685  0.1401 -2.5037  2.1896
  353MOL0     H46577   6.473   9.912   2.747 -1.2515  1.8062  1.8497
  353MOL0     H46578   6.987  10.237   2.631  1.3769 -1.1966  2.4639
  353MOL0     H46579   7.227  10.229   2.688 -2.9317 -0.6068 -0.0995
  353MOL0     H46580   7.608  10.781   2.649  0.5893 -0.7477 -0.8608
  353MOL0     H46581   7.844  10.806   2.710  1.9927 -1.0762  0.3021
  353MOL0     H46582   9.088  10.206   3.836 -4.0432 -3.3004 -0.4655
  353MOL0     H46583   9.260  10.048   3.761  0.0802  4.0623  3.8425
  353MOL0     H46584   9.420   9.775   3.604 -1.5704 -1.4220 -0.3753
  353MOL0     H46585   9.560   9.582   3.589 -2.4724 -5.1401 -1.7965
  353MOL0     H46586   9.741   9.468   3.552 -2.5727  2.2351 -1.8240
  353MOL0     H46587   9.822   9.354   3.445 -0.7265 -1.0217 -1.0359
  353MOL0     H46588   9.551   9.309   3.553  0.1895 -0.6052 -0.2434
  353MOL0     H46589   9.618   9.223   3.427 -1.6971 -2.5128  1.9858
  353MOL0     H46590   9.794   9.250   3.673 -1.0588  2.9621 -2.4658
  353MOL0     H46591   9.781   9.116   3.548 -0.8458 -0.4163 -0.1683
  353MOL0     H46592   9.566   9.047   3.639 -3.5341  0.3437  4.0488
  353MOL0     H46593   9.696   9.038   3.759 -2.2108 -2.0869  0.2261
  353MOL0     H46594   9.442   9.252   3.985  0.7671 -0.6307  1.4872
  353MOL0     H46595   9.561   9.610   3.155 -2.6084  1.1608 -0.7244
  353MOL0     H46596   9.443   9.800   3.155  0.5340 -1.4725 -0.9144
  354MOL0     O46597  10.824  10.000   6.396 -0.0995 -0.2652  0.1543
  354MOL0     C46598  10.862  10.102   6.330 -0.0819 -0.7987  0.2848
  354MOL0     O46599  10.981  10.169   6.343  0.8854  0.3105  0.1800
  354MOL0     C46600  11.085  10.116   6.406 -0.1830  0.1113  0.6119
  354MOL0     C46601  11.142   9.998   6.350 -0.1793 -0.0884 -0.5982
  354MOL0     C46602  11.268   9.947   6.404  0.5401  0.7250  0.0719
  354MOL0     C46603  11.328  10.014   6.504 -0.7307 -0.0795  0.0812
  354MOL0     O46604  11.441   9.946   6.559  0.4985 -0.1064  0.1298
  354MOL0     C46605  11.566  10.015   6.574 -0.4029 -1.1110 -0.0883
  354MOL0     C46606  11.662   9.983   6.452  0.4991  0.9184 -0.8398
  354MOL0     C46607  11.605  10.050   6.334  0.1726 -0.1803  0.4913
  354MOL0     C46608  11.696  10.036   6.218 -0.2316  0.1738  1.6875
  354MOL0     C46609  11.630  10.086   6.090 -0.0299  0.0592  0.8096
  354MOL0     C46610  11.702  10.061   5.957  1.0552 -0.1783 -0.2409
  354MOL0     C46611  11.849  10.108   5.950  0.4539  1.0424 -0.9994
  354MOL0     C46612  11.889  10.122   5.805  0.1880 -0.2234  0.1102
  354MOL0     N46613  12.020  10.188   5.788  0.5652  0.7597 -0.6166
  354MOL0     C46614  12.053  10.318   5.763  1.0137  0.0873  0.4068
  354MOL0     C46615  12.177  10.335   5.797 -0.6982 -0.7269 -0.1348
  354MOL0     C46616  12.259  10.462   5.786  0.3011 -0.7971 -0.4970
  354MOL0     C46617  12.330  10.483   5.646 -0.3186  0.4764 -0.0671
  354MOL0     C46618  12.418  10.611   5.643  0.7704 -0.5863  0.0507
  354MOL0     C46619  12.331  10.727   5.618  0.1162 -0.7314  0.1402
  354MOL0     O46620  12.281  10.724   5.486 -0.4947 -0.7693 -0.0896
  354MOL0     C46621  12.193  10.819   5.435 -0.5775 -0.7903  0.2123
  354MOL0     C46622  12.151  10.929   5.508 -0.7932 -1.1256 -0.4042
  354MOL0     C46623  12.056  11.018   5.450  0.2677 -0.4095 -1.1634
  354MOL0     C46624  11.984  10.994   5.332  0.4480  0.2052  1.0052
  354MOL0     C46625  11.888  11.087   5.262 -1.1213  0.6737 -0.6407
  354MOL0     O46626  11.800  11.027   5.190 -0.1063  0.3805 -0.2310
  354MOL0     C46627  11.670  11.062   5.201 -0.0497 -0.7123  0.5144
  354MOL0     C46628  11.599  11.133   5.103 -0.6090  0.8693  0.3011
  354MOL0     C46629  11.472  11.173   5.124 -0.2097  0.8536 -0.5531
  354MOL0     C46630  11.403  11.129   5.243  0.1031 -0.2618  0.3101
  354MOL0     O46631  11.274  11.151   5.269  0.4520 -0.1412 -0.3906
  354MOL0     C46632  11.184  11.212   5.171  0.4131  0.9351 -0.3618
  354MOL0     C46633  11.047  11.187   5.228 -0.2632  0.5693  1.0863
  354MOL0     C46634  11.010  11.035   5.209  0.7890  0.3190 -1.0427
  354MOL0     C46635  10.938  10.996   5.334 -0.4518  0.0827 -0.4898
  354MOL0     C46636  10.936  10.845   5.369 -0.8825 -0.3814 -0.5824
  354MOL0     C46637  11.076  10.796   5.432  0.0971 -0.9414  0.0371
  354MOL0     C46638  11.138  10.907   5.522  1.0889 -1.0025  0.0660
  354MOL0     C46639  11.239  10.861   5.623 -0.1902 -0.3428 -0.0523
  354MOL0    Cl46640  11.368  10.790   5.521 -0.1380 -0.2901  0.5855
  354MOL0     C46641  11.472  11.059   5.340 -0.0386 -0.7163  0.6482
  354MOL0     C46642  11.604  11.020   5.315 -1.2084  1.1481 -1.0457
  354MOL0     O46643  11.895  11.207   5.286 -0.3506 -0.5123 -0.4271
  354MOL0     C46644  12.021  10.878   5.261  0.1563 -0.0673 -0.9268
  354MOL0     C46645  12.123  10.798   5.316 -0.5576  0.4073  0.4549
  354MOL0     N46646  12.224  10.218   5.848  0.0527 -0.3389  0.0526
  354MOL0     N46647  12.130  10.124   5.839 -0.0645  0.1211 -0.3353
  354MOL0     C46648  11.284  10.138   6.555 -0.8978 -0.2609  0.1832
  354MOL0     C46649  11.160  10.190   6.502  0.5739 -0.3082  0.6473
  354MOL0     C46650  10.769  10.170   6.238  0.6649 -0.6856 -0.3763
  354MOL0     C46651  10.804  10.289   6.175 -0.1329 -0.3529  0.0828
  354MOL0     C46652  10.713  10.370   6.103  0.8247  0.2483  0.2807
  354MOL0     C46653  10.596  10.311   6.068 -0.2118 -0.1366  0.1485
  354MOL0     O46654  10.515  10.391   5.989 -0.0492  0.0680 -0.4595
  354MOL0     C46655  10.380  10.350   5.980  0.4584  0.8610  0.0199
  354MOL0     C46656  10.304  10.438   5.879 -0.9023  0.6745 -0.3838
  354MOL0     C46657  10.304  10.578   5.915 -0.8037 -0.4919 -0.4766
  354MOL0     C46658  10.213  10.673   5.828 -0.9408 -0.0791  1.2637
  354MOL0     C46659  10.080  10.635   5.836 -0.7764 -1.1830 -0.2191
  354MOL0     C46660   9.963  10.624   5.860 -0.2578  0.1972 -0.5432
  354MOL0     C46661  10.569  10.182   6.121  0.1542  0.4679 -0.2268
  354MOL0     C46662  10.649  10.108   6.210  0.1204  1.1800  0.5803
  354MOL0     H46663  11.097   9.945   6.267  0.5084  0.8890 -1.6308
  354MOL0     H46664  11.310   9.856   6.362 -1.1725  0.5734 -1.4641
  354MOL0     H46665  11.620   9.984   6.664 -0.2094  1.6812  0.8619
  354MOL0     H46666  11.537  10.119   6.588  0.1742 -1.3072  3.2294
  354MOL0     H46667  11.672   9.876   6.436  4.1960  0.3637  3.3960
  354MOL0     H46668  11.759  10.027   6.474  0.0333  0.9230  1.3958
  354MOL0     H46669  11.582  10.156   6.347 -1.9273 -0.7663  2.0093
  354MOL0     H46670  11.512  10.002   6.304  1.1309 -3.4297  2.1773
  354MOL0     H46671  11.786  10.096   6.238  0.3950 -0.1687  0.0464
  354MOL0     H46672  11.738   9.936   6.209 -1.1899 -0.0873 -0.3415
  354MOL0     H46673  11.620  10.193   6.113  0.4557 -0.1094  1.8581
  354MOL0     H46674  11.526  10.054   6.092 -0.1979  0.5678  0.5618
  354MOL0     H46675  11.642  10.124   5.891  0.6174 -0.3987 -0.0568
  354MOL0     H46676  11.684   9.955   5.938 -1.2903 -0.2534  1.8563
  354MOL0     H46677  11.873  10.202   6.002  2.1242  2.1554 -3.5579
  354MOL0     H46678  11.898  10.027   6.005 -1.0796 -0.1277 -1.2835
  354MOL0     H46679  11.814  10.185   5.755 -0.5354  0.2288  1.7101
  354MOL0     H46680  11.888  10.029   5.748 -0.0309 -0.5629  0.6700
  354MOL0     H46681  11.983  10.392   5.725 -3.1352 -3.1778  0.9713
  354MOL0     H46682  12.336  10.473   5.864  0.5547  1.7439 -1.0136
  354MOL0     H46683  12.179  10.531   5.814 -0.7351 -1.7047 -1.1445
  354MOL0     H46684  12.259  10.474   5.563 -0.4384  1.7889 -0.1255
  354MOL0     H46685  12.399  10.399   5.644 -1.2265 -0.2902 -0.1805
  354MOL0     H46686  12.468  10.607   5.740 -3.1034 -4.0995  2.2431
  354MOL0     H46687  12.483  10.588   5.558  4.5363  2.1114  1.9338
  354MOL0     H46688  12.384  10.822   5.624 -1.0622  0.4951 -4.9114
  354MOL0     H46689  12.252  10.729   5.694  0.1568  1.8995  0.2081
  354MOL0     H46690  12.170  10.943   5.614 -1.2858  0.8958 -0.5286
  354MOL0     H46691  12.008  11.089   5.517 -0.9112  0.4083 -2.7859
  354MOL0     H46692  11.661  11.139   5.014  2.3196 -2.7796  1.8339
  354MOL0     H46693  11.432  11.237   5.046  0.5271  0.9608 -0.8551
  354MOL0     H46694  11.203  11.177   5.069 -1.4784  3.1752 -1.5983
  354MOL0     H46695  11.191  11.321   5.168  1.0085  0.9193 -3.7179
  354MOL0     H46696  10.982  11.248   5.165  2.5270  0.8972 -1.7331
  354MOL0     H46697  11.036  11.222   5.331 -1.8520 -1.3198  1.6254
  354MOL0     H46698  11.097  10.971   5.191  0.3808 -0.0206 -1.8714
  354MOL0     H46699  10.954  11.028   5.116  3.5936 -1.5147 -2.7349
  354MOL0     H46700  10.977  11.054   5.417  0.3956 -0.5394 -0.4422
  354MOL0     H46701  10.832  11.023   5.325  0.1332  3.7608  1.8656
  354MOL0     H46702  10.917  10.789   5.278  2.1996  0.8995 -2.1576
  354MOL0     H46703  10.858  10.821   5.442  0.1682  0.1154  0.7472
  354MOL0     H46704  11.158  10.772   5.364  0.8217 -0.2916  0.6538
  354MOL0     H46705  11.052  10.705   5.488 -0.5236 -1.4771 -1.0792
  354MOL0     H46706  11.179  10.990   5.464  0.3704 -1.5131 -1.1942
  354MOL0     H46707  11.065  10.949   5.592  0.3794 -1.7224 -0.2302
  354MOL0     H46708  11.192  10.779   5.677 -1.0082  0.6671  0.8116
  354MOL0     H46709  11.261  10.941   5.694 -0.9506 -1.0355  0.9843
  354MOL0     H46710  11.419  11.028   5.429 -2.1516  2.7181  0.7482
  354MOL0     H46711  11.651  10.970   5.399 -0.8363  3.2826  0.0821
  354MOL0     H46712  11.971  10.846   5.171 -1.4568 -2.3187  0.6649
  354MOL0     H46713  12.163  10.710   5.268  2.0636  1.8892 -0.2456
  354MOL0     H46714  11.331  10.187   6.640  1.3162  1.9045 -2.1186
  354MOL0     H46715  11.129  10.291   6.526  0.1358 -0.2764 -0.0383
  354MOL0     H46716  10.906  10.324   6.193  0.3669 -1.9998  0.6530
  354MOL0     H46717  10.733  10.467   6.060  1.5191 -1.0674 -2.6260
  354MOL0     H46718  10.333  10.359   6.078  0.4474  0.9127  0.0100
  354MOL0     H46719  10.364  10.250   5.940  1.5983  0.8978 -0.5719
  354MOL0     H46720  10.328  10.423   5.773  2.9027 -0.3005  0.4548
  354MOL0     H46721  10.208  10.390   5.901 -0.2308 -0.9626 -0.8817
  354MOL0     H46722  10.402  10.619   5.943 -1.0450  1.4410 -2.1970
  354MOL0     H46723  10.261  10.569   6.015  1.5790 -0.6992  0.6048
  354MOL0     H46724  10.228  10.780   5.846  2.5956  0.1795 -1.9735
  354MOL0     H46725  10.254  10.653   5.728 -2.3388 -1.2825  0.8960
  354MOL0     H46726   9.863  10.602   5.892 -1.3463  3.6799 -1.1713
  354MOL0     H46727  10.482  10.129   6.085 -1.3378  3.4757 -1.4428
  354MOL0     H46728  10.615  10.013   6.249  0.2675  1.8325  2.3765
  355MOL0     O46729   4.622   1.297   0.411  0.3806  0.6234  0.8595
  355MOL0     C46730   4.580   1.194   0.458  0.5726  0.2238 -0.1817
  355MOL0     O46731   4.659   1.079   0.481 -0.1449 -0.9805 -0.0336
  355MOL0     C46732   4.800   1.073   0.472 -0.4207 -0.6806 -0.0295
  355MOL0     C46733   4.885   1.176   0.519  0.2581 -0.3705  0.0481
  355MOL0     C46734   5.030   1.172   0.492  0.3623 -0.6526 -1.0555
  355MOL0     C46735   5.087   1.063   0.439 -0.0256 -0.0448  0.4803
  355MOL0     O46736   5.231   1.056   0.437 -0.7457  0.0351 -0.4747
  355MOL0     C46737   5.286   0.932   0.476  0.0430 -0.0049  0.8729
  355MOL0     C46738   5.430   0.949   0.500  0.1119 -1.1146  0.4231
  355MOL0     C46739   5.496   0.829   0.547 -0.3921 -0.1888  0.0236
  355MOL0     C46740   5.619   0.867   0.627  0.2918  0.2189  0.2448
  355MOL0     C46741   5.728   0.762   0.597 -0.5483 -0.0863 -0.8901
  355MOL0     C46742   5.838   0.783   0.712 -0.0058 -0.5991 -0.0181
  355MOL0     C46743   5.961   0.698   0.703  0.0209 -0.5070  0.4200
  355MOL0     C46744   6.049   0.716   0.578 -0.5166 -0.3943  0.5032
  355MOL0     N46745   6.178   0.651   0.598 -0.4020 -0.0964 -0.7209
  355MOL0     C46746   6.290   0.720   0.639  0.0421 -0.1402  0.3799
  355MOL0     C46747   6.386   0.632   0.622  0.0326  0.2873  0.2863
  355MOL0     C46748   6.537   0.658   0.657 -0.8190 -0.0611  0.1866
  355MOL0     C46749   6.578   0.802   0.701  0.1779  0.8233  0.0507
  355MOL0     C46750   6.522   0.839   0.840  0.5470  0.2112 -0.6511
  355MOL0     C46751   6.513   0.995   0.876  0.4913  0.7572  0.0805
  355MOL0     O46752   6.429   1.023   0.992 -0.1283  0.2830  0.2888
  355MOL0     C46753   6.305   1.081   0.974  0.7184 -0.4090  0.4377
  355MOL0     C46754   6.271   1.194   1.050 -0.6190  0.0709 -0.1969
  355MOL0     C46755   6.144   1.258   1.038 -0.3940  0.5039 -0.5671
  355MOL0     C46756   6.052   1.201   0.957 -0.3158  0.6036 -0.3118
  355MOL0     C46757   5.924   1.255   0.927  0.1394  0.9069  0.6493
  355MOL0     O46758   5.831   1.186   0.844 -0.2408  0.7087 -0.7383
  355MOL0     C46759   5.719   1.252   0.807  0.6879 -0.7033 -1.0590
  355MOL0     C46760   5.729   1.386   0.761  0.0535 -1.2625  0.9182
  355MOL0     C46761   5.609   1.462   0.733 -0.1615  0.7943  0.2608
  355MOL0     C46762   5.483   1.412   0.750 -0.1572 -0.3291  0.5789
  355MOL0     O46763   5.366   1.488   0.724  0.0967  1.1279  0.5876
  355MOL0     C46764   5.382   1.624   0.683  0.1646  0.7329  0.3575
  355MOL0     C46765   5.242   1.685   0.709 -0.4291 -0.4131 -0.3551
  355MOL0     C46766   5.128   1.612   0.639  0.6355  0.2544  1.0561
  355MOL0     C46767   5.013   1.704   0.657  0.6778  0.1619  0.4476
  355MOL0     C46768   4.886   1.626   0.621  0.0221 -0.0330  0.2428
  355MOL0     C46769   4.770   1.717   0.623  0.3951 -0.2832 -0.1501
  355MOL0     C46770   4.719   1.751   0.766  0.2747 -0.4123  0.1368
  355MOL0     C46771   4.582   1.811   0.764 -0.1707  0.2128  0.4448
  355MOL0    Cl46772   4.570   1.981   0.721 -0.0012 -0.7175  0.1057
  355MOL0     C46773   5.478   1.276   0.786 -0.4512  0.4832  0.1940
  355MOL0     C46774   5.585   1.196   0.814 -0.5519  0.4103 -1.3557
  355MOL0     O46775   5.900   1.357   0.988  0.0597 -0.2092  0.3782
  355MOL0     C46776   6.088   1.086   0.876 -0.4970  0.1559  0.4946
  355MOL0     C46777   6.212   1.027   0.891 -0.0819 -0.1088  0.6107
  355MOL0     N46778   6.334   0.513   0.577  0.6221 -0.0583 -0.1329
  355MOL0     N46779   6.207   0.523   0.576  0.9333  0.6998  1.4381
  355MOL0     C46780   5.004   0.956   0.407  0.0599  0.7141  0.7650
  355MOL0     C46781   4.862   0.973   0.404 -0.9884  0.7511  1.2368
  355MOL0     C46782   4.429   1.181   0.479 -0.8628  0.2571  0.3999
  355MOL0     C46783   4.338   1.268   0.416  1.0256  0.3399  0.6101
  355MOL0     C46784   4.198   1.239   0.417  0.4903 -0.6504  0.4957
  355MOL0     C46785   4.150   1.130   0.483  0.5812 -0.2217  0.2746
  355MOL0     O46786   4.007   1.109   0.467 -0.6849  0.1243 -0.1154
  355MOL0     C46787   3.945   0.986   0.516  0.3856 -0.0926  0.1311
  355MOL0     C46788   3.845   0.936   0.411 -0.2531  1.2701 -0.8014
  355MOL0     C46789   3.774   0.804   0.437  0.4163  0.2147 -0.4446
  355MOL0     C46790   3.843   0.673   0.427 -0.5520  0.5338 -0.5446
  355MOL0     C46791   3.957   0.655   0.525  0.4207 -0.1667  0.0263
  355MOL0     C46792   4.041   0.665   0.614  0.1218 -0.7106  0.3927
  355MOL0     C46793   4.247   1.061   0.555  0.0673  0.1720  1.7343
  355MOL0     C46794   4.382   1.073   0.543 -0.7516  0.2805 -1.3215
  355MOL0     H46795   4.842   1.262   0.570  3.1679  1.3642 -0.1367
  355MOL0     H46796   5.087   1.254   0.534 -0.1786 -0.6453 -0.3201
  355MOL0     H46797   5.265   0.843   0.416  1.0934 -0.0375  0.5226
  355MOL0     H46798   5.240   0.913   0.573 -0.6379  1.1140  0.7764
  355MOL0     H46799   5.447   1.029   0.572  2.3504 -0.4466 -0.7490
  355MOL0     H46800   5.480   0.976   0.406  3.7120 -0.0456  2.4252
  355MOL0     H46801   5.512   0.766   0.459 -2.4512 -1.7469  0.6825
  355MOL0     H46802   5.429   0.776   0.615 -0.7077  0.3009  0.1047
  355MOL0     H46803   5.654   0.969   0.606 -4.4636  2.5022  2.0652
  355MOL0     H46804   5.579   0.869   0.728 -2.3764  0.9416 -0.7525
  355MOL0     H46805   5.767   0.779   0.496 -0.1521 -0.6141 -0.8284
  355MOL0     H46806   5.700   0.657   0.581  1.1276 -0.6179 -0.4752
  355MOL0     H46807   5.791   0.762   0.809 -1.7533  5.1648  0.7605
  355MOL0     H46808   5.862   0.889   0.721 -1.8562 -0.2618  2.0387
  355MOL0     H46809   6.017   0.703   0.797  0.3260  1.2300  0.1862
  355MOL0     H46810   5.919   0.597   0.698  0.2186 -0.5788  0.1488
  355MOL0     H46811   6.070   0.821   0.554 -0.8742  0.4895  3.5999
  355MOL0     H46812   5.994   0.680   0.491 -0.8799 -0.6318  0.8289
  355MOL0     H46813   6.296   0.825   0.663  1.3500 -0.3046  0.8366
  355MOL0     H46814   6.588   0.635   0.563 -1.9883 -0.2152 -0.4351
  355MOL0     H46815   6.576   0.594   0.738 -0.3755  0.9592  0.7917
  355MOL0     H46816   6.535   0.863   0.620 -0.2144  2.2193  1.2688
  355MOL0     H46817   6.687   0.814   0.702  0.3012  0.1748  2.9216
  355MOL0     H46818   6.425   0.791   0.854  0.3464  0.0638 -2.3256
  355MOL0     H46819   6.582   0.783   0.913  0.7861  1.1478 -0.1201
  355MOL0     H46820   6.469   1.036   0.785 -2.3792 -0.4689  0.8063
  355MOL0     H46821   6.614   1.034   0.889  0.7540  1.0103 -2.3861
  355MOL0     H46822   6.344   1.231   1.122 -0.7030  2.6102 -1.3137
  355MOL0     H46823   6.128   1.347   1.098  2.9560  1.4337 -0.8518
  355MOL0     H46824   5.825   1.432   0.745 -0.2433 -0.8360  0.3585
  355MOL0     H46825   5.645   1.565   0.726 -1.1753  1.1795  0.4636
  355MOL0     H46826   5.408   1.636   0.578  0.0980  1.4719  0.4203
  355MOL0     H46827   5.465   1.672   0.736 -1.5663  2.3993  1.6976
  355MOL0     H46828   5.257   1.784   0.666 -0.9582 -0.3655 -0.4341
  355MOL0     H46829   5.230   1.679   0.817 -1.1543  0.6830 -0.3658
  355MOL0     H46830   5.115   1.518   0.692  1.3293 -0.0220  0.7557
  355MOL0     H46831   5.158   1.586   0.537 -0.0580 -1.7026  1.3262
  355MOL0     H46832   5.011   1.722   0.765 -0.6019 -2.7416  0.9946
  355MOL0     H46833   5.022   1.794   0.595  0.2361  0.0435  0.2110
  355MOL0     H46834   4.872   1.548   0.696  2.6563  1.8457  2.9650
  355MOL0     H46835   4.896   1.595   0.517 -1.9076 -0.4344  0.1378
  355MOL0     H46836   4.683   1.677   0.569  1.2968  0.1357 -1.9623
  355MOL0     H46837   4.795   1.802   0.559 -0.0301 -0.5732 -0.7105
  355MOL0     H46838   4.724   1.656   0.820 -1.9994 -1.9997 -2.2198
  355MOL0     H46839   4.781   1.830   0.810 -0.8527 -0.2288  1.4858
  355MOL0     H46840   4.530   1.792   0.859 -0.9301 -1.6768 -0.2946
  355MOL0     H46841   4.519   1.765   0.688 -1.1602  1.3794  0.5154
  355MOL0     H46842   5.386   1.222   0.805 -0.4572  0.5217  0.2733
  355MOL0     H46843   5.569   1.099   0.860 -2.5942 -0.2819 -3.3390
  355MOL0     H46844   6.037   1.045   0.789  0.7427 -1.5038  0.4971
  355MOL0     H46845   6.238   0.949   0.820 -1.2417 -0.6360  0.7375
  355MOL0     H46846   5.039   0.858   0.376  0.6334  1.1453  0.0150
  355MOL0     H46847   4.811   0.884   0.369 -0.0141  0.3089  0.9043
  355MOL0     H46848   4.378   1.356   0.367 -1.7654  2.7667  2.3355
  355MOL0     H46849   4.127   1.294   0.356 -0.1443  0.1348  1.9046
  355MOL0     H46850   3.884   1.009   0.604 -0.0408  3.0251 -0.8471
  355MOL0     H46851   4.022   0.910   0.530  1.1841  0.5808 -0.4567
  355MOL0     H46852   3.764   1.007   0.391 -0.9100 -0.4487 -5.5340
  355MOL0     H46853   3.896   0.919   0.316  2.1548 -3.6143  1.0235
  355MOL0     H46854   3.705   0.805   0.352  2.6671 -0.3954 -2.4166
  355MOL0     H46855   3.724   0.820   0.533 -0.6273  2.8777 -1.3350
  355MOL0     H46856   3.769   0.596   0.449 -0.5808  0.0753 -2.1300
  355MOL0     H46857   3.883   0.660   0.326  1.0005 -0.2681  0.1336
  355MOL0     H46858   4.110   0.654   0.695 -2.3507 -2.2596  2.4679
  355MOL0     H46859   4.204   0.995   0.630 -3.9401 -1.2066 -1.4106
  355MOL0     H46860   4.447   0.999   0.588 -2.2194 -1.1018 -1.4215
  356MOL0     O46861   6.574   5.928   1.107 -0.1140  0.0565  0.2959
  356MOL0     C46862   6.470   5.947   1.038  0.7470 -0.1981  0.1969
  356MOL0     O46863   6.356   5.867   1.039 -0.3418 -0.8097  0.8587
  356MOL0     C46864   6.351   5.742   1.096 -0.0207  0.2455  1.1033
  356MOL0     C46865   6.458   5.653   1.105 -0.8363 -0.6158  0.7306
  356MOL0     C46866   6.437   5.527   1.162 -1.4929 -0.6153 -0.5350
  356MOL0     C46867   6.314   5.487   1.217  0.8036 -0.3030  0.0255
  356MOL0     O46868   6.299   5.359   1.246 -0.0628  0.6033 -0.5190
  356MOL0     C46869   6.185   5.317   1.326 -0.0896  0.3824 -0.5914
  356MOL0     C46870   6.227   5.181   1.402  0.6043  0.4639  0.3421
  356MOL0     C46871   6.359   5.191   1.479  0.2603 -0.2276  0.0170
  356MOL0     C46872   6.373   5.063   1.542 -0.0445 -0.1098 -0.9669
  356MOL0     C46873   6.499   5.048   1.618  0.0138 -0.9236 -0.2761
  356MOL0     C46874   6.501   4.928   1.722 -0.5761 -0.3986 -0.2966
  356MOL0     C46875   6.652   4.915   1.750 -0.0632  0.1753  0.0146
  356MOL0     C46876   6.675   4.802   1.844 -0.9250 -0.8258 -1.0225
  356MOL0     N46877   6.750   4.840   1.960 -0.1330  0.0389  0.4102
  356MOL0     C46878   6.856   4.926   1.968  0.1107 -0.3116 -1.4921
  356MOL0     C46879   6.909   4.905   2.090  0.2828 -0.1393 -0.6372
  356MOL0     C46880   7.021   4.981   2.154 -0.8035 -1.0090 -0.3068
  356MOL0     C46881   7.005   5.029   2.302  0.2883  0.2578 -0.6790
  356MOL0     C46882   6.880   5.123   2.302 -0.0250  0.5661  0.1741
  356MOL0     C46883   6.890   5.274   2.299 -0.4586 -0.7250 -0.4919
  356MOL0     O46884   6.762   5.329   2.338  0.1775 -0.0555 -0.4316
  356MOL0     C46885   6.759   5.464   2.372 -0.4757 -0.2515  0.7091
  356MOL0     C46886   6.865   5.558   2.351 -0.2473 -0.2856  0.6575
  356MOL0     C46887   6.851   5.692   2.378  0.0430 -0.1252  0.4182
  356MOL0     C46888   6.732   5.737   2.434  0.7598 -0.8802 -0.3748
  356MOL0     C46889   6.711   5.884   2.472 -0.0612 -0.9969  0.2594
  356MOL0     O46890   6.589   5.944   2.451 -0.0226 -1.1159 -0.8519
  356MOL0     C46891   6.578   6.077   2.495  0.4291  0.6679  0.5445
  356MOL0     C46892   6.524   6.110   2.624 -0.8364  0.7638  0.7367
  356MOL0     C46893   6.533   6.242   2.667 -0.8999  0.7447 -0.5900
  356MOL0     C46894   6.585   6.352   2.587  0.0378 -0.5966 -0.4172
  356MOL0     O46895   6.583   6.482   2.631 -0.2406 -0.2976 -0.0362
  356MOL0     C46896   6.600   6.593   2.545 -0.8159 -1.4509  0.0415
  356MOL0     C46897   6.559   6.729   2.623 -0.9000  0.1641 -0.9134
  356MOL0     C46898   6.672   6.761   2.719  0.9084  0.1876 -0.2151
  356MOL0     C46899   6.627   6.873   2.806  0.0625  1.1975  1.0500
  356MOL0     C46900   6.544   6.824   2.930 -0.9380 -0.2858 -0.1358
  356MOL0     C46901   6.636   6.786   3.051 -0.6975 -0.0275  0.4070
  356MOL0     C46902   6.546   6.744   3.169 -1.5406 -0.0906 -0.2680
  356MOL0     C46903   6.646   6.690   3.276 -0.5928 -0.4239 -0.7275
  356MOL0    Cl46904   6.552   6.602   3.407 -0.2230  0.2064 -0.6201
  356MOL0     C46905   6.621   6.310   2.455 -0.2047 -0.1450 -0.4234
  356MOL0     C46906   6.629   6.173   2.413 -0.3641  0.0282 -0.4971
  356MOL0     O46907   6.817   5.937   2.499  0.1854 -0.7316 -0.3921
  356MOL0     C46908   6.625   5.645   2.453  1.0216 -0.1080 -0.2182
  356MOL0     C46909   6.632   5.515   2.416  0.2409  0.5362  0.1015
  356MOL0     N46910   6.826   4.810   2.154  0.5460 -0.2481 -0.6136
  356MOL0     N46911   6.740   4.768   2.071  0.1649 -0.1716 -0.4526
  356MOL0     C46912   6.209   5.584   1.222 -0.5835  1.3664  1.2182
  356MOL0     C46913   6.226   5.707   1.149 -1.2217  0.2563  0.5542
  356MOL0     C46914   6.454   6.059   0.947  0.0128 -0.1055  0.5568
  356MOL0     C46915   6.335   6.078   0.873  0.9458  0.3111 -0.2835
  356MOL0     C46916   6.338   6.178   0.764 -0.8503  0.6982  0.9043
  356MOL0     C46917   6.450   6.257   0.744 -0.3722  0.3809  0.2546
  356MOL0     O46918   6.459   6.347   0.636  0.4686  0.0930 -0.4393
  356MOL0     C46919   6.383   6.319   0.516  0.6599 -0.2211 -0.7416
  356MOL0     C46920   6.268   6.420   0.513 -0.6841 -0.4699  0.2496
  356MOL0     C46921   6.306   6.566   0.507  0.4014  0.6301 -0.4263
  356MOL0     C46922   6.179   6.640   0.559  0.7038 -0.4217 -0.2059
  356MOL0     C46923   6.128   6.609   0.695  0.0648  0.0900  0.5253
  356MOL0     C46924   6.068   6.584   0.794  0.3431  0.0300 -0.2534
  356MOL0     C46925   6.558   6.245   0.824 -0.1091  0.1678 -0.2835
  356MOL0     C46926   6.560   6.150   0.926  0.1462 -0.1963 -0.4933
  356MOL0     H46927   6.552   5.671   1.054 -1.7505 -2.4034 -1.7914
  356MOL0     H46928   6.504   5.441   1.160 -2.1134 -1.1132 -0.3959
  356MOL0     H46929   6.099   5.303   1.261 -1.4618 -2.4972  1.6013
  356MOL0     H46930   6.162   5.394   1.400  2.6475 -0.8790  1.7831
  356MOL0     H46931   6.224   5.108   1.320 -2.1136 -0.6816  1.3426
  356MOL0     H46932   6.150   5.144   1.470 -1.1726 -0.7022 -2.1577
  356MOL0     H46933   6.365   5.270   1.554 -0.2675  0.0805 -0.2568
  356MOL0     H46934   6.442   5.207   1.409 -1.5695  0.0437 -2.2110
  356MOL0     H46935   6.293   5.038   1.612 -0.0847 -2.0802 -1.6525
  356MOL0     H46936   6.367   4.985   1.466  0.9659 -2.6014  1.3556
  356MOL0     H46937   6.530   5.133   1.679 -0.4439 -1.1952  0.3443
  356MOL0     H46938   6.585   5.039   1.550  3.7418 -2.0466  4.1050
  356MOL0     H46939   6.457   4.835   1.687  1.0806 -1.0626 -0.7249
  356MOL0     H46940   6.439   4.950   1.809 -3.8730 -0.2501 -2.5035
  356MOL0     H46941   6.704   4.892   1.657 -0.7311  1.5415 -0.7148
  356MOL0     H46942   6.692   5.011   1.785 -1.0627  1.3375 -1.8785
  356MOL0     H46943   6.728   4.726   1.786 -1.8144 -1.6921 -0.7216
  356MOL0     H46944   6.584   4.747   1.871  0.1683 -2.8767 -1.3032
  356MOL0     H46945   6.901   4.994   1.896  0.0181  0.6970 -0.6239
  356MOL0     H46946   7.032   5.068   2.089 -0.5522  1.1174  2.4229
  356MOL0     H46947   7.118   4.933   2.138  0.3684  0.9340  0.6309
  356MOL0     H46948   7.091   5.079   2.347 -0.3362 -1.7858  3.2392
  356MOL0     H46949   6.983   4.950   2.373 -0.7189 -0.6752 -1.9745
  356MOL0     H46950   6.817   5.103   2.215  1.0286  1.3951 -0.8100
  356MOL0     H46951   6.814   5.103   2.387  1.0473 -0.3846  0.7921
  356MOL0     H46952   6.918   5.307   2.198  0.2089 -2.6175 -0.9567
  356MOL0     H46953   6.972   5.309   2.362 -2.2250  1.8207  0.5664
  356MOL0     H46954   6.958   5.527   2.304 -0.1971 -0.2385  0.7239
  356MOL0     H46955   6.938   5.754   2.360  0.1071 -0.2247  0.3845
  356MOL0     H46956   6.488   6.024   2.680 -0.7611 -2.0169 -3.0786
  356MOL0     H46957   6.512   6.252   2.773 -0.6357 -1.6287 -0.2687
  356MOL0     H46958   6.534   6.592   2.457  1.3655 -1.5778 -1.6701
  356MOL0     H46959   6.703   6.605   2.511 -0.3959  2.8696  2.0987
  356MOL0     H46960   6.469   6.712   2.683 -0.0552 -2.7451 -0.3264
  356MOL0     H46961   6.541   6.811   2.553  0.2806 -1.7266 -3.5807
  356MOL0     H46962   6.752   6.790   2.651 -0.3368  1.6425 -1.1073
  356MOL0     H46963   6.698   6.676   2.783 -0.1600  0.0327  0.0331
  356MOL0     H46964   6.720   6.930   2.812  0.2772  1.5709 -2.9722
  356MOL0     H46965   6.560   6.936   2.746 -1.1897 -1.7702 -0.9533
  356MOL0     H46966   6.487   6.732   2.912  0.3306 -1.0759 -0.2021
  356MOL0     H46967   6.483   6.913   2.952  0.4411  0.4393  0.9064
  356MOL0     H46968   6.703   6.868   3.078  0.4126 -0.1162 -1.8680
  356MOL0     H46969   6.690   6.699   3.013 -0.7112  1.0428 -2.2368
  356MOL0     H46970   6.504   6.840   3.201 -1.5779  0.2997 -1.4326
  356MOL0     H46971   6.476   6.665   3.142  1.4422 -2.8615 -0.5012
  356MOL0     H46972   6.697   6.769   3.332 -1.2390 -3.0283  4.0467
  356MOL0     H46973   6.706   6.610   3.233 -2.9588 -4.2813  2.3376
  356MOL0     H46974   6.661   6.388   2.391 -0.3749  1.9165  1.8558
  356MOL0     H46975   6.682   6.150   2.321 -2.9002  1.2413 -2.3852
  356MOL0     H46976   6.538   5.698   2.491  0.5416 -0.8873 -0.2077
  356MOL0     H46977   6.550   5.446   2.434  1.7835 -0.6187  3.4099
  356MOL0     H46978   6.111   5.565   1.266  0.4780  0.5954  3.3363
  356MOL0     H46979   6.151   5.777   1.114 -0.2165 -0.0475 -2.5098
  356MOL0     H46980   6.253   6.007   0.884  1.8009 -0.8795 -1.4099
  356MOL0     H46981   6.257   6.169   0.692  0.5799  0.7876 -0.7641
  356MOL0     H46982   6.339   6.220   0.504 -2.9815  1.0008  1.0176
  356MOL0     H46983   6.448   6.334   0.429  0.3175 -1.2643 -1.1863
  356MOL0     H46984   6.214   6.387   0.424 -1.9024 -0.0785  0.8162
  356MOL0     H46985   6.202   6.390   0.595 -0.8379 -1.3798 -0.2026
  356MOL0     H46986   6.345   6.601   0.411  1.8375  5.2796  1.5738
  356MOL0     H46987   6.386   6.581   0.581  0.7863 -1.3337 -0.3823
  356MOL0     H46988   6.195   6.748   0.551 -3.0785  0.1977 -1.3709
  356MOL0     H46989   6.098   6.617   0.490  0.7826 -0.1877 -0.3774
  356MOL0     H46990   6.027   6.573   0.892 -2.2616  4.1518 -0.6738
  356MOL0     H46991   6.641   6.312   0.804  0.1498  0.4764  1.6465
  356MOL0     H46992   6.644   6.143   0.993  1.7289 -1.1697 -2.4604
  357MOL0     O46993   6.346  10.955   0.269  0.1238  0.4677  0.0219
  357MOL0     C46994   6.387  11.067   0.240  0.5877 -0.8085 -1.1401
  357MOL0     O46995   6.447  11.151   0.329  0.1012  0.0901  0.4287
  357MOL0     C46996   6.506  11.104   0.450 -0.2196  1.5924 -0.7012
  357MOL0     C46997   6.649  11.123   0.455  0.9815  0.1072  0.0732
  357MOL0     C46998   6.721  11.086   0.565  0.0443  0.1618 -1.0678
  357MOL0     C46999   6.661  10.993   0.655  0.1616 -0.2314 -0.1897
  357MOL0     O47000   6.746  10.936   0.749 -0.3009  0.0246  0.1575
  357MOL0     C47001   6.685  10.853   0.853  0.1602  0.9111 -0.3558
  357MOL0     C47002   6.792  10.810   0.968  1.1183 -0.2527 -0.9181
  357MOL0     C47003   6.736  10.717   1.081 -0.1736  0.2450  0.4406
  357MOL0     C47004   6.666  10.805   1.181  0.1307 -0.2338 -0.2176
  357MOL0     C47005   6.625  10.720   1.299 -0.0197  0.9523  0.6437
  357MOL0     C47006   6.527  10.593   1.291 -0.7361 -0.4058 -0.9256
  357MOL0     C47007   6.393  10.606   1.216  0.4667 -0.5235  0.2631
  357MOL0     C47008   6.301  10.698   1.299  0.1724  0.9407  0.2848
  357MOL0     N47009   6.264  10.628   1.417 -0.0545  1.0483 -0.3595
  357MOL0     C47010   6.190  10.513   1.423  0.4936 -0.5978 -0.8424
  357MOL0     C47011   6.210  10.462   1.550  0.4661 -0.0737 -0.0659
  357MOL0     C47012   6.167  10.323   1.586 -0.2822  0.3893 -1.3106
  357MOL0     C47013   6.034  10.319   1.654 -0.4256  0.3323 -0.1893
  357MOL0     C47014   6.017  10.440   1.755  0.2195  0.6590 -0.2922
  357MOL0     C47015   5.867  10.442   1.815  0.3885 -0.8047  1.1186
  357MOL0     O47016   5.853  10.547   1.904 -0.0660 -0.0101 -0.4425
  357MOL0     C47017   5.741  10.618   1.908  0.6989  0.4454 -0.5740
  357MOL0     C47018   5.616  10.561   1.874 -1.0484 -0.5248 -0.0462
  357MOL0     C47019   5.500  10.637   1.885  0.0332 -0.2454 -0.4685
  357MOL0     C47020   5.501  10.772   1.912  0.8681  0.8623 -1.9409
  357MOL0     C47021   5.376  10.851   1.911 -0.8476  0.0250 -0.1200
  357MOL0     O47022   5.376  10.979   1.966  0.5583 -0.5127  0.3590
  357MOL0     C47023   5.262  11.045   1.953  0.2812  0.3207 -0.5459
  357MOL0     C47024   5.236  11.132   2.063  0.6007  0.0711 -0.6674
  357MOL0     C47025   5.133  11.223   2.049 -0.6220 -0.6567  0.0635
  357MOL0     C47026   5.076  11.242   1.920  0.5744  0.5268  0.0103
  357MOL0     O47027   5.001  11.353   1.914  0.4521  0.0714  0.4443
  357MOL0     C47028   4.878  11.339   1.840  0.0151  1.0792  0.0269
  357MOL0     C47029   4.783  11.452   1.867  0.2897 -0.0196 -0.5673
  357MOL0     C47030   4.725  11.524   1.752  0.7323  0.7199  1.1515
  357MOL0     C47031   4.642  11.432   1.641 -0.1121 -0.5639 -0.5567
  357MOL0     C47032   4.579  11.520   1.535 -0.4175  0.1460  0.5557
  357MOL0     C47033   4.496  11.426   1.450  0.4344  0.9969 -0.6596
  357MOL0     C47034   4.571  11.303   1.385 -0.1117  0.6521 -0.7979
  357MOL0     C47035   4.489  11.232   1.272  0.9854  1.5336  0.0129
  357MOL0    Cl47036   4.422  11.338   1.152 -0.1014  0.2268 -0.5061
  357MOL0     C47037   5.121  11.170   1.811 -0.2546 -0.0330 -0.5642
  357MOL0     C47038   5.206  11.062   1.823  0.2229  0.4394  0.5032
  357MOL0     O47039   5.288  10.806   1.844 -0.2749  0.1876 -0.5807
  357MOL0     C47040   5.622  10.826   1.960 -0.4497 -0.1789  0.5786
  357MOL0     C47041   5.742  10.751   1.963 -0.7793 -0.1835  0.4034
  357MOL0     N47042   6.295  10.549   1.619 -0.8968 -0.2617  0.2853
  357MOL0     N47043   6.329  10.651   1.542 -0.9818 -0.7436 -0.0772
  357MOL0     C47044   6.518  10.969   0.655 -0.2612  0.1842  0.7099
  357MOL0     C47045   6.444  11.031   0.553  0.4644 -0.8593  0.1475
  357MOL0     C47046   6.391  11.112   0.098  0.4630  0.1485  0.7564
  357MOL0     C47047   6.449  11.231   0.062  0.4806 -1.0824  0.0902
  357MOL0     C47048   6.459  11.281  -0.065 -0.1950  0.3569  0.1044
  357MOL0     C47049   6.415  11.198  -0.174  0.7210  0.5413 -0.2079
  357MOL0     O47050   6.391  11.247  -0.298  0.1331  0.1541  0.2890
  357MOL0     C47051   6.517  11.263  -0.362  0.0306  0.0035 -0.3960
  357MOL0     C47052   6.522  11.144  -0.463  0.0012  0.1597  0.2469
  357MOL0     C47053   6.644  11.143  -0.552  0.0494  0.2973 -0.1281
  357MOL0     C47054   6.667  11.000  -0.593 -1.0958  0.1959 -0.2979
  357MOL0     C47055   6.786  10.988  -0.672  0.5048 -0.2744 -0.5764
  357MOL0     C47056   6.898  10.971  -0.725 -0.3282 -0.0945 -0.5145
  357MOL0     C47057   6.366  11.064  -0.142  0.3448 -0.6647  0.0620
  357MOL0     C47058   6.351  11.024  -0.006 -0.1218  0.5979  0.7588
  357MOL0     H47059   6.713  11.151   0.372  2.7572 -3.0981  0.2086
  357MOL0     H47060   6.829  11.095   0.570  0.0699  0.8419 -2.4020
  357MOL0     H47061   6.646  10.761   0.811 -0.3328 -0.2430  2.4212
  357MOL0     H47062   6.609  10.913   0.905 -0.2763 -0.5664  0.7927
  357MOL0     H47063   6.847  10.895   1.009  0.7906 -0.1720 -0.6456
  357MOL0     H47064   6.859  10.745   0.910 -0.3939 -2.0646 -0.7237
  357MOL0     H47065   6.814  10.652   1.123 -0.8186 -1.8155 -1.3433
  357MOL0     H47066   6.676  10.637   1.037 -0.4113 -0.4087  1.8832
  357MOL0     H47067   6.730  10.889   1.209  0.3910 -0.0713 -1.2562
  357MOL0     H47068   6.576  10.851   1.139  1.8645  3.2580 -0.4489
  357MOL0     H47069   6.571  10.785   1.367 -1.4629  0.3781  0.0837
  357MOL0     H47070   6.720  10.686   1.343 -1.6268 -1.7106  2.3723
  357MOL0     H47071   6.500  10.558   1.391 -0.7109 -2.5532 -1.6129
  357MOL0     H47072   6.577  10.512   1.237  1.1102 -0.8908  1.3693
  357MOL0     H47073   6.405  10.642   1.114  2.3590  2.4176  1.3861
  357MOL0     H47074   6.350  10.507   1.198  0.7790 -0.2751 -2.0867
  357MOL0     H47075   6.205  10.725   1.252  0.4809 -2.8358 -3.0495
  357MOL0     H47076   6.358  10.786   1.331 -2.6878  2.7933  0.6763
  357MOL0     H47077   6.136  10.470   1.340 -0.8300 -2.0023  0.6808
  357MOL0     H47078   6.245  10.312   1.663 -0.5894  1.9890 -0.7472
  357MOL0     H47079   6.174  10.232   1.524  3.0461 -0.7595  0.4474
  357MOL0     H47080   6.037  10.226   1.712 -1.0350  0.1995 -0.3634
  357MOL0     H47081   5.945  10.311   1.590 -2.2092 -1.4327  2.3118
  357MOL0     H47082   6.092  10.442   1.835 -0.1470  4.2136  0.1345
  357MOL0     H47083   6.030  10.539   1.709  0.8820  1.6045  1.7878
  357MOL0     H47084   5.857  10.343   1.861  2.3714 -1.3545  0.4960
  357MOL0     H47085   5.805  10.457   1.727  2.5220 -0.7629 -0.4660
  357MOL0     H47086   5.606  10.455   1.858  0.3785 -1.1149  2.4379
  357MOL0     H47087   5.408  10.581   1.871 -1.8512  2.4727  0.2987
  357MOL0     H47088   5.293  11.131   2.155 -1.9494 -1.5533  1.0329
  357MOL0     H47089   5.107  11.294   2.128  0.9858 -3.0957  2.9996
  357MOL0     H47090   4.830  11.243   1.859 -1.6691  2.1058  1.2430
  357MOL0     H47091   4.915  11.340   1.737  3.6788  0.3907  1.2017
  357MOL0     H47092   4.840  11.530   1.917  0.9742 -0.9849  0.1927
  357MOL0     H47093   4.701  11.427   1.935 -1.8887  1.6526 -2.4199
  357MOL0     H47094   4.811  11.576   1.709  1.0141 -1.0057 -0.4789
  357MOL0     H47095   4.667  11.611   1.784  1.0353  1.5881 -0.5372
  357MOL0     H47096   4.710  11.363   1.590  0.1429 -0.6451 -0.1068
  357MOL0     H47097   4.569  11.379   1.703 -2.3257  1.6597 -1.0628
  357MOL0     H47098   4.654  11.577   1.480 -2.4050  1.8349 -0.5513
  357MOL0     H47099   4.507  11.593   1.572 -0.2966 -0.2340  1.5698
  357MOL0     H47100   4.424  11.468   1.380 -0.6290 -2.2824 -1.7506
  357MOL0     H47101   4.424  11.379   1.519  0.5709  0.7779 -0.6651
  357MOL0     H47102   4.664  11.332   1.335 -0.8200  2.3533 -1.2209
  357MOL0     H47103   4.587  11.230   1.464  0.6775  2.5814  0.9154
  357MOL0     H47104   4.409  11.172   1.316  1.8698  0.7577  0.5760
  357MOL0     H47105   4.558  11.161   1.225 -0.8837 -0.0664 -0.4394
  357MOL0     H47106   5.093  11.198   1.710 -1.0129 -1.3705 -0.7534
  357MOL0     H47107   5.243  11.012   1.735 -2.3659 -0.8512  0.0553
  357MOL0     H47108   5.626  10.929   1.994 -1.2508 -0.2101  0.8013
  357MOL0     H47109   5.834  10.796   1.999 -0.5080 -0.6681  0.3317
  357MOL0     H47110   6.465  10.893   0.713  2.1495 -1.7783  0.4883
  357MOL0     H47111   6.337  11.025   0.535  0.6480 -2.4854 -0.5731
  357MOL0     H47112   6.499  11.299   0.130  0.2033  1.1034 -1.7487
  357MOL0     H47113   6.514  11.374  -0.081  0.3933 -0.1059 -0.6423
  357MOL0     H47114   6.610  11.246  -0.306 -0.4860 -1.2695  0.1212
  357MOL0     H47115   6.514  11.360  -0.411  0.8924 -0.6859 -1.8875
  357MOL0     H47116   6.519  11.044  -0.418 -0.5510  0.1111  0.1066
  357MOL0     H47117   6.437  11.153  -0.531  0.1357  2.7672  0.3234
  357MOL0     H47118   6.726  11.187  -0.494 -0.9717  1.2495  0.6507
  357MOL0     H47119   6.618  11.201  -0.642 -2.6808 -0.7636 -0.1243
  357MOL0     H47120   6.678  10.941  -0.501 -3.1277  0.5162  0.2013
  357MOL0     H47121   6.576  10.961  -0.639  2.0833 -4.5723 -3.3922
  357MOL0     H47122   6.997  10.970  -0.765 -0.8079  3.3859 -2.1706
  357MOL0     H47123   6.319  11.004  -0.219 -2.8675 -0.4007  1.6434
  357MOL0     H47124   6.317  10.922   0.009 -3.1891  1.1522 -1.3403
  358MOL0     O47125  10.188   4.762   1.675 -0.2502  0.6699 -0.5139
  358MOL0     C47126  10.219   4.670   1.608 -0.6956 -0.1860 -0.3376
  358MOL0     O47127  10.133   4.601   1.514 -0.4462  0.2675 -0.2503
  358MOL0     C47128   9.999   4.630   1.507 -0.4972 -0.8607  0.1369
  358MOL0     C47129   9.925   4.592   1.609 -0.1660 -0.5909  0.3490
  358MOL0     C47130   9.788   4.585   1.602  1.2886 -0.5800 -0.1466
  358MOL0     C47131   9.727   4.632   1.490 -0.7252 -1.0934 -0.2314
  358MOL0     O47132   9.593   4.631   1.470 -0.1409 -0.1318  1.0052
  358MOL0     C47133   9.537   4.505   1.425  0.8815  0.0989  0.3041
  358MOL0     C47134   9.390   4.510   1.419 -0.9711 -0.5803 -0.1770
  358MOL0     C47135   9.335   4.597   1.306  0.2572  0.0294  0.4891
  358MOL0     C47136   9.191   4.638   1.339 -0.1958  0.2244  0.2653
  358MOL0     C47137   9.096   4.519   1.363 -0.5497  0.2680 -0.1749
  358MOL0     C47138   8.956   4.580   1.354  0.2240  0.0357 -0.2533
  358MOL0     C47139   8.847   4.473   1.365  1.2812  0.2032 -0.6083
  358MOL0     C47140   8.718   4.543   1.312 -0.7686  0.2631  0.2759
  358MOL0     N47141   8.714   4.555   1.167  0.4457  0.5265 -0.5048
  358MOL0     C47142   8.661   4.656   1.096  0.3824  0.1729 -0.2078
  358MOL0     C47143   8.655   4.601   0.968 -0.5921  0.5920 -0.3930
  358MOL0     C47144   8.625   4.667   0.841 -0.4306  0.2448  0.9532
  358MOL0     C47145   8.703   4.790   0.812 -0.0318  0.0194  0.1163
  358MOL0     C47146   8.853   4.760   0.793  0.0804 -0.2225 -0.2630
  358MOL0     C47147   8.933   4.892   0.793 -0.7993  0.6223  0.3380
  358MOL0     O47148   9.072   4.864   0.766  0.0307  0.5445 -0.3593
  358MOL0     C47149   9.155   4.872   0.871 -0.4834  0.3501  0.3036
  358MOL0     C47150   9.142   4.968   0.970 -0.4233 -0.4276 -1.2232
  358MOL0     C47151   9.253   4.985   1.062  0.3962  0.6150  0.4308
  358MOL0     C47152   9.363   4.904   1.047 -0.8545 -1.0246 -1.1546
  358MOL0     C47153   9.489   4.925   1.134  0.4331 -0.4834  0.6381
  358MOL0     O47154   9.505   5.041   1.192 -0.0676  0.8401  0.2198
  358MOL0     C47155   9.600   5.062   1.295 -0.0743 -0.3651 -0.7764
  358MOL0     C47156   9.673   5.185   1.286  0.8397  0.1673 -0.0612
  358MOL0     C47157   9.768   5.211   1.378 -0.3354 -0.5232 -0.5777
  358MOL0     C47158   9.801   5.121   1.479 -0.8529  0.5540  0.1743
  358MOL0     O47159   9.915   5.160   1.556 -0.2199 -0.9518  0.3305
  358MOL0     C47160   9.976   5.067   1.650 -0.2670 -0.0209 -0.0400
  358MOL0     C47161  10.076   5.154   1.731 -0.0513  0.5566  0.3621
  358MOL0     C47162  10.210   5.192   1.652  0.3799 -1.1107 -0.1764
  358MOL0     C47163  10.332   5.233   1.752  0.0097 -0.3534  0.4427
  358MOL0     C47164  10.290   5.361   1.830  0.0675  0.1412  0.2670
  358MOL0     C47165  10.314   5.356   1.979  0.4221  0.8555 -0.3119
  358MOL0     C47166  10.463   5.371   2.018 -0.3116 -0.3878  0.1258
  358MOL0     C47167  10.499   5.520   2.047  0.6205  0.4905 -0.8243
  358MOL0    Cl47168  10.435   5.643   1.928  0.4479 -0.0770  0.3488
  358MOL0     C47169   9.736   4.998   1.485  0.7685 -0.1085 -0.8272
  358MOL0     C47170   9.643   4.971   1.392  0.9450  0.0614  0.4884
  358MOL0     O47171   9.556   4.822   1.144 -0.2127 -0.0575  0.4052
  358MOL0     C47172   9.368   4.803   0.956  0.1608 -0.3413 -0.3305
  358MOL0     C47173   9.263   4.792   0.861 -0.0173  0.4829 -0.7530
  358MOL0     N47174   8.710   4.473   0.969 -0.2492  0.7521 -0.9814
  358MOL0     N47175   8.745   4.449   1.085  0.0778 -0.5622  0.3372
  358MOL0     C47176   9.805   4.683   1.386 -1.1496  0.2619 -1.4111
  358MOL0     C47177   9.941   4.688   1.388  0.2612  0.0236  0.1659
  358MOL0     C47178  10.362   4.647   1.606 -0.7618  0.6641 -0.8342
  358MOL0     C47179  10.460   4.722   1.685  0.6308 -0.5447  0.4728
  358MOL0     C47180  10.596   4.691   1.680 -0.0822 -0.2774 -0.0846
  358MOL0     C47181  10.644   4.589   1.590 -0.9180 -0.3963  0.5468
  358MOL0     O47182  10.782   4.557   1.584  0.6972 -0.2169  0.2939
  358MOL0     C47183  10.839   4.486   1.703  0.8127  0.3523  1.0052
  358MOL0     C47184  10.975   4.552   1.727 -0.4303  0.2283  0.3573
  358MOL0     C47185  11.089   4.512   1.630 -0.6500  0.5652  0.0035
  358MOL0     C47186  11.189   4.414   1.683  0.7399  0.3700  0.9919
  358MOL0     C47187  11.140   4.271   1.666 -0.3567  1.2371  0.2151
  358MOL0     C47188  11.105   4.151   1.657 -0.3438  1.3093 -0.8503
  358MOL0     C47189  10.552   4.527   1.501 -0.1742 -0.0969 -0.4944
  358MOL0     C47190  10.412   4.561   1.508  0.2599  0.1789 -0.0755
  358MOL0     H47191   9.976   4.555   1.697 -1.2172 -3.7143 -0.2165
  358MOL0     H47192   9.725   4.537   1.677  0.7895  1.0898  0.5434
  358MOL0     H47193   9.566   4.415   1.481  1.3221 -0.2568 -0.4777
  358MOL0     H47194   9.572   4.488   1.323  1.6068 -1.6050  0.7998
  358MOL0     H47195   9.351   4.546   1.514 -3.9199 -3.2711 -0.1925
  358MOL0     H47196   9.351   4.408   1.407 -2.4329 -0.0966  0.2258
  358MOL0     H47197   9.328   4.531   1.219  0.5339 -0.6033  0.9404
  358MOL0     H47198   9.400   4.684   1.296 -1.0760  0.8868 -1.3415
  358MOL0     H47199   9.180   4.716   1.415 -1.2634  1.0454 -0.6805
  358MOL0     H47200   9.143   4.696   1.259 -4.0119  3.2328  4.2799
  358MOL0     H47201   9.108   4.473   1.462 -1.1208  2.1179  0.7956
  358MOL0     H47202   9.099   4.440   1.287 -1.4688 -1.4952  1.5185
  358MOL0     H47203   8.938   4.614   1.252 -1.9860 -0.6332 -0.1439
  358MOL0     H47204   8.940   4.666   1.421 -0.8787  2.8360 -3.7688
  358MOL0     H47205   8.871   4.386   1.303  1.3808  1.2451 -2.0709
  358MOL0     H47206   8.840   4.446   1.471 -1.7431  0.5456 -0.6390
  358MOL0     H47207   8.713   4.646   1.346 -1.7095 -0.6801  3.2431
  358MOL0     H47208   8.629   4.498   1.356 -1.3367  1.2632  0.1804
  358MOL0     H47209   8.630   4.754   1.130  2.9152  0.0835  2.8494
  358MOL0     H47210   8.518   4.689   0.850 -0.8151 -0.1770 -1.8166
  358MOL0     H47211   8.638   4.607   0.750  1.6820  2.1740 -0.1011
  358MOL0     H47212   8.692   4.858   0.897  1.7963  0.7710 -0.2028
  358MOL0     H47213   8.678   4.834   0.716 -0.2786 -0.2717  0.0460
  358MOL0     H47214   8.895   4.707   0.879  2.7480  1.3190 -0.4997
  358MOL0     H47215   8.856   4.705   0.699  0.2114  3.0629 -2.3371
  358MOL0     H47216   8.919   4.957   0.879  1.3626  3.7252 -1.4376
  358MOL0     H47217   8.894   4.957   0.714  0.2996 -1.2922 -1.8858
  358MOL0     H47218   9.061   5.041   0.968 -0.4469 -0.4424 -0.8174
  358MOL0     H47219   9.248   5.063   1.136 -1.6389  1.7189 -0.7785
  358MOL0     H47220   9.666   5.247   1.198  0.6022  0.1557 -0.0524
  358MOL0     H47221   9.822   5.306   1.371 -1.1737 -0.0134 -0.2737
  358MOL0     H47222  10.022   4.983   1.596 -1.1494 -0.4812 -0.0969
  358MOL0     H47223   9.894   5.026   1.709 -1.5345  0.6618 -1.2682
  358MOL0     H47224  10.095   5.099   1.824  0.9615  1.0592  0.4669
  358MOL0     H47225  10.023   5.246   1.758  0.8683  1.4932 -0.8953
  358MOL0     H47226  10.202   5.268   1.574 -0.7195 -0.7693  0.2514
  358MOL0     H47227  10.226   5.106   1.587 -0.9919 -1.3016 -0.2877
  358MOL0     H47228  10.361   5.157   1.826  3.5758  1.1358  0.8018
  358MOL0     H47229  10.428   5.243   1.701  1.4576 -1.6470  2.7273
  358MOL0     H47230  10.181   5.369   1.825  0.0160  0.5174  1.5011
  358MOL0     H47231  10.325   5.448   1.773 -0.3880 -1.6427 -2.9375
  358MOL0     H47232  10.274   5.262   2.016 -0.4316  2.1358  2.2837
  358MOL0     H47233  10.258   5.436   2.029 -1.3167  0.5012 -1.5966
  358MOL0     H47234  10.497   5.320   2.109  0.6577 -1.0962 -0.6237
  358MOL0     H47235  10.525   5.332   1.937  0.2605 -0.5201  0.6232
  358MOL0     H47236  10.608   5.525   2.046  0.9471 -2.2968  2.5419
  358MOL0     H47237  10.469   5.544   2.150  2.2965  0.1294 -0.2284
  358MOL0     H47238   9.765   4.924   1.560 -0.6540  1.7559  1.7062
  358MOL0     H47239   9.587   4.878   1.391 -0.5293  0.9153 -0.2963
  358MOL0     H47240   9.442   4.727   0.937 -0.3057 -0.6125 -1.1403
  358MOL0     H47241   9.272   4.717   0.783  0.1142 -0.1679 -0.1345
  358MOL0     H47242   9.752   4.712   1.295 -2.1507  0.9213 -0.6366
  358MOL0     H47243  10.004   4.694   1.299  0.2101  0.7100  0.1732
  358MOL0     H47244  10.408   4.789   1.752 -1.8015 -1.2221 -0.6130
  358MOL0     H47245  10.682   4.719   1.740  0.7755 -1.4253 -0.7300
  358MOL0     H47246  10.868   4.381   1.697 -0.1709  0.1556 -2.9711
  358MOL0     H47247  10.765   4.489   1.784 -1.7370 -1.6524 -1.0889
  358MOL0     H47248  10.958   4.661   1.725 -3.3320 -0.1424  0.6179
  358MOL0     H47249  11.014   4.516   1.823  0.2540 -1.3383 -0.4755
  358MOL0     H47250  11.143   4.604   1.608 -0.4247  0.3279 -0.4516
  358MOL0     H47251  11.043   4.471   1.539 -0.7096 -0.6263  0.5456
  358MOL0     H47252  11.288   4.424   1.636  1.6910 -1.8319  2.3522
  358MOL0     H47253  11.209   4.437   1.788 -0.1167  0.3772  1.1615
  358MOL0     H47254  11.083   4.047   1.646  1.1426  1.0758 -1.9711
  358MOL0     H47255  10.589   4.456   1.427  0.9470  0.1095 -0.1506
  358MOL0     H47256  10.357   4.519   1.424 -2.1355  2.8306  0.0122
  359MOL0     O47257   1.054   8.192   8.647 -0.8557 -0.1246 -0.3875
  359MOL0     C47258   0.935   8.234   8.637  0.1528  1.0412  0.6010
  359MOL0     O47259   0.841   8.185   8.560 -0.2028  0.1544  0.3783
  359MOL0     C47260   0.867   8.064   8.490  0.6457 -0.6322 -0.7202
  359MOL0     C47261   0.958   8.062   8.387 -0.2961  0.5723  0.1401
  359MOL0     C47262   0.988   7.947   8.303  0.2746 -0.4959 -0.3448
  359MOL0     C47263   0.915   7.827   8.328  0.1270  0.0988 -0.3720
  359MOL0     O47264   0.932   7.706   8.261 -0.2928  0.1041 -1.0035
  359MOL0     C47265   1.021   7.707   8.151 -0.4097  0.5853 -0.0304
  359MOL0     C47266   1.045   7.565   8.099 -0.0525 -0.3708  0.2328
  359MOL0     C47267   0.926   7.470   8.103  0.3025  0.0451  0.6609
  359MOL0     C47268   0.929   7.355   7.995 -0.5222 -0.0097  0.5905
  359MOL0     C47269   0.795   7.310   7.948 -0.1033  0.0796  0.5829
  359MOL0     C47270   0.750   7.206   8.034 -0.2540 -0.5423  0.1407
  359MOL0     C47271   0.604   7.175   7.997 -0.7513  0.5715  0.0727
  359MOL0     C47272   0.568   7.031   8.024 -0.6763 -0.8541  0.6698
  359MOL0     N47273   0.436   6.994   7.974 -1.4242 -0.6442  0.2904
  359MOL0     C47274   0.352   7.068   7.880 -1.5541  0.4106  0.2443
  359MOL0     C47275   0.278   6.968   7.827  0.2798 -0.1710 -0.3060
  359MOL0     C47276   0.168   6.972   7.723 -0.4334  0.2156 -0.1603
  359MOL0     C47277   0.042   6.884   7.776  0.0958 -0.2943  0.1211
  359MOL0     C47278  -0.045   6.946   7.886 -0.4591 -0.2596  0.0520
  359MOL0     C47279  -0.156   7.013   7.812 -0.1878 -0.1249 -0.4185
  359MOL0     O47280  -0.235   7.093   7.901 -0.1712  0.1136 -0.0100
  359MOL0     C47281  -0.359   7.051   7.934  0.1684 -0.3685 -1.0111
  359MOL0     C47282  -0.405   7.114   8.053 -0.4910  1.2119 -0.4881
  359MOL0     C47283  -0.542   7.108   8.089 -0.0834  0.3399  0.4596
  359MOL0     C47284  -0.627   7.038   8.011  0.5615  1.8026 -0.9000
  359MOL0     C47285  -0.770   7.029   8.046 -0.3061 -0.4108 -0.6695
  359MOL0     O47286  -0.833   7.158   8.058 -0.4071  0.8494  0.1385
  359MOL0     C47287  -0.970   7.169   8.055  0.3688  0.9237  0.0187
  359MOL0     C47288  -1.016   7.299   8.004  0.6616  0.4893 -0.3935
  359MOL0     C47289  -1.156   7.328   8.006  0.3384 -0.5719  0.6985
  359MOL0     C47290  -1.237   7.236   8.057  0.0410 -0.1039 -0.2654
  359MOL0     O47291  -1.370   7.271   8.057  1.1012  0.2314 -0.2247
  359MOL0     C47292  -1.391   7.328   8.190  0.2802  0.1950  0.1567
  359MOL0     C47293  -1.533   7.369   8.205  0.2664 -0.4726 -0.9449
  359MOL0     C47294  -1.573   7.462   8.091  0.6804 -0.2267 -0.2932
  359MOL0     C47295  -1.708   7.526   8.114  0.8924 -0.2299 -0.4884
  359MOL0     C47296  -1.835   7.442   8.088 -0.8684 -1.2349  0.4516
  359MOL0     C47297  -1.875   7.393   7.947 -0.0099  0.8685  0.0784
  359MOL0     C47298  -1.937   7.494   7.851 -0.5738 -0.3927 -0.4839
  359MOL0     C47299  -2.080   7.534   7.889  0.6646  0.0424  0.2963
  359MOL0    Cl47300  -2.181   7.386   7.870  0.3588  0.5025  0.1893
  359MOL0     C47301  -1.200   7.106   8.092 -0.8150  0.7648 -0.0940
  359MOL0     C47302  -1.067   7.077   8.097  0.1620  0.4865  0.3476
  359MOL0     O47303  -0.823   6.922   8.058  1.1294  0.2147  0.0981
  359MOL0     C47304  -0.582   6.966   7.902 -0.3031  0.0507 -1.1874
  359MOL0     C47305  -0.445   6.965   7.868  0.0057  0.9643  0.4540
  359MOL0     N47306   0.303   6.856   7.898 -0.0775  0.0191  0.1299
  359MOL0     N47307   0.400   6.872   7.977  0.1128  0.3301 -0.3352
  359MOL0     C47308   0.831   7.830   8.439 -0.6355  0.6125  0.3802
  359MOL0     C47309   0.802   7.946   8.518 -0.4357  0.2661 -1.2117
  359MOL0     C47310   0.881   8.332   8.740 -0.4347 -0.1239  0.6121
  359MOL0     C47311   0.963   8.367   8.844 -0.4379 -0.4614 -0.6172
  359MOL0     C47312   0.921   8.472   8.926 -0.0642 -0.4240 -0.3022
  359MOL0     C47313   0.804   8.549   8.897  0.2737  0.6198 -0.3166
  359MOL0     O47314   0.749   8.648   8.970 -0.3058 -0.9727 -0.9183
  359MOL0     C47315   0.808   8.683   9.095  0.0832  0.1684 -0.7482
  359MOL0     C47316   0.736   8.796   9.168 -0.3480 -0.2506  0.1668
  359MOL0     C47317   0.799   8.853   9.291  0.3924  0.0677  0.3401
  359MOL0     C47318   0.893   8.749   9.370 -0.8582 -0.1345  0.0006
  359MOL0     C47319   1.036   8.766   9.346  0.5726 -0.1487  0.2651
  359MOL0     C47320   1.151   8.776   9.322 -0.9002 -0.0650  0.1682
  359MOL0     C47321   0.728   8.509   8.791  1.0927 -0.3496  0.0798
  359MOL0     C47322   0.759   8.390   8.714  0.2674 -1.0050 -1.6082
  359MOL0     H47323   1.011   8.155   8.365 -0.6933  1.0098  0.9756
  359MOL0     H47324   1.059   7.947   8.222 -1.0170  1.3547 -1.5776
  359MOL0     H47325   1.119   7.738   8.188 -0.9768 -0.7433  2.8434
  359MOL0     H47326   0.965   7.764   8.075 -0.6170  0.2566 -0.1258
  359MOL0     H47327   1.133   7.533   8.156  0.7664  4.1929  1.8991
  359MOL0     H47328   1.075   7.566   7.994  0.6450 -2.1752  0.3727
  359MOL0     H47329   0.833   7.524   8.084 -2.4650 -2.9155  4.1811
  359MOL0     H47330   0.928   7.420   8.201  0.2950  1.0722  1.2006
  359MOL0     H47331   0.987   7.381   7.906  1.7614 -0.2079  1.9317
  359MOL0     H47332   0.995   7.275   8.028  1.3312  1.1451 -0.1571
  359MOL0     H47333   0.801   7.278   7.844 -0.0266  1.2844  0.1982
  359MOL0     H47334   0.726   7.394   7.958  0.3528  0.7578 -1.5607
  359MOL0     H47335   0.759   7.240   8.138 -0.1484  3.6574 -1.0590
  359MOL0     H47336   0.816   7.121   8.019 -1.0701 -2.1119  4.1412
  359MOL0     H47337   0.535   7.233   8.058  1.0973  1.1868  1.6653
  359MOL0     H47338   0.602   7.198   7.890  2.1910 -0.1412 -0.2040
  359MOL0     H47339   0.568   7.010   8.132  2.1432 -2.1765  0.4968
  359MOL0     H47340   0.642   6.960   7.986  1.3775  1.0929  0.8743
  359MOL0     H47341   0.373   7.171   7.854  4.2484 -0.3873  0.3411
  359MOL0     H47342   0.201   6.945   7.623  1.4678  2.7931 -0.3100
  359MOL0     H47343   0.128   7.074   7.719 -2.8800 -0.7108 -1.7417
  359MOL0     H47344   0.096   6.798   7.818  1.2878 -0.4112 -1.5497
  359MOL0     H47345  -0.016   6.857   7.687  2.2773 -1.2035 -1.1079
  359MOL0     H47346  -0.075   6.873   7.961  0.3819  0.5629  1.2125
  359MOL0     H47347   0.007   7.026   7.938 -2.5096  2.6849 -2.1198
  359MOL0     H47348  -0.220   6.933   7.774 -2.0572  1.4162 -0.6362
  359MOL0     H47349  -0.129   7.074   7.725 -1.7594 -2.9407 -3.0818
  359MOL0     H47350  -0.342   7.182   8.108  1.4996 -0.9784  0.1132
  359MOL0     H47351  -0.580   7.163   8.174 -1.4046 -1.1211  0.8576
  359MOL0     H47352  -0.953   7.379   7.968  0.7348  0.6726  0.1378
  359MOL0     H47353  -1.191   7.427   7.981  0.3578 -1.0249 -1.2368
  359MOL0     H47354  -1.325   7.415   8.195  1.5362 -0.8063  2.1553
  359MOL0     H47355  -1.371   7.262   8.275 -0.9901 -0.3207  0.0741
  359MOL0     H47356  -1.543   7.433   8.293  0.5925  0.7208 -1.7536
  359MOL0     H47357  -1.592   7.276   8.212  2.2641 -1.8700 -1.7898
  359MOL0     H47358  -1.564   7.407   7.998  0.3220 -2.3433  0.8636
  359MOL0     H47359  -1.495   7.539   8.085  1.0368 -0.5316  0.2922
  359MOL0     H47360  -1.703   7.535   8.223  3.2697 -0.5099 -0.5120
  359MOL0     H47361  -1.717   7.628   8.076  1.2402  1.2095  2.8790
  359MOL0     H47362  -1.922   7.487   8.137  0.2598  0.5049  0.9506
  359MOL0     H47363  -1.818   7.365   8.164 -0.0568 -0.7576  0.7541
  359MOL0     H47364  -1.938   7.306   7.965 -1.2537  1.6214 -0.4735
  359MOL0     H47365  -1.789   7.342   7.904  1.8887  3.6113  0.3369
  359MOL0     H47366  -1.866   7.576   7.868 -1.1921  1.0198 -3.8559
  359MOL0     H47367  -1.918   7.454   7.750  3.2771  1.7344 -0.8061
  359MOL0     H47368  -2.106   7.626   7.837 -1.9829  1.4171  3.6470
  359MOL0     H47369  -2.083   7.553   7.997 -1.9117  0.4992  0.2065
  359MOL0     H47370  -1.273   7.031   8.120  1.3089 -2.2842 -2.1223
  359MOL0     H47371  -1.051   6.971   8.113 -0.1393 -0.1550 -2.8821
  359MOL0     H47372  -0.657   6.916   7.843 -0.9078  1.0616 -1.3099
  359MOL0     H47373  -0.414   6.916   7.776 -2.2174  1.3889 -0.5932
  359MOL0     H47374   0.785   7.735   8.465  2.5182 -0.4799  2.5997
  359MOL0     H47375   0.732   7.936   8.600  0.0514 -1.2624 -0.9380
  359MOL0     H47376   1.058   8.317   8.860  0.5816  1.7799  0.8083
  359MOL0     H47377   0.981   8.499   9.012 -1.1071  1.7313 -0.1859
  359MOL0     H47378   0.913   8.707   9.078  0.0971  0.1365 -0.7081
  359MOL0     H47379   0.787   8.596   9.159 -0.6003 -0.5162 -1.8510
  359MOL0     H47380   0.732   8.875   9.093  1.0286 -1.6470 -1.4717
  359MOL0     H47381   0.633   8.774   9.200 -0.6696 -1.0278 -1.3143
  359MOL0     H47382   0.718   8.883   9.358  1.2684 -1.0483  1.9829
  359MOL0     H47383   0.857   8.942   9.265 -0.1744 -0.0710 -1.5616
  359MOL0     H47384   0.881   8.773   9.476  0.8408 -1.1081  0.4495
  359MOL0     H47385   0.866   8.644   9.355  0.7767 -0.7900  1.3747
  359MOL0     H47386   1.251   8.785   9.284 -0.9321  0.8167  0.2740
  359MOL0     H47387   0.634   8.563   8.776  1.5428 -0.0646 -1.9945
  359MOL0     H47388   0.687   8.371   8.635  1.1706  1.0746 -3.0231
  360MOL0     O47389   9.176   7.779   5.267 -0.0175  0.2628 -0.0235
  360MOL0     C47390   9.191   7.900   5.246  0.0709 -0.3859 -0.5989
  360MOL0     O47391   9.301   7.969   5.290  0.2371  0.3699  0.3642
  360MOL0     C47392   9.417   7.913   5.331 -0.1434 -0.5057  0.1070
  360MOL0     C47393   9.459   7.784   5.315 -0.5599 -0.0443 -0.3665
  360MOL0     C47394   9.582   7.749   5.363  0.2029  0.0112  0.0120
  360MOL0     C47395   9.669   7.839   5.435  0.2247 -1.2196  0.2626
  360MOL0     O47396   9.791   7.811   5.494  0.5636  0.3626 -0.0581
  360MOL0     C47397   9.816   7.676   5.518  0.1079 -0.2644  0.7872
  360MOL0     C47398   9.917   7.612   5.422 -0.0895  0.0770  0.6372
  360MOL0     C47399   9.951   7.472   5.451 -0.2293  0.3860  0.2286
  360MOL0     C47400  10.060   7.407   5.357  0.4694 -0.3796 -0.7069
  360MOL0     C47401  10.082   7.259   5.372  0.2687 -0.5758 -1.6157
  360MOL0     C47402  10.144   7.242   5.510  0.4307  0.2079 -0.4309
  360MOL0     C47403  10.299   7.287   5.540 -0.0007  0.2459  0.1768
  360MOL0     C47404  10.324   7.289   5.690  0.1954  0.2105  0.2923
  360MOL0     N47405  10.469   7.327   5.736  0.6088 -0.6800  0.8910
  360MOL0     C47406  10.520   7.451   5.722  0.8755  0.1442  0.3449
  360MOL0     C47407  10.652   7.431   5.763 -0.7948 -0.4248  0.3014
  360MOL0     C47408  10.768   7.523   5.754  0.3042 -0.5178  0.1970
  360MOL0     C47409  10.764   7.613   5.881 -0.8707  0.0702  0.3214
  360MOL0     C47410  10.884   7.600   5.974  0.5137 -1.0509 -0.9733
  360MOL0     C47411  10.861   7.642   6.112  0.1617  0.2171 -0.1172
  360MOL0     O47412  10.770   7.554   6.190 -0.2094 -0.6780  0.3642
  360MOL0     C47413  10.826   7.440   6.226 -0.6338 -1.1562  0.9644
  360MOL0     C47414  10.821   7.320   6.148 -0.3318  1.0686  0.2177
  360MOL0     C47415  10.898   7.212   6.192 -0.4717  0.5277  1.1118
  360MOL0     C47416  10.961   7.195   6.312  0.0933 -0.2823 -1.3228
  360MOL0     C47417  11.045   7.082   6.339  0.0059  0.0567 -0.4939
  360MOL0     O47418  11.017   6.972   6.263 -0.2661 -0.5344  0.0824
  360MOL0     C47419  11.002   6.854   6.319  0.0558 -0.3449  0.7276
  360MOL0     C47420  10.945   6.834   6.446  0.3688  0.9311 -0.2713
  360MOL0     C47421  10.913   6.706   6.491 -0.3343 -0.0260  0.0217
  360MOL0     C47422  10.946   6.591   6.409  0.4405 -0.1674  0.3910
  360MOL0     O47423  10.902   6.470   6.446  0.1443 -0.4483  0.1265
  360MOL0     C47424  10.853   6.385   6.353  0.6264 -0.0004 -0.2109
  360MOL0     C47425  10.776   6.267   6.425 -0.0890 -0.2450 -0.9654
  360MOL0     C47426  10.633   6.267   6.394  0.3743 -0.0473 -0.2194
  360MOL0     C47427  10.559   6.143   6.465  0.1375  0.0603  0.3246
  360MOL0     C47428  10.405   6.139   6.460 -0.1227  0.0799 -0.4326
  360MOL0     C47429  10.336   6.138   6.331  0.4963 -0.5163  0.3784
  360MOL0     C47430  10.204   6.062   6.324 -0.2793 -0.2137  0.9187
  360MOL0     C47431  10.197   5.912   6.369 -0.0040  0.6426  0.8017
  360MOL0    Cl47432  10.251   5.813   6.222  0.0003  0.4303 -0.1648
  360MOL0     C47433  10.990   6.623   6.276 -0.6435  0.8529 -0.0763
  360MOL0     C47434  11.022   6.751   6.238 -0.3909  0.6773 -0.9385
  360MOL0     O47435  11.105   7.073   6.447  0.5885 -0.2265  0.0024
  360MOL0     C47436  10.947   7.305   6.399 -0.2802  0.7252  0.2194
  360MOL0     C47437  10.888   7.426   6.354 -1.4351 -0.0407  0.8983
  360MOL0     N47438  10.667   7.298   5.809  0.7092 -0.1480 -0.0143
  360MOL0     N47439  10.548   7.242   5.802 -0.1720 -0.1885  0.8053
  360MOL0     C47440   9.624   7.978   5.429  0.4875  0.8817 -0.4167
  360MOL0     C47441   9.504   8.007   5.380 -0.2264 -1.1389 -0.0149
  360MOL0     C47442   9.099   7.986   5.161 -0.0888  0.0866  0.0213
  360MOL0     C47443   9.134   8.120   5.126 -0.5860  0.5945 -0.7570
  360MOL0     C47444   9.071   8.196   5.037 -0.8411  0.0662  0.8581
  360MOL0     C47445   8.957   8.142   4.974 -0.1223  0.6270 -0.3841
  360MOL0     O47446   8.908   8.219   4.871 -1.3022  0.7227 -0.3922
  360MOL0     C47447   8.770   8.270   4.871  0.0620  0.5771 -0.9976
  360MOL0     C47448   8.661   8.185   4.799  0.2670 -0.2440  0.9911
  360MOL0     C47449   8.527   8.258   4.778 -0.4314  0.3135  0.3014
  360MOL0     C47450   8.433   8.197   4.675 -0.4594 -1.5144  0.1615
  360MOL0     C47451   8.314   8.282   4.656  0.5854  0.2040 -0.6866
  360MOL0     C47452   8.212   8.334   4.614  0.3247 -1.0642 -0.3357
  360MOL0     C47453   8.909   8.010   5.011  0.2676 -0.6751  0.1362
  360MOL0     C47454   8.981   7.927   5.099  0.5564  0.3776  0.5149
  360MOL0     H47455   9.401   7.700   5.277 -1.1611 -2.1256  4.4073
  360MOL0     H47456   9.629   7.652   5.354  4.0771  1.7145 -0.5572
  360MOL0     H47457   9.728   7.611   5.519 -0.0116 -0.4668 -3.4910
  360MOL0     H47458   9.866   7.670   5.615  0.6743 -1.0437  0.4543
  360MOL0     H47459  10.008   7.672   5.425 -2.0136  3.1817  1.5274
  360MOL0     H47460   9.873   7.615   5.322  0.4638 -1.8585  0.3014
  360MOL0     H47461   9.856   7.418   5.441 -1.7180  2.3530  2.6329
  360MOL0     H47462   9.988   7.467   5.554 -2.6394 -0.1728  1.1239
  360MOL0     H47463  10.011   7.411   5.259 -2.6607  1.0533  0.7710
  360MOL0     H47464  10.155   7.462   5.363  1.8189 -2.6804  0.4719
  360MOL0     H47465  10.154   7.221   5.298  2.2763 -2.4066  1.0499
  360MOL0     H47466   9.990   7.200   5.371 -0.4081  0.1367  2.5393
  360MOL0     H47467  10.136   7.135   5.533 -1.2295  0.6500  1.3258
  360MOL0     H47468  10.083   7.293   5.585  1.4449  0.8480 -0.0072
  360MOL0     H47469  10.364   7.210   5.498 -2.5630  0.1398 -4.1886
  360MOL0     H47470  10.330   7.382   5.495  2.6991  0.0283  1.3841
  360MOL0     H47471  10.310   7.190   5.735  3.0014 -1.6982 -2.5513
  360MOL0     H47472  10.253   7.354   5.741  1.3304 -1.5549  4.6106
  360MOL0     H47473  10.465   7.535   5.681 -1.5466 -0.8095  1.4193
  360MOL0     H47474  10.755   7.589   5.668  1.7115 -2.8998 -1.9913
  360MOL0     H47475  10.861   7.466   5.758  1.1590  0.7284  4.7866
  360MOL0     H47476  10.670   7.604   5.937 -1.1514  2.2545  0.2918
  360MOL0     H47477  10.765   7.717   5.849  4.3765  0.4190  0.8364
  360MOL0     H47478  10.913   7.495   5.983  1.2258 -0.8570 -0.9648
  360MOL0     H47479  10.971   7.658   5.939  0.7157 -0.0183  1.0915
  360MOL0     H47480  10.817   7.742   6.114  1.4249  0.8109  2.6831
  360MOL0     H47481  10.955   7.650   6.167 -0.1963 -0.2775  0.5778
  360MOL0     H47482  10.770   7.322   6.052  1.1582  4.8978 -0.6931
  360MOL0     H47483  10.908   7.125   6.127  0.1138  0.9985  0.5561
  360MOL0     H47484  10.910   6.922   6.498 -0.0635  1.4389 -1.3836
  360MOL0     H47485  10.873   6.678   6.588 -0.6966  1.3346  0.2932
  360MOL0     H47486  10.945   6.354   6.303 -0.8227  1.3715 -4.0624
  360MOL0     H47487  10.776   6.431   6.290  0.3927  1.6865  1.2357
  360MOL0     H47488  10.791   6.289   6.531 -0.7802  3.6288 -1.5085
  360MOL0     H47489  10.820   6.175   6.386 -0.4679 -1.2121  0.7784
  360MOL0     H47490  10.616   6.255   6.287  1.9422 -2.3638 -0.2738
  360MOL0     H47491  10.589   6.363   6.422  2.7149  1.2334 -0.7177
  360MOL0     H47492  10.583   6.057   6.401 -1.1488 -0.7392  0.8631
  360MOL0     H47493  10.597   6.119   6.564  0.1958 -1.5646 -0.0518
  360MOL0     H47494  10.372   6.234   6.505  0.0350  2.0627 -4.1653
  360MOL0     H47495  10.380   6.048   6.516 -3.1617  0.1175 -1.5670
  360MOL0     H47496  10.407   6.084   6.268  1.1594  1.0874 -0.3297
  360MOL0     H47497  10.314   6.235   6.285 -0.5675 -1.4260 -1.1128
  360MOL0     H47498  10.136   6.118   6.389  0.6185  2.3554 -0.2327
  360MOL0     H47499  10.150   6.062   6.229 -0.9882 -0.8360  1.3013
  360MOL0     H47500  10.092   5.897   6.392  0.2275  2.5437  3.6397
  360MOL0     H47501  10.249   5.891   6.463  2.0471 -1.4726 -0.6706
  360MOL0     H47502  11.009   6.546   6.202  3.1397  3.1942 -1.8418
  360MOL0     H47503  11.064   6.767   6.139  2.7270  1.1693  0.3257
  360MOL0     H47504  11.009   7.308   6.488  0.2207 -1.2934 -0.0209
  360MOL0     H47505  10.887   7.517   6.414 -0.8168 -0.3378  1.3714
  360MOL0     H47506   9.698   8.046   5.470 -0.1139  0.8250  0.7826
  360MOL0     H47507   9.466   8.106   5.405 -2.1856 -2.2769  1.8618
  360MOL0     H47508   9.212   8.175   5.178 -0.1358 -0.4568 -0.3041
  360MOL0     H47509   9.102   8.298   5.018  1.5336 -1.0878 -2.2969
  360MOL0     H47510   8.781   8.369   4.826  3.7363  0.0028 -1.6610
  360MOL0     H47511   8.729   8.283   4.971 -2.4161 -2.0953 -1.5204
  360MOL0     H47512   8.696   8.161   4.698 -1.7217 -1.5142  0.5528
  360MOL0     H47513   8.651   8.087   4.848 -1.3972 -1.7168 -2.0393
  360MOL0     H47514   8.547   8.361   4.745  0.2361  0.2987  0.6403
  360MOL0     H47515   8.478   8.277   4.874  0.6033  0.7649  0.7605
  360MOL0     H47516   8.483   8.166   4.584 -0.0112 -3.1477  0.9318
  360MOL0     H47517   8.407   8.101   4.721  0.9429 -0.9432  2.3030
  360MOL0     H47518   8.134   8.372   4.552  1.3054 -0.1550 -1.0585
  360MOL0     H47519   8.822   7.964   4.964 -1.6848  1.6083  1.2461
  360MOL0     H47520   8.956   7.822   5.117 -4.3083  1.3816  1.0998
  361MOL0     O47521  10.012  11.327   9.298 -0.2058  0.1121  0.2220
  361MOL0     C47522  10.064  11.277   9.403  0.9849 -0.7941  0.7267
  361MOL0     O47523  10.189  11.255   9.426 -0.4857 -0.9888  0.3102
  361MOL0     C47524  10.265  11.280   9.316 -0.1923  0.3510  0.9147
  361MOL0     C47525  10.329  11.396   9.294 -0.2908 -0.1838 -0.5081
  361MOL0     C47526  10.401  11.416   9.175  0.3580  0.5067  1.0053
  361MOL0     C47527  10.409  11.319   9.075 -0.9972 -0.0593 -0.2960
  361MOL0     O47528  10.479  11.326   8.955  0.4195 -0.5011  0.0329
  361MOL0     C47529  10.503  11.452   8.906 -0.1025  0.3741  0.3591
  361MOL0     C47530  10.532  11.446   8.761 -1.0526 -0.1535 -0.9141
  361MOL0     C47531  10.594  11.565   8.691 -0.5674 -0.8055 -0.4501
  361MOL0     C47532  10.544  11.707   8.721  0.7018 -0.2647  0.4269
  361MOL0     C47533  10.401  11.733   8.673  0.6702  0.4289 -0.5935
  361MOL0     C47534  10.369  11.881   8.681 -0.0240  1.1683  0.0241
  361MOL0     C47535  10.275  11.939   8.578 -0.7052 -0.0485 -0.0700
  361MOL0     C47536  10.151  11.857   8.561  0.0782 -0.3473 -0.4968
  361MOL0     N47537  10.056  11.923   8.465  0.3454  0.0035 -0.6399
  361MOL0     C47538  10.083  11.969   8.340 -0.6371 -1.0303 -0.0956
  361MOL0     C47539   9.963  12.027   8.302  0.1325 -1.1092  0.1017
  361MOL0     C47540   9.953  12.102   8.174 -0.2115  0.7946  0.1630
  361MOL0     C47541   9.906  12.007   8.063  1.8409  0.4040 -0.2182
  361MOL0     C47542   9.929  12.078   7.937  0.5519  0.1286  0.8173
  361MOL0     C47543   9.869  11.998   7.815 -0.3609  0.0522 -0.6037
  361MOL0     O47544   9.954  12.009   7.706 -1.0075  0.4715  0.7202
  361MOL0     C47545   9.910  11.981   7.582 -0.9943 -0.3351  0.9047
  361MOL0     C47546   9.995  12.010   7.479 -0.4782  0.3295 -0.9266
  361MOL0     C47547   9.969  11.963   7.345  0.0364 -0.2126 -0.2535
  361MOL0     C47548   9.850  11.890   7.316 -0.3434 -0.2603  0.0645
  361MOL0     C47549   9.818  11.835   7.188  0.0194 -0.9248 -0.1790
  361MOL0     O47550   9.690  11.796   7.164  0.1751 -0.9032 -0.3913
  361MOL0     C47551   9.664  11.760   7.027  0.5409 -0.9005  1.1932
  361MOL0     C47552   9.634  11.623   7.011  0.0884 -0.0851  0.6820
  361MOL0     C47553   9.627  11.570   6.879  0.6694 -0.2786 -1.2057
  361MOL0     C47554   9.622  11.656   6.768  0.7676 -0.1145  0.0176
  361MOL0     O47555   9.601  11.592   6.651 -0.0124 -0.1194  0.1277
  361MOL0     C47556   9.627  11.655   6.519  0.5031 -0.7212 -0.5786
  361MOL0     C47557   9.598  11.560   6.413  0.0247  0.2260  0.1022
  361MOL0     C47558   9.460  11.485   6.404  0.2549 -0.3273 -0.0327
  361MOL0     C47559   9.459  11.403   6.284  1.1739  0.1957 -0.7586
  361MOL0     C47560   9.341  11.298   6.290 -0.2300  0.0891 -0.2476
  361MOL0     C47561   9.320  11.242   6.147  0.3387  0.0883  0.0767
  361MOL0     C47562   9.424  11.156   6.095  0.0451  0.2192  0.2654
  361MOL0     C47563   9.428  11.019   6.179 -0.8798 -0.1428  0.4533
  361MOL0    Cl47564   9.265  10.932   6.181  0.3602 -0.2866 -0.4034
  361MOL0     C47565   9.650  11.793   6.782  0.1264  0.2379  0.0700
  361MOL0     C47566   9.665  11.848   6.909  0.5502  0.4805 -0.7841
  361MOL0     O47567   9.914  11.821   7.118  0.6629  0.3499 -0.5017
  361MOL0     C47568   9.760  11.874   7.423 -0.3223  0.9847 -0.6621
  361MOL0     C47569   9.791  11.922   7.556 -0.6042  0.5386 -0.0124
  361MOL0     N47570   9.867  12.005   8.406  0.2899  0.5896  0.6663
  361MOL0     N47571   9.928  11.952   8.502  0.3107  0.5245  0.7970
  361MOL0     C47572  10.335  11.202   9.098 -0.5190  0.6897  0.0810
  361MOL0     C47573  10.253  11.180   9.217  0.1002 -0.3394  0.2877
  361MOL0     C47574   9.962  11.241   9.496 -0.7061 -0.5054 -0.6706
  361MOL0     C47575   9.843  11.307   9.503  0.0448  0.5566 -1.2894
  361MOL0     C47576   9.737  11.287   9.600 -0.3230 -0.4847  0.6556
  361MOL0     C47577   9.759  11.190   9.688 -0.4254 -0.2954  0.0002
  361MOL0     O47578   9.666  11.164   9.779  0.5589  0.4512 -0.7323
  361MOL0     C47579   9.684  11.254   9.887  0.2858 -0.8970  0.5144
  361MOL0     C47580   9.602  11.387   9.880  0.1532  0.8052  0.5716
  361MOL0     C47581   9.457  11.359   9.855 -0.3930 -0.2883  0.6928
  361MOL0     C47582   9.389  11.277   9.967  0.3040  0.9178 -1.0721
  361MOL0     C47583   9.384  11.354  10.089 -0.6677  0.8516 -0.6343
  361MOL0     C47584   9.410  11.410  10.192 -0.0338 -0.6701  0.6363
  361MOL0     C47585   9.875  11.111   9.683 -0.3386  0.1697 -0.4594
  361MOL0     C47586   9.979  11.146   9.599 -0.6613 -0.0687 -0.8521
  361MOL0     H47587  10.332  11.468   9.375  0.3281  1.1590 -1.6721
  361MOL0     H47588  10.448  11.511   9.151 -1.5648  1.2873  0.1745
  361MOL0     H47589  10.581  11.513   8.953  1.8119 -0.9138 -0.9770
  361MOL0     H47590  10.408  11.504   8.918  1.6653  3.3518  2.6113
  361MOL0     H47591  10.449  11.414   8.698  0.0524 -1.9401 -1.5628
  361MOL0     H47592  10.603  11.362   8.762  0.4456  1.0091  1.4103
  361MOL0     H47593  10.585  11.537   8.586 -0.1418  2.0727 -1.3378
  361MOL0     H47594  10.701  11.565   8.716 -0.3075 -4.9465 -0.9023
  361MOL0     H47595  10.549  11.732   8.827 -2.1199 -4.9794  1.9794
  361MOL0     H47596  10.611  11.769   8.660 -0.1754  0.9983  0.7104
  361MOL0     H47597  10.324  11.687   8.736  0.6722  1.0342 -0.1270
  361MOL0     H47598  10.392  11.711   8.567 -0.9667  3.4652 -1.2103
  361MOL0     H47599  10.452  11.951   8.683 -1.3619  2.8261  0.2346
  361MOL0     H47600  10.323  11.902   8.779  1.1485 -0.1993  0.8987
  361MOL0     H47601  10.255  12.044   8.600  0.2814 -0.1014  1.2021
  361MOL0     H47602  10.333  11.937   8.485  0.5592 -0.0094  0.6886
  361MOL0     H47603  10.097  11.851   8.656 -1.0900 -0.8749 -1.1664
  361MOL0     H47604  10.169  11.752   8.536  0.2966 -0.8767  1.6588
  361MOL0     H47605  10.173  11.979   8.281 -0.9130 -0.7202 -0.4674
  361MOL0     H47606  10.043  12.158   8.150  1.3119 -0.1521  3.1763
  361MOL0     H47607   9.890  12.190   8.189  1.2922  2.5835 -3.0425
  361MOL0     H47608   9.802  11.982   8.084  2.1774 -0.7872  0.1117
  361MOL0     H47609   9.948  11.906   8.072  2.0466  0.3010 -2.0902
  361MOL0     H47610   9.886  12.179   7.933  2.9236  1.3278  2.7764
  361MOL0     H47611  10.037  12.089   7.930  0.5714 -0.6027 -0.3148
  361MOL0     H47612   9.770  12.044   7.803 -1.7018 -2.0586  1.3963
  361MOL0     H47613   9.863  11.890   7.831  0.4709 -0.1952 -1.8258
  361MOL0     H47614  10.093  12.050   7.499  1.4198 -2.9389 -2.7256
  361MOL0     H47615  10.042  11.986   7.268 -2.1884  0.8885 -2.1718
  361MOL0     H47616   9.630  11.549   7.090  1.6090 -2.5353 -1.3948
  361MOL0     H47617   9.624  11.462   6.881  4.1532 -0.5000 -2.4223
  361MOL0     H47618   9.731  11.689   6.525  1.2578 -3.1108  1.3344
  361MOL0     H47619   9.562  11.743   6.507  0.6953 -0.8004 -2.5636
  361MOL0     H47620   9.680  11.487   6.409 -1.7610 -1.8565 -1.6320
  361MOL0     H47621   9.616  11.612   6.318  4.6722 -2.2759 -0.7142
  361MOL0     H47622   9.375  11.553   6.406 -1.2593 -2.0970  2.4840
  361MOL0     H47623   9.449  11.431   6.499  0.4673  0.5096  0.4822
  361MOL0     H47624   9.446  11.472   6.201 -0.3239 -0.8671 -1.4481
  361MOL0     H47625   9.549  11.342   6.268  0.5839 -0.9281  0.0446
  361MOL0     H47626   9.251  11.352   6.321  1.2618  0.6553  3.5226
  361MOL0     H47627   9.350  11.217   6.363  0.7712 -0.3334 -0.8095
  361MOL0     H47628   9.317  11.329   6.080  0.8495 -1.9225 -2.7633
  361MOL0     H47629   9.231  11.178   6.151  1.4601 -1.5174  0.2209
  361MOL0     H47630   9.393  11.137   5.992  1.3107 -1.2914  0.1294
  361MOL0     H47631   9.518  11.213   6.093 -0.7887  1.6769  1.0278
  361MOL0     H47632   9.457  11.022   6.284  1.2513  0.5992 -0.0898
  361MOL0     H47633   9.492  10.960   6.113  0.3069  1.1845  0.3713
  361MOL0     H47634   9.662  11.846   6.688  2.8303 -0.8540 -0.2778
  361MOL0     H47635   9.707  11.944   6.936  1.9487 -0.4750  0.5845
  361MOL0     H47636   9.668  11.824   7.394  0.7732 -1.2700 -0.4261
  361MOL0     H47637   9.722  11.892   7.634 -0.4242 -0.2743 -0.1538
  361MOL0     H47638  10.331  11.127   9.020 -0.0198  1.9816 -1.2466
  361MOL0     H47639  10.203  11.086   9.237  1.2761 -1.7464 -2.6929
  361MOL0     H47640   9.821  11.387   9.432 -1.3988  0.8408 -0.5633
  361MOL0     H47641   9.638  11.330   9.603 -0.9525 -1.5905 -1.7898
  361MOL0     H47642   9.792  11.270   9.898  0.3433 -2.7644  4.4461
  361MOL0     H47643   9.655  11.199   9.977 -0.2802  2.3200  2.4622
  361MOL0     H47644   9.597  11.436   9.977  0.2331  3.5456 -0.7235
  361MOL0     H47645   9.640  11.456   9.804 -3.7369  1.1245 -1.3417
  361MOL0     H47646   9.453  11.322   9.752  2.2282  3.4295 -0.9649
  361MOL0     H47647   9.407  11.456   9.860  0.9806  0.3902  2.2137
  361MOL0     H47648   9.290  11.243   9.936 -0.3359  0.8780  0.8840
  361MOL0     H47649   9.451  11.190   9.991  3.8142  3.6325  0.7321
  361MOL0     H47650   9.452  11.467  10.272  0.8058 -0.4993  0.0800
  361MOL0     H47651   9.904  11.031   9.750 -1.3633 -0.8586 -1.2143
  361MOL0     H47652  10.071  11.088   9.601 -1.2207 -0.9839 -0.8384
  362MOL0     O47653   3.744   2.197   4.578 -0.4962  0.3436 -0.5202
  362MOL0     C47654   3.765   2.120   4.678  0.1063  0.2013 -0.6691
  362MOL0     O47655   3.886   2.065   4.708 -0.0714  0.1627 -0.6695
  362MOL0     C47656   4.008   2.105   4.651  0.8956 -0.5912  0.3642
  362MOL0     C47657   4.038   2.210   4.556  0.3396  0.2318  0.5349
  362MOL0     C47658   4.172   2.241   4.521  0.2696  0.3246  0.7029
  362MOL0     C47659   4.273   2.176   4.583 -0.7043  0.8939  0.0620
  362MOL0     O47660   4.397   2.227   4.560  0.0060 -0.4960  0.2599
  362MOL0     C47661   4.502   2.170   4.642  0.2872  0.4259  0.2797
  362MOL0     C47662   4.626   2.218   4.569  0.2601 -0.3026  0.2434
  362MOL0     C47663   4.644   2.134   4.438 -1.0652 -0.0180 -0.3151
  362MOL0     C47664   4.762   2.185   4.348 -0.5291  0.2247  0.3462
  362MOL0     C47665   4.767   2.124   4.206 -0.0221 -0.3074  0.2414
  362MOL0     C47666   4.784   1.975   4.203 -0.2138 -1.3692 -0.1345
  362MOL0     C47667   4.898   1.931   4.281 -0.6275  0.2172 -0.5808
  362MOL0     C47668   4.921   1.779   4.267 -0.2329  0.7457 -0.0113
  362MOL0     N47669   4.808   1.705   4.317  0.4978  0.0860 -0.7336
  362MOL0     C47670   4.753   1.699   4.445 -0.1728  0.9303  0.6146
  362MOL0     C47671   4.621   1.654   4.419  0.1209 -1.0072 -0.2915
  362MOL0     C47672   4.512   1.641   4.516 -0.5054 -0.2525  0.2720
  362MOL0     C47673   4.439   1.773   4.533  0.5042 -0.6861  0.1639
  362MOL0     C47674   4.380   1.831   4.404 -0.1222 -1.1734 -1.6030
  362MOL0     C47675   4.302   1.722   4.329 -0.2212 -0.6841 -0.2131
  362MOL0     O47676   4.216   1.783   4.229  1.1636 -0.2093 -0.1131
  362MOL0     C47677   4.084   1.777   4.275  0.3320 -0.0633 -0.0223
  362MOL0     C47678   4.005   1.664   4.255  0.5682 -0.7001  0.3745
  362MOL0     C47679   3.890   1.650   4.325 -0.1550 -0.7728  0.2200
  362MOL0     C47680   3.832   1.749   4.396  1.1753 -0.7240 -0.5598
  362MOL0     C47681   3.704   1.712   4.466 -0.2757 -0.7480  0.4339
  362MOL0     O47682   3.639   1.816   4.532  0.3224 -0.0434 -0.2314
  362MOL0     C47683   3.526   1.797   4.601 -1.0213  0.7462 -0.6605
  362MOL0     C47684   3.499   1.683   4.682  0.5472  0.6064 -0.7023
  362MOL0     C47685   3.378   1.668   4.747  1.5570  0.7236 -0.3315
  362MOL0     C47686   3.277   1.757   4.726  1.1727  0.0292 -0.9972
  362MOL0     O47687   3.146   1.747   4.780  0.2256 -0.0328  0.1448
  362MOL0     C47688   3.113   1.639   4.867 -0.2964 -0.8445  0.2734
  362MOL0     C47689   2.961   1.638   4.894 -0.6473 -0.8034 -0.0474
  362MOL0     C47690   2.910   1.539   4.997  1.3638 -0.2784 -0.5538
  362MOL0     C47691   2.951   1.596   5.129  0.1621  0.8761  1.0612
  362MOL0     C47692   2.875   1.518   5.234 -0.1035 -0.0150 -0.8370
  362MOL0     C47693   2.896   1.578   5.370  0.0456 -0.0326 -0.0587
  362MOL0     C47694   3.018   1.535   5.436 -0.0816 -0.5166 -0.8602
  362MOL0     C47695   3.027   1.589   5.583 -0.3285 -0.5823  0.1073
  362MOL0    Cl47696   2.938   1.493   5.700 -0.1318 -0.2062 -0.6212
  362MOL0     C47697   3.304   1.876   4.647 -0.5560  1.0080 -0.8983
  362MOL0     C47698   3.424   1.894   4.587 -0.4247 -0.1989 -0.2981
  362MOL0     O47699   3.677   1.591   4.475 -0.7458 -0.0774 -0.0760
  362MOL0     C47700   3.895   1.875   4.402 -0.2249 -0.1868  0.3264
  362MOL0     C47701   4.030   1.883   4.357  0.4419 -0.7512 -0.0418
  362MOL0     N47702   4.610   1.616   4.289  0.7811  0.7180  0.8149
  362MOL0     N47703   4.721   1.644   4.237 -0.6803  0.2632 -0.3691
  362MOL0     C47704   4.239   2.067   4.673  0.3629  0.0686 -0.2828
  362MOL0     C47705   4.110   2.027   4.699  0.1388 -0.8205  0.1154
  362MOL0     C47706   3.664   2.083   4.776  0.4327  0.1623  0.7889
  362MOL0     C47707   3.688   1.992   4.871 -0.5599  0.0614 -0.2740
  362MOL0     C47708   3.608   1.973   4.980  0.2056 -0.0030 -0.0314
  362MOL0     C47709   3.490   2.047   4.989  0.1066 -0.1848  0.1592
  362MOL0     O47710   3.403   2.020   5.090 -0.3739  0.6743 -0.0132
  362MOL0     C47711   3.313   1.912   5.061  0.3705  0.1867 -0.4479
  362MOL0     C47712   3.170   1.962   5.082  0.0164 -0.3588  0.4004
  362MOL0     C47713   3.124   1.989   5.226 -0.2057 -0.7424  0.2387
  362MOL0     C47714   3.196   2.090   5.315 -0.5332  0.6686  0.4472
  362MOL0     C47715   3.197   2.226   5.273  0.9556 -0.1720  1.0174
  362MOL0     C47716   3.202   2.345   5.245 -0.3023 -0.0518  0.8951
  362MOL0     C47717   3.456   2.132   4.889  0.0878 -0.3052  0.3504
  362MOL0     C47718   3.541   2.152   4.771 -0.2773 -0.0879  0.1749
  362MOL0     H47719   3.957   2.248   4.495  2.2257 -1.4492 -3.3571
  362MOL0     H47720   4.174   2.305   4.433 -3.0777 -2.0324 -1.3246
  362MOL0     H47721   4.489   2.062   4.651 -3.5510  0.3664 -3.0629
  362MOL0     H47722   4.495   2.202   4.746  0.3685  0.7403  0.1918
  362MOL0     H47723   4.724   2.212   4.618  1.0502  1.8382 -0.9345
  362MOL0     H47724   4.611   2.325   4.552  2.0637  0.1212  1.0809
  362MOL0     H47725   4.553   2.137   4.378 -0.4216  1.5381 -1.2621
  362MOL0     H47726   4.663   2.032   4.472  1.2372  0.6499  0.6300
  362MOL0     H47727   4.746   2.291   4.326 -0.0295 -0.0733 -1.6467
  362MOL0     H47728   4.853   2.174   4.407  0.4312  2.5711 -0.5559
  362MOL0     H47729   4.852   2.153   4.144  1.1466 -2.8576  0.4808
  362MOL0     H47730   4.674   2.146   4.153  1.7096  1.1776 -2.4130
  362MOL0     H47731   4.796   1.949   4.098 -3.0663 -1.0054 -0.6251
  362MOL0     H47732   4.691   1.931   4.240 -0.4897 -0.7620 -0.0916
  362MOL0     H47733   4.990   1.984   4.253 -0.2365  0.0183  0.2636
  362MOL0     H47734   4.879   1.965   4.384  2.1291  3.2178 -0.8872
  362MOL0     H47735   5.008   1.754   4.329 -1.4904  4.5079  3.7858
  362MOL0     H47736   4.939   1.761   4.161 -0.9588  1.1714 -0.2153
  362MOL0     H47737   4.795   1.737   4.537  1.0167 -4.4003  2.5994
  362MOL0     H47738   4.555   1.608   4.611  1.0225  2.2767  0.5471
  362MOL0     H47739   4.442   1.568   4.474 -0.8311 -0.0572  0.4632
  362MOL0     H47740   4.501   1.853   4.575  0.4678  1.1980 -3.0110
  362MOL0     H47741   4.354   1.750   4.598  0.6628 -3.1433 -0.3825
  362MOL0     H47742   4.307   1.910   4.423 -2.5260 -3.4419 -0.6815
  362MOL0     H47743   4.458   1.874   4.341 -1.7913  0.1101 -2.8926
  362MOL0     H47744   4.235   1.686   4.408 -1.7710  2.6805  0.1846
  362MOL0     H47745   4.362   1.640   4.288 -0.4646 -0.2740 -1.4397
  362MOL0     H47746   4.036   1.586   4.186  2.0787  0.3656 -0.2069
  362MOL0     H47747   3.849   1.550   4.318 -1.5212 -0.3193  1.2426
  362MOL0     H47748   3.582   1.613   4.683 -0.3891 -0.5663 -1.7261
  362MOL0     H47749   3.372   1.571   4.797 -2.3422  2.6276  3.4680
  362MOL0     H47750   3.160   1.670   4.961 -0.3014  1.5823 -0.4555
  362MOL0     H47751   3.147   1.541   4.833  4.3399  1.2168 -1.9611
  362MOL0     H47752   2.913   1.614   4.798  1.2356 -1.9644 -0.7422
  362MOL0     H47753   2.938   1.740   4.927  1.8069  0.8308 -2.8509
  362MOL0     H47754   2.966   1.447   4.980  2.4517 -0.0955  1.6920
  362MOL0     H47755   2.802   1.525   4.982  0.6259  1.0367  2.7063
  362MOL0     H47756   3.060   1.596   5.132  0.1850 -0.2602  0.6637
  362MOL0     H47757   2.912   1.698   5.142  0.7934  1.2446  0.1894
  362MOL0     H47758   2.911   1.415   5.238 -0.6746 -0.2740 -2.0131
  362MOL0     H47759   2.767   1.500   5.233 -0.4881  0.3842  4.2456
  362MOL0     H47760   2.809   1.555   5.432 -1.9935 -0.3483 -2.8477
  362MOL0     H47761   2.909   1.686   5.357 -1.1468 -0.1247 -2.6101
  362MOL0     H47762   3.019   1.426   5.436  1.0485 -0.5450  0.5713
  362MOL0     H47763   3.112   1.567   5.390  0.1183  0.1301 -0.0330
  362MOL0     H47764   2.987   1.690   5.573  0.3978 -0.5124 -2.7526
  362MOL0     H47765   3.132   1.607   5.609 -1.6989  5.3687  3.5413
  362MOL0     H47766   3.227   1.950   4.631 -1.0330  0.8645  0.5873
  362MOL0     H47767   3.442   1.979   4.523  3.4358 -2.5123 -2.6641
  362MOL0     H47768   3.852   1.951   4.467 -1.3597  1.7135 -2.4508
  362MOL0     H47769   4.088   1.974   4.364  1.4110 -1.2704 -0.9874
  362MOL0     H47770   4.323   2.020   4.722  0.3447 -0.9402 -1.1855
  362MOL0     H47771   4.094   1.951   4.775 -0.4362  0.0925  0.9288
  362MOL0     H47772   3.784   1.942   4.869  1.5387  3.1929  4.3340
  362MOL0     H47773   3.634   1.893   5.049  2.0262  0.1841 -0.4651
  362MOL0     H47774   3.329   1.828   5.128  3.7364  0.3840 -0.8386
  362MOL0     H47775   3.330   1.875   4.959 -2.5287 -4.9503  0.6244
  362MOL0     H47776   3.145   2.049   5.020 -3.6357 -2.6674 -1.7604
  362MOL0     H47777   3.105   1.886   5.037  2.2403 -1.8994 -0.3591
  362MOL0     H47778   3.129   1.893   5.279  2.2642 -1.1324 -0.5606
  362MOL0     H47779   3.021   2.024   5.215 -0.0568  0.2949  1.9086
  362MOL0     H47780   3.148   2.089   5.414  2.5338 -0.0051  2.0468
  362MOL0     H47781   3.292   2.046   5.344 -2.2084 -2.8774  1.2252
  362MOL0     H47782   3.224   2.448   5.224  0.0511 -0.7695 -2.9169
  362MOL0     H47783   3.358   2.177   4.899  0.3807  1.4846 -3.0410
  362MOL0     H47784   3.523   2.225   4.692  1.9732 -0.5232 -0.8377
  363MOL0     O47785   7.733   7.256   1.739 -0.2659  0.1300 -0.6896
  363MOL0     C47786   7.825   7.245   1.649  0.3012 -0.6563 -0.8787
  363MOL0     O47787   7.876   7.113   1.616  0.1936  0.0981  0.1028
  363MOL0     C47788   7.821   7.010   1.690 -0.6393  0.1550 -0.3993
  363MOL0     C47789   7.699   6.965   1.646  0.6916 -0.2109  0.5042
  363MOL0     C47790   7.627   6.860   1.714  0.5845 -0.6040 -0.0855
  363MOL0     C47791   7.677   6.807   1.832  0.1433  0.4136 -0.2225
  363MOL0     O47792   7.626   6.698   1.909 -0.8509  0.0720  0.1668
  363MOL0     C47793   7.491   6.665   1.903 -0.0712 -0.1389  0.5056
  363MOL0     C47794   7.447   6.561   2.011  1.1501 -0.4928 -0.2112
  363MOL0     C47795   7.474   6.419   1.962 -0.5451  0.4896 -0.0905
  363MOL0     C47796   7.412   6.319   2.061 -0.5590  0.5907  0.2033
  363MOL0     C47797   7.445   6.179   2.013  0.3645  1.2417  0.1794
  363MOL0     C47798   7.409   6.078   2.120  0.6793  0.5254  0.0911
  363MOL0     C47799   7.449   5.928   2.089  0.8967  0.2612 -0.6803
  363MOL0     C47800   7.603   5.905   2.084 -0.6242 -0.4028 -0.1189
  363MOL0     N47801   7.661   5.767   2.045  0.1689 -0.0210 -0.9986
  363MOL0     C47802   7.794   5.718   2.046  0.3774 -1.0268  0.2267
  363MOL0     C47803   7.778   5.605   1.993 -0.4017  0.8523 -0.4454
  363MOL0     C47804   7.893   5.513   1.965  0.4565  0.1553 -0.3260
  363MOL0     C47805   7.896   5.401   2.074  0.6109  0.0320  0.3208
  363MOL0     C47806   8.030   5.326   2.097  0.7929 -0.7493 -0.3497
  363MOL0     C47807   8.027   5.236   2.220  0.2337 -0.1681  0.1099
  363MOL0     O47808   8.156   5.169   2.246 -0.6364  0.3330  0.1531
  363MOL0     C47809   8.272   5.234   2.269 -0.0260  0.0297  0.4695
  363MOL0     C47810   8.296   5.325   2.375 -0.1119 -0.3492 -0.1793
  363MOL0     C47811   8.401   5.413   2.388  0.8144 -0.0054  0.5877
  363MOL0     C47812   8.493   5.408   2.283 -0.3704  1.5711 -1.0554
  363MOL0     C47813   8.603   5.505   2.297 -0.5775  1.1779 -0.1194
  363MOL0     O47814   8.708   5.492   2.207  0.1548 -0.0928  0.0259
  363MOL0     C47815   8.798   5.591   2.203 -1.1301 -0.0049  0.1044
  363MOL0     C47816   8.782   5.696   2.116 -0.5640  0.8653 -0.5472
  363MOL0     C47817   8.874   5.803   2.106  0.6989  1.3019 -1.0185
  363MOL0     C47818   8.986   5.800   2.181  0.4047 -0.0791  0.6556
  363MOL0     O47819   9.059   5.915   2.186 -0.2081 -0.9186  0.4041
  363MOL0     C47820   9.202   5.888   2.165 -0.6375  1.2250 -0.8859
  363MOL0     C47821   9.257   6.023   2.102 -0.6396  0.2222  1.0560
  363MOL0     C47822   9.238   6.037   1.959  0.0894  0.2770  1.0208
  363MOL0     C47823   9.321   5.931   1.887  0.2403 -0.1722 -0.4869
  363MOL0     C47824   9.468   5.920   1.937 -0.8846  0.9384 -1.1710
  363MOL0     C47825   9.549   6.048   1.915 -0.0978  0.6120  0.1006
  363MOL0     C47826   9.701   6.035   1.959 -0.3171 -1.0406  1.0015
  363MOL0     C47827   9.750   6.169   2.017  0.4676  0.1394 -0.7347
  363MOL0    Cl47828   9.919   6.181   2.065 -0.1453  0.5074 -0.2022
  363MOL0     C47829   9.015   5.692   2.265 -0.2965  0.2564  0.6751
  363MOL0     C47830   8.910   5.593   2.279 -0.7611  0.1789  0.3006
  363MOL0     O47831   8.583   5.607   2.362  0.5188 -0.9201  0.4705
  363MOL0     C47832   8.483   5.310   2.182 -0.3476  0.7017  0.2819
  363MOL0     C47833   8.373   5.222   2.174 -0.0493 -0.6652  0.3908
  363MOL0     N47834   7.638   5.574   1.973 -0.8367 -0.3706  0.2363
  363MOL0     N47835   7.575   5.682   1.991 -0.7397  0.0967 -0.2422
  363MOL0     C47836   7.801   6.852   1.871  0.2137  0.8668  1.1704
  363MOL0     C47837   7.876   6.952   1.799  0.9878 -0.0247 -0.4621
  363MOL0     C47838   7.907   7.364   1.605  0.5088  0.0684  0.0372
  363MOL0     C47839   7.887   7.493   1.655  1.1344  0.2530 -1.7629
  363MOL0     C47840   7.963   7.602   1.616 -0.0798 -0.7997 -0.6797
  363MOL0     C47841   8.056   7.595   1.504 -0.1558  0.3061  0.5080
  363MOL0     O47842   8.100   7.718   1.459  0.4948 -0.3225 -0.0224
  363MOL0     C47843   8.199   7.727   1.350 -0.1619  0.5885 -0.1204
  363MOL0     C47844   8.344   7.735   1.397 -0.0788 -0.7161  0.6346
  363MOL0     C47845   8.390   7.879   1.415  0.3403  0.5297 -0.1949
  363MOL0     C47846   8.542   7.872   1.457  0.0935 -1.4217 -0.2603
  363MOL0     C47847   8.588   8.006   1.490  0.0238 -0.1188 -0.5452
  363MOL0     C47848   8.621   8.122   1.524  0.3322  0.6493  0.2071
  363MOL0     C47849   8.078   7.469   1.445  0.3442 -0.0018 -0.3054
  363MOL0     C47850   8.007   7.356   1.496 -0.6946  0.1600  0.4496
  363MOL0     H47851   7.650   7.008   1.560 -0.6797 -0.2352  1.2338
  363MOL0     H47852   7.536   6.832   1.663  1.6017  1.1224 -3.1274
  363MOL0     H47853   7.469   6.635   1.800 -0.0378 -0.0933  0.4852
  363MOL0     H47854   7.433   6.757   1.911  2.6877  1.7040  0.3938
  363MOL0     H47855   7.340   6.576   2.026  0.6121 -2.7849 -1.3110
  363MOL0     H47856   7.475   6.581   2.114 -1.6728  2.8492  0.0927
  363MOL0     H47857   7.579   6.394   1.943  0.1868  3.1110  0.1988
  363MOL0     H47858   7.424   6.417   1.865 -5.0395 -1.6127  1.9717
  363MOL0     H47859   7.453   6.329   2.162 -2.7313 -0.2900  1.2379
  363MOL0     H47860   7.306   6.346   2.068 -0.5212  0.6517  0.5485
  363MOL0     H47861   7.552   6.180   1.996  0.5878  1.1293  1.4545
  363MOL0     H47862   7.389   6.162   1.921  1.6229  3.9557 -1.2042
  363MOL0     H47863   7.300   6.070   2.116  0.7289 -0.3389 -3.7910
  363MOL0     H47864   7.436   6.119   2.217 -2.0631  1.4239  0.5510
  363MOL0     H47865   7.405   5.868   2.169  0.2863 -0.2240 -1.3558
  363MOL0     H47866   7.394   5.900   1.998 -0.6087  1.7724 -0.2845
  363MOL0     H47867   7.653   5.932   2.177  2.1768 -2.7969 -0.7935
  363MOL0     H47868   7.639   5.981   2.015  0.4306 -0.2840  0.5439
  363MOL0     H47869   7.890   5.763   2.072 -1.0631  0.1664  4.2067
  363MOL0     H47870   7.989   5.565   1.954  0.9245 -0.4175  0.9257
  363MOL0     H47871   7.881   5.455   1.873  0.1913 -0.9363  0.3914
  363MOL0     H47872   7.820   5.326   2.052 -0.5562  0.0609  3.6599
  363MOL0     H47873   7.870   5.452   2.168 -1.8342  0.2434 -0.3975
  363MOL0     H47874   8.051   5.267   2.008 -2.1629 -1.1274 -0.9131
  363MOL0     H47875   8.114   5.393   2.114  1.6438 -2.0007  0.5790
  363MOL0     H47876   7.943   5.167   2.206 -0.8165  0.5433  2.3626
  363MOL0     H47877   8.000   5.292   2.310  1.2759  0.9350 -0.2361
  363MOL0     H47878   8.225   5.331   2.456  1.3359  0.7411  1.0727
  363MOL0     H47879   8.404   5.482   2.472  0.8706  2.0173 -1.0131
  363MOL0     H47880   8.691   5.716   2.059 -0.9758 -1.4672 -0.8044
  363MOL0     H47881   8.862   5.897   2.053  2.0457  0.8199 -2.2558
  363MOL0     H47882   9.220   5.809   2.092 -0.6108  0.9031 -0.5295
  363MOL0     H47883   9.252   5.855   2.256  0.2083 -1.9082 -2.3689
  363MOL0     H47884   9.362   6.035   2.132 -0.7600  0.7990  1.2540
  363MOL0     H47885   9.211   6.112   2.146 -1.4944 -1.1123  2.9888
  363MOL0     H47886   9.281   6.129   1.919 -1.7006  0.7998  0.2364
  363MOL0     H47887   9.134   6.014   1.935  0.2027 -0.4336  1.1766
  363MOL0     H47888   9.275   5.833   1.871  0.9497 -0.5624 -0.2339
  363MOL0     H47889   9.337   5.965   1.785 -2.3908  2.3955 -0.1482
  363MOL0     H47890   9.505   5.839   1.874 -1.8611 -1.5202  1.1837
  363MOL0     H47891   9.483   5.881   2.038  0.7468  3.5453 -0.3077
  363MOL0     H47892   9.503   6.126   1.977 -1.2992  0.1122 -0.1269
  363MOL0     H47893   9.551   6.077   1.809 -0.0125  0.5437  0.0831
  363MOL0     H47894   9.711   5.964   2.041  0.9184 -2.1605 -0.0659
  363MOL0     H47895   9.765   6.017   1.872 -0.0465 -2.4496  1.4745
  363MOL0     H47896   9.692   6.194   2.107  0.3137 -0.0420 -0.7843
  363MOL0     H47897   9.728   6.253   1.950 -1.3299  0.6451  0.4051
  363MOL0     H47898   9.105   5.684   2.324  2.4211  1.0408 -3.0092
  363MOL0     H47899   8.940   5.512   2.344  3.9232  1.4246  0.0968
  363MOL0     H47900   8.569   5.306   2.116  1.2357  2.5218  2.1215
  363MOL0     H47901   8.369   5.155   2.089  2.0459 -2.2326  1.4355
  363MOL0     H47902   7.844   6.813   1.963  3.7351  0.4823 -0.4715
  363MOL0     H47903   7.960   7.000   1.848 -0.9529  1.8017  1.2467
  363MOL0     H47904   7.828   7.513   1.744 -1.6267 -3.3170 -2.5427
  363MOL0     H47905   7.953   7.692   1.676  2.2476 -0.6954 -0.3827
  363MOL0     H47906   8.168   7.824   1.310  0.7690  1.4463  1.1712
  363MOL0     H47907   8.189   7.648   1.274 -0.7841 -1.0564  1.6069
  363MOL0     H47908   8.370   7.669   1.481  0.5296  0.2413  1.2133
  363MOL0     H47909   8.404   7.701   1.312 -0.3218  0.5320 -0.0599
  363MOL0     H47910   8.331   7.920   1.498 -1.0426  1.4399 -1.5755
  363MOL0     H47911   8.371   7.939   1.326 -0.0009  2.2836  1.0002
  363MOL0     H47912   8.558   7.814   1.548  0.4169 -1.6472 -0.4577
  363MOL0     H47913   8.613   7.833   1.383  3.0642 -0.8684  2.0973
  363MOL0     H47914   8.667   8.218   1.529  1.6538  0.0298  0.2102
  363MOL0     H47915   8.151   7.472   1.365  2.4283  4.1158  1.4527
  363MOL0     H47916   8.017   7.260   1.446  0.5482  0.5448 -0.0781
  364MOL0     O47917   8.835   0.448   7.805  0.4393  0.0723 -0.0382
  364MOL0     C47918   8.934   0.379   7.786 -0.2689 -0.6285  0.5319
  364MOL0     O47919   8.994   0.359   7.666  0.3255 -0.3580 -0.0479
  364MOL0     C47920   8.992   0.460   7.570 -0.5350 -0.8750 -0.5369
  364MOL0     C47921   8.957   0.596   7.592  1.0350 -0.0160 -0.9439
  364MOL0     C47922   8.969   0.698   7.493 -0.4393  0.8056  0.3381
  364MOL0     C47923   9.027   0.661   7.370  0.9274 -0.8875  1.3643
  364MOL0     O47924   9.023   0.760   7.275 -0.0302 -0.2230 -0.6481
  364MOL0     C47925   9.143   0.778   7.203  0.3062  0.3575  0.2953
  364MOL0     C47926   9.136   0.891   7.102 -0.6236  0.3490  0.2270
  364MOL0     C47927   9.002   0.893   7.028  0.2198 -1.2567  0.1625
  364MOL0     C47928   8.901   1.000   7.081 -0.7224  0.7175 -0.2863
  364MOL0     C47929   8.760   0.991   7.041  0.9712  1.4009 -0.1303
  364MOL0     C47930   8.695   0.860   7.047 -0.2249  0.7680 -0.2574
  364MOL0     C47931   8.542   0.866   7.067 -0.0489  0.1688  0.2206
  364MOL0     C47932   8.484   0.979   6.977  0.7243  0.6032  0.6311
  364MOL0     N47933   8.345   0.957   6.951 -0.3414  0.4001 -0.1587
  364MOL0     C47934   8.294   0.836   6.929  1.1029 -0.2294 -0.3926
  364MOL0     C47935   8.159   0.864   6.925 -1.1233 -0.2054 -0.1163
  364MOL0     C47936   8.066   0.762   6.884  0.0605 -0.3372  0.2133
  364MOL0     C47937   7.991   0.818   6.758  0.1013 -0.0493 -0.4530
  364MOL0     C47938   8.080   0.855   6.639  1.0252  0.7159 -0.7874
  364MOL0     C47939   7.997   0.853   6.512 -0.1942  0.1375  0.7506
  364MOL0     O47940   8.066   0.879   6.392  0.4849  0.1416  0.9560
  364MOL0     C47941   8.091   0.765   6.313  1.4062  0.2891 -0.2276
  364MOL0     C47942   8.196   0.686   6.338 -0.0460  1.0649 -0.7164
  364MOL0     C47943   8.216   0.572   6.252 -0.7466  0.6937 -1.1481
  364MOL0     C47944   8.112   0.529   6.164  0.5755  0.1840 -0.1167
  364MOL0     C47945   8.125   0.416   6.075  0.1755  0.1720  0.2403
  364MOL0     O47946   8.205   0.320   6.131 -0.0957 -0.3408 -0.8229
  364MOL0     C47947   8.229   0.195   6.059  0.5902 -0.5204  0.0515
  364MOL0     C47948   8.246   0.177   5.921  0.0675  1.0635 -0.2400
  364MOL0     C47949   8.286   0.050   5.867  0.0376  0.6284 -0.4416
  364MOL0     C47950   8.304  -0.058   5.956 -0.2618 -0.5488 -0.6766
  364MOL0     O47951   8.348  -0.184   5.906  0.0828  0.8592  1.1400
  364MOL0     C47952   8.293  -0.298   5.957 -0.1753 -0.5419  0.5626
  364MOL0     C47953   8.141  -0.286   5.928 -0.4184 -0.0501 -0.3030
  364MOL0     C47954   8.066  -0.416   5.905 -0.6590  0.5266 -0.3533
  364MOL0     C47955   8.047  -0.503   6.037  0.5455  0.7158  0.4537
  364MOL0     C47956   7.974  -0.639   6.013 -1.2736  0.0036  0.2448
  364MOL0     C47957   7.833  -0.636   5.955 -0.8779 -0.3431 -0.7664
  364MOL0     C47958   7.810  -0.705   5.819  0.2777 -0.1991  0.9688
  364MOL0     C47959   7.781  -0.847   5.822 -0.4454  0.1380 -0.4517
  364MOL0    Cl47960   7.773  -0.902   5.644  0.2893 -0.6481  0.1137
  364MOL0     C47961   8.282  -0.043   6.090  0.7267 -0.2905  0.6253
  364MOL0     C47962   8.250   0.085   6.142  1.1944 -0.5535  0.2223
  364MOL0     O47963   8.057   0.404   5.969  0.1613  0.3318  0.3182
  364MOL0     C47964   8.007   0.620   6.134 -0.2854  0.4479  0.3339
  364MOL0     C47965   7.999   0.743   6.205  0.3083 -0.6765 -1.4463
  364MOL0     N47966   8.147   1.001   6.927  0.4115 -0.8610  0.2420
  364MOL0     N47967   8.255   1.054   6.942 -0.8855 -1.0878 -0.1209
  364MOL0     C47968   9.069   0.530   7.350 -0.6431  0.0557 -0.0687
  364MOL0     C47969   9.056   0.434   7.453  0.2718  0.0167 -0.0478
  364MOL0     C47970   8.992   0.321   7.904  0.4872 -0.4774 -0.7818
  364MOL0     C47971   8.946   0.348   8.035  0.3484 -0.2209  0.0377
  364MOL0     C47972   9.000   0.280   8.139  0.2874 -0.3670  0.1530
  364MOL0     C47973   9.105   0.189   8.119  0.5838 -0.5413 -0.7411
  364MOL0     O47974   9.152   0.126   8.236  0.1498 -0.2852  0.0539
  364MOL0     C47975   9.261   0.036   8.234 -0.2728 -0.6747  0.1246
  364MOL0     C47976   9.299  -0.005   8.370  0.3385  0.5745  1.0386
  364MOL0     C47977   9.168  -0.056   8.449 -0.0080  0.3758 -0.5958
  364MOL0     C47978   9.196  -0.102   8.596 -0.1382 -0.1476 -0.0320
  364MOL0     C47979   9.213   0.008   8.693  0.5717  0.1744 -0.2706
  364MOL0     C47980   9.249   0.097   8.763  0.5575  0.4233 -1.0180
  364MOL0     C47981   9.154   0.161   7.993  0.1337  1.0603 -0.0786
  364MOL0     C47982   9.093   0.230   7.891 -0.5696  0.3153 -0.1309
  364MOL0     H47983   8.939   0.623   7.696  2.9206 -0.6913 -0.3906
  364MOL0     H47984   8.945   0.802   7.515  0.5382  1.3080 -0.8956
  364MOL0     H47985   9.163   0.686   7.148 -0.3264 -1.9079  3.5256
  364MOL0     H47986   9.226   0.792   7.273  3.2227 -1.5108 -2.5170
  364MOL0     H47987   9.215   0.869   7.030  1.3075  1.2870  1.9414
  364MOL0     H47988   9.148   0.987   7.154  2.0178  0.2668 -0.1264
  364MOL0     H47989   8.962   0.792   7.024 -1.8299 -0.4491 -1.3354
  364MOL0     H47990   9.008   0.925   6.923 -1.3683  2.1697  0.9876
  364MOL0     H47991   8.907   0.985   7.189 -1.0470  0.4752 -0.3029
  364MOL0     H47992   8.951   1.095   7.058  2.6144 -1.1367 -1.3240
  364MOL0     H47993   8.745   1.016   6.935 -3.1346  1.4154  0.3049
  364MOL0     H47994   8.705   1.060   7.106  3.0377  0.1108  3.2361
  364MOL0     H47995   8.740   0.787   7.114 -2.5212 -0.2860  0.2106
  364MOL0     H47996   8.715   0.806   6.954  1.0333 -0.8746  0.9082
  364MOL0     H47997   8.507   0.763   7.054  2.5515 -1.1465  2.6094
  364MOL0     H47998   8.515   0.890   7.170  1.4877  2.2654  0.1982
  364MOL0     H47999   8.518   0.973   6.873 -6.1466  4.7588 -2.6017
  364MOL0     H48000   8.493   1.084   7.006 -0.7861  1.4649 -1.7251
  364MOL0     H48001   8.336   0.736   6.923  1.2240 -0.2244  0.2540
  364MOL0     H48002   7.980   0.737   6.947 -3.6235  2.0482 -3.3270
  364MOL0     H48003   8.115   0.665   6.878 -0.2560 -0.4188 -2.4561
  364MOL0     H48004   7.932   0.906   6.786 -0.0339 -0.0958 -0.5923
  364MOL0     H48005   7.918   0.740   6.731  0.6813 -0.9829  0.5848
  364MOL0     H48006   8.123   0.955   6.650 -0.4472  1.1075  2.3745
  364MOL0     H48007   8.169   0.792   6.632  0.7818  0.1081  1.1417
  364MOL0     H48008   7.927   0.937   6.522  0.6876  0.7988  1.5355
  364MOL0     H48009   7.947   0.756   6.513 -3.4560  1.6014 -1.7937
  364MOL0     H48010   8.254   0.714   6.425 -1.2594  0.6216  0.2604
  364MOL0     H48011   8.296   0.499   6.261 -1.8786 -0.5344 -0.7105
  364MOL0     H48012   8.244   0.258   5.849 -0.8039 -0.1355 -1.6316
  364MOL0     H48013   8.300   0.020   5.764  0.0600 -1.7702  0.1923
  364MOL0     H48014   8.315  -0.315   6.063 -4.1492 -3.0451  1.2035
  364MOL0     H48015   8.343  -0.376   5.899 -0.7918  0.7807 -1.9016
  364MOL0     H48016   8.127  -0.235   5.833  0.6651 -0.0930 -0.4943
  364MOL0     H48017   8.103  -0.228   6.013 -0.9470  1.7521 -1.7160
  364MOL0     H48018   8.113  -0.480   5.830 -1.1743  1.4059 -1.4470
  364MOL0     H48019   7.969  -0.392   5.862 -2.4950  2.5224  4.2368
  364MOL0     H48020   8.150  -0.508   6.071  0.7668  1.0483 -0.1556
  364MOL0     H48021   7.984  -0.450   6.110 -0.5533  0.0254  0.0349
  364MOL0     H48022   7.977  -0.695   6.107 -2.3102 -1.1582 -0.3783
  364MOL0     H48023   8.036  -0.683   5.934  0.8149  0.7805  1.3738
  364MOL0     H48024   7.818  -0.529   5.937  4.1766  0.5718 -1.1038
  364MOL0     H48025   7.772  -0.671   6.039  0.9327  2.8632  2.1411
  364MOL0     H48026   7.724  -0.648   5.781  2.2774  0.9982 -2.2340
  364MOL0     H48027   7.899  -0.682   5.758  0.4763  2.3192  2.0827
  364MOL0     H48028   7.689  -0.869   5.878 -0.1116 -0.4093 -0.1181
  364MOL0     H48029   7.862  -0.893   5.879 -1.1662  0.4964  0.9088
  364MOL0     H48030   8.311  -0.124   6.156  3.2234  2.4705  3.2450
  364MOL0     H48031   8.239   0.106   6.248 -0.9171 -1.2389  0.1863
  364MOL0     H48032   7.925   0.589   6.070 -2.1394  1.9883  1.8346
  364MOL0     H48033   7.917   0.812   6.190 -1.7637 -3.0479 -1.7278
  364MOL0     H48034   9.105   0.499   7.253  0.2883 -0.5752  0.4637
  364MOL0     H48035   9.095   0.336   7.426  0.6511  1.1278 -4.1799
  364MOL0     H48036   8.878   0.428   8.064  1.8952  0.0314  3.3710
  364MOL0     H48037   8.954   0.306   8.235 -1.8231  1.7376 -1.3222
  364MOL0     H48038   9.352   0.076   8.188  0.9491 -1.7614  1.4953
  364MOL0     H48039   9.233  -0.057   8.184 -0.0636  0.2887 -1.8833
  364MOL0     H48040   9.376  -0.083   8.375 -1.7015 -1.5673  0.6853
  364MOL0     H48041   9.351   0.079   8.416 -0.6438  1.8620 -0.1099
  364MOL0     H48042   9.133  -0.142   8.391 -0.8768 -0.4430  1.0880
  364MOL0     H48043   9.087   0.016   8.458  1.0937  1.5969 -0.0808
  364MOL0     H48044   9.111  -0.162   8.629 -0.1788  0.5668  1.2306
  364MOL0     H48045   9.281  -0.171   8.596  0.7326  0.9091 -0.7802
  364MOL0     H48046   9.287   0.170   8.832 -0.6216 -0.6551  0.8698
  364MOL0     H48047   9.231   0.085   7.983  1.6533  2.6187 -0.4998
  364MOL0     H48048   9.137   0.202   7.795 -0.2118  4.2592 -1.2759
  365MOL0     O48049   2.526   1.198   9.148 -0.3884  0.1725  0.1346
  365MOL0     C48050   2.489   1.082   9.176  0.5812  0.1039 -0.7959
  365MOL0     O48051   2.360   1.033   9.164  0.0079  0.1377 -0.5348
  365MOL0     C48052   2.244   1.100   9.161  0.2152 -0.3661 -1.1145
  365MOL0     C48053   2.140   1.044   9.096 -0.5364 -0.1168  1.6063
  365MOL0     C48054   2.011   1.097   9.117 -0.3962  0.3711  0.8083
  365MOL0     C48055   1.987   1.203   9.204  0.9845 -0.5491 -0.1140
  365MOL0     O48056   1.855   1.234   9.208 -0.4080 -0.3821 -0.4428
  365MOL0     C48057   1.813   1.319   9.311  0.8775 -0.3203  0.5204
  365MOL0     C48058   1.809   1.472   9.271  0.3979  0.5043 -0.2809
  365MOL0     C48059   1.750   1.569   9.376  0.2275  0.3044 -0.2433
  365MOL0     C48060   1.596   1.562   9.378 -0.0823 -0.1236 -0.1646
  365MOL0     C48061   1.517   1.643   9.482  0.6030 -0.6208 -0.1806
  365MOL0     C48062   1.577   1.622   9.625  0.1292 -0.4802  0.2209
  365MOL0     C48063   1.503   1.707   9.723  0.3228 -0.3288  0.3695
  365MOL0     C48064   1.490   1.862   9.698  1.0838 -0.4371  0.6308
  365MOL0     N48065   1.621   1.917   9.676 -0.2622 -0.3370 -0.0676
  365MOL0     C48066   1.713   1.952   9.779  0.3545  0.7491 -0.3008
  365MOL0     C48067   1.809   2.004   9.708  0.2368  1.2183 -0.3881
  365MOL0     C48068   1.932   2.041   9.768  0.0097  0.6143 -0.5417
  365MOL0     C48069   2.006   1.919   9.822  0.3786  1.0951  0.4542
  365MOL0     C48070   2.055   1.827   9.707  0.3414  0.8414 -1.1263
  365MOL0     C48071   2.178   1.735   9.758 -0.6468 -0.9263  0.3475
  365MOL0     O48072   2.195   1.632   9.658 -0.3885  0.6999  1.2997
  365MOL0     C48073   2.306   1.549   9.669 -1.0023 -0.4601 -0.6686
  365MOL0     C48074   2.384   1.530   9.780 -0.4542 -0.6287  0.0479
  365MOL0     C48075   2.491   1.434   9.771  0.1390 -0.2170  0.5350
  365MOL0     C48076   2.503   1.347   9.657 -0.2688 -0.0296 -0.6306
  365MOL0     C48077   2.609   1.241   9.656 -0.1178 -0.3633 -0.5968
  365MOL0     O48078   2.640   1.178   9.783 -0.3788 -0.2000 -0.2423
  365MOL0     C48079   2.718   1.064   9.789 -1.2212 -0.0040  0.9656
  365MOL0     C48080   2.707   0.966   9.686 -0.5291  0.5417  0.0352
  365MOL0     C48081   2.786   0.847   9.689 -0.6625 -1.2400 -0.1075
  365MOL0     C48082   2.890   0.841   9.780  0.1872 -0.8219  1.0017
  365MOL0     O48083   2.956   0.724   9.780  0.0488  0.5513 -0.6684
  365MOL0     C48084   3.049   0.693   9.881 -0.0542 -0.2700  0.3641
  365MOL0     C48085   3.132   0.570   9.833  0.0397 -0.4461 -0.5291
  365MOL0     C48086   3.204   0.507   9.944 -0.2521 -0.5942  0.3339
  365MOL0     C48087   3.326   0.587   9.998 -0.1498  0.6533  0.0510
  365MOL0     C48088   3.413   0.488  10.081  0.3378 -0.6117  0.2384
  365MOL0     C48089   3.561   0.525  10.083 -0.4265 -0.1700  0.1063
  365MOL0     C48090   3.589   0.657  10.150 -0.5872  0.2258  0.0947
  365MOL0     C48091   3.748   0.674  10.165  0.1115  0.0358 -0.2552
  365MOL0    Cl48092   3.768   0.825  10.266  0.0928 -0.2844  0.2840
  365MOL0     C48093   2.902   0.940   9.880 -0.3940  0.7654  0.1588
  365MOL0     C48094   2.810   1.050   9.875  0.2430  0.5850 -0.4513
  365MOL0     O48095   2.668   1.210   9.549  1.5057  0.1843 -0.0097
  365MOL0     C48096   2.423   1.381   9.548 -0.6212  0.4554 -0.4498
  365MOL0     C48097   2.330   1.478   9.550  1.2763  1.2667 -0.0246
  365MOL0     N48098   1.785   2.004   9.575  0.0221 -0.3597 -0.8297
  365MOL0     N48099   1.671   1.944   9.556 -0.1056  0.3129  0.4486
  365MOL0     C48100   2.094   1.273   9.259  0.1277 -0.1464  0.6374
  365MOL0     C48101   2.228   1.218   9.243  0.1597 -0.1417 -0.6562
  365MOL0     C48102   2.590   0.989   9.234  0.4378 -0.1489 -0.4232
  365MOL0     C48103   2.575   0.850   9.232  0.1471  0.5034 -0.3066
  365MOL0     C48104   2.672   0.759   9.288  0.1829 -0.4403  0.3570
  365MOL0     C48105   2.793   0.803   9.334  0.6660 -0.1284 -1.0825
  365MOL0     O48106   2.898   0.730   9.390 -0.4732  0.1457  0.0340
  365MOL0     C48107   2.873   0.582   9.394 -0.0306  0.0935  0.9433
  365MOL0     C48108   2.990   0.502   9.449  0.1197 -0.0483  0.0665
  365MOL0     C48109   2.977   0.350   9.396 -0.1635 -0.3083 -0.6090
  365MOL0     C48110   3.020   0.247   9.506  1.1525 -0.1011 -0.3956
  365MOL0     C48111   3.141   0.288   9.583 -0.0676  0.7224  1.0564
  365MOL0     C48112   3.251   0.315   9.635  0.0218 -0.7014  0.0364
  365MOL0     C48113   2.814   0.938   9.316  1.0573  0.1433  0.0960
  365MOL0     C48114   2.718   1.029   9.275 -1.0957 -1.3703 -0.0179
  365MOL0     H48115   2.148   0.953   9.038 -2.3839  0.5374  0.2084
  365MOL0     H48116   1.936   1.044   9.059 -1.2618  0.0644  2.1642
  365MOL0     H48117   1.865   1.306   9.406  2.9467  0.4508 -0.4529
  365MOL0     H48118   1.713   1.285   9.339 -0.2481  3.2586  1.3990
  365MOL0     H48119   1.749   1.485   9.181  2.2894 -0.9920 -1.8298
  365MOL0     H48120   1.913   1.504   9.259 -0.3287  3.8003  1.1673
  365MOL0     H48121   1.785   1.672   9.367 -1.9986  1.5754  3.4453
  365MOL0     H48122   1.777   1.542   9.478 -4.5675  0.6307  1.3573
  365MOL0     H48123   1.542   1.593   9.288  1.8453  0.2367 -1.2787
  365MOL0     H48124   1.574   1.457   9.399 -0.0495  0.7848  6.4118
  365MOL0     H48125   1.412   1.612   9.484  0.1901  0.7109  1.1284
  365MOL0     H48126   1.526   1.751   9.464  1.4488 -0.4371  1.1805
  365MOL0     H48127   1.683   1.650   9.632  0.2022 -0.5694 -0.5136
  365MOL0     H48128   1.570   1.518   9.659 -0.1339 -0.1560  1.1966
  365MOL0     H48129   1.409   1.658   9.750 -0.5075  1.5450  1.0270
  365MOL0     H48130   1.566   1.693   9.812  1.2966 -1.7338 -0.4794
  365MOL0     H48131   1.449   1.913   9.786  0.0377  0.2351 -0.2208
  365MOL0     H48132   1.423   1.880   9.613  2.0246  1.2346  0.2144
  365MOL0     H48133   1.707   1.936   9.886 -0.5553  1.7248 -0.1996
  365MOL0     H48134   1.918   2.104   9.857 -2.9692  2.0178 -1.8829
  365MOL0     H48135   2.000   2.083   9.693  1.6835  0.0156  0.5604
  365MOL0     H48136   1.947   1.864   9.895  2.2150 -0.3277  0.9323
  365MOL0     H48137   2.099   1.946   9.872  1.2348  2.0812 -1.5554
  365MOL0     H48138   1.971   1.759   9.688  0.5361 -0.5625  2.3767
  365MOL0     H48139   2.087   1.898   9.630 -1.5907  2.1359 -0.8044
  365MOL0     H48140   2.147   1.698   9.856 -0.5307  0.4270  0.9061
  365MOL0     H48141   2.270   1.794   9.763 -0.6136 -1.1120  2.5605
  365MOL0     H48142   2.373   1.584   9.874  2.3060 -2.1522  1.3765
  365MOL0     H48143   2.564   1.438   9.851  0.4109  2.3705  0.2413
  365MOL0     H48144   2.628   0.961   9.611 -1.6314 -2.4409  1.2633
  365MOL0     H48145   2.762   0.769   9.617  0.8086 -1.3909 -0.4515
  365MOL0     H48146   2.989   0.670   9.969 -3.1358  1.0706 -1.2396
  365MOL0     H48147   3.121   0.773   9.902 -1.2506  0.1427  3.3546
  365MOL0     H48148   3.204   0.604   9.757  2.2088 -0.9264  1.1911
  365MOL0     H48149   3.067   0.504   9.776 -0.2686  0.1333 -0.8673
  365MOL0     H48150   3.246   0.428   9.881 -0.1474  0.7762 -1.4150
  365MOL0     H48151   3.137   0.475  10.023 -0.8279 -0.6129 -0.1588
  365MOL0     H48152   3.380   0.639   9.918  0.0414  1.6515  0.8222
  365MOL0     H48153   3.280   0.666  10.058  3.1231  0.3322  3.2471
  365MOL0     H48154   3.403   0.389  10.037 -3.0121  1.4558 -4.4979
  365MOL0     H48155   3.380   0.499  10.185  0.3326  0.5698  0.1284
  365MOL0     H48156   3.601   0.527   9.982 -0.0094 -1.2814  0.2319
  365MOL0     H48157   3.609   0.446  10.142  0.1308 -0.2542 -0.4532
  365MOL0     H48158   3.545   0.748  10.107  0.6661  1.6058  1.5636
  365MOL0     H48159   3.547   0.653  10.251 -2.8708 -1.7472 -0.8573
  365MOL0     H48160   3.791   0.691  10.066  2.1758 -1.7752  0.2582
  365MOL0     H48161   3.795   0.589  10.215 -2.1180 -0.8126  0.5481
  365MOL0     H48162   2.969   0.933   9.965  0.4867  0.0215 -0.5734
  365MOL0     H48163   2.825   1.130   9.947 -0.6192  1.4010 -1.1441
  365MOL0     H48164   2.431   1.333   9.451  0.2946  0.6046 -0.4549
  365MOL0     H48165   2.270   1.483   9.460 -0.0533  4.0094  0.9166
  365MOL0     H48166   2.088   1.374   9.297 -1.0790  0.8918 -2.0760
  365MOL0     H48167   2.311   1.277   9.283 -0.1410 -1.3509  1.9795
  365MOL0     H48168   2.485   0.809   9.186  0.8176 -0.8499 -0.4573
  365MOL0     H48169   2.636   0.657   9.277  1.5175 -0.9261  0.4064
  365MOL0     H48170   2.861   0.561   9.287 -0.3758  0.4850  0.9029
  365MOL0     H48171   2.781   0.545   9.440  0.2198 -2.9421 -0.7005
  365MOL0     H48172   3.082   0.537   9.402  0.7942  0.0763  1.4353
  365MOL0     H48173   2.992   0.511   9.558  0.6612 -0.0063  0.0529
  365MOL0     H48174   3.017   0.336   9.295  0.3035 -2.2979 -0.1843
  365MOL0     H48175   2.870   0.330   9.391 -0.4652 -0.7804  3.7215
  365MOL0     H48176   2.943   0.251   9.584  2.4388  1.5369  0.8836
  365MOL0     H48177   3.031   0.146   9.466  1.8315  0.3406 -1.3484
  365MOL0     H48178   3.347   0.340   9.674  0.9021  0.4993 -2.7151
  365MOL0     H48179   2.908   0.982   9.347  1.1330  2.0830 -2.5267
  365MOL0     H48180   2.737   1.136   9.275 -3.8227 -0.7492 -2.9173
  366MOL0     O48181   7.905   4.251   6.235  0.0247 -0.6258 -0.0279
  366MOL0     C48182   7.891   4.221   6.352  0.6310  0.3222  0.0987
  366MOL0     O48183   7.808   4.125   6.396 -0.5661  0.2339  0.2739
  366MOL0     C48184   7.704   4.083   6.314  0.4973 -0.4248 -0.4466
  366MOL0     C48185   7.671   3.952   6.309 -0.8258  0.2553  0.7183
  366MOL0     C48186   7.580   3.904   6.219 -0.2018 -0.4225 -0.7041
  366MOL0     C48187   7.506   3.989   6.136 -0.8861  1.0446 -0.1610
  366MOL0     O48188   7.420   3.942   6.053 -0.6794  0.0147  0.0385
  366MOL0     C48189   7.466   3.939   5.921  0.0862  0.9022  0.2214
  366MOL0     C48190   7.352   4.000   5.846 -0.2752  1.0322 -0.4553
  366MOL0     C48191   7.390   4.038   5.707  0.2404  0.4879 -0.0760
  366MOL0     C48192   7.248   4.077   5.640 -0.5612 -0.8507 -0.0329
  366MOL0     C48193   7.294   4.147   5.516  0.6920 -0.0242  0.5332
  366MOL0     C48194   7.329   4.049   5.403  0.7568 -0.6046 -0.7020
  366MOL0     C48195   7.357   4.116   5.269  0.0001  0.0988 -0.2735
  366MOL0     C48196   7.381   4.008   5.153  0.0669  0.0641  0.4500
  366MOL0     N48197   7.271   3.923   5.128 -0.2418 -0.2278  0.1271
  366MOL0     C48198   7.243   3.809   5.199 -0.3786  0.4150 -0.3828
  366MOL0     C48199   7.129   3.762   5.152 -0.1695  0.4593 -0.2525
  366MOL0     C48200   7.065   3.641   5.209  0.3023 -0.1481 -0.0898
  366MOL0     C48201   7.014   3.677   5.347 -0.5487  0.1678 -0.3710
  366MOL0     C48202   6.888   3.783   5.343 -0.2662 -1.1750 -0.8293
  366MOL0     C48203   6.760   3.729   5.275 -0.0424  0.7899 -0.1671
  366MOL0     O48204   6.709   3.609   5.346 -0.0475  0.1420  0.0509
  366MOL0     C48205   6.581   3.572   5.336 -0.3235  0.3899 -0.2476
  366MOL0     C48206   6.498   3.639   5.255  0.3798 -0.0865 -0.3024
  366MOL0     C48207   6.361   3.635   5.248  0.5248  0.7440  0.1821
  366MOL0     C48208   6.293   3.531   5.329 -0.6159  0.4315 -0.5644
  366MOL0     C48209   6.144   3.506   5.335  0.3310 -0.3109 -0.6910
  366MOL0     O48210   6.082   3.408   5.408 -0.8382 -0.5092  0.0252
  366MOL0     C48211   5.948   3.418   5.426  0.0740  0.2257 -0.3548
  366MOL0     C48212   5.862   3.414   5.316 -0.5174 -0.1414 -0.0005
  366MOL0     C48213   5.719   3.421   5.338 -0.0237  1.5099  0.6387
  366MOL0     C48214   5.666   3.426   5.466 -0.0536 -0.1774 -0.0450
  366MOL0     O48215   5.528   3.428   5.471 -0.2588  0.8044 -0.3082
  366MOL0     C48216   5.470   3.426   5.603  0.3370 -0.2475 -0.6291
  366MOL0     C48217   5.322   3.413   5.594 -0.2457 -0.0901  0.1141
  366MOL0     C48218   5.261   3.508   5.696 -0.2078 -0.6860  0.6795
  366MOL0     C48219   5.111   3.481   5.708 -0.1960  0.6132  0.1116
  366MOL0     C48220   5.045   3.481   5.848 -0.2423  0.7230 -1.2098
  366MOL0     C48221   5.087   3.611   5.925 -0.1066 -0.7936  0.3328
  366MOL0     C48222   5.051   3.739   5.851  0.3904  0.7933 -0.3218
  366MOL0     C48223   5.075   3.856   5.948 -0.6337 -0.1399 -0.3092
  366MOL0    Cl48224   4.969   3.841   6.094  0.1141  0.1760  0.1812
  366MOL0     C48225   5.753   3.434   5.573  0.6189 -0.2727 -0.6377
  366MOL0     C48226   5.895   3.430   5.557 -0.6773  0.2445  0.2248
  366MOL0     O48227   6.084   3.599   5.279 -0.5358 -0.1471  0.4912
  366MOL0     C48228   6.378   3.447   5.412  0.1302  0.5712  0.6554
  366MOL0     C48229   6.519   3.468   5.413  1.2641 -0.2419  1.0824
  366MOL0     N48230   7.091   3.834   5.047  0.7156 -0.1084 -0.1363
  366MOL0     N48231   7.172   3.936   5.035  0.8148 -0.0553  0.8686
  366MOL0     C48232   7.536   4.129   6.143 -0.1957 -0.6352 -0.7878
  366MOL0     C48233   7.634   4.168   6.234 -1.0199 -0.2056  0.3524
  366MOL0     C48234   7.993   4.274   6.460  0.9202 -0.5738 -0.4139
  366MOL0     C48235   7.976   4.272   6.597 -0.5785  0.0820 -0.1627
  366MOL0     C48236   8.082   4.309   6.687 -0.0838  0.4891 -0.0533
  366MOL0     C48237   8.192   4.376   6.638  0.2057 -0.2862 -0.0332
  366MOL0     O48238   8.261   4.432   6.737 -0.2155 -0.4841 -0.7065
  366MOL0     C48239   8.340   4.545   6.715  0.2866 -1.6752 -0.3008
  366MOL0     C48240   8.482   4.523   6.712  0.2974 -0.1828  0.0907
  366MOL0     C48241   8.556   4.654   6.684 -0.7380  0.7620  0.6411
  366MOL0     C48242   8.704   4.641   6.726  0.3049 -0.0039  0.4861
  366MOL0     C48243   8.776   4.547   6.631  0.5998 -0.8053 -0.3698
  366MOL0     C48244   8.822   4.471   6.546  0.7095 -1.3289  0.2811
  366MOL0     C48245   8.202   4.400   6.490 -0.3298 -0.1607 -0.0468
  366MOL0     C48246   8.102   4.344   6.412 -0.5757  0.6620  0.6700
  366MOL0     H48247   7.712   3.878   6.377 -0.2706  0.8530  1.0531
  366MOL0     H48248   7.556   3.799   6.214 -1.9506 -0.1517  0.8010
  366MOL0     H48249   7.480   3.834   5.893 -0.2913  0.3146  2.0975
  366MOL0     H48250   7.561   3.990   5.901 -0.1665  1.3126  0.0557
  366MOL0     H48251   7.325   4.091   5.901 -0.0197  0.6661  0.2987
  366MOL0     H48252   7.267   3.931   5.845  2.0197 -2.0056 -0.3129
  366MOL0     H48253   7.443   3.954   5.661  1.5691  0.6368  1.1061
  366MOL0     H48254   7.460   4.121   5.708 -0.9223  1.5042 -0.3935
  366MOL0     H48255   7.192   3.988   5.611 -0.5879 -0.9795  0.4057
  366MOL0     H48256   7.199   4.141   5.714  0.7875  1.0751 -0.7274
  366MOL0     H48257   7.379   4.213   5.536 -0.5397  1.8503 -0.0740
  366MOL0     H48258   7.207   4.212   5.498 -1.0169 -1.0007  4.2650
  366MOL0     H48259   7.240   3.985   5.396  1.2770 -1.2988 -1.0811
  366MOL0     H48260   7.417   3.989   5.427  0.3469 -0.3508  1.6548
  366MOL0     H48261   7.275   4.182   5.240 -0.0861 -0.2616 -0.8624
  366MOL0     H48262   7.443   4.184   5.270 -1.6021  2.2103  0.7101
  366MOL0     H48263   7.464   3.948   5.192 -0.4708 -0.4244  0.8505
  366MOL0     H48264   7.404   4.056   5.057  3.6862 -1.7250  0.2205
  366MOL0     H48265   7.283   3.773   5.293 -1.2204  0.1283 -0.1280
  366MOL0     H48266   7.138   3.562   5.232  0.0208 -0.3349  0.1649
  366MOL0     H48267   6.980   3.597   5.157 -0.7078 -1.9451  2.8517
  366MOL0     H48268   7.097   3.720   5.404 -2.0443  1.1098  1.1848
  366MOL0     H48269   6.977   3.585   5.392 -0.5410  0.5156  0.3634
  366MOL0     H48270   6.868   3.812   5.446  1.1541 -0.5780 -0.7073
  366MOL0     H48271   6.926   3.877   5.304  2.0307 -0.9958  1.6085
  366MOL0     H48272   6.797   3.695   5.178 -0.7304 -0.1596 -0.1035
  366MOL0     H48273   6.680   3.803   5.285  1.3008  2.5696 -1.7130
  366MOL0     H48274   6.537   3.704   5.177  0.7553 -0.2578 -0.2584
  366MOL0     H48275   6.309   3.699   5.178  1.7088 -2.0570 -3.6077
  366MOL0     H48276   5.900   3.422   5.214 -2.2676 -3.6722 -1.1078
  366MOL0     H48277   5.659   3.403   5.249  0.2707  2.9240  0.1279
  366MOL0     H48278   5.497   3.521   5.649  0.7859 -0.1536 -1.0801
  366MOL0     H48279   5.499   3.348   5.674 -3.8185 -1.2193  0.2527
  366MOL0     H48280   5.304   3.308   5.614 -0.2829 -0.0554  0.2604
  366MOL0     H48281   5.281   3.433   5.495  1.2382 -5.1693 -1.8325
  366MOL0     H48282   5.286   3.612   5.674  2.6897 -1.9313 -3.1637
  366MOL0     H48283   5.302   3.474   5.791  0.5888 -0.2918  0.4881
  366MOL0     H48284   5.059   3.551   5.642 -0.9233 -0.5394 -0.5566
  366MOL0     H48285   5.106   3.381   5.665  1.1055  0.5940 -0.0165
  366MOL0     H48286   5.073   3.392   5.904 -3.2064  0.5925  0.2467
  366MOL0     H48287   4.936   3.470   5.844 -0.2003  0.0131 -0.6869
  366MOL0     H48288   5.195   3.607   5.941  0.1218  0.2605 -0.8041
  366MOL0     H48289   5.039   3.611   6.023  2.6568  0.6922  1.7887
  366MOL0     H48290   5.114   3.750   5.763  1.5903  0.9564  0.5260
  366MOL0     H48291   4.942   3.741   5.840  0.2141 -2.7522 -0.4148
  366MOL0     H48292   5.050   3.945   5.889 -1.6341 -0.3042 -0.1624
  366MOL0     H48293   5.181   3.864   5.973 -0.6492  0.6803 -0.4862
  366MOL0     H48294   5.708   3.447   5.671 -0.0244  4.4710 -1.3423
  366MOL0     H48295   5.968   3.424   5.637 -0.3548  1.4734  0.0445
  366MOL0     H48296   6.339   3.367   5.473  0.7497 -0.8406 -0.7311
  366MOL0     H48297   6.577   3.410   5.484  0.3432 -0.0033  2.0548
  366MOL0     H48298   7.503   4.208   6.076  2.4071 -1.1983 -2.8961
  366MOL0     H48299   7.670   4.270   6.228 -1.0497 -0.2142  0.0310
  366MOL0     H48300   7.893   4.211   6.630 -0.5566  0.3278  0.3473
  366MOL0     H48301   8.075   4.297   6.795  1.3567  2.0947  0.2585
  366MOL0     H48302   8.317   4.616   6.795 -0.3011  0.4201 -2.2073
  366MOL0     H48303   8.314   4.581   6.615 -1.7117 -1.6935  0.1728
  366MOL0     H48304   8.497   4.489   6.815 -1.6166 -0.9653  0.1572
  366MOL0     H48305   8.512   4.441   6.647 -0.1290 -0.5502  0.3434
  366MOL0     H48306   8.513   4.735   6.743  1.3151  2.9527 -0.6617
  366MOL0     H48307   8.549   4.671   6.576 -1.0132  0.3128  0.5830
  366MOL0     H48308   8.753   4.739   6.721 -3.1686  1.9349  0.8243
  366MOL0     H48309   8.710   4.596   6.826  0.3735 -0.6514  0.1929
  366MOL0     H48310   8.885   4.423   6.473  0.3698 -0.0750 -0.8827
  366MOL0     H48311   8.276   4.460   6.440 -2.3617  0.1549 -2.8906
  366MOL0     H48312   8.127   4.336   6.307 -1.1020 -1.2058  0.6587
  367MOL0     O48313   6.171   0.808   8.346 -0.5908 -0.8092 -0.2973
  367MOL0     C48314   6.108   0.910   8.322  0.2886  0.5344 -0.8591
  367MOL0     O48315   5.978   0.946   8.360  0.7038  0.1050 -0.2204
  367MOL0     C48316   5.917   0.859   8.441  0.7714 -0.7446  0.0281
  367MOL0     C48317   5.960   0.820   8.571 -0.6670 -0.1964 -0.0170
  367MOL0     C48318   5.905   0.711   8.644 -0.8726  0.6095  0.0646
  367MOL0     C48319   5.800   0.640   8.589  0.5808  0.1647  0.6358
  367MOL0     O48320   5.754   0.522   8.641 -0.5025  0.0388 -0.2471
  367MOL0     C48321   5.768   0.485   8.777  0.1396 -0.4939 -0.3800
  367MOL0     C48322   5.655   0.389   8.812 -0.1334  0.2267 -0.4925
  367MOL0     C48323   5.681   0.315   8.946 -0.4661 -0.0943 -0.0132
  367MOL0     C48324   5.650   0.402   9.071 -0.3139  1.0201 -0.2939
  367MOL0     C48325   5.688   0.327   9.200 -0.1651 -0.3712  0.0115
  367MOL0     C48326   5.836   0.359   9.239  0.0018 -0.6989  0.8832
  367MOL0     C48327   5.853   0.498   9.315  0.1028  0.4038  1.1314
  367MOL0     C48328   5.868   0.462   9.453  0.8390 -1.2826  0.1142
  367MOL0     N48329   5.861   0.585   9.539  0.6484  0.6663 -0.2951
  367MOL0     C48330   5.891   0.713   9.504  0.3121 -0.6042  0.9564
  367MOL0     C48331   5.869   0.786   9.620  0.7667  0.4291  0.4258
  367MOL0     C48332   5.920   0.920   9.616  0.1021  0.4229 -0.8119
  367MOL0     C48333   6.012   0.953   9.735  0.1539 -0.7458  1.2004
  367MOL0     C48334   6.089   1.090   9.736 -0.5590  0.0885 -0.3960
  367MOL0     C48335   6.178   1.079   9.871 -0.1450  0.2245 -0.2377
  367MOL0     O48336   6.205   1.201   9.957 -0.4947 -0.0203  1.5111
  367MOL0     C48337   6.237   1.315   9.891 -0.4169 -0.3516 -0.2155
  367MOL0     C48338   6.331   1.317   9.784  0.3502 -0.2277  0.3074
  367MOL0     C48339   6.356   1.434   9.705 -0.2459 -0.3966 -0.6716
  367MOL0     C48340   6.298   1.559   9.740 -0.1284 -0.6273  0.8950
  367MOL0     C48341   6.329   1.691   9.667  0.1768  0.2087 -0.2700
  367MOL0     O48342   6.435   1.688   9.578 -0.2189  0.5327  0.0896
  367MOL0     C48343   6.477   1.786   9.497  0.1351  0.3075  1.0565
  367MOL0     C48344   6.560   1.727   9.398 -0.0562 -0.0423 -0.3617
  367MOL0     C48345   6.584   1.813   9.285 -0.4495 -0.5946 -0.3882
  367MOL0     C48346   6.539   1.951   9.276 -0.7772 -0.4758  0.1885
  367MOL0     O48347   6.552   2.034   9.172 -0.0621  0.3587 -0.1296
  367MOL0     C48348   6.668   2.021   9.086  0.1755  0.1046 -0.0789
  367MOL0     C48349   6.807   2.037   9.151  1.0745  0.0941 -0.1160
  367MOL0     C48350   6.916   2.073   9.039 -0.2419 -0.0701 -0.8518
  367MOL0     C48351   7.061   2.067   9.089  0.6440 -0.5618  0.1606
  367MOL0     C48352   7.153   2.069   8.968  0.7188  1.0215 -0.8929
  367MOL0     C48353   7.301   2.044   8.987  0.2585 -0.6859  0.7364
  367MOL0     C48354   7.380   2.158   9.031 -0.9119 -1.2514 -0.0116
  367MOL0     C48355   7.525   2.143   9.074  0.6236  0.8074  0.3666
  367MOL0    Cl48356   7.621   2.077   8.940 -0.1168  0.2555 -0.5739
  367MOL0     C48357   6.469   2.004   9.385 -0.2808  0.4590  0.2356
  367MOL0     C48358   6.441   1.914   9.490  0.4440 -0.9575  0.3148
  367MOL0     O48359   6.251   1.786   9.695 -0.4740  0.7910  0.7809
  367MOL0     C48360   6.206   1.559   9.848 -0.5630  0.4818 -1.1512
  367MOL0     C48361   6.176   1.438   9.922  0.8562  0.3007  0.1777
  367MOL0     N48362   5.830   0.703   9.717 -0.2162 -0.4131  0.0040
  367MOL0     N48363   5.807   0.584   9.667 -1.2483 -0.7458 -0.3733
  367MOL0     C48364   5.743   0.680   8.466  0.3103  0.0934  0.3668
  367MOL0     C48365   5.800   0.789   8.398  0.5589 -0.5847  0.3586
  367MOL0     C48366   6.187   1.010   8.246  0.4109  0.3106  0.7992
  367MOL0     C48367   6.135   1.134   8.218 -0.9824 -0.2223 -0.0274
  367MOL0     C48368   6.194   1.225   8.126 -0.2713 -0.7858 -0.6876
  367MOL0     C48369   6.319   1.186   8.066  0.8650  0.2846 -0.4659
  367MOL0     O48370   6.384   1.260   7.981 -0.3129  0.1460  0.0258
  367MOL0     C48371   6.440   1.378   8.025  0.5543  0.0206 -0.4699
  367MOL0     C48372   6.538   1.426   7.917 -1.6270  0.1496 -0.1305
  367MOL0     C48373   6.537   1.581   7.912 -0.6688  0.7291 -0.5271
  367MOL0     C48374   6.648   1.615   7.817  0.8948 -0.1535 -0.0781
  367MOL0     C48375   6.658   1.760   7.803  0.8666  0.8508 -0.8366
  367MOL0     C48376   6.649   1.875   7.770 -0.5798 -0.2472 -0.4356
  367MOL0     C48377   6.373   1.057   8.087  0.2159  0.3856 -0.6126
  367MOL0     C48378   6.319   0.979   8.185  0.5593  0.2499  1.1769
  367MOL0     H48379   6.054   0.860   8.607 -0.7536  1.1729 -1.1970
  367MOL0     H48380   5.956   0.703   8.739 -0.2157  5.9341  0.4500
  367MOL0     H48381   5.780   0.568   8.846 -0.9957 -0.8866  0.3107
  367MOL0     H48382   5.861   0.428   8.785 -0.3110 -1.0065  1.6863
  367MOL0     H48383   5.646   0.309   8.738  0.1895  1.8332 -2.3540
  367MOL0     H48384   5.564   0.449   8.827  0.0081 -0.2114  2.9996
  367MOL0     H48385   5.787   0.288   8.950 -0.2374  0.8417  2.5081
  367MOL0     H48386   5.635   0.218   8.967 -2.9579  0.9088 -0.4724
  367MOL0     H48387   5.708   0.494   9.063  0.7408  0.3988 -0.0726
  367MOL0     H48388   5.544   0.423   9.085  0.0647  1.0300  3.8841
  367MOL0     H48389   5.671   0.221   9.179 -4.1489  0.5735 -2.5241
  367MOL0     H48390   5.631   0.366   9.285  0.9736  2.9400 -0.5934
  367MOL0     H48391   5.886   0.371   9.142 -1.8744  0.0238 -0.0392
  367MOL0     H48392   5.880   0.283   9.304 -0.6187  0.0524  2.2260
  367MOL0     H48393   5.945   0.539   9.274 -1.1417 -0.5702 -3.1744
  367MOL0     H48394   5.768   0.566   9.303 -1.7446 -1.5208  2.4801
  367MOL0     H48395   5.963   0.416   9.483  0.9636 -0.6415  0.7349
  367MOL0     H48396   5.782   0.400   9.479 -0.5373 -0.0906 -1.4031
  367MOL0     H48397   5.941   0.741   9.412  0.6064 -0.8433  1.0429
  367MOL0     H48398   5.843   0.998   9.615 -3.0692 -2.2544  3.4042
  367MOL0     H48399   5.972   0.931   9.520 -0.6135 -2.9111 -1.6913
  367MOL0     H48400   6.089   0.876   9.742  3.6572  2.6009  3.6627
  367MOL0     H48401   5.955   0.946   9.827 -0.1933  1.4710  1.2006
  367MOL0     H48402   6.152   1.106   9.648  0.2329  2.1643  0.4725
  367MOL0     H48403   6.014   1.169   9.736 -2.4965 -1.6410 -1.8853
  367MOL0     H48404   6.271   1.021   9.865  0.6619  1.4862 -0.1638
  367MOL0     H48405   6.110   1.025   9.938  1.2277 -0.3231  0.7601
  367MOL0     H48406   6.378   1.226   9.748 -0.5489 -0.4116 -0.4458
  367MOL0     H48407   6.423   1.419   9.621  0.4452 -0.5607 -0.1015
  367MOL0     H48408   6.595   1.625   9.398  2.0982  0.6313  0.5839
  367MOL0     H48409   6.630   1.782   9.191  3.4000 -0.1978  1.1746
  367MOL0     H48410   6.661   2.095   9.006  3.3714 -1.7691 -2.3092
  367MOL0     H48411   6.677   1.922   9.041  1.9461 -1.9086  4.1192
  367MOL0     H48412   6.828   1.942   9.202 -1.5706 -0.6024 -0.1548
  367MOL0     H48413   6.813   2.114   9.229  1.4361 -2.1036  2.1696
  367MOL0     H48414   6.899   2.174   9.001  2.0393  0.8524  0.3827
  367MOL0     H48415   6.913   1.997   8.960 -0.0773  0.2279 -1.1434
  367MOL0     H48416   7.079   2.160   9.143 -1.1737 -1.2330  2.0476
  367MOL0     H48417   7.079   1.978   9.149 -2.1705 -3.5366 -2.9694
  367MOL0     H48418   7.148   2.168   8.923  2.1517  0.9443 -1.2827
  367MOL0     H48419   7.101   2.003   8.898  0.2604  2.4074 -1.8872
  367MOL0     H48420   7.347   2.017   8.892 -0.9127 -1.9096  0.4802
  367MOL0     H48421   7.314   1.957   9.053  0.9586 -0.5911  0.7272
  367MOL0     H48422   7.381   2.233   8.952 -0.0189  0.7671  1.8365
  367MOL0     H48423   7.325   2.204   9.113  1.0321 -1.1494  1.3090
  367MOL0     H48424   7.527   2.077   9.161 -0.3934  1.5007  0.9302
  367MOL0     H48425   7.566   2.241   9.098  0.1851  1.7768 -2.4946
  367MOL0     H48426   6.448   2.110   9.386  0.5193  0.6620 -1.1492
  367MOL0     H48427   6.387   1.958   9.574  0.5104  0.8659 -0.5349
  367MOL0     H48428   6.161   1.649   9.888 -0.1914 -0.3772  1.3702
  367MOL0     H48429   6.098   1.441   9.998  0.5596 -1.1290 -0.0428
  367MOL0     H48430   5.654   0.626   8.434 -0.0369  0.1347  1.2398
  367MOL0     H48431   5.764   0.811   8.298  3.2165 -2.3995 -1.1239
  367MOL0     H48432   6.037   1.153   8.261 -1.3833 -1.5258 -0.3226
  367MOL0     H48433   6.150   1.323   8.111 -2.5686 -1.9483 -2.3634
  367MOL0     H48434   6.487   1.369   8.123 -1.8502  2.5042  1.0556
  367MOL0     H48435   6.359   1.451   8.036  1.7110  1.2060  0.5433
  367MOL0     H48436   6.640   1.391   7.932 -1.4612  0.1149 -1.2468
  367MOL0     H48437   6.517   1.386   7.817  2.0816 -0.8196 -0.6543
  367MOL0     H48438   6.571   1.620   8.008  1.6939  0.2227 -1.0989
  367MOL0     H48439   6.441   1.629   7.889 -0.5012 -0.1660 -3.5307
  367MOL0     H48440   6.745   1.576   7.850  0.2989  0.8482  3.2720
  367MOL0     H48441   6.631   1.580   7.715  4.0265 -0.4810 -0.5907
  367MOL0     H48442   6.648   1.975   7.732  0.5442 -0.1556 -0.2596
  367MOL0     H48443   6.468   1.019   8.051  1.4200  1.5177  1.1630
  367MOL0     H48444   6.365   0.882   8.200 -0.5648 -0.5537 -0.3217
  368MOL0     O48445  10.905   8.747   7.834 -0.1090  0.2758 -0.0961
  368MOL0     C48446  10.915   8.640   7.896  0.3896 -0.0790  0.6961
  368MOL0     O48447  10.913   8.625   8.035 -0.3226 -0.6692 -0.8226
  368MOL0     C48448  10.932   8.741   8.093 -0.7874 -0.5525 -0.1253
  368MOL0     C48449  10.829   8.829   8.089 -0.3762  0.7026 -0.8938
  368MOL0     C48450  10.844   8.958   8.127 -1.4225 -0.5256  1.4363
  368MOL0     C48451  10.971   9.001   8.173  0.5669 -0.8305  0.1845
  368MOL0     O48452  11.000   9.130   8.216 -0.3374 -0.2163  0.3167
  368MOL0     C48453  10.898   9.219   8.251  0.5061 -0.1996 -1.5360
  368MOL0     C48454  10.965   9.332   8.338 -0.4941  0.1786  0.9584
  368MOL0     C48455  10.861   9.440   8.364  0.5014  1.1760  0.1259
  368MOL0     C48456  10.890   9.523   8.493  0.3268 -0.8500 -0.2443
  368MOL0     C48457  10.827   9.668   8.489  0.4679 -0.0673 -0.4146
  368MOL0     C48458  10.679   9.662   8.479  0.3741  0.0419 -1.1490
  368MOL0     C48459  10.618   9.810   8.511  0.2077  0.2053 -0.3644
  368MOL0     C48460  10.658   9.912   8.402  0.2734  0.0435 -0.7760
  368MOL0     N48461  10.607   9.866   8.273  0.0664  0.3246 -0.3358
  368MOL0     C48462  10.477   9.851   8.235 -0.2233 -0.2384  0.3463
  368MOL0     C48463  10.488   9.814   8.104  0.8298 -0.7654  0.0985
  368MOL0     C48464  10.370   9.788   8.011  0.4380 -0.3565  0.8094
  368MOL0     C48465  10.303   9.919   7.976 -0.2457 -0.0599 -0.4006
  368MOL0     C48466  10.222   9.917   7.844  0.2082 -0.0529 -0.3008
  368MOL0     C48467  10.151  10.052   7.809 -1.2728  0.3786 -1.0824
  368MOL0     O48468  10.047  10.077   7.898  0.2687  0.2347 -0.1620
  368MOL0     C48469   9.921  10.032   7.861  0.3631  1.0303  1.0599
  368MOL0     C48470   9.898   9.962   7.739  0.0588  1.1534 -0.4224
  368MOL0     C48471   9.758   9.927   7.713 -0.2471 -0.5370 -0.2494
  368MOL0     C48472   9.653   9.958   7.800 -0.1778  0.1530 -0.2920
  368MOL0     C48473   9.519   9.920   7.765 -0.1050 -0.4995 -0.3080
  368MOL0     O48474   9.496   9.862   7.638 -0.3781 -0.5583  0.6595
  368MOL0     C48475   9.373   9.820   7.593 -0.0945  0.6148  1.2475
  368MOL0     C48476   9.371   9.730   7.484 -0.3533  0.6606 -0.7400
  368MOL0     C48477   9.251   9.673   7.430  0.1148  0.7428 -0.3452
  368MOL0     C48478   9.133   9.718   7.476  0.0560  0.1674  0.1088
  368MOL0     O48479   9.004   9.675   7.437  0.2216 -0.0880 -0.2601
  368MOL0     C48480   8.984   9.558   7.364  1.0511  0.1346  0.2347
  368MOL0     C48481   8.826   9.530   7.378 -0.3305 -0.3512 -0.5433
  368MOL0     C48482   8.789   9.479   7.517 -0.5176 -0.2406  0.3802
  368MOL0     C48483   8.644   9.448   7.525  1.0482 -0.4454  0.8182
  368MOL0     C48484   8.601   9.388   7.654  0.1005 -1.6977  0.6686
  368MOL0     C48485   8.688   9.273   7.717  0.5433  0.5935  0.7770
  368MOL0     C48486   8.652   9.263   7.864 -0.0099  0.3037 -0.9368
  368MOL0     C48487   8.576   9.131   7.892 -0.3417 -0.4433 -0.9515
  368MOL0    Cl48488   8.497   9.136   8.050  0.0343  0.0170 -0.1852
  368MOL0     C48489   9.126   9.809   7.579 -0.3888 -0.2970  0.4650
  368MOL0     C48490   9.243   9.866   7.638 -1.0374  0.7895  0.3965
  368MOL0     O48491   9.433   9.942   7.852  0.6626 -0.4191  0.3333
  368MOL0     C48492   9.681  10.013   7.916 -0.4426 -0.4139 -0.1416
  368MOL0     C48493   9.814  10.068   7.942  1.1338  0.7452 -0.2720
  368MOL0     N48494  10.618   9.820   8.060  0.8551 -0.6160  0.3357
  368MOL0     N48495  10.688   9.836   8.166  0.3356 -0.7318  0.0335
  368MOL0     C48496  11.072   8.915   8.185  0.3347 -0.2806  0.1399
  368MOL0     C48497  11.057   8.780   8.151 -0.2027 -0.2800  0.3477
  368MOL0     C48498  10.922   8.505   7.817 -0.9070 -0.2797  0.5282
  368MOL0     C48499  10.962   8.495   7.684  0.6089 -0.1467  0.2074
  368MOL0     C48500  10.955   8.372   7.623 -0.7821 -0.1508 -0.2118
  368MOL0     C48501  10.921   8.254   7.696 -0.7648 -0.4709  0.6126
  368MOL0     O48502  10.915   8.129   7.645  0.2997 -0.5948 -0.1390
  368MOL0     C48503  11.003   8.085   7.545 -0.1507 -0.1114 -0.3852
  368MOL0     C48504  11.121   8.012   7.608  0.2295 -1.2142 -0.1181
  368MOL0     C48505  11.074   7.879   7.676 -0.2457 -1.1754 -0.0163
  368MOL0     C48506  11.163   7.850   7.804  1.1284 -0.1287  0.2454
  368MOL0     C48507  11.304   7.859   7.786 -0.4369  0.1316  0.7004
  368MOL0     C48508  11.427   7.868   7.776 -0.1279 -0.9111  0.1476
  368MOL0     C48509  10.902   8.256   7.825 -0.1836 -0.1003 -0.5417
  368MOL0     C48510  10.888   8.385   7.885 -0.2944 -0.3018  1.3417
  368MOL0     H48511  10.734   8.795   8.046 -1.2743  0.3090  1.2869
  368MOL0     H48512  10.769   9.035   8.116 -0.4572  0.7176  3.0083
  368MOL0     H48513  10.828   9.165   8.315  4.2206 -3.5582  0.1400
  368MOL0     H48514  10.867   9.260   8.154 -0.6562  1.8792 -0.3462
  368MOL0     H48515  11.053   9.381   8.295 -0.4014  0.7988  1.8271
  368MOL0     H48516  10.998   9.299   8.437  2.5148 -0.1845 -0.0408
  368MOL0     H48517  10.767   9.385   8.370  1.7035 -1.0491 -0.3777
  368MOL0     H48518  10.861   9.521   8.291  0.1953  1.3577  0.3236
  368MOL0     H48519  10.852   9.472   8.583  2.2604  1.0083  1.7440
  368MOL0     H48520  10.998   9.536   8.501  0.3322 -0.1567 -1.2893
  368MOL0     H48521  10.873   9.718   8.403  2.3361  0.4680  0.8298
  368MOL0     H48522  10.855   9.729   8.575  2.7798  0.1403 -1.2429
  368MOL0     H48523  10.641   9.608   8.567 -0.8014  1.6783 -0.6195
  368MOL0     H48524  10.640   9.606   8.394  0.3474 -2.1730  0.2244
  368MOL0     H48525  10.509   9.800   8.521  0.2642  1.1326  1.5656
  368MOL0     H48526  10.665   9.850   8.601  3.2357  1.0507 -2.2040
  368MOL0     H48527  10.764   9.932   8.413 -0.1183  0.7825  3.3810
  368MOL0     H48528  10.607  10.005   8.429  0.2137 -1.0764  4.0071
  368MOL0     H48529  10.383   9.866   8.287 -0.8260 -3.5331  0.3896
  368MOL0     H48530  10.301   9.708   8.040 -0.3039 -0.4974 -1.1904
  368MOL0     H48531  10.425   9.758   7.921  1.5935  1.0385  1.0197
  368MOL0     H48532  10.373  10.001   7.959 -0.7081  0.8949  1.9225
  368MOL0     H48533  10.241   9.960   8.057  0.3437 -0.7120  0.3999
  368MOL0     H48534  10.290   9.895   7.761  3.2997  1.9723  1.5109
  368MOL0     H48535  10.148   9.839   7.865  0.3323  0.8250  4.6754
  368MOL0     H48536  10.132  10.061   7.702  2.4296 -2.2798 -2.1618
  368MOL0     H48537  10.225  10.129   7.831 -0.8979  0.3159 -2.1155
  368MOL0     H48538   9.979   9.937   7.671  3.6126 -1.5089  4.1799
  368MOL0     H48539   9.724   9.871   7.627 -0.4656  2.9843 -2.6716
  368MOL0     H48540   9.458   9.684   7.438  0.6333  1.4992  0.2560
  368MOL0     H48541   9.245   9.587   7.364 -0.6712  0.8685 -0.4501
  368MOL0     H48542   9.045   9.487   7.420  0.9013 -1.4775 -1.5357
  368MOL0     H48543   9.024   9.589   7.267 -0.7148  5.8343  0.9654
  368MOL0     H48544   8.799   9.458   7.299  1.7966 -2.5723  0.6176
  368MOL0     H48545   8.763   9.614   7.346  1.7152  1.8219  0.8585
  368MOL0     H48546   8.814   9.552   7.594  0.1773 -1.2188  1.1125
  368MOL0     H48547   8.846   9.387   7.533 -1.9332 -1.6536 -2.0016
  368MOL0     H48548   8.587   9.540   7.509  0.4334 -0.8562  0.6145
  368MOL0     H48549   8.617   9.377   7.447  1.2733  2.5288 -2.1827
  368MOL0     H48550   8.497   9.353   7.659 -1.4449  2.3408  5.5369
  368MOL0     H48551   8.612   9.476   7.718  2.4405 -1.1281 -0.4019
  368MOL0     H48552   8.792   9.306   7.712  0.9281 -0.5495  0.7707
  368MOL0     H48553   8.673   9.174   7.673 -4.0728  0.5191  2.0398
  368MOL0     H48554   8.743   9.262   7.925 -0.9539 -2.4280  0.5750
  368MOL0     H48555   8.577   9.341   7.883  0.2301  0.1826  0.6687
  368MOL0     H48556   8.639   9.042   7.897 -2.2107 -1.7731  1.9684
  368MOL0     H48557   8.497   9.122   7.816 -1.5504  4.5516 -0.6549
  368MOL0     H48558   9.035   9.856   7.613 -1.9306 -2.3094 -0.6470
  368MOL0     H48559   9.235   9.936   7.721  0.9906  2.9872 -1.1136
  368MOL0     H48560   9.607  10.042   7.990 -0.1808 -0.4053  0.1180
  368MOL0     H48561   9.843  10.124   8.030  0.8413 -2.5059  2.0588
  368MOL0     H48562  11.163   8.955   8.228  1.1934 -0.5602 -1.3542
  368MOL0     H48563  11.143   8.716   8.161  0.2988  0.2748 -0.2876
  368MOL0     H48564  10.976   8.568   7.605 -2.6049 -2.4672 -2.8057
  368MOL0     H48565  10.977   8.367   7.516 -0.6608  2.7308 -0.3914
  368MOL0     H48566  11.046   8.162   7.480 -2.2660  2.1635  0.7464
  368MOL0     H48567  10.949   8.021   7.475  0.3653 -1.8489  0.7444
  368MOL0     H48568  11.201   7.989   7.536 -1.8882  0.7021 -3.3395
  368MOL0     H48569  11.164   8.072   7.688 -1.0108  0.0800 -0.3845
  368MOL0     H48570  11.096   7.795   7.609  0.4805 -0.1958 -1.0353
  368MOL0     H48571  10.968   7.885   7.703 -1.6051 -0.8724 -4.5850
  368MOL0     H48572  11.128   7.917   7.883 -3.9546  0.4486 -2.1077
  368MOL0     H48573  11.140   7.752   7.846 -1.8922  0.2867 -0.1911
  368MOL0     H48574  11.527   7.883   7.743  0.0098  1.7046  1.4777
  368MOL0     H48575  10.886   8.161   7.876 -0.7487  0.3768  0.1858
  368MOL0     H48576  10.878   8.388   7.993  2.0263  1.7729  1.5776
  369MOL0     O48577   7.715   7.275   2.881 -0.0063  0.2692 -0.3203
  369MOL0     C48578   7.736   7.396   2.880 -0.7068 -1.0154  0.2020
  369MOL0     O48579   7.855   7.456   2.842 -0.3033  0.0703 -0.3415
  369MOL0     C48580   7.935   7.382   2.755 -0.5629 -0.7287 -0.2501
  369MOL0     C48581   7.921   7.392   2.609  0.2665  0.2581 -0.1795
  369MOL0     C48582   8.009   7.327   2.523  0.3682 -0.1660 -0.4144
  369MOL0     C48583   8.105   7.239   2.575  0.5240 -0.1542 -0.0097
  369MOL0     O48584   8.175   7.160   2.487  0.3197  0.8985 -0.2334
  369MOL0     C48585   8.216   7.026   2.528 -0.6375 -1.1683 -0.2737
  369MOL0     C48586   8.223   6.934   2.406 -0.5091  0.1444  0.2076
  369MOL0     C48587   8.252   6.790   2.448  0.4711  0.0300 -0.0620
  369MOL0     C48588   8.402   6.773   2.466 -0.1633 -0.0048 -0.3925
  369MOL0     C48589   8.442   6.638   2.518  0.0026 -0.1253  0.0297
  369MOL0     C48590   8.386   6.523   2.435  0.3959 -0.5640  0.2190
  369MOL0     C48591   8.441   6.513   2.301  0.1927  0.4494 -0.5994
  369MOL0     C48592   8.379   6.398   2.221  0.9076  0.3670  0.3674
  369MOL0     N48593   8.408   6.262   2.269 -0.0848  0.5794  0.5939
  369MOL0     C48594   8.537   6.227   2.292  0.6039  0.2485 -0.2450
  369MOL0     C48595   8.526   6.111   2.367 -0.2749 -0.1625  0.3194
  369MOL0     C48596   8.647   6.030   2.411 -0.5760  0.2391 -0.3797
  369MOL0     C48597   8.737   6.094   2.521 -0.4720  0.5770 -0.4660
  369MOL0     C48598   8.854   6.000   2.556  0.9634 -0.4319 -0.0865
  369MOL0     C48599   8.807   5.899   2.664 -0.7165  0.1208  0.8695
  369MOL0     O48600   8.754   5.952   2.781  0.6777  0.8314 -0.0964
  369MOL0     C48601   8.696   5.865   2.873 -0.3216  0.4526  0.5070
  369MOL0     C48602   8.676   5.721   2.841  0.1931  0.2549 -0.3733
  369MOL0     C48603   8.607   5.640   2.937  0.6843 -0.6785 -1.0320
  369MOL0     C48604   8.564   5.700   3.064  0.1761  0.6655  0.4953
  369MOL0     C48605   8.482   5.616   3.157 -0.1815  0.1285 -0.4177
  369MOL0     O48606   8.503   5.481   3.155  0.3882 -0.6240  0.2949
  369MOL0     C48607   8.408   5.410   3.211  0.1369  1.3644  0.0878
  369MOL0     C48608   8.283   5.403   3.157 -0.5219  0.0710  0.8525
  369MOL0     C48609   8.183   5.329   3.209 -0.3936 -0.9848  0.7562
  369MOL0     C48610   8.203   5.252   3.323 -0.6371  0.3688  0.6843
  369MOL0     O48611   8.099   5.170   3.364 -0.3474 -0.4133  0.0753
  369MOL0     C48612   8.064   5.064   3.270 -0.0813 -0.4666  0.9879
  369MOL0     C48613   8.055   4.936   3.339  0.2658 -0.3314  0.2629
  369MOL0     C48614   7.938   4.922   3.434  0.7177  0.2039  0.2597
  369MOL0     C48615   7.798   4.930   3.363 -0.1290 -0.3992  0.1549
  369MOL0     C48616   7.707   4.814   3.382  0.1351  0.4011 -0.7604
  369MOL0     C48617   7.667   4.815   3.533 -0.4257 -0.2815 -0.0443
  369MOL0     C48618   7.568   4.708   3.578 -0.7449 -0.0427  0.7658
  369MOL0     C48619   7.432   4.773   3.599 -0.3187 -0.5877 -0.9177
  369MOL0    Cl48620   7.383   4.873   3.465 -0.0226 -0.0149  0.2792
  369MOL0     C48621   8.333   5.254   3.382  0.4442  0.6350 -0.3846
  369MOL0     C48622   8.431   5.336   3.321 -1.2359 -0.1173  1.1676
  369MOL0     O48623   8.397   5.671   3.230 -0.2005  0.1815 -0.0869
  369MOL0     C48624   8.593   5.831   3.096 -0.4908  0.1658 -0.0999
  369MOL0     C48625   8.652   5.917   2.999  0.7294  0.4033  0.2445
  369MOL0     N48626   8.398   6.093   2.398  0.9275  0.0690  0.5998
  369MOL0     N48627   8.321   6.179   2.335 -0.3172  0.0867 -0.4090
  369MOL0     C48628   8.119   7.228   2.713 -0.4888  0.1488 -0.4323
  369MOL0     C48629   8.042   7.306   2.803 -0.2342  0.3875  1.0380
  369MOL0     C48630   7.630   7.496   2.912 -0.1247  0.1138  0.1678
  369MOL0     C48631   7.652   7.632   2.923  0.2814  0.0595 -0.0517
  369MOL0     C48632   7.548   7.713   2.974  0.3445  0.3289 -0.2199
  369MOL0     C48633   7.412   7.659   2.989  1.7374  0.2547 -0.4888
  369MOL0     O48634   7.324   7.756   3.039 -0.5203  0.5998 -0.3104
  369MOL0     C48635   7.190   7.715   3.057 -0.1454  1.3716  0.2274
  369MOL0     C48636   7.159   7.685   3.206  0.3190  0.9641  1.1299
  369MOL0     C48637   7.174   7.816   3.288  0.2765  0.4021  0.0172
  369MOL0     C48638   7.134   7.783   3.424 -0.0463 -0.7601 -0.1916
  369MOL0     C48639   7.174   7.894   3.509 -0.4974 -0.0156 -0.3255
  369MOL0     C48640   7.210   7.988   3.575  0.2906  0.7322 -0.3294
  369MOL0     C48641   7.402   7.519   2.991 -0.9186 -0.6768 -0.6497
  369MOL0     C48642   7.510   7.434   2.948 -0.6786  0.9112  0.5519
  369MOL0     H48643   7.862   7.471   2.564  0.3505  1.4147  1.6271
  369MOL0     H48644   8.010   7.345   2.416  2.9175  1.9287 -0.1482
  369MOL0     H48645   8.154   6.974   2.601 -1.5048  0.6082  0.3162
  369MOL0     H48646   8.317   7.046   2.564 -1.2377  1.4165  0.1745
  369MOL0     H48647   8.295   6.973   2.334  0.2308  1.6949  1.7250
  369MOL0     H48648   8.122   6.931   2.364 -0.5588 -0.0886  0.3379
  369MOL0     H48649   8.210   6.721   2.375 -2.9126  0.0542  1.6625
  369MOL0     H48650   8.198   6.759   2.538  0.5332  2.1295  0.7656
  369MOL0     H48651   8.440   6.787   2.364 -2.4424 -0.0674 -1.3185
  369MOL0     H48652   8.440   6.852   2.532  0.7025  1.4184 -2.4620
  369MOL0     H48653   8.398   6.631   2.618  0.6915 -1.5498  0.2591
  369MOL0     H48654   8.551   6.636   2.524  0.0476  1.8882  0.5894
  369MOL0     H48655   8.277   6.516   2.431  0.3925 -1.6631  1.4695
  369MOL0     H48656   8.421   6.446   2.504  0.3127  0.4113  1.3734
  369MOL0     H48657   8.442   6.605   2.241  0.7446 -1.1217 -3.1459
  369MOL0     H48658   8.546   6.493   2.325 -0.2704  1.0336  2.1923
  369MOL0     H48659   8.403   6.404   2.115 -4.1785  0.4617 -1.0367
  369MOL0     H48660   8.270   6.409   2.216  0.7634 -1.1644 -0.1980
  369MOL0     H48661   8.621   6.257   2.230 -0.8872 -0.4571 -2.7702
  369MOL0     H48662   8.700   6.008   2.317 -2.5262 -0.6764 -1.3179
  369MOL0     H48663   8.607   5.930   2.429  0.8882 -0.1363  1.0782
  369MOL0     H48664   8.671   6.120   2.605  0.0951  2.0229 -0.4292
  369MOL0     H48665   8.784   6.188   2.489 -1.6083  2.3352  2.6006
  369MOL0     H48666   8.885   5.958   2.460 -1.1976  0.8779 -1.4393
  369MOL0     H48667   8.933   6.060   2.603 -0.7845  0.1225  2.3280
  369MOL0     H48668   8.889   5.827   2.674 -1.9856 -1.3451  1.0285
  369MOL0     H48669   8.726   5.846   2.612 -0.9919  1.6383 -0.3175
  369MOL0     H48670   8.707   5.670   2.750  2.4724 -0.6609  0.8355
  369MOL0     H48671   8.595   5.534   2.918 -0.0024 -0.4094 -2.1771
  369MOL0     H48672   8.244   5.452   3.068 -0.5318 -2.3335 -0.5607
  369MOL0     H48673   8.082   5.325   3.167 -0.6915 -4.8979  1.4699
  369MOL0     H48674   8.140   5.053   3.192 -1.1478  2.3028 -0.5618
  369MOL0     H48675   7.967   5.096   3.233 -0.2434 -0.0790  1.7228
  369MOL0     H48676   8.149   4.908   3.389  0.2866 -1.7208 -0.4936
  369MOL0     H48677   8.042   4.851   3.271  3.7156 -2.0751  1.5364
  369MOL0     H48678   7.935   4.994   3.516 -0.3703  0.8017 -0.2734
  369MOL0     H48679   7.956   4.822   3.473  1.4544 -1.3797 -3.6758
  369MOL0     H48680   7.754   5.028   3.384  0.0008 -0.0810 -0.9803
  369MOL0     H48681   7.810   4.934   3.254 -0.8970  0.7413  0.1000
  369MOL0     H48682   7.761   4.724   3.353  1.4584  0.8790  0.0932
  369MOL0     H48683   7.614   4.818   3.324  0.4881 -2.9867 -1.7300
  369MOL0     H48684   7.634   4.918   3.546 -0.8880 -0.0515 -2.5842
  369MOL0     H48685   7.757   4.798   3.593  1.0623 -0.5518 -2.2288
  369MOL0     H48686   7.562   4.636   3.496  0.5737  0.9014 -0.1972
  369MOL0     H48687   7.609   4.666   3.670  3.6527  0.0526 -0.9415
  369MOL0     H48688   7.443   4.844   3.682  1.0772  2.9910 -3.8882
  369MOL0     H48689   7.353   4.701   3.624  0.7327 -1.0753  1.2285
  369MOL0     H48690   8.345   5.194   3.472 -0.9911 -1.2859 -1.3913
  369MOL0     H48691   8.530   5.344   3.364  0.0261 -0.6663 -1.4409
  369MOL0     H48692   8.568   5.882   3.189 -1.6427  1.9827 -1.3164
  369MOL0     H48693   8.659   6.016   3.042  0.3158  1.0152 -1.0390
  369MOL0     H48694   8.199   7.168   2.753 -2.3824 -2.5379 -0.4360
  369MOL0     H48695   8.064   7.302   2.909 -3.8832  0.5968  1.9615
  369MOL0     H48696   7.752   7.673   2.919  0.4762 -0.3835  0.1805
  369MOL0     H48697   7.559   7.820   2.986  1.3737 -0.0265  3.0972
  369MOL0     H48698   7.167   7.622   3.005 -2.0925  2.7746 -1.5664
  369MOL0     H48699   7.136   7.802   3.019 -3.7618 -1.4749 -1.7432
  369MOL0     H48700   7.056   7.648   3.213  1.2184 -2.0798 -0.1660
  369MOL0     H48701   7.221   7.601   3.240 -1.5344 -1.7982 -1.7841
  369MOL0     H48702   7.102   7.891   3.255  0.3850  1.6002  2.2687
  369MOL0     H48703   7.275   7.853   3.270  1.3905 -2.4480 -0.1431
  369MOL0     H48704   7.030   7.754   3.437  0.3103 -1.0664  2.7396
  369MOL0     H48705   7.192   7.700   3.466  1.5196  1.1932  1.7752
  369MOL0     H48706   7.246   8.082   3.612 -2.0538  1.3246  0.6545
  369MOL0     H48707   7.315   7.466   3.029 -1.5933  2.4215  2.7050
  369MOL0     H48708   7.492   7.328   2.936  3.5488  0.3320 -4.3068
  370MOL0     O48709   5.508   1.527   1.522 -0.1166  0.5933 -0.1100
  370MOL0     C48710   5.498   1.645   1.557  0.2410  0.3229 -0.6423
  370MOL0     O48711   5.607   1.728   1.568 -0.2090  1.1410 -0.0803
  370MOL0     C48712   5.727   1.682   1.522  0.6248 -0.4571 -0.1659
  370MOL0     C48713   5.832   1.662   1.604  0.2609 -1.2118  0.0789
  370MOL0     C48714   5.949   1.611   1.557 -0.6953  0.1742 -0.9949
  370MOL0     C48715   5.978   1.601   1.414 -0.6892 -0.2454 -0.7735
  370MOL0     O48716   6.085   1.551   1.345  0.0737 -1.4098 -0.1057
  370MOL0     C48717   6.179   1.480   1.418 -0.7652  0.7956 -1.6489
  370MOL0     C48718   6.110   1.345   1.466  0.8307 -0.8702  0.1725
  370MOL0     C48719   6.200   1.233   1.506  0.0107 -0.7237 -0.9166
  370MOL0     C48720   6.317   1.277   1.600 -0.2360  0.8924  0.0305
  370MOL0     C48721   6.383   1.170   1.686 -0.7328  0.2675  0.1171
  370MOL0     C48722   6.537   1.182   1.694  0.7431 -0.0829 -0.3658
  370MOL0     C48723   6.590   1.311   1.762  0.4537  1.1132 -0.3786
  370MOL0     C48724   6.525   1.328   1.905  0.4918 -0.2945 -0.0524
  370MOL0     N48725   6.407   1.404   1.895 -0.0100 -0.7282 -0.0008
  370MOL0     C48726   6.294   1.360   1.956 -0.6073  0.8874  1.0747
  370MOL0     C48727   6.218   1.470   1.976  0.8528 -0.3124 -0.0257
  370MOL0     C48728   6.085   1.477   2.044  0.2746  0.8528  0.0703
  370MOL0     C48729   5.992   1.368   1.987  0.1709 -0.4837  0.3495
  370MOL0     C48730   6.016   1.232   2.066  0.0889  0.4348  0.0031
  370MOL0     C48731   5.899   1.138   2.046  1.1188 -1.0659  0.8342
  370MOL0     O48732   5.793   1.205   2.122 -0.5754  0.1949  0.5160
  370MOL0     C48733   5.711   1.135   2.201  0.4941 -0.5227 -0.0518
  370MOL0     C48734   5.740   1.044   2.293 -0.6363 -0.1436  0.1224
  370MOL0     C48735   5.646   0.978   2.363 -0.3145 -0.5307 -0.2530
  370MOL0     C48736   5.512   1.019   2.356  0.3817 -0.0170  0.0949
  370MOL0     C48737   5.410   0.959   2.454 -1.3396  0.5806 -0.5009
  370MOL0     O48738   5.282   1.007   2.446  0.1500  0.0758  0.5573
  370MOL0     C48739   5.171   0.931   2.469  0.1163 -0.1071 -0.6208
  370MOL0     C48740   5.038   0.992   2.464 -0.2598  0.2976  0.5902
  370MOL0     C48741   4.920   0.922   2.497 -0.1252  0.3280 -0.1077
  370MOL0     C48742   4.925   0.789   2.538 -0.4362  0.5122 -0.5929
  370MOL0     O48743   4.825   0.701   2.567  0.2989 -0.4629  0.6448
  370MOL0     C48744   4.687   0.731   2.554  0.0817  0.3538 -0.0597
  370MOL0     C48745   4.617   0.597   2.546  1.6774 -0.5504 -0.9534
  370MOL0     C48746   4.478   0.625   2.499  0.1588 -0.7436 -0.1527
  370MOL0     C48747   4.395   0.718   2.595  0.1013  0.5351 -0.3079
  370MOL0     C48748   4.249   0.713   2.535 -0.3199 -1.2361 -0.1009
  370MOL0     C48749   4.143   0.746   2.645 -0.3413 -0.4395  0.4168
  370MOL0     C48750   4.162   0.891   2.706 -0.4496  0.4983  0.4593
  370MOL0     C48751   4.051   0.936   2.803  1.0885  0.0088 -0.5871
  370MOL0    Cl48752   3.890   0.972   2.712  0.1321 -0.1702 -0.3945
  370MOL0     C48753   5.049   0.728   2.534  0.1593 -0.2487  0.2250
  370MOL0     C48754   5.166   0.797   2.498  0.0810 -0.0347 -0.1169
  370MOL0     O48755   5.449   0.875   2.536 -0.1159 -0.1395  0.4696
  370MOL0     C48756   5.476   1.117   2.265  0.2366 -0.0872 -0.4130
  370MOL0     C48757   5.580   1.180   2.189  1.1694  0.5913 -0.2436
  370MOL0     N48758   6.283   1.573   1.914  0.2811  0.0225 -0.0916
  370MOL0     N48759   6.398   1.542   1.872  0.5475  0.3440 -0.6384
  370MOL0     C48760   5.864   1.626   1.329 -0.4682 -0.3074  0.2309
  370MOL0     C48761   5.740   1.665   1.380  0.3829  0.2241 -0.7733
  370MOL0     C48762   5.369   1.693   1.625 -0.1933  0.5252 -0.4730
  370MOL0     C48763   5.367   1.779   1.733 -0.2738 -0.2915 -0.2444
  370MOL0     C48764   5.250   1.803   1.799  0.7145  0.1393  0.2667
  370MOL0     C48765   5.122   1.750   1.750  0.1396 -0.0060  0.3743
  370MOL0     O48766   5.013   1.795   1.818 -0.1116 -0.9760  0.2092
  370MOL0     C48767   4.883   1.743   1.788 -0.0484 -0.1538  0.0627
  370MOL0     C48768   4.773   1.788   1.892  0.9875 -0.6832  0.4767
  370MOL0     C48769   4.754   1.941   1.888  0.1888 -0.7253  0.1374
  370MOL0     C48770   4.606   1.989   1.914  0.0381 -0.3044 -0.6996
  370MOL0     C48771   4.560   1.967   2.054  0.2892 -1.4940  0.0253
  370MOL0     C48772   4.529   1.986   2.171  1.3788 -0.3926  0.5638
  370MOL0     C48773   5.123   1.667   1.639 -0.6416  0.4435 -0.1319
  370MOL0     C48774   5.242   1.634   1.579 -0.9340  0.5154 -0.4459
  370MOL0     H48775   5.814   1.694   1.706  0.9266  2.3572 -0.7686
  370MOL0     H48776   6.025   1.593   1.631 -2.5247  0.4320  1.0344
  370MOL0     H48777   6.218   1.524   1.510 -0.6656 -1.8400 -0.3489
  370MOL0     H48778   6.264   1.452   1.356 -0.3218  0.4466 -0.8998
  370MOL0     H48779   6.038   1.319   1.388 -1.1783  1.7308  1.0021
  370MOL0     H48780   6.057   1.372   1.558  0.0991  1.4980 -0.8801
  370MOL0     H48781   6.247   1.183   1.421  2.3423  0.7261 -0.5516
  370MOL0     H48782   6.146   1.149   1.551  0.9392 -1.0595 -0.4047
  370MOL0     H48783   6.393   1.323   1.536 -1.4821  2.3235 -0.4914
  370MOL0     H48784   6.293   1.365   1.661  3.9238  3.4191 -1.5102
  370MOL0     H48785   6.361   1.077   1.634 -2.4190 -0.8466  2.6270
  370MOL0     H48786   6.335   1.173   1.784  0.0085 -0.1557  0.5002
  370MOL0     H48787   6.575   1.181   1.592 -0.1491 -2.0829 -0.7243
  370MOL0     H48788   6.586   1.096   1.739  2.7813  1.5807  0.7944
  370MOL0     H48789   6.697   1.296   1.776  0.4002  0.2005 -0.8587
  370MOL0     H48790   6.580   1.401   1.700 -1.4511  0.9836 -0.3246
  370MOL0     H48791   6.608   1.362   1.968  0.7369  1.1917 -1.1123
  370MOL0     H48792   6.503   1.226   1.936  1.7236 -0.2049  1.2279
  370MOL0     H48793   6.277   1.260   1.994 -1.4619 -0.5796 -2.7146
  370MOL0     H48794   6.035   1.573   2.023  0.4886  1.5802  2.5296
  370MOL0     H48795   6.110   1.468   2.150 -2.0121 -0.4446  0.5573
  370MOL0     H48796   6.007   1.363   1.879  6.1042  2.8639  0.5814
  370MOL0     H48797   5.889   1.400   2.006 -0.1371 -1.6777  0.7765
  370MOL0     H48798   6.109   1.180   2.039  0.3063 -2.2640  4.7896
  370MOL0     H48799   6.035   1.252   2.172 -2.3510 -2.5799  1.1574
  370MOL0     H48800   5.906   1.038   2.089 -1.5971 -0.8743  1.9106
  370MOL0     H48801   5.865   1.119   1.944 -2.9057 -2.6352  2.2761
  370MOL0     H48802   5.841   1.004   2.294  0.2530  1.9633  0.2959
  370MOL0     H48803   5.688   0.905   2.431 -1.9149  3.1112  5.3406
  370MOL0     H48804   5.018   1.090   2.423 -3.3163 -0.3215  0.3277
  370MOL0     H48805   4.827   0.972   2.471 -0.4275 -0.2813 -0.2190
  370MOL0     H48806   4.671   0.800   2.471  0.2047 -0.4025 -0.7218
  370MOL0     H48807   4.652   0.786   2.642  2.2086  1.9899 -0.1342
  370MOL0     H48808   4.617   0.545   2.642  2.1731  0.6875 -0.2473
  370MOL0     H48809   4.665   0.529   2.475 -0.9869 -4.2582  0.4812
  370MOL0     H48810   4.429   0.527   2.500  0.7864 -1.0671  1.4500
  370MOL0     H48811   4.501   0.661   2.398  5.2663  1.3204  1.4487
  370MOL0     H48812   4.398   0.688   2.701 -0.4255 -0.0143 -0.4445
  370MOL0     H48813   4.427   0.823   2.592  0.0174  0.5301 -2.0733
  370MOL0     H48814   4.228   0.610   2.505  3.2892 -2.3650  0.8004
  370MOL0     H48815   4.232   0.769   2.443 -2.5458  2.6993  2.4291
  370MOL0     H48816   4.152   0.684   2.734 -1.3686  0.6633  1.3291
  370MOL0     H48817   4.040   0.737   2.610  0.2601 -7.5133 -0.9522
  370MOL0     H48818   4.258   0.904   2.756  2.4295  1.7340 -4.6551
  370MOL0     H48819   4.164   0.961   2.622  2.0920  1.0378  0.8742
  370MOL0     H48820   4.082   1.024   2.860 -1.0753 -0.0955  0.8865
  370MOL0     H48821   4.039   0.869   2.889  0.2960 -1.3342 -1.7086
  370MOL0     H48822   5.061   0.623   2.557  2.9493  0.0094  0.2715
  370MOL0     H48823   5.258   0.740   2.486  0.0035 -0.0139 -0.8586
  370MOL0     H48824   5.373   1.149   2.256  0.9322  2.0197 -1.8152
  370MOL0     H48825   5.546   1.247   2.111 -1.9912  2.3814  2.3969
  370MOL0     H48826   5.878   1.602   1.224  3.0673  1.4855  0.1632
  370MOL0     H48827   5.662   1.681   1.306 -0.3304 -2.3459 -0.6631
  370MOL0     H48828   5.466   1.813   1.761 -0.2179 -2.1628  2.2235
  370MOL0     H48829   5.254   1.869   1.885  3.7828  0.0757  0.2919
  370MOL0     H48830   4.895   1.634   1.793  0.7752 -0.0296  1.1402
  370MOL0     H48831   4.847   1.767   1.687  0.7295 -0.6388 -0.3439
  370MOL0     H48832   4.678   1.739   1.871  1.3881 -0.4258 -2.3034
  370MOL0     H48833   4.810   1.759   1.992  1.7540 -0.7983  0.1701
  370MOL0     H48834   4.789   1.973   1.789  0.0404 -1.7472 -0.2561
  370MOL0     H48835   4.820   1.991   1.960 -0.3307 -0.2110  0.2680
  370MOL0     H48836   4.604   2.098   1.899 -3.0828  0.0905  1.5234
  370MOL0     H48837   4.542   1.930   1.848 -1.2254  0.5991 -0.3209
  370MOL0     H48838   4.511   1.999   2.276 -0.3305 -0.6790  0.3363
  370MOL0     H48839   5.030   1.637   1.592 -0.7247 -2.9024  1.9031
  370MOL0     H48840   5.249   1.571   1.491  0.5511  0.7972 -0.5592
  371MOL0     O48841   9.388   5.258   5.939  0.6118  0.2683 -0.0360
  371MOL0     C48842   9.447   5.150   5.929  0.4116 -0.1447 -0.0864
  371MOL0     O48843   9.559   5.106   5.990 -0.8638 -0.5863 -0.1818
  371MOL0     C48844   9.622   5.206   6.060  1.3791 -0.4950  0.0677
  371MOL0     C48845   9.617   5.207   6.199 -0.0385 -0.4059 -1.3562
  371MOL0     C48846   9.667   5.308   6.288  0.0147  0.0592  0.4475
  371MOL0     C48847   9.721   5.420   6.226  0.4488  0.2371  0.0943
  371MOL0     O48848   9.753   5.536   6.291 -1.0595 -0.4055 -0.2120
  371MOL0     C48849   9.896   5.529   6.336  0.5727  0.6910  0.0849
  371MOL0     C48850   9.912   5.467   6.471  0.2966 -0.9360 -0.6241
  371MOL0     C48851  10.057   5.471   6.516 -1.0125  0.4220 -0.6077
  371MOL0     C48852  10.057   5.384   6.647 -0.0915 -0.0868  0.4782
  371MOL0     C48853  10.181   5.415   6.729  0.7685  0.1098  0.3587
  371MOL0     C48854  10.181   5.321   6.851 -0.3989  0.6269  0.8223
  371MOL0     C48855  10.318   5.313   6.915  1.0003 -0.5912 -0.3713
  371MOL0     C48856  10.323   5.376   7.052  0.9884  0.0100  0.2090
  371MOL0     N48857  10.462   5.406   7.107 -0.5109 -0.4311 -0.5313
  371MOL0     C48858  10.572   5.321   7.135  0.4980  0.1892  0.3720
  371MOL0     C48859  10.673   5.408   7.174 -0.1069 -0.0700  1.0725
  371MOL0     C48860  10.825   5.377   7.206 -0.6490 -0.4414 -0.0188
  371MOL0     C48861  10.909   5.448   7.100  0.1532 -0.8176  1.9652
  371MOL0     C48862  10.942   5.593   7.132  0.1959 -0.0009  0.4840
  371MOL0     C48863  11.057   5.659   7.045  0.2180  0.1738 -0.5475
  371MOL0     O48864  11.081   5.796   7.084  0.0388 -0.1188  0.7846
  371MOL0     C48865  11.001   5.898   7.052  1.3667  0.0029 -0.1092
  371MOL0     C48866  10.959   5.974   7.162  1.1444 -0.7425 -0.0147
  371MOL0     C48867  10.877   6.082   7.146 -0.0309 -0.8735  0.3014
  371MOL0     C48868  10.839   6.115   7.018  0.7094  0.0609  0.3069
  371MOL0     C48869  10.740   6.227   6.984  0.2451 -0.0753 -0.3609
  371MOL0     O48870  10.648   6.247   7.078  0.2421 -0.4124 -0.4542
  371MOL0     C48871  10.544   6.329   7.049  0.2726 -0.3734  0.8674
  371MOL0     C48872  10.534   6.448   7.117  0.3244  0.2300 -0.1921
  371MOL0     C48873  10.442   6.550   7.080  0.3638  0.8508 -0.6316
  371MOL0     C48874  10.350   6.529   6.977 -0.7421  0.6493 -0.2560
  371MOL0     O48875  10.248   6.613   6.940  0.0179  0.2262  0.4873
  371MOL0     C48876  10.168   6.676   7.038 -0.5218 -0.0762  0.1226
  371MOL0     C48877  10.032   6.712   6.971  1.3232  0.5522 -0.5386
  371MOL0     C48878   9.931   6.591   6.959 -0.7685  0.3033 -1.0402
  371MOL0     C48879   9.854   6.597   6.826  0.0303 -1.1592 -0.3588
  371MOL0     C48880   9.745   6.698   6.840 -0.1843  0.3062  0.7228
  371MOL0     C48881   9.689   6.729   6.701 -0.1184  0.3991  0.1425
  371MOL0     C48882   9.593   6.618   6.661 -0.4440 -0.0971  0.6070
  371MOL0     C48883   9.575   6.625   6.507  0.0860 -0.3347  0.3601
  371MOL0    Cl48884   9.523   6.784   6.441 -0.8409  0.1407  0.1525
  371MOL0     C48885  10.367   6.412   6.906  0.0266  0.3912 -0.3373
  371MOL0     C48886  10.456   6.311   6.940 -0.7643 -0.0372  0.0225
  371MOL0     O48887  10.750   6.293   6.875  0.1886  0.0616 -0.5095
  371MOL0     C48888  10.880   6.033   6.908 -0.6087  0.3339  0.1311
  371MOL0     C48889  10.959   5.927   6.921  0.2818  0.4388  0.1606
  371MOL0     N48890  10.622   5.537   7.175  0.3308 -0.2539 -0.6046
  371MOL0     N48891  10.501   5.532   7.136 -0.0026 -0.2509 -0.6371
  371MOL0     C48892   9.729   5.432   6.078 -0.5616 -0.2557 -0.9519
  371MOL0     C48893   9.679   5.323   6.007 -0.4035 -0.3293 -0.3366
  371MOL0     C48894   9.372   5.054   5.851  0.2545 -0.6699  0.8055
  371MOL0     C48895   9.392   4.910   5.862 -0.1844 -0.4311 -0.1583
  371MOL0     C48896   9.316   4.818   5.784 -0.4938  0.2472  0.0111
  371MOL0     C48897   9.206   4.870   5.711 -0.7994  0.3867  0.3946
  371MOL0     O48898   9.120   4.792   5.638  0.9898 -0.3795  1.0813
  371MOL0     C48899   9.089   4.659   5.689  0.0544 -0.7914  0.2027
  371MOL0     C48900   9.192   4.572   5.614  0.1691  0.3836 -0.0503
  371MOL0     C48901   9.129   4.497   5.495 -0.0258  0.5452 -0.2717
  371MOL0     C48902   9.236   4.393   5.429 -0.7098  0.2469  0.6397
  371MOL0     C48903   9.170   4.295   5.348  0.9358  0.3646  0.4072
  371MOL0     C48904   9.112   4.215   5.278 -0.5610 -0.4031  0.0083
  371MOL0     C48905   9.201   5.007   5.689  0.1088  0.2533 -0.1483
  371MOL0     C48906   9.275   5.098   5.761  0.4891 -0.1397  0.3892
  371MOL0     H48907   9.578   5.127   6.262 -0.4482 -0.6886 -1.9604
  371MOL0     H48908   9.687   5.306   6.394 -2.9420 -1.5323  1.1050
  371MOL0     H48909   9.941   5.628   6.340  0.9755  0.4810  1.2342
  371MOL0     H48910   9.964   5.464   6.279 -1.5787 -1.8949  0.2400
  371MOL0     H48911   9.878   5.366   6.446 -1.2083 -0.4573 -0.6395
  371MOL0     H48912   9.846   5.509   6.548  0.6302 -0.0741 -0.7954
  371MOL0     H48913  10.082   5.577   6.521 -0.7118  0.4343 -2.0100
  371MOL0     H48914  10.130   5.432   6.444  1.7490  1.5602  1.4183
  371MOL0     H48915   9.969   5.408   6.707 -0.2347  1.5344 -0.3257
  371MOL0     H48916  10.064   5.280   6.613 -1.3258  0.7673 -2.7288
  371MOL0     H48917  10.180   5.515   6.773  1.9015  0.4565 -0.3604
  371MOL0     H48918  10.267   5.404   6.662  0.0775 -0.9330 -0.4049
  371MOL0     H48919  10.161   5.220   6.814 -0.4746  0.0843  2.2713
  371MOL0     H48920  10.096   5.352   6.912 -0.4837  1.7069  0.1738
  371MOL0     H48921  10.345   5.207   6.923  1.1069 -0.3887  4.3252
  371MOL0     H48922  10.381   5.373   6.849 -4.7996  1.0317 -5.4897
  371MOL0     H48923  10.279   5.305   7.124  1.4518 -2.0708 -1.4632
  371MOL0     H48924  10.262   5.465   7.040  4.0337  1.9373 -2.7117
  371MOL0     H48925  10.589   5.215   7.114  2.7604  0.4938  0.3881
  371MOL0     H48926  10.831   5.267   7.205 -3.2020 -0.6755  1.4934
  371MOL0     H48927  10.869   5.404   7.302 -1.3379 -0.3821  0.2867
  371MOL0     H48928  10.850   5.442   7.008 -0.6999  1.1626  2.3218
  371MOL0     H48929  11.002   5.391   7.091  0.3312 -0.7641  3.2620
  371MOL0     H48930  10.854   5.658   7.135  0.1475 -0.0857  1.4854
  371MOL0     H48931  10.980   5.588   7.235  1.4127  3.9637  0.3893
  371MOL0     H48932  11.028   5.654   6.940  2.7170 -0.6052 -1.2569
  371MOL0     H48933  11.151   5.604   7.043 -1.3918 -2.7769 -0.5872
  371MOL0     H48934  10.980   5.940   7.263 -0.6917 -2.9938 -0.3252
  371MOL0     H48935  10.834   6.140   7.227 -3.1588 -3.9219  1.1102
  371MOL0     H48936  10.595   6.468   7.204  1.0449 -2.1366 -0.1088
  371MOL0     H48937  10.436   6.641   7.139 -1.5102  0.8078 -0.7019
  371MOL0     H48938  10.208   6.775   7.064 -2.0983  0.8622 -0.8619
  371MOL0     H48939  10.144   6.605   7.117 -2.9834  0.0019 -0.4664
  371MOL0     H48940  10.056   6.748   6.870  4.4018 -0.4344 -0.2607
  371MOL0     H48941   9.988   6.799   7.020 -0.6349 -1.3654  1.3142
  371MOL0     H48942   9.880   6.586   7.056  0.6781 -2.3594 -0.3103
  371MOL0     H48943   9.999   6.505   6.957  2.0460  2.3924 -0.9284
  371MOL0     H48944   9.919   6.623   6.743 -1.6642  2.5769 -0.7245
  371MOL0     H48945   9.813   6.499   6.801 -0.9612 -0.6995 -0.5867
  371MOL0     H48946   9.767   6.791   6.894 -1.5614  1.1033 -0.0493
  371MOL0     H48947   9.669   6.658   6.908 -0.8547  1.3925  0.6303
  371MOL0     H48948   9.769   6.739   6.627  0.6686  2.2263  1.2021
  371MOL0     H48949   9.626   6.818   6.697 -1.6608 -0.6609 -0.0484
  371MOL0     H48950   9.640   6.521   6.681  0.5540  0.7387  2.6036
  371MOL0     H48951   9.499   6.614   6.717 -1.4392 -1.2881 -1.0751
  371MOL0     H48952   9.506   6.544   6.482  0.2586 -0.5440  0.5506
  371MOL0     H48953   9.672   6.610   6.460 -0.3241  0.8349 -0.9123
  371MOL0     H48954  10.299   6.390   6.824 -2.5358 -2.0047  2.1746
  371MOL0     H48955  10.468   6.215   6.890  0.1416  0.5114 -0.8663
  371MOL0     H48956  10.863   6.050   6.802  1.8073  1.3093 -0.1791
  371MOL0     H48957  10.995   5.872   6.835 -0.8143 -1.2491  0.7204
  371MOL0     H48958   9.753   5.518   6.016  0.0134 -0.5520 -1.1484
  371MOL0     H48959   9.673   5.327   5.899 -1.4752  3.5525 -0.2950
  371MOL0     H48960   9.477   4.870   5.917  1.6038  0.8283 -1.8578
  371MOL0     H48961   9.358   4.718   5.784  0.7542  0.7545  0.8974
  371MOL0     H48962   8.988   4.639   5.654 -1.0847  2.1284  1.5099
  371MOL0     H48963   9.103   4.671   5.797  2.0915  1.3485 -0.2057
  371MOL0     H48964   9.283   4.619   5.575  0.4561 -0.4281 -0.3829
  371MOL0     H48965   9.229   4.505   5.692  0.3463  0.7937  0.2204
  371MOL0     H48966   9.099   4.578   5.429  0.5440  0.0470 -1.1739
  371MOL0     H48967   9.050   4.435   5.540  2.5316 -1.9374  1.1343
  371MOL0     H48968   9.302   4.454   5.368  2.1574 -0.5127  2.7977
  371MOL0     H48969   9.294   4.344   5.508 -1.5436  1.7022  2.2137
  371MOL0     H48970   9.067   4.171   5.191 -1.9924  3.5177 -1.4713
  371MOL0     H48971   9.129   5.031   5.612  1.0440  1.8519 -0.5621
  371MOL0     H48972   9.253   5.203   5.745  1.6251  0.0510 -0.0410
  372MOL0     O48973   3.816   4.968  10.146 -0.2193  0.3801 -0.1548
  372MOL0     C48974   3.741   5.055  10.095  0.8044  0.4010 -1.3310
  372MOL0     O48975   3.634   5.030  10.015 -1.0023 -0.6867  0.3277
  372MOL0     C48976   3.590   4.901   9.986 -1.0924  0.0353 -0.7288
  372MOL0     C48977   3.575   4.799  10.077  0.1300  0.6138 -1.5943
  372MOL0     C48978   3.513   4.674  10.031 -0.3480 -0.3164  0.2374
  372MOL0     C48979   3.492   4.653   9.899 -0.8436 -0.5894 -0.3945
  372MOL0     O48980   3.441   4.541   9.836 -0.5937 -0.4710  0.0842
  372MOL0     C48981   3.468   4.416   9.899 -0.4027  0.7084  0.0581
  372MOL0     C48982   3.414   4.304   9.812 -0.1392 -0.2632  0.1274
  372MOL0     C48983   3.256   4.317   9.815  0.1118  0.2446 -0.2530
  372MOL0     C48984   3.197   4.187   9.759 -0.8830 -0.5367 -0.0856
  372MOL0     C48985   3.045   4.181   9.753 -1.5716  1.2690  0.5927
  372MOL0     C48986   2.982   4.190   9.890  0.2760 -0.5265 -0.5038
  372MOL0     C48987   3.006   4.066   9.980  0.3552  0.3782 -0.2128
  372MOL0     C48988   2.940   3.934   9.944  0.9986 -0.9723 -0.7666
  372MOL0     N48989   2.789   3.937   9.940 -1.2645 -1.0655  0.8792
  372MOL0     C48990   2.722   3.842  10.010 -0.3342  0.1033  1.3475
  372MOL0     C48991   2.605   3.844   9.963  0.1071  0.0742  0.4430
  372MOL0     C48992   2.499   3.744   9.992  0.1852  0.7760  0.0480
  372MOL0     C48993   2.476   3.689  10.137  0.2479 -0.5274 -0.6371
  372MOL0     C48994   2.393   3.787  10.227 -0.1556  0.3608  0.0426
  372MOL0     C48995   2.306   3.723  10.337 -1.4965  0.0535  0.9593
  372MOL0     O48996   2.359   3.749  10.467  0.9553 -0.0095 -0.3706
  372MOL0     C48997   2.346   3.655  10.565  0.4794 -0.5340 -0.1777
  372MOL0     C48998   2.354   3.705  10.692 -0.1608 -0.3626 -0.1055
  372MOL0     C48999   2.346   3.624  10.808  0.3206 -0.2578 -0.2364
  372MOL0     C49000   2.329   3.491  10.798  0.7650  0.6690  0.9986
  372MOL0     C49001   2.333   3.403  10.911  0.2964  0.1616  0.0196
  372MOL0     O49002   2.277   3.456  11.031 -0.2459  0.2663 -0.5372
  372MOL0     C49003   2.255   3.374  11.143  0.5041 -0.1092 -0.7866
  372MOL0     C49004   2.195   3.246  11.130 -0.0394  0.8627  0.2529
  372MOL0     C49005   2.161   3.171  11.248 -0.6476  1.2627 -0.4122
  372MOL0     C49006   2.190   3.227  11.378  0.4230 -0.1206 -0.5196
  372MOL0     O49007   2.153   3.156  11.495 -0.6774 -0.3455  1.1625
  372MOL0     C49008   2.080   3.213  11.596  0.4612  0.7848 -1.0027
  372MOL0     C49009   1.993   3.106  11.665  0.3217  0.4060  1.3559
  372MOL0     C49010   1.957   3.148  11.813  0.0607  0.3288  0.0634
  372MOL0     C49011   1.846   3.065  11.864 -0.3470  0.5605  0.4949
  372MOL0     C49012   1.901   2.924  11.852 -0.0347  0.0184  1.1796
  372MOL0     C49013   1.810   2.823  11.927  0.9408  0.6731  0.1064
  372MOL0     C49014   1.678   2.804  11.848  0.0900 -0.1336  0.4296
  372MOL0     C49015   1.591   2.706  11.901  1.0039 -0.0501 -0.3216
  372MOL0    Cl49016   1.451   2.686  11.781 -0.4356  0.1507 -0.6722
  372MOL0     C49017   2.257   3.356  11.381  0.1316  0.6919 -0.8690
  372MOL0     C49018   2.286   3.425  11.260 -0.5495  0.3946  0.6144
  372MOL0     O49019   2.370   3.291  10.888  0.0883  0.1022  0.2119
  372MOL0     C49020   2.325   3.439  10.671  0.2562  0.7993 -0.1418
  372MOL0     C49021   2.331   3.511  10.549 -0.9411  1.0344 -0.5234
  372MOL0     N49022   2.589   3.944   9.867 -0.5351 -0.4506  0.0194
  372MOL0     N49023   2.703   4.001   9.856  0.6025  0.2205 -0.2582
  372MOL0     C49024   3.514   4.760   9.814 -0.8372  0.0684  0.9772
  372MOL0     C49025   3.561   4.886   9.853 -0.5451  0.2361  1.1484
  372MOL0     C49026   3.782   5.196  10.126  0.5150 -0.1168 -0.0985
  372MOL0     C49027   3.716   5.308  10.062 -0.4259  0.0198 -0.0779
  372MOL0     C49028   3.763   5.441  10.078 -0.0422  0.1664 -0.0956
  372MOL0     C49029   3.877   5.470  10.148 -1.1271 -1.6556 -1.6305
  372MOL0     O49030   3.914   5.594  10.176  1.1075  0.3610 -0.5705
  372MOL0     C49031   3.939   5.625  10.318 -0.8346  0.2949 -0.1798
  372MOL0     C49032   3.991   5.765  10.318  0.3842 -0.3577  0.0451
  372MOL0     C49033   4.099   5.805  10.211  0.6672  0.1440  0.0324
  372MOL0     C49034   4.131   5.961  10.210  0.9070 -0.1663 -0.9759
  372MOL0     C49035   4.252   5.995  10.135  0.0796 -0.4689  1.0022
  372MOL0     C49036   4.326   6.027  10.049  0.6609  0.1547  0.5153
  372MOL0     C49037   3.950   5.350  10.204 -0.9465 -0.9673  0.1766
  372MOL0     C49038   3.902   5.222  10.192 -0.6328  0.6164  0.4133
  372MOL0     H49039   3.586   4.813  10.184 -2.1722  1.7684 -1.4449
  372MOL0     H49040   3.515   4.589  10.098  1.5706  1.4810  2.6721
  372MOL0     H49041   3.412   4.412   9.993 -0.6207 -0.2431 -0.1060
  372MOL0     H49042   3.573   4.396   9.919 -0.3433  2.0255  1.2303
  372MOL0     H49043   3.451   4.211   9.854 -2.5111 -2.0226 -1.4016
  372MOL0     H49044   3.462   4.295   9.715  3.0885 -3.0447  1.7849
  372MOL0     H49045   3.217   4.399   9.754  0.0435 -0.0090 -0.5545
  372MOL0     H49046   3.223   4.334   9.918 -1.4556 -1.2787 -0.4627
  372MOL0     H49047   3.250   4.172   9.664 -0.5069 -0.6526  0.1407
  372MOL0     H49048   3.233   4.097   9.810 -2.0859 -0.3903  1.0817
  372MOL0     H49049   3.012   4.089   9.703 -2.5859  0.0169  3.3465
  372MOL0     H49050   3.021   4.255   9.676 -0.3188 -0.5560 -1.7173
  372MOL0     H49051   2.874   4.202   9.875  0.3302  0.2198 -0.3323
  372MOL0     H49052   3.023   4.276   9.943  1.1614  0.6239 -2.9104
  372MOL0     H49053   3.112   4.054  10.007 -0.1887  1.0637  2.5104
  372MOL0     H49054   2.970   4.092  10.080  1.3217 -3.9578  1.4888
  372MOL0     H49055   2.976   3.861  10.017 -0.3252  0.3940  1.3860
  372MOL0     H49056   2.973   3.889   9.851  3.0670 -0.0221 -0.5366
  372MOL0     H49057   2.770   3.787  10.090  2.6961  0.8508  0.1686
  372MOL0     H49058   2.516   3.664   9.920  1.8755  0.3353  0.8687
  372MOL0     H49059   2.401   3.784   9.963  0.6506  1.2674 -0.8887
  372MOL0     H49060   2.573   3.672  10.186  0.9716  0.9685 -1.4923
  372MOL0     H49061   2.425   3.592  10.138  2.7693 -1.9678 -1.8724
  372MOL0     H49062   2.452   3.867  10.272 -1.5669  1.0750  0.6890
  372MOL0     H49063   2.321   3.829  10.156 -1.0878 -4.9833 -2.7302
  372MOL0     H49064   2.293   3.617  10.315 -4.7000  0.5136  0.0804
  372MOL0     H49065   2.201   3.754  10.332 -2.5456 -3.0137  1.4961
  372MOL0     H49066   2.399   3.803  10.702  1.9484 -1.1844 -1.0446
  372MOL0     H49067   2.369   3.660  10.908 -0.6238 -1.3310  0.3974
  372MOL0     H49068   2.161   3.205  11.035  0.7838  1.1875 -0.1863
  372MOL0     H49069   2.113   3.074  11.243 -0.4155  0.9496  2.1550
  372MOL0     H49070   2.024   3.302  11.563  2.0015  1.2902 -2.4172
  372MOL0     H49071   2.161   3.245  11.663  1.2977 -1.4235 -0.8942
  372MOL0     H49072   2.047   3.011  11.675 -2.4235 -1.1607  2.3061
  372MOL0     H49073   1.904   3.103  11.602 -2.1484  0.6255  4.5404
  372MOL0     H49074   1.933   3.252  11.836  0.4650  0.2912  0.6812
  372MOL0     H49075   2.049   3.139  11.872 -0.9462  1.5033  1.9212
  372MOL0     H49076   1.832   3.089  11.969  1.7860 -0.3539  1.0405
  372MOL0     H49077   1.756   3.089  11.806  2.3200  2.8698 -3.1399
  372MOL0     H49078   2.004   2.915  11.888 -0.2805  0.1663  1.9286
  372MOL0     H49079   1.894   2.886  11.750 -0.6167 -1.2740  1.6869
  372MOL0     H49080   1.798   2.859  12.029 -0.4165  0.5853 -0.0038
  372MOL0     H49081   1.855   2.723  11.932  0.9266  0.6563 -0.0678
  372MOL0     H49082   1.625   2.900  11.850  0.6661  0.2071 -0.1174
  372MOL0     H49083   1.694   2.786  11.741 -1.9321 -0.4635  0.1574
  372MOL0     H49084   1.544   2.735  11.996  3.4223  1.4406  0.4930
  372MOL0     H49085   1.647   2.613  11.915  0.7015  0.1732  3.3160
  372MOL0     H49086   2.287   3.406  11.473 -1.9214  3.2082 -1.4525
  372MOL0     H49087   2.345   3.517  11.265  0.4313 -0.2478  1.0519
  372MOL0     H49088   2.297   3.335  10.659  2.4717  0.0833  0.4545
  372MOL0     H49089   2.314   3.468  10.451 -1.3267 -1.8157  0.6980
  372MOL0     H49090   3.477   4.752   9.712 -3.1692 -3.8724  1.9384
  372MOL0     H49091   3.574   4.969   9.784 -1.6425 -0.4640  0.0466
  372MOL0     H49092   3.626   5.302  10.002 -1.2369 -2.0710  1.2369
  372MOL0     H49093   3.705   5.528  10.050 -0.8387 -0.4297 -0.3385
  372MOL0     H49094   4.003   5.546  10.357 -0.0189  1.5557  1.0901
  372MOL0     H49095   3.849   5.617  10.380 -0.3743 -3.0593  0.2635
  372MOL0     H49096   3.902   5.823  10.292  0.7025  1.4094  2.4961
  372MOL0     H49097   4.019   5.793  10.420 -1.9152  0.7289  0.4416
  372MOL0     H49098   4.067   5.789  10.108 -0.2957 -1.4665  0.5511
  372MOL0     H49099   4.189   5.743  10.216 -0.0357 -0.8442  0.9099
  372MOL0     H49100   4.039   6.011  10.177  0.4920  0.4537  1.0013
  372MOL0     H49101   4.147   5.993  10.313  1.2461  0.5228 -1.2377
  372MOL0     H49102   4.395   6.074   9.983  1.4742 -1.0686  0.4691
  372MOL0     H49103   4.046   5.373  10.249  0.2544  3.2023 -3.6955
  372MOL0     H49104   3.961   5.133  10.212 -1.8435 -0.5709 -1.0057
  373MOL0     O49105   6.727   7.839   6.974  0.5548  0.8585  0.1228
  373MOL0     C49106   6.765   7.932   7.039 -0.1484  0.3749 -0.8471
  373MOL0     O49107   6.715   7.969   7.160  0.0861  0.1580  0.2590
  373MOL0     C49108   6.616   7.890   7.217 -0.5102  0.2210  0.3899
  373MOL0     C49109   6.481   7.930   7.202  0.9861 -0.7100 -0.9872
  373MOL0     C49110   6.377   7.850   7.256  0.7685 -0.4464  0.0797
  373MOL0     C49111   6.413   7.733   7.326  0.1595 -0.1527 -0.1816
  373MOL0     O49112   6.305   7.685   7.402 -0.9527 -0.9236 -0.0418
  373MOL0     C49113   6.299   7.545   7.403  0.9787  0.9188  0.9701
  373MOL0     C49114   6.337   7.484   7.548  0.0565 -0.8172  0.2116
  373MOL0     C49115   6.304   7.339   7.556  1.0421 -0.5596 -0.3735
  373MOL0     C49116   6.370   7.275   7.679  0.3066 -0.4120 -0.6678
  373MOL0     C49117   6.332   7.121   7.687 -0.7795  0.9185  0.1379
  373MOL0     C49118   6.371   7.043   7.818  0.7277  0.1050 -0.2219
  373MOL0     C49119   6.340   6.891   7.810  0.1236 -0.1696 -0.2686
  373MOL0     C49120   6.201   6.855   7.779 -0.4203  0.5145 -0.3951
  373MOL0     N49121   6.099   6.928   7.855  0.2277  0.3249  0.3515
  373MOL0     C49122   6.082   6.925   7.990 -0.3579  0.8485  0.0347
  373MOL0     C49123   5.981   7.011   8.007 -0.8972  0.1621  0.3724
  373MOL0     C49124   5.928   7.069   8.143 -0.7206  0.1486 -0.8462
  373MOL0     C49125   6.015   7.027   8.267  0.7729  0.9158 -0.8406
  373MOL0     C49126   5.952   7.067   8.404  0.3554 -0.3895  0.0319
  373MOL0     C49127   5.873   7.195   8.427 -0.4169  0.1645 -0.3179
  373MOL0     O49128   5.963   7.299   8.421 -0.5284 -0.1104  0.2650
  373MOL0     C49129   5.915   7.424   8.475  0.4427 -0.3147 -1.4446
  373MOL0     C49130   6.022   7.516   8.498  0.1608 -0.6698 -0.0701
  373MOL0     C49131   5.992   7.644   8.555 -0.5394  0.3649 -0.7111
  373MOL0     C49132   5.856   7.685   8.572 -0.7032  0.4225  0.4219
  373MOL0     C49133   5.824   7.812   8.625  0.0762 -0.9751 -1.0192
  373MOL0     O49134   5.690   7.831   8.647 -0.2249 -0.5646 -0.5889
  373MOL0     C49135   5.646   7.956   8.683  0.2537  0.7637 -0.0983
  373MOL0     C49136   5.668   8.078   8.615 -0.2682 -0.5703  0.2919
  373MOL0     C49137   5.629   8.202   8.675 -0.2173  0.5055 -0.0752
  373MOL0     C49138   5.547   8.209   8.789 -1.2021  0.5762  0.1615
  373MOL0     O49139   5.511   8.325   8.843  0.9193 -0.9465 -0.1136
  373MOL0     C49140   5.561   8.449   8.784 -0.4021  0.8483 -0.4808
  373MOL0     C49141   5.544   8.558   8.892  0.2142  1.0639 -0.0016
  373MOL0     C49142   5.619   8.679   8.854 -0.0587 -0.4269  0.9109
  373MOL0     C49143   5.608   8.788   8.954 -0.4049 -1.2876  0.2534
  373MOL0     C49144   5.696   8.913   8.908  0.3028 -1.1540 -1.0248
  373MOL0     C49145   5.693   9.041   9.007  0.4361 -0.8342 -0.5644
  373MOL0     C49146   5.746   9.165   8.939  0.1746 -0.0913  0.5334
  373MOL0     C49147   5.724   9.289   9.022 -0.7334 -0.7137  0.2441
  373MOL0    Cl49148   5.551   9.322   9.041 -0.6280 -0.5303  0.0486
  373MOL0     C49149   5.520   8.082   8.850  0.3897 -1.2279  0.0892
  373MOL0     C49150   5.567   7.962   8.798  0.7977  0.5311  0.3597
  373MOL0     O49151   5.916   7.882   8.673 -0.2099  0.9727  0.2023
  373MOL0     C49152   5.751   7.593   8.543  0.2766 -0.2235  0.3985
  373MOL0     C49153   5.783   7.470   8.487  0.7235 -0.3940 -0.7813
  373MOL0     N49154   5.924   7.046   7.878  0.9045  0.2303 -0.4149
  373MOL0     N49155   6.007   6.994   7.796 -0.7765  0.1727  0.7612
  373MOL0     C49156   6.541   7.689   7.334 -0.8601 -0.7862 -0.6979
  373MOL0     C49157   6.645   7.766   7.274  1.0630  0.1177 -1.3630
  373MOL0     C49158   6.896   7.985   6.990  1.1752  0.1756  0.3836
  373MOL0     C49159   6.935   7.943   6.864 -0.0935 -0.2434  0.4744
  373MOL0     C49160   7.053   8.005   6.805 -0.4111 -0.3598 -0.9810
  373MOL0     C49161   7.125   8.111   6.874  0.0904 -0.6382  0.3352
  373MOL0     O49162   7.246   8.161   6.826  0.2497  0.0915  0.5642
  373MOL0     C49163   7.364   8.092   6.857 -0.3405  0.7612 -0.3735
  373MOL0     C49164   7.431   8.083   6.721  0.4014 -0.2084 -0.7904
  373MOL0     C49165   7.397   7.960   6.646 -0.6428  1.2490  0.0938
  373MOL0     C49166   7.471   7.943   6.507 -0.1572 -0.4488 -1.0822
  373MOL0     C49167   7.433   7.808   6.454 -0.4442 -1.2218  0.6257
  373MOL0     C49168   7.413   7.690   6.432 -0.7442  0.3952  0.6377
  373MOL0     C49169   7.076   8.158   6.989 -0.4004 -0.4397 -0.2036
  373MOL0     C49170   6.960   8.095   7.046  0.2906  0.2920  0.1073
  373MOL0     H49171   6.443   8.022   7.158 -5.0014 -2.3452 -0.1352
  373MOL0     H49172   6.272   7.877   7.259  0.7283 -0.6840  1.1610
  373MOL0     H49173   6.366   7.494   7.332 -0.2553  1.9668 -1.0254
  373MOL0     H49174   6.197   7.515   7.377  1.5218  0.5668 -0.9433
  373MOL0     H49175   6.276   7.527   7.628  0.0054  0.3519 -0.4318
  373MOL0     H49176   6.444   7.495   7.570  0.0537 -3.4304  2.0754
  373MOL0     H49177   6.343   7.293   7.465  0.0017 -0.9795 -0.6230
  373MOL0     H49178   6.196   7.326   7.554  1.0392 -0.4355 -1.1804
  373MOL0     H49179   6.477   7.294   7.691 -0.5198  4.5010  1.1527
  373MOL0     H49180   6.326   7.311   7.773  2.1428  1.1021 -0.3209
  373MOL0     H49181   6.383   7.073   7.604  0.9239 -1.3290  2.3477
  373MOL0     H49182   6.225   7.110   7.671 -0.8406  3.8952 -2.6259
  373MOL0     H49183   6.320   7.081   7.907 -2.4074 -4.8301  0.4932
  373MOL0     H49184   6.475   7.059   7.847 -0.3696  6.7050  1.7491
  373MOL0     H49185   6.409   6.860   7.731  0.9120  0.3637  0.2036
  373MOL0     H49186   6.375   6.833   7.896  0.6510 -0.7941 -0.8876
  373MOL0     H49187   6.193   6.747   7.793  0.6004  0.2809 -1.4208
  373MOL0     H49188   6.189   6.870   7.671  0.7749  1.7092 -0.3901
  373MOL0     H49189   6.151   6.881   8.060 -0.9500  1.7287  1.1997
  373MOL0     H49190   5.834   7.018   8.165 -0.3767  0.6217  2.1187
  373MOL0     H49191   5.917   7.177   8.128 -0.5254  0.3504  0.3664
  373MOL0     H49192   6.111   7.077   8.250 -0.5724  3.4662 -1.4508
  373MOL0     H49193   6.012   6.918   8.273 -0.9160  0.9551  4.1783
  373MOL0     H49194   5.882   6.986   8.425 -0.1557  0.6277  2.5442
  373MOL0     H49195   6.027   7.069   8.484  0.8795  1.7929 -0.4447
  373MOL0     H49196   5.843   7.196   8.532  2.1143  0.9226  0.4681
  373MOL0     H49197   5.783   7.211   8.366 -1.1578 -0.7434  0.5009
  373MOL0     H49198   6.126   7.498   8.471 -0.2244 -0.2913 -1.9961
  373MOL0     H49199   6.067   7.711   8.596 -0.3869 -0.4214  0.3267
  373MOL0     H49200   5.727   8.073   8.524  0.8471  0.1229  0.9423
  373MOL0     H49201   5.659   8.295   8.627 -0.4508  1.6566  1.8773
  373MOL0     H49202   5.520   8.466   8.684  0.2452 -4.4613 -1.9323
  373MOL0     H49203   5.668   8.431   8.775 -0.6354 -2.4975  1.7664
  373MOL0     H49204   5.574   8.513   8.987  2.3719 -4.3783 -2.8369
  373MOL0     H49205   5.440   8.588   8.908 -1.6175 -2.7059 -3.1831
  373MOL0     H49206   5.594   8.731   8.761  2.2799 -1.1686 -0.2306
  373MOL0     H49207   5.726   8.666   8.836 -0.2104  0.4873 -0.9089
  373MOL0     H49208   5.506   8.815   8.981  0.2179  3.6534 -1.4011
  373MOL0     H49209   5.652   8.761   9.050  1.5025  1.0514  0.1317
  373MOL0     H49210   5.646   8.963   8.824 -1.9061 -0.7271  0.4554
  373MOL0     H49211   5.800   8.882   8.895  0.6657 -0.6681  0.5010
  373MOL0     H49212   5.753   9.015   9.094 -1.2621 -1.5787  0.4309
  373MOL0     H49213   5.587   9.055   9.031 -0.1614  0.2422 -3.4079
  373MOL0     H49214   5.855   9.158   8.934  0.0998 -2.6533  1.2516
  373MOL0     H49215   5.704   9.171   8.838 -1.8269 -2.4046  1.1198
  373MOL0     H49216   5.770   9.374   8.972 -0.2233 -0.8861  0.4156
  373MOL0     H49217   5.773   9.291   9.120  0.0761 -0.0011 -0.1630
  373MOL0     H49218   5.464   8.083   8.943  0.1353  0.3262 -0.0594
  373MOL0     H49219   5.548   7.864   8.841  1.9393 -0.0018 -0.3143
  373MOL0     H49220   5.647   7.611   8.564  0.7678  1.6036  1.4250
  373MOL0     H49221   5.696   7.411   8.461  0.2729  1.0249 -2.7670
  373MOL0     H49222   6.578   7.605   7.392 -0.5632  1.9135  3.4135
  373MOL0     H49223   6.746   7.729   7.289  0.7372  0.0596  0.8945
  373MOL0     H49224   6.895   7.861   6.806  0.8122  0.7615 -1.7263
  373MOL0     H49225   7.101   7.966   6.716 -1.3177 -0.6068 -1.3753
  373MOL0     H49226   7.354   7.993   6.901  1.0674  0.6619 -0.2479
  373MOL0     H49227   7.424   8.158   6.921  0.3073 -1.1092  1.0450
  373MOL0     H49228   7.399   8.165   6.655  1.4781  0.3470 -0.6425
  373MOL0     H49229   7.540   8.091   6.722  0.3131  1.5447 -1.1705
  373MOL0     H49230   7.290   7.966   6.625 -1.2899  0.6034  2.8690
  373MOL0     H49231   7.423   7.863   6.691  2.9378  0.2177 -3.6288
  373MOL0     H49232   7.451   8.024   6.437  1.8778  1.1079  0.0071
  373MOL0     H49233   7.580   7.945   6.522  0.0385  2.9129 -2.2158
  373MOL0     H49234   7.401   7.586   6.411  1.5684 -0.5735  3.3523
  373MOL0     H49235   7.127   8.242   7.035 -1.7100 -0.1795  0.8008
  373MOL0     H49236   6.922   8.118   7.145 -0.7328  1.2118 -0.4794
  374MOL0     O49237   1.626   9.675   7.436  0.0243 -0.5215  0.2473
  374MOL0     C49238   1.572   9.571   7.408  0.3591 -0.1704  0.3030
  374MOL0     O49239   1.629   9.462   7.347  0.1981 -0.0280  0.1532
  374MOL0     C49240   1.760   9.476   7.319  0.4073 -0.8525 -1.1100
  374MOL0     C49241   1.772   9.484   7.184 -0.4929 -2.0067 -0.3489
  374MOL0     C49242   1.910   9.494   7.129  0.7299  0.1834 -0.8593
  374MOL0     C49243   2.023   9.494   7.209 -0.2872 -0.3386  0.2435
  374MOL0     O49244   2.148   9.508   7.167 -0.3447 -0.1327  0.3118
  374MOL0     C49245   2.179   9.525   7.025  0.4534 -0.3373  0.4814
  374MOL0     C49246   2.333   9.511   7.007  0.5741 -0.4103 -0.5757
  374MOL0     C49247   2.378   9.530   6.862 -0.8295 -0.2876 -0.3591
  374MOL0     C49248   2.533   9.552   6.856  0.1050  0.0988 -0.0187
  374MOL0     C49249   2.570   9.615   6.730 -0.5109 -0.8561  0.1383
  374MOL0     C49250   2.550   9.528   6.603  0.5242  0.4816  1.3541
  374MOL0     C49251   2.638   9.567   6.484 -0.3153  1.2597 -0.5493
  374MOL0     C49252   2.781   9.522   6.516  0.2879  0.2867 -0.4489
  374MOL0     N49253   2.878   9.547   6.403  0.2050 -1.1903 -0.3476
  374MOL0     C49254   2.959   9.667   6.393  0.8994  0.8108  0.5855
  374MOL0     C49255   3.019   9.649   6.266  0.2754  1.2416  0.1658
  374MOL0     C49256   3.090   9.763   6.186  0.0454  0.3292  0.2937
  374MOL0     C49257   3.231   9.803   6.242  0.0347 -0.1359 -0.4898
  374MOL0     C49258   3.314   9.862   6.130 -0.5591  0.3375 -0.8556
  374MOL0     C49259   3.459   9.895   6.168  0.0529  1.0219 -0.0889
  374MOL0     O49260   3.454  10.019   6.237 -0.3874 -0.0937  0.5661
  374MOL0     C49261   3.580  10.063   6.292  0.1166  0.3360 -0.3956
  374MOL0     C49262   3.570  10.170   6.374 -1.0654  0.4563 -0.3157
  374MOL0     C49263   3.686  10.226   6.433  0.1106 -0.4040 -0.2040
  374MOL0     C49264   3.812  10.178   6.403  0.0009  0.2715  0.0351
  374MOL0     C49265   3.926  10.244   6.446 -0.3903 -0.2118 -0.0963
  374MOL0     O49266   3.908  10.348   6.528  0.0201 -0.0987  0.5325
  374MOL0     C49267   4.019  10.390   6.596  0.2938 -0.4846  0.5159
  374MOL0     C49268   4.053  10.527   6.594 -0.5926  1.0744 -0.4390
  374MOL0     C49269   4.149  10.571   6.684 -0.0018 -0.0717  0.0643
  374MOL0     C49270   4.238  10.490   6.747  0.3462 -0.0246 -0.0077
  374MOL0     O49271   4.345  10.536   6.818  0.2738 -0.2795 -0.6585
  374MOL0     C49272   4.350  10.674   6.857 -0.4562 -0.9618  0.4808
  374MOL0     C49273   4.450  10.669   6.977 -0.2367  0.4381  0.4433
  374MOL0     C49274   4.582  10.602   6.957 -0.1620  0.9250 -0.5091
  374MOL0     C49275   4.646  10.543   7.081 -0.9553 -0.7591  0.4500
  374MOL0     C49276   4.593  10.407   7.097 -1.0708 -0.9007 -0.5588
  374MOL0     C49277   4.630  10.323   7.224 -0.0291  1.0032  0.2850
  374MOL0     C49278   4.537  10.195   7.237 -0.5422 -0.1319  0.1333
  374MOL0     C49279   4.598  10.103   7.348 -0.7890 -0.0921 -0.1938
  374MOL0    Cl49280   4.470   9.981   7.406  0.2884 -0.5389 -0.0308
  374MOL0     C49281   4.202  10.347   6.747 -0.0372 -0.6681  0.2673
  374MOL0     C49282   4.089  10.307   6.673  0.2200 -0.3698  0.5631
  374MOL0     O49283   4.028  10.206   6.396 -0.0657 -0.6758 -0.0817
  374MOL0     C49284   3.822  10.058   6.323  0.3855 -0.8847  0.2288
  374MOL0     C49285   3.708  10.001   6.271  0.4319  0.4056  0.4538
  374MOL0     N49286   2.982   9.536   6.204 -0.7246 -0.5145  0.1613
  374MOL0     N49287   2.895   9.478   6.289 -0.8224  0.1144  0.9497
  374MOL0     C49288   2.007   9.482   7.349 -0.2576 -0.3496  0.2897
  374MOL0     C49289   1.872   9.470   7.404 -0.5510  0.2057  0.9178
  374MOL0     C49290   1.430   9.549   7.438 -0.3583  0.3159 -0.8859
  374MOL0     C49291   1.328   9.648   7.412  0.2408  0.5407  0.7324
  374MOL0     C49292   1.188   9.614   7.421  0.6035 -0.9654  0.8121
  374MOL0     C49293   1.144   9.483   7.451 -0.3505 -0.0957  0.5644
  374MOL0     O49294   1.013   9.449   7.456  1.6299  0.0799 -0.2383
  374MOL0     C49295   0.917   9.553   7.471 -0.4951  0.2817 -0.3404
  374MOL0     C49296   0.898   9.598   7.621  0.2374 -0.3438  0.1307
  374MOL0     C49297   0.862   9.486   7.719  0.1431 -0.6717 -0.5228
  374MOL0     C49298   0.839   9.531   7.865 -0.6354  0.1618  0.5019
  374MOL0     C49299   0.825   9.412   7.950  0.1422 -0.1236  0.4986
  374MOL0     C49300   0.803   9.333   8.041  0.9896 -0.3590 -0.3661
  374MOL0     C49301   1.247   9.390   7.480 -1.0319  0.9933 -0.5644
  374MOL0     C49302   1.390   9.425   7.480  1.2133 -0.2232 -0.3180
  374MOL0     H49303   1.686   9.496   7.119 -4.6424 -1.5281  4.6024
  374MOL0     H49304   1.933   9.488   7.023 -0.0899 -1.5802 -0.9648
  374MOL0     H49305   2.137   9.623   7.004 -0.4072 -0.7355  0.2951
  374MOL0     H49306   2.124   9.455   6.961 -1.0724 -0.3947  1.7821
  374MOL0     H49307   2.363   9.408   7.027  3.9235  0.1310 -2.0700
  374MOL0     H49308   2.389   9.583   7.068 -0.5832  0.9304 -1.0686
  374MOL0     H49309   2.337   9.628   6.834 -0.6876  1.2374  3.9915
  374MOL0     H49310   2.346   9.450   6.794 -4.3235  0.5174  0.1392
  374MOL0     H49311   2.571   9.621   6.931 -2.4313  1.8371 -0.1919
  374MOL0     H49312   2.582   9.455   6.868  0.0768  0.4465  4.5836
  374MOL0     H49313   2.675   9.645   6.739 -1.1072  1.5520 -0.2437
  374MOL0     H49314   2.510   9.705   6.714 -0.1317 -0.8526 -1.5214
  374MOL0     H49315   2.447   9.516   6.568  0.9624  2.6826 -0.9563
  374MOL0     H49316   2.569   9.424   6.631 -2.2549 -0.6201 -0.4648
  374MOL0     H49317   2.595   9.515   6.398  2.6269 -3.2364  0.2932
  374MOL0     H49318   2.631   9.671   6.452 -3.5497  0.5181 -2.6779
  374MOL0     H49319   2.786   9.415   6.536  1.7381  0.1349 -1.4854
  374MOL0     H49320   2.825   9.558   6.609 -1.0282 -4.0067  2.0991
  374MOL0     H49321   2.972   9.764   6.439 -1.0864  2.1895 -1.5338
  374MOL0     H49322   3.026   9.851   6.179  3.8025  3.5473  2.4453
  374MOL0     H49323   3.106   9.730   6.083 -3.1965  1.5961 -0.7434
  374MOL0     H49324   3.274   9.714   6.288 -2.4875 -0.7770  0.8230
  374MOL0     H49325   3.230   9.877   6.323 -3.7292  1.1729 -1.5326
  374MOL0     H49326   3.328   9.799   6.041 -0.4123 -1.6383  0.5076
  374MOL0     H49327   3.272   9.959   6.102 -1.6517  1.8538  4.8578
  374MOL0     H49328   3.519   9.898   6.077 -0.4377  3.2966 -0.3961
  374MOL0     H49329   3.498   9.816   6.232 -0.1750  1.2664  0.3576
  374MOL0     H49330   3.471  10.198   6.408 -0.1332  2.2032  1.0829
  374MOL0     H49331   3.665  10.302   6.508  3.3159 -0.4232  0.8386
  374MOL0     H49332   3.986  10.596   6.544 -2.2190  2.1201  2.8776
  374MOL0     H49333   4.154  10.679   6.698 -2.9042 -0.0577  1.6243
  374MOL0     H49334   4.254  10.709   6.897 -2.8671 -3.5562 -2.4911
  374MOL0     H49335   4.392  10.733   6.775  1.9060 -1.8680  0.9608
  374MOL0     H49336   4.402  10.612   7.057  3.1412 -0.6336  1.8920
  374MOL0     H49337   4.457  10.773   7.011 -5.5868  0.1263  3.6169
  374MOL0     H49338   4.642  10.689   6.928  0.7866  1.9061  3.7119
  374MOL0     H49339   4.579  10.523   6.882 -0.2832 -1.0504  1.4693
  374MOL0     H49340   4.753  10.526   7.064 -1.0377 -1.8447  0.9453
  374MOL0     H49341   4.628  10.609   7.166 -1.3269  0.1980 -0.3515
  374MOL0     H49342   4.629  10.348   7.013  1.9204  0.3381 -0.2559
  374MOL0     H49343   4.486  10.426   7.088 -0.4918  2.6503 -1.2677
  374MOL0     H49344   4.612  10.387   7.311  2.3152  1.1563  0.7187
  374MOL0     H49345   4.735  10.293   7.228  0.5061  2.1878 -2.4075
  374MOL0     H49346   4.437  10.232   7.262 -0.3769 -0.3471  1.1337
  374MOL0     H49347   4.536  10.142   7.141 -0.3367  1.1516 -0.6033
  374MOL0     H49348   4.630  10.161   7.434  0.3639  3.5949 -2.8680
  374MOL0     H49349   4.677  10.036   7.314 -1.3887 -1.0791  0.3195
  374MOL0     H49350   4.266  10.280   6.804  1.4263 -1.9747 -2.6549
  374MOL0     H49351   4.059  10.203   6.677  2.4061 -1.1303 -0.8644
  374MOL0     H49352   3.915  10.014   6.288  2.0728  2.8778 -0.4158
  374MOL0     H49353   3.701   9.911   6.210 -1.0911 -0.1641  1.4082
  374MOL0     H49354   2.100   9.483   7.405  0.1437 -1.4415 -0.3398
  374MOL0     H49355   1.856   9.446   7.509  0.0974 -0.1390  0.9454
  374MOL0     H49356   1.365   9.745   7.381 -1.0167  0.7332 -0.2628
  374MOL0     H49357   1.117   9.693   7.397 -0.1641 -1.7793  0.3384
  374MOL0     H49358   0.818   9.518   7.440 -0.3384 -0.7215  0.2704
  374MOL0     H49359   0.923   9.635   7.398 -1.9278  2.8987  2.2367
  374MOL0     H49360   0.991   9.644   7.655  1.6993 -1.9792 -1.4510
  374MOL0     H49361   0.817   9.671   7.626  1.3099  0.7996  1.3220
  374MOL0     H49362   0.950   9.422   7.718  0.9945  0.4224  0.8335
  374MOL0     H49363   0.779   9.425   7.682  0.6441 -0.8210 -1.4332
  374MOL0     H49364   0.922   9.587   7.911 -0.7502  0.2114  0.6503
  374MOL0     H49365   0.749   9.591   7.880 -1.7006 -1.8699  2.9690
  374MOL0     H49366   0.771   9.266   8.118 -4.1787  0.1828 -1.6990
  374MOL0     H49367   1.214   9.291   7.511 -0.1087  1.1867  1.1531
  374MOL0     H49368   1.469   9.354   7.499  2.3529  1.1246  0.1564
  375MOL0     O49369   3.032   2.294   3.088  0.0751 -0.3352 -0.2311
  375MOL0     C49370   3.054   2.417   3.091 -0.7148  0.7603  0.3339
  375MOL0     O49371   3.152   2.490   3.020 -0.5563 -0.9219  0.3964
  375MOL0     C49372   3.247   2.413   2.955  0.8571 -0.1052  0.0526
  375MOL0     C49373   3.252   2.415   2.817  0.1035  0.3091 -1.3527
  375MOL0     C49374   3.356   2.346   2.754  0.5275  0.4531 -0.5153
  375MOL0     C49375   3.455   2.273   2.825  0.5465 -0.9939  0.0634
  375MOL0     O49376   3.562   2.205   2.776 -0.1937  0.1174 -0.1065
  375MOL0     C49377   3.531   2.139   2.651 -0.0559 -0.4593 -0.5994
  375MOL0     C49378   3.640   2.039   2.615 -0.2038 -0.4611  0.8524
  375MOL0     C49379   3.604   1.967   2.479 -0.1123 -0.4715  0.0781
  375MOL0     C49380   3.683   1.839   2.461 -0.4109 -0.0568 -0.0316
  375MOL0     C49381   3.645   1.728   2.359 -0.5284  0.5472  0.5487
  375MOL0     C49382   3.754   1.627   2.380  0.5814 -0.5956  1.1947
  375MOL0     C49383   3.764   1.523   2.264  0.0569  0.0663 -1.0046
  375MOL0     C49384   3.811   1.585   2.132 -0.7961  0.3609  0.8242
  375MOL0     N49385   3.839   1.472   2.035  0.6511 -0.3311  0.3759
  375MOL0     C49386   3.954   1.428   1.991  0.0307  0.2325 -0.7909
  375MOL0     C49387   3.930   1.335   1.894  0.2067  0.4514 -0.5826
  375MOL0     C49388   4.036   1.262   1.824 -1.2371 -0.1056  1.2881
  375MOL0     C49389   3.981   1.172   1.711  0.0816 -0.4935 -0.5949
  375MOL0     C49390   3.902   1.052   1.759  0.1623  0.3478 -0.8087
  375MOL0     C49391   3.982   0.957   1.858  1.2034 -0.2309 -0.1214
  375MOL0     O49392   4.088   0.894   1.792  0.1579  0.0378  0.2448
  375MOL0     C49393   4.206   0.866   1.852 -0.4792  0.4227  0.7000
  375MOL0     C49394   4.220   0.851   1.988 -0.4446  0.8233  0.1157
  375MOL0     C49395   4.343   0.828   2.043 -0.8675  0.2449 -0.0094
  375MOL0     C49396   4.463   0.819   1.966  0.3098  0.1623  1.5438
  375MOL0     C49397   4.595   0.807   2.034 -0.2816 -0.9492  0.1679
  375MOL0     O49398   4.697   0.799   1.955  0.4510 -0.2061 -0.0662
  375MOL0     C49399   4.828   0.808   1.998 -0.7538 -0.3518 -0.1957
  375MOL0     C49400   4.918   0.833   1.892 -0.4555 -0.0737 -0.0173
  375MOL0     C49401   5.055   0.820   1.915  0.3422  0.0960 -0.5067
  375MOL0     C49402   5.100   0.813   2.049 -0.0542  0.1268 -0.5474
  375MOL0     O49403   5.234   0.814   2.088 -0.0360  0.5311  0.0972
  375MOL0     C49404   5.327   0.770   1.987 -0.1778 -0.9304  0.0069
  375MOL0     C49405   5.469   0.762   2.045 -0.4892 -0.1811 -0.0018
  375MOL0     C49406   5.565   0.726   1.937 -0.8475 -0.6958 -0.0216
  375MOL0     C49407   5.705   0.685   1.988 -0.4566 -0.4202  0.2961
  375MOL0     C49408   5.808   0.715   1.877 -0.5509  0.2451 -0.3877
  375MOL0     C49409   5.938   0.660   1.916 -0.3627  0.4469 -0.3595
  375MOL0     C49410   6.041   0.678   1.806  0.3537 -0.5305 -0.2613
  375MOL0     C49411   6.036   0.808   1.727  0.0732  0.1079  1.0363
  375MOL0    Cl49412   6.070   0.939   1.830 -0.0006 -0.1659 -0.1322
  375MOL0     C49413   5.014   0.818   2.158 -0.8815 -0.3317  0.0902
  375MOL0     C49414   4.879   0.810   2.132 -1.0824 -0.3414  0.6345
  375MOL0     O49415   4.592   0.794   2.154  1.1577 -0.2160 -1.3858
  375MOL0     C49416   4.444   0.833   1.828 -0.5452 -0.3890 -0.1026
  375MOL0     C49417   4.320   0.870   1.776  0.4468 -0.4616 -0.4492
  375MOL0     N49418   3.792   1.328   1.870 -0.3949 -0.3154  0.0540
  375MOL0     N49419   3.738   1.400   1.971 -1.1628  0.6798  0.2790
  375MOL0     C49420   3.455   2.290   2.964  0.1767 -0.0077  0.1581
  375MOL0     C49421   3.347   2.352   3.030  0.4170 -0.7511  0.5688
  375MOL0     C49422   2.979   2.500   3.182  1.4997  1.2296 -0.8207
  375MOL0     C49423   2.903   2.438   3.282  0.0421 -0.1173  0.3169
  375MOL0     C49424   2.812   2.509   3.358 -0.3620  0.7966 -0.8466
  375MOL0     C49425   2.790   2.648   3.340  0.4655 -0.4382  0.7178
  375MOL0     O49426   2.696   2.719   3.400 -0.5419 -0.2367 -0.1331
  375MOL0     C49427   2.613   2.651   3.495 -0.0956  0.2249 -1.0800
  375MOL0     C49428   2.569   2.758   3.599 -1.2920  0.0513  0.2584
  375MOL0     C49429   2.691   2.799   3.677 -0.8337  0.5710  0.0216
  375MOL0     C49430   2.762   2.705   3.772 -0.9513  0.0143 -0.6352
  375MOL0     C49431   2.896   2.759   3.813  0.0669  0.2594 -0.0563
  375MOL0     C49432   2.996   2.799   3.868  0.3342 -0.1913  0.5968
  375MOL0     C49433   2.871   2.712   3.244 -1.0780 -0.2360 -0.3234
  375MOL0     C49434   2.966   2.638   3.165 -0.1524 -0.6924 -0.0175
  375MOL0     H49435   3.180   2.467   2.754  0.9630  2.8328 -0.3642
  375MOL0     H49436   3.363   2.359   2.647 -1.4190 -0.4816 -0.8001
  375MOL0     H49437   3.525   2.210   2.568  2.3745  3.9626  2.6069
  375MOL0     H49438   3.439   2.079   2.650  0.1596 -0.7850 -1.4749
  375MOL0     H49439   3.641   1.975   2.703 -2.5002  0.5226  1.6628
  375MOL0     H49440   3.739   2.085   2.603  2.3306 -5.2145  1.3687
  375MOL0     H49441   3.609   2.028   2.388  1.3030 -2.5302 -1.3143
  375MOL0     H49442   3.495   1.951   2.479 -0.0692 -0.9988  2.0556
  375MOL0     H49443   3.787   1.870   2.448 -0.7853  2.4310  2.0054
  375MOL0     H49444   3.670   1.793   2.559  1.0808  1.1447  0.7653
  375MOL0     H49445   3.636   1.772   2.259 -0.9012 -0.5452  0.0834
  375MOL0     H49446   3.545   1.686   2.377  0.5669 -1.0751  3.4740
  375MOL0     H49447   3.725   1.578   2.473 -1.2241 -0.0849  0.9332
  375MOL0     H49448   3.848   1.679   2.402 -0.7064  1.3223  2.3509
  375MOL0     H49449   3.847   1.454   2.286 -0.5949 -0.3836  0.1500
  375MOL0     H49450   3.665   1.480   2.248  0.6726 -1.3134 -1.3204
  375MOL0     H49451   3.901   1.645   2.152  1.0580 -0.8257 -2.9897
  375MOL0     H49452   3.746   1.659   2.084 -1.3609 -1.2878 -1.0508
  375MOL0     H49453   4.054   1.454   2.025  0.8086 -0.3554 -2.5159
  375MOL0     H49454   4.095   1.201   1.893  0.1748  0.9114  1.0269
  375MOL0     H49455   4.106   1.337   1.787  1.3195 -0.9768  3.9156
  375MOL0     H49456   4.059   1.145   1.639 -0.7724  0.1711 -1.8026
  375MOL0     H49457   3.907   1.219   1.645 -0.4042 -4.4321 -3.1982
  375MOL0     H49458   3.808   1.079   1.807 -0.9998 -2.2125 -1.5130
  375MOL0     H49459   3.877   0.996   1.669 -0.9198  1.1040 -0.9985
  375MOL0     H49460   3.920   0.873   1.889 -3.8519  2.0285 -2.8270
  375MOL0     H49461   4.006   1.006   1.953  0.6545 -0.0398 -0.0752
  375MOL0     H49462   4.135   0.869   2.052  0.3516  2.3520  0.8028
  375MOL0     H49463   4.338   0.811   2.150 -0.0054  0.3897  0.0566
  375MOL0     H49464   4.875   0.839   1.792  0.8712 -1.2778 -0.6971
  375MOL0     H49465   5.122   0.819   1.829 -0.0434 -0.3307 -0.8063
  375MOL0     H49466   5.330   0.844   1.907 -5.0787  0.1013  0.4968
  375MOL0     H49467   5.307   0.670   1.947  4.0651 -1.0522 -2.4802
  375MOL0     H49468   5.467   0.684   2.122  0.4448 -3.1115 -2.7393
  375MOL0     H49469   5.500   0.860   2.084 -1.1847 -0.2144  0.6571
  375MOL0     H49470   5.583   0.810   1.868 -3.0969  1.4097  1.7701
  375MOL0     H49471   5.529   0.646   1.873  2.3840 -1.3209 -1.2818
  375MOL0     H49472   5.727   0.727   2.086  1.3483  2.7089 -1.3025
  375MOL0     H49473   5.695   0.577   2.001 -1.4470 -0.2519  1.0447
  375MOL0     H49474   5.805   0.823   1.866 -2.0768  0.2778  0.1611
  375MOL0     H49475   5.763   0.662   1.792  0.1594 -2.8485  0.9957
  375MOL0     H49476   5.924   0.556   1.944 -0.0471  0.6957  0.7856
  375MOL0     H49477   5.967   0.717   2.005 -0.8518  0.2491 -0.0684
  375MOL0     H49478   6.133   0.642   1.853 -0.7975 -1.4384  1.4590
  375MOL0     H49479   6.026   0.601   1.730 -0.0733 -1.7622  1.0089
  375MOL0     H49480   5.937   0.815   1.680  0.6295 -1.9096 -0.5868
  375MOL0     H49481   6.097   0.811   1.637 -0.0575 -0.0446  0.9412
  375MOL0     H49482   5.053   0.815   2.260  0.2299 -2.8375 -0.3256
  375MOL0     H49483   4.805   0.797   2.210 -2.9617  0.1231 -0.9945
  375MOL0     H49484   4.529   0.836   1.760 -0.4840 -2.3796 -0.1668
  375MOL0     H49485   4.312   0.897   1.671  0.7399  3.1568  0.3010
  375MOL0     H49486   3.539   2.265   3.027  2.6333  4.1648 -1.0808
  375MOL0     H49487   3.352   2.356   3.139 -1.4734  0.2839  0.6591
  375MOL0     H49488   2.896   2.331   3.300  0.6120 -0.0086  1.2257
  375MOL0     H49489   2.758   2.448   3.430 -2.2489  1.8117 -1.3362
  375MOL0     H49490   2.668   2.567   3.539  0.1141 -0.9229 -3.3972
  375MOL0     H49491   2.518   2.617   3.453 -1.5955  3.4961 -0.6455
  375MOL0     H49492   2.537   2.851   3.550 -0.1128 -0.4668 -1.6252
  375MOL0     H49493   2.491   2.705   3.653  1.2392 -1.8196  2.3198
  375MOL0     H49494   2.659   2.895   3.720 -2.3221 -0.2311  0.7708
  375MOL0     H49495   2.769   2.820   3.604 -0.2106 -0.0452  0.5070
  375MOL0     H49496   2.692   2.699   3.855 -0.0397  1.5920  0.3007
  375MOL0     H49497   2.772   2.608   3.723  0.8499  0.3986 -1.1056
  375MOL0     H49498   3.088   2.836   3.909 -0.3882  0.6827  1.4901
  375MOL0     H49499   2.871   2.820   3.228  4.8424  0.4313  1.9074
  375MOL0     H49500   3.019   2.680   3.080  0.1665 -0.7812  0.1347
  376MOL0     O49501   5.520   9.859   0.355  0.2038 -0.5675  0.7662
  376MOL0     C49502   5.427   9.855   0.435  0.1487  0.6316  0.0872
  376MOL0     O49503   5.399   9.755   0.525  0.0803  0.7016  0.6868
  376MOL0     C49504   5.502   9.671   0.555  0.4666  0.5503 -0.9397
  376MOL0     C49505   5.481   9.537   0.564 -0.3563 -0.5114 -0.1207
  376MOL0     C49506   5.584   9.440   0.591 -0.6341  0.2396  0.3423
  376MOL0     C49507   5.714   9.483   0.604  0.0716  0.8571  0.7149
  376MOL0     O49508   5.819   9.395   0.628  0.1085  0.1574 -0.0508
  376MOL0     C49509   5.792   9.257   0.636 -0.7001  0.5169 -0.3211
  376MOL0     C49510   5.916   9.172   0.683 -0.2901  0.1812  0.1581
  376MOL0     C49511   5.885   9.117   0.818 -0.4077  0.1679 -0.9741
  376MOL0     C49512   5.998   9.029   0.869 -0.7627  0.8985  0.3034
  376MOL0     C49513   6.005   8.887   0.806  0.3465  0.1763 -0.1489
  376MOL0     C49514   6.130   8.817   0.852  0.0822 -1.3478  0.3024
  376MOL0     C49515   6.119   8.668   0.820  0.6766  0.1655 -0.3912
  376MOL0     C49516   6.247   8.592   0.795  0.6897  0.0909 -0.6753
  376MOL0     N49517   6.323   8.610   0.664  0.6779 -1.9733 -0.2155
  376MOL0     C49518   6.362   8.731   0.627 -0.5982 -0.9557  0.7898
  376MOL0     C49519   6.353   8.732   0.496  0.5844 -0.7090  0.1150
  376MOL0     C49520   6.384   8.850   0.407  0.7983  0.4772  0.6093
  376MOL0     C49521   6.264   8.935   0.383  0.2489 -0.5335  1.0700
  376MOL0     C49522   6.293   9.046   0.290  0.0675 -0.0501  0.1161
  376MOL0     C49523   6.294   9.020   0.135 -0.0387  0.6789 -0.3860
  376MOL0     O49524   6.310   9.138   0.047  0.3440  0.5064 -0.4713
  376MOL0     C49525   6.410   9.231   0.073 -0.1105  0.8082  0.7528
  376MOL0     C49526   6.548   9.196   0.063  0.3147 -0.0447 -0.1770
  376MOL0     C49527   6.652   9.286   0.099 -0.8862 -0.3578 -0.1390
  376MOL0     C49528   6.623   9.421   0.138  0.1422  0.1538 -0.2415
  376MOL0     C49529   6.731   9.506   0.204  0.9531  0.2495  0.0951
  376MOL0     O49530   6.710   9.638   0.200 -0.2042  0.2284  0.0038
  376MOL0     C49531   6.817   9.717   0.237 -0.8016  0.0190 -0.1833
  376MOL0     C49532   6.859   9.739   0.378 -0.0480  0.3217 -0.7083
  376MOL0     C49533   6.986   9.802   0.402 -0.5293 -0.2179 -0.1528
  376MOL0     C49534   7.057   9.861   0.296  0.3731  0.0427  0.1314
  376MOL0     O49535   7.176   9.914   0.328 -0.0613 -0.2993 -0.7797
  376MOL0     C49536   7.272   9.958   0.227  0.2094  0.2120  0.2464
  376MOL0     C49537   7.377  10.007   0.326  0.2495 -0.1975  0.0270
  376MOL0     C49538   7.503  10.069   0.259 -0.1956 -0.5252 -0.3800
  376MOL0     C49539   7.577  10.165   0.356  0.2027  0.2531 -0.1103
  376MOL0     C49540   7.677  10.263   0.291 -0.0966  0.3690  1.1686
  376MOL0     C49541   7.609  10.352   0.187 -0.3594 -0.5427  0.4232
  376MOL0     C49542   7.721  10.439   0.126 -0.4197 -0.1611 -0.6102
  376MOL0     C49543   7.670  10.531   0.018  0.2364  0.3300 -0.3623
  376MOL0    Cl49544   7.807  10.640  -0.031 -0.1980 -0.4605 -0.0314
  376MOL0     C49545   7.011   9.849   0.160  0.0460 -0.7053 -0.5287
  376MOL0     C49546   6.893   9.772   0.131  0.3494  0.0227 -0.1321
  376MOL0     O49547   6.831   9.449   0.252  0.2563  0.7577 -0.3859
  376MOL0     C49548   6.486   9.458   0.138 -0.6857  0.0664  0.9977
  376MOL0     C49549   6.389   9.363   0.117 -1.6128 -0.3340  0.3280
  376MOL0     N49550   6.311   8.610   0.453 -0.2835  1.6980 -0.2298
  376MOL0     N49551   6.292   8.532   0.554 -0.3177  0.3018 -0.2433
  376MOL0     C49552   5.743   9.619   0.604 -0.2043  0.1687  0.2991
  376MOL0     C49553   5.638   9.715   0.573 -0.1533  0.9477  0.7748
  376MOL0     C49554   5.317   9.958   0.428 -0.8807  0.7143 -0.2759
  376MOL0     C49555   5.326  10.079   0.355 -0.4134  0.7448 -0.3820
  376MOL0     C49556   5.230  10.174   0.355 -0.3280 -0.5574 -0.8558
  376MOL0     C49557   5.125  10.178   0.437  0.8303 -0.7473  0.0199
  376MOL0     O49558   5.052  10.294   0.441 -0.2097  0.1453  0.5392
  376MOL0     C49559   4.944  10.299   0.532 -0.5525 -0.2263  0.8632
  376MOL0     C49560   4.894  10.442   0.526 -0.9963 -0.2307 -0.4282
  376MOL0     C49561   4.801  10.487   0.408 -0.4345 -0.0624 -0.8042
  376MOL0     C49562   4.873  10.479   0.272  0.2046 -0.0851  0.0591
  376MOL0     C49563   4.836  10.590   0.193  0.9681  0.6574 -0.2050
  376MOL0     C49564   4.784  10.680   0.132 -0.7334  0.0335  0.8264
  376MOL0     C49565   5.117  10.067   0.530 -0.4995  1.2217 -1.3795
  376MOL0     C49566   5.213   9.960   0.523 -0.5975  0.0679  0.1107
  376MOL0     H49567   5.384   9.490   0.557 -0.9039  0.7834 -2.6142
  376MOL0     H49568   5.540   9.344   0.614 -0.5648  0.6933  2.5883
  376MOL0     H49569   5.760   9.225   0.536 -1.9616  2.6065 -0.6416
  376MOL0     H49570   5.712   9.236   0.706 -0.9096 -0.6858 -0.9000
  376MOL0     H49571   6.005   9.236   0.679 -1.2579  1.4860 -1.3676
  376MOL0     H49572   5.927   9.094   0.607  3.4068  2.3055 -1.7652
  376MOL0     H49573   5.794   9.058   0.822  1.2981 -2.5709  1.7231
  376MOL0     H49574   5.864   9.199   0.887  1.7964  1.6758 -1.9758
  376MOL0     H49575   6.092   9.079   0.840 -1.5281  3.1057  1.3906
  376MOL0     H49576   5.990   9.020   0.977 -1.0053  0.7985  0.2776
  376MOL0     H49577   5.998   8.904   0.698  0.8507  1.0595 -0.0517
  376MOL0     H49578   5.912   8.833   0.825 -0.7230  1.8665 -0.3569
  376MOL0     H49579   6.154   8.841   0.956 -0.6891  0.5566  0.0669
  376MOL0     H49580   6.196   8.876   0.788  0.4673  0.1893  2.0585
  376MOL0     H49581   6.082   8.614   0.908 -2.8688  2.1039 -0.4840
  376MOL0     H49582   6.049   8.656   0.737 -3.6019 -0.5571  2.9306
  376MOL0     H49583   6.221   8.488   0.816 -4.1260  1.7473  3.4902
  376MOL0     H49584   6.325   8.608   0.870  1.8159  2.6291 -2.2048
  376MOL0     H49585   6.388   8.812   0.694 -0.1156  0.9411 -1.5435
  376MOL0     H49586   6.423   8.800   0.317  2.5019 -2.0205  2.5844
  376MOL0     H49587   6.464   8.907   0.454  0.3829  1.2381  0.4032
  376MOL0     H49588   6.247   8.979   0.482  2.1080 -0.4375  1.3836
  376MOL0     H49589   6.172   8.881   0.356 -0.2125  0.2679  1.0056
  376MOL0     H49590   6.217   9.121   0.311  1.6402  1.3599  1.0391
  376MOL0     H49591   6.394   9.086   0.305 -0.3411  1.5501 -1.1381
  376MOL0     H49592   6.204   8.961   0.116 -0.6858  0.4632  2.7218
  376MOL0     H49593   6.381   8.960   0.107  1.8689  1.6614  2.7972
  376MOL0     H49594   6.559   9.090   0.041 -2.4455 -0.4170 -0.1350
  376MOL0     H49595   6.752   9.244   0.097 -0.3710  0.7396  1.2242
  376MOL0     H49596   6.801   9.680   0.448 -2.7914  0.4134 -2.7305
  376MOL0     H49597   7.026   9.811   0.502 -2.0593 -0.5065  0.5051
  376MOL0     H49598   7.238  10.038   0.160  2.2161  1.2278  0.3658
  376MOL0     H49599   7.311   9.866   0.182 -0.9410 -1.9731  3.3743
  376MOL0     H49600   7.411   9.925   0.390 -0.6245 -2.4302 -2.2247
  376MOL0     H49601   7.330  10.078   0.395  0.8508 -0.8866  1.1816
  376MOL0     H49602   7.472  10.104   0.161 -2.2820 -1.3882 -0.0828
  376MOL0     H49603   7.571   9.985   0.243  1.2018  0.3332  0.7642
  376MOL0     H49604   7.510  10.237   0.404 -1.0220 -0.4288 -0.7364
  376MOL0     H49605   7.622  10.101   0.433  1.0190 -2.9018 -2.9554
  376MOL0     H49606   7.748  10.194   0.246 -0.9864 -0.2973  0.7433
  376MOL0     H49607   7.738  10.310   0.368  1.1846 -0.8031  0.8948
  376MOL0     H49608   7.535  10.422   0.226  1.4221  3.5845 -2.8901
  376MOL0     H49609   7.572  10.289   0.105  2.1388 -0.1152 -1.1251
  376MOL0     H49610   7.753  10.495   0.214 -0.9898 -3.2813  1.7682
  376MOL0     H49611   7.803  10.375   0.091  0.4445  1.7468 -2.2428
  376MOL0     H49612   7.585  10.588   0.058 -1.1880 -0.9130 -1.4675
  376MOL0     H49613   7.638  10.468  -0.065 -3.6757 -1.0835  1.9363
  376MOL0     H49614   7.074   9.872   0.074  2.4480 -2.9980  0.4997
  376MOL0     H49615   6.859   9.753   0.029 -0.2684  1.8701 -0.2958
  376MOL0     H49616   6.474   9.561   0.169  5.0147  0.5146  2.8901
  376MOL0     H49617   6.292   9.408   0.134 -1.3838 -0.5652  2.6870
  376MOL0     H49618   5.843   9.657   0.622  0.3427 -1.2023  0.3269
  376MOL0     H49619   5.666   9.820   0.576 -1.7646  1.5019 -0.9382
  376MOL0     H49620   5.411  10.099   0.290 -0.6624 -0.8525 -1.2326
  376MOL0     H49621   5.239  10.249   0.277 -2.3041 -1.6923 -2.2486
  376MOL0     H49622   4.979  10.267   0.631 -0.0468  0.4201  0.8982
  376MOL0     H49623   4.869  10.237   0.482  1.3551 -0.9325 -1.3031
  376MOL0     H49624   4.845  10.461   0.622  1.5763 -0.9847  1.1638
  376MOL0     H49625   4.986  10.501   0.522 -2.2970  1.9982  0.6967
  376MOL0     H49626   4.782  10.593   0.427  0.9042  0.3841 -1.7630
  376MOL0     H49627   4.710  10.428   0.420  1.0749 -2.2933  0.2302
  376MOL0     H49628   4.982  10.491   0.282  0.1620  1.0701 -0.5964
  376MOL0     H49629   4.856  10.381   0.228  1.7065 -1.1159  1.6233
  376MOL0     H49630   4.751  10.773   0.090 -0.5820  1.6243  3.9182
  376MOL0     H49631   5.041  10.055   0.608 -1.8810  2.0743 -2.5427
  376MOL0     H49632   5.215   9.887   0.604 -0.2125 -1.8858 -1.5783
  377MOL0     O49633  10.774   3.470   4.539  0.1756 -0.2131  0.5445
  377MOL0     C49634  10.685   3.534   4.600 -0.5036  0.0284 -0.6243
  377MOL0     O49635  10.718   3.634   4.683  0.5533 -0.0422 -0.0170
  377MOL0     C49636  10.848   3.658   4.723 -0.6581  0.7632 -0.0774
  377MOL0     C49637  10.936   3.718   4.635 -0.4420 -0.5492  0.5623
  377MOL0     C49638  11.072   3.732   4.663 -0.0005 -0.5029 -0.3029
  377MOL0     C49639  11.118   3.690   4.792  0.4157 -0.4361 -0.3921
  377MOL0     O49640  11.247   3.707   4.820  0.7375  0.1028 -0.5412
  377MOL0     C49641  11.343   3.644   4.739 -0.0437  0.0157  0.4233
  377MOL0     C49642  11.467   3.665   4.829  0.3069 -0.7065  1.0065
  377MOL0     C49643  11.596   3.595   4.796 -0.6393  0.0695  0.1510
  377MOL0     C49644  11.590   3.450   4.826 -0.8024 -0.5181  0.5865
  377MOL0     C49645  11.718   3.377   4.822 -0.2834 -0.6051  0.3985
  377MOL0     C49646  11.792   3.375   4.958 -0.4449 -0.1048 -0.4058
  377MOL0     C49647  11.947   3.332   4.942  0.0954  0.1748 -0.3160
  377MOL0     C49648  11.976   3.189   4.917  1.1211 -0.1119  0.3246
  377MOL0     N49649  11.945   3.106   5.030  0.8214  0.9035  1.0314
  377MOL0     C49650  12.010   3.107   5.140  0.1728  0.0142  0.5683
  377MOL0     C49651  11.949   3.025   5.229  0.2781  0.0479 -0.4467
  377MOL0     C49652  11.983   2.987   5.371  1.2133  0.1191 -0.0161
  377MOL0     C49653  11.870   3.053   5.461 -0.0151  0.1066 -1.4717
  377MOL0     C49654  11.850   3.201   5.442 -0.5776  0.4863 -0.7013
  377MOL0     C49655  11.978   3.283   5.459  0.0348 -0.7581  0.0645
  377MOL0     O49656  12.025   3.277   5.595 -0.0010  1.4890  0.4409
  377MOL0     C49657  12.115   3.374   5.628 -0.3770  0.5794  0.8019
  377MOL0     C49658  12.246   3.366   5.579  0.2371  0.5358  0.0703
  377MOL0     C49659  12.338   3.462   5.612  0.6159 -1.0807  0.7591
  377MOL0     C49660  12.294   3.575   5.694  0.6359 -0.9908  0.5375
  377MOL0     C49661  12.388   3.677   5.724  0.5527 -0.9336  0.0782
  377MOL0     O49662  12.502   3.668   5.655  0.7334  0.6004  0.9434
  377MOL0     C49663  12.601   3.739   5.685 -1.8985  0.1367  1.8012
  377MOL0     C49664  12.655   3.752   5.811  0.6206  0.5740 -0.3561
  377MOL0     C49665  12.775   3.815   5.838 -0.0343 -0.7742 -0.7582
  377MOL0     C49666  12.855   3.871   5.737  0.4123 -0.2123  0.0674
  377MOL0     O49667  12.974   3.936   5.782 -0.3380  0.6429  0.8629
  377MOL0     C49668  13.027   4.034   5.695 -0.5330 -0.0327  0.2255
  377MOL0     C49669  13.033   4.173   5.771 -0.0426  0.8325  0.1125
  377MOL0     C49670  13.087   4.270   5.665 -0.1053  1.5814 -0.3743
  377MOL0     C49671  13.112   4.407   5.736 -0.0367 -1.2022  0.2653
  377MOL0     C49672  13.143   4.520   5.632  0.6057 -0.1263 -0.0724
  377MOL0     C49673  13.015   4.552   5.555 -0.0392  0.5827 -0.3407
  377MOL0     C49674  13.038   4.693   5.489  0.0557  0.0954 -0.1970
  377MOL0     C49675  12.913   4.743   5.419  0.1235 -0.0585 -0.0400
  377MOL0    Cl49676  12.879   4.651   5.272 -0.6856 -0.6852  0.8026
  377MOL0     C49677  12.803   3.864   5.604  0.2045  0.3781  0.8796
  377MOL0     C49678  12.682   3.790   5.580 -0.1087 -0.0748  0.1715
  377MOL0     O49679  12.358   3.764   5.817 -0.8865  1.3278 -0.3604
  377MOL0     C49680  12.165   3.576   5.752  0.4213  0.4541  0.0021
  377MOL0     C49681  12.074   3.475   5.710 -0.3700 -1.0187 -0.7096
  377MOL0     N49682  11.835   2.985   5.170  0.8256  0.0069  0.3131
  377MOL0     N49683  11.840   3.024   5.048 -0.1033  0.3077  0.5899
  377MOL0     C49684  11.025   3.634   4.889  0.4665 -0.2247  0.8557
  377MOL0     C49685  10.897   3.607   4.845  1.0623  0.1137  0.0077
  377MOL0     C49686  10.545   3.495   4.608  0.2139 -0.1398  0.4679
  377MOL0     C49687  10.457   3.574   4.685 -0.5082  0.0016  0.0221
  377MOL0     C49688  10.332   3.529   4.718  0.0136  0.1154  0.3226
  377MOL0     C49689  10.287   3.427   4.635  1.0934 -0.0853 -1.1561
  377MOL0     O49690  10.154   3.399   4.665 -0.4311  0.9979  0.1823
  377MOL0     C49691  10.073   3.335   4.567  0.9898  0.3940 -0.6270
  377MOL0     C49692   9.949   3.267   4.639  0.4817 -0.8651  0.1295
  377MOL0     C49693   9.997   3.162   4.741  0.0631 -0.8431  1.0477
  377MOL0     C49694   9.888   3.107   4.830  0.2354 -0.2913  0.8898
  377MOL0     C49695   9.798   3.021   4.744 -0.1601  0.5525 -0.1725
  377MOL0     C49696   9.727   2.955   4.672  0.6480 -0.8448 -0.1596
  377MOL0     C49697  10.375   3.350   4.554 -0.0298  0.0068  0.4928
  377MOL0     C49698  10.497   3.386   4.535 -0.2174 -0.1887  0.0791
  377MOL0     H49699  10.872   3.741   4.551  0.4239  1.4614  0.3995
  377MOL0     H49700  11.135   3.772   4.584 -0.3347  0.4467 -0.0931
  377MOL0     H49701  11.358   3.704   4.649  0.2559 -2.1275 -1.0039
  377MOL0     H49702  11.324   3.538   4.721 -0.5106 -1.1618  6.0425
  377MOL0     H49703  11.434   3.640   4.930  1.0615  2.6121  2.1707
  377MOL0     H49704  11.490   3.771   4.820 -1.7970 -0.3799 -2.1580
  377MOL0     H49705  11.684   3.621   4.856 -1.1456  1.8507  0.1786
  377MOL0     H49706  11.623   3.605   4.690  0.0248  0.3108  0.3335
  377MOL0     H49707  11.555   3.444   4.929 -0.9183  1.2779  0.6747
  377MOL0     H49708  11.518   3.398   4.762 -0.7178 -0.3543  0.3571
  377MOL0     H49709  11.783   3.411   4.742  4.1596 -1.8025  3.1496
  377MOL0     H49710  11.690   3.274   4.800  0.5579 -1.5122  3.1176
  377MOL0     H49711  11.732   3.316   5.028 -1.3217 -0.8191 -1.7105
  377MOL0     H49712  11.792   3.477   4.996 -3.7086 -0.3327  0.5053
  377MOL0     H49713  11.989   3.407   4.875 -2.4405  1.1667 -0.8746
  377MOL0     H49714  12.012   3.342   5.030  1.0009  0.4427 -0.9992
  377MOL0     H49715  12.083   3.176   4.895  0.5236 -1.1088 -2.4291
  377MOL0     H49716  11.927   3.161   4.823 -1.6175  0.4983  1.4826
  377MOL0     H49717  12.102   3.164   5.153  0.9077 -1.1876  0.7386
  377MOL0     H49718  12.079   3.035   5.389  1.4933  0.1854 -1.5884
  377MOL0     H49719  11.985   2.878   5.386  0.4211  0.0494 -0.3502
  377MOL0     H49720  11.905   3.035   5.563 -1.1070 -0.8425 -1.2427
  377MOL0     H49721  11.773   3.002   5.454 -0.7007  1.5138 -3.4475
  377MOL0     H49722  11.801   3.213   5.345 -0.2517  0.8261 -0.8246
  377MOL0     H49723  11.771   3.240   5.507 -2.6742 -0.9604 -2.2167
  377MOL0     H49724  11.951   3.388   5.444 -3.1082 -1.5448 -0.5150
  377MOL0     H49725  12.050   3.244   5.387 -0.2303  1.0932 -1.2940
  377MOL0     H49726  12.260   3.286   5.507  1.3056 -0.4021  1.2677
  377MOL0     H49727  12.438   3.449   5.572  1.5912  2.6441  1.6099
  377MOL0     H49728  12.603   3.714   5.899 -1.5089  4.8648  0.4919
  377MOL0     H49729  12.806   3.830   5.940 -1.7113  1.7482 -0.5297
  377MOL0     H49730  12.961   4.067   5.613  0.8114  2.8535  0.1931
  377MOL0     H49731  13.123   3.992   5.664 -0.2944  0.2265  0.6189
  377MOL0     H49732  13.094   4.163   5.862  1.5266 -0.9961 -1.0656
  377MOL0     H49733  12.930   4.195   5.801  0.1156 -1.9605  3.4559
  377MOL0     H49734  13.016   4.276   5.581 -1.9470 -0.2598  0.9371
  377MOL0     H49735  13.178   4.221   5.629 -0.0106 -0.5233  2.4095
  377MOL0     H49736  13.022   4.432   5.793  0.1384  3.3729 -1.0395
  377MOL0     H49737  13.203   4.416   5.796  0.3724 -0.2015 -0.4712
  377MOL0     H49738  13.219   4.497   5.557  0.3998  0.6870 -0.5363
  377MOL0     H49739  13.175   4.607   5.690 -3.7882  1.0551  1.0077
  377MOL0     H49740  12.924   4.570   5.613 -2.8172 -1.3455 -3.6649
  377MOL0     H49741  13.008   4.474   5.479  2.3442  2.2825 -2.4942
  377MOL0     H49742  13.085   4.755   5.567  2.7095  1.7993 -2.9064
  377MOL0     H49743  13.126   4.694   5.423  0.1083 -0.2145 -0.1318
  377MOL0     H49744  12.933   4.847   5.390 -0.4838  0.1772  0.3662
  377MOL0     H49745  12.825   4.748   5.483  1.5425  1.7901  1.9219
  377MOL0     H49746  12.857   3.901   5.517  0.2010 -1.4646  0.0317
  377MOL0     H49747  12.646   3.779   5.478  1.8615 -2.7000 -0.3484
  377MOL0     H49748  12.135   3.657   5.818 -2.6214  1.8994 -2.8612
  377MOL0     H49749  11.983   3.476   5.769  0.8748 -1.8279  1.3363
  377MOL0     H49750  11.048   3.606   4.991 -3.2941 -2.5940  1.2381
  377MOL0     H49751  10.826   3.556   4.909  1.2595  0.4654  0.5182
  377MOL0     H49752  10.494   3.666   4.730 -3.1025  0.3490  1.6479
  377MOL0     H49753  10.270   3.573   4.795  0.3319 -2.1431  1.9456
  377MOL0     H49754  10.130   3.265   4.506  1.4718  0.0288  0.2196
  377MOL0     H49755  10.037   3.418   4.506 -2.5639 -3.2969 -4.1867
  377MOL0     H49756   9.905   3.360   4.675  0.5494 -0.4468 -0.8211
  377MOL0     H49757   9.876   3.221   4.572 -0.6174  2.0958 -0.9021
  377MOL0     H49758  10.072   3.220   4.796  0.1862  1.8890 -1.6921
  377MOL0     H49759  10.037   3.071   4.697 -0.6025 -1.3987  1.5745
  377MOL0     H49760   9.929   3.033   4.899  0.5628 -1.0831 -0.1134
  377MOL0     H49761   9.834   3.184   4.886  2.4028  1.2517  0.9938
  377MOL0     H49762   9.651   2.901   4.619 -0.6491  2.9773 -2.7004
  377MOL0     H49763  10.339   3.257   4.511  1.1139 -1.0893  1.8072
  377MOL0     H49764  10.555   3.320   4.470 -0.6432 -0.5411  0.0525
  378MOL0     O49765   2.664   1.082   8.017  0.1170 -0.1683 -0.0223
  378MOL0     C49766   2.783   1.128   8.023 -0.6445 -0.5056 -0.2055
  378MOL0     O49767   2.814   1.250   8.070 -0.5670  0.4927  0.2134
  378MOL0     C49768   2.889   1.331   7.986  0.3402 -0.7002 -1.1757
  378MOL0     C49769   2.977   1.416   8.054 -0.1588 -0.4861 -0.0618
  378MOL0     C49770   3.047   1.513   7.979  0.8903  0.3224 -0.9444
  378MOL0     C49771   3.017   1.541   7.845  0.8782 -1.3483 -0.6350
  378MOL0     O49772   3.092   1.640   7.788 -0.9743  0.1810 -0.4891
  378MOL0     C49773   3.122   1.625   7.653 -0.5715  0.3767 -0.5217
  378MOL0     C49774   3.259   1.692   7.635 -0.5382 -1.0536  0.0871
  378MOL0     C49775   3.317   1.674   7.504  0.8799  0.4555  0.4080
  378MOL0     C49776   3.387   1.534   7.496  0.2112 -0.2984 -1.3140
  378MOL0     C49777   3.441   1.513   7.349  0.3729  0.0450 -1.1034
  378MOL0     C49778   3.449   1.367   7.296  0.2799  0.2027  0.0927
  378MOL0     C49779   3.493   1.374   7.146 -0.2173  0.1131 -0.0038
  378MOL0     C49780   3.459   1.237   7.086 -0.0494 -0.4485  0.5528
  378MOL0     N49781   3.485   1.258   6.938 -0.0827 -0.3013 -0.2321
  378MOL0     C49782   3.396   1.300   6.846  0.8827 -0.3638  0.0117
  378MOL0     C49783   3.466   1.328   6.740 -0.3303 -0.3257  0.0976
  378MOL0     C49784   3.423   1.385   6.604  0.6068 -0.1813  0.6678
  378MOL0     C49785   3.288   1.324   6.555  0.0476  0.1711 -0.8386
  378MOL0     C49786   3.242   1.356   6.415  1.0699  0.1168 -0.1153
  378MOL0     C49787   3.237   1.499   6.379  0.7625 -0.0579  1.5623
  378MOL0     O49788   3.173   1.519   6.250  0.5989  0.1166 -0.9124
  378MOL0     C49789   3.189   1.633   6.176  0.0054  0.0428  0.4430
  378MOL0     C49790   3.155   1.628   6.037 -0.0704  0.6889  0.8570
  378MOL0     C49791   3.169   1.733   5.950 -0.2815  0.3273  0.3153
  378MOL0     C49792   3.229   1.854   5.996  0.3675  0.4841 -0.1259
  378MOL0     C49793   3.246   1.973   5.912  0.1367  0.0504  0.8521
  378MOL0     O49794   3.313   2.087   5.967 -0.8831  0.1147 -0.8069
  378MOL0     C49795   3.360   2.194   5.882  0.7639  0.2539 -0.1985
  378MOL0     C49796   3.352   2.321   5.928  0.0423 -0.2087 -0.6608
  378MOL0     C49797   3.388   2.437   5.861 -0.9145  0.6446  0.5740
  378MOL0     C49798   3.441   2.424   5.733 -0.2321  0.2386  0.0097
  378MOL0     O49799   3.476   2.521   5.642 -0.1523  0.0901  0.2076
  378MOL0     C49800   3.440   2.660   5.678 -0.7784  1.0370 -0.2492
  378MOL0     C49801   3.504   2.760   5.580 -0.1516  0.2145 -0.3903
  378MOL0     C49802   3.486   2.904   5.613  0.2346 -1.1351 -0.6075
  378MOL0     C49803   3.554   2.948   5.743 -0.6512 -0.2519 -0.0791
  378MOL0     C49804   3.688   2.895   5.765  0.0174  0.3505 -0.3146
  378MOL0     C49805   3.756   2.966   5.876  0.1304  0.3577 -0.4843
  378MOL0     C49806   3.828   3.098   5.842  0.0032  0.6525 -0.4877
  378MOL0     C49807   3.911   3.145   5.968  0.1854  0.2165 -0.1859
  378MOL0    Cl49808   4.055   3.226   5.906  0.4259  0.0136  0.0947
  378MOL0     C49809   3.451   2.292   5.682 -0.0862  0.3134  0.4990
  378MOL0     C49810   3.410   2.178   5.756  0.2089  0.1428  1.7563
  378MOL0     O49811   3.205   1.968   5.792  0.1347  0.0748 -0.5349
  378MOL0     C49812   3.277   1.856   6.126 -0.1149  1.2395  0.2250
  378MOL0     C49813   3.245   1.751   6.222  0.2451  0.1221  1.0642
  378MOL0     N49814   3.597   1.306   6.763  0.1437  0.7671  0.0314
  378MOL0     N49815   3.606   1.270   6.884 -0.2297  0.3073 -0.1752
  378MOL0     C49816   2.919   1.466   7.785 -0.7792  0.1878  0.6270
  378MOL0     C49817   2.864   1.357   7.846 -0.6620 -0.3980 -0.6925
  378MOL0     C49818   2.890   1.037   7.989  0.0440 -0.6740 -0.3482
  378MOL0     C49819   2.867   0.909   7.933 -0.1383  0.1007  0.6094
  378MOL0     C49820   2.970   0.803   7.921  0.8501 -0.2828  0.1109
  378MOL0     C49821   3.108   0.844   7.932  0.0653  0.6529  0.0536
  378MOL0     O49822   3.216   0.780   7.890 -0.1383  0.5695  0.0931
  378MOL0     C49823   3.199   0.634   7.857 -0.7745 -0.4124  0.5028
  378MOL0     C49824   3.334   0.564   7.836 -0.0985  0.5442 -0.3074
  378MOL0     C49825   3.419   0.534   7.965  0.4651 -0.1670  0.2901
  378MOL0     C49826   3.529   0.428   7.950 -0.6767  0.2451 -0.8669
  378MOL0     C49827   3.468   0.294   7.937  0.0007 -0.6652 -0.2230
  378MOL0     C49828   3.409   0.183   7.933 -1.1057 -0.4857  0.3739
  378MOL0     C49829   3.122   0.976   7.979 -0.1512  0.3921 -0.1435
  378MOL0     C49830   3.022   1.066   8.016  0.2643  0.3021  0.5717
  378MOL0     H49831   2.989   1.398   8.160 -2.3710  0.0806  0.3358
  378MOL0     H49832   3.116   1.584   8.023 -1.2485  3.9164 -2.9308
  378MOL0     H49833   3.040   1.683   7.609 -1.0712 -0.1297 -0.2778
  378MOL0     H49834   3.117   1.525   7.609  1.3787 -1.1995  2.4705
  378MOL0     H49835   3.324   1.649   7.712 -0.9128 -1.2018  0.3301
  378MOL0     H49836   3.257   1.798   7.662  1.0290 -1.0458  0.2724
  378MOL0     H49837   3.393   1.752   7.485  1.3598 -0.6077 -2.5901
  378MOL0     H49838   3.237   1.672   7.430 -1.4065 -2.0434  2.7514
  378MOL0     H49839   3.476   1.528   7.559  1.5450  5.5206 -2.1299
  378MOL0     H49840   3.313   1.458   7.523  0.7376 -0.6747 -0.9046
  378MOL0     H49841   3.544   1.549   7.342  0.5730  0.2990  1.9709
  378MOL0     H49842   3.379   1.576   7.285  1.0257  2.9433  0.9295
  378MOL0     H49843   3.344   1.337   7.302 -0.9995  4.0262 -0.2159
  378MOL0     H49844   3.509   1.302   7.361  0.2344  0.3435  0.2784
  378MOL0     H49845   3.447   1.457   7.092  1.0339  3.0917  3.1527
  378MOL0     H49846   3.601   1.383   7.133  0.5647 -5.0463  0.5662
  378MOL0     H49847   3.356   1.207   7.106 -0.0513 -2.5599 -2.0558
  378MOL0     H49848   3.527   1.163   7.129  1.7437  0.6996 -0.1865
  378MOL0     H49849   3.289   1.311   6.860  0.4857 -1.9949 -1.4485
  378MOL0     H49850   3.492   1.358   6.525 -0.2699  3.8498 -1.7939
  378MOL0     H49851   3.418   1.494   6.612 -0.9191 -0.1124 -0.6630
  378MOL0     H49852   3.204   1.333   6.625 -0.6429 -0.3448 -1.5679
  378MOL0     H49853   3.304   1.216   6.548  3.5004  0.4566  0.6548
  378MOL0     H49854   3.307   1.304   6.344  0.0234  0.5687 -1.4490
  378MOL0     H49855   3.142   1.317   6.391  1.9202 -3.0704  0.9555
  378MOL0     H49856   3.341   1.535   6.373  1.2829 -1.8154 -1.6264
  378MOL0     H49857   3.179   1.548   6.458  4.9539  0.4720  4.7350
  378MOL0     H49858   3.125   1.530   6.002  3.7617 -0.0805 -0.7138
  378MOL0     H49859   3.133   1.736   5.848  0.0915 -1.2885  0.1073
  378MOL0     H49860   3.313   2.331   6.028  0.5535 -2.1643 -0.2213
  378MOL0     H49861   3.371   2.534   5.907 -0.7438  1.0352 -0.1744
  378MOL0     H49862   3.482   2.670   5.779 -2.8635 -1.4996  0.9990
  378MOL0     H49863   3.332   2.674   5.687 -1.2870 -0.6813 -2.6917
  378MOL0     H49864   3.456   2.730   5.487 -2.2765 -0.1797  0.7631
  378MOL0     H49865   3.609   2.733   5.581 -0.1002  0.4197  0.5037
  378MOL0     H49866   3.384   2.943   5.615  0.5643 -0.1716 -1.3152
  378MOL0     H49867   3.524   2.959   5.526 -1.6635  0.2596 -0.6294
  378MOL0     H49868   3.551   3.057   5.748 -2.0579 -0.2478 -0.5917
  378MOL0     H49869   3.492   2.915   5.827 -1.6574  0.1197 -0.6471
  378MOL0     H49870   3.756   2.914   5.681 -0.2735  3.1312 -0.0214
  378MOL0     H49871   3.692   2.787   5.785  0.5981  0.0266 -2.0054
  378MOL0     H49872   3.832   2.898   5.916 -1.8779 -1.6074  0.1965
  378MOL0     H49873   3.681   2.982   5.954  0.2654 -2.3291  0.3283
  378MOL0     H49874   3.892   3.079   5.756  2.3155 -0.4217  1.3300
  378MOL0     H49875   3.754   3.177   5.829 -3.2261 -1.5669  2.4361
  378MOL0     H49876   3.956   3.078   6.041  3.2451  0.2438 -1.8723
  378MOL0     H49877   3.850   3.202   6.039  1.1900  0.4582  0.5032
  378MOL0     H49878   3.480   2.283   5.578  2.3936  0.8524  1.0753
  378MOL0     H49879   3.414   2.083   5.702  1.3779  1.4512 -0.6003
  378MOL0     H49880   3.341   1.935   6.164  0.2640 -0.3847  3.3237
  378MOL0     H49881   3.280   1.763   6.324  1.1416 -1.0263  0.9227
  378MOL0     H49882   2.884   1.484   7.684  0.4649 -0.4501  0.0583
  378MOL0     H49883   2.795   1.297   7.788 -1.2545  3.6186 -4.6923
  378MOL0     H49884   2.765   0.883   7.905 -0.6832  2.1619  0.5412
  378MOL0     H49885   2.956   0.705   7.877  5.2160 -1.1588  0.1807
  378MOL0     H49886   3.161   0.652   7.756 -1.6772 -0.8872  0.7522
  378MOL0     H49887   3.133   0.585   7.929 -0.9559  2.0825  2.1387
  378MOL0     H49888   3.334   0.480   7.766  3.1549 -1.3383  1.6992
  378MOL0     H49889   3.394   0.636   7.781  0.7850  1.2254  1.4723
  378MOL0     H49890   3.357   0.523   8.055 -2.4476  0.9041 -1.4177
  378MOL0     H49891   3.467   0.631   7.979  1.0686 -0.2543 -1.0684
  378MOL0     H49892   3.598   0.455   7.870 -1.6402  1.1041 -1.4300
  378MOL0     H49893   3.582   0.428   8.046  3.1073 -0.9124 -2.7829
  378MOL0     H49894   3.363   0.089   7.913 -4.1865  0.9740  0.0956
  378MOL0     H49895   3.216   1.031   7.978 -0.0929  0.3114 -1.8716
  378MOL0     H49896   3.053   1.153   8.074  1.3403  0.6908 -0.5532
  379MOL0     O49897   6.892   8.625  10.194  0.8950 -0.0301  0.3652
  379MOL0     C49898   6.905   8.731  10.245  0.9307 -0.4706  0.1496
  379MOL0     O49899   6.845   8.845  10.203  0.6974  0.3346  1.0649
  379MOL0     C49900   6.780   8.844  10.082 -0.0707  0.0196 -0.5123
  379MOL0     C49901   6.647   8.799  10.060  0.5469  0.8448 -0.7559
  379MOL0     C49902   6.587   8.803   9.935 -0.2551  1.6365  0.0210
  379MOL0     C49903   6.664   8.833   9.819 -0.1729 -0.0706 -0.4593
  379MOL0     O49904   6.639   8.794   9.691  0.8401 -0.0590 -0.0675
  379MOL0     C49905   6.513   8.742   9.652  0.6039 -0.4482  0.3469
  379MOL0     C49906   6.503   8.739   9.502  0.5918  0.1127  0.5683
  379MOL0     C49907   6.568   8.618   9.439  0.2704 -0.3725 -0.4507
  379MOL0     C49908   6.524   8.588   9.289 -0.1399 -0.0567  0.7257
  379MOL0     C49909   6.611   8.479   9.226 -0.4557  0.3602 -0.1375
  379MOL0     C49910   6.584   8.472   9.076  0.4278  1.3637 -0.4666
  379MOL0     C49911   6.444   8.428   9.026 -1.4487 -0.2357 -0.8185
  379MOL0     C49912   6.429   8.273   9.054 -0.9167 -0.3496  0.0975
  379MOL0     N49913   6.426   8.198   8.936 -0.5322 -0.6219  0.7985
  379MOL0     C49914   6.537   8.188   8.859 -1.0481 -0.0762  0.1276
  379MOL0     C49915   6.496   8.118   8.746  0.2105 -0.3423  0.2614
  379MOL0     C49916   6.576   8.069   8.635 -0.4465 -0.5433  1.4912
  379MOL0     C49917   6.619   8.170   8.523 -0.1758 -0.1594 -0.2530
  379MOL0     C49918   6.730   8.267   8.571 -0.5230 -0.2450  0.0184
  379MOL0     C49919   6.854   8.190   8.623  0.3540 -0.4616  1.0068
  379MOL0     O49920   6.964   8.279   8.626  0.6769  0.5584 -0.1496
  379MOL0     C49921   6.988   8.338   8.750 -0.3037  0.3838 -0.0452
  379MOL0     C49922   6.921   8.453   8.800  0.1857  0.6199  0.1637
  379MOL0     C49923   6.936   8.489   8.945 -0.0759  0.7062 -0.3393
  379MOL0     C49924   7.016   8.403   9.031  0.3813 -0.3295 -0.8060
  379MOL0     C49925   7.033   8.448   9.171 -0.3639  0.4673 -0.2247
  379MOL0     O49926   7.026   8.576   9.199 -0.3837 -0.8912 -1.1768
  379MOL0     C49927   7.042   8.609   9.331  0.2089 -0.8386 -1.0625
  379MOL0     C49928   7.156   8.595   9.398 -0.0846  0.5104  0.5394
  379MOL0     C49929   7.181   8.643   9.528 -0.1799 -0.4630  0.7188
  379MOL0     C49930   7.071   8.699   9.592  0.4556  0.4756 -0.3253
  379MOL0     O49931   7.093   8.769   9.707  1.4812 -0.0943  0.8984
  379MOL0     C49932   7.060   8.686   9.819 -0.8691 -1.0019 -0.5313
  379MOL0     C49933   7.160   8.580   9.854  0.4216  0.7355 -0.3592
  379MOL0     C49934   7.136   8.537  10.002 -0.1332  0.3278  0.1526
  379MOL0     C49935   7.215   8.413  10.055 -0.3955  0.0765  0.7140
  379MOL0     C49936   7.213   8.406  10.206  0.1751 -0.8817 -0.4686
  379MOL0     C49937   7.108   8.308  10.243 -0.8577  0.4858 -0.1795
  379MOL0     C49938   7.151   8.223  10.368  0.7305 -0.1863  0.6739
  379MOL0     C49939   7.142   8.314  10.494 -0.3353  0.1447  0.1615
  379MOL0    Cl49940   6.980   8.317  10.565 -0.3517  0.1194 -0.0119
  379MOL0     C49941   6.945   8.713   9.525  0.1067 -0.7333 -0.2908
  379MOL0     C49942   6.931   8.679   9.391 -0.1032  0.3874 -0.2225
  379MOL0     O49943   7.046   8.351   9.249 -0.0404 -0.0313  0.1513
  379MOL0     C49944   7.062   8.282   8.978  0.6231 -0.2360  0.4268
  379MOL0     C49945   7.056   8.255   8.839 -0.8151  0.5918  0.0275
  379MOL0     N49946   6.359   8.093   8.765  0.2648  0.9396  0.6926
  379MOL0     N49947   6.319   8.143   8.873 -0.7059 -0.3885  0.7491
  379MOL0     C49948   6.797   8.875   9.835 -0.5746 -0.3216 -0.4492
  379MOL0     C49949   6.845   8.898   9.970  0.2170  0.4170  0.2041
  379MOL0     C49950   6.964   8.747  10.374 -0.1297 -0.5807 -0.2289
  379MOL0     C49951   7.007   8.876  10.413  0.2303 -0.0651  0.4880
  379MOL0     C49952   7.063   8.892  10.541 -0.1572  0.1724  0.6974
  379MOL0     C49953   7.061   8.791  10.634 -0.6668  1.4669 -0.1050
  379MOL0     O49954   7.120   8.810  10.762 -0.0381  0.1298 -0.2522
  379MOL0     C49955   7.026   8.789  10.871 -0.5572  0.7314 -1.2581
  379MOL0     C49956   7.063   8.658  10.953  0.1791  0.0406  0.5612
  379MOL0     C49957   7.162   8.684  11.065  0.5955 -1.3185 -0.3821
  379MOL0     C49958   7.080   8.722  11.187 -0.1456 -0.5343  0.1113
  379MOL0     C49959   7.169   8.748  11.299 -0.3697 -0.0664 -0.6423
  379MOL0     C49960   7.265   8.760  11.377 -0.5127  0.6131 -0.3917
  379MOL0     C49961   7.019   8.668  10.591  0.3564 -0.4798 -0.5486
  379MOL0     C49962   6.966   8.640  10.467 -1.0662 -0.4297 -0.0701
  379MOL0     H49963   6.577   8.763  10.134 -0.6502  0.0173 -2.2248
  379MOL0     H49964   6.485   8.767   9.923  0.3379  0.0382 -0.5463
  379MOL0     H49965   6.429   8.799   9.693  0.0300 -0.5117 -0.7109
  379MOL0     H49966   6.494   8.639   9.681 -2.1095 -0.5485 -1.4079
  379MOL0     H49967   6.539   8.829   9.451  3.1436 -0.9760  0.2896
  379MOL0     H49968   6.400   8.751   9.468  0.5137 -1.3419  0.2289
  379MOL0     H49969   6.538   8.529   9.496 -2.1526  1.3671  1.1869
  379MOL0     H49970   6.673   8.637   9.464 -0.2040  0.0609  1.4269
  379MOL0     H49971   6.419   8.557   9.289  0.0696 -0.7937 -0.1395
  379MOL0     H49972   6.539   8.678   9.228 -1.8690  0.4587  1.0066
  379MOL0     H49973   6.579   8.388   9.278 -2.9503  2.2863  1.9836
  379MOL0     H49974   6.716   8.499   9.248 -0.4618 -0.6052  0.8809
  379MOL0     H49975   6.646   8.399   9.024 -1.3436  0.3321 -1.2315
  379MOL0     H49976   6.602   8.570   9.032 -0.2115  1.4195 -0.6144
  379MOL0     H49977   6.359   8.481   9.071 -0.4524  1.4544 -0.8434
  379MOL0     H49978   6.437   8.449   8.919  0.3907 -4.8982 -2.0953
  379MOL0     H49979   6.334   8.251   9.104  0.2276 -1.1423  2.0106
  379MOL0     H49980   6.500   8.229   9.124 -1.6980  1.8088  2.3901
  379MOL0     H49981   6.640   8.217   8.877  1.3557 -4.2685 -4.3433
  379MOL0     H49982   6.504   8.010   8.578 -3.4596 -0.7120  5.1410
  379MOL0     H49983   6.662   8.011   8.669  1.0320  0.6144 -0.0565
  379MOL0     H49984   6.534   8.232   8.493  0.4799 -0.5816 -3.3425
  379MOL0     H49985   6.649   8.110   8.437 -1.0408  1.0448 -1.4476
  379MOL0     H49986   6.759   8.318   8.479  0.8817  0.0288  0.5854
  379MOL0     H49987   6.700   8.348   8.638 -3.2397 -0.1396 -1.1955
  379MOL0     H49988   6.879   8.097   8.572 -1.0483  1.4154 -3.5975
  379MOL0     H49989   6.832   8.147   8.722 -0.2504 -2.6450 -0.0228
  379MOL0     H49990   6.876   8.514   8.722  0.6711 -2.1237 -2.4379
  379MOL0     H49991   6.894   8.578   8.991  0.5042  1.3480 -1.0227
  379MOL0     H49992   7.245   8.557   9.350 -1.3544 -0.1034 -1.4415
  379MOL0     H49993   7.279   8.659   9.570 -0.0928  1.1580 -0.0266
  379MOL0     H49994   6.965   8.633   9.808 -1.8716  0.6916 -0.3912
  379MOL0     H49995   7.059   8.745   9.912 -2.9513 -2.7806  0.6555
  379MOL0     H49996   7.264   8.609   9.836  0.9331 -2.8834 -5.2439
  379MOL0     H49997   7.159   8.491   9.790 -0.0505  0.8852 -0.5630
  379MOL0     H49998   7.028   8.523  10.003 -0.4583  2.4986  1.6809
  379MOL0     H49999   7.150   8.621  10.070  0.2290 -1.6196  2.6264
  379MOL0     H50000   7.193   8.323   9.997 -2.0566  0.6862  0.3572
  379MOL0     H50001   7.320   8.434  10.032  0.2531  0.2647  3.4652
  379MOL0     H50002   7.199   8.505  10.251  1.1501 -1.5131  1.3193
  379MOL0     H50003   7.307   8.370  10.248 -0.4335 -1.7552  0.1781
  379MOL0     H50004   7.085   8.246  10.156 -2.3575  1.0394 -0.1971
  379MOL0     H50005   7.010   8.356  10.245 -2.1831 -2.0087 -0.9531
  379MOL0     H50006   7.090   8.134  10.385  0.3188 -0.2549 -1.0158
  379MOL0     H50007   7.250   8.176  10.363  0.3059 -1.1205  0.8357
  379MOL0     H50008   7.180   8.411  10.461  1.0502 -0.7254 -0.9090
  379MOL0     H50009   7.214   8.272  10.565 -0.1942 -1.3353 -0.8160
  379MOL0     H50010   6.860   8.756   9.576 -0.7845  0.1502 -2.4127
  379MOL0     H50011   6.845   8.706   9.329 -0.8319 -2.0537 -0.3664
  379MOL0     H50012   7.096   8.199   9.039 -2.2722 -1.1484  0.9402
  379MOL0     H50013   7.086   8.156   8.805 -1.5871  1.1867 -2.6296
  379MOL0     H50014   6.863   8.900   9.753 -0.5902  2.3541  0.2570
  379MOL0     H50015   6.942   8.944   9.989  0.5092 -0.2797  0.4476
  379MOL0     H50016   7.011   8.962  10.347 -1.2778 -1.6771 -1.8478
  379MOL0     H50017   7.110   8.983  10.579  3.4324 -2.2842  2.7079
  379MOL0     H50018   6.922   8.785  10.837 -1.4760 -2.9858  1.3387
  379MOL0     H50019   7.031   8.873  10.941  1.3920  0.2022 -0.6860
  379MOL0     H50020   6.971   8.614  10.992  0.3302  1.2634  2.4337
  379MOL0     H50021   7.119   8.588  10.890  3.6631  2.3778  0.7447
  379MOL0     H50022   7.232   8.765  11.041 -1.5126 -0.0719 -2.9171
  379MOL0     H50023   7.210   8.589  11.091 -1.0585 -2.4186 -1.1633
  379MOL0     H50024   7.037   8.822  11.175  0.3969 -0.2125  0.7521
  379MOL0     H50025   7.006   8.647  11.216 -0.4294  0.2713  1.6029
  379MOL0     H50026   7.359   8.762  11.428  0.7956 -2.6536 -2.3220
  379MOL0     H50027   7.021   8.592  10.668  0.4899  0.1179  0.0424
  379MOL0     H50028   6.919   8.547  10.438  1.5244 -1.8956  0.1479
  380MOL0     O50029   8.135   2.757   8.132  0.3100  0.2510  0.6418
  380MOL0     C50030   8.115   2.870   8.087  0.2302  0.3882 -0.8436
  380MOL0     O50031   8.158   2.907   7.962 -0.2182 -0.6764 -0.4730
  380MOL0     C50032   8.193   2.808   7.882 -0.8993  0.2276 -0.5921
  380MOL0     C50033   8.319   2.750   7.904  0.9191  0.5290 -0.4994
  380MOL0     C50034   8.370   2.663   7.815 -0.7405  0.0431 -0.2757
  380MOL0     C50035   8.313   2.639   7.699  0.0888  0.4383 -0.0798
  380MOL0     O50036   8.375   2.569   7.607  0.2074  0.0102  0.0948
  380MOL0     C50037   8.526   2.544   7.624  0.8346 -0.7899 -0.1897
  380MOL0     C50038   8.550   2.455   7.498  0.4951  0.6576  0.6860
  380MOL0     C50039   8.688   2.399   7.468 -0.1237  0.0302  0.1545
  380MOL0     C50040   8.784   2.499   7.388 -0.5745 -0.8402  0.6763
  380MOL0     C50041   8.929   2.471   7.427 -0.8541 -0.8968  0.5861
  380MOL0     C50042   8.972   2.344   7.357  0.2341 -0.2230  0.6740
  380MOL0     C50043   9.113   2.310   7.354 -0.0391  0.6900  0.0216
  380MOL0     C50044   9.176   2.293   7.497  0.1404 -0.3121  0.0599
  380MOL0     N50045   9.131   2.168   7.547 -1.1748 -0.2255  0.2236
  380MOL0     C50046   9.023   2.152   7.638 -0.9885  0.7593  0.0330
  380MOL0     C50047   9.058   2.040   7.700  0.4950  0.1794 -0.3409
  380MOL0     C50048   8.987   1.999   7.827 -0.1854  0.2317  0.6842
  380MOL0     C50049   8.972   1.851   7.833  0.2244  0.3624  0.1175
  380MOL0     C50050   8.901   1.805   7.948  0.2433  0.0469  0.0139
  380MOL0     C50051   8.914   1.658   7.971 -0.9422 -0.1791 -0.3399
  380MOL0     O50052   8.885   1.579   7.856 -0.4345 -0.2652  0.1114
  380MOL0     C50053   8.756   1.529   7.838  0.0149  0.1187  0.0979
  380MOL0     C50054   8.642   1.576   7.898  0.3715  0.1226 -0.7881
  380MOL0     C50055   8.518   1.527   7.858 -0.0351 -0.1723  0.3295
  380MOL0     C50056   8.508   1.410   7.771 -0.4616  0.0284  0.4652
  380MOL0     C50057   8.381   1.344   7.748 -0.0115  0.5084  0.4444
  380MOL0     O50058   8.393   1.242   7.654  1.0052  0.3284  0.4792
  380MOL0     C50059   8.283   1.166   7.615  0.7226  0.9452 -0.5986
  380MOL0     C50060   8.149   1.225   7.604  0.8610  0.4621 -0.7955
  380MOL0     C50061   8.035   1.139   7.594 -0.7938 -0.3172 -0.5412
  380MOL0     C50062   8.061   1.003   7.570  0.2074 -0.0896 -0.4151
  380MOL0     O50063   7.947   0.926   7.567  0.3076 -0.1292  0.6249
  380MOL0     C50064   7.967   0.792   7.507 -0.0950  0.5734  0.6182
  380MOL0     C50065   7.831   0.731   7.501  0.0176  0.6915 -0.3466
  380MOL0     C50066   7.728   0.792   7.399  0.3625 -0.5724 -0.0009
  380MOL0     C50067   7.789   0.828   7.259  1.3524  0.5231  0.0396
  380MOL0     C50068   7.683   0.849   7.154  0.8952  0.4959  0.0725
  380MOL0     C50069   7.626   0.719   7.091  0.3305 -0.3397 -0.0484
  380MOL0     C50070   7.519   0.737   6.991 -0.6872 -0.7705 -0.8429
  380MOL0     C50071   7.384   0.752   7.070 -0.3588 -0.7986  0.6032
  380MOL0    Cl50072   7.258   0.685   6.957 -0.0372  0.0884 -0.7538
  380MOL0     C50073   8.184   0.950   7.561 -0.3691 -0.3069 -0.1103
  380MOL0     C50074   8.291   1.029   7.596  0.0327 -0.5307 -0.0538
  380MOL0     O50075   8.278   1.371   7.814 -0.2447  0.1813 -0.3142
  380MOL0     C50076   8.628   1.361   7.709  0.0835 -0.1338  0.1023
  380MOL0     C50077   8.745   1.434   7.736 -0.3714  0.9564 -0.3357
  380MOL0     N50078   9.173   1.980   7.640 -0.0681 -0.6426 -1.2675
  380MOL0     N50079   9.213   2.062   7.545 -0.3230 -0.2426 -0.6020
  380MOL0     C50080   8.183   2.686   7.668 -0.3719 -0.0849  0.9767
  380MOL0     C50081   8.124   2.779   7.765 -0.7482  0.1673 -0.5023
  380MOL0     C50082   8.047   2.969   8.178  0.6511 -0.1993 -0.0843
  380MOL0     C50083   8.002   2.937   8.307 -0.0450  1.1926  0.1970
  380MOL0     C50084   7.960   3.040   8.394  0.4801  0.1502  0.0255
  380MOL0     C50085   7.943   3.180   8.351  0.1273 -1.0861  0.7929
  380MOL0     O50086   7.907   3.285   8.432 -0.3108  0.8610 -0.6702
  380MOL0     C50087   7.843   3.249   8.552  0.4508  0.1870 -0.8893
  380MOL0     C50088   7.703   3.206   8.509  0.0126 -0.2775  1.2650
  380MOL0     C50089   7.606   3.313   8.485 -1.0833 -0.4759  0.1317
  380MOL0     C50090   7.494   3.278   8.382  0.4540 -0.7143 -0.3348
  380MOL0     C50091   7.428   3.155   8.443  0.7285  0.0780  0.1282
  380MOL0     C50092   7.382   3.063   8.508  0.5845  0.2734 -0.2962
  380MOL0     C50093   7.975   3.204   8.223 -0.2484 -0.0920 -0.5933
  380MOL0     C50094   8.025   3.107   8.137 -1.5777  0.6075 -0.2312
  380MOL0     H50095   8.372   2.782   7.993  0.1127  1.8140 -0.4568
  380MOL0     H50096   8.465   2.621   7.847 -0.9592  2.0872  3.6358
  380MOL0     H50097   8.555   2.483   7.709 -1.5500 -2.6170 -0.5844
  380MOL0     H50098   8.584   2.637   7.629 -0.6728  0.1113  3.3544
  380MOL0     H50099   8.524   2.506   7.404  0.6982 -2.3681 -1.1559
  380MOL0     H50100   8.476   2.375   7.500 -2.1220  2.9126  2.3649
  380MOL0     H50101   8.674   2.307   7.409 -0.0375  0.7099 -0.9498
  380MOL0     H50102   8.752   2.370   7.551  1.8202 -2.8211 -2.1182
  380MOL0     H50103   8.760   2.497   7.282  1.9796  0.0994  0.0167
  380MOL0     H50104   8.766   2.606   7.403  1.4338 -0.6657  2.4097
  380MOL0     H50105   8.948   2.444   7.531  0.4455  3.0693  1.5285
  380MOL0     H50106   8.990   2.558   7.402 -0.7796 -0.8219  1.0251
  380MOL0     H50107   8.938   2.333   7.254 -2.0140 -3.2256  1.5763
  380MOL0     H50108   8.918   2.266   7.411  0.4927  0.3238  1.7401
  380MOL0     H50109   9.119   2.222   7.289  0.2891  1.0707 -0.4769
  380MOL0     H50110   9.170   2.379   7.291 -0.8651  0.9899 -0.4139
  380MOL0     H50111   9.141   2.378   7.557 -0.6492  0.1648 -1.0319
  380MOL0     H50112   9.285   2.298   7.495  0.1052  0.7121 -0.0531
  380MOL0     H50113   8.954   2.229   7.672  0.9555  1.7567  1.9870
  380MOL0     H50114   8.885   2.041   7.828  0.1403  1.0368  0.9749
  380MOL0     H50115   9.045   2.030   7.914  1.2757 -1.4110  0.3368
  380MOL0     H50116   9.067   1.797   7.832 -2.5910 -5.3198  1.7735
  380MOL0     H50117   8.919   1.825   7.740  0.3009 -0.2541  0.2419
  380MOL0     H50118   8.943   1.852   8.038  1.0615 -3.1531  1.4723
  380MOL0     H50119   8.795   1.830   7.954  0.0800 -0.8893  1.4704
  380MOL0     H50120   8.857   1.631   8.061 -3.0372 -1.4017 -1.9538
  380MOL0     H50121   9.021   1.643   7.992 -0.7033  0.4597 -1.0841
  380MOL0     H50122   8.633   1.654   7.973 -1.4148  1.3855 -2.2211
  380MOL0     H50123   8.427   1.569   7.899 -1.1452 -1.4963 -0.6701
  380MOL0     H50124   8.130   1.331   7.618 -0.9672  0.0470  0.0866
  380MOL0     H50125   7.933   1.178   7.586 -0.3367  1.1110  0.2584
  380MOL0     H50126   8.037   0.729   7.564 -0.7914 -2.5071 -1.6493
  380MOL0     H50127   7.992   0.790   7.401 -2.8602 -2.9669 -0.1639
  380MOL0     H50128   7.792   0.728   7.603  1.5357  0.9859  0.2684
  380MOL0     H50129   7.856   0.630   7.466 -0.0875 -0.1992  1.9856
  380MOL0     H50130   7.678   0.881   7.439  0.5201 -0.1130 -0.7983
  380MOL0     H50131   7.655   0.714   7.382  2.0308 -2.3310  0.5582
  380MOL0     H50132   7.849   0.919   7.266  2.0429  0.1677 -0.9549
  380MOL0     H50133   7.850   0.740   7.239  3.4400  1.8956  0.1441
  380MOL0     H50134   7.724   0.919   7.081 -1.2090  3.6697  1.6884
  380MOL0     H50135   7.598   0.902   7.199  1.3845  1.1545  0.2330
  380MOL0     H50136   7.583   0.663   7.174  0.0576  0.9977  0.7460
  380MOL0     H50137   7.710   0.659   7.055 -0.0233 -0.4455 -0.7247
  380MOL0     H50138   7.533   0.825   6.928  1.0862  1.3550  2.1913
  380MOL0     H50139   7.515   0.645   6.933  2.3690 -2.3827  1.2120
  380MOL0     H50140   7.367   0.861   7.070  2.2991 -0.1869 -3.5052
  380MOL0     H50141   7.372   0.708   7.170 -0.5733  1.0913  1.4639
  380MOL0     H50142   8.206   0.847   7.536 -1.3192 -0.4379 -0.4264
  380MOL0     H50143   8.384   0.982   7.626  0.4630 -0.3105 -1.0117
  380MOL0     H50144   8.632   1.274   7.644 -2.4446  1.3020 -2.1449
  380MOL0     H50145   8.842   1.415   7.690 -0.1960  2.9304 -0.9158
  380MOL0     H50146   8.145   2.662   7.569  0.1112  0.5145  0.6423
  380MOL0     H50147   8.030   2.831   7.750 -0.0502  1.9456  1.0628
  380MOL0     H50148   8.018   2.837   8.346  1.6868 -0.2936 -3.8104
  380MOL0     H50149   7.951   3.003   8.496  1.6813 -1.0704 -0.2752
  380MOL0     H50150   7.846   3.339   8.614  2.6172  0.0758 -0.7408
  380MOL0     H50151   7.896   3.173   8.610  1.1320 -0.0298 -1.7649
  380MOL0     H50152   7.696   3.143   8.420 -0.2810  0.2435  0.9172
  380MOL0     H50153   7.657   3.131   8.574 -0.2483 -1.8378 -0.6197
  380MOL0     H50154   7.657   3.400   8.441 -2.9471  0.8916  0.5206
  380MOL0     H50155   7.564   3.333   8.584 -0.2509 -1.8943  0.8026
  380MOL0     H50156   7.434   3.370   8.376  3.2759  1.2126 -1.6056
  380MOL0     H50157   7.538   3.255   8.284 -1.7362 -2.8048 -0.9044
  380MOL0     H50158   7.354   2.974   8.561  1.2465  0.0009 -0.3988
  380MOL0     H50159   7.973   3.306   8.186 -0.7614  0.6616  1.4040
  380MOL0     H50160   8.046   3.141   8.037 -3.2659 -0.3339 -0.9463
  381MOL0     O50161   7.862   1.805   8.019  0.3161 -1.0538 -0.3155
  381MOL0     C50162   7.930   1.810   8.126  0.6782  0.2481  0.1146
  381MOL0     O50163   7.886   1.781   8.250 -0.5901 -0.8518 -0.9023
  381MOL0     C50164   7.756   1.745   8.275 -1.2145 -0.6696  0.3901
  381MOL0     C50165   7.664   1.841   8.241 -0.1798  0.9982 -0.6362
  381MOL0     C50166   7.533   1.803   8.261 -0.2401  0.5003 -0.3473
  381MOL0     C50167   7.490   1.683   8.316  0.4352 -0.7285 -0.4083
  381MOL0     O50168   7.360   1.651   8.344  0.6331 -0.2501  0.0340
  381MOL0     C50169   7.328   1.512   8.364  0.1965 -0.0521 -0.6213
  381MOL0     C50170   7.187   1.513   8.394  0.6415  0.9916  1.1021
  381MOL0     C50171   7.147   1.400   8.488 -0.1031  0.4331  0.8159
  381MOL0     C50172   7.157   1.257   8.421  0.2139 -0.1625 -0.5807
  381MOL0     C50173   7.121   1.140   8.523  0.5590 -0.1529 -0.0910
  381MOL0     C50174   7.110   1.006   8.457  0.2699  0.0846 -0.1457
  381MOL0     C50175   7.111   0.891   8.570  0.0240  0.0806  0.6697
  381MOL0     C50176   7.152   0.764   8.497 -0.4651  0.0735  0.1148
  381MOL0     N50177   7.145   0.657   8.594 -0.2825 -0.8026 -0.2355
  381MOL0     C50178   7.246   0.577   8.631  0.2218 -0.2703  0.0291
  381MOL0     C50179   7.188   0.487   8.714  0.8005 -0.3617  0.7735
  381MOL0     C50180   7.244   0.361   8.787  0.4283 -0.4886 -0.0763
  381MOL0     C50181   7.361   0.300   8.711 -0.4234 -0.2365 -0.0409
  381MOL0     C50182   7.441   0.207   8.813 -0.4604 -0.9995  0.0180
  381MOL0     C50183   7.563   0.143   8.766  0.3617 -0.3452 -0.0002
  381MOL0     O50184   7.530   0.074   8.640  0.0961  0.1159 -0.0564
  381MOL0     C50185   7.486  -0.049   8.647 -0.2333  0.6655  0.0320
  381MOL0     C50186   7.538  -0.145   8.739  0.5242  0.2773  0.0577
  381MOL0     C50187   7.490  -0.272   8.726  0.2989  0.0155 -0.6789
  381MOL0     C50188   7.386  -0.310   8.637 -0.3336 -0.2755 -0.5363
  381MOL0     C50189   7.331  -0.445   8.639  0.1520  0.5498 -0.5394
  381MOL0     O50190   7.236  -0.470   8.544  0.7754  0.5083 -0.3533
  381MOL0     C50191   7.155  -0.577   8.541  1.6954  0.7051 -0.8524
  381MOL0     C50192   7.124  -0.674   8.641  0.3880  1.2019  1.1584
  381MOL0     C50193   7.041  -0.789   8.602  0.7831 -1.0717 -0.5707
  381MOL0     C50194   6.990  -0.808   8.474  0.2743 -0.1445  0.3675
  381MOL0     O50195   6.930  -0.924   8.432 -0.4532 -0.2707 -0.7893
  381MOL0     C50196   6.827  -0.974   8.519  0.1747  0.4035  0.1342
  381MOL0     C50197   6.736  -1.073   8.440  0.0231  0.5095 -0.4986
  381MOL0     C50198   6.809  -1.199   8.395  0.5231  0.6850 -0.1641
  381MOL0     C50199   6.875  -1.170   8.259 -0.4323  0.9406 -0.6782
  381MOL0     C50200   6.957  -1.298   8.210  0.9524  0.3283 -0.2273
  381MOL0     C50201   6.995  -1.268   8.066 -0.2180  0.2478 -0.0543
  381MOL0     C50202   6.880  -1.264   7.967 -0.0064  0.7552 -0.7837
  381MOL0     C50203   6.937  -1.232   7.826  0.0367  0.2766  0.1790
  381MOL0    Cl50204   6.811  -1.159   7.715  0.0418 -0.1531  0.2967
  381MOL0     C50205   7.035  -0.721   8.374  0.5909  0.8606  0.3687
  381MOL0     C50206   7.122  -0.611   8.404  0.3307 -0.4955  0.5189
  381MOL0     O50207   7.373  -0.529   8.718  0.1286 -0.0601 -1.4085
  381MOL0     C50208   7.339  -0.213   8.544 -0.7328  0.3186  0.6764
  381MOL0     C50209   7.387  -0.087   8.549  0.6881 -0.0792 -0.5451
  381MOL0     N50210   7.051   0.516   8.719 -0.0860  0.7830 -0.5463
  381MOL0     N50211   7.027   0.622   8.648  0.4958  0.3200 -0.6014
  381MOL0     C50212   7.590   1.590   8.339  1.0067 -0.3502  0.7755
  381MOL0     C50213   7.728   1.615   8.322  0.6301  0.2212  0.0672
  381MOL0     C50214   8.062   1.872   8.118  0.8764 -0.0392  0.0246
  381MOL0     C50215   8.128   1.890   7.999  0.4491  0.9034  0.3349
  381MOL0     C50216   8.237   1.968   7.981 -1.4161 -0.5489  0.4681
  381MOL0     C50217   8.292   2.041   8.092 -0.2068  0.1840 -0.2716
  381MOL0     O50218   8.409   2.113   8.078 -0.0593 -0.1518  0.7637
  381MOL0     C50219   8.518   2.049   8.146 -0.0364 -0.3189  0.7529
  381MOL0     C50220   8.633   2.143   8.184 -0.0254 -0.4449 -0.4330
  381MOL0     C50221   8.704   2.204   8.056  0.5269  0.2837 -0.0050
  381MOL0     C50222   8.767   2.342   8.072 -0.3860  0.0306 -0.2428
  381MOL0     C50223   8.657   2.443   8.099  0.6342  0.1662  0.4053
  381MOL0     C50224   8.554   2.511   8.111 -0.0545 -0.3663  0.2209
  381MOL0     C50225   8.231   2.023   8.220 -1.0658 -0.0442  0.4171
  381MOL0     C50226   8.115   1.944   8.230 -0.1936  0.0330 -0.6671
  381MOL0     H50227   7.703   1.935   8.204  2.7489  1.1941  2.4061
  381MOL0     H50228   7.452   1.871   8.237 -3.8518 -3.1215  0.4983
  381MOL0     H50229   7.383   1.466   8.446 -1.0128 -2.3098 -1.0078
  381MOL0     H50230   7.349   1.455   8.273  2.3100 -0.8270  0.2926
  381MOL0     H50231   7.139   1.491   8.298 -1.1867 -1.0550  2.3645
  381MOL0     H50232   7.152   1.610   8.429  0.7705  1.5928 -0.3855
  381MOL0     H50233   7.041   1.412   8.514 -1.2014 -1.7220 -2.1218
  381MOL0     H50234   7.199   1.399   8.584 -0.7536 -0.6168  1.1828
  381MOL0     H50235   7.095   1.262   8.331 -3.4522  1.2262  1.7687
  381MOL0     H50236   7.262   1.243   8.395  0.2799 -4.4218  1.2606
  381MOL0     H50237   7.023   1.151   8.571  0.3787  1.0588 -0.7193
  381MOL0     H50238   7.194   1.134   8.605 -1.1281  2.3805  1.7507
  381MOL0     H50239   7.182   0.991   8.377 -1.2355  1.1945 -1.8108
  381MOL0     H50240   7.017   1.012   8.398 -2.6009  0.3585  3.9801
  381MOL0     H50241   7.176   0.919   8.653 -0.2226  0.1328  0.8458
  381MOL0     H50242   7.009   0.882   8.607 -1.1300  0.2691 -2.1961
  381MOL0     H50243   7.258   0.773   8.471 -0.0810 -3.7667 -0.2331
  381MOL0     H50244   7.098   0.734   8.407  1.5581 -2.1400 -0.4458
  381MOL0     H50245   7.348   0.573   8.594 -0.3828 -2.6804 -1.6420
  381MOL0     H50246   7.166   0.285   8.788 -1.8160  1.6794 -0.5719
  381MOL0     H50247   7.273   0.401   8.885 -0.3460  3.5868 -1.3056
  381MOL0     H50248   7.430   0.376   8.673  3.1337 -3.0949  0.0872
  381MOL0     H50249   7.329   0.248   8.621 -0.5888 -1.2717  0.5927
  381MOL0     H50250   7.469   0.276   8.893  0.7668 -0.3142 -0.9710
  381MOL0     H50251   7.361   0.142   8.850 -3.0567  1.9697  0.0527
  381MOL0     H50252   7.597   0.083   8.851  0.5893  1.0070  0.9000
  381MOL0     H50253   7.641   0.218   8.754  0.0424  0.1669  1.0529
  381MOL0     H50254   7.611  -0.119   8.815 -0.6288 -1.2769  1.8012
  381MOL0     H50255   7.518  -0.339   8.807 -0.0115  0.3361 -0.2982
  381MOL0     H50256   7.162  -0.647   8.739  5.0226  1.1478 -0.3846
  381MOL0     H50257   7.008  -0.858   8.679 -0.5317 -1.0233 -1.0624
  381MOL0     H50258   6.764  -0.895   8.561 -2.0007 -1.5188  0.6858
  381MOL0     H50259   6.879  -1.025   8.601  0.0227  1.3566  0.8406
  381MOL0     H50260   6.682  -1.032   8.355 -0.4217 -1.9754 -1.5012
  381MOL0     H50261   6.657  -1.102   8.510  0.7530  2.1393  1.0792
  381MOL0     H50262   6.738  -1.281   8.389  0.4135  0.5012  2.5019
  381MOL0     H50263   6.878  -1.227   8.475 -1.4386 -1.1063  1.0214
  381MOL0     H50264   6.800  -1.130   8.190 -1.9677 -1.5102 -0.5249
  381MOL0     H50265   6.953  -1.093   8.256  1.2954 -0.7516 -2.4665
  381MOL0     H50266   6.900  -1.391   8.207  0.9975  0.2980 -3.0129
  381MOL0     H50267   7.039  -1.318   8.280  0.4852 -1.0805 -0.0538
  381MOL0     H50268   7.066  -1.345   8.033  0.2841 -0.5319  2.6248
  381MOL0     H50269   7.046  -1.171   8.069 -0.1225  0.1802  1.3170
  381MOL0     H50270   6.845  -1.367   7.976  2.0843  0.0776  0.1724
  381MOL0     H50271   6.803  -1.191   7.998 -1.3685 -0.2858 -1.6126
  381MOL0     H50272   6.980  -1.322   7.782  0.2001 -0.3371  1.5446
  381MOL0     H50273   7.015  -1.155   7.824 -1.2067  1.6285  1.5292
  381MOL0     H50274   7.026  -0.737   8.267  3.0674 -1.2947  0.3753
  381MOL0     H50275   7.149  -0.551   8.318 -1.5866 -3.1169 -2.0935
  381MOL0     H50276   7.259  -0.235   8.474 -1.5543  0.0609  1.6696
  381MOL0     H50277   7.353  -0.008   8.483 -0.3206  0.6932  0.8274
  381MOL0     H50278   7.569   1.488   8.368 -2.0334 -0.3228 -0.9465
  381MOL0     H50279   7.805   1.539   8.337  2.1330  1.5035 -0.8964
  381MOL0     H50280   8.091   1.837   7.912 -1.1208  0.7270  1.0730
  381MOL0     H50281   8.279   1.995   7.884  0.7656 -0.2810  1.4174
  381MOL0     H50282   8.552   1.962   8.088 -2.4793  0.6193 -2.3606
  381MOL0     H50283   8.493   2.003   8.242  0.3760 -0.7495  0.6614
  381MOL0     H50284   8.599   2.226   8.247  0.8732  0.7836 -1.5035
  381MOL0     H50285   8.712   2.093   8.241 -0.8302 -0.2257  0.9194
  381MOL0     H50286   8.639   2.208   7.969  2.5635  0.2885 -1.6174
  381MOL0     H50287   8.786   2.139   8.023  1.4980 -0.1808  3.0005
  381MOL0     H50288   8.849   2.344   8.145 -1.7192 -3.6152  1.6369
  381MOL0     H50289   8.812   2.374   7.978 -0.7231  1.1522 -0.0308
  381MOL0     H50290   8.479   2.587   8.119  2.7315  2.5609  0.6415
  381MOL0     H50291   8.280   2.072   8.303  2.6218 -0.6301 -1.2287
  381MOL0     H50292   8.074   1.933   8.330 -0.2129 -0.3016 -0.7107
  382MOL0     O50293   3.548  10.998   6.571  0.0826  0.7257  0.2984
  382MOL0     C50294   3.586  10.920   6.477  0.0807  0.0739 -0.6515
  382MOL0     O50295   3.647  10.798   6.492  0.2439  0.5545  0.6217
  382MOL0     C50296   3.695  10.766   6.611 -0.3265  0.3308 -0.4135
  382MOL0     C50297   3.791  10.842   6.668  0.2388  0.0736 -0.6027
  382MOL0     C50298   3.837  10.795   6.799  0.4279 -0.2867 -0.3443
  382MOL0     C50299   3.779  10.691   6.868  1.0618  1.0609  0.1783
  382MOL0     O50300   3.819  10.660   6.987  0.3349  0.1020  1.2649
  382MOL0     C50301   3.819  10.521   7.028 -0.1676  1.0927  0.1958
  382MOL0     C50302   3.913  10.497   7.145 -0.2160  1.3462 -1.1310
  382MOL0     C50303   4.060  10.521   7.109 -0.2521  0.2297  0.1526
  382MOL0     C50304   4.155  10.512   7.223  0.9816  1.4137 -0.6121
  382MOL0     C50305   4.161  10.371   7.297  0.8688  1.1603 -0.1204
  382MOL0     C50306   4.208  10.376   7.438  0.4863  0.4232 -0.0740
  382MOL0     C50307   4.234  10.240   7.512 -0.2197 -0.0305  0.2563
  382MOL0     C50308   4.111  10.149   7.541  0.0480 -0.1089  0.4338
  382MOL0     N50309   4.161  10.007   7.541  0.3434  0.3431 -0.0144
  382MOL0     C50310   4.232   9.954   7.645 -0.4309 -0.6365  0.2071
  382MOL0     C50311   4.240   9.820   7.612 -0.6505  0.0821 -0.5184
  382MOL0     C50312   4.325   9.719   7.686 -0.4273  0.5423 -0.2568
  382MOL0     C50313   4.255   9.622   7.777  0.4877 -0.5287  0.2273
  382MOL0     C50314   4.162   9.539   7.694 -0.4780  0.6531  0.4452
  382MOL0     C50315   4.072   9.451   7.781 -0.3086 -0.3048 -0.0035
  382MOL0     O50316   4.157   9.345   7.848 -0.7750 -1.4560 -0.2597
  382MOL0     C50317   4.146   9.217   7.792  1.1489 -0.5163 -0.1850
  382MOL0     C50318   4.191   9.117   7.872 -0.7338 -0.8243 -1.3982
  382MOL0     C50319   4.185   8.981   7.844  0.2634 -0.2384 -0.2621
  382MOL0     C50320   4.126   8.939   7.725 -0.2534  0.4999  0.3098
  382MOL0     C50321   4.080   8.803   7.715  0.4328 -1.1391  0.3247
  382MOL0     O50322   4.144   8.711   7.786 -0.0921 -0.5257 -0.1820
  382MOL0     C50323   4.112   8.581   7.752  0.9672  0.2611 -0.8553
  382MOL0     C50324   4.199   8.509   7.676 -0.9516 -1.3874 -0.9778
  382MOL0     C50325   4.164   8.376   7.645  0.7152 -0.6364 -0.4624
  382MOL0     C50326   4.051   8.316   7.706  0.7124 -0.2244 -0.4916
  382MOL0     O50327   4.020   8.191   7.679  0.6743  0.1091 -0.8801
  382MOL0     C50328   4.023   8.110   7.790 -0.3163 -0.3535 -1.0098
  382MOL0     C50329   3.995   7.956   7.765  0.8247 -0.7171 -0.2254
  382MOL0     C50330   3.852   7.930   7.721  0.3085  0.1216 -0.5383
  382MOL0     C50331   3.809   7.968   7.581  0.0789  0.8123 -1.2501
  382MOL0     C50332   3.669   7.911   7.540 -1.3305  0.8591 -1.4567
  382MOL0     C50333   3.687   7.887   7.388  0.2900  0.3086 -0.7940
  382MOL0     C50334   3.583   7.798   7.326 -0.0999 -0.2638 -0.0972
  382MOL0     C50335   3.439   7.839   7.355  1.4097 -0.5170  1.3334
  382MOL0    Cl50336   3.330   7.716   7.289 -0.3795  0.2751 -0.1693
  382MOL0     C50337   3.982   8.394   7.804 -0.2437  0.4045  0.1764
  382MOL0     C50338   4.009   8.522   7.819  0.6625 -0.7812  0.3095
  382MOL0     O50339   4.003   8.783   7.620  0.8711 -0.8461  0.1527
  382MOL0     C50340   4.091   9.044   7.633 -0.1524  0.8089 -1.3758
  382MOL0     C50341   4.092   9.176   7.669 -0.1253  0.2853  0.4317
  382MOL0     N50342   4.164   9.794   7.502 -0.4904  0.2485 -0.1225
  382MOL0     N50343   4.128   9.912   7.453 -1.0995 -0.6673 -0.5208
  382MOL0     C50344   3.696  10.613   6.794  0.9298  0.0278 -1.0458
  382MOL0     C50345   3.645  10.654   6.670  1.3480 -0.3836  0.4583
  382MOL0     C50346   3.539  10.946   6.337  0.4873 -0.4115 -1.1515
  382MOL0     C50347   3.464  11.070   6.310  0.1627 -0.1975 -0.8679
  382MOL0     C50348   3.428  11.101   6.184 -0.7434  0.0982  0.5716
  382MOL0     C50349   3.461  11.028   6.070  0.2268 -0.3361  0.1099
  382MOL0     O50350   3.435  11.058   5.939 -0.3463 -0.2883 -0.9383
  382MOL0     C50351   3.381  11.188   5.901  0.2146  0.6744  0.8120
  382MOL0     C50352   3.329  11.184   5.758 -0.9515 -0.4213  0.1416
  382MOL0     C50353   3.224  11.082   5.708 -0.4688  0.4505  0.3764
  382MOL0     C50354   3.192  11.104   5.564 -1.0674  0.1842  0.3857
  382MOL0     C50355   3.274  11.033   5.459  0.9888 -0.8917  0.9077
  382MOL0     C50356   3.344  10.970   5.382 -1.4182 -0.6403  0.0588
  382MOL0     C50357   3.536  10.914   6.095 -0.3941  0.5074 -0.3044
  382MOL0     C50358   3.583  10.878   6.225  0.7557 -0.4046  0.1440
  382MOL0     H50359   3.810  10.939   6.625 -3.4475  1.2238  0.0453
  382MOL0     H50360   3.908  10.845   6.864 -1.3281  0.7703  0.8456
  382MOL0     H50361   3.852  10.467   6.939  0.0390  2.4301 -0.5746
  382MOL0     H50362   3.722  10.480   7.057  1.3219 -2.4788  0.6254
  382MOL0     H50363   3.893  10.393   7.176  0.4443  1.3144 -0.8022
  382MOL0     H50364   3.883  10.563   7.227  0.6428 -0.4183  0.7156
  382MOL0     H50365   4.069  10.627   7.086 -2.1541  0.2419 -0.7349
  382MOL0     H50366   4.089  10.463   7.021  4.0831 -0.0519  1.5137
  382MOL0     H50367   4.257  10.540   7.196  2.2722 -2.8229 -0.7004
  382MOL0     H50368   4.108  10.583   7.292 -1.3603  1.1819 -1.8370
  382MOL0     H50369   4.206  10.286   7.245  0.4100  1.0037 -0.2634
  382MOL0     H50370   4.058  10.334   7.303  1.3597 -0.4647 -0.9723
  382MOL0     H50371   4.127  10.430   7.488 -0.5541 -0.2879 -0.9350
  382MOL0     H50372   4.299  10.436   7.439  2.9678 -2.9312 -2.2158
  382MOL0     H50373   4.297  10.185   7.440 -2.6123 -0.4840 -1.6386
  382MOL0     H50374   4.303  10.254   7.595  1.8086 -1.4280 -1.0866
  382MOL0     H50375   4.042  10.159   7.457  0.1816  0.0009  0.3363
  382MOL0     H50376   4.058  10.177   7.633  0.7467  1.9794  0.2539
  382MOL0     H50377   4.275   9.999   7.734 -0.7569 -3.0879  1.7079
  382MOL0     H50378   4.394   9.770   7.752  0.4195 -3.6622  2.5103
  382MOL0     H50379   4.392   9.659   7.623  0.6593 -1.0325  2.2396
  382MOL0     H50380   4.197   9.683   7.848 -1.0325  0.8118 -2.0403
  382MOL0     H50381   4.325   9.557   7.831  1.0628 -0.2785 -0.2058
  382MOL0     H50382   4.097   9.599   7.630 -3.9382 -1.3253  1.8412
  382MOL0     H50383   4.219   9.466   7.636  0.8210  0.9231  1.3267
  382MOL0     H50384   3.995   9.412   7.714 -2.8051  3.9439  0.0510
  382MOL0     H50385   4.015   9.512   7.852  0.8640  0.6166  0.1799
  382MOL0     H50386   4.240   9.150   7.963 -2.4794 -1.0374 -0.3298
  382MOL0     H50387   4.227   8.913   7.917 -0.9194 -1.8936 -1.0767
  382MOL0     H50388   4.282   8.570   7.643  0.5772 -0.0223  4.3016
  382MOL0     H50389   4.219   8.316   7.573 -0.4200 -1.8265 -0.3826
  382MOL0     H50390   3.964   8.152   7.872  2.8695  1.6242  0.4562
  382MOL0     H50391   4.129   8.114   7.816  0.2379  0.8474 -3.2591
  382MOL0     H50392   4.004   7.903   7.861 -0.1273 -0.7142 -0.1246
  382MOL0     H50393   4.065   7.925   7.687 -0.3823  1.2518 -2.1820
  382MOL0     H50394   3.788   7.981   7.794 -0.8216 -2.0658  0.0889
  382MOL0     H50395   3.848   7.821   7.731  5.7440 -0.1642  2.4530
  382MOL0     H50396   3.800   8.076   7.569 -0.6320  0.6840 -1.8979
  382MOL0     H50397   3.886   7.939   7.508 -0.2380 -1.9882 -0.6146
  382MOL0     H50398   3.603   7.991   7.576  1.4216  1.0425  4.5840
  382MOL0     H50399   3.643   7.820   7.594  2.2823 -0.3916 -1.5096
  382MOL0     H50400   3.783   7.839   7.369  0.1194 -0.4846  0.2214
  382MOL0     H50401   3.686   7.988   7.347  1.6021  0.2131 -1.0826
  382MOL0     H50402   3.583   7.815   7.218  1.0447  2.1278  0.2017
  382MOL0     H50403   3.599   7.692   7.346 -3.0406 -0.5922  0.9720
  382MOL0     H50404   3.418   7.934   7.306  1.4556  0.5472  3.3144
  382MOL0     H50405   3.422   7.846   7.462 -2.0694  0.3092  0.8286
  382MOL0     H50406   3.894   8.349   7.849  1.0679 -0.7322  1.7573
  382MOL0     H50407   3.956   8.584   7.892 -1.0885 -0.2943 -1.2925
  382MOL0     H50408   4.052   9.011   7.537  1.3797 -1.7829 -1.1891
  382MOL0     H50409   4.057   9.243   7.591 -0.0743  1.4379  1.3698
  382MOL0     H50410   3.658  10.522   6.838  0.7212 -0.7112 -2.6967
  382MOL0     H50411   3.561  10.607   6.621  1.7553 -0.3411 -0.2897
  382MOL0     H50412   3.429  11.137   6.388 -0.9132  0.8219 -2.1812
  382MOL0     H50413   3.373  11.192   6.162  1.5080  1.5281  0.4189
  382MOL0     H50414   3.464  11.260   5.909  2.3837 -1.7610  2.0376
  382MOL0     H50415   3.300  11.220   5.967  0.3647 -0.1298  1.4175
  382MOL0     H50416   3.283  11.280   5.732  0.9991  0.5546  0.0994
  382MOL0     H50417   3.422  11.177   5.700 -0.0367 -1.0554  1.6129
  382MOL0     H50418   3.139  11.092   5.776 -0.1178 -0.8503  1.0309
  382MOL0     H50419   3.254  10.978   5.719 -1.3073  0.4274  3.6509
  382MOL0     H50420   3.091  11.063   5.552 -1.4501  1.2435 -0.1456
  382MOL0     H50421   3.196  11.211   5.542  0.9155 -0.4753 -3.2212
  382MOL0     H50422   3.388  10.911   5.303 -3.0971 -3.2919  0.9501
  382MOL0     H50423   3.580  10.857   6.014  2.3032 -0.5344  1.7202
  382MOL0     H50424   3.668  10.812   6.236  2.0862  0.1908 -4.4734
  383MOL0     O50425   0.867   1.643  10.840  0.9428  0.7781 -0.8838
  383MOL0     C50426   0.832   1.759  10.840  0.0794 -0.3614 -0.5707
  383MOL0     O50427   0.900   1.865  10.891 -0.1290  0.3817 -0.4658
  383MOL0     C50428   1.032   1.853  10.903  0.0183 -0.1959 -0.9158
  383MOL0     C50429   1.087   1.905  11.022 -0.8721 -0.5462 -0.5548
  383MOL0     C50430   1.224   1.926  11.029 -0.4172  0.6431 -0.0184
  383MOL0     C50431   1.309   1.875  10.926 -0.0916  0.2045 -0.3437
  383MOL0     O50432   1.442   1.902  10.923  0.3292 -0.0660 -0.2906
  383MOL0     C50433   1.484   2.043  10.937 -0.4121  0.2174  0.5111
  383MOL0     C50434   1.608   2.075  10.856 -0.6774  0.4244  0.2256
  383MOL0     C50435   1.573   2.049  10.711 -0.6323 -0.3229 -0.0433
  383MOL0     C50436   1.686   2.062  10.598 -0.1610 -0.4076 -0.3518
  383MOL0     C50437   1.747   2.206  10.578 -0.5571  0.2653  0.6864
  383MOL0     C50438   1.630   2.310  10.525  0.1578  0.1636  0.0409
  383MOL0     C50439   1.564   2.272  10.393  0.2971 -0.1020 -0.9492
  383MOL0     C50440   1.461   2.383  10.363  0.2295  0.4504  0.2370
  383MOL0     N50441   1.405   2.354  10.229  0.0050 -0.4592  0.3582
  383MOL0     C50442   1.455   2.380  10.103 -0.8486 -0.2487  0.1605
  383MOL0     C50443   1.395   2.285  10.023  0.5298  0.7222  0.8026
  383MOL0     C50444   1.417   2.263   9.872  0.2204 -0.6504 -0.0801
  383MOL0     C50445   1.359   2.367   9.782 -0.0239  0.4775 -0.0685
  383MOL0     C50446   1.420   2.500   9.784  0.0728  1.0857 -0.3685
  383MOL0     C50447   1.562   2.508   9.729 -0.0632  0.3650  0.0480
  383MOL0     O50448   1.553   2.453   9.593  0.0611  0.7230  0.3171
  383MOL0     C50449   1.655   2.497   9.511  1.0809 -0.8842 -0.2232
  383MOL0     C50450   1.768   2.571   9.537  1.0099 -0.0453  0.5886
  383MOL0     C50451   1.861   2.606   9.439  0.3071 -0.8286 -0.3950
  383MOL0     C50452   1.843   2.576   9.300  0.1800  0.0728 -0.3702
  383MOL0     C50453   1.931   2.629   9.198  0.0748 -1.0645 -0.3905
  383MOL0     O50454   1.934   2.557   9.090  0.7105  0.1381 -0.5088
  383MOL0     C50455   1.981   2.606   8.974 -0.6235  0.5915  0.3264
  383MOL0     C50456   2.043   2.513   8.903  0.0952 -0.3706 -0.6764
  383MOL0     C50457   2.098   2.558   8.789 -0.7178  0.0610 -0.2546
  383MOL0     C50458   2.086   2.692   8.746 -1.0895  0.1827  0.8771
  383MOL0     O50459   2.143   2.749   8.623 -0.3589  0.3824  0.6301
  383MOL0     C50460   2.235   2.657   8.562  0.2257 -0.8800 -0.4378
  383MOL0     C50461   2.167   2.552   8.473 -0.7683  0.4020  0.0465
  383MOL0     C50462   2.263   2.468   8.388  0.8986  0.0908  0.2982
  383MOL0     C50463   2.185   2.351   8.315 -0.3310  0.6620 -0.5268
  383MOL0     C50464   2.272   2.264   8.232  0.1696  0.5402 -1.0187
  383MOL0     C50465   2.184   2.172   8.151 -0.2537 -0.3588 -0.3294
  383MOL0     C50466   2.251   2.059   8.083  0.5258  0.1669  0.0235
  383MOL0     C50467   2.319   1.951   8.174  0.2609  0.9530  0.1844
  383MOL0    Cl50468   2.185   1.871   8.265 -0.0130  0.3116 -0.0266
  383MOL0     C50469   2.015   2.786   8.816 -0.9589  0.7512 -0.6927
  383MOL0     C50470   1.964   2.742   8.932  0.0815  0.5447  0.2611
  383MOL0     O50471   2.003   2.724   9.213 -0.1493 -0.0317 -1.0465
  383MOL0     C50472   1.712   2.515   9.275 -0.0899  0.4337  0.6229
  383MOL0     C50473   1.633   2.461   9.381  0.5303 -0.1270  0.2645
  383MOL0     N50474   1.296   2.219  10.096 -0.5701  1.0314  0.1545
  383MOL0     N50475   1.309   2.258  10.209  0.0553  0.0290 -0.4063
  383MOL0     C50476   1.250   1.806  10.817 -0.8932  0.1738 -0.0663
  383MOL0     C50477   1.119   1.802  10.810  0.5103 -0.5158  0.3490
  383MOL0     C50478   0.697   1.784  10.788 -0.4758 -1.0897 -0.6181
  383MOL0     C50479   0.653   1.698  10.687  1.1010 -0.3540  0.6865
  383MOL0     C50480   0.531   1.720  10.624 -0.3459  0.8016 -0.5331
  383MOL0     C50481   0.443   1.819  10.671 -0.5199 -0.0592 -0.1194
  383MOL0     O50482   0.322   1.834  10.616  0.3906  0.6415 -0.4467
  383MOL0     C50483   0.243   1.711  10.594 -0.3019 -0.3510  0.4416
  383MOL0     C50484   0.151   1.742  10.467  0.1864 -0.1587 -0.5589
  383MOL0     C50485   0.037   1.636  10.474  0.3509  0.1795  0.1692
  383MOL0     C50486  -0.084   1.666  10.373 -0.9278 -0.3508 -0.2047
  383MOL0     C50487  -0.203   1.586  10.415  0.9081  0.5096  0.2871
  383MOL0     C50488  -0.288   1.506  10.452  0.0036  0.3246 -0.4088
  383MOL0     C50489   0.491   1.918  10.758  1.5189  0.4120  0.2109
  383MOL0     C50490   0.611   1.892  10.814  1.3064  0.5810 -0.1119
  383MOL0     H50491   1.025   1.934  11.106  0.0558 -2.4482  0.8502
  383MOL0     H50492   1.270   1.957  11.122 -0.4192  1.0220 -0.1431
  383MOL0     H50493   1.527   2.051  11.037 -0.3351 -5.4333  1.2393
  383MOL0     H50494   1.402   2.110  10.912  2.0767  3.2505 -0.2426
  383MOL0     H50495   1.696   2.016  10.882 -0.8140 -0.1007 -0.4760
  383MOL0     H50496   1.642   2.178  10.873 -0.0169  0.3608 -0.6604
  383MOL0     H50497   1.502   2.127  10.682  1.1467  1.3018 -0.2246
  383MOL0     H50498   1.524   1.953  10.694  1.5531 -1.0746 -2.9637
  383MOL0     H50499   1.759   1.987  10.628  1.3631  2.1816  3.1147
  383MOL0     H50500   1.635   2.026  10.508 -0.1889 -2.4931  0.4625
  383MOL0     H50501   1.829   2.207  10.506  1.9213 -0.0057  3.3127
  383MOL0     H50502   1.782   2.243  10.675 -0.0337 -0.5876  0.8300
  383MOL0     H50503   1.671   2.411  10.532  0.4076  0.0576  0.1223
  383MOL0     H50504   1.549   2.316  10.597 -0.2367 -0.5043 -0.3343
  383MOL0     H50505   1.619   2.273  10.298 -0.6749 -2.3030 -1.6043
  383MOL0     H50506   1.517   2.174  10.406 -0.4818  0.4921  1.1746
  383MOL0     H50507   1.527   2.470  10.367  0.6691  0.2615 -1.7292
  383MOL0     H50508   1.381   2.370  10.436 -0.7399  1.1574 -0.6730
  383MOL0     H50509   1.532   2.453  10.081 -0.2749 -1.4271 -2.0415
  383MOL0     H50510   1.363   2.172   9.842 -1.4435  0.4291 -0.4616
  383MOL0     H50511   1.526   2.258   9.861  0.4297  2.3890 -0.1598
  383MOL0     H50512   1.252   2.380   9.803  0.0951  1.8431 -0.2565
  383MOL0     H50513   1.377   2.316   9.687  0.6582  1.3552 -0.4250
  383MOL0     H50514   1.361   2.571   9.726 -3.2024 -0.6688  0.5542
  383MOL0     H50515   1.409   2.534   9.887  0.8046 -2.1827  0.9305
  383MOL0     H50516   1.615   2.437   9.793 -0.7891 -0.6596 -0.4609
  383MOL0     H50517   1.605   2.608   9.738  3.3257 -1.0301  0.7502
  383MOL0     H50518   1.785   2.593   9.642 -1.7863 -1.6314  1.4814
  383MOL0     H50519   1.946   2.670   9.458 -2.5536  2.7402  1.5929
  383MOL0     H50520   2.042   2.407   8.929 -2.3084 -0.0192  0.9810
  383MOL0     H50521   2.151   2.484   8.730  0.8405  0.2854  0.8178
  383MOL0     H50522   2.305   2.616   8.635 -0.6195 -0.7242  0.4672
  383MOL0     H50523   2.285   2.716   8.484 -1.2985  0.2993 -0.5740
  383MOL0     H50524   2.097   2.613   8.415 -0.2823  1.9170  0.9852
  383MOL0     H50525   2.113   2.478   8.532 -0.5640 -0.0897 -0.3772
  383MOL0     H50526   2.317   2.416   8.468 -4.3043 -2.4295  2.7127
  383MOL0     H50527   2.328   2.531   8.328  0.8024 -2.0500 -2.2423
  383MOL0     H50528   2.140   2.293   8.397 -1.2871  1.0686 -0.7489
  383MOL0     H50529   2.105   2.412   8.273 -0.2744  1.3630  0.3742
  383MOL0     H50530   2.341   2.206   8.295 -0.3791  0.0868 -0.8291
  383MOL0     H50531   2.339   2.315   8.162  1.9944  0.9705  0.9427
  383MOL0     H50532   2.144   2.232   8.069  1.6225  0.6147 -0.5791
  383MOL0     H50533   2.104   2.134   8.215 -0.8855  2.8254  0.9451
  383MOL0     H50534   2.181   2.004   8.021  3.2865 -2.5491 -0.9523
  383MOL0     H50535   2.320   2.104   8.011 -1.7637  1.3961 -1.5355
  383MOL0     H50536   2.391   1.998   8.243 -0.0115 -1.0622  1.9517
  383MOL0     H50537   2.370   1.877   8.112  1.8105  1.3553  0.9355
  383MOL0     H50538   2.010   2.889   8.782  2.2034  1.4425  0.6418
  383MOL0     H50539   1.924   2.819   8.998 -1.4816  0.5166 -0.6051
  383MOL0     H50540   1.692   2.497   9.170 -0.2866  0.1186  0.7153
  383MOL0     H50541   1.549   2.417   9.328  0.2339  1.9840 -1.1610
  383MOL0     H50542   1.318   1.766  10.743 -2.1741  0.7041 -1.5694
  383MOL0     H50543   1.077   1.758  10.720 -0.2043  1.8385 -0.5499
  383MOL0     H50544   0.711   1.611  10.660  3.0296  0.7541  1.0309
  383MOL0     H50545   0.497   1.652  10.547 -1.5403  1.6495 -0.7835
  383MOL0     H50546   0.180   1.713  10.684 -1.4502 -2.3972 -0.2448
  383MOL0     H50547   0.297   1.616  10.592  4.3239  1.8311  3.3768
  383MOL0     H50548   0.100   1.838  10.474 -0.5716 -0.6944  2.5955
  383MOL0     H50549   0.208   1.722  10.375  4.0314 -2.8992  2.1049
  383MOL0     H50550   0.001   1.650  10.576  1.6146 -1.1461  0.8457
  383MOL0     H50551   0.067   1.531  10.464 -2.5278 -0.7103  0.1004
  383MOL0     H50552  -0.108   1.772  10.366 -1.0990 -0.3937 -0.2779
  383MOL0     H50553  -0.049   1.641  10.272 -2.1143 -0.1164 -0.6881
  383MOL0     H50554  -0.359   1.433  10.484  2.3444 -1.5537  0.8082
  383MOL0     H50555   0.424   2.001  10.780 -1.7034 -1.9821  0.1023
  383MOL0     H50556   0.642   1.964  10.889  0.8945  1.8356 -1.0966
  384MOL0     O50557   8.900   6.483  10.671 -0.3090 -0.0203 -0.8126
  384MOL0     C50558   8.883   6.381  10.602  0.4773  0.7010 -0.2178
  384MOL0     O50559   8.933   6.261  10.631  0.8662  0.3321  0.5373
  384MOL0     C50560   9.014   6.249  10.731 -0.1867 -0.0091  0.6190
  384MOL0     C50561   9.157   6.247  10.721 -1.0293  0.3331 -0.8642
  384MOL0     C50562   9.236   6.232  10.835  0.0728 -1.1221  0.4277
  384MOL0     C50563   9.181   6.205  10.963  0.0092  0.0543 -0.8231
  384MOL0     O50564   9.249   6.187  11.081  0.0808  0.2304  0.3441
  384MOL0     C50565   9.391   6.153  11.073  0.0534  0.8990  0.1890
  384MOL0     C50566   9.442   6.095  11.202  0.3087  0.3015  0.1868
  384MOL0     C50567   9.373   5.955  11.231  0.1986  1.0770  0.3601
  384MOL0     C50568   9.400   5.852  11.125  0.8569  1.1751  0.4384
  384MOL0     C50569   9.375   5.713  11.179  0.1478  0.1867 -0.1737
  384MOL0     C50570   9.478   5.652  11.280 -0.9149  0.3509 -0.6351
  384MOL0     C50571   9.397   5.581  11.384  0.2740 -0.4024  0.0360
  384MOL0     C50572   9.490   5.522  11.494 -0.8048 -0.6549 -0.3372
  384MOL0     N50573   9.415   5.430  11.583 -0.3762 -0.3134  0.0927
  384MOL0     C50574   9.339   5.462  11.694 -0.9448  0.2651  0.1520
  384MOL0     C50575   9.326   5.356  11.771  0.2355 -0.2530 -0.2461
  384MOL0     C50576   9.272   5.366  11.915  0.7470 -0.1948  0.2523
  384MOL0     C50577   9.210   5.243  11.978 -0.5418  1.1635 -0.8724
  384MOL0     C50578   9.136   5.268  12.119 -0.4558 -0.4911  0.4194
  384MOL0     C50579   9.215   5.338  12.218 -0.4379  0.5615  0.4700
  384MOL0     O50580   9.351   5.292  12.212 -0.7345  0.3514 -0.0997
  384MOL0     C50581   9.441   5.348  12.294 -0.4154 -0.2010  0.4657
  384MOL0     C50582   9.567   5.371  12.252 -0.1361  0.6977 -0.0363
  384MOL0     C50583   9.665   5.421  12.336 -0.2461  1.1908 -0.6344
  384MOL0     C50584   9.647   5.437  12.472  0.1268 -0.0731  1.0929
  384MOL0     C50585   9.759   5.481  12.548  0.0849  0.4345 -0.6918
  384MOL0     O50586   9.889   5.479  12.499 -0.1430 -0.2269  0.2620
  384MOL0     C50587   9.992   5.512  12.587  0.6782 -0.3248 -0.4207
  384MOL0     C50588  10.041   5.423  12.678 -0.4529  0.6578 -1.1018
  384MOL0     C50589  10.118   5.472  12.783 -1.1304 -0.2251  0.8125
  384MOL0     C50590  10.144   5.609  12.798 -0.6182  0.5158  0.0309
  384MOL0     O50591  10.206   5.669  12.903 -0.6648 -0.2098 -0.5303
  384MOL0     C50592  10.168   5.624  13.038 -0.5508  0.3400 -0.4687
  384MOL0     C50593  10.199   5.726  13.142  0.3992 -0.4481  0.2225
  384MOL0     C50594  10.141   5.863  13.110  0.6638  0.4831 -0.1296
  384MOL0     C50595  10.205   5.961  13.220 -0.2195 -0.5841  0.4120
  384MOL0     C50596  10.175   6.110  13.190  0.2231  0.8665  0.2686
  384MOL0     C50597  10.262   6.180  13.290 -0.2120  0.3010 -0.3323
  384MOL0     C50598  10.277   6.328  13.266 -0.2218  0.2506 -0.0188
  384MOL0     C50599  10.150   6.412  13.241  0.0976 -0.1231 -0.3948
  384MOL0    Cl50600  10.191   6.584  13.260 -0.1238  0.2169 -0.0181
  384MOL0     C50601  10.094   5.699  12.703 -1.0903 -0.2434  0.2852
  384MOL0     C50602  10.022   5.648  12.596  0.2007 -0.4458  0.0627
  384MOL0     O50603   9.727   5.528  12.656 -0.2426 -0.1786  0.0974
  384MOL0     C50604   9.517   5.414  12.512 -0.3025 -0.0759  0.0523
  384MOL0     C50605   9.415   5.376  12.430  0.0438  0.0341  0.6422
  384MOL0     N50606   9.386   5.254  11.707  0.5274  0.7572  0.2216
  384MOL0     N50607   9.426   5.294  11.589 -0.4430  0.2264 -0.4538
  384MOL0     C50608   9.043   6.225  10.968 -0.3025  0.3129  0.0218
  384MOL0     C50609   8.967   6.238  10.857  0.0664  1.0409  0.4392
  384MOL0     C50610   8.793   6.402  10.489  0.8944  1.0213  0.1104
  384MOL0     C50611   8.756   6.284  10.416  0.9297 -0.4719 -0.1578
  384MOL0     C50612   8.682   6.299  10.297 -0.0299 -0.4981  0.6335
  384MOL0     C50613   8.639   6.418  10.246 -0.1789 -0.4653  0.0501
  384MOL0     O50614   8.579   6.421  10.121  0.4491  0.4599 -0.2344
  384MOL0     C50615   8.667   6.479  10.019 -0.4554  0.2843 -0.0381
  384MOL0     C50616   8.621   6.621   9.987 -0.2094  0.7559  0.2584
  384MOL0     C50617   8.538   6.620   9.865  0.9891  0.0071 -0.4121
  384MOL0     C50618   8.472   6.754   9.849  0.0852 -0.7755  1.0527
  384MOL0     C50619   8.577   6.863   9.841 -0.2177 -0.4338 -1.4857
  384MOL0     C50620   8.654   6.956   9.831  0.4146  0.1602  0.1527
  384MOL0     C50621   8.676   6.536  10.321  0.1696 -0.2904  0.0055
  384MOL0     C50622   8.763   6.523  10.434 -0.4172 -0.4472 -0.2631
  384MOL0     H50623   9.200   6.250  10.621 -1.9040  4.3741 -1.3017
  384MOL0     H50624   9.342   6.235  10.815  0.3069 -2.1811  1.3897
  384MOL0     H50625   9.454   6.240  11.054  0.9515  0.6055  1.6568
  384MOL0     H50626   9.402   6.085  10.988  0.2772  0.7363  0.3492
  384MOL0     H50627   9.420   6.172  11.276 -0.9500  0.6805 -0.5572
  384MOL0     H50628   9.549   6.071  11.197 -0.0387 -1.1359 -1.4144
  384MOL0     H50629   9.265   5.961  11.247  0.3861 -0.2800  2.4526
  384MOL0     H50630   9.425   5.923  11.321  0.3955 -1.2849 -0.5242
  384MOL0     H50631   9.343   5.875  11.034 -0.2926  1.6319  1.2394
  384MOL0     H50632   9.501   5.850  11.084 -0.5660 -1.1391 -3.4766
  384MOL0     H50633   9.362   5.648  11.092  1.2079 -1.1799  0.6603
  384MOL0     H50634   9.284   5.718  11.239  0.8493  0.7366  0.8829
  384MOL0     H50635   9.545   5.725  11.327 -0.2706 -0.0306 -0.9417
  384MOL0     H50636   9.547   5.586  11.228  1.0052  1.5302  0.3019
  384MOL0     H50637   9.325   5.646  11.435  2.6701  2.5482 -0.0491
  384MOL0     H50638   9.357   5.496  11.329  1.0871 -0.9980  0.3368
  384MOL0     H50639   9.525   5.599  11.563 -1.3763  0.2151 -0.9978
  384MOL0     H50640   9.580   5.485  11.444  0.0842  1.3281 -0.2973
  384MOL0     H50641   9.295   5.560  11.710 -1.9483  0.2178 -1.8806
  384MOL0     H50642   9.188   5.435  11.915 -0.4233 -1.5276 -1.7172
  384MOL0     H50643   9.351   5.407  11.979  0.2589 -0.7843  1.2423
  384MOL0     H50644   9.291   5.175  12.007 -0.7184  2.3805  3.1128
  384MOL0     H50645   9.141   5.194  11.908 -0.6310  2.5767 -1.8089
  384MOL0     H50646   9.050   5.329  12.092  1.2166  1.0894 -1.5713
  384MOL0     H50647   9.103   5.169  12.154 -1.1115 -1.2438 -2.1397
  384MOL0     H50648   9.175   5.308  12.315  0.2357 -0.5081  0.4379
  384MOL0     H50649   9.204   5.444  12.194 -0.6312  0.0527 -1.8593
  384MOL0     H50650   9.584   5.347  12.147  1.6918 -1.8581  0.7201
  384MOL0     H50651   9.763   5.438  12.293  0.0428 -1.1368 -1.0543
  384MOL0     H50652  10.017   5.318  12.667 -1.4456  1.0460 -2.8972
  384MOL0     H50653  10.163   5.401  12.852 -1.2857  0.9555  2.1812
  384MOL0     H50654  10.221   5.533  13.067 -0.7406  0.5391  0.5462
  384MOL0     H50655  10.066   5.586  13.038 -0.0407 -1.1050 -0.2608
  384MOL0     H50656  10.307   5.731  13.161  0.1627  0.5225  1.4374
  384MOL0     H50657  10.154   5.689  13.234 -0.8829  0.6663  0.0780
  384MOL0     H50658  10.033   5.871  13.129  1.3840  4.8223  3.9777
  384MOL0     H50659  10.170   5.882  13.006  3.5700 -1.0936  0.2973
  384MOL0     H50660  10.149   5.928  13.308 -1.6322  0.3802 -0.1036
  384MOL0     H50661  10.312   5.942  13.233 -0.0510  0.4234  0.5823
  384MOL0     H50662  10.071   6.141  13.207  1.0117  2.5530  2.5756
  384MOL0     H50663  10.211   6.138  13.090  0.0749  0.9468  0.2385
  384MOL0     H50664  10.361   6.142  13.315 -0.8078 -1.5201 -0.5675
  384MOL0     H50665  10.200   6.177  13.381 -0.4122 -0.3770 -0.4884
  384MOL0     H50666  10.321   6.368  13.358  1.4656  0.9762 -1.0938
  384MOL0     H50667  10.346   6.345  13.184 -2.5998  1.8598 -1.8367
  384MOL0     H50668  10.069   6.387  13.310  0.7522 -1.1795  0.0107
  384MOL0     H50669  10.123   6.395  13.136 -0.9201 -0.0143 -0.1657
  384MOL0     H50670  10.132   5.800  12.709 -1.9344  0.2511 -1.7096
  384MOL0     H50671   9.986   5.725  12.529 -1.7565  0.6972  2.3064
  384MOL0     H50672   9.509   5.426  12.620 -2.1759  1.4842 -0.2270
  384MOL0     H50673   9.325   5.362  12.489  0.4554  1.8938  1.8021
  384MOL0     H50674   9.003   6.221  11.068  1.4002 -0.2732  0.7100
  384MOL0     H50675   8.859   6.242  10.872 -0.0190  0.2886  0.0856
  384MOL0     H50676   8.780   6.187  10.460 -0.4919  1.1980  5.0522
  384MOL0     H50677   8.652   6.212  10.238 -2.5863  0.4805  0.3553
  384MOL0     H50678   8.668   6.417   9.929 -0.2030 -3.3715  2.2860
  384MOL0     H50679   8.774   6.479  10.043 -0.5729 -2.2248  0.7684
  384MOL0     H50680   8.578   6.682  10.067  2.4293  2.9869  0.1355
  384MOL0     H50681   8.712   6.675   9.958 -1.0120  2.1576  0.2153
  384MOL0     H50682   8.454   6.550   9.868 -1.3488  2.6826  0.9884
  384MOL0     H50683   8.604   6.600   9.780 -0.4352 -4.6822 -0.7062
  384MOL0     H50684   8.422   6.758   9.751  2.3796  0.8337 -0.1566
  384MOL0     H50685   8.399   6.771   9.929 -0.8221  0.0026  0.0896
  384MOL0     H50686   8.721   7.039   9.819 -0.9995  1.6631  2.0714
  384MOL0     H50687   8.651   6.634  10.280  0.3701 -0.2365  0.0117
  384MOL0     H50688   8.825   6.601  10.477  1.2573 -2.3032  0.8813
  385MOL0     O50689   3.747   5.686   6.369  0.9999  0.2059 -0.6324
  385MOL0     C50690   3.632   5.645   6.388 -0.2363  0.1069  0.4394
  385MOL0     O50691   3.526   5.699   6.324  0.0607  0.0208  0.0983
  385MOL0     C50692   3.549   5.770   6.209  0.7053 -0.8393 -0.2824
  385MOL0     C50693   3.618   5.891   6.213  0.6307 -0.4478  0.3496
  385MOL0     C50694   3.667   5.958   6.101 -1.0692 -0.1218  0.5577
  385MOL0     C50695   3.661   5.894   5.978  1.2661 -0.6444  0.1031
  385MOL0     O50696   3.687   5.945   5.855  0.5867 -0.4611 -0.1556
  385MOL0     C50697   3.649   6.081   5.831  1.1403  0.0160 -0.1347
  385MOL0     C50698   3.752   6.178   5.798  0.0852 -0.4768 -0.1761
  385MOL0     C50699   3.867   6.185   5.912  0.2471  1.2101 -0.3863
  385MOL0     C50700   3.984   6.258   5.860 -0.3835 -0.1241  0.2284
  385MOL0     C50701   3.964   6.399   5.800  0.5189  0.3709 -0.1925
  385MOL0     C50702   4.095   6.475   5.787  0.6045  0.0769 -0.6917
  385MOL0     C50703   4.185   6.429   5.676 -0.1236 -0.0257 -0.5510
  385MOL0     C50704   4.336   6.474   5.691 -0.6254  0.2525  0.4148
  385MOL0     N50705   4.414   6.414   5.580  0.1666 -0.5026 -0.3544
  385MOL0     C50706   4.442   6.285   5.572  0.6926  1.2513 -0.2831
  385MOL0     C50707   4.513   6.274   5.454 -0.5032  0.3166  0.0834
  385MOL0     C50708   4.562   6.130   5.416 -0.2774  0.8443 -0.1297
  385MOL0     C50709   4.620   6.113   5.272 -0.3315  0.3657 -0.0171
  385MOL0     C50710   4.732   6.010   5.258 -0.8883  0.5969  0.3642
  385MOL0     C50711   4.799   5.998   5.126  0.2896  0.3737  0.0476
  385MOL0     O50712   4.711   6.003   5.015  0.2893 -0.2655  0.8728
  385MOL0     C50713   4.754   6.054   4.892 -0.1091 -0.5522 -0.3088
  385MOL0     C50714   4.659   6.105   4.799 -0.2049 -0.2866 -1.1816
  385MOL0     C50715   4.693   6.137   4.668  0.3819 -0.5628 -0.3145
  385MOL0     C50716   4.826   6.130   4.616  0.5938 -0.0295 -0.3696
  385MOL0     C50717   4.856   6.175   4.476 -0.5233 -0.3356 -0.3872
  385MOL0     O50718   4.964   6.124   4.398  0.8458 -0.5995  0.4506
  385MOL0     C50719   4.993   6.162   4.269  0.3810 -0.4394  0.3467
  385MOL0     C50720   5.128   6.191   4.236  0.9640 -0.1583  0.3140
  385MOL0     C50721   5.163   6.221   4.100  0.0940 -0.4913  0.3468
  385MOL0     C50722   5.068   6.239   3.998 -0.2848 -0.4033  0.1086
  385MOL0     O50723   5.114   6.292   3.882 -0.1481  0.5529 -0.1115
  385MOL0     C50724   5.039   6.323   3.774  0.6115 -0.3195 -0.1404
  385MOL0     C50725   5.093   6.285   3.634  0.2794  0.0580  0.3557
  385MOL0     C50726   5.224   6.347   3.593 -0.5169  0.9859 -0.1468
  385MOL0     C50727   5.253   6.343   3.437 -0.3028 -0.1447 -0.8230
  385MOL0     C50728   5.250   6.196   3.387 -0.4556  0.8336  0.3724
  385MOL0     C50729   5.300   6.182   3.244  0.2878  0.6194  0.6763
  385MOL0     C50730   5.210   6.245   3.137 -0.4079 -0.6171  0.3202
  385MOL0     C50731   5.215   6.175   3.008 -1.5982  0.7896 -0.1645
  385MOL0    Cl50732   5.384   6.095   2.969  0.1164 -0.1302 -0.4149
  385MOL0     C50733   4.933   6.203   4.038  0.0378  0.1237 -0.2547
  385MOL0     C50734   4.903   6.164   4.164 -0.1663 -0.3132  0.4560
  385MOL0     O50735   4.782   6.264   4.445 -0.1938  0.1145  0.6053
  385MOL0     C50736   4.921   6.089   4.707  0.0436  0.3348 -0.1677
  385MOL0     C50737   4.888   6.057   4.845 -0.1464  0.8035  0.9957
  385MOL0     N50738   4.532   6.396   5.389 -0.5256 -0.1087 -0.6803
  385MOL0     N50739   4.473   6.474   5.473 -0.3680 -0.1926 -0.2330
  385MOL0     C50740   3.587   5.769   5.973  0.2528  0.6868  0.3774
  385MOL0     C50741   3.538   5.703   6.088  0.5561 -0.1136 -0.1989
  385MOL0     C50742   3.607   5.542   6.494  1.1381  0.4135 -0.3811
  385MOL0     C50743   3.480   5.482   6.519  0.1028 -0.8482  0.1975
  385MOL0     C50744   3.458   5.399   6.632  0.7293  0.4395  0.1731
  385MOL0     C50745   3.561   5.373   6.720 -0.1466 -1.2699 -0.3395
  385MOL0     O50746   3.557   5.277   6.816  0.1391  0.3496 -0.1672
  385MOL0     C50747   3.437   5.246   6.897  0.0504 -0.2654 -0.6436
  385MOL0     C50748   3.427   5.329   7.029  1.2156  0.1293 -0.0466
  385MOL0     C50749   3.290   5.298   7.104 -0.1700  0.3232 -0.1508
  385MOL0     C50750   3.278   5.366   7.242 -0.4912 -0.1549 -0.4249
  385MOL0     C50751   3.354   5.494   7.250  0.3704  0.5631  0.3274
  385MOL0     C50752   3.402   5.602   7.276 -0.3567 -0.4010  0.8559
  385MOL0     C50753   3.684   5.432   6.692  0.5894 -0.2769 -0.0101
  385MOL0     C50754   3.708   5.516   6.588 -0.5380 -0.7564 -0.0457
  385MOL0     H50755   3.627   5.931   6.313 -0.6731 -3.5729  1.8689
  385MOL0     H50756   3.701   6.061   6.099 -1.5550  0.0372 -0.4792
  385MOL0     H50757   3.588   6.124   5.911  0.2488  1.4183 -1.5218
  385MOL0     H50758   3.581   6.075   5.746  1.6992  2.0896 -0.7936
  385MOL0     H50759   3.708   6.278   5.791 -1.2658 -0.8708  1.8139
  385MOL0     H50760   3.799   6.162   5.701  0.3343  0.8443 -0.2938
  385MOL0     H50761   3.902   6.086   5.940  0.4062  1.4733  0.3554
  385MOL0     H50762   3.832   6.228   6.006  0.8946  1.5945 -0.3145
  385MOL0     H50763   4.054   6.267   5.943  0.3756  2.1700 -0.5849
  385MOL0     H50764   4.037   6.198   5.786 -1.6385  1.0520 -1.7423
  385MOL0     H50765   3.888   6.450   5.859 -0.6972  1.1905 -2.3720
  385MOL0     H50766   3.907   6.380   5.709 -1.5967 -0.9776  1.3279
  385MOL0     H50767   4.145   6.478   5.884  1.2443  5.5039 -0.9135
  385MOL0     H50768   4.063   6.576   5.760  0.4709  0.3767  0.5363
  385MOL0     H50769   4.171   6.322   5.694 -1.0491  0.2352  0.3971
  385MOL0     H50770   4.150   6.465   5.578  1.5325 -2.6611 -2.2628
  385MOL0     H50771   4.379   6.444   5.787  0.8798 -3.1328 -1.1659
  385MOL0     H50772   4.356   6.580   5.674 -0.4511  0.5437  2.2817
  385MOL0     H50773   4.414   6.204   5.639 -0.9234  0.1295 -2.1678
  385MOL0     H50774   4.474   6.066   5.427  0.2188 -0.3332 -2.4132
  385MOL0     H50775   4.626   6.099   5.499 -0.7836  2.6189  0.9781
  385MOL0     H50776   4.656   6.208   5.233 -1.2631  1.7215  2.2200
  385MOL0     H50777   4.536   6.089   5.205  0.0994  0.5393 -0.6211
  385MOL0     H50778   4.803   6.039   5.336  0.0864 -0.4948 -0.0849
  385MOL0     H50779   4.687   5.915   5.285  2.2010 -1.3338 -0.7707
  385MOL0     H50780   4.860   5.908   5.117  0.2820  0.1561  1.9326
  385MOL0     H50781   4.857   6.091   5.123 -2.6061  2.3984  1.0932
  385MOL0     H50782   4.560   6.132   4.835  0.7648  1.3734  0.4546
  385MOL0     H50783   4.614   6.170   4.601  0.8106 -1.4778 -1.2944
  385MOL0     H50784   5.201   6.198   4.316  2.9710 -1.4466 -1.2998
  385MOL0     H50785   5.264   6.257   4.083  0.5293 -1.1710  1.3501
  385MOL0     H50786   5.016   6.430   3.771 -1.1304 -0.6408  0.3863
  385MOL0     H50787   4.938   6.284   3.791 -0.9589  2.9774 -1.1377
  385MOL0     H50788   5.009   6.312   3.570  0.2331 -0.9586 -0.0279
  385MOL0     H50789   5.108   6.177   3.623  0.8862  0.3871 -3.2386
  385MOL0     H50790   5.309   6.298   3.641  0.5228  2.1104 -0.7791
  385MOL0     H50791   5.221   6.452   3.625  0.3867  0.1739  2.9432
  385MOL0     H50792   5.178   6.402   3.382 -0.5937  1.3888  1.1290
  385MOL0     H50793   5.350   6.392   3.444 -1.0164  1.0897  3.7597
  385MOL0     H50794   5.147   6.158   3.383 -0.6595  1.1827  1.7982
  385MOL0     H50795   5.305   6.131   3.455 -0.1669  0.8589  0.1650
  385MOL0     H50796   5.312   6.077   3.219 -1.7706  0.7499 -1.2326
  385MOL0     H50797   5.399   6.225   3.229  0.3663  0.8621  1.7986
  385MOL0     H50798   5.108   6.249   3.175 -2.3830  1.5693 -4.3948
  385MOL0     H50799   5.245   6.345   3.108 -2.0020 -0.2511 -0.4572
  385MOL0     H50800   5.188   6.239   2.923 -2.0695 -0.6048 -1.0878
  385MOL0     H50801   5.141   6.096   2.997 -0.6055 -0.0281 -1.2422
  385MOL0     H50802   4.856   6.214   3.962  0.9996  1.4904 -1.0726
  385MOL0     H50803   4.800   6.139   4.187 -0.6201  0.5465 -0.5309
  385MOL0     H50804   5.020   6.108   4.668  0.4540 -0.5800  0.3943
  385MOL0     H50805   4.957   6.025   4.921  0.6185 -2.5649 -0.8999
  385MOL0     H50806   3.579   5.715   5.879  0.5053 -2.3968  1.9958
  385MOL0     H50807   3.475   5.615   6.086  1.5938 -1.0996  3.4005
  385MOL0     H50808   3.401   5.517   6.453  0.2367  1.7619  1.2848
  385MOL0     H50809   3.357   5.376   6.665  0.3725 -1.1146 -1.8589
  385MOL0     H50810   3.429   5.138   6.911 -1.5653 -0.2949 -1.5565
  385MOL0     H50811   3.339   5.262   6.851  0.5241  1.0052 -1.2780
  385MOL0     H50812   3.514   5.309   7.092 -1.0509 -0.5796  3.0798
  385MOL0     H50813   3.427   5.431   6.991  0.1053  0.4909  0.9012
  385MOL0     H50814   3.288   5.189   7.117 -0.6040  0.6607  4.3556
  385MOL0     H50815   3.211   5.329   7.035  1.4696 -0.1488 -2.3478
  385MOL0     H50816   3.173   5.377   7.271 -1.1996 -3.7200 -1.0995
  385MOL0     H50817   3.304   5.291   7.318  0.0423  0.7687  0.3143
  385MOL0     H50818   3.415   5.707   7.291 -0.3429  0.1195 -2.1021
  385MOL0     H50819   3.764   5.418   6.765  0.1224 -0.2224  0.5250
  385MOL0     H50820   3.810   5.540   6.561  0.3158 -1.0216  2.5998
  386MOL0     O50821   3.980   4.223   5.493  0.0294 -0.5904 -0.2188
  386MOL0     C50822   4.052   4.126   5.469 -0.6621 -0.0260 -0.7354
  386MOL0     O50823   4.012   4.001   5.492  0.2014  0.0025 -1.2970
  386MOL0     C50824   3.891   3.957   5.526  0.6443  0.0019 -1.0677
  386MOL0     C50825   3.793   4.026   5.599 -0.1092  0.2880 -1.2163
  386MOL0     C50826   3.666   3.961   5.629 -0.0263 -0.7595  0.4354
  386MOL0     C50827   3.636   3.838   5.577  0.1230  0.1589  0.6375
  386MOL0     O50828   3.509   3.788   5.600 -0.0836 -0.2565  0.3018
  386MOL0     C50829   3.436   3.767   5.475  0.1833 -0.5928 -0.6180
  386MOL0     C50830   3.310   3.697   5.520  1.0564  0.3470 -0.0260
  386MOL0     C50831   3.238   3.638   5.391 -0.2360 -0.4440 -0.3975
  386MOL0     C50832   3.151   3.514   5.411 -0.3347 -0.3144  0.2701
  386MOL0     C50833   3.033   3.527   5.503  0.1198 -0.9081  0.5738
  386MOL0     C50834   2.925   3.615   5.439 -0.2314 -0.7179 -0.4138
  386MOL0     C50835   2.806   3.635   5.540  0.5426 -0.7133 -0.4675
  386MOL0     C50836   2.668   3.655   5.474  0.0639  1.0696  0.0088
  386MOL0     N50837   2.581   3.694   5.585 -0.1164  0.9743  0.7948
  386MOL0     C50838   2.572   3.813   5.655 -0.0362  0.2190  0.7474
  386MOL0     C50839   2.447   3.809   5.720 -0.3638 -0.7495  0.5820
  386MOL0     C50840   2.378   3.922   5.789  1.3159 -0.3963 -0.3984
  386MOL0     C50841   2.484   4.030   5.833 -0.2818 -0.3692  0.0545
  386MOL0     C50842   2.592   3.979   5.941  0.3372 -1.2769  0.1201
  386MOL0     C50843   2.546   3.873   6.044  0.9965  0.8026  1.4271
  386MOL0     O50844   2.640   3.902   6.154 -0.2365 -0.3274  0.7136
  386MOL0     C50845   2.693   3.796   6.215 -0.0515 -0.9660 -0.1243
  386MOL0     C50846   2.638   3.674   6.221  0.6073 -0.2773  0.1107
  386MOL0     C50847   2.713   3.560   6.275  0.3465 -0.1451  0.9397
  386MOL0     C50848   2.846   3.586   6.315  0.3470 -1.0966 -0.2648
  386MOL0     C50849   2.921   3.469   6.363 -0.5410 -0.5143  0.5031
  386MOL0     O50850   2.847   3.354   6.367 -0.4542  0.2263 -0.5564
  386MOL0     C50851   2.897   3.237   6.409 -0.0972  0.3332 -1.6918
  386MOL0     C50852   2.847   3.135   6.330 -0.6790  1.0574 -0.1792
  386MOL0     C50853   2.901   3.006   6.357  0.6693  0.3082 -0.2361
  386MOL0     C50854   2.984   2.978   6.463 -0.4652  0.9411 -0.0969
  386MOL0     O50855   3.034   2.849   6.498 -0.1037  0.4420  0.3108
  386MOL0     C50856   3.151   2.804   6.416  0.1318  0.3935  0.0445
  386MOL0     C50857   3.190   2.663   6.460  0.6363  0.8170 -0.5283
  386MOL0     C50858   3.328   2.624   6.406  0.0635 -0.5144  0.4914
  386MOL0     C50859   3.340   2.668   6.259  0.0690 -0.6389  0.0781
  386MOL0     C50860   3.454   2.583   6.191 -0.4661 -1.1532  0.1006
  386MOL0     C50861   3.595   2.614   6.242  0.7315  0.4430 -0.9851
  386MOL0     C50862   3.701   2.548   6.168 -0.3836 -1.1773 -0.0832
  386MOL0     C50863   3.710   2.590   6.027  0.1867 -0.1843 -0.0035
  386MOL0    Cl50864   3.884   2.577   5.997  0.1552 -0.4167 -0.2304
  386MOL0     C50865   3.043   3.082   6.537 -0.7759  0.5046 -1.0087
  386MOL0     C50866   2.999   3.215   6.522 -0.4819  0.1911  1.4477
  386MOL0     O50867   3.038   3.481   6.396  0.1784 -0.2131 -0.2075
  386MOL0     C50868   2.902   3.715   6.311 -0.5501 -0.6966 -0.6504
  386MOL0     C50869   2.827   3.815   6.263  1.0801  0.1187 -0.1104
  386MOL0     N50870   2.392   3.681   5.700  0.0923 -0.1663  1.1265
  386MOL0     N50871   2.477   3.615   5.619 -0.8021  0.5790  0.5449
  386MOL0     C50872   3.734   3.769   5.511  0.9337  0.1110  0.2075
  386MOL0     C50873   3.860   3.824   5.481 -1.0504  0.4075 -0.0084
  386MOL0     C50874   4.182   4.163   5.404 -0.6765 -0.2274 -0.5140
  386MOL0     C50875   4.242   4.068   5.324  0.5408  0.7060 -0.7539
  386MOL0     C50876   4.366   4.106   5.260 -0.7789  0.4831  1.0317
  386MOL0     C50877   4.411   4.228   5.258  0.0091 -0.4785  0.9796
  386MOL0     O50878   4.529   4.256   5.190  0.0792  0.1502  0.2762
  386MOL0     C50879   4.527   4.234   5.046  0.1138  0.3167  0.5279
  386MOL0     C50880   4.662   4.168   5.025  0.7889  0.0084  0.1896
  386MOL0     C50881   4.696   4.131   4.876  0.0375 -0.6239  0.0915
  386MOL0     C50882   4.698   4.257   4.770  0.1480 -0.0087  0.3219
  386MOL0     C50883   4.564   4.304   4.739 -0.6929  0.2082 -0.7141
  386MOL0     C50884   4.456   4.339   4.708 -0.9933  0.0634 -1.0967
  386MOL0     C50885   4.342   4.335   5.329 -1.0851 -0.0013 -0.1987
  386MOL0     C50886   4.232   4.292   5.397 -0.2925  0.9024  0.5447
  386MOL0     H50887   3.813   4.120   5.649  0.3973 -1.2961  1.8315
  386MOL0     H50888   3.587   4.002   5.691 -0.4212 -1.1539  0.1989
  386MOL0     H50889   3.500   3.733   5.393 -1.8272  0.3967 -2.7057
  386MOL0     H50890   3.394   3.861   5.439 -1.6202 -1.4953 -1.0246
  386MOL0     H50891   3.240   3.756   5.581 -1.4919  1.0311 -3.3248
  386MOL0     H50892   3.324   3.605   5.577  0.7522  1.1939  1.4675
  386MOL0     H50893   3.303   3.608   5.309 -2.6127 -1.8785 -1.8911
  386MOL0     H50894   3.181   3.724   5.354  1.0898  1.5424  1.8810
  386MOL0     H50895   3.125   3.474   5.313  1.5268  0.6981 -0.7129
  386MOL0     H50896   3.212   3.440   5.462  2.1479  1.5700  0.2647
  386MOL0     H50897   3.055   3.567   5.602 -3.3273 -1.9650  1.9289
  386MOL0     H50898   2.993   3.426   5.518  1.0650 -1.0278  2.5384
  386MOL0     H50899   2.888   3.570   5.346 -1.3536  0.7777 -0.7212
  386MOL0     H50900   2.952   3.715   5.406 -1.6882 -0.0819  0.2440
  386MOL0     H50901   2.790   3.540   5.593 -1.9633 -0.1646 -0.0822
  386MOL0     H50902   2.820   3.730   5.592 -1.6753 -1.0176  0.8291
  386MOL0     H50903   2.644   3.564   5.417  0.8742  0.0677  1.2126
  386MOL0     H50904   2.681   3.732   5.398  2.1909  0.9470  0.1828
  386MOL0     H50905   2.632   3.900   5.632 -2.0440  1.0106 -1.9731
  386MOL0     H50906   2.302   3.888   5.859 -2.7546 -0.7090 -4.5087
  386MOL0     H50907   2.305   3.968   5.721  1.5017  2.1006  0.9557
  386MOL0     H50908   2.413   4.097   5.883 -2.9823 -2.5522 -0.6017
  386MOL0     H50909   2.523   4.078   5.743  1.7455  1.1859  1.6766
  386MOL0     H50910   2.677   3.931   5.891 -1.9231 -3.6210 -1.7644
  386MOL0     H50911   2.626   4.067   5.997 -0.2213 -0.6831 -0.4636
  386MOL0     H50912   2.547   3.771   6.005  1.4508  1.0357  0.8359
  386MOL0     H50913   2.445   3.888   6.084  1.1573  2.0326  1.4038
  386MOL0     H50914   2.539   3.652   6.183 -0.8937  1.2324  2.8491
  386MOL0     H50915   2.655   3.468   6.275  0.6928 -0.3633  0.8827
  386MOL0     H50916   2.781   3.149   6.245 -3.7806 -2.8362  1.2555
  386MOL0     H50917   2.882   2.924   6.288  0.0642  1.5711 -1.6363
  386MOL0     H50918   3.235   2.870   6.437  2.9670 -2.2082 -2.1842
  386MOL0     H50919   3.131   2.816   6.309 -1.9503  0.3376  0.3868
  386MOL0     H50920   3.114   2.603   6.410 -0.9052  0.1459  2.4286
  386MOL0     H50921   3.170   2.644   6.566  0.7332 -1.1178 -0.8081
  386MOL0     H50922   3.339   2.515   6.412  2.9168 -0.5305 -2.6224
  386MOL0     H50923   3.407   2.678   6.459  1.4960 -0.9255 -1.1803
  386MOL0     H50924   3.244   2.647   6.211  0.0546 -1.7941  0.5789
  386MOL0     H50925   3.342   2.776   6.245 -1.9468 -0.8198 -2.5578
  386MOL0     H50926   3.444   2.610   6.085  2.6289 -0.7485 -0.1694
  386MOL0     H50927   3.434   2.479   6.220 -2.4687 -0.0930  2.9865
  386MOL0     H50928   3.605   2.586   6.348  1.1997 -0.9074 -1.3654
  386MOL0     H50929   3.612   2.722   6.236  1.3888  0.5208  1.1710
  386MOL0     H50930   3.790   2.590   6.215 -0.6823 -0.6218 -0.0075
  386MOL0     H50931   3.706   2.439   6.178  0.7068 -1.9370 -5.6010
  386MOL0     H50932   3.684   2.696   6.015  1.5865  0.8925  4.5690
  386MOL0     H50933   3.639   2.528   5.972 -1.2391  1.4401 -0.1076
  386MOL0     H50934   3.126   3.052   6.601 -1.2808  1.0168 -0.0874
  386MOL0     H50935   3.042   3.299   6.575 -0.4790  0.5113  0.9428
  386MOL0     H50936   2.996   3.744   6.356 -0.7699  4.5922 -2.9005
  386MOL0     H50937   2.876   3.909   6.244 -0.0132  0.4247 -1.6663
  386MOL0     H50938   3.706   3.668   5.483  1.9276  0.1110 -0.8703
  386MOL0     H50939   3.945   3.766   5.445  0.3912  0.8566  2.4852
  386MOL0     H50940   4.199   3.972   5.296 -1.3417  1.1573  0.4180
  386MOL0     H50941   4.414   4.028   5.201  0.2616  2.9782 -1.6912
  386MOL0     H50942   4.518   4.333   4.999 -2.4224 -1.0257 -2.1446
  386MOL0     H50943   4.446   4.171   5.008 -1.2087  1.0801  1.9673
  386MOL0     H50944   4.745   4.225   5.068  4.5161 -4.0707 -0.7772
  386MOL0     H50945   4.661   4.077   5.086  1.3732  0.0315  0.2403
  386MOL0     H50946   4.613   4.075   4.831  0.4735  1.2926 -3.5394
  386MOL0     H50947   4.795   4.085   4.881 -0.2259 -1.0878  1.6069
  386MOL0     H50948   4.759   4.336   4.816 -0.8709 -0.7638  3.1760
  386MOL0     H50949   4.750   4.224   4.680 -2.3101  0.7653 -1.4897
  386MOL0     H50950   4.366   4.393   4.683 -1.3503 -0.2459 -0.5065
  386MOL0     H50951   4.385   4.435   5.335  1.0173 -0.8773  0.2660
  386MOL0     H50952   4.181   4.371   5.450  1.8195  1.5614  1.7167
  387MOL0     O50953   9.343   8.172   8.292 -0.4032 -0.4645  0.0566
  387MOL0     C50954   9.278   8.222   8.389  0.9402  0.4449  0.3384
  387MOL0     O50955   9.324   8.212   8.525 -0.2140 -0.0242  0.2156
  387MOL0     C50956   9.410   8.114   8.554 -0.0512  0.2426  0.2358
  387MOL0     C50957   9.522   8.148   8.618 -0.5920 -0.2240  0.1001
  387MOL0     C50958   9.616   8.058   8.660 -0.0041 -0.2317  0.4116
  387MOL0     C50959   9.599   7.927   8.641 -0.4956  0.2588 -0.1597
  387MOL0     O50960   9.690   7.829   8.698 -0.8071 -0.7222  0.1561
  387MOL0     C50961   9.710   7.687   8.648 -0.0945 -0.7372  0.4146
  387MOL0     C50962   9.783   7.670   8.510  0.4134 -0.4857  0.8927
  387MOL0     C50963   9.919   7.741   8.522 -0.7815 -0.1148  0.6187
  387MOL0     C50964   9.986   7.731   8.384 -0.7865 -0.2812  0.6405
  387MOL0     C50965  10.116   7.811   8.402 -0.7318 -0.0808  1.5795
  387MOL0     C50966  10.192   7.823   8.275  0.6139  0.3234  0.3184
  387MOL0     C50967  10.321   7.899   8.293 -0.1107 -0.5876  0.0115
  387MOL0     C50968  10.377   7.940   8.158  0.1524  0.2083  1.0492
  387MOL0     N50969  10.402   7.830   8.069 -0.6599  0.9399 -0.5287
  387MOL0     C50970  10.401   7.840   7.933  0.5095 -0.4230  0.3536
  387MOL0     C50971  10.454   7.724   7.884 -1.0578  0.5365  0.4670
  387MOL0     C50972  10.475   7.697   7.740  1.2694  0.6525  0.9867
  387MOL0     C50973  10.345   7.606   7.690 -0.0581 -0.0233  0.0473
  387MOL0     C50974  10.348   7.610   7.539  0.0660 -0.3636  0.0738
  387MOL0     C50975  10.435   7.513   7.466 -0.9454  0.1371  0.2542
  387MOL0     O50976  10.428   7.532   7.321 -0.0187  0.2132  1.0526
  387MOL0     C50977  10.311   7.532   7.249 -0.1199 -0.0789  0.6674
  387MOL0     C50978  10.314   7.594   7.119 -0.6002  0.4847 -0.0462
  387MOL0     C50979  10.207   7.584   7.039 -0.1381  0.5755  0.2011
  387MOL0     C50980  10.090   7.511   7.081  0.1480  0.4874  1.1191
  387MOL0     C50981  10.003   7.475   6.969  1.3342 -0.3637 -0.0722
  387MOL0     O50982   9.898   7.397   7.010 -0.4115  0.0078  0.5505
  387MOL0     C50983   9.788   7.366   6.937 -0.7024  0.2150  0.1628
  387MOL0     C50984   9.688   7.290   7.012 -0.1773 -0.3401  0.8444
  387MOL0     C50985   9.561   7.269   6.955  1.1348  0.0799 -0.2545
  387MOL0     C50986   9.523   7.318   6.836  0.2055  0.5362 -0.6442
  387MOL0     O50987   9.398   7.277   6.802 -0.1261  0.3121  0.0651
  387MOL0     C50988   9.385   7.248   6.660  0.8626  0.2657  0.2227
  387MOL0     C50989   9.256   7.179   6.634  0.4668  0.2841 -0.1945
  387MOL0     C50990   9.251   7.127   6.490 -0.3966  0.6613 -0.4022
  387MOL0     C50991   9.118   7.070   6.453  0.1822 -0.5829 -0.3266
  387MOL0     C50992   9.111   7.003   6.312  0.1230  0.0835  0.5077
  387MOL0     C50993   9.180   6.862   6.307  0.3049 -0.2737 -0.0344
  387MOL0     C50994   9.152   6.793   6.177  0.4339  0.6361 -0.9037
  387MOL0     C50995   9.258   6.673   6.170 -0.7444 -0.3476  0.5670
  387MOL0    Cl50996   9.425   6.727   6.128  0.0990 -0.6909  0.1109
  387MOL0     C50997   9.621   7.378   6.763  0.2365  0.0638 -0.2254
  387MOL0     C50998   9.751   7.409   6.809 -0.2392 -0.6909  0.1141
  387MOL0     O50999  10.014   7.519   6.858  0.6772 -0.6397  0.1462
  387MOL0     C51000  10.085   7.453   7.207  0.1057 -0.0641  1.6285
  387MOL0     C51001  10.198   7.463   7.285 -0.3620 -0.2664 -0.1665
  387MOL0     N51002  10.506   7.647   7.985  0.9495  0.1677 -0.0760
  387MOL0     N51003  10.474   7.709   8.094  0.1424  0.5083 -1.2820
  387MOL0     C51004   9.493   7.883   8.562  0.4468 -1.3870 -0.0104
  387MOL0     C51005   9.398   7.975   8.515 -0.0234 -0.8614 -0.0810
  387MOL0     C51006   9.158   8.299   8.370  0.2786  0.3499  0.4109
  387MOL0     C51007   9.080   8.347   8.472  0.8163 -0.7711  0.3751
  387MOL0     C51008   8.963   8.414   8.459 -0.5860 -0.3729  0.7564
  387MOL0     C51009   8.916   8.451   8.340  0.2345  0.3560 -0.1225
  387MOL0     O51010   8.795   8.523   8.348  0.2394  0.2087  0.3095
  387MOL0     C51011   8.721   8.536   8.225 -1.3618  0.5955 -0.6618
  387MOL0     C51012   8.647   8.399   8.191  0.1956 -1.3886 -0.2361
  387MOL0     C51013   8.561   8.423   8.071 -0.1828  0.0041 -0.9817
  387MOL0     C51014   8.468   8.302   8.059 -0.9275 -0.3143  0.4424
  387MOL0     C51015   8.456   8.271   7.920  0.3023  0.2842 -0.5515
  387MOL0     C51016   8.452   8.265   7.801 -0.3946 -1.2044  0.3360
  387MOL0     C51017   8.986   8.408   8.223  0.2901 -0.3782  0.1532
  387MOL0     C51018   9.106   8.331   8.241  0.0932  0.1718 -0.6306
  387MOL0     H51019   9.540   8.252   8.641  2.7219  0.6256 -4.6278
  387MOL0     H51020   9.697   8.080   8.729  2.4284  0.9367 -2.5820
  387MOL0     H51021   9.619   7.626   8.653 -0.9541  0.5603  1.3262
  387MOL0     H51022   9.781   7.645   8.720  2.3519  1.8167 -0.3253
  387MOL0     H51023   9.718   7.697   8.427  0.9169  1.2323  1.0250
  387MOL0     H51024   9.792   7.563   8.488 -1.1659 -0.3930 -0.4135
  387MOL0     H51025   9.976   7.699   8.605 -1.4479 -1.7097  0.3031
  387MOL0     H51026   9.913   7.850   8.533 -0.0882 -0.0185  0.0808
  387MOL0     H51027  10.001   7.624   8.368 -1.7733 -0.4349  0.6737
  387MOL0     H51028   9.920   7.774   8.308  0.5811  1.7744  0.5271
  387MOL0     H51029  10.179   7.775   8.484  2.7443 -0.2519 -0.9565
  387MOL0     H51030  10.087   7.911   8.436 -5.9764 -1.1717  1.2660
  387MOL0     H51031  10.129   7.876   8.203 -1.9981 -3.1593 -0.2220
  387MOL0     H51032  10.219   7.722   8.241  0.6215  0.3692  0.1866
  387MOL0     H51033  10.301   7.988   8.353  1.3942  1.3982 -2.2156
  387MOL0     H51034  10.393   7.835   8.345 -2.3033 -2.1610  1.2737
  387MOL0     H51035  10.469   7.995   8.180 -0.2838  0.3073  2.7864
  387MOL0     H51036  10.296   7.996   8.111 -1.0760 -1.3383  1.2301
  387MOL0     H51037  10.360   7.927   7.882  1.0510  0.0609  0.7309
  387MOL0     H51038  10.558   7.630   7.716  0.3676 -0.1959  0.1450
  387MOL0     H51039  10.488   7.780   7.670  0.1294 -2.4937 -3.4054
  387MOL0     H51040  10.261   7.660   7.736 -0.2408  1.5418 -1.9524
  387MOL0     H51041  10.350   7.501   7.721  4.6374 -0.9156 -2.7878
  387MOL0     H51042  10.241   7.592   7.525 -0.5904  1.5943  1.9770
  387MOL0     H51043  10.372   7.710   7.503 -1.8774 -0.0111 -0.3859
  387MOL0     H51044  10.410   7.411   7.497 -0.4636  0.4523  1.8122
  387MOL0     H51045  10.538   7.539   7.496  1.0527 -1.2037 -4.5330
  387MOL0     H51046  10.395   7.653   7.077  1.3860 -0.7597  1.8110
  387MOL0     H51047  10.208   7.640   6.946 -0.0236 -1.5877 -1.1792
  387MOL0     H51048   9.707   7.245   7.109 -1.2551 -1.2585  0.6478
  387MOL0     H51049   9.498   7.201   7.012  2.1281 -0.7823 -0.1598
  387MOL0     H51050   9.463   7.177   6.629 -0.5049 -1.6000  0.8263
  387MOL0     H51051   9.391   7.341   6.604 -0.9676  0.0009 -0.4878
  387MOL0     H51052   9.170   7.245   6.648  0.2758 -0.3129  1.8231
  387MOL0     H51053   9.227   7.106   6.711 -1.9515 -1.0751 -2.2366
  387MOL0     H51054   9.319   7.044   6.473 -0.5682  0.6392 -0.9950
  387MOL0     H51055   9.294   7.206   6.428 -2.2129  0.5945 -1.8176
  387MOL0     H51056   9.090   6.983   6.513 -2.1276 -0.0188 -0.5166
  387MOL0     H51057   9.052   7.155   6.469  1.9296  0.9732 -0.9827
  387MOL0     H51058   9.159   7.052   6.228  1.6328 -3.8166 -1.1587
  387MOL0     H51059   9.008   6.986   6.280  0.8837  0.7991 -2.5906
  387MOL0     H51060   9.140   6.804   6.391  2.5185 -1.6664  0.1355
  387MOL0     H51061   9.288   6.875   6.314  0.7866 -3.0694 -0.9537
  387MOL0     H51062   9.050   6.753   6.165  1.0829 -1.0979 -0.9081
  387MOL0     H51063   9.174   6.862   6.095  1.4854  0.5011 -0.7427
  387MOL0     H51064   9.241   6.619   6.077 -0.2038  2.5006 -1.3300
  387MOL0     H51065   9.256   6.607   6.257  2.9328 -1.5455 -0.0796
  387MOL0     H51066   9.594   7.405   6.661  1.8215 -0.5548 -0.8366
  387MOL0     H51067   9.806   7.473   6.741  2.4376  0.3119  2.9900
  387MOL0     H51068  10.007   7.382   7.231  0.4119 -0.9229  0.1786
  387MOL0     H51069  10.199   7.424   7.386  0.8603 -3.1645 -1.1813
  387MOL0     H51070   9.467   7.780   8.540 -1.1223 -0.9503 -0.3419
  387MOL0     H51071   9.308   7.933   8.470 -0.0586 -0.3136 -0.5386
  387MOL0     H51072   9.113   8.319   8.571  2.7363 -3.1469 -0.8428
  387MOL0     H51073   8.897   8.441   8.541 -1.5859 -4.5490  1.5163
  387MOL0     H51074   8.782   8.579   8.145 -0.4126  0.5084  0.0011
  387MOL0     H51075   8.645   8.612   8.249 -1.8110 -0.2337  0.6645
  387MOL0     H51076   8.711   8.316   8.160  5.3376  2.8718 -2.7107
  387MOL0     H51077   8.583   8.369   8.275 -1.4627  0.8497 -0.6099
  387MOL0     H51078   8.630   8.450   7.990 -0.1622  3.7598  0.1249
  387MOL0     H51079   8.514   8.522   8.074 -0.3073 -0.0255 -1.5971
  387MOL0     H51080   8.487   8.210   8.115 -0.9050 -0.4657  0.1841
  387MOL0     H51081   8.361   8.322   8.075 -1.0203  0.8465 -1.3092
  387MOL0     H51082   8.457   8.284   7.696  0.3996  1.6673  0.7941
  387MOL0     H51083   8.946   8.411   8.122 -0.5239 -1.8971  0.3987
  387MOL0     H51084   9.160   8.311   8.149  0.0807  1.1950 -0.8710
  388MOL0     O51085  10.305   0.514   2.446 -0.0783 -0.6012  0.5969
  388MOL0     C51086  10.249   0.583   2.363  0.8080 -0.1052  0.4012
  388MOL0     O51087  10.297   0.708   2.315 -0.0369 -0.4559  0.8937
  388MOL0     C51088  10.423   0.746   2.326 -0.3160 -0.2874  0.3311
  388MOL0     C51089  10.502   0.738   2.444 -0.7328  0.7028  0.1431
  388MOL0     C51090  10.637   0.780   2.459 -0.7053  0.4433  0.2218
  388MOL0     C51091  10.693   0.843   2.353 -1.1760 -0.0554 -0.1558
  388MOL0     O51092  10.829   0.876   2.353 -0.0162  0.0688 -0.3348
  388MOL0     C51093  10.905   0.766   2.319 -0.2834 -0.3128 -0.4670
  388MOL0     C51094  11.050   0.810   2.315 -0.0772 -0.7515  0.4084
  388MOL0     C51095  11.162   0.704   2.325  0.5846  0.0072  1.1239
  388MOL0     C51096  11.310   0.758   2.318  0.3944  0.0825 -0.1961
  388MOL0     C51097  11.412   0.647   2.302  0.5962 -0.2404  0.1307
  388MOL0     C51098  11.550   0.708   2.299  0.4315  0.0092  0.5110
  388MOL0     C51099  11.573   0.798   2.175  1.0497  0.0769 -0.5668
  388MOL0     C51100  11.698   0.892   2.174 -0.6033  0.5148  0.6000
  388MOL0     N51101  11.661   1.033   2.183  0.1630  0.5416 -0.0094
  388MOL0     C51102  11.689   1.112   2.288  0.1991  0.0940 -0.7840
  388MOL0     C51103  11.609   1.222   2.264 -0.7107 -0.7032 -0.9360
  388MOL0     C51104  11.596   1.348   2.348 -0.6989  0.2295 -0.6745
  388MOL0     C51105  11.479   1.337   2.448  0.5322  0.7166  1.0605
  388MOL0     C51106  11.445   1.456   2.535  1.1109  0.4540 -0.1951
  388MOL0     C51107  11.336   1.419   2.634  0.7502 -0.3889 -0.0362
  388MOL0     O51108  11.373   1.306   2.718 -0.1966 -0.7599 -0.9239
  388MOL0     C51109  11.296   1.197   2.732  0.5434 -0.2836  0.0699
  388MOL0     C51110  11.315   1.130   2.849 -0.6867  0.2067 -0.0260
  388MOL0     C51111  11.267   0.990   2.863 -0.1724 -1.4780  0.0770
  388MOL0     C51112  11.202   0.933   2.757  0.1571  0.5778  1.6189
  388MOL0     C51113  11.146   0.802   2.773  0.3909  0.8617 -0.4352
  388MOL0     O51114  11.129   0.758   2.899 -1.1310 -0.2276 -0.5066
  388MOL0     C51115  11.068   0.639   2.932  0.3974 -0.2845  0.8377
  388MOL0     C51116  11.124   0.550   3.017 -0.4151 -0.3916 -0.3888
  388MOL0     C51117  11.061   0.430   3.051  0.8029  0.5295 -0.1913
  388MOL0     C51118  10.929   0.402   3.012 -0.1371 -1.0035 -0.6014
  388MOL0     O51119  10.870   0.282   3.043  0.5692 -0.0988 -0.6514
  388MOL0     C51120  10.828   0.280   3.181 -0.0645 -0.3888 -0.4009
  388MOL0     C51121  10.688   0.350   3.191  0.6761  0.2362  0.7797
  388MOL0     C51122  10.586   0.255   3.132  0.8912  0.5075  0.5914
  388MOL0     C51123  10.546   0.166   3.243  0.3050 -0.4953  0.4482
  388MOL0     C51124  10.475   0.034   3.207 -0.3272  0.5703 -0.1017
  388MOL0     C51125  10.340   0.050   3.143  0.2139  0.9937  0.2382
  388MOL0     C51126  10.243  -0.071   3.157 -0.2625 -0.4009  0.5249
  388MOL0     C51127  10.142  -0.052   3.044 -0.3944  0.3238 -0.6247
  388MOL0    Cl51128   9.990  -0.145   3.084  0.4739  0.4339 -0.1105
  388MOL0     C51129  10.881   0.492   2.911  0.3928 -0.0503  0.0380
  388MOL0     C51130  10.944   0.610   2.870 -0.8579  0.3620 -0.0443
  388MOL0     O51131  11.122   0.737   2.669 -0.1706 -0.4187 -0.6174
  388MOL0     C51132  11.161   1.023   2.648 -0.3459 -0.1359  1.0003
  388MOL0     C51133  11.214   1.149   2.629  0.8261  0.5643  0.2600
  388MOL0     N51134  11.549   1.211   2.142  0.4962  0.1578 -0.3738
  388MOL0     N51135  11.569   1.092   2.087 -0.0110 -0.0901  0.3174
  388MOL0     C51136  10.615   0.865   2.239  1.2669  0.0064  0.5305
  388MOL0     C51137  10.486   0.817   2.220  0.9011 -0.3050  1.2426
  388MOL0     C51138  10.120   0.536   2.312 -0.0949  0.1060  0.0030
  388MOL0     C51139  10.091   0.397   2.345  0.9038  0.3613 -0.2143
  388MOL0     C51140   9.975   0.333   2.301 -0.1188  0.1292  0.4573
  388MOL0     C51141   9.876   0.404   2.224 -1.1593  0.4063  0.5940
  388MOL0     O51142   9.758   0.341   2.195  0.1381  0.5666  0.0291
  388MOL0     C51143   9.681   0.407   2.096  0.3331  0.2627 -0.4058
  388MOL0     C51144   9.575   0.321   2.045  1.0467  0.2491 -0.5210
  388MOL0     C51145   9.502   0.366   1.914 -0.0616 -0.4586  1.3320
  388MOL0     C51146   9.594   0.379   1.782  0.6166 -0.7055  0.0717
  388MOL0     C51147   9.517   0.382   1.666 -1.1635 -0.3793 -0.6402
  388MOL0     C51148   9.486   0.397   1.549 -0.0155 -0.0597  0.3718
  388MOL0     C51149   9.903   0.547   2.205 -0.1314 -0.0342  0.3741
  388MOL0     C51150  10.031   0.605   2.238  1.1874  0.1278 -0.0973
  388MOL0     H51151  10.451   0.694   2.529 -0.6495 -1.2832 -0.7666
  388MOL0     H51152  10.695   0.762   2.549  1.2014 -2.6882 -1.4458
  388MOL0     H51153  10.872   0.739   2.218  1.6099 -3.8460 -0.2955
  388MOL0     H51154  10.906   0.677   2.384  0.5704 -0.9511 -1.3270
  388MOL0     H51155  11.071   0.881   2.396 -5.9372  0.9154  0.9314
  388MOL0     H51156  11.075   0.864   2.224  1.1896 -1.2027  0.4601
  388MOL0     H51157  11.134   0.626   2.253  2.0755 -2.8756  3.4160
  388MOL0     H51158  11.152   0.638   2.412 -1.4336 -1.0459  0.1752
  388MOL0     H51159  11.307   0.822   2.230  1.2206  1.3313  0.6447
  388MOL0     H51160  11.332   0.820   2.406 -1.2427  0.7378 -0.2129
  388MOL0     H51161  11.391   0.599   2.206  1.8943  0.7772 -0.6991
  388MOL0     H51162  11.403   0.575   2.384  3.4158  0.2386  0.9760
  388MOL0     H51163  11.625   0.631   2.318 -2.1881 -2.6415  0.9205
  388MOL0     H51164  11.568   0.772   2.386 -1.7304 -1.0068  1.7814
  388MOL0     H51165  11.589   0.727   2.093 -1.1807 -0.8941 -0.2449
  388MOL0     H51166  11.481   0.849   2.145  1.4303  1.1471  0.0200
  388MOL0     H51167  11.767   0.874   2.090  1.7999 -0.1053  2.5781
  388MOL0     H51168  11.776   0.868   2.247  2.0145  0.2599 -2.0638
  388MOL0     H51169  11.758   1.087   2.368  1.0228 -0.6286 -1.6986
  388MOL0     H51170  11.582   1.431   2.277  2.0418  1.4649  0.1136
  388MOL0     H51171  11.690   1.357   2.402  0.2006 -4.3706 -1.0561
  388MOL0     H51172  11.497   1.251   2.514  0.3155  1.7939  2.5879
  388MOL0     H51173  11.382   1.327   2.400  0.0583  0.2688  2.0858
  388MOL0     H51174  11.533   1.480   2.596  1.6333  0.5154 -0.9715
  388MOL0     H51175  11.423   1.546   2.478  1.3526  2.5766  2.8031
  388MOL0     H51176  11.242   1.394   2.583  0.4149 -1.6093  1.1017
  388MOL0     H51177  11.303   1.489   2.712 -3.6002 -0.5371 -1.4531
  388MOL0     H51178  11.381   1.163   2.929  1.1217  1.2369 -1.8419
  388MOL0     H51179  11.309   0.939   2.950  2.5719  1.1699  0.4882
  388MOL0     H51180  11.213   0.588   3.067 -2.4459  0.0989  3.2547
  388MOL0     H51181  11.097   0.355   3.120 -3.1545 -1.5914 -0.1170
  388MOL0     H51182  10.900   0.328   3.247  0.7845 -2.7130  0.4637
  388MOL0     H51183  10.813   0.176   3.211 -0.6922 -0.3091 -0.4250
  388MOL0     H51184  10.691   0.438   3.127  3.5771 -0.8499 -0.7568
  388MOL0     H51185  10.650   0.376   3.291 -0.1620 -1.3726  0.9149
  388MOL0     H51186  10.625   0.197   3.048 -0.2450 -1.5281  1.3780
  388MOL0     H51187  10.496   0.310   3.105  1.0596  0.9045  0.8350
  388MOL0     H51188  10.636   0.151   3.304  0.5030 -0.3554  0.1929
  388MOL0     H51189  10.479   0.218   3.311  1.1148  0.8417  0.2469
  388MOL0     H51190  10.468  -0.012   3.306  1.9355  1.2213  0.4261
  388MOL0     H51191  10.543  -0.026   3.145 -0.0843  1.2459 -0.5078
  388MOL0     H51192  10.353   0.066   3.035  0.8556 -3.6381 -0.6017
  388MOL0     H51193  10.301   0.145   3.179  0.9622  0.8227  1.5479
  388MOL0     H51194  10.296  -0.166   3.143  3.4254  1.4920  0.4640
  388MOL0     H51195  10.197  -0.074   3.256  3.1115  1.0136  2.2913
  388MOL0     H51196  10.200  -0.078   2.955  1.4565  2.8153 -0.2588
  388MOL0     H51197  10.114   0.054   3.037 -0.6126  0.4614  1.5000
  388MOL0     H51198  10.781   0.471   2.874  1.3237 -1.4933 -1.8251
  388MOL0     H51199  10.902   0.669   2.789  0.3431  0.2431 -0.7785
  388MOL0     H51200  11.108   0.981   2.563  0.3941 -0.7504  0.8350
  388MOL0     H51201  11.207   1.198   2.533 -2.5315 -1.1810 -0.5394
  388MOL0     H51202  10.641   0.904   2.141 -0.5323 -1.6177 -0.6912
  388MOL0     H51203  10.427   0.830   2.130  1.4527  3.3197  1.2582
  388MOL0     H51204  10.168   0.343   2.400 -0.0959  0.4630  1.3672
  388MOL0     H51205   9.967   0.226   2.318  2.5538  0.1354  2.5326
  388MOL0     H51206   9.745   0.436   2.012 -0.5265 -0.3230 -1.2920
  388MOL0     H51207   9.631   0.491   2.145 -4.4640 -2.2295 -0.4057
  388MOL0     H51208   9.617   0.223   2.023 -0.9193 -0.8135  0.2710
  388MOL0     H51209   9.505   0.325   2.129  2.6256  4.0226  0.8509
  388MOL0     H51210   9.456   0.465   1.925  0.7195 -0.0049  0.6294
  388MOL0     H51211   9.433   0.283   1.896  0.4415 -0.8509  1.2031
  388MOL0     H51212   9.653   0.471   1.788 -0.2693  0.1582 -2.8250
  388MOL0     H51213   9.676   0.308   1.781 -0.0344 -1.4993  0.9475
  388MOL0     H51214   9.448   0.411   1.450 -0.8510  0.2134  0.7223
  388MOL0     H51215   9.830   0.611   2.157  0.2433 -1.2795 -2.0042
  388MOL0     H51216  10.028   0.712   2.220 -1.9159  0.2294  0.3956
  389MOL0     O51217  10.723   2.761   8.635  1.2024 -0.4487  0.0162
  389MOL0     C51218  10.797   2.666   8.664  1.0259  0.4861  0.5374
  389MOL0     O51219  10.916   2.676   8.731 -0.1661  0.0666  0.0224
  389MOL0     C51220  10.969   2.798   8.756  0.3372  0.0974 -0.1123
  389MOL0     C51221  11.098   2.823   8.710  0.1650  0.3002  0.0053
  389MOL0     C51222  11.170   2.937   8.752 -0.5410 -0.4967 -1.2359
  389MOL0     C51223  11.107   3.028   8.832  0.2609 -0.5589  0.3440
  389MOL0     O51224  11.168   3.145   8.870  0.1180 -0.3505 -0.1035
  389MOL0     C51225  11.106   3.260   8.804  0.7629  0.5643  0.7404
  389MOL0     C51226  11.190   3.391   8.836  0.4769  0.5751 -0.3213
  389MOL0     C51227  11.191   3.416   8.990  0.7357 -0.4214  0.0073
  389MOL0     C51228  11.053   3.447   9.043 -0.1810  0.7564  0.2853
  389MOL0     C51229  11.058   3.515   9.175  0.9921  0.5801 -0.2935
  389MOL0     C51230  11.112   3.425   9.291  0.5139 -0.3627 -0.0698
  389MOL0     C51231  11.120   3.519   9.419  0.6546 -0.3510  0.4463
  389MOL0     C51232  11.136   3.435   9.543 -0.4262 -0.3485 -0.1270
  389MOL0     N51233  11.166   3.530   9.649  0.5286 -0.2117 -0.2243
  389MOL0     C51234  11.090   3.628   9.704 -0.4947  0.1046  0.5792
  389MOL0     C51235  11.167   3.674   9.804  0.2444 -0.1691 -0.0469
  389MOL0     C51236  11.118   3.777   9.907 -0.2313  1.1460 -0.4731
  389MOL0     C51237  11.046   3.893   9.826  0.0531 -0.1387 -1.0392
  389MOL0     C51238  11.148   3.979   9.766  0.4271 -0.5650  0.2671
  389MOL0     C51239  11.079   4.060   9.651  0.8068 -0.7495  0.6068
  389MOL0     O51240  10.958   4.116   9.708 -0.0239  0.2841 -0.1033
  389MOL0     C51241  10.946   4.234   9.769 -0.5603 -0.3545 -0.1985
  389MOL0     C51242  10.823   4.263   9.822 -0.1135  0.6821  1.2131
  389MOL0     C51243  10.805   4.371   9.905  1.3968 -0.7654  0.8408
  389MOL0     C51244  10.908   4.463   9.922  0.7076 -0.3625  0.1918
  389MOL0     C51245  10.878   4.582   9.998 -0.0121  0.0709  0.6350
  389MOL0     O51246  10.743   4.601  10.038  0.3469  0.8424  0.4518
  389MOL0     C51247  10.708   4.712  10.116  0.4468  0.3806  0.1096
  389MOL0     C51248  10.682   4.838  10.060 -0.0728 -0.4288 -0.0277
  389MOL0     C51249  10.650   4.940  10.157 -0.0665  1.2302  0.5208
  389MOL0     C51250  10.640   4.918  10.299  0.0501  0.0812  0.0926
  389MOL0     O51251  10.599   5.003  10.398  0.2253  0.2565 -0.1894
  389MOL0     C51252  10.588   5.143  10.377  0.2408 -0.6698  0.2215
  389MOL0     C51253  10.658   5.211  10.490 -0.7617  0.0298  0.4935
  389MOL0     C51254  10.758   5.321  10.453 -0.4788  1.9115  0.4370
  389MOL0     C51255  10.680   5.441  10.389  0.1125 -0.2646  0.3222
  389MOL0     C51256  10.762   5.543  10.308  0.0369  0.4278  0.2424
  389MOL0     C51257  10.867   5.480  10.215  1.0318  0.1482  1.3591
  389MOL0     C51258  10.817   5.381  10.111 -0.2321 -0.0735  0.7281
  389MOL0     C51259  10.777   5.455   9.984  0.9401 -0.5860 -0.1983
  389MOL0    Cl51260  10.738   5.331   9.855 -0.4042 -0.5097 -0.3786
  389MOL0     C51261  10.676   4.792  10.345  0.7402  0.9456 -0.0555
  389MOL0     C51262  10.698   4.684  10.251  1.2294 -0.7870 -0.4435
  389MOL0     O51263  10.965   4.664  10.012 -0.2741  0.1064 -0.4563
  389MOL0     C51264  11.031   4.439   9.852  1.4614 -0.7409 -0.3741
  389MOL0     C51265  11.047   4.319   9.790  1.8856 -0.1881 -0.1448
  389MOL0     N51266  11.280   3.611   9.801 -0.6288 -0.1979 -0.5231
  389MOL0     N51267  11.278   3.522   9.718  0.1660  0.3755 -0.4358
  389MOL0     C51268  10.979   3.007   8.890 -0.0034  0.0534  0.7375
  389MOL0     C51269  10.915   2.885   8.856  0.4556  0.5034 -0.2627
  389MOL0     C51270  10.768   2.532   8.601 -0.9202 -0.2507 -0.5279
  389MOL0     C51271  10.662   2.507   8.521  0.8734  0.8224 -0.1989
  389MOL0     C51272  10.628   2.379   8.464  0.0410  0.7921 -0.5331
  389MOL0     C51273  10.723   2.278   8.484 -0.2928 -0.5273 -0.2429
  389MOL0     O51274  10.690   2.159   8.418  0.4952 -0.1882 -0.2920
  389MOL0     C51275  10.794   2.055   8.399 -0.5356 -0.7351 -0.2201
  389MOL0     C51276  10.741   1.929   8.352 -0.4816  0.0035 -0.5403
  389MOL0     C51277  10.641   1.871   8.447  0.2879 -0.9770  1.6073
  389MOL0     C51278  10.703   1.766   8.535 -0.2618 -0.7122 -0.1961
  389MOL0     C51279  10.762   1.823   8.651 -0.7948  0.7809  0.9034
  389MOL0     C51280  10.803   1.910   8.730 -0.8264  0.7300  0.5147
  389MOL0     C51281  10.839   2.298   8.567 -0.4079 -0.6037  0.2772
  389MOL0     C51282  10.853   2.424   8.627 -0.4657  0.0698  0.1794
  389MOL0     H51283  11.139   2.750   8.641  1.8573  3.3905 -2.5358
  389MOL0     H51284  11.270   2.968   8.724 -0.3291 -1.1494 -1.2320
  389MOL0     H51285  11.000   3.276   8.824  0.4217 -2.3465  1.7982
  389MOL0     H51286  11.114   3.244   8.696 -0.0163 -2.8233  1.0524
  389MOL0     H51287  11.138   3.471   8.783  1.0269 -1.6662 -4.7119
  389MOL0     H51288  11.291   3.385   8.795 -0.4763  0.9979 -2.8930
  389MOL0     H51289  11.253   3.504   9.007 -0.8933  0.4589  1.8397
  389MOL0     H51290  11.221   3.331   9.052 -0.1072  0.2445  1.3976
  389MOL0     H51291  11.003   3.511   8.970  1.8401 -1.6096 -3.5383
  389MOL0     H51292  11.009   3.347   9.049  2.3252 -0.6734 -2.4187
  389MOL0     H51293  10.952   3.532   9.194  0.0415 -1.3310 -3.2806
  389MOL0     H51294  11.113   3.609   9.185  0.3631  0.8003  1.4971
  389MOL0     H51295  11.216   3.397   9.271  1.3536  2.2117  0.3225
  389MOL0     H51296  11.056   3.335   9.319  0.2630  0.2585  1.5175
  389MOL0     H51297  11.205   3.587   9.420 -0.5842  1.2915 -0.8772
  389MOL0     H51298  11.032   3.584   9.427  0.9315 -0.1058  1.7772
  389MOL0     H51299  11.219   3.364   9.547  1.4123  1.5245 -2.1939
  389MOL0     H51300  11.033   3.409   9.570 -0.4485 -0.8044 -0.6385
  389MOL0     H51301  10.993   3.651   9.661 -1.0711  0.1042  1.8528
  389MOL0     H51302  11.199   3.812   9.971 -0.7667 -2.2999  2.3989
  389MOL0     H51303  11.050   3.726   9.975  1.7026  0.1112  0.7938
  389MOL0     H51304  10.982   3.943   9.899 -0.8415  1.2531 -2.7077
  389MOL0     H51305  10.977   3.854   9.751 -2.2570 -0.7267  1.2406
  389MOL0     H51306  11.201   4.043   9.838  4.5887 -4.0214  0.6707
  389MOL0     H51307  11.224   3.915   9.720 -0.9192 -2.2938  0.3452
  389MOL0     H51308  11.063   3.978   9.580  0.0456 -0.7524  0.7690
  389MOL0     H51309  11.140   4.131   9.594  2.4036 -2.4378  0.1170
  389MOL0     H51310  10.743   4.204   9.779  1.9249  0.4935 -2.7762
  389MOL0     H51311  10.705   4.388   9.943  0.2251 -3.4786 -0.6979
  389MOL0     H51312  10.669   4.855   9.954  0.8007 -1.6294 -0.3460
  389MOL0     H51313  10.606   5.031  10.117 -2.6486 -0.4954 -0.8690
  389MOL0     H51314  10.483   5.173  10.378  0.3024 -0.4527  0.4283
  389MOL0     H51315  10.628   5.182  10.283  0.3823 -1.4583 -0.0508
  389MOL0     H51316  10.711   5.130  10.542  0.5126 -0.1004 -0.9401
  389MOL0     H51317  10.577   5.238  10.558  0.5339 -0.3347  2.2707
  389MOL0     H51318  10.839   5.283  10.389 -1.4169 -0.0498  0.3225
  389MOL0     H51319  10.809   5.372  10.535  1.7375  2.2135 -1.0398
  389MOL0     H51320  10.599   5.406  10.324  0.1823 -1.1102  0.6684
  389MOL0     H51321  10.638   5.493  10.475  3.2607  4.0426 -0.3982
  389MOL0     H51322  10.808   5.612  10.379 -0.3249  1.2725 -0.3321
  389MOL0     H51323  10.685   5.597  10.253 -1.5677 -2.4384 -0.5424
  389MOL0     H51324  10.934   5.419  10.276  0.0625 -0.6586  1.6537
  389MOL0     H51325  10.930   5.559  10.173 -1.1841  1.6412  0.6532
  389MOL0     H51326  10.904   5.321  10.084 -0.9238 -0.2305 -1.3309
  389MOL0     H51327  10.741   5.312  10.150 -0.2462 -2.0874 -2.5105
  389MOL0     H51328  10.861   5.518   9.954  0.7584 -0.4540 -0.4407
  389MOL0     H51329  10.692   5.524   9.992  2.0114  1.0995 -2.2316
  389MOL0     H51330  10.676   4.764  10.449  3.7248 -2.4631 -0.7585
  389MOL0     H51331  10.696   4.583  10.290  1.0160  0.3919  2.8919
  389MOL0     H51332  11.105   4.519   9.848  0.0130  0.5902 -2.0945
  389MOL0     H51333  11.145   4.284   9.760  1.6780 -0.7827 -0.1402
  389MOL0     H51334  10.939   3.088   8.951  1.8273  1.5531  0.0485
  389MOL0     H51335  10.818   2.872   8.904  0.6062  3.2627  1.0311
  389MOL0     H51336  10.593   2.589   8.506 -1.7911 -1.4481 -1.5200
  389MOL0     H51337  10.540   2.373   8.401  0.3990  2.2141 -1.2064
  389MOL0     H51338  10.854   2.044   8.490 -0.2706  1.3920 -0.0886
  389MOL0     H51339  10.868   2.095   8.330  0.3571  0.1941  1.2202
  389MOL0     H51340  10.686   1.938   8.258 -1.6548  0.5703  0.1817
  389MOL0     H51341  10.823   1.863   8.321  0.7535  0.9554  0.5447
  389MOL0     H51342  10.554   1.839   8.389  0.0831  3.0246 -0.6268
  389MOL0     H51343  10.599   1.954   8.504  0.5434  0.4065 -0.1318
  389MOL0     H51344  10.632   1.690   8.568 -1.2588  0.6652  0.9199
  389MOL0     H51345  10.781   1.710   8.481  0.9060 -0.0665  0.7729
  389MOL0     H51346  10.840   1.993   8.786  0.1942  0.2440  0.5790
  389MOL0     H51347  10.908   2.219   8.591  1.8348  1.4156  0.8522
  389MOL0     H51348  10.938   2.430   8.695 -1.8734 -2.2522  2.3160
  390MOL0     O51349   7.227   7.297   4.784  0.1589 -0.4369 -0.0485
  390MOL0     C51350   7.267   7.208   4.860 -0.2609  0.8866 -0.1737
  390MOL0     O51351   7.362   7.219   4.959 -0.0307  0.3813  0.0720
  390MOL0     C51352   7.429   7.338   4.987  0.4630  0.3003 -0.3971
  390MOL0     C51353   7.349   7.435   5.050  0.2758 -0.1700 -0.8193
  390MOL0     C51354   7.410   7.558   5.080 -1.7139  0.2763 -0.4750
  390MOL0     C51355   7.553   7.579   5.072 -0.0852  0.0164 -0.8246
  390MOL0     O51356   7.601   7.706   5.097  0.1071 -0.6073 -0.5127
  390MOL0     C51357   7.706   7.761   5.016  0.3191 -0.6331 -0.1218
  390MOL0     C51358   7.660   7.900   4.962 -0.2410  0.2738 -0.2904
  390MOL0     C51359   7.671   8.021   5.054 -1.0215  0.1866  0.2328
  390MOL0     C51360   7.820   8.043   5.098 -0.0487 -0.3964  0.3333
  390MOL0     C51361   7.889   8.151   4.989  0.4791  0.3755 -0.5017
  390MOL0     C51362   8.030   8.190   5.036 -0.4235  0.5122 -0.0765
  390MOL0     C51363   8.092   8.301   4.942  0.2994 -0.6490 -0.3675
  390MOL0     C51364   8.142   8.424   5.021 -0.0867  0.4930  0.9000
  390MOL0     N51365   8.230   8.511   4.948 -0.3189 -0.6426  0.1679
  390MOL0     C51366   8.191   8.574   4.833  0.2139 -0.0473  0.4249
  390MOL0     C51367   8.289   8.660   4.807 -0.5261  0.1500  0.8791
  390MOL0     C51368   8.303   8.760   4.691 -0.5410 -0.9815 -0.1982
  390MOL0     C51369   8.388   8.688   4.582 -0.2913 -0.3132  0.3935
  390MOL0     C51370   8.510   8.765   4.510  0.0662  0.6415 -0.3272
  390MOL0     C51371   8.621   8.796   4.614 -1.2727 -0.1837  0.0358
  390MOL0     O51372   8.711   8.682   4.639  0.4039  0.0902 -0.2858
  390MOL0     C51373   8.820   8.689   4.715 -0.1794 -0.6149 -0.3189
  390MOL0     C51374   8.895   8.576   4.731 -1.5036  0.3856 -0.3288
  390MOL0     C51375   9.007   8.574   4.824  0.6612 -0.4939 -0.1766
  390MOL0     C51376   9.027   8.686   4.909  0.0872 -0.2310  0.7385
  390MOL0     C51377   9.117   8.678   5.025  0.0778 -1.6636 -0.5755
  390MOL0     O51378   9.144   8.800   5.091 -0.9308  0.6190  0.4090
  390MOL0     C51379   9.199   8.813   5.220  0.5135 -0.7578 -0.2553
  390MOL0     C51380   9.251   8.712   5.305  0.6787 -0.6751  1.2390
  390MOL0     C51381   9.290   8.744   5.434 -0.5229  0.8666 -0.1841
  390MOL0     C51382   9.298   8.873   5.483 -0.2061 -0.6132 -0.5119
  390MOL0     O51383   9.383   8.912   5.579 -0.5583  0.3103 -0.6281
  390MOL0     C51384   9.356   8.866   5.713 -0.1578 -0.6484 -0.7435
  390MOL0     C51385   9.454   8.884   5.820  0.1575  0.7230  0.1639
  390MOL0     C51386   9.399   8.846   5.953 -0.4489 -0.3358 -0.0708
  390MOL0     C51387   9.498   8.867   6.080 -0.6867 -0.6468 -0.3993
  390MOL0     C51388   9.453   8.777   6.200  0.0782  0.2288  0.0283
  390MOL0     C51389   9.549   8.790   6.324  0.3785  1.0056 -0.7875
  390MOL0     C51390   9.592   8.932   6.364 -0.7111  0.2409 -0.0061
  390MOL0     C51391   9.693   8.918   6.480  0.5318 -0.8891  0.8678
  390MOL0    Cl51392   9.620   8.863   6.635  0.2074 -0.0610 -0.2707
  390MOL0     C51393   9.243   8.975   5.396 -0.0449  0.0226  0.3612
  390MOL0     C51394   9.193   8.946   5.268  1.3084  0.2877 -0.2643
  390MOL0     O51395   9.164   8.568   5.061 -0.3795 -0.3671 -0.3749
  390MOL0     C51396   8.950   8.800   4.891 -0.6408  1.1332 -1.1453
  390MOL0     C51397   8.851   8.805   4.791  0.4725  0.2383  0.4153
  390MOL0     N51398   8.396   8.646   4.904 -0.3027  0.6703  0.2532
  390MOL0     N51399   8.355   8.555   4.982  0.4119  0.4480 -0.1925
  390MOL0     C51400   7.633   7.466   5.026 -0.0726 -0.6091 -0.2467
  390MOL0     C51401   7.569   7.349   4.985  0.1562 -0.8908 -0.9044
  390MOL0     C51402   7.217   7.075   4.824  0.7419  0.7644  0.1597
  390MOL0     C51403   7.192   7.030   4.685 -0.7068  0.2700 -0.0447
  390MOL0     C51404   7.129   6.903   4.660 -0.7380 -0.0736  0.4892
  390MOL0     C51405   7.104   6.822   4.770 -0.6375 -0.0403  0.5016
  390MOL0     O51406   7.044   6.704   4.764 -0.1632 -0.1955 -0.3254
  390MOL0     C51407   7.057   6.626   4.641  0.3504  0.2840  0.4010
  390MOL0     C51408   6.995   6.491   4.682  0.6505  0.2244  0.0353
  390MOL0     C51409   6.978   6.410   4.556 -0.6624 -0.4895 -0.2119
  390MOL0     C51410   6.918   6.275   4.588  0.8298 -0.2594  1.0767
  390MOL0     C51411   7.004   6.199   4.680 -0.3417 -0.5477 -1.2253
  390MOL0     C51412   7.083   6.136   4.755 -0.9233  0.5295 -0.9226
  390MOL0     C51413   7.143   6.852   4.901  1.3109 -0.2065  0.5871
  390MOL0     C51414   7.183   6.986   4.933 -0.0438  0.3996  0.5668
  390MOL0     H51415   7.244   7.416   5.067  0.4888 -1.6226 -0.9648
  390MOL0     H51416   7.359   7.642   5.125  0.4306  1.7303 -0.6280
  390MOL0     H51417   7.725   7.697   4.929  0.3579 -0.7690 -0.0151
  390MOL0     H51418   7.805   7.771   5.062  1.0048  4.7804 -2.0063
  390MOL0     H51419   7.551   7.898   4.950 -0.5717  0.7826  2.1814
  390MOL0     H51420   7.703   7.918   4.863 -1.0822 -0.4459 -0.7974
  390MOL0     H51421   7.611   7.989   5.141 -1.0027 -0.4683  0.0126
  390MOL0     H51422   7.627   8.111   5.009  1.8571  0.8482 -1.4676
  390MOL0     H51423   7.810   8.094   5.194  1.1607  1.5041 -0.5037
  390MOL0     H51424   7.885   7.958   5.120 -0.2749  0.1165  3.3408
  390MOL0     H51425   7.826   8.240   4.980 -0.1639 -0.1971 -2.0513
  390MOL0     H51426   7.884   8.104   4.890  0.6126 -1.4214  0.3182
  390MOL0     H51427   8.084   8.095   5.035 -1.7613 -0.3145  1.4178
  390MOL0     H51428   8.026   8.221   5.141 -1.0361 -0.6231  0.2511
  390MOL0     H51429   8.160   8.245   4.877 -1.2217 -0.0994 -2.5388
  390MOL0     H51430   8.011   8.324   4.872  1.7243 -2.1488 -2.6179
  390MOL0     H51431   8.198   8.400   5.112  1.7095 -2.8741 -0.9042
  390MOL0     H51432   8.046   8.467   5.049  0.0631  0.4243  1.5354
  390MOL0     H51433   8.101   8.571   4.772 -0.6933 -0.8533  1.7319
  390MOL0     H51434   8.353   8.848   4.735  0.1016  0.3435 -3.3127
  390MOL0     H51435   8.198   8.778   4.667 -1.1007 -3.2918  0.2872
  390MOL0     H51436   8.311   8.656   4.511 -1.5805 -1.1327  2.0858
  390MOL0     H51437   8.429   8.598   4.629  0.2493  0.3421  1.1950
  390MOL0     H51438   8.552   8.698   4.435 -3.1046 -1.6517 -0.2731
  390MOL0     H51439   8.474   8.861   4.473 -1.2471  0.8360  1.3074
  390MOL0     H51440   8.573   8.825   4.707 -0.1123 -0.2234  0.6707
  390MOL0     H51441   8.680   8.880   4.576 -2.0876  1.6597  2.6052
  390MOL0     H51442   8.867   8.493   4.667 -2.5209 -0.6870  1.4329
  390MOL0     H51443   9.061   8.480   4.836 -2.3601 -2.3971 -0.3613
  390MOL0     H51444   9.264   8.612   5.265  2.3569  0.4998 -1.4539
  390MOL0     H51445   9.339   8.672   5.499 -1.9110 -0.6081 -0.6884
  390MOL0     H51446   9.329   8.761   5.697 -0.4978 -0.1880 -3.9772
  390MOL0     H51447   9.265   8.920   5.743  1.0241  0.7713  0.3999
  390MOL0     H51448   9.480   8.990   5.822  3.5464  0.0100  0.0958
  390MOL0     H51449   9.540   8.822   5.792 -1.2581 -0.3576 -2.0383
  390MOL0     H51450   9.365   8.742   5.950 -0.5611 -0.3479  1.2131
  390MOL0     H51451   9.320   8.919   5.971  0.8359  1.2841 -0.7469
  390MOL0     H51452   9.600   8.834   6.061 -1.5916 -2.9167 -1.7723
  390MOL0     H51453   9.485   8.972   6.107 -2.8085 -0.6367 -1.2684
  390MOL0     H51454   9.444   8.673   6.169 -4.9437  0.6801 -0.8145
  390MOL0     H51455   9.355   8.811   6.235  0.0118 -0.5064  0.5574
  390MOL0     H51456   9.639   8.734   6.293 -0.8869 -1.3209 -0.5223
  390MOL0     H51457   9.496   8.744   6.408 -1.9375  0.6403 -2.3594
  390MOL0     H51458   9.634   8.981   6.276 -3.0230 -1.0155 -1.9291
  390MOL0     H51459   9.502   8.983   6.402 -0.6887 -0.4712  1.0417
  390MOL0     H51460   9.735   9.019   6.490  0.8169 -0.9868  0.6639
  390MOL0     H51461   9.773   8.854   6.444  2.1988  1.3025  0.4216
  390MOL0     H51462   9.248   9.078   5.429  1.2122  0.6050 -1.4832
  390MOL0     H51463   9.152   9.020   5.200  2.1194  1.8093  0.8425
  390MOL0     H51464   8.957   8.886   4.957  2.1674  0.8080 -0.8793
  390MOL0     H51465   8.795   8.897   4.776 -1.1993 -1.1482 -2.7735
  390MOL0     H51466   7.738   7.478   5.000 -0.2126  0.1440 -0.4903
  390MOL0     H51467   7.614   7.256   4.950 -3.4846 -3.4577  0.5575
  390MOL0     H51468   7.214   7.113   4.619 -0.0253  2.4838  2.7947
  390MOL0     H51469   7.102   6.868   4.561 -0.4835  0.7026  0.1376
  390MOL0     H51470   7.163   6.607   4.620  0.1897 -0.9478  0.6361
  390MOL0     H51471   7.004   6.676   4.560 -1.2691  0.7517  1.6874
  390MOL0     H51472   7.069   6.446   4.749  0.9930 -1.7213 -1.5523
  390MOL0     H51473   6.898   6.500   4.732  0.6113  1.0266 -0.1637
  390MOL0     H51474   7.073   6.414   4.502 -0.1080 -0.2443  0.7494
  390MOL0     H51475   6.900   6.463   4.501 -0.2211 -0.8218 -1.1664
  390MOL0     H51476   6.812   6.287   4.615  0.3009 -0.7165 -0.6943
  390MOL0     H51477   6.926   6.223   4.493  0.1096  0.0482  0.8398
  390MOL0     H51478   7.132   6.082   4.833  0.4786 -0.5862 -2.5187
  390MOL0     H51479   7.119   6.773   4.971 -0.3104 -1.3888 -1.1841
  390MOL0     H51480   7.188   7.016   5.037 -2.3215 -0.3484  0.9445
  391MOL0     O51481   3.441   2.310  10.478  0.1061  0.4418  0.1980
  391MOL0     C51482   3.545   2.355  10.427  0.5247  0.1661  0.0949
  391MOL0     O51483   3.660   2.280  10.397  0.8343  0.1840  0.4474
  391MOL0     C51484   3.649   2.146  10.397 -0.3992 -0.5014  0.0905
  391MOL0     C51485   3.650   2.075  10.278  0.4427 -0.8542 -0.3038
  391MOL0     C51486   3.660   1.939  10.280 -0.4924  0.5518  0.3831
  391MOL0     C51487   3.682   1.868  10.390 -0.2669  0.1649 -0.1527
  391MOL0     O51488   3.700   1.732  10.371 -0.0186 -0.1283 -0.0368
  391MOL0     C51489   3.621   1.645  10.460  0.6365  0.8933  0.5289
  391MOL0     C51490   3.564   1.532  10.370 -0.3654  0.3831 -0.3098
  391MOL0     C51491   3.446   1.574  10.285 -0.7857 -0.7569 -0.5544
  391MOL0     C51492   3.312   1.573  10.371 -0.7562 -1.0140  0.4532
  391MOL0     C51493   3.215   1.668  10.298  0.1730  0.7962 -0.2111
  391MOL0     C51494   3.083   1.711  10.371  0.5126 -0.1568 -0.1563
  391MOL0     C51495   2.996   1.811  10.279  0.1964  0.4684 -0.7295
  391MOL0     C51496   3.086   1.941  10.252 -0.4640  0.2952 -0.9131
  391MOL0     N51497   2.995   2.046  10.200  0.7020 -0.9328  0.2559
  391MOL0     C51498   2.926   2.136  10.281 -0.9843 -0.5736 -0.5856
  391MOL0     C51499   2.854   2.222  10.205 -0.1982 -0.4536  0.2278
  391MOL0     C51500   2.765   2.337  10.250  1.1669 -0.0277 -0.9974
  391MOL0     C51501   2.619   2.299  10.259  0.8914  0.4821 -0.2929
  391MOL0     C51502   2.597   2.188  10.372 -0.7028  0.1592  0.0616
  391MOL0     C51503   2.466   2.110  10.335 -0.6111  0.2624 -0.3474
  391MOL0     O51504   2.354   2.193  10.384 -0.8468 -0.3574  0.2551
  391MOL0     C51505   2.232   2.159  10.332  0.4544 -0.8286  0.0947
  391MOL0     C51506   2.212   2.043  10.259  0.3286  0.0162  0.7907
  391MOL0     C51507   2.090   2.010  10.201  0.2368 -0.2309 -0.2887
  391MOL0     C51508   1.977   2.095  10.216  0.1356  1.2343 -0.3229
  391MOL0     C51509   1.845   2.046  10.168  0.5890 -0.0683 -0.6021
  391MOL0     O51510   1.820   1.910  10.176  0.1289  0.3495  0.0042
  391MOL0     C51511   1.694   1.853  10.148  0.1994 -0.0697 -0.7932
  391MOL0     C51512   1.576   1.933  10.138 -0.7260 -0.0001  0.2021
  391MOL0     C51513   1.456   1.885  10.087  0.0188  0.4757 -0.7782
  391MOL0     C51514   1.445   1.746  10.056  0.5885  0.5151  0.3048
  391MOL0     O51515   1.334   1.686  10.001  0.3356  0.3803 -0.4840
  391MOL0     C51516   1.280   1.578  10.079 -0.7173  0.2901  0.3047
  391MOL0     C51517   1.152   1.523  10.018  0.4735  0.7474 -0.4520
  391MOL0     C51518   1.169   1.485   9.873 -0.4670  0.5187 -0.9932
  391MOL0     C51519   1.126   1.591   9.772 -0.4991  0.3564 -0.2967
  391MOL0     C51520   1.150   1.545   9.624  0.1190 -0.8484  0.4880
  391MOL0     C51521   1.046   1.611   9.527  0.6403 -0.1281  0.7978
  391MOL0     C51522   1.100   1.606   9.375  0.9343  0.5561 -0.5748
  391MOL0     C51523   0.992   1.652   9.269 -0.4001 -0.8288 -0.1204
  391MOL0    Cl51524   1.074   1.660   9.099  0.0912 -0.3391  0.1447
  391MOL0     C51525   1.559   1.666  10.073  0.5986  0.6495  0.1037
  391MOL0     C51526   1.677   1.720  10.125 -0.6622  0.2981 -0.1511
  391MOL0     O51527   1.784   2.130  10.113  1.0230 -0.3556  0.5271
  391MOL0     C51528   1.995   2.205  10.307 -0.6598 -0.0923 -0.9037
  391MOL0     C51529   2.119   2.236  10.367  0.7029  0.2407  1.3869
  391MOL0     N51530   2.875   2.184  10.078 -1.2574  0.1448 -0.1781
  391MOL0     N51531   2.951   2.073  10.073  0.1858 -0.1461 -0.1884
  391MOL0     C51532   3.673   1.932  10.513  0.0814  0.0004  0.0899
  391MOL0     C51533   3.662   2.069  10.512  0.5069 -0.2666  0.2725
  391MOL0     C51534   3.524   2.494  10.376 -0.7415  0.8165 -0.2630
  391MOL0     C51535   3.625   2.546  10.295  0.0569  0.1798  0.4815
  391MOL0     C51536   3.611   2.668  10.240 -0.1598 -0.2883 -0.2927
  391MOL0     C51537   3.490   2.747  10.253 -1.1531  0.6616 -1.0085
  391MOL0     O51538   3.492   2.860  10.176  0.1467 -0.1131  0.3011
  391MOL0     C51539   3.372   2.936  10.196 -1.2050 -0.2434  0.6567
  391MOL0     C51540   3.387   3.059  10.111 -0.7683 -0.1621 -0.2033
  391MOL0     C51541   3.259   3.127  10.086  0.2193 -0.4170 -0.4236
  391MOL0     C51542   3.276   3.274  10.032  0.4508 -0.1329 -0.1252
  391MOL0     C51543   3.314   3.268   9.890  0.5275 -0.9614  0.0621
  391MOL0     C51544   3.336   3.249   9.775  0.2150  0.1655 -0.8301
  391MOL0     C51545   3.406   2.711  10.358  0.6520 -0.1554  0.2916
  391MOL0     C51546   3.419   2.582  10.415 -0.5420  0.3539 -0.9805
  391MOL0     H51547   3.633   2.120  10.181  1.5235 -0.4516 -0.3198
  391MOL0     H51548   3.636   1.894  10.184 -3.0818 -3.0389  2.4665
  391MOL0     H51549   3.549   1.698  10.523  0.1252  1.0589 -0.1709
  391MOL0     H51550   3.682   1.601  10.538 -0.6333 -0.4650  0.8007
  391MOL0     H51551   3.531   1.456  10.441  0.9275  2.1041  2.3029
  391MOL0     H51552   3.645   1.488  10.312  1.3512  3.1980 -0.2573
  391MOL0     H51553   3.442   1.507  10.199 -2.0813 -2.3665  0.6947
  391MOL0     H51554   3.474   1.672  10.244 -0.9608 -1.2771 -1.9450
  391MOL0     H51555   3.265   1.475  10.388 -0.0177 -0.8490  4.5827
  391MOL0     H51556   3.346   1.618  10.465  2.1607 -2.0844  0.0358
  391MOL0     H51557   3.183   1.617  10.206  1.6000 -1.9660  0.7199
  391MOL0     H51558   3.271   1.755  10.263  2.4370  0.1106  1.5016
  391MOL0     H51559   3.108   1.746  10.471 -1.3744 -3.0514  1.4927
  391MOL0     H51560   3.033   1.621  10.408  2.9356 -0.9773  1.3910
  391MOL0     H51561   2.940   1.778  10.191  0.5651 -1.8481 -0.1761
  391MOL0     H51562   2.908   1.847  10.333 -1.1394 -2.5109 -0.7270
  391MOL0     H51563   3.171   1.919  10.187  2.4194 -3.7085  3.4947
  391MOL0     H51564   3.133   1.975  10.345  1.6063  1.6622 -2.3862
  391MOL0     H51565   2.944   2.150  10.388  1.4654  2.5363 -1.2461
  391MOL0     H51566   2.773   2.431  10.193  0.3483 -0.3318 -1.6373
  391MOL0     H51567   2.786   2.348  10.356 -1.1423 -2.3641 -0.2021
  391MOL0     H51568   2.593   2.264  10.158  0.2075 -1.6495  0.5809
  391MOL0     H51569   2.560   2.388  10.280  0.5775  1.1217 -3.4141
  391MOL0     H51570   2.677   2.114  10.366 -0.8954 -0.1246  0.9069
  391MOL0     H51571   2.596   2.237  10.469 -1.8814  2.6305 -1.1157
  391MOL0     H51572   2.465   2.007  10.372  1.4515  1.1960  2.7368
  391MOL0     H51573   2.457   2.111  10.227 -1.3958  2.7332 -0.3171
  391MOL0     H51574   2.291   1.968  10.259 -0.2030 -0.5562 -0.1198
  391MOL0     H51575   2.085   1.916  10.147 -1.6670 -0.5083  0.2888
  391MOL0     H51576   1.573   2.035  10.175 -0.7140  0.4275 -0.9411
  391MOL0     H51577   1.373   1.955  10.081  2.1013  3.3647  1.3901
  391MOL0     H51578   1.276   1.625  10.178  3.2231  3.2180 -0.7194
  391MOL0     H51579   1.344   1.489  10.084 -2.5637 -1.3569 -2.4428
  391MOL0     H51580   1.063   1.583  10.038  0.5444  0.9717 -0.8004
  391MOL0     H51581   1.133   1.433  10.078  0.8942 -1.3056 -3.1844
  391MOL0     H51582   1.102   1.399   9.861  0.5020 -0.5673  0.9204
  391MOL0     H51583   1.273   1.454   9.862 -1.1163 -1.6174 -1.5272
  391MOL0     H51584   1.019   1.610   9.784 -0.4882 -0.7001  2.0868
  391MOL0     H51585   1.179   1.682   9.801  1.9318 -0.6366 -1.3175
  391MOL0     H51586   1.139   1.437   9.609  0.1233 -0.6022 -1.5528
  391MOL0     H51587   1.250   1.581   9.598 -1.2614  2.3347 -1.0003
  391MOL0     H51588   1.032   1.716   9.556 -2.0140  0.2762 -1.4838
  391MOL0     H51589   0.950   1.562   9.545  0.3626  0.6420  1.5048
  391MOL0     H51590   1.196   1.659   9.370  0.9950  0.3964 -1.2360
  391MOL0     H51591   1.138   1.505   9.352  1.0169  0.5830 -0.5577
  391MOL0     H51592   0.959   1.749   9.309 -5.4696 -3.8165  4.2241
  391MOL0     H51593   0.926   1.565   9.269  2.3622 -3.0868 -0.2539
  391MOL0     H51594   1.557   1.560  10.048  3.0004  0.3216  0.9382
  391MOL0     H51595   1.758   1.647  10.126 -0.8828  0.0199 -1.0102
  391MOL0     H51596   1.910   2.271  10.319  0.3385  1.1543 -0.5072
  391MOL0     H51597   2.111   2.314  10.441 -1.6766  1.9169 -0.4602
  391MOL0     H51598   3.679   1.874  10.604  0.3025 -1.6485 -0.9179
  391MOL0     H51599   3.671   2.125  10.605  1.9033 -1.7644  1.0916
  391MOL0     H51600   3.713   2.482  10.290 -0.1431 -0.0666 -0.0255
  391MOL0     H51601   3.685   2.703  10.169  2.3994  0.1975  2.4440
  391MOL0     H51602   3.376   2.965  10.301  3.4162  0.7237  0.4167
  391MOL0     H51603   3.284   2.874  10.177  0.5234 -3.2124  1.6512
  391MOL0     H51604   3.466   3.117  10.159 -0.0004 -0.3987 -1.1395
  391MOL0     H51605   3.430   3.038  10.013  0.7383  3.4892 -0.4770
  391MOL0     H51606   3.210   3.140  10.182 -2.8987 -0.4463 -1.9020
  391MOL0     H51607   3.193   3.084  10.010 -1.3686  3.7366 -1.7051
  391MOL0     H51608   3.188   3.336  10.055  0.2191  1.0915 -3.6550
  391MOL0     H51609   3.360   3.332  10.071 -0.3979 -0.4331  2.3106
  391MOL0     H51610   3.342   3.219   9.672  0.9332  0.5357 -0.9045
  391MOL0     H51611   3.330   2.774  10.403 -1.1579 -3.4494  2.2170
  391MOL0     H51612   3.361   2.538  10.496 -1.1744 -0.6428 -1.9392
  392MOL0     O51613   9.875   5.656   0.720 -0.9095 -0.6881 -0.2542
  392MOL0     C51614   9.886   5.721   0.624 -0.4842  0.4590 -0.0899
  392MOL0     O51615   9.877   5.677   0.492  0.2545  1.0558 -0.0806
  392MOL0     C51616   9.841   5.544   0.488  0.0524  0.4060 -0.5572
  392MOL0     C51617   9.729   5.497   0.416 -0.6813  0.0842  0.4742
  392MOL0     C51618   9.690   5.365   0.409  0.4727 -0.3912  0.5017
  392MOL0     C51619   9.760   5.261   0.471 -0.0079 -0.0831  0.4582
  392MOL0     O51620   9.708   5.140   0.468  0.0730 -0.5530  0.5795
  392MOL0     C51621   9.720   5.077   0.340 -0.2037  0.2582  0.2642
  392MOL0     C51622   9.768   4.932   0.322  1.1983 -1.4167  0.1768
  392MOL0     C51623   9.914   4.911   0.352  1.0578  0.7200  0.0500
  392MOL0     C51624  10.018   4.962   0.249  1.1797 -0.0396 -0.3858
  392MOL0     C51625  10.155   4.924   0.296 -0.6581 -0.3072  0.0883
  392MOL0     C51626  10.264   4.977   0.202 -0.1531  0.0745  0.8890
  392MOL0     C51627  10.404   4.958   0.262  1.5137  1.1699  0.6012
  392MOL0     C51628  10.525   5.026   0.189 -0.5591 -0.6295 -0.2719
  392MOL0     N51629  10.550   4.965   0.055 -0.2009 -0.2710  0.0549
  392MOL0     C51630  10.612   4.846   0.049 -0.2889  0.3402 -0.7099
  392MOL0     C51631  10.583   4.801  -0.081  0.3983  0.0854  0.1589
  392MOL0     C51632  10.639   4.665  -0.127 -0.9204  0.3174  0.7433
  392MOL0     C51633  10.585   4.625  -0.265  0.0703  0.3917 -0.1407
  392MOL0     C51634  10.648   4.487  -0.299  0.2205 -0.3631 -0.7896
  392MOL0     C51635  10.627   4.369  -0.201 -0.3352 -0.7309  1.3951
  392MOL0     O51636  10.660   4.250  -0.274 -0.2619 -0.2587 -0.4836
  392MOL0     C51637  10.582   4.143  -0.238  1.5367  0.6260  1.0191
  392MOL0     C51638  10.528   4.126  -0.112 -0.1121 -0.0234  0.8811
  392MOL0     C51639  10.437   4.028  -0.080 -0.0175  0.0451 -0.0757
  392MOL0     C51640  10.400   3.932  -0.176  0.9215  1.2825  0.1149
  392MOL0     C51641  10.292   3.821  -0.160 -0.4372 -0.5472  0.0791
  392MOL0     O51642  10.259   3.800  -0.033  0.6919 -0.3061  0.9879
  392MOL0     C51643  10.177   3.690  -0.005  0.4389  0.2532  0.8489
  392MOL0     C51644  10.205   3.560  -0.052 -0.4862  0.1025 -0.5617
  392MOL0     C51645  10.115   3.458  -0.041  0.5532  0.2326 -0.0902
  392MOL0     C51646   9.991   3.485   0.023 -0.0217 -0.0634  0.6788
  392MOL0     O51647   9.902   3.384   0.037 -0.8216  0.8810 -0.7340
  392MOL0     C51648   9.816   3.352  -0.076  0.1919 -0.6361  0.7413
  392MOL0     C51649   9.787   3.201  -0.094 -0.2501  0.2510 -0.4441
  392MOL0     C51650   9.703   3.145   0.011 -0.4805  0.0849 -0.6418
  392MOL0     C51651   9.725   2.987   0.022 -0.6128 -0.8391 -0.1837
  392MOL0     C51652   9.649   2.925   0.139  0.0037 -0.2385  0.3755
  392MOL0     C51653   9.652   2.776   0.144 -0.1882  0.1887 -0.0454
  392MOL0     C51654   9.794   2.723   0.167 -1.2114  0.5906  0.2244
  392MOL0     C51655   9.805   2.587   0.238  0.7676  0.4126 -0.4828
  392MOL0    Cl51656   9.682   2.471   0.180 -0.3220 -0.2544  0.0213
  392MOL0     C51657   9.966   3.609   0.091 -0.5418  0.3490  0.1283
  392MOL0     C51658  10.056   3.709   0.065 -0.0127  0.5876 -0.2430
  392MOL0     O51659  10.252   3.760  -0.261 -0.7175 -0.1421  0.2065
  392MOL0     C51660  10.450   3.943  -0.300 -1.6271 -0.8714  0.4492
  392MOL0     C51661  10.539   4.049  -0.332 -0.4061 -0.5839 -0.5875
  392MOL0     N51662  10.493   4.875  -0.143  0.7029 -1.3320  0.4443
  392MOL0     N51663  10.488   4.990  -0.071  0.0210 -0.0337 -1.3307
  392MOL0     C51664   9.876   5.295   0.533 -0.6110 -0.2037  0.8713
  392MOL0     C51665   9.916   5.432   0.542  1.0145 -0.1302  0.1093
  392MOL0     C51666   9.923   5.865   0.631 -0.0181 -0.5142  0.6530
  392MOL0     C51667   9.891   5.939   0.744  0.5190  0.6217 -0.3875
  392MOL0     C51668   9.941   6.070   0.754  0.5738 -0.0476 -0.5244
  392MOL0     C51669  10.012   6.134   0.651 -1.0780 -0.2453  0.8137
  392MOL0     O51670  10.038   6.270   0.657 -0.1917  0.8366  0.0668
  392MOL0     C51671  10.087   6.333   0.536  0.8263 -0.4255  0.0584
  392MOL0     C51672  10.134   6.468   0.584  0.7840 -0.4631 -0.4602
  392MOL0     C51673  10.293   6.475   0.615  0.0110 -0.0661 -0.0818
  392MOL0     C51674  10.358   6.361   0.687 -0.9355  0.8974  0.0704
  392MOL0     C51675  10.489   6.409   0.709 -0.2119 -0.4496  0.4322
  392MOL0     C51676  10.608   6.430   0.726  0.3934  0.4996 -0.0673
  392MOL0     C51677  10.039   6.058   0.534  0.1589 -0.0936 -0.0845
  392MOL0     C51678  10.005   5.926   0.526  0.1809 -0.3210  0.0437
  392MOL0     H51679   9.670   5.583   0.386  1.9971  1.6906 -0.4984
  392MOL0     H51680   9.599   5.348   0.351 -0.4523  2.1807  1.0403
  392MOL0     H51681   9.789   5.134   0.278  1.3573 -2.0606 -0.2264
  392MOL0     H51682   9.619   5.092   0.300  0.7468  2.5703 -1.5225
  392MOL0     H51683   9.744   4.909   0.217 -1.1803  1.2047  0.0351
  392MOL0     H51684   9.698   4.866   0.374  0.4176 -1.2738 -0.6508
  392MOL0     H51685   9.927   4.804   0.371  1.7498  0.6554 -0.7388
  392MOL0     H51686   9.931   4.962   0.447  2.1019 -0.4868  0.5376
  392MOL0     H51687   9.993   4.917   0.152  0.6839  1.5251 -1.0076
  392MOL0     H51688  10.005   5.070   0.245  0.7744  0.0107  1.4555
  392MOL0     H51689  10.173   4.820   0.324 -3.9693 -0.6319  1.4154
  392MOL0     H51690  10.176   4.983   0.386  1.5233 -1.9189  0.7188
  392MOL0     H51691  10.249   5.085   0.195 -3.3889 -0.1576  2.3939
  392MOL0     H51692  10.250   4.928   0.106  0.7279 -1.4972  1.5152
  392MOL0     H51693  10.385   5.008   0.358 -2.1337  3.3466 -1.0404
  392MOL0     H51694  10.419   4.854   0.295  1.9384  2.0227  3.4066
  392MOL0     H51695  10.622   5.013   0.239 -0.0473 -3.6760 -1.7926
  392MOL0     H51696  10.520   5.135   0.197  5.1954 -0.1782  4.3002
  392MOL0     H51697  10.674   4.793   0.121  3.5511  2.7386 -1.9729
  392MOL0     H51698  10.615   4.591  -0.050  1.6473 -1.0256  0.3569
  392MOL0     H51699  10.748   4.661  -0.133 -1.0107 -1.9284 -0.2477
  392MOL0     H51700  10.623   4.695  -0.340  3.2754 -0.8971  0.1260
  392MOL0     H51701  10.476   4.631  -0.259  0.0444  1.7517 -1.3485
  392MOL0     H51702  10.584   4.451  -0.380  0.8011 -3.4346 -0.0193
  392MOL0     H51703  10.752   4.499  -0.331 -0.1280 -0.0685 -1.8483
  392MOL0     H51704  10.519   4.367  -0.181 -0.6957 -0.7449 -0.3765
  392MOL0     H51705  10.689   4.368  -0.111  4.8605 -0.1726 -1.8046
  392MOL0     H51706  10.559   4.190  -0.030 -1.3002  1.3285  0.3150
  392MOL0     H51707  10.397   4.020   0.021  2.1874 -1.4534  0.7405
  392MOL0     H51708  10.297   3.541  -0.106  0.3804  2.6983 -0.1310
  392MOL0     H51709  10.137   3.361  -0.084  2.6836  0.2198  0.9085
  392MOL0     H51710   9.877   3.387  -0.159 -0.0037  1.0686  1.2696
  392MOL0     H51711   9.721   3.407  -0.078  1.4074  1.5782  0.8825
  392MOL0     H51712   9.884   3.153  -0.113  0.2444  1.6555 -1.7307
  392MOL0     H51713   9.736   3.184  -0.189 -0.3045  2.8762 -0.9494
  392MOL0     H51714   9.598   3.164  -0.011 -0.0797  0.8557 -2.0117
  392MOL0     H51715   9.725   3.196   0.105  2.1186 -2.4856  0.2886
  392MOL0     H51716   9.710   2.930  -0.071  3.6062 -1.2414 -0.8390
  392MOL0     H51717   9.834   2.983   0.038 -0.6502  1.3711  0.9274
  392MOL0     H51718   9.543   2.949   0.134  0.0750  0.8228  2.6809
  392MOL0     H51719   9.692   2.983   0.221  0.1648 -1.0719  0.9004
  392MOL0     H51720   9.608   2.735   0.053 -1.8449  0.7834  0.4439
  392MOL0     H51721   9.589   2.749   0.229  0.7654  2.2879  1.4450
  392MOL0     H51722   9.831   2.727   0.064 -3.0912 -0.8903 -0.5623
  392MOL0     H51723   9.845   2.793   0.234 -0.4064 -0.0024  0.2447
  392MOL0     H51724   9.786   2.596   0.346  1.0600 -1.5511 -0.2162
  392MOL0     H51725   9.902   2.542   0.216  0.9370  0.6317 -0.1886
  392MOL0     H51726   9.877   3.626   0.151 -0.3190 -1.5759  1.0931
  392MOL0     H51727  10.025   3.812   0.084  0.1997  0.9332 -1.6184
  392MOL0     H51728  10.427   3.881  -0.386 -0.6205 -0.9743  0.2397
  392MOL0     H51729  10.587   4.065  -0.428  0.4345 -2.3728 -0.4856
  392MOL0     H51730   9.941   5.226   0.587  1.9987 -0.5434 -2.3329
  392MOL0     H51731  10.008   5.457   0.594  0.2362  0.9021  1.0372
  392MOL0     H51732   9.828   5.892   0.819 -1.8445  1.6095 -1.6470
  392MOL0     H51733   9.931   6.116   0.852  0.0523 -0.9205 -0.1583
  392MOL0     H51734  10.007   6.354   0.465  0.0139  1.2882  1.3955
  392MOL0     H51735  10.168   6.281   0.484  0.7087  0.7074 -1.3385
  392MOL0     H51736  10.100   6.529   0.500  3.2701  0.9750 -0.5048
  392MOL0     H51737  10.081   6.514   0.667 -1.8801  0.8431 -2.7068
  392MOL0     H51738  10.314   6.564   0.675 -0.1845 -0.8629  1.1981
  392MOL0     H51739  10.333   6.492   0.514 -0.2219 -4.5013 -1.1045
  392MOL0     H51740  10.305   6.343   0.781  0.2036  2.8686  1.1581
  392MOL0     H51741  10.366   6.275   0.619  0.6312  1.1525 -0.1166
  392MOL0     H51742  10.712   6.455   0.737  0.1657  0.9948  1.2275
  392MOL0     H51743  10.092   6.091   0.446  2.8595  0.2971  1.5537
  392MOL0     H51744  10.026   5.872   0.435 -2.4098 -1.4581  0.0550
  393MOL0     O51745   8.804  11.421   6.352 -0.5105  0.5678  0.1612
  393MOL0     C51746   8.716  11.417   6.435 -0.4164 -0.7558 -0.5673
  393MOL0     O51747   8.623  11.511   6.452 -0.1192 -0.4725 -0.2264
  393MOL0     C51748   8.632  11.626   6.379 -0.1586  0.3143 -0.3850
  393MOL0     C51749   8.700  11.731   6.436 -0.8026  0.3536 -0.0629
  393MOL0     C51750   8.712  11.857   6.378 -0.3147 -0.5577 -0.2822
  393MOL0     C51751   8.661  11.876   6.249 -0.6790  0.3840 -0.2630
  393MOL0     O51752   8.689  11.999   6.190 -0.3858  0.3743 -0.1206
  393MOL0     C51753   8.665  12.015   6.052  1.0187 -0.3514  0.2251
  393MOL0     C51754   8.516  12.030   6.025  0.5106 -0.2459 -0.0994
  393MOL0     C51755   8.478  12.022   5.882 -0.7350  0.1354  0.5684
  393MOL0     C51756   8.337  12.079   5.855 -0.0830  0.0201 -0.4144
  393MOL0     C51757   8.305  12.076   5.708 -0.5057  0.8946  0.3563
  393MOL0     C51758   8.162  12.047   5.662 -0.0675 -0.3379 -0.1947
  393MOL0     C51759   8.052  12.139   5.714 -0.0069  0.8330 -0.4333
  393MOL0     C51760   7.900  12.101   5.689 -0.2123 -0.2656  0.2119
  393MOL0     N51761   7.875  12.110   5.550 -0.1071  0.4527 -0.2630
  393MOL0     C51762   7.914  12.204   5.469 -0.8544  0.3040  0.2133
  393MOL0     C51763   7.893  12.167   5.351  0.1300  0.4809 -0.4944
  393MOL0     C51764   7.935  12.221   5.214  0.9071  0.0886  0.1511
  393MOL0     C51765   7.839  12.182   5.095  0.9528 -1.6594  0.6486
  393MOL0     C51766   7.873  12.272   4.972 -0.7910 -0.0403 -0.5480
  393MOL0     C51767   7.809  12.419   4.978  0.3982 -0.2204  0.1537
  393MOL0     O51768   7.681  12.418   4.912  0.7328 -0.3006  0.2075
  393MOL0     C51769   7.673  12.443   4.783 -0.8863 -0.1991 -0.8265
  393MOL0     C51770   7.651  12.342   4.692  0.1968  1.0788  0.6012
  393MOL0     C51771   7.630  12.384   4.561  0.3366 -0.1472  0.5006
  393MOL0     C51772   7.632  12.517   4.518 -0.0269 -0.7454  0.0834
  393MOL0     C51773   7.587  12.542   4.380  0.3882 -0.0516  0.1643
  393MOL0     O51774   7.555  12.442   4.298  0.1063  0.6232  0.1568
  393MOL0     C51775   7.561  12.464   4.160  0.5224 -0.2758 -0.4435
  393MOL0     C51776   7.451  12.466   4.074 -0.8908 -0.7265 -0.0893
  393MOL0     C51777   7.475  12.505   3.944 -0.6361 -0.2098 -0.4967
  393MOL0     C51778   7.596  12.549   3.883 -0.5116 -0.7667 -0.8006
  393MOL0     O51779   7.611  12.602   3.758  0.3054 -0.0174 -0.1939
  393MOL0     C51780   7.650  12.514   3.652  0.2389  0.3942 -0.5943
  393MOL0     C51781   7.727  12.605   3.548 -0.1623 -0.2511 -0.0828
  393MOL0     C51782   7.778  12.519   3.435 -0.1689  0.4384 -0.6362
  393MOL0     C51783   7.872  12.570   3.331 -0.1320  0.0574  0.2873
  393MOL0     C51784   7.880  12.488   3.190 -0.1643  0.1838 -0.3458
  393MOL0     C51785   8.023  12.443   3.131  0.6022  0.1861 -0.7087
  393MOL0     C51786   7.981  12.349   3.014 -0.2051 -0.5296  0.3041
  393MOL0     C51787   8.093  12.265   2.955 -0.5317  0.0560  0.6456
  393MOL0    Cl51788   8.223  12.384   2.908  0.3384  0.7759  0.2302
  393MOL0     C51789   7.705  12.542   3.971  0.4697 -0.1410 -0.9921
  393MOL0     C51790   7.684  12.493   4.104 -0.7793  0.5806  0.1840
  393MOL0     O51791   7.586  12.664   4.348 -0.3179 -0.0674 -0.2629
  393MOL0     C51792   7.667  12.615   4.609  0.3289  0.4552 -1.1682
  393MOL0     C51793   7.692  12.571   4.745 -0.4778 -0.7526  0.7921
  393MOL0     N51794   7.821  12.047   5.354 -0.4331 -0.3929  0.5345
  393MOL0     N51795   7.801  12.020   5.477 -0.6940  0.3823  0.5647
  393MOL0     C51796   8.602  11.766   6.179  0.2598 -0.1492 -0.4435
  393MOL0     C51797   8.580  11.648   6.254 -0.6430  0.0588  0.3491
  393MOL0     C51798   8.710  11.302   6.530  0.3124 -0.3042  1.1447
  393MOL0     C51799   8.742  11.178   6.478  0.1524  0.6903  0.6176
  393MOL0     C51800   8.722  11.060   6.547 -0.1186  0.1909 -0.2602
  393MOL0     C51801   8.675  11.055   6.678  0.3329  0.0538 -0.3136
  393MOL0     O51802   8.645  10.951   6.763  0.0891 -0.9804  0.5953
  393MOL0     C51803   8.577  10.836   6.715 -0.0055  0.3188  1.1591
  393MOL0     C51804   8.477  10.798   6.827 -0.5607  0.7513  0.3569
  393MOL0     C51805   8.548  10.740   6.955 -0.5141 -0.0636  0.7183
  393MOL0     C51806   8.476  10.786   7.079 -0.3698 -0.0369 -0.1188
  393MOL0     C51807   8.332  10.766   7.091  0.3804 -0.1796 -0.5788
  393MOL0     C51808   8.215  10.751   7.104 -0.0390  1.1068  0.1279
  393MOL0     C51809   8.647  11.184   6.727 -0.6671  0.7267 -0.5714
  393MOL0     C51810   8.657  11.304   6.660  0.7331  1.0854  0.2567
  393MOL0     H51811   8.754  11.726   6.530  1.8183  0.6911 -1.4666
  393MOL0     H51812   8.759  11.937   6.434 -1.2969  1.1466 -1.7962
  393MOL0     H51813   8.705  11.932   5.993 -0.5261 -1.6595  0.9711
  393MOL0     H51814   8.714  12.106   6.017 -0.7230  0.0409 -1.3322
  393MOL0     H51815   8.494  12.130   6.064 -0.6351 -1.4391  2.5823
  393MOL0     H51816   8.457  11.965   6.090  1.3632 -1.8774 -0.9026
  393MOL0     H51817   8.472  11.918   5.847  0.2470 -0.2836  1.5763
  393MOL0     H51818   8.560  12.070   5.827 -0.0152 -0.6129  0.9581
  393MOL0     H51819   8.261  12.021   5.908  0.2006 -1.9795 -2.0567
  393MOL0     H51820   8.326  12.176   5.904 -0.1408 -0.6763  0.9976
  393MOL0     H51821   8.361  11.998   5.657  2.4031  0.3194  4.0217
  393MOL0     H51822   8.329  12.176   5.668  0.1759  0.1580 -1.1535
  393MOL0     H51823   8.143  11.942   5.687 -1.2425  0.4047  2.3537
  393MOL0     H51824   8.148  12.046   5.554 -1.2294  2.3631 -0.1480
  393MOL0     H51825   8.059  12.164   5.820 -1.1241 -1.1370  0.1499
  393MOL0     H51826   8.079  12.238   5.674  4.9071 -0.3743 -0.6037
  393MOL0     H51827   7.830  12.174   5.730  0.0655 -1.5145  3.1518
  393MOL0     H51828   7.877  12.003   5.731 -2.4917 -0.5315 -1.5018
  393MOL0     H51829   7.963  12.298   5.493 -0.8556  0.6522 -1.0512
  393MOL0     H51830   8.032  12.173   5.197  0.6953  0.3129 -1.9265
  393MOL0     H51831   7.959  12.327   5.208  1.0634  0.0017 -1.1040
  393MOL0     H51832   7.732  12.197   5.111  0.5260 -1.1206 -2.2283
  393MOL0     H51833   7.843  12.078   5.061  1.6678 -2.2981  2.5417
  393MOL0     H51834   7.976  12.298   4.949 -0.9925 -1.5947 -3.8279
  393MOL0     H51835   7.843  12.219   4.881  0.1834 -1.9467  0.1677
  393MOL0     H51836   7.872  12.488   4.922  0.9859  1.4066  2.6515
  393MOL0     H51837   7.796  12.459   5.079  1.3276  0.0636  0.1670
  393MOL0     H51838   7.648  12.237   4.720  5.1621 -0.1216 -2.0809
  393MOL0     H51839   7.600  12.301   4.498 -3.5325  1.0729  0.4907
  393MOL0     H51840   7.354  12.441   4.114  1.3658 -4.1938  4.2021
  393MOL0     H51841   7.391  12.511   3.876  0.4233  2.4906 -1.7189
  393MOL0     H51842   7.557  12.470   3.615 -0.1956  0.3867  0.4722
  393MOL0     H51843   7.722  12.443   3.693  0.6406  1.3183  0.3268
  393MOL0     H51844   7.803  12.667   3.595 -0.6101  0.3828 -0.1774
  393MOL0     H51845   7.650  12.670   3.504 -0.7363  0.9551  2.5012
  393MOL0     H51846   7.694  12.474   3.382 -1.2380 -2.2378  2.9447
  393MOL0     H51847   7.827  12.437   3.488  2.1207  1.1241 -1.5906
  393MOL0     H51848   7.839  12.671   3.301  0.9778  0.7182  1.2003
  393MOL0     H51849   7.973  12.585   3.372  0.3154 -0.4139 -0.6118
  393MOL0     H51850   7.820  12.536   3.113  3.6476  2.5384 -2.1409
  393MOL0     H51851   7.822  12.398   3.211 -1.9007  1.3078 -0.1719
  393MOL0     H51852   8.056  12.385   3.217 -0.9850  0.5655  0.2022
  393MOL0     H51853   8.081  12.531   3.102  3.2255 -0.3027  2.5124
  393MOL0     H51854   7.910  12.276   3.053  2.0826 -2.7406  0.6403
  393MOL0     H51855   7.927  12.398   2.932 -3.6171 -3.6793  0.3912
  393MOL0     H51856   8.056  12.216   2.864  1.3027 -2.5310  1.1816
  393MOL0     H51857   8.112  12.186   3.029 -2.1651 -1.0479 -0.0673
  393MOL0     H51858   7.803  12.556   3.928  1.6347 -0.4833  1.3898
  393MOL0     H51859   7.771  12.466   4.163  0.0313 -0.6411 -1.5131
  393MOL0     H51860   7.663  12.719   4.581 -6.0561  1.2717  1.0574
  393MOL0     H51861   7.703  12.664   4.801 -0.5517  0.2187 -0.7477
  393MOL0     H51862   8.560  11.767   6.079  0.3579  1.8573 -0.4892
  393MOL0     H51863   8.530  11.566   6.204  3.1836 -1.5443 -1.2528
  393MOL0     H51864   8.779  11.177   6.376  2.3179  1.0153  1.3320
  393MOL0     H51865   8.750  10.966   6.500  1.5778  0.1316  0.7909
  393MOL0     H51866   8.635  10.750   6.679  3.5333  2.5515  1.0956
  393MOL0     H51867   8.505  10.863   6.637 -1.6952  2.7778  3.4143
  393MOL0     H51868   8.418  10.890   6.834  0.2767  1.5780 -2.2254
  393MOL0     H51869   8.421  10.711   6.793  1.6718  0.1578 -2.1542
  393MOL0     H51870   8.654  10.767   6.960  0.0447 -0.9214 -3.2246
  393MOL0     H51871   8.554  10.633   6.933 -0.1763  0.0905  0.0393
  393MOL0     H51872   8.531  10.739   7.162  3.6367 -3.3357 -4.1201
  393MOL0     H51873   8.497  10.892   7.091  1.3165 -0.1781 -1.3627
  393MOL0     H51874   8.110  10.763   7.122  0.3645  1.8864  2.3244
  393MOL0     H51875   8.605  11.194   6.827 -1.2749 -1.5571 -0.5330
  393MOL0     H51876   8.625  11.399   6.702 -0.3610  0.0761  1.8013
  394MOL0     O51877   4.401   8.953   9.909 -0.6510 -0.3343  0.7360
  394MOL0     C51878   4.350   8.854   9.844  0.1238 -0.2555 -0.3526
  394MOL0     O51879   4.233   8.796   9.874  0.0074  0.2234 -0.0057
  394MOL0     C51880   4.144   8.833   9.973 -0.8687 -0.4190 -0.2201
  394MOL0     C51881   4.123   8.965  10.011 -0.1260  0.6760 -0.8874
  394MOL0     C51882   4.029   8.994  10.112  0.0350 -0.0499  0.0155
  394MOL0     C51883   3.965   8.902  10.185  0.0441 -0.8989  0.3527
  394MOL0     O51884   3.886   8.958  10.284 -0.2068  0.4104 -0.1390
  394MOL0     C51885   3.765   8.895  10.323 -1.1387 -0.9816 -0.7863
  394MOL0     C51886   3.773   8.855  10.465 -0.1561  0.1079 -1.2153
  394MOL0     C51887   3.660   8.759  10.484  1.4939 -1.1854 -0.1591
  394MOL0     C51888   3.686   8.624  10.422 -0.5067 -0.1326 -0.2396
  394MOL0     C51889   3.554   8.553  10.391 -0.0503 -0.3592  0.4674
  394MOL0     C51890   3.487   8.620  10.269  0.3085 -0.3622  0.5015
  394MOL0     C51891   3.567   8.603  10.137 -0.7778  0.8575 -0.1639
  394MOL0     C51892   3.530   8.671  10.013  0.0143 -1.1431  0.1335
  394MOL0     N51893   3.629   8.652   9.904 -0.3241 -0.8111  0.9045
  394MOL0     C51894   3.756   8.713   9.872  2.1267 -0.0988  0.7509
  394MOL0     C51895   3.796   8.660   9.755 -0.7112  1.1828 -0.4871
  394MOL0     C51896   3.914   8.696   9.670  0.3541  0.3776  0.1014
  394MOL0     C51897   3.884   8.837   9.618 -0.0751 -1.0911 -0.2246
  394MOL0     C51898   3.952   8.956   9.704  0.5667  0.0484  0.3565
  394MOL0     C51899   3.910   9.089   9.643  0.0500 -0.7317  0.0384
  394MOL0     O51900   3.770   9.126   9.672 -0.5935  0.2431 -0.2484
  394MOL0     C51901   3.732   9.150   9.806 -0.0075 -0.7985 -0.2181
  394MOL0     C51902   3.804   9.240   9.888  0.0378  0.4477 -0.4882
  394MOL0     C51903   3.776   9.252  10.019  1.1291  0.2158 -0.3627
  394MOL0     C51904   3.665   9.191  10.077  1.2369  1.1313 -0.3365
  394MOL0     C51905   3.619   9.227  10.206 -1.0338  0.7184 -0.0002
  394MOL0     O51906   3.483   9.245  10.224 -0.2223 -0.5265  0.2855
  394MOL0     C51907   3.443   9.281  10.354 -0.8701 -0.1678  0.6453
  394MOL0     C51908   3.355   9.199  10.428 -0.3765  0.1630  1.9827
  394MOL0     C51909   3.303   9.233  10.552  0.0004  0.0364  0.0173
  394MOL0     C51910   3.359   9.349  10.617 -1.2823  0.5212  0.1058
  394MOL0     O51911   3.311   9.368  10.750  0.0925  0.4141  0.0215
  394MOL0     C51912   3.388   9.454  10.829  0.0064 -0.1218 -0.7280
  394MOL0     C51913   3.349   9.465  10.980  0.6295 -0.4780  0.2918
  394MOL0     C51914   3.205   9.518  10.979  0.7447 -0.6483  0.4480
  394MOL0     C51915   3.190   9.669  10.937 -0.6202 -0.0975  0.7336
  394MOL0     C51916   3.048   9.725  10.942  0.7811  0.5679  0.1962
  394MOL0     C51917   3.037   9.869  10.897  0.8619  0.1283 -0.5916
  394MOL0     C51918   3.086   9.901  10.758  0.3313  0.2114 -0.2094
  394MOL0     C51919   3.096  10.057  10.741 -0.2213 -0.5414  0.9427
  394MOL0    Cl51920   3.231  10.122  10.833  0.1016 -0.0635  0.0020
  394MOL0     C51921   3.457   9.428  10.554  0.8586  0.3738  0.0205
  394MOL0     C51922   3.492   9.400  10.423 -0.7548 -0.0009 -0.5991
  394MOL0     O51923   3.699   9.225  10.297 -0.7159 -0.5245  0.8588
  394MOL0     C51924   3.587   9.104   9.986  0.3491  0.7945  0.0235
  394MOL0     C51925   3.630   9.084   9.863  0.3709  0.8679  0.1016
  394MOL0     N51926   3.704   8.556   9.718 -0.0824 -0.0084  0.1846
  394MOL0     N51927   3.612   8.554   9.810  0.7293  0.0919  0.1084
  394MOL0     C51928   3.993   8.767  10.155 -0.3936  0.5696 -0.6517
  394MOL0     C51929   4.079   8.733  10.046  0.2875 -0.8985  0.4047
  394MOL0     C51930   4.433   8.789   9.740  1.3386 -0.9704 -0.2300
  394MOL0     C51931   4.570   8.808   9.727 -1.2162 -0.3809 -0.8270
  394MOL0     C51932   4.647   8.737   9.637  0.1591 -0.6150  0.3167
  394MOL0     C51933   4.574   8.656   9.545  0.1044  0.4561  0.8797
  394MOL0     O51934   4.616   8.592   9.429  0.6628  0.2059 -0.4715
  394MOL0     C51935   4.762   8.557   9.418  0.7410  0.3592  0.4462
  394MOL0     C51936   4.774   8.470   9.288  0.7370 -0.8269 -0.6989
  394MOL0     C51937   4.711   8.337   9.318  0.8208  0.4698  0.8452
  394MOL0     C51938   4.707   8.255   9.189  0.6270  0.5703 -0.4080
  394MOL0     C51939   4.641   8.120   9.222  0.0032 -1.1341  0.4790
  394MOL0     C51940   4.603   8.017   9.277 -0.3272 -1.2132 -0.4687
  394MOL0     C51941   4.432   8.640   9.546  1.2783 -0.1254 -1.0462
  394MOL0     C51942   4.370   8.716   9.642  0.2960  0.1708 -0.4185
  394MOL0     H51943   4.175   9.046   9.960  2.1390  1.7981  2.8497
  394MOL0     H51944   4.018   9.098  10.140 -1.3742 -0.0792 -0.3685
  394MOL0     H51945   3.752   8.804  10.263  3.3506 -4.1824  2.4726
  394MOL0     H51946   3.678   8.958  10.304  1.1997  2.5068 -0.6957
  394MOL0     H51947   3.752   8.937  10.534 -1.2803 -1.6856  0.6963
  394MOL0     H51948   3.873   8.812  10.477 -0.9609 -1.4522  0.2925
  394MOL0     H51949   3.572   8.803  10.437  1.1990  0.3276  1.6783
  394MOL0     H51950   3.629   8.739  10.587 -0.0446 -1.2735 -0.6240
  394MOL0     H51951   3.763   8.616  10.345 -0.8454  0.7406 -0.6807
  394MOL0     H51952   3.736   8.564  10.498 -0.2572 -1.2740 -1.2730
  394MOL0     H51953   3.500   8.562  10.485 -1.1525 -0.4426 -0.1340
  394MOL0     H51954   3.567   8.447  10.366  0.6940  0.4002 -2.8499
  394MOL0     H51955   3.462   8.727  10.271 -1.5971 -0.7621  0.1433
  394MOL0     H51956   3.395   8.564  10.253  0.5180 -0.3122 -0.9826
  394MOL0     H51957   3.674   8.625  10.151 -0.7378  2.1102 -2.0211
  394MOL0     H51958   3.556   8.498  10.109 -2.1096  1.2942 -1.3814
  394MOL0     H51959   3.536   8.779  10.030  2.6913 -1.3497  0.9186
  394MOL0     H51960   3.428   8.651   9.979 -1.1322  1.3534  1.7945
  394MOL0     H51961   3.810   8.793   9.921  1.6343 -0.1790  1.4401
  394MOL0     H51962   3.935   8.627   9.587  0.6269 -1.2839  1.4884
  394MOL0     H51963   4.009   8.700   9.723  1.3484  3.3741 -1.6914
  394MOL0     H51964   3.776   8.851   9.607 -0.3686 -2.9799 -0.0474
  394MOL0     H51965   3.931   8.856   9.521 -0.8038  0.9940 -0.2308
  394MOL0     H51966   3.905   8.949   9.802 -0.8284 -1.5404 -0.3745
  394MOL0     H51967   4.061   8.945   9.701  0.7584  1.1875  2.0001
  394MOL0     H51968   3.909   9.083   9.534 -1.0361  1.0011 -0.0838
  394MOL0     H51969   3.983   9.166   9.670 -2.5878  1.1486  2.4198
  394MOL0     H51970   3.884   9.305   9.853  1.0671  3.0676  5.3869
  394MOL0     H51971   3.836   9.327  10.069  0.6284 -0.3936  1.2310
  394MOL0     H51972   3.316   9.116  10.369  0.8288  1.8141 -1.3863
  394MOL0     H51973   3.230   9.177  10.610  1.1375 -0.8302  0.6602
  394MOL0     H51974   3.382   9.557  10.791 -0.1454  0.7379  1.4998
  394MOL0     H51975   3.491   9.421  10.817 -0.0680 -1.3646  1.5630
  394MOL0     H51976   3.419   9.520  11.043  0.7035  0.9704 -1.0059
  394MOL0     H51977   3.346   9.367  11.029 -0.9043 -0.4765  0.2558
  394MOL0     H51978   3.166   9.485  11.076 -0.8552 -2.5042 -0.7429
  394MOL0     H51979   3.147   9.486  10.891 -1.7477  4.2872 -0.0360
  394MOL0     H51980   3.251   9.722  11.011 -1.5889 -0.9066  2.1661
  394MOL0     H51981   3.215   9.687  10.832 -1.0774 -1.4926  0.3632
  394MOL0     H51982   3.004   9.717  11.041 -1.3661 -1.1735 -0.8332
  394MOL0     H51983   2.986   9.664  10.876 -0.3288  0.7561  1.0502
  394MOL0     H51984   3.073   9.933  10.978 -0.1951  1.0881 -0.8499
  394MOL0     H51985   2.933   9.904  10.900  1.1976  1.1217  0.9330
  394MOL0     H51986   3.189   9.866  10.750  0.1226 -0.2988 -0.7352
  394MOL0     H51987   3.007   9.853  10.699  0.0945 -3.1754  2.5436
  394MOL0     H51988   3.004  10.110  10.770 -0.0621  0.9752 -1.1108
  394MOL0     H51989   3.090  10.073  10.633 -1.5990 -1.1005  0.9139
  394MOL0     H51990   3.496   9.521  10.596 -0.1397  1.4228 -1.2783
  394MOL0     H51991   3.565   9.457  10.366  1.6323 -2.1402  0.1170
  394MOL0     H51992   3.503   9.047  10.023  0.4572  0.3854 -0.3547
  394MOL0     H51993   3.563   9.026   9.800  1.0086 -1.5242  1.5145
  394MOL0     H51994   3.959   8.689  10.223 -0.2756 -0.4248 -1.7154
  394MOL0     H51995   4.104   8.628  10.033  0.2626 -1.2024  2.3985
  394MOL0     H51996   4.612   8.875   9.802 -1.8963 -1.1014  0.2325
  394MOL0     H51997   4.754   8.750   9.624  0.2500  1.6944  2.4488
  394MOL0     H51998   4.802   8.503   9.504  2.9248  1.5567  0.2612
  394MOL0     H51999   4.815   8.651   9.404  0.7823  0.1962 -0.5702
  394MOL0     H52000   4.735   8.518   9.198  0.3734 -0.1658 -0.1981
  394MOL0     H52001   4.883   8.459   9.283  0.7630 -0.7686 -0.2854
  394MOL0     H52002   4.603   8.342   9.334  0.7990 -1.1404  1.3618
  394MOL0     H52003   4.764   8.285   9.398 -0.7033 -1.1722  0.8635
  394MOL0     H52004   4.649   8.314   9.118  1.6185 -2.2510 -3.8113
  394MOL0     H52005   4.808   8.249   9.149  2.0203  3.1369  2.2612
  394MOL0     H52006   4.576   7.929   9.332  2.1198 -2.8652 -1.7473
  394MOL0     H52007   4.380   8.574   9.478 -1.1733 -2.8813  3.0364
  394MOL0     H52008   4.263   8.705   9.655  0.8663 -3.0869  3.6437
  395MOL0     O52009   8.450   4.576   1.522  0.6248  0.7325 -0.7830
  395MOL0     C52010   8.368   4.587   1.431 -0.2714 -0.4193  0.0356
  395MOL0     O52011   8.294   4.479   1.379 -0.7114 -0.4228  1.1439
  395MOL0     C52012   8.315   4.356   1.436  0.1232 -0.5252  0.1553
  395MOL0     C52013   8.250   4.339   1.561 -0.6345 -0.6878 -0.2175
  395MOL0     C52014   8.269   4.226   1.634 -0.3766 -1.1718 -0.5060
  395MOL0     C52015   8.368   4.133   1.601 -0.4412  0.5360 -0.0014
  395MOL0     O52016   8.398   4.023   1.674  0.7018 -0.0439  0.1245
  395MOL0     C52017   8.288   3.950   1.731 -0.4171  0.3630  0.0176
  395MOL0     C52018   8.330   3.863   1.846 -0.3824 -0.4856  0.9578
  395MOL0     C52019   8.297   3.931   1.984 -0.1625 -0.0344  0.0428
  395MOL0     C52020   8.354   3.835   2.095  0.1605 -0.4448 -0.1723
  395MOL0     C52021   8.329   3.889   2.241  0.5613 -0.2398 -0.1469
  395MOL0     C52022   8.390   4.027   2.269 -0.4834 -0.2525  0.2613
  395MOL0     C52023   8.446   4.050   2.411  0.1901 -1.0920  0.4380
  395MOL0     C52024   8.341   4.068   2.515  0.6089  0.1046  1.0634
  395MOL0     N52025   8.272   3.935   2.538 -0.2599 -0.2735 -0.7334
  395MOL0     C52026   8.343   3.828   2.592  0.7950 -0.1731  0.0275
  395MOL0     C52027   8.249   3.731   2.602 -0.0094 -0.5827  0.6038
  395MOL0     C52028   8.259   3.587   2.644 -0.3235 -0.7196  0.6193
  395MOL0     C52029   8.241   3.486   2.530  0.4082 -0.0145 -0.4465
  395MOL0     C52030   8.360   3.511   2.432 -0.1567  0.2030 -0.1187
  395MOL0     C52031   8.364   3.407   2.320  0.3539 -0.6560 -0.6102
  395MOL0     O52032   8.359   3.271   2.366 -0.1097 -0.8381 -0.7869
  395MOL0     C52033   8.479   3.214   2.394 -0.6617  0.4653 -0.4675
  395MOL0     C52034   8.601   3.283   2.409 -0.0007  0.0183 -0.5127
  395MOL0     C52035   8.708   3.218   2.460 -0.7934 -0.6766 -0.5447
  395MOL0     C52036   8.705   3.083   2.508 -0.9321  0.0428  0.8238
  395MOL0     C52037   8.818   3.012   2.570  0.1153 -0.9989 -0.3256
  395MOL0     O52038   8.907   3.103   2.621  1.0582  0.8183 -0.3504
  395MOL0     C52039   9.032   3.060   2.656  0.8059  0.1397  0.6678
  395MOL0     C52040   9.112   2.966   2.586  0.2551  0.1104 -0.4658
  395MOL0     C52041   9.245   2.947   2.623 -0.1903 -0.0292 -1.0081
  395MOL0     C52042   9.301   3.010   2.737 -0.7800  0.1320 -0.2409
  395MOL0     O52043   9.436   2.999   2.779  0.0351 -0.6604  0.4008
  395MOL0     C52044   9.510   2.895   2.724 -0.4370  0.0602  0.7220
  395MOL0     C52045   9.666   2.896   2.746 -0.1339  0.4670  0.3027
  395MOL0     C52046   9.701   2.901   2.897 -0.1770  0.8667 -0.1327
  395MOL0     C52047   9.851   2.961   2.920 -0.0441  0.7412 -0.6327
  395MOL0     C52048   9.953   2.953   2.806 -0.9213 -0.1379  0.3212
  395MOL0     C52049  10.092   2.992   2.847 -0.3015 -0.3463  0.5376
  395MOL0     C52050  10.159   2.940   2.974 -1.0087 -0.0542 -1.0747
  395MOL0     C52051  10.151   3.046   3.093  0.0943 -0.7801 -0.5032
  395MOL0    Cl52052  10.155   2.971   3.259 -0.1076  0.0302  0.0155
  395MOL0     C52053   9.227   3.114   2.802  0.6187  0.3446 -0.4094
  395MOL0     C52054   9.092   3.131   2.757 -0.8225  0.4479 -1.8951
  395MOL0     O52055   8.828   2.892   2.578 -0.4581  0.6853 -0.1195
  395MOL0     C52056   8.586   3.007   2.479  0.0226 -0.9968  0.5468
  395MOL0     C52057   8.469   3.071   2.431  0.1516 -0.3738  0.1099
  395MOL0     N52058   8.134   3.782   2.556  0.6429  0.3645  0.1039
  395MOL0     N52059   8.148   3.898   2.509  0.2443 -0.1704 -0.1281
  395MOL0     C52060   8.447   4.151   1.491  0.3796  0.1443  0.1573
  395MOL0     C52061   8.415   4.261   1.402 -0.0521  1.0703 -0.0927
  395MOL0     C52062   8.320   4.708   1.384 -0.9397 -0.3072  0.2273
  395MOL0     C52063   8.304   4.743   1.246 -0.0038 -0.1130 -0.9144
  395MOL0     C52064   8.225   4.848   1.212 -0.1965 -1.0670 -0.6379
  395MOL0     C52065   8.186   4.944   1.311  0.2449 -0.3360  0.3694
  395MOL0     O52066   8.113   5.058   1.285 -0.3132 -0.3692  0.4728
  395MOL0     C52067   8.173   5.159   1.193  0.0148 -0.5076 -0.1683
  395MOL0     C52068   8.061   5.238   1.133  0.1557  0.7931  0.2734
  395MOL0     C52069   7.980   5.150   1.033 -0.3698 -0.5324 -0.4879
  395MOL0     C52070   8.056   5.115   0.905  0.4335  0.4358 -0.0536
  395MOL0     C52071   8.075   5.229   0.818 -0.2191 -0.4426  0.6968
  395MOL0     C52072   8.088   5.326   0.741  0.1319  0.5195 -0.0394
  395MOL0     C52073   8.207   4.917   1.444  0.1106  1.1580 -0.3666
  395MOL0     C52074   8.269   4.798   1.474  0.7039 -0.4659  0.1504
  395MOL0     H52075   8.185   4.418   1.598  2.3310  2.2032 -0.6303
  395MOL0     H52076   8.224   4.234   1.732  2.2997  7.5424  0.8600
  395MOL0     H52077   8.244   3.895   1.648 -2.0041  1.2064  0.2533
  395MOL0     H52078   8.204   4.014   1.760  0.5483  1.5154  0.3992
  395MOL0     H52079   8.433   3.831   1.829 -0.2190  1.1708 -1.6010
  395MOL0     H52080   8.274   3.770   1.834  1.7334 -1.4655 -3.0002
  395MOL0     H52081   8.189   3.918   1.982 -0.3236  1.1036  0.7082
  395MOL0     H52082   8.329   4.035   1.995  2.5390 -0.7446 -0.3522
  395MOL0     H52083   8.302   3.738   2.094 -1.8459  0.5030  1.9157
  395MOL0     H52084   8.460   3.823   2.073 -0.0610 -0.2743 -1.3799
  395MOL0     H52085   8.360   3.813   2.314 -0.1470 -0.9984 -0.6172
  395MOL0     H52086   8.221   3.900   2.243  0.7642  2.2859  1.0553
  395MOL0     H52087   8.317   4.103   2.239 -0.7437 -1.1159 -1.4125
  395MOL0     H52088   8.479   4.035   2.206  0.7281  0.0140  1.9432
  395MOL0     H52089   8.509   3.970   2.451 -0.6843  0.4369  5.5412
  395MOL0     H52090   8.510   4.136   2.431  0.0605 -1.2386  1.5322
  395MOL0     H52091   8.270   4.140   2.475 -0.7601 -3.4317 -3.7477
  395MOL0     H52092   8.407   4.116   2.589  1.3066  3.5207 -1.5534
  395MOL0     H52093   8.444   3.795   2.614  0.7457 -0.4378 -0.1330
  395MOL0     H52094   8.182   3.576   2.721 -0.1851 -0.2023  0.8336
  395MOL0     H52095   8.356   3.566   2.690 -1.1038 -1.7816  1.8410
  395MOL0     H52096   8.140   3.490   2.486 -0.2614 -4.7197  0.1341
  395MOL0     H52097   8.247   3.387   2.574  2.1877 -0.0120 -0.6207
  395MOL0     H52098   8.339   3.602   2.375 -4.4187 -0.0313  0.7751
  395MOL0     H52099   8.451   3.523   2.493 -2.1707  2.9854  2.6301
  395MOL0     H52100   8.444   3.422   2.246 -0.7119  1.1813 -1.4715
  395MOL0     H52101   8.268   3.433   2.276 -1.0073  0.5047  2.7270
  395MOL0     H52102   8.622   3.386   2.383 -0.3501  0.5791  1.3088
  395MOL0     H52103   8.798   3.279   2.469 -0.8098 -0.9541  2.7059
  395MOL0     H52104   9.073   2.906   2.505  1.2893 -1.2763  0.0294
  395MOL0     H52105   9.296   2.870   2.566 -1.7561  0.3880 -3.1074
  395MOL0     H52106   9.500   2.909   2.616  1.2537 -3.6692 -0.0737
  395MOL0     H52107   9.462   2.800   2.748 -2.8136  0.6620 -1.2608
  395MOL0     H52108   9.692   2.993   2.703 -2.2595  0.1567 -1.9525
  395MOL0     H52109   9.713   2.813   2.693 -3.5804 -0.7570 -1.1506
  395MOL0     H52110   9.698   2.801   2.940  3.0205  0.0098 -1.6044
  395MOL0     H52111   9.623   2.964   2.939 -3.6984 -2.0450 -1.7640
  395MOL0     H52112   9.844   3.068   2.944 -1.6891  0.8372 -1.4105
  395MOL0     H52113   9.885   2.902   3.005 -1.4708 -2.5125 -2.1444
  395MOL0     H52114   9.927   3.025   2.727  2.6565  1.7422  0.6556
  395MOL0     H52115   9.950   2.849   2.772  3.8330  0.1096 -1.6394
  395MOL0     H52116  10.098   3.101   2.853 -1.8017 -0.2974  1.7696
  395MOL0     H52117  10.152   2.972   2.758 -3.0968  4.0957 -2.8254
  395MOL0     H52118  10.116   2.844   3.005 -1.1218  0.2850 -0.1737
  395MOL0     H52119  10.263   2.915   2.953 -1.8149 -3.8056 -1.4872
  395MOL0     H52120  10.051   3.090   3.088  0.2745 -0.3013  0.0842
  395MOL0     H52121  10.219   3.129   3.075 -0.7370 -0.5503 -2.9262
  395MOL0     H52122   9.282   3.180   2.868  2.0622  0.1582 -1.3735
  395MOL0     H52123   9.041   3.223   2.784  1.3378  2.1205 -3.1298
  395MOL0     H52124   8.576   2.906   2.518  0.5391 -0.7611  1.3115
  395MOL0     H52125   8.371   3.025   2.419  0.0283 -0.9234  2.6321
  395MOL0     H52126   8.523   4.079   1.462 -1.0737 -1.0000 -0.9702
  395MOL0     H52127   8.471   4.276   1.310  0.4413 -0.9017 -0.1668
  395MOL0     H52128   8.354   4.670   1.183 -0.2320  0.6624 -2.0141
  395MOL0     H52129   8.200   4.874   1.110 -0.5204  1.2771 -0.0137
  395MOL0     H52130   8.236   5.107   1.120  0.8635 -2.2249  1.6647
  395MOL0     H52131   8.237   5.220   1.257 -0.0218 -3.3977  2.9092
  395MOL0     H52132   7.988   5.274   1.207  0.3406 -2.8720  2.4595
  395MOL0     H52133   8.085   5.335   1.088 -1.9032  2.6313  2.7682
  395MOL0     H52134   7.893   5.210   1.006  2.5616  4.0243 -0.8243
  395MOL0     H52135   7.956   5.054   1.081 -1.6559  0.7030  1.4841
  395MOL0     H52136   8.154   5.067   0.917 -0.0140 -2.0149 -4.0580
  395MOL0     H52137   7.994   5.035   0.864 -1.7483  1.8804  0.2880
  395MOL0     H52138   8.107   5.407   0.673  4.0895 -1.1695 -1.2429
  395MOL0     H52139   8.171   4.974   1.529  0.3487 -0.7681  1.0977
  395MOL0     H52140   8.260   4.767   1.578 -4.0060 -0.9686 -0.1591
  396MOL0     O52141   6.311   5.102  10.115  1.0964 -0.0334  0.5355
  396MOL0     C52142   6.214   5.036  10.150  0.3507  0.0846 -0.0986
  396MOL0     O52143   6.211   4.906  10.176  0.0005 -0.2533  0.3387
  396MOL0     C52144   6.335   4.844  10.194  0.2614  0.4506 -1.0506
  396MOL0     C52145   6.371   4.787  10.317 -0.9721 -0.1644 -0.6909
  396MOL0     C52146   6.486   4.712  10.333 -0.2714  0.3472  1.3019
  396MOL0     C52147   6.577   4.690  10.231 -0.0953 -0.7039  0.4041
  396MOL0     O52148   6.694   4.635  10.232 -0.8707  0.4694  0.7534
  396MOL0     C52149   6.779   4.679  10.341  0.1909  0.9559  0.5637
  396MOL0     C52150   6.924   4.667  10.306  0.4266  0.2822  0.3713
  396MOL0     C52151   6.965   4.520  10.277  0.1455  0.5874  0.2129
  396MOL0     C52152   7.122   4.509  10.257  0.4035  0.0439 -0.1023
  396MOL0     C52153   7.167   4.361  10.225 -0.3816 -0.1939 -0.9552
  396MOL0     C52154   7.306   4.347  10.175  0.0886  0.4793  0.1875
  396MOL0     C52155   7.409   4.381  10.276  0.7306  0.2847 -0.2114
  396MOL0     C52156   7.550   4.357  10.241 -1.0111  0.0791 -0.2437
  396MOL0     N52157   7.605   4.230  10.292 -0.2812  0.0278  0.7475
  396MOL0     C52158   7.543   4.107  10.270  0.6886  0.0302 -0.9846
  396MOL0     C52159   7.613   4.016  10.352  0.7196 -0.3397 -0.2927
  396MOL0     C52160   7.598   3.862  10.362  1.0302  0.5584 -0.4011
  396MOL0     C52161   7.535   3.811  10.500  0.0701  0.0315  0.5084
  396MOL0     C52162   7.523   3.653  10.495  0.2485  0.9602 -1.2772
  396MOL0     C52163   7.493   3.593  10.635 -1.6197  0.3302 -0.1430
  396MOL0     O52164   7.377   3.660  10.685  0.0174 -0.2848 -0.3978
  396MOL0     C52165   7.385   3.742  10.793  0.1179  0.0861 -0.0683
  396MOL0     C52166   7.496   3.768  10.873  0.0771  0.9231 -0.6503
  396MOL0     C52167   7.483   3.853  10.974  0.1191 -0.4725 -0.6191
  396MOL0     C52168   7.362   3.915  11.015  0.0047  0.6401 -0.3001
  396MOL0     C52169   7.344   4.008  11.135 -0.3032 -0.5343  0.6791
  396MOL0     O52170   7.452   4.020  11.226 -1.0957  0.1235  0.1679
  396MOL0     C52171   7.444   4.107  11.330 -0.0300 -0.5668 -1.2263
  396MOL0     C52172   7.335   4.187  11.370  0.1092  0.4674 -0.4000
  396MOL0     C52173   7.335   4.259  11.495 -0.9243 -0.3945 -0.5325
  396MOL0     C52174   7.457   4.266  11.570  0.2075 -0.6924 -0.1697
  396MOL0     O52175   7.465   4.342  11.689  0.5042 -0.5960  0.0816
  396MOL0     C52176   7.417   4.270  11.799  0.5626 -0.0571 -0.4503
  396MOL0     C52177   7.378   4.364  11.911 -0.7934 -0.6380 -0.2897
  396MOL0     C52178   7.289   4.300  12.014  0.9321 -0.4508 -0.0050
  396MOL0     C52179   7.273   4.382  12.145  0.1766 -0.3619  0.7500
  396MOL0     C52180   7.146   4.365  12.229  0.1067  0.4089  0.2128
  396MOL0     C52181   7.119   4.220  12.264  0.0345 -0.0411 -0.0942
  396MOL0     C52182   7.226   4.169  12.364  0.1537 -0.3029 -0.4098
  396MOL0     C52183   7.217   4.024  12.399  0.1044  0.5138  0.3957
  396MOL0    Cl52184   7.332   3.988  12.525 -0.0509 -0.0363 -0.0297
  396MOL0     C52185   7.563   4.189  11.533 -1.0577  0.7731  0.4145
  396MOL0     C52186   7.552   4.101  11.418 -0.2775  0.7582  0.2547
  396MOL0     O52187   7.238   4.078  11.134  0.2801 -0.7948  0.2485
  396MOL0     C52188   7.252   3.892  10.934 -0.1270  0.3358  0.1136
  396MOL0     C52189   7.264   3.800  10.831  0.4259 -0.2703  0.5030
  396MOL0     N52190   7.703   4.089  10.426  0.3191 -0.8010 -0.1840
  396MOL0     N52191   7.698   4.214  10.392  0.2097  0.3311 -0.9082
  396MOL0     C52192   6.547   4.756  10.108 -0.5352 -0.1992  0.6861
  396MOL0     C52193   6.426   4.834  10.090 -0.6752 -0.5076 -0.4768
  396MOL0     C52194   6.080   5.099  10.169 -0.4486 -0.0888  0.8741
  396MOL0     C52195   5.966   5.017  10.160 -0.6499  0.4948 -1.4038
  396MOL0     C52196   5.844   5.073  10.148  0.3721  0.0426 -0.6698
  396MOL0     C52197   5.818   5.209  10.164  0.2912 -0.3712  0.6800
  396MOL0     O52198   5.692   5.259  10.149  0.4018  0.6001  0.2615
  396MOL0     C52199   5.661   5.394  10.151 -0.6677 -0.0060  0.4519
  396MOL0     C52200   5.519   5.439  10.127  0.5429 -0.8705  0.3355
  396MOL0     C52201   5.506   5.593  10.154  0.1163 -0.2855  0.2284
  396MOL0     C52202   5.475   5.628  10.301 -0.6197  1.2508 -0.8010
  396MOL0     C52203   5.604   5.675  10.371 -0.0234  0.2210 -0.5489
  396MOL0     C52204   5.712   5.701  10.422  0.6421 -0.4338  1.4106
  396MOL0     C52205   5.933   5.293  10.188  0.7301 -0.1099 -0.1282
  396MOL0     C52206   6.062   5.239  10.197 -0.0845  0.8025  0.1288
  396MOL0     H52207   6.304   4.801  10.401 -0.7138 -2.3843 -0.0718
  396MOL0     H52208   6.498   4.657  10.426 -2.4128  1.6571  2.4439
  396MOL0     H52209   6.745   4.631  10.434 -0.6989  0.1490 -0.1607
  396MOL0     H52210   6.776   4.786  10.363  4.5471  0.9546  2.0124
  396MOL0     H52211   6.998   4.701  10.379  0.5629  1.3901 -0.2690
  396MOL0     H52212   6.936   4.726  10.215 -0.8053  1.2152  0.7903
  396MOL0     H52213   6.905   4.487  10.192  1.3425 -0.0762 -0.3932
  396MOL0     H52214   6.935   4.451  10.357  0.5734  0.9674  0.7178
  396MOL0     H52215   7.155   4.588  10.189 -0.2433 -0.0605 -0.5503
  396MOL0     H52216   7.169   4.534  10.352 -2.3568 -2.3654  2.0929
  396MOL0     H52217   7.117   4.316  10.139 -2.6551 -1.8461  1.0882
  396MOL0     H52218   7.153   4.295  10.311  2.2744 -0.7676 -0.8875
  396MOL0     H52219   7.318   4.409  10.086  1.1023  2.8160  1.8419
  396MOL0     H52220   7.325   4.244  10.144 -0.5446 -0.6519  3.1419
  396MOL0     H52221   7.397   4.485  10.309 -1.0317  0.8422 -2.3113
  396MOL0     H52222   7.384   4.323  10.365  0.9524  0.0258 -0.3187
  396MOL0     H52223   7.611   4.442  10.272 -1.5574  0.7320 -0.9522
  396MOL0     H52224   7.554   4.352  10.132  1.6303  0.6377 -0.2329
  396MOL0     H52225   7.463   4.081  10.202 -0.7652 -0.6118  0.9035
  396MOL0     H52226   7.704   3.835  10.361  1.1696  0.4003  3.3936
  396MOL0     H52227   7.546   3.820  10.275  0.2714  0.1277  0.2469
  396MOL0     H52228   7.434   3.852  10.509  0.8279  3.0615 -2.7285
  396MOL0     H52229   7.597   3.846  10.583 -0.8196  3.1263  0.0025
  396MOL0     H52230   7.437   3.624  10.432 -0.9038 -1.5990  1.2578
  396MOL0     H52231   7.619   3.615  10.458  0.2140 -0.7536  0.2600
  396MOL0     H52232   7.586   3.617  10.687 -1.9931 -2.0054  1.8029
  396MOL0     H52233   7.480   3.484  10.635  2.1599 -0.2489 -0.3853
  396MOL0     H52234   7.598   3.743  10.845  0.1546  1.4516 -0.8500
  396MOL0     H52235   7.575   3.879  11.025 -0.8313  0.5523  0.6633
  396MOL0     H52236   7.249   4.209  11.308 -1.1022  2.0361  1.6988
  396MOL0     H52237   7.241   4.300  11.529 -1.0904 -0.2570 -1.1346
  396MOL0     H52238   7.494   4.204  11.840  0.1520  0.2800  0.9349
  396MOL0     H52239   7.325   4.211  11.787  0.1706  0.2527  0.8881
  396MOL0     H52240   7.317   4.450  11.880 -0.6980  0.3459  2.0897
  396MOL0     H52241   7.470   4.408  11.952 -0.1434 -1.4480 -0.8411
  396MOL0     H52242   7.335   4.205  12.043  2.1223  0.2292  0.3834
  396MOL0     H52243   7.192   4.279  11.968  1.2915 -2.3718 -0.0034
  396MOL0     H52244   7.357   4.378  12.216  1.2709 -1.0467 -0.5261
  396MOL0     H52245   7.288   4.485  12.112 -1.6794  0.1751  1.4666
  396MOL0     H52246   7.057   4.402  12.178 -0.6154 -0.5386  0.7550
  396MOL0     H52247   7.149   4.423  12.321 -1.7129 -0.4367  0.8400
  396MOL0     H52248   7.121   4.163  12.171  2.2098 -0.4817  0.1779
  396MOL0     H52249   7.024   4.221  12.318 -0.2595  0.1164 -0.6078
  396MOL0     H52250   7.322   4.178  12.311 -0.0927  1.3028 -0.6531
  396MOL0     H52251   7.232   4.237  12.449 -1.7551 -0.8591  0.2166
  396MOL0     H52252   7.228   3.964  12.308  3.7688 -1.7382  2.0988
  396MOL0     H52253   7.114   3.998  12.425  0.2500  1.0682  1.5726
  396MOL0     H52254   7.651   4.184  11.596 -1.3447 -1.8799  0.7283
  396MOL0     H52255   7.632   4.031  11.394 -0.2501  0.8859 -0.0162
  396MOL0     H52256   7.154   3.934  10.954  0.2788  1.3476  0.0367
  396MOL0     H52257   7.171   3.784  10.776  0.0662  0.2601  0.9471
  396MOL0     H52258   6.616   4.739  10.027 -0.1188  1.1524  0.7242
  396MOL0     H52259   6.400   4.877   9.994 -1.9453  3.3406  1.4140
  396MOL0     H52260   5.965   4.909  10.143  1.2742  0.0187  0.9981
  396MOL0     H52261   5.750   5.022  10.127 -1.2392  1.9725  1.3649
  396MOL0     H52262   5.730   5.450  10.087  0.0907 -1.9794 -0.5260
  396MOL0     H52263   5.674   5.435  10.252 -2.3265 -1.2696  1.2312
  396MOL0     H52264   5.495   5.427  10.021  0.4021 -0.6088  0.3383
  396MOL0     H52265   5.456   5.374  10.189  1.0342 -0.8644  0.8572
  396MOL0     H52266   5.420   5.621  10.091  0.3717 -0.0278 -0.0082
  396MOL0     H52267   5.578   5.648  10.093 -0.3348 -0.8489 -0.8342
  396MOL0     H52268   5.402   5.710  10.296 -0.2077  1.8691  2.0239
  396MOL0     H52269   5.435   5.549  10.366 -0.9360  1.8847 -0.2205
  396MOL0     H52270   5.806   5.723  10.468  1.5124 -5.2093  2.4364
  396MOL0     H52271   5.901   5.395  10.209 -0.0496  0.4468 -3.4372
  396MOL0     H52272   6.150   5.295  10.229 -0.0244  1.7645 -1.6157
  397MOL0     O52273   7.132   1.032   2.216  0.6303 -0.3908 -0.0367
  397MOL0     C52274   7.153   1.008   2.099  0.4788  0.5037  0.6938
  397MOL0     O52275   7.274   1.012   2.040 -0.4069 -0.3487 -0.6652
  397MOL0     C52276   7.387   1.059   2.101  0.9707 -0.1041  0.3492
  397MOL0     C52277   7.399   1.135   2.221 -0.1228 -0.6613 -0.0827
  397MOL0     C52278   7.528   1.160   2.269 -0.4872  0.9180 -0.5627
  397MOL0     C52279   7.643   1.125   2.194 -0.6403 -1.0959 -0.5647
  397MOL0     O52280   7.751   1.206   2.237 -0.7228  0.3259 -0.0175
  397MOL0     C52281   7.865   1.201   2.139  0.0229 -0.9263  0.1291
  397MOL0     C52282   7.980   1.275   2.198 -1.1622 -0.5394  0.2399
  397MOL0     C52283   7.956   1.415   2.233  0.8975 -0.2787 -0.5344
  397MOL0     C52284   8.084   1.503   2.273 -0.0147  0.8588 -0.4471
  397MOL0     C52285   8.057   1.645   2.287 -0.0681 -0.8635 -0.8588
  397MOL0     C52286   8.064   1.736   2.159 -0.5357 -0.3882  0.9043
  397MOL0     C52287   8.076   1.879   2.198 -0.1087  0.6967 -0.0316
  397MOL0     C52288   8.050   1.970   2.077 -0.1046  0.1580  0.5402
  397MOL0     N52289   7.913   1.959   2.020  0.3966  0.1099 -0.2552
  397MOL0     C52290   7.799   1.902   2.081 -0.4774  0.6330  1.1624
  397MOL0     C52291   7.704   1.908   1.988  0.3415  0.3118 -0.5689
  397MOL0     C52292   7.564   1.876   1.998 -0.0636 -0.2421 -0.0493
  397MOL0     C52293   7.470   1.980   2.072  0.7915  0.4356 -0.0233
  397MOL0     C52294   7.325   1.934   2.086 -0.1534  0.6072 -0.3192
  397MOL0     C52295   7.235   2.044   2.147  0.3454  0.2990  0.2877
  397MOL0     O52296   7.103   2.007   2.126  0.7776 -0.2433 -0.0997
  397MOL0     C52297   7.023   2.096   2.056  0.4232  0.9221 -0.6977
  397MOL0     C52298   6.920   2.030   1.993 -0.2019 -0.3659 -0.0642
  397MOL0     C52299   6.822   2.096   1.912 -0.8232 -0.4801  1.1891
  397MOL0     C52300   6.830   2.239   1.902 -0.3947 -0.3775 -1.0637
  397MOL0     C52301   6.733   2.327   1.826  1.0137  0.0339  0.4941
  397MOL0     O52302   6.610   2.264   1.824  0.5190 -0.5915  0.3036
  397MOL0     C52303   6.509   2.328   1.753  0.0648  1.3648  0.1387
  397MOL0     C52304   6.442   2.449   1.785 -0.6509 -0.8599  0.4758
  397MOL0     C52305   6.342   2.501   1.701  0.5174  0.2251 -0.9437
  397MOL0     C52306   6.313   2.431   1.580 -0.6030  0.5111 -0.1257
  397MOL0     O52307   6.216   2.483   1.509 -0.0275  0.1846  0.6130
  397MOL0     C52308   6.160   2.403   1.394 -0.8921  1.2294  1.2943
  397MOL0     C52309   6.017   2.449   1.361  0.5670 -0.4292 -0.1729
  397MOL0     C52310   5.955   2.367   1.242 -0.1357 -0.0332  0.2388
  397MOL0     C52311   5.819   2.425   1.210 -0.0277  0.2936 -0.0772
  397MOL0     C52312   5.751   2.316   1.110 -0.5759 -0.2300 -0.0091
  397MOL0     C52313   5.678   2.388   1.001  0.1317 -0.7136 -0.0097
  397MOL0     C52314   5.547   2.455   1.049 -1.2049 -0.4451  0.9400
  397MOL0     C52315   5.497   2.521   0.924  0.0145 -0.0811 -0.1442
  397MOL0    Cl52316   5.332   2.591   0.940  0.3224  0.2772  0.3953
  397MOL0     C52317   6.369   2.307   1.558 -0.5342 -0.3367  0.0791
  397MOL0     C52318   6.466   2.251   1.644  0.0192  0.8153 -0.2530
  397MOL0     O52319   6.759   2.436   1.781  0.8868  0.5699  0.7132
  397MOL0     C52320   6.944   2.300   1.967 -0.1020 -0.5090 -0.4818
  397MOL0     C52321   7.045   2.234   2.045  0.5631 -0.0136  0.0265
  397MOL0     N52322   7.758   1.952   1.874 -0.1734 -0.6729 -0.3078
  397MOL0     N52323   7.884   1.985   1.893  0.5464  0.5407 -0.6910
  397MOL0     C52324   7.632   1.039   2.083 -0.0732  0.7448 -0.6639
  397MOL0     C52325   7.503   1.011   2.039 -0.7242  0.5052 -0.2161
  397MOL0     C52326   7.035   0.960   2.016  1.0856 -0.5776 -0.3126
  397MOL0     C52327   7.055   0.909   1.894 -0.0462 -0.1380 -0.3167
  397MOL0     C52328   6.947   0.869   1.817  0.6853 -0.4292  0.3417
  397MOL0     C52329   6.818   0.878   1.846  0.0833 -0.8790 -0.5514
  397MOL0     O52330   6.715   0.829   1.764 -0.0218 -0.8378  0.0888
  397MOL0     C52331   6.721   0.801   1.631 -0.2966 -0.7084  0.2749
  397MOL0     C52332   6.598   0.747   1.565  0.8125  0.0545  0.2490
  397MOL0     C52333   6.470   0.830   1.586 -0.2627 -0.0278 -0.0218
  397MOL0     C52334   6.368   0.798   1.464 -0.3475 -0.1634 -0.6403
  397MOL0     C52335   6.332   0.657   1.473  0.7382  0.5026 -0.1136
  397MOL0     C52336   6.295   0.543   1.469  0.0190 -0.4068  1.0153
  397MOL0     C52337   6.789   0.950   1.967 -0.0056  0.0192 -0.4883
  397MOL0     C52338   6.906   0.996   2.048 -0.4665  0.8184  0.0034
  397MOL0     H52339   7.317   1.172   2.282  0.0886  2.1752 -1.3280
  397MOL0     H52340   7.539   1.226   2.355  1.3210  2.8720 -2.1544
  397MOL0     H52341   7.842   1.248   2.043 -0.7879 -2.4627 -0.4505
  397MOL0     H52342   7.900   1.099   2.121  0.4967 -0.7045 -0.2212
  397MOL0     H52343   8.062   1.275   2.126 -0.2400  0.2777  1.2691
  397MOL0     H52344   8.023   1.213   2.277  1.5108 -0.8452 -1.3567
  397MOL0     H52345   7.887   1.408   2.317 -0.8279  0.8188 -1.7737
  397MOL0     H52346   7.902   1.467   2.153  1.1844 -0.5298 -0.8998
  397MOL0     H52347   8.119   1.468   2.370  2.4201  2.8238 -0.5023
  397MOL0     H52348   8.166   1.478   2.204  2.5842 -1.0733  3.0197
  397MOL0     H52349   8.136   1.693   2.347 -2.1572  2.5850 -0.6060
  397MOL0     H52350   7.965   1.655   2.344  0.3048  0.1088 -0.4052
  397MOL0     H52351   7.974   1.722   2.098  0.0702  2.3577 -0.8110
  397MOL0     H52352   8.147   1.723   2.089  0.0921  2.3408  1.0099
  397MOL0     H52353   7.997   1.905   2.270 -1.8934 -3.8467 -0.0441
  397MOL0     H52354   8.173   1.907   2.241  0.4902  3.4004 -2.7905
  397MOL0     H52355   8.118   1.936   1.999 -2.4087 -1.5197 -0.8574
  397MOL0     H52356   8.051   2.078   2.090 -0.0408  0.3484 -0.9302
  397MOL0     H52357   7.772   1.877   2.183 -2.9526  4.9988  1.8129
  397MOL0     H52358   7.555   1.777   2.044 -0.6375 -0.1515  0.0310
  397MOL0     H52359   7.529   1.856   1.896  3.2276 -1.1798 -1.1269
  397MOL0     H52360   7.467   2.081   2.032 -0.7699  0.4171 -0.0245
  397MOL0     H52361   7.509   1.995   2.173  0.1405 -0.2060  0.3277
  397MOL0     H52362   7.270   1.906   1.996 -3.2467  1.3277  1.2006
  397MOL0     H52363   7.328   1.857   2.164  0.3132  2.7282  1.8880
  397MOL0     H52364   7.264   2.138   2.101 -2.1068 -1.0728 -4.8572
  397MOL0     H52365   7.252   2.053   2.254  3.1442 -1.6415  0.1099
  397MOL0     H52366   6.933   1.923   2.002  2.7419  0.0130  1.1967
  397MOL0     H52367   6.750   2.033   1.862 -2.8365  3.1843 -0.9401
  397MOL0     H52368   6.483   2.506   1.869  0.7220 -0.3252 -0.5064
  397MOL0     H52369   6.295   2.595   1.725 -1.8874 -1.5406  2.0280
  397MOL0     H52370   6.150   2.296   1.413  1.6569  0.9238  1.2241
  397MOL0     H52371   6.231   2.419   1.313 -2.4557 -1.2543 -0.7281
  397MOL0     H52372   6.030   2.556   1.343  1.9992 -0.6808 -0.7303
  397MOL0     H52373   5.957   2.435   1.452  0.0302  0.4484 -0.3789
  397MOL0     H52374   5.931   2.263   1.267 -1.4514  0.4322  0.9894
  397MOL0     H52375   6.032   2.363   1.164  0.3526 -4.6137  0.6681
  397MOL0     H52376   5.755   2.457   1.292  2.4108  1.1963  1.5716
  397MOL0     H52377   5.834   2.515   1.150  3.2493  2.2543  3.2861
  397MOL0     H52378   5.679   2.246   1.153 -2.0847 -1.7033 -4.4297
  397MOL0     H52379   5.829   2.256   1.061  0.1660  1.8289 -1.5035
  397MOL0     H52380   5.645   2.312   0.930  3.9133  0.8855 -3.9281
  397MOL0     H52381   5.749   2.449   0.943  1.2925 -0.8813  1.1845
  397MOL0     H52382   5.479   2.382   1.092 -3.0425  0.1490 -0.7824
  397MOL0     H52383   5.569   2.532   1.123  1.4595 -0.0440 -0.1509
  397MOL0     H52384   5.500   2.451   0.840  0.5728  0.0384 -0.2249
  397MOL0     H52385   5.559   2.608   0.899  1.1698 -0.9738 -0.4508
  397MOL0     H52386   6.338   2.239   1.480  3.5516 -2.7165  0.2613
  397MOL0     H52387   6.502   2.150   1.625  0.8567  1.4594 -2.3689
  397MOL0     H52388   6.973   2.405   1.958  0.4111 -0.1950  3.2234
  397MOL0     H52389   7.123   2.292   2.093  1.3813  0.2356 -1.5194
  397MOL0     H52390   7.722   1.015   2.028  1.4427  3.8893  0.2432
  397MOL0     H52391   7.488   0.942   1.956  3.4994 -0.0876 -0.7059
  397MOL0     H52392   7.157   0.894   1.861 -0.1339 -6.2187  0.9685
  397MOL0     H52393   6.962   0.828   1.718 -1.6252  0.5137 -0.4591
  397MOL0     H52394   6.795   0.720   1.629 -0.6787 -1.0435 -0.2752
  397MOL0     H52395   6.760   0.887   1.576 -1.7445  0.5149  1.0942
  397MOL0     H52396   6.619   0.740   1.458  2.3770  2.0833  0.3905
  397MOL0     H52397   6.577   0.648   1.608 -1.3268 -0.3380 -1.4936
  397MOL0     H52398   6.494   0.936   1.575  0.4344 -0.1390  0.3168
  397MOL0     H52399   6.411   0.813   1.676  1.9301  0.0746  1.5292
  397MOL0     H52400   6.280   0.863   1.471 -1.2085 -1.3852  0.7290
  397MOL0     H52401   6.414   0.816   1.367  0.6406 -0.5341 -0.2499
  397MOL0     H52402   6.255   0.444   1.456 -1.4736  0.3224 -0.4079
  397MOL0     H52403   6.685   0.973   1.989 -0.5796 -1.2329 -1.7350
  397MOL0     H52404   6.893   1.058   2.136 -2.0701  2.1314 -1.1016
  398MOL0     O52405   6.203   1.353   4.659 -0.0022  0.9002  0.5743
  398MOL0     C52406   6.305   1.348   4.593 -0.6082 -0.0369 -1.4811
  398MOL0     O52407   6.414   1.429   4.612  0.1704  0.5717 -0.9437
  398MOL0     C52408   6.415   1.552   4.670 -0.8658 -0.6063 -0.1584
  398MOL0     C52409   6.301   1.628   4.708 -0.4304 -0.1325  0.0416
  398MOL0     C52410   6.311   1.756   4.781 -1.2309  0.5936  0.6718
  398MOL0     C52411   6.435   1.801   4.809  1.5496  0.3300 -0.1314
  398MOL0     O52412   6.433   1.897   4.908  0.8504 -1.1504 -0.2059
  398MOL0     C52413   6.554   1.921   4.976 -0.6113 -0.1719  0.8217
  398MOL0     C52414   6.534   2.036   5.075  0.4971 -0.0249 -0.1933
  398MOL0     C52415   6.666   2.079   5.137 -0.7738  0.4473  0.2560
  398MOL0     C52416   6.634   2.179   5.252 -0.5044 -0.8464 -0.7979
  398MOL0     C52417   6.763   2.238   5.310 -0.2453 -0.3429  1.3283
  398MOL0     C52418   6.740   2.338   5.418 -0.1372 -0.7753 -0.6440
  398MOL0     C52419   6.869   2.389   5.477  0.0898 -0.6316  0.8048
  398MOL0     C52420   6.949   2.472   5.375 -0.0771 -0.6235  0.0192
  398MOL0     N52421   7.072   2.525   5.430  0.6684  0.6969 -0.0203
  398MOL0     C52422   7.198   2.480   5.424  0.4723 -0.2380  0.7138
  398MOL0     C52423   7.272   2.556   5.501 -0.5686  0.9676  0.2230
  398MOL0     C52424   7.418   2.537   5.518  0.0603 -0.5201 -0.9941
  398MOL0     C52425   7.508   2.644   5.462  0.2070 -0.7811  0.6464
  398MOL0     C52426   7.660   2.616   5.491  0.6953  0.1309 -0.2847
  398MOL0     C52427   7.764   2.728   5.452  0.1792 -0.0337  0.7518
  398MOL0     O52428   7.880   2.669   5.394  0.7561  0.3979 -0.1197
  398MOL0     C52429   7.895   2.636   5.267  0.2207  0.8085 -0.5385
  398MOL0     C52430   8.022   2.671   5.218  0.9235  0.1508 -0.2555
  398MOL0     C52431   8.054   2.653   5.081  0.2908  0.0243 -0.0531
  398MOL0     C52432   7.954   2.587   5.000  0.5144 -0.6902  0.0735
  398MOL0     C52433   7.975   2.563   4.864 -0.9309 -0.3871  0.5546
  398MOL0     O52434   8.109   2.586   4.819  0.0118  0.3388  0.3221
  398MOL0     C52435   8.151   2.560   4.691  0.7076 -0.9355  0.2339
  398MOL0     C52436   8.286   2.541   4.678 -0.3370  0.0703  0.4978
  398MOL0     C52437   8.342   2.538   4.551 -1.0075  0.2936 -0.2604
  398MOL0     C52438   8.261   2.523   4.435  0.6278  0.0523  0.5307
  398MOL0     O52439   8.297   2.482   4.303  0.2443 -0.1131 -0.4084
  398MOL0     C52440   8.439   2.447   4.303 -0.2788  0.1626 -0.5944
  398MOL0     C52441   8.463   2.400   4.156 -0.4250  0.5870  0.0685
  398MOL0     C52442   8.600   2.346   4.147 -0.3983 -1.3623  0.7342
  398MOL0     C52443   8.666   2.236   4.227 -0.1580 -0.6243 -0.3414
  398MOL0     C52444   8.598   2.090   4.210  1.3124 -0.3569  0.0506
  398MOL0     C52445   8.679   1.973   4.284 -0.4724 -1.1512  0.2977
  398MOL0     C52446   8.779   1.919   4.183 -0.1834 -0.2351  0.0221
  398MOL0     C52447   8.868   1.794   4.235  0.2886 -0.5841  0.5869
  398MOL0    Cl52448   8.974   1.726   4.116  0.7216  0.0188  0.1430
  398MOL0     C52449   8.123   2.531   4.449 -0.7075 -1.1656  0.0484
  398MOL0     C52450   8.070   2.572   4.573 -0.2234  0.3159  0.3923
  398MOL0     O52451   7.879   2.529   4.796 -0.5014 -0.5809 -0.2021
  398MOL0     C52452   7.837   2.547   5.061  0.0413  0.2026  0.0025
  398MOL0     C52453   7.800   2.575   5.186  0.5645 -1.5195  0.3326
  398MOL0     N52454   7.192   2.653   5.561 -0.0090 -0.5701 -0.2425
  398MOL0     N52455   7.073   2.633   5.522  0.5459 -0.0457 -0.2295
  398MOL0     C52456   6.548   1.732   4.758  0.2024  0.5157  0.7018
  398MOL0     C52457   6.537   1.610   4.688  0.3920 -0.4119 -0.3778
  398MOL0     C52458   6.318   1.246   4.493  0.3063 -0.6998 -1.0598
  398MOL0     C52459   6.198   1.190   4.452  0.3358  0.0427  0.0449
  398MOL0     C52460   6.190   1.085   4.368 -0.5911  0.2764 -0.9984
  398MOL0     C52461   6.310   1.017   4.322  0.4949 -0.3681 -0.7758
  398MOL0     O52462   6.311   0.910   4.240  0.6268  0.9469  0.1585
  398MOL0     C52463   6.190   0.856   4.195 -0.7167 -0.9495 -0.4331
  398MOL0     C52464   6.230   0.711   4.158 -0.0962  1.1076  0.6842
  398MOL0     C52465   6.257   0.697   4.005  0.8792  0.3709 -0.8186
  398MOL0     C52466   6.400   0.722   3.973 -0.0956  0.4181  0.3782
  398MOL0     C52467   6.423   0.757   3.834 -0.8539 -0.0924 -0.8542
  398MOL0     C52468   6.463   0.774   3.717  0.8947  1.1248  0.3733
  398MOL0     C52469   6.436   1.080   4.362  0.6053 -0.5117  0.1579
  398MOL0     C52470   6.444   1.191   4.452  0.7186  0.2444 -0.0113
  398MOL0     H52471   6.203   1.585   4.690 -0.3749  0.5654 -2.2391
  398MOL0     H52472   6.214   1.801   4.799 -2.4652 -1.1641 -1.0555
  398MOL0     H52473   6.634   1.953   4.908  1.6186 -1.6626  2.5548
  398MOL0     H52474   6.591   1.824   5.010 -0.4816 -0.2589  0.4493
  398MOL0     H52475   6.453   2.021   5.148 -1.2026  1.3972 -1.6710
  398MOL0     H52476   6.501   2.125   5.020 -2.2153 -1.1341 -0.5208
  398MOL0     H52477   6.729   2.121   5.057 -0.2429 -0.3926  0.2179
  398MOL0     H52478   6.723   1.991   5.170 -0.2752 -0.4984 -2.8279
  398MOL0     H52479   6.558   2.254   5.228  1.7115  2.1217  0.8947
  398MOL0     H52480   6.578   2.126   5.329  2.1896 -1.5841  0.7502
  398MOL0     H52481   6.804   2.298   5.228 -2.3374  0.4042  0.7744
  398MOL0     H52482   6.837   2.164   5.343  1.0079 -0.1902 -0.9212
  398MOL0     H52483   6.680   2.296   5.499  0.7972  1.1245  1.1271
  398MOL0     H52484   6.672   2.423   5.406  0.7214  0.9094  4.1876
  398MOL0     H52485   6.848   2.457   5.559  5.5359  0.1314  2.0041
  398MOL0     H52486   6.933   2.312   5.522 -1.1693 -3.5793 -2.0339
  398MOL0     H52487   6.888   2.559   5.349  0.7656 -0.3213 -1.0422
  398MOL0     H52488   6.972   2.436   5.274  1.7864  2.3099 -0.7389
  398MOL0     H52489   7.210   2.402   5.349  0.3281  2.0418 -1.8363
  398MOL0     H52490   7.471   2.443   5.500  1.8621  0.6011 -1.8318
  398MOL0     H52491   7.439   2.543   5.625  0.9628 -0.2778 -1.1757
  398MOL0     H52492   7.477   2.747   5.483 -1.0752 -0.2547 -3.0639
  398MOL0     H52493   7.468   2.647   5.360 -1.7772 -0.4277  1.3860
  398MOL0     H52494   7.671   2.608   5.600  0.6879  0.9638 -0.2153
  398MOL0     H52495   7.691   2.520   5.449  1.3349 -0.0491  0.5484
  398MOL0     H52496   7.795   2.790   5.537 -2.9542  0.3033  1.7869
  398MOL0     H52497   7.726   2.797   5.377  1.9753  0.9572  0.6972
  398MOL0     H52498   8.095   2.706   5.290 -0.8439  2.8112  0.3778
  398MOL0     H52499   8.149   2.672   5.032 -1.5874  1.4012 -3.4915
  398MOL0     H52500   8.345   2.549   4.769  1.2095  0.2166 -0.4656
  398MOL0     H52501   8.449   2.547   4.538 -0.5468 -4.1755 -1.1881
  398MOL0     H52502   8.454   2.369   4.378  1.3724  0.9548 -0.0323
  398MOL0     H52503   8.507   2.528   4.330 -0.1182 -0.4217  0.8419
  398MOL0     H52504   8.454   2.486   4.089  1.7438  2.2896  1.7697
  398MOL0     H52505   8.395   2.323   4.119  2.9996 -2.9391  0.4853
  398MOL0     H52506   8.657   2.439   4.153 -0.2268 -1.3657 -0.5555
  398MOL0     H52507   8.611   2.310   4.044  1.8126 -0.3254  0.5376
  398MOL0     H52508   8.770   2.228   4.192  0.9623  2.4054  1.7981
  398MOL0     H52509   8.665   2.263   4.333  0.5506 -1.8641 -0.0005
  398MOL0     H52510   8.562   2.072   4.108 -1.1354 -3.0058  1.2500
  398MOL0     H52511   8.508   2.094   4.272  0.9874 -3.3738 -0.1069
  398MOL0     H52512   8.608   1.891   4.305 -0.9599 -0.7336  0.2917
  398MOL0     H52513   8.743   2.008   4.366  1.7413 -2.6992 -0.6678
  398MOL0     H52514   8.726   1.872   4.099  1.8434 -3.1670  0.2441
  398MOL0     H52515   8.847   1.994   4.141  0.4138 -1.2738 -0.9151
  398MOL0     H52516   8.798   1.722   4.279 -0.6217 -0.6791 -0.9361
  398MOL0     H52517   8.933   1.818   4.319  0.1427  0.2848  0.4562
  398MOL0     H52518   8.044   2.507   4.378  1.3764 -0.4755 -2.7106
  398MOL0     H52519   7.963   2.590   4.572 -0.7001 -2.0589 -1.2569
  398MOL0     H52520   7.754   2.509   5.002 -0.5783  1.2688  0.1493
  398MOL0     H52521   7.698   2.557   5.216 -1.2914  3.2118 -2.1710
  398MOL0     H52522   6.647   1.775   4.761  0.3774  0.1185  2.9432
  398MOL0     H52523   6.629   1.562   4.655  0.5048 -0.3836 -0.1118
  398MOL0     H52524   6.099   1.223   4.480 -0.2378  1.2965 -3.0210
  398MOL0     H52525   6.090   1.048   4.345 -1.8618  2.9908 -0.3090
  398MOL0     H52526   6.150   0.910   4.109  0.5243  2.4631  0.9471
  398MOL0     H52527   6.113   0.849   4.273 -0.9879  0.8388 -0.5072
  398MOL0     H52528   6.308   0.660   4.215  0.5831 -0.7057 -1.6623
  398MOL0     H52529   6.136   0.660   4.181  0.7600 -1.0263 -0.2433
  398MOL0     H52530   6.191   0.769   3.957 -0.8649  0.0888  0.9968
  398MOL0     H52531   6.220   0.600   3.971  0.1826  0.7555 -1.1741
  398MOL0     H52532   6.425   0.813   4.029  1.7449 -1.2805  2.5449
  398MOL0     H52533   6.456   0.638   4.016  3.5634  2.5601  0.2363
  398MOL0     H52534   6.487   0.772   3.612 -0.0060 -1.0797  0.1603
  398MOL0     H52535   6.517   1.016   4.326  1.3013  0.4235  0.0298
  398MOL0     H52536   6.532   1.230   4.503 -0.3286 -0.2378  2.2899
  399MOL0     O52537   8.939   8.244   3.907 -0.7497  0.0420  0.0128
  399MOL0     C52538   8.872   8.269   3.812  0.1542 -0.8788 -0.4438
  399MOL0     O52539   8.746   8.324   3.813 -0.2042  0.0316 -0.3498
  399MOL0     C52540   8.726   8.429   3.902  0.6261  0.2109 -0.4792
  399MOL0     C52541   8.773   8.557   3.856 -0.0633  0.8868 -0.1598
  399MOL0     C52542   8.776   8.675   3.934 -0.1625 -0.2514 -0.6279
  399MOL0     C52543   8.752   8.659   4.078 -0.4637  0.6855  0.7593
  399MOL0     O52544   8.752   8.765   4.157  0.6008  0.2060 -0.0512
  399MOL0     C52545   8.845   8.758   4.267  0.3960 -0.0426  0.9138
  399MOL0     C52546   8.988   8.757   4.211 -0.5765  0.3905 -0.4564
  399MOL0     C52547   9.085   8.841   4.295 -0.1824 -0.0123 -0.8292
  399MOL0     C52548   9.089   8.801   4.439  0.1925  0.4431 -1.0047
  399MOL0     C52549   9.210   8.860   4.513  0.5068 -1.1811  0.3279
  399MOL0     C52550   9.229   8.815   4.661  0.4158 -0.1600  1.3963
  399MOL0     C52551   9.329   8.896   4.743  0.3770 -0.2440  0.5306
  399MOL0     C52552   9.316   9.047   4.745  0.7465  0.5084  0.5278
  399MOL0     N52553   9.399   9.112   4.839 -0.4188  0.2033 -0.3283
  399MOL0     C52554   9.454   9.055   4.953 -0.2443 -0.2702  1.0319
  399MOL0     C52555   9.566   9.126   4.978 -0.3761 -0.4053  0.0480
  399MOL0     C52556   9.661   9.073   5.078  0.0259 -0.8399  0.2337
  399MOL0     C52557   9.626   9.123   5.215 -1.0985  0.7187  0.5487
  399MOL0     C52558   9.724   9.059   5.312 -1.3119 -0.9247  0.4846
  399MOL0     C52559   9.682   9.078   5.453 -0.3017  0.4244  0.2148
  399MOL0     O52560   9.798   9.153   5.511 -0.5816  0.4202  0.1968
  399MOL0     C52561   9.803   9.165   5.642  0.2521 -0.0530 -0.1411
  399MOL0     C52562   9.708   9.100   5.731 -0.1004 -0.8416  1.3953
  399MOL0     C52563   9.716   9.139   5.867 -0.8956 -0.1586 -0.1967
  399MOL0     C52564   9.820   9.212   5.929  0.0287 -0.5489  0.0586
  399MOL0     C52565   9.828   9.254   6.069 -0.2655  0.2810 -0.7891
  399MOL0     O52566   9.959   9.284   6.124  0.3787 -0.3175  0.1622
  399MOL0     C52567   9.947   9.351   6.242 -0.6798 -0.3721  0.2710
  399MOL0     C52568   9.922   9.279   6.364  0.4473 -0.7503  0.3390
  399MOL0     C52569   9.915   9.364   6.477 -0.0666  0.6730  0.5701
  399MOL0     C52570   9.946   9.500   6.478 -0.0940 -0.1383  0.6325
  399MOL0     O52571   9.891   9.572   6.571 -0.2263  0.0041 -0.2218
  399MOL0     C52572   9.975   9.678   6.622 -1.1576  0.1172  0.2266
  399MOL0     C52573   9.955   9.716   6.768 -0.1581 -0.8411 -0.4851
  399MOL0     C52574  10.046   9.828   6.817  0.1577 -0.1792  0.3541
  399MOL0     C52575  10.025   9.861   6.961  0.1550  0.1250  0.5428
  399MOL0     C52576  10.099   9.990   6.996 -0.0515 -0.6021 -0.4564
  399MOL0     C52577  10.253   9.991   6.964 -0.2461 -0.1360 -0.5524
  399MOL0     C52578  10.330   9.916   7.067 -0.0113  0.0379  0.7193
  399MOL0     C52579  10.481   9.905   7.025  1.0425  0.2313 -0.1326
  399MOL0    Cl52580  10.550  10.070   6.972 -0.0490 -0.4972  0.2769
  399MOL0     C52581  10.003   9.554   6.365 -0.2219  0.6036  0.6825
  399MOL0     C52582   9.995   9.479   6.246 -0.1780  0.4952 -0.0408
  399MOL0     O52583   9.718   9.271   6.126 -0.0933  0.7364 -0.6218
  399MOL0     C52584   9.909   9.269   5.838  0.4767  0.2381 -0.1589
  399MOL0     C52585   9.899   9.248   5.697 -0.4492 -0.2244 -0.4130
  399MOL0     N52586   9.586   9.216   4.879 -1.0690  0.2143  0.2424
  399MOL0     N52587   9.487   9.204   4.802  0.0450 -0.6225 -1.3738
  399MOL0     C52588   8.708   8.530   4.119  0.3822 -0.0077 -0.8084
  399MOL0     C52589   8.686   8.419   4.038  0.2505 -0.9831 -0.0140
  399MOL0     C52590   8.917   8.224   3.681  1.1300  0.0644  0.6900
  399MOL0     C52591   8.815   8.185   3.589 -0.1665 -0.0481  0.6167
  399MOL0     C52592   8.836   8.119   3.466 -1.0618  0.2251  0.2822
  399MOL0     C52593   8.973   8.093   3.437 -0.7875 -0.0497 -0.7796
  399MOL0     O52594   9.010   8.039   3.320 -0.5559  0.1095  0.6056
  399MOL0     C52595   8.964   7.908   3.293 -1.3351 -0.1593  1.0521
  399MOL0     C52596   9.061   7.829   3.208  0.5431  0.6092  0.5334
  399MOL0     C52597   9.191   7.782   3.272 -0.9074 -0.4317 -0.0186
  399MOL0     C52598   9.289   7.891   3.295 -0.5717  1.1618  0.1044
  399MOL0     C52599   9.406   7.826   3.349 -0.4514 -0.0404  1.4146
  399MOL0     C52600   9.522   7.799   3.369 -0.2675 -0.1346  0.1931
  399MOL0     C52601   9.080   8.120   3.531 -0.4431  0.5519  0.3652
  399MOL0     C52602   9.050   8.182   3.654  0.4366  0.8077  0.4559
  399MOL0     H52603   8.805   8.555   3.752 -0.6447  1.9884 -0.3797
  399MOL0     H52604   8.814   8.771   3.900 -0.5480  0.9653  2.1592
  399MOL0     H52605   8.818   8.686   4.344  2.2622  0.5986  2.2216
  399MOL0     H52606   8.828   8.850   4.324 -0.7483  0.3050  0.0565
  399MOL0     H52607   8.993   8.785   4.105  1.8030 -1.0162 -0.7899
  399MOL0     H52608   9.022   8.654   4.224  2.2771  0.8298 -3.1127
  399MOL0     H52609   9.050   8.944   4.278 -1.4437 -0.7044 -2.6669
  399MOL0     H52610   9.187   8.833   4.258  0.7985 -1.8006  1.9686
  399MOL0     H52611   8.996   8.835   4.484  0.5366 -1.0330  0.9606
  399MOL0     H52612   9.097   8.693   4.454  0.7379  0.8237  2.2842
  399MOL0     H52613   9.199   8.969   4.511  1.1871 -1.1022  0.7617
  399MOL0     H52614   9.302   8.825   4.467  1.5184 -1.6538  2.5986
  399MOL0     H52615   9.259   8.710   4.667  1.8614  0.1149 -0.1077
  399MOL0     H52616   9.130   8.802   4.704 -0.2561 -0.8051 -0.2741
  399MOL0     H52617   9.305   8.866   4.845  0.7097  1.1739  1.0539
  399MOL0     H52618   9.431   8.870   4.715  0.7706  3.3516 -2.0744
  399MOL0     H52619   9.209   9.069   4.752 -0.6588 -4.2801 -1.6422
  399MOL0     H52620   9.337   9.088   4.646  0.0112 -2.5691 -1.0271
  399MOL0     H52621   9.426   8.969   5.013  2.1365 -1.4458  0.5805
  399MOL0     H52622   9.766   9.090   5.051  0.4669 -2.0943  1.0742
  399MOL0     H52623   9.645   8.964   5.081 -1.3219 -0.6575  0.4639
  399MOL0     H52624   9.528   9.101   5.256  0.3850  0.7199  4.5121
  399MOL0     H52625   9.641   9.231   5.225 -1.7080  0.6740  2.2107
  399MOL0     H52626   9.735   8.954   5.282  2.9659 -0.1448 -1.5791
  399MOL0     H52627   9.825   9.097   5.293 -1.6752 -0.1773 -0.0347
  399MOL0     H52628   9.667   8.983   5.505  1.4451 -0.2973 -0.5231
  399MOL0     H52629   9.586   9.131   5.452 -0.3244  0.3939  0.5653
  399MOL0     H52630   9.623   9.044   5.694 -0.6220  0.3405  0.7315
  399MOL0     H52631   9.632   9.111   5.928  0.1472 -0.7536  1.0140
  399MOL0     H52632   9.904   9.172   6.373 -1.0206 -0.8810 -2.6262
  399MOL0     H52633   9.866   9.312   6.559 -1.7341 -2.8192 -2.3924
  399MOL0     H52634   9.952   9.765   6.559 -1.4742 -0.2404 -0.1504
  399MOL0     H52635  10.082   9.661   6.612 -1.2330 -1.3421  1.5256
  399MOL0     H52636   9.972   9.627   6.830  0.1856 -0.6651 -0.3266
  399MOL0     H52637   9.854   9.750   6.789  1.1837  2.6885  1.0299
  399MOL0     H52638  10.042   9.918   6.755  0.8039 -0.8918 -0.7637
  399MOL0     H52639  10.150   9.797   6.799  1.0290  2.0923  1.1037
  399MOL0     H52640   9.919   9.869   6.988  0.2774  1.0881  0.7675
  399MOL0     H52641  10.063   9.778   7.022  2.3948  1.1255  0.5887
  399MOL0     H52642  10.088   9.991   7.105  1.4852 -0.9054 -0.2644
  399MOL0     H52643  10.052  10.072   6.943 -0.6040  0.2845  1.3353
  399MOL0     H52644  10.294  10.092   6.966  2.5182 -1.1684 -0.6157
  399MOL0     H52645  10.265   9.950   6.863 -1.1374 -0.9186 -0.3618
  399MOL0     H52646  10.324   9.969   7.162 -0.4923 -0.4058  0.9386
  399MOL0     H52647  10.285   9.820   7.094  2.6529 -2.0312 -1.5998
  399MOL0     H52648  10.483   9.835   6.941  0.4807 -1.3097  1.0863
  399MOL0     H52649  10.537   9.856   7.106  1.2718 -0.5351 -0.7406
  399MOL0     H52650  10.026   9.660   6.369  2.3659  0.0809  0.9735
  399MOL0     H52651  10.010   9.536   6.155 -3.7206  0.5844 -0.7293
  399MOL0     H52652   9.980   9.342   5.878  0.6443  0.9319 -1.6443
  399MOL0     H52653   9.961   9.284   5.616 -2.0616  0.0435 -1.5656
  399MOL0     H52654   8.698   8.513   4.226  1.1199 -0.0781 -0.7455
  399MOL0     H52655   8.660   8.323   4.081  2.0353  0.1502  4.0462
  399MOL0     H52656   8.710   8.211   3.602 -0.5291  1.5605 -3.8769
  399MOL0     H52657   8.754   8.098   3.399 -2.4015 -1.7997  2.4191
  399MOL0     H52658   8.868   7.924   3.244  0.6326  2.6982 -2.3266
  399MOL0     H52659   8.937   7.855   3.385  0.5791 -2.4114  0.4216
  399MOL0     H52660   9.007   7.745   3.164 -2.4209  1.2833  2.5654
  399MOL0     H52661   9.084   7.905   3.133 -1.8443  3.6685  2.6351
  399MOL0     H52662   9.229   7.703   3.205  0.2956  0.1384 -0.0298
  399MOL0     H52663   9.169   7.727   3.364  1.4220 -3.1990 -0.9558
  399MOL0     H52664   9.312   7.946   3.204 -1.4665  1.7166  0.2105
  399MOL0     H52665   9.266   7.954   3.381  0.0515  1.3641  0.1339
  399MOL0     H52666   9.618   7.764   3.403 -0.4287  0.5121  1.3641
  399MOL0     H52667   9.183   8.105   3.498 -1.0824 -2.0006 -0.6657
  399MOL0     H52668   9.133   8.198   3.722  2.6464 -1.1726 -1.5699
  400MOL0     O52669   9.313  10.206   6.119  0.2714  0.7802 -0.3342
  400MOL0     C52670   9.233  10.190   6.027  0.1969  0.4111  0.1949
  400MOL0     O52671   9.150  10.281   5.965 -0.4502 -0.6061  0.1208
  400MOL0     C52672   9.189  10.408   5.919  0.2713  0.6558 -0.4672
  400MOL0     C52673   9.147  10.456   5.796  0.4181  0.1493 -0.5671
  400MOL0     C52674   9.204  10.571   5.738  0.0889 -0.2907  0.3159
  400MOL0     C52675   9.282  10.651   5.812  0.0130  0.1128 -0.4362
  400MOL0     O52676   9.322  10.769   5.751 -0.3446 -0.3350 -0.0509
  400MOL0     C52677   9.455  10.805   5.783 -0.8107 -0.0158  0.7342
  400MOL0     C52678   9.511  10.923   5.707 -0.5178 -0.3745 -0.3807
  400MOL0     C52679   9.662  10.926   5.754 -0.6622 -0.8146  0.2866
  400MOL0     C52680   9.731  11.064   5.712  1.0837 -0.3114  0.2508
  400MOL0     C52681   9.856  11.093   5.787 -1.2379 -1.5656 -0.2089
  400MOL0     C52682   9.959  10.991   5.790  0.1266 -0.3032  0.0912
  400MOL0     C52683  10.027  11.009   5.929 -0.6564  0.2855  0.0740
  400MOL0     C52684   9.974  10.938   6.048  0.7177  1.2218 -0.0560
  400MOL0     N52685   9.910  11.040   6.137  0.7227  0.3419 -0.0964
  400MOL0     C52686   9.973  11.132   6.214 -0.5318 -0.1483 -1.0218
  400MOL0     C52687   9.882  11.153   6.318 -0.5877 -0.1367  0.7009
  400MOL0     C52688   9.921  11.236   6.435 -0.0784 -0.5057  0.4361
  400MOL0     C52689   9.890  11.173   6.568 -0.0156  0.3930  0.4051
  400MOL0     C52690  10.017  11.091   6.623  0.1245 -0.0339  0.0940
  400MOL0     C52691   9.991  11.023   6.760  0.3446 -0.0163 -0.8390
  400MOL0     O52692  10.112  10.947   6.786  0.0257 -0.7946  0.2507
  400MOL0     C52693  10.148  10.902   6.912  0.4507  0.6081 -0.7860
  400MOL0     C52694  10.281  10.876   6.937  0.8901 -0.1683 -0.8880
  400MOL0     C52695  10.338  10.851   7.061  0.3884  0.6848 -0.1455
  400MOL0     C52696  10.255  10.865   7.169 -0.7388 -1.1839  0.3320
  400MOL0     C52697  10.319  10.866   7.300 -1.2689  0.9614 -0.0827
  400MOL0     O52698  10.449  10.825   7.303  0.4218 -0.0388  0.3354
  400MOL0     C52699  10.519  10.824   7.424 -0.2382  0.3480  0.3245
  400MOL0     C52700  10.472  10.822   7.559 -0.5893 -0.7019 -0.7834
  400MOL0     C52701  10.556  10.810   7.673 -0.3861 -0.1421 -0.6716
  400MOL0     C52702  10.696  10.821   7.659  0.0726  0.3806 -0.1040
  400MOL0     O52703  10.771  10.793   7.774  0.2716 -0.1674  0.0219
  400MOL0     C52704  10.882  10.695   7.769  0.0716  0.3646  0.5678
  400MOL0     C52705  11.018  10.754   7.798  0.1404  0.5180 -0.2996
  400MOL0     C52706  11.018  10.842   7.926 -0.1186  0.5254 -1.1175
  400MOL0     C52707  10.978  10.758   8.047 -0.2968 -0.4242  0.0490
  400MOL0     C52708  11.007  10.822   8.182 -0.5331  0.9217  0.5755
  400MOL0     C52709  10.956  10.734   8.290  0.0602  0.5688  0.8079
  400MOL0     C52710  10.943  10.818   8.416  0.7385 -0.3565  0.0915
  400MOL0     C52711  10.877  10.744   8.533  0.3310 -0.8544  0.4615
  400MOL0    Cl52712  10.869  10.865   8.659  0.2245 -0.1849 -0.4136
  400MOL0     C52713  10.738  10.829   7.528  0.2135  0.3001  0.1607
  400MOL0     C52714  10.658  10.821   7.413 -0.6467  0.8598  0.3982
  400MOL0     O52715  10.257  10.896   7.400  0.2300  0.0173 -0.8541
  400MOL0     C52716  10.119  10.911   7.153  0.1670 -0.1914  0.2174
  400MOL0     C52717  10.065  10.924   7.026  0.0254  0.8806 -0.2624
  400MOL0     N52718   9.766  11.099   6.295 -0.5239  0.5493 -0.2836
  400MOL0     N52719   9.785  11.040   6.185  0.3046 -0.4250 -0.8096
  400MOL0     C52720   9.297  10.624   5.951 -1.6352  0.1855  0.3041
  400MOL0     C52721   9.255  10.497   6.000 -1.2409  0.1108  0.1210
  400MOL0     C52722   9.216  10.055   5.982 -0.4818 -0.0986  0.3869
  400MOL0     C52723   9.095  10.020   5.917 -0.9513  0.1744  0.2255
  400MOL0     C52724   9.073   9.889   5.874  0.3656 -0.1719  0.3978
  400MOL0     C52725   9.169   9.791   5.890  0.6753  0.3237  0.0925
  400MOL0     O52726   9.137   9.666   5.851 -0.3946 -1.0641  0.3221
  400MOL0     C52727   9.232   9.580   5.800 -0.6083  0.1713  0.3521
  400MOL0     C52728   9.164   9.481   5.704 -0.0952 -0.6057  0.4101
  400MOL0     C52729   9.259   9.395   5.617 -0.6054  0.4160  0.2722
  400MOL0     C52730   9.366   9.323   5.711 -0.4192  0.4746 -0.5389
  400MOL0     C52731   9.292   9.226   5.797 -0.7588  0.2614 -0.7725
  400MOL0     C52732   9.218   9.151   5.851 -0.3024  0.6266 -0.2538
  400MOL0     C52733   9.289   9.820   5.957  1.1838 -0.6309  0.4307
  400MOL0     C52734   9.308   9.950   6.004 -0.3097 -0.0814  0.1419
  400MOL0     H52735   9.071  10.407   5.735 -3.2649  0.7320  3.0856
  400MOL0     H52736   9.181  10.599   5.636  2.4542  0.8165  0.0198
  400MOL0     H52737   9.527  10.723   5.782  0.2560  0.8682  1.8538
  400MOL0     H52738   9.459  10.830   5.889  1.6096 -1.2457  1.0009
  400MOL0     H52739   9.465  11.018   5.738  1.2654  0.1791  0.6588
  400MOL0     H52740   9.522  10.905   5.600  1.4715 -3.2363  0.2220
  400MOL0     H52741   9.714  10.841   5.710 -1.8602 -1.4464  0.0289
  400MOL0     H52742   9.665  10.912   5.862  0.3582 -1.5621  0.1685
  400MOL0     H52743   9.743  11.058   5.603 -3.0417 -0.7158 -0.3488
  400MOL0     H52744   9.657  11.141   5.736 -1.6467 -1.3063 -3.8890
  400MOL0     H52745   9.829  11.115   5.890  3.5080  1.4864  0.6948
  400MOL0     H52746   9.906  11.183   5.750  2.0053 -2.5222  1.4685
  400MOL0     H52747  10.035  11.005   5.713  0.9066  1.7500  1.1472
  400MOL0     H52748   9.916  10.891   5.776  1.6652 -1.3317  2.1869
  400MOL0     H52749  10.131  10.975   5.927 -1.0438 -1.0239 -3.0512
  400MOL0     H52750  10.032  11.116   5.950 -3.4025  0.5138 -0.0118
  400MOL0     H52751  10.036  10.874   6.112 -0.4547  3.2270  3.3788
  400MOL0     H52752   9.900  10.867   6.012 -0.4664  1.6027  1.4897
  400MOL0     H52753  10.080  11.139   6.227 -0.5678  0.1467 -0.9022
  400MOL0     H52754   9.860  11.326   6.418  0.0752 -0.6095 -0.7749
  400MOL0     H52755  10.028  11.257   6.425  0.0598 -1.9942 -1.8618
  400MOL0     H52756   9.804  11.106   6.560 -0.7838  1.2877  0.8121
  400MOL0     H52757   9.846  11.241   6.642  1.0846 -0.2928  1.7570
  400MOL0     H52758  10.046  11.017   6.548  3.0109  2.8584 -1.9064
  400MOL0     H52759  10.106  11.150   6.647  0.4521 -0.3175 -0.4031
  400MOL0     H52760   9.906  10.954   6.773  1.3497 -0.9138  1.6709
  400MOL0     H52761   9.985  11.103   6.835  2.3853 -1.1359  0.6355
  400MOL0     H52762  10.338  10.881   6.844 -0.6424 -1.8050 -1.9955
  400MOL0     H52763  10.443  10.826   7.067  1.6903  4.1126 -4.0386
  400MOL0     H52764  10.367  10.841   7.582  0.3473  2.9077  1.3946
  400MOL0     H52765  10.511  10.779   7.766  2.2134 -1.1246  0.3608
  400MOL0     H52766  10.885  10.660   7.665 -2.5427  0.3300  0.4180
  400MOL0     H52767  10.860  10.604   7.827 -3.0323 -0.4631 -1.6086
  400MOL0     H52768  11.049  10.808   7.708  0.2412 -0.1059 -0.6397
  400MOL0     H52769  11.093  10.676   7.809 -1.2543 -0.5213  3.2931
  400MOL0     H52770  10.956  10.926   7.893  0.6455  1.6424  0.1629
  400MOL0     H52771  11.121  10.876   7.944 -0.2917  0.4128  0.2199
  400MOL0     H52772  10.873  10.730   8.037 -0.7405  1.1311  0.2447
  400MOL0     H52773  11.047  10.672   8.048  0.7094  0.3642 -0.3548
  400MOL0     H52774  10.949  10.913   8.197 -2.1258 -0.0537  0.5926
  400MOL0     H52775  11.112  10.847   8.202 -1.0403  2.8623  1.0248
  400MOL0     H52776  11.028  10.654   8.311  1.1743  2.1256  3.2848
  400MOL0     H52777  10.860  10.694   8.255  0.9258  0.0809 -1.1433
  400MOL0     H52778  11.049  10.834   8.437  0.2247  0.4706  2.2870
  400MOL0     H52779  10.875  10.903   8.400 -0.1986 -0.5923  2.4943
  400MOL0     H52780  10.937  10.657   8.560  0.4102 -1.3295 -1.1623
  400MOL0     H52781  10.773  10.713   8.516  0.5427 -0.5410 -1.7282
  400MOL0     H52782  10.844  10.837   7.505  0.4880  1.1168  1.6355
  400MOL0     H52783  10.710  10.825   7.319  1.1396 -1.8116  1.1714
  400MOL0     H52784  10.064  10.921   7.246 -0.3728 -1.7687  0.0847
  400MOL0     H52785   9.958  10.939   7.016 -0.6863 -2.4790  1.1035
  400MOL0     H52786   9.362  10.687   6.009  0.6400 -0.8755 -0.9667
  400MOL0     H52787   9.293  10.465   6.097  0.2569  2.6106  0.4621
  400MOL0     H52788   9.013  10.091   5.904 -1.3574 -0.1555  0.9106
  400MOL0     H52789   8.984   9.845   5.831  1.4798  0.1777 -2.5325
  400MOL0     H52790   9.288   9.530   5.879  1.0766  0.5458 -0.5498
  400MOL0     H52791   9.314   9.630   5.747  1.6816 -5.4437 -2.2649
  400MOL0     H52792   9.100   9.408   5.755 -1.7418  1.9066  2.2395
  400MOL0     H52793   9.099   9.545   5.643 -0.6950 -1.5705  0.0299
  400MOL0     H52794   9.317   9.464   5.554 -0.6614  0.5495  0.3661
  400MOL0     H52795   9.207   9.327   5.548  1.2882  0.3621 -1.1787
  400MOL0     H52796   9.439   9.271   5.649 -1.9536  2.0387 -3.9206
  400MOL0     H52797   9.419   9.404   5.763 -0.2487  1.7337 -2.5488
  400MOL0     H52798   9.148   9.078   5.884  0.3334 -1.4193 -3.0085
  400MOL0     H52799   9.377   9.757   5.953  1.9474  0.3684  0.8913
  400MOL0     H52800   9.403   9.971   6.052 -0.3394  1.6663 -0.4974
  401MOL0     O52801   6.028  11.442   8.151  0.3041  0.2192 -0.9615
  401MOL0     C52802   6.069  11.556   8.176  0.0734  0.1030 -0.5501
  401MOL0     O52803   6.198  11.586   8.217  0.3283  0.3661 -0.2322
  401MOL0     C52804   6.285  11.489   8.264 -0.6102  0.5207  0.5862
  401MOL0     C52805   6.257  11.368   8.337  0.2824  0.6050 -0.1344
  401MOL0     C52806   6.366  11.286   8.387 -0.4452 -0.0696 -0.2531
  401MOL0     C52807   6.497  11.318   8.366 -0.8521 -0.5023  0.0244
  401MOL0     O52808   6.596  11.232   8.400  0.3688  0.2228 -0.2569
  401MOL0     C52809   6.732  11.242   8.333  0.1272  0.3831 -0.6466
  401MOL0     C52810   6.804  11.103   8.338 -1.1829 -0.0737 -0.7051
  401MOL0     C52811   6.736  10.990   8.260  0.7602  0.2185 -0.1189
  401MOL0     C52812   6.633  10.915   8.341 -0.0240  0.3289 -0.2806
  401MOL0     C52813   6.592  10.798   8.256 -0.7728 -0.3111  0.0278
  401MOL0     C52814   6.506  10.719   8.348  0.5800  0.4196  0.0895
  401MOL0     C52815   6.473  10.599   8.256 -0.2433 -0.0238 -0.6419
  401MOL0     C52816   6.372  10.506   8.317  1.3020 -0.2933 -0.0516
  401MOL0     N52817   6.336  10.396   8.222  0.4042  0.0781  0.2268
  401MOL0     C52818   6.272  10.402   8.105  0.0254  0.3375  0.7284
  401MOL0     C52819   6.212  10.282   8.088 -0.9069 -0.1286 -0.7475
  401MOL0     C52820   6.134  10.229   7.966  0.4247 -0.0761 -0.6715
  401MOL0     C52821   6.019  10.145   8.008  0.1009 -0.0031  0.1273
  401MOL0     C52822   5.909  10.206   8.089  0.4812  0.6481 -0.7969
  401MOL0     C52823   5.923  10.192   8.236 -0.4799 -0.3743 -0.5449
  401MOL0     O52824   5.799  10.215   8.302  0.6207 -0.3660  0.8449
  401MOL0     C52825   5.730  10.105   8.347 -0.7850  0.0897 -0.8422
  401MOL0     C52826   5.619  10.135   8.422  0.3033  0.0083  0.4092
  401MOL0     C52827   5.516  10.049   8.456 -0.1065  0.7489 -0.3940
  401MOL0     C52828   5.534   9.916   8.425 -0.4186  0.2055 -1.0932
  401MOL0     C52829   5.446   9.816   8.472  0.6499  0.4657  0.1135
  401MOL0     O52830   5.499   9.683   8.468  0.7455  0.9088 -0.1500
  401MOL0     C52831   5.415   9.578   8.503 -0.0285 -0.4618 -1.2361
  401MOL0     C52832   5.328   9.524   8.408  0.3172 -0.5374 -0.3923
  401MOL0     C52833   5.256   9.406   8.434 -0.3454  0.3184 -1.2152
  401MOL0     C52834   5.269   9.347   8.563  0.1870 -0.8808  1.2018
  401MOL0     O52835   5.180   9.252   8.597 -0.3064 -0.5900  0.6077
  401MOL0     C52836   5.184   9.184   8.720 -0.5583  0.9426 -0.8015
  401MOL0     C52837   5.322   9.102   8.733  0.7478 -1.7118  0.2720
  401MOL0     C52838   5.309   9.024   8.871  0.7558  0.6341  0.0328
  401MOL0     C52839   5.190   8.931   8.899  0.5534 -0.2387  0.3351
  401MOL0     C52840   5.138   8.836   8.785  0.6379  0.0875 -0.1944
  401MOL0     C52841   5.019   8.746   8.819  0.1595 -0.5029 -0.1615
  401MOL0     C52842   4.877   8.806   8.804 -0.2627  1.2426 -0.5854
  401MOL0     C52843   4.851   8.849   8.656 -0.2483 -0.0958 -1.2027
  401MOL0    Cl52844   4.812   9.022   8.650 -0.0345  0.5750 -0.8697
  401MOL0     C52845   5.343   9.411   8.658 -0.8493 -1.0395 -0.0386
  401MOL0     C52846   5.414   9.529   8.629 -0.8292  0.3167 -0.2984
  401MOL0     O52847   5.329   9.841   8.505 -0.2210  0.8753 -0.3974
  401MOL0     C52848   5.661   9.878   8.374  0.3833  0.4730 -0.3680
  401MOL0     C52849   5.760   9.963   8.351  0.6942 -0.5591  0.4482
  401MOL0     N52850   6.258  10.201   8.189  0.6097 -0.2759  0.1134
  401MOL0     N52851   6.328  10.268   8.268 -0.2293  0.2094 -0.6293
  401MOL0     C52852   6.528  11.447   8.316  0.7680 -0.0447  0.5288
  401MOL0     C52853   6.425  11.522   8.267 -0.0423  0.2483  0.9726
  401MOL0     C52854   5.979  11.670   8.154 -0.8527 -0.5652 -0.3799
  401MOL0     C52855   6.044  11.804   8.157  0.1514  0.6493 -0.6578
  401MOL0     C52856   5.963  11.906   8.125  0.6738 -1.0845  0.3341
  401MOL0     C52857   5.824  11.895   8.089 -0.2780 -0.9045  0.2478
  401MOL0     O52858   5.728  11.996   8.072 -0.6886 -0.1652  0.4178
  401MOL0     C52859   5.761  12.123   8.022  0.1798 -0.1501  0.0465
  401MOL0     C52860   5.854  12.114   7.896 -0.7701 -0.4106 -0.2857
  401MOL0     C52861   5.978  12.204   7.920 -1.2210  0.0442  0.0352
  401MOL0     C52862   6.106  12.177   7.831 -0.5150  0.0909  0.4567
  401MOL0     C52863   6.168  12.044   7.846  1.0956 -1.0344  0.8557
  401MOL0     C52864   6.224  11.941   7.851  0.3090  0.0060  0.3849
  401MOL0     C52865   5.774  11.766   8.087  1.0882 -0.3171 -1.4780
  401MOL0     C52866   5.853  11.658   8.107  0.0467  0.5623 -0.3824
  401MOL0     H52867   6.153  11.337   8.335 -0.2420  2.0729  1.9666
  401MOL0     H52868   6.329  11.203   8.448  0.9496 -0.1511  0.5250
  401MOL0     H52869   6.792  11.307   8.397 -0.4711 -0.4756  0.8463
  401MOL0     H52870   6.718  11.276   8.230  2.2481 -2.0656 -1.8435
  401MOL0     H52871   6.825  11.064   8.439 -0.8375 -1.1282 -1.1701
  401MOL0     H52872   6.905  11.121   8.302  0.9936 -1.5192  3.7937
  401MOL0     H52873   6.800  10.921   8.203 -2.3336 -1.3705 -1.9314
  401MOL0     H52874   6.677  11.034   8.179  1.6392  2.9092  0.6216
  401MOL0     H52875   6.689  10.878   8.428  0.9228 -3.7115 -2.3546
  401MOL0     H52876   6.553  10.981   8.377  0.6580  1.7231 -1.2275
  401MOL0     H52877   6.672  10.746   8.204 -0.9892  1.1912 -1.8998
  401MOL0     H52878   6.523  10.832   8.179 -2.1290  1.2613  1.8161
  401MOL0     H52879   6.416  10.772   8.379  1.1439  0.3032  2.0299
  401MOL0     H52880   6.573  10.683   8.427  1.3586 -2.3840 -1.6876
  401MOL0     H52881   6.407  10.642   8.181  1.4760  0.5381 -1.9131
  401MOL0     H52882   6.564  10.556   8.211 -2.1540 -3.4859 -1.5606
  401MOL0     H52883   6.283  10.567   8.336  3.8019  3.4621  0.6914
  401MOL0     H52884   6.417  10.466   8.408  0.9241 -0.9262 -0.1360
  401MOL0     H52885   6.246  10.486   8.042 -1.9806 -1.1804 -0.6074
  401MOL0     H52886   6.198  10.172   7.899 -0.0900 -1.8319  0.2847
  401MOL0     H52887   6.085  10.313   7.915  1.7055  1.2857  0.2645
  401MOL0     H52888   6.046  10.054   8.062 -2.3322 -0.2205  1.1157
  401MOL0     H52889   5.981  10.114   7.910 -1.7863 -0.2068  0.8633
  401MOL0     H52890   5.903  10.311   8.059  1.1076  0.5356 -1.3744
  401MOL0     H52891   5.812  10.173   8.050  1.8029  0.1394 -4.0118
  401MOL0     H52892   5.987  10.275   8.267 -3.8920  1.1713  3.2026
  401MOL0     H52893   5.974  10.100   8.267  1.4845  0.5459 -0.8812
  401MOL0     H52894   5.607  10.234   8.464 -3.3825  0.6854 -1.7784
  401MOL0     H52895   5.425  10.084   8.505  1.7751  2.1846  2.3713
  401MOL0     H52896   5.318   9.565   8.308  2.5163  1.8031  0.2381
  401MOL0     H52897   5.192   9.356   8.362 -1.0149 -1.2904  0.3944
  401MOL0     H52898   5.093   9.126   8.733  0.3535 -0.5528 -0.8691
  401MOL0     H52899   5.181   9.256   8.802  1.2668  1.3474 -1.0346
  401MOL0     H52900   5.414   9.161   8.729  1.1371 -2.2226  1.4095
  401MOL0     H52901   5.338   9.039   8.645  3.6717 -0.5808 -0.1103
  401MOL0     H52902   5.337   9.087   8.956  0.0563  0.0950  0.6799
  401MOL0     H52903   5.401   8.966   8.862  0.6479  0.2169  1.4706
  401MOL0     H52904   5.220   8.868   8.983  1.3128 -2.5425 -1.5587
  401MOL0     H52905   5.105   8.993   8.930  2.6114  1.9511  1.9080
  401MOL0     H52906   5.219   8.773   8.747 -0.5729  0.4513 -3.7096
  401MOL0     H52907   5.125   8.905   8.702  3.5377  0.7248 -0.2055
  401MOL0     H52908   5.030   8.716   8.924 -0.9082 -1.2852 -0.2521
  401MOL0     H52909   5.035   8.660   8.753 -1.5356  1.2299 -3.0320
  401MOL0     H52910   4.803   8.726   8.815 -2.9556  3.5909 -0.6164
  401MOL0     H52911   4.853   8.872   8.888  0.4048 -0.1071  0.7099
  401MOL0     H52912   4.758   8.807   8.616 -1.3333  1.0535 -0.0246
  401MOL0     H52913   4.940   8.836   8.594  2.9597 -2.5796  3.3781
  401MOL0     H52914   5.357   9.361   8.754  1.5282 -0.1143  0.1588
  401MOL0     H52915   5.484   9.567   8.702 -1.3123 -3.0416  2.1023
  401MOL0     H52916   5.681   9.771   8.366  1.7584  0.0833  4.6965
  401MOL0     H52917   5.860   9.924   8.336  0.6651  0.1091 -1.8610
  401MOL0     H52918   6.620  11.500   8.296 -0.7898  2.1156 -1.4231
  401MOL0     H52919   6.456  11.617   8.222  0.2150 -0.2981 -0.0388
  401MOL0     H52920   6.151  11.818   8.167  0.5068 -2.2147  0.7511
  401MOL0     H52921   6.012  12.002   8.123  0.1284 -0.7985  0.5974
  401MOL0     H52922   5.805  12.173   8.109  1.5177 -0.2772 -0.5428
  401MOL0     H52923   5.675  12.183   7.989  0.7705  1.5106  1.3824
  401MOL0     H52924   5.874  12.011   7.864 -4.8638 -1.5813  0.3595
  401MOL0     H52925   5.799  12.147   7.808  1.0707 -2.7070 -2.4527
  401MOL0     H52926   5.995  12.203   8.028 -2.4906 -3.5219  0.3342
  401MOL0     H52927   5.942  12.307   7.914 -3.7570 -0.4800  3.4006
  401MOL0     H52928   6.075  12.182   7.726 -1.8480  2.1125  0.9046
  401MOL0     H52929   6.183  12.254   7.827  0.2568 -0.6751 -3.2322
  401MOL0     H52930   6.286  11.855   7.860  1.7512  0.7796 -1.4000
  401MOL0     H52931   5.669  11.752   8.066  0.5553  2.4745 -1.0326
  401MOL0     H52932   5.807  11.563   8.084  0.2311  1.0069 -2.8496
  402MOL0     O52933   1.466  10.266   6.413 -0.0991 -0.6277 -0.4045
  402MOL0     C52934   1.563  10.328   6.386 -0.3768  0.1250 -0.4440
  402MOL0     O52935   1.685  10.264   6.390  0.8221  0.3613 -0.2706
  402MOL0     C52936   1.698  10.129   6.399 -0.6354  0.3907 -0.1718
  402MOL0     C52937   1.787  10.048   6.328  1.4712  0.0074 -0.0173
  402MOL0     C52938   1.793   9.913   6.345  0.2401 -0.2042  1.0836
  402MOL0     C52939   1.709   9.849   6.433  0.4421  0.1901  0.3405
  402MOL0     O52940   1.724   9.712   6.447  0.0153  0.0864 -0.8576
  402MOL0     C52941   1.627   9.645   6.519 -1.0507  0.1808 -0.8228
  402MOL0     C52942   1.667   9.623   6.670  0.6398  0.6177  0.2360
  402MOL0     C52943   1.548   9.579   6.761  0.3334 -1.0252  0.0123
  402MOL0     C52944   1.445   9.472   6.714  0.1140  1.0014  0.5044
  402MOL0     C52945   1.503   9.326   6.726 -1.1469  0.7929  0.8450
  402MOL0     C52946   1.389   9.224   6.689 -0.7256  0.3028  0.6254
  402MOL0     C52947   1.426   9.164   6.554  0.9243  0.1090 -0.0315
  402MOL0     C52948   1.305   9.105   6.487  0.5465  0.9343  0.4889
  402MOL0     N52949   1.219   9.201   6.423  0.3797 -0.6390  0.0061
  402MOL0     C52950   1.238   9.240   6.299  0.1740 -0.0582  0.6750
  402MOL0     C52951   1.117   9.296   6.253 -1.2041 -0.8709 -0.7038
  402MOL0     C52952   1.093   9.367   6.125 -0.1974  0.7103  0.2415
  402MOL0     C52953   0.965   9.320   6.054 -0.2974 -0.4287 -0.3667
  402MOL0     C52954   0.845   9.340   6.134 -0.3163 -1.0917  0.7284
  402MOL0     C52955   0.728   9.335   6.042  0.0265 -0.3241 -0.3968
  402MOL0     O52956   0.722   9.465   5.976  1.2181  0.4955  0.0663
  402MOL0     C52957   0.605   9.505   5.925 -0.9492 -0.4634  0.6140
  402MOL0     C52958   0.600   9.630   5.859 -0.4657 -0.4674  0.6674
  402MOL0     C52959   0.490   9.667   5.773  0.2282 -0.2563  0.6096
  402MOL0     C52960   0.376   9.585   5.775  0.3057 -0.8415  0.0053
  402MOL0     C52961   0.257   9.638   5.700  0.0679 -0.9703  0.5199
  402MOL0     O52962   0.226   9.772   5.688  0.2171 -1.3327 -0.1176
  402MOL0     C52963   0.109   9.806   5.626 -0.2395  0.1200  0.0749
  402MOL0     C52964   0.074   9.771   5.496  0.2676  0.0423 -1.4883
  402MOL0     C52965  -0.037   9.834   5.434 -0.1647  0.2853 -0.3014
  402MOL0     C52966  -0.124   9.922   5.500  0.4238 -0.9097 -0.2038
  402MOL0     O52967  -0.220   9.984   5.433  0.3865  0.7516 -0.1797
  402MOL0     C52968  -0.201  10.119   5.424 -0.5933  0.6665 -0.6901
  402MOL0     C52969  -0.290  10.171   5.318  0.5706  0.3294  0.0424
  402MOL0     C52970  -0.443  10.119   5.331  1.1941  0.7546  0.0426
  402MOL0     C52971  -0.498  10.098   5.191  0.1257  0.5022  1.1265
  402MOL0     C52972  -0.648  10.084   5.186  0.0654 -0.5181 -0.0616
  402MOL0     C52973  -0.709  10.099   5.043 -0.3255 -0.5516 -0.1065
  402MOL0     C52974  -0.860  10.118   5.041  0.0504  0.5513  0.4453
  402MOL0     C52975  -0.908  10.136   4.895 -1.0936 -0.3560 -0.2002
  402MOL0    Cl52976  -1.083  10.182   4.901 -0.1010  0.7168  0.0880
  402MOL0     C52977  -0.100   9.953   5.641 -0.2526  0.9332 -0.0493
  402MOL0     C52978   0.025   9.893   5.696 -0.2578 -0.3088  0.2756
  402MOL0     O52979   0.199   9.542   5.644  0.9659 -0.5002 -0.5612
  402MOL0     C52980   0.380   9.462   5.843 -0.6681  1.0764  0.2324
  402MOL0     C52981   0.489   9.422   5.913  0.2782 -0.3598  0.3292
  402MOL0     N52982   1.035   9.293   6.370 -1.1903 -0.3232 -0.0944
  402MOL0     N52983   1.098   9.235   6.470  0.0319  0.1360 -0.6884
  402MOL0     C52984   1.638   9.921   6.522  0.1622 -0.5078  0.7214
  402MOL0     C52985   1.638  10.059   6.507 -0.0185 -0.1387 -0.4834
  402MOL0     C52986   1.561  10.459   6.315  0.5909  0.2488  0.3665
  402MOL0     C52987   1.442  10.535   6.293  0.2142  0.8464 -0.0918
  402MOL0     C52988   1.458  10.643   6.203 -0.2250  0.3288 -0.5524
  402MOL0     C52989   1.579  10.688   6.139 -1.9456 -0.4765  0.4599
  402MOL0     O52990   1.620  10.794   6.056 -0.2696 -0.4590 -0.8106
  402MOL0     C52991   1.512  10.878   6.032  0.0578 -0.1944  0.9213
  402MOL0     C52992   1.571  11.009   5.956 -0.1582 -0.5449 -0.5286
  402MOL0     C52993   1.659  11.086   6.066  0.0896 -0.3270  1.0707
  402MOL0     C52994   1.732  11.206   6.006 -0.0362  0.0454  0.1282
  402MOL0     C52995   1.816  11.159   5.900 -0.7147 -0.0802 -0.5310
  402MOL0     C52996   1.899  11.119   5.821 -0.0848 -0.6841  0.3842
  402MOL0     C52997   1.694  10.607   6.166 -0.0307 -0.6257 -0.3154
  402MOL0     C52998   1.685  10.503   6.261  1.4163  0.4756 -0.6122
  402MOL0     H52999   1.848  10.097   6.252  0.6485  2.0885  0.5748
  402MOL0     H53000   1.860   9.864   6.276  0.7805  2.5351 -0.4826
  402MOL0     H53001   1.632   9.541   6.485  1.2028 -0.4533  1.1550
  402MOL0     H53002   1.531   9.696   6.506 -1.3110 -0.9614 -4.6185
  402MOL0     H53003   1.721   9.709   6.711  1.3164 -0.9640  2.9058
  402MOL0     H53004   1.742   9.543   6.665  2.2075  2.1111 -1.5007
  402MOL0     H53005   1.494   9.670   6.791  0.9031 -1.6350  3.2026
  402MOL0     H53006   1.588   9.557   6.860 -0.2073 -0.2490  0.4209
  402MOL0     H53007   1.364   9.471   6.787 -0.0975  0.8653  0.2709
  402MOL0     H53008   1.398   9.491   6.617 -2.0616  0.3300  1.3625
  402MOL0     H53009   1.514   9.309   6.833 -1.3850  1.3331  0.9556
  402MOL0     H53010   1.594   9.302   6.670 -1.1776  0.6656  0.8497
  402MOL0     H53011   1.287   9.263   6.692 -1.5336 -0.9552 -3.8381
  402MOL0     H53012   1.397   9.149   6.768 -2.0426  0.6163  1.0744
  402MOL0     H53013   1.464   9.244   6.490  0.4729 -0.1517 -0.6325
  402MOL0     H53014   1.500   9.083   6.560 -0.6484 -1.3635  0.0410
  402MOL0     H53015   1.250   9.039   6.554  0.4514 -0.4643 -0.9045
  402MOL0     H53016   1.355   9.039   6.415  3.3847  0.3319  2.8116
  402MOL0     H53017   1.327   9.218   6.240 -0.3776  1.4810 -0.8225
  402MOL0     H53018   1.178   9.355   6.056 -0.5333  2.5806 -0.5437
  402MOL0     H53019   1.093   9.473   6.150 -1.7975  0.9758 -0.7446
  402MOL0     H53020   0.973   9.211   6.046  0.5495 -0.5012  1.1409
  402MOL0     H53021   0.961   9.366   5.955 -1.0701  0.5676  0.1224
  402MOL0     H53022   0.839   9.250   6.196  1.3563  0.4021  3.2587
  402MOL0     H53023   0.849   9.420   6.208 -0.0849 -0.9978  0.6151
  402MOL0     H53024   0.635   9.327   6.100 -1.6944  2.8084 -2.4367
  402MOL0     H53025   0.735   9.255   5.968  2.5255  1.0306 -1.7294
  402MOL0     H53026   0.680   9.703   5.859 -0.7872 -0.0853 -1.1126
  402MOL0     H53027   0.495   9.764   5.726  0.8171  0.2667  1.6937
  402MOL0     H53028   0.128   9.690   5.448  2.0934 -1.7320  3.0396
  402MOL0     H53029  -0.065   9.811   5.332  0.1610 -1.0936 -0.1087
  402MOL0     H53030  -0.099  10.145   5.398  0.8287 -4.3170 -1.2050
  402MOL0     H53031  -0.231  10.161   5.521 -0.6536  0.4619 -0.6197
  402MOL0     H53032  -0.262  10.140   5.216 -0.1640 -0.4669  0.0722
  402MOL0     H53033  -0.284  10.280   5.331  2.5412 -0.0093  2.8741
  402MOL0     H53034  -0.502  10.199   5.377  1.5150  0.8045  0.3761
  402MOL0     H53035  -0.454  10.030   5.394 -0.5865  2.5234  2.4319
  402MOL0     H53036  -0.466  10.183   5.130  1.7566  0.6230  2.0804
  402MOL0     H53037  -0.444  10.011   5.153  2.5394  2.0989  0.6953
  402MOL0     H53038  -0.698  10.150   5.257 -4.1436 -2.6361 -0.7520
  402MOL0     H53039  -0.672   9.983   5.220 -0.0101 -2.1633 -4.3267
  402MOL0     H53040  -0.674  10.015   4.982 -1.3858  1.0650 -3.1619
  402MOL0     H53041  -0.662  10.184   4.992 -2.0596 -0.1537 -1.1107
  402MOL0     H53042  -0.914  10.043   5.100 -4.6343  3.5929  0.5558
  402MOL0     H53043  -0.882  10.203   5.106 -1.6524 -1.1053  2.1504
  402MOL0     H53044  -0.887  10.049   4.833  0.9105 -1.0708  1.3666
  402MOL0     H53045  -0.850  10.211   4.841  1.1808 -1.3509  0.7107
  402MOL0     H53046  -0.162  10.015   5.705 -2.7860 -1.9724  0.5167
  402MOL0     H53047   0.052   9.931   5.795  1.4908  0.0616 -0.3068
  402MOL0     H53048   0.297   9.392   5.840 -0.4179  0.7884 -0.1592
  402MOL0     H53049   0.476   9.320   5.945 -1.2276 -0.6996 -1.2105
  402MOL0     H53050   1.587   9.877   6.608 -1.0535  2.6852  1.7577
  402MOL0     H53051   1.575  10.108   6.580  1.3085  1.8699 -0.5962
  402MOL0     H53052   1.346  10.517   6.339 -0.1586  1.0469 -0.7775
  402MOL0     H53053   1.363  10.695   6.193 -1.2801 -1.3088  0.3093
  402MOL0     H53054   1.460  10.900   6.125  0.1968  0.5080  0.8401
  402MOL0     H53055   1.446  10.823   5.964  0.3691 -0.1623  0.5889
  402MOL0     H53056   1.636  10.973   5.876 -0.7617 -1.3528 -0.6600
  402MOL0     H53057   1.476  11.053   5.927 -0.2035 -0.1385  0.1924
  402MOL0     H53058   1.738  11.024   6.110  0.1092 -0.2713  1.1161
  402MOL0     H53059   1.591  11.122   6.144 -2.5170  4.1059 -2.7156
  402MOL0     H53060   1.658  11.281   5.976  1.4154  1.7073  0.5305
  402MOL0     H53061   1.803  11.250   6.077  0.8831  3.1219 -2.4793
  402MOL0     H53062   1.969  11.070   5.757 -0.5881 -0.9509  0.0349
  402MOL0     H53063   1.792  10.640   6.134  0.2299 -0.7941  0.2955
  402MOL0     H53064   1.768  10.443   6.296  0.5025 -1.9496 -2.3665
  403MOL0     O53065   6.770   0.377   1.589 -0.1328 -0.0427  0.4937
  403MOL0     C53066   6.863   0.456   1.577 -0.8785 -0.5486  0.0728
  403MOL0     O53067   6.929   0.503   1.462 -0.5635  0.0905  0.1522
  403MOL0     C53068   6.895   0.443   1.343 -0.1612 -0.5259  1.3771
  403MOL0     C53069   6.841   0.315   1.312  0.7469  0.4551 -0.2965
  403MOL0     C53070   6.838   0.262   1.184 -1.0662 -0.7618  0.3931
  403MOL0     C53071   6.898   0.334   1.080 -0.2387  0.3206 -0.2904
  403MOL0     O53072   6.941   0.267   0.973  0.4402  0.2320  0.6354
  403MOL0     C53073   7.076   0.237   0.952  0.5602  0.3263 -0.4758
  403MOL0     C53074   7.078   0.105   0.866 -0.0231 -0.9000 -0.4744
  403MOL0     C53075   6.965   0.010   0.886  0.8565 -0.6829 -0.6408
  403MOL0     C53076   6.976  -0.121   0.820 -0.6853  0.6104 -0.5071
  403MOL0     C53077   6.904  -0.236   0.882  0.3543 -0.1199  0.6478
  403MOL0     C53078   6.759  -0.210   0.905  0.4559  0.5263  0.0654
  403MOL0     C53079   6.704  -0.290   1.020 -0.6450  0.3964  0.3222
  403MOL0     C53080   6.549  -0.278   1.016  0.6706  0.3119 -0.3405
  403MOL0     N53081   6.474  -0.307   1.136 -0.3242  0.4260  0.0446
  403MOL0     C53082   6.481  -0.236   1.253 -0.0682  0.7832  0.6410
  403MOL0     C53083   6.403  -0.308   1.330  0.1085  0.8330 -0.1772
  403MOL0     C53084   6.358  -0.277   1.462  0.2253  1.0860 -0.9145
  403MOL0     C53085   6.257  -0.166   1.470  0.7645  0.2893  0.3540
  403MOL0     C53086   6.194  -0.145   1.611 -0.1211  0.2367  0.5311
  403MOL0     C53087   6.078  -0.051   1.617 -0.4593 -0.2992  0.0756
  403MOL0     O53088   6.057   0.001   1.745  0.1073 -0.1857 -0.8801
  403MOL0     C53089   5.936   0.064   1.769 -0.3415  0.0872 -0.3652
  403MOL0     C53090   5.928   0.126   1.897 -0.3510 -0.0258  0.7457
  403MOL0     C53091   5.807   0.188   1.940  0.1078  0.2811  0.5217
  403MOL0     C53092   5.693   0.180   1.858 -0.2725 -0.4191 -0.1149
  403MOL0     C53093   5.559   0.224   1.903  0.0034 -0.3701  0.3418
  403MOL0     O53094   5.486   0.274   1.787  0.6667  0.4624  0.2092
  403MOL0     C53095   5.351   0.285   1.793  0.4172 -0.5397 -0.5253
  403MOL0     C53096   5.266   0.178   1.830  0.3074 -0.3061  0.1817
  403MOL0     C53097   5.128   0.192   1.807  0.9504 -0.0578 -0.2776
  403MOL0     C53098   5.073   0.304   1.743  0.3549  0.1206 -0.3043
  403MOL0     O53099   4.934   0.314   1.740  0.7005 -0.2043 -1.0923
  403MOL0     C53100   4.882   0.446   1.779  0.6078  0.5791  0.5508
  403MOL0     C53101   4.724   0.437   1.802 -0.4789 -0.5044 -0.0438
  403MOL0     C53102   4.646   0.435   1.667  0.0688 -0.0533 -0.2849
  403MOL0     C53103   4.505   0.400   1.699 -0.3947 -0.0684 -0.2267
  403MOL0     C53104   4.401   0.424   1.588 -0.7044 -0.0701 -0.4715
  403MOL0     C53105   4.379   0.573   1.576  0.0060 -1.1988 -0.4106
  403MOL0     C53106   4.267   0.619   1.480  1.0685 -0.7843 -0.2760
  403MOL0     C53107   4.133   0.585   1.533  1.1509  0.1144 -0.2678
  403MOL0    Cl53108   4.009   0.684   1.446  0.1219 -0.2865  0.2910
  403MOL0     C53109   5.163   0.397   1.688 -0.2074  0.3682 -0.2389
  403MOL0     C53110   5.294   0.397   1.727  0.3896 -0.0964 -0.1396
  403MOL0     O53111   5.519   0.216   2.016 -0.1473  0.4558 -0.6555
  403MOL0     C53112   5.707   0.133   1.729  0.9339  0.4800  1.0570
  403MOL0     C53113   5.828   0.086   1.681 -0.1387 -1.0938  1.3933
  403MOL0     N53114   6.359  -0.423   1.264  0.4132  0.0151  0.5399
  403MOL0     N53115   6.410  -0.428   1.152 -0.1174 -0.2483  0.6532
  403MOL0     C53116   6.953   0.458   1.106  0.4926  0.5551  1.2265
  403MOL0     C53117   6.953   0.516   1.233  0.7330  0.7640  0.4293
  403MOL0     C53118   6.939   0.500   1.703  0.2713  0.4598 -0.3526
  403MOL0     C53119   6.882   0.500   1.835  0.0746 -0.7170 -1.0997
  403MOL0     C53120   6.969   0.522   1.944  0.3014 -0.3656  0.9129
  403MOL0     C53121   7.103   0.554   1.925  0.4990 -0.4222 -1.0913
  403MOL0     O53122   7.180   0.582   2.035 -0.7074 -1.1266 -0.6657
  403MOL0     C53123   7.141   0.548   2.167  0.3456 -0.3648 -0.0080
  403MOL0     C53124   7.269   0.516   2.246  0.4157 -0.0800  0.8798
  403MOL0     C53125   7.363   0.635   2.280  1.4148  0.2707  0.5308
  403MOL0     C53126   7.514   0.601   2.248 -0.5150  0.4997 -0.7204
  403MOL0     C53127   7.613   0.682   2.322  1.2241  0.4962  0.0745
  403MOL0     C53128   7.679   0.746   2.401  1.1329 -0.1274 -0.4868
  403MOL0     C53129   7.152   0.561   1.798 -1.2406 -0.3526 -0.1348
  403MOL0     C53130   7.071   0.542   1.691  0.1837 -0.7449 -0.5766
  403MOL0     H53131   6.824   0.236   1.385 -1.0019 -1.3394 -2.4944
  403MOL0     H53132   6.807   0.162   1.157  1.0154 -1.5841  0.8731
  403MOL0     H53133   7.126   0.223   1.048  0.5023 -1.2827 -0.6468
  403MOL0     H53134   7.123   0.317   0.895  2.1809 -1.4311 -1.7421
  403MOL0     H53135   7.175   0.075   0.908 -0.1429  0.8246  1.1667
  403MOL0     H53136   7.085   0.132   0.760  1.3683  0.6782 -0.0300
  403MOL0     H53137   6.869   0.056   0.860  2.1239  2.9068  0.5008
  403MOL0     H53138   6.956  -0.019   0.991 -2.3881 -1.9900 -1.1258
  403MOL0     H53139   6.959  -0.110   0.712 -3.5517  0.3240 -0.1757
  403MOL0     H53140   7.081  -0.148   0.827 -1.2566 -1.5622  0.8900
  403MOL0     H53141   6.939  -0.259   0.983  0.0657 -2.7994  0.1983
  403MOL0     H53142   6.930  -0.322   0.821  4.7110  3.1350 -2.7627
  403MOL0     H53143   6.707  -0.237   0.813 -0.3102  0.3305  0.5477
  403MOL0     H53144   6.739  -0.104   0.926  0.0621  0.9865 -2.3489
  403MOL0     H53145   6.732  -0.396   1.022 -0.9399  0.3266  1.4248
  403MOL0     H53146   6.725  -0.246   1.118 -0.4297 -1.9795  1.4195
  403MOL0     H53147   6.512  -0.344   0.937 -1.3093 -0.8623  1.4630
  403MOL0     H53148   6.519  -0.175   0.994 -1.0800 -0.4801 -1.9209
  403MOL0     H53149   6.520  -0.136   1.267 -3.1805  2.4248 -1.2979
  403MOL0     H53150   6.451  -0.252   1.514  0.2357 -0.0047 -0.3765
  403MOL0     H53151   6.323  -0.366   1.517 -0.8796  0.7442 -2.1083
  403MOL0     H53152   6.189  -0.174   1.385  0.5763 -0.1217  0.5378
  403MOL0     H53153   6.305  -0.071   1.446  0.1529  0.6857  0.6476
  403MOL0     H53154   6.170  -0.239   1.663  0.4475 -0.5719 -0.6247
  403MOL0     H53155   6.273  -0.087   1.659  1.1611 -0.0351 -1.1774
  403MOL0     H53156   5.981  -0.093   1.588 -1.3181  0.5829  1.5328
  403MOL0     H53157   6.095   0.032   1.548 -0.4522 -0.1259  0.2841
  403MOL0     H53158   6.015   0.142   1.959 -0.6444  0.7182  0.9834
  403MOL0     H53159   5.814   0.243   2.033  2.1536 -0.4666  0.8731
  403MOL0     H53160   5.302   0.082   1.866  0.4301 -1.4466 -2.7206
  403MOL0     H53161   5.054   0.127   1.852  1.2102 -0.2279 -0.0924
  403MOL0     H53162   4.896   0.497   1.683 -2.1019 -0.0459 -0.2713
  403MOL0     H53163   4.939   0.495   1.858 -0.1092  3.1494 -0.3983
  403MOL0     H53164   4.692   0.531   1.848  0.0089  0.4972 -1.6458
  403MOL0     H53165   4.698   0.346   1.857 -3.8370 -0.7137 -1.7428
  403MOL0     H53166   4.699   0.360   1.607 -0.2735  0.1079 -0.8003
  403MOL0     H53167   4.647   0.533   1.620  0.1324  2.4718  4.4079
  403MOL0     H53168   4.520   0.295   1.727 -0.6558  0.2227  1.0562
  403MOL0     H53169   4.470   0.444   1.793  0.2374 -3.0640  1.5266
  403MOL0     H53170   4.305   0.383   1.622 -0.5225 -1.1064 -1.1713
  403MOL0     H53171   4.423   0.377   1.492  1.2105 -3.2800  1.3818
  403MOL0     H53172   4.472   0.628   1.559 -0.3061 -1.2287 -2.3666
  403MOL0     H53173   4.352   0.606   1.677  0.8223  1.3447 -0.9427
  403MOL0     H53174   4.270   0.727   1.469  0.9452 -0.9675 -2.5676
  403MOL0     H53175   4.278   0.594   1.374 -1.8843  1.4382 -1.2426
  403MOL0     H53176   4.133   0.603   1.641  0.6923  2.4966 -0.6229
  403MOL0     H53177   4.112   0.479   1.512 -0.2399  0.7344 -2.3681
  403MOL0     H53178   5.106   0.470   1.630 -1.7987 -1.8789 -1.6389
  403MOL0     H53179   5.362   0.481   1.713  0.3702  0.0545  0.6076
  403MOL0     H53180   5.631   0.151   1.654  0.3607  0.4650  1.6298
  403MOL0     H53181   5.830   0.062   1.576 -1.2626 -1.4096  1.4336
  403MOL0     H53182   7.007   0.503   1.024 -1.7683  2.0386  0.4801
  403MOL0     H53183   7.012   0.604   1.255  3.4805 -0.5346 -1.2394
  403MOL0     H53184   6.774   0.489   1.842 -0.1614 -0.2201 -3.1598
  403MOL0     H53185   6.924   0.533   2.042  1.2135  2.9007  1.0947
  403MOL0     H53186   7.070   0.465   2.166 -0.4217  0.2341 -2.2976
  403MOL0     H53187   7.087   0.638   2.197 -0.7639 -0.9451 -0.2015
  403MOL0     H53188   7.246   0.470   2.343 -2.2996  1.3764  1.0306
  403MOL0     H53189   7.322   0.447   2.180 -0.4120 -3.2910  3.3037
  403MOL0     H53190   7.344   0.641   2.388 -0.0592  0.3160  0.2920
  403MOL0     H53191   7.331   0.726   2.229  4.8423 -0.5162 -3.5597
  403MOL0     H53192   7.530   0.496   2.273 -1.9461  0.7488  1.5860
  403MOL0     H53193   7.535   0.613   2.142 -2.3278  1.2159 -1.0393
  403MOL0     H53194   7.763   0.795   2.446  0.7025  1.2035 -1.0575
  403MOL0     H53195   7.254   0.595   1.787 -1.5102  0.3945 -0.3884
  403MOL0     H53196   7.117   0.529   1.594  2.6249  0.1352  0.3886
  404MOL0     O53197   8.772   7.885  10.712 -0.5666 -0.1351  0.8505
  404MOL0     C53198   8.701   7.941  10.793 -0.4242 -0.5103  0.9020
  404MOL0     O53199   8.630   7.879  10.887  0.3358  0.8068  0.6923
  404MOL0     C53200   8.666   7.754  10.913 -0.6019 -0.0539  0.6815
  404MOL0     C53201   8.585   7.644  10.882 -0.2607 -0.4410  0.8523
  404MOL0     C53202   8.630   7.519  10.915 -0.2599  0.3383 -0.1672
  404MOL0     C53203   8.744   7.498  10.979 -0.9942 -0.5000 -0.3104
  404MOL0     O53204   8.776   7.363  11.012  0.7006 -0.7747  0.4759
  404MOL0     C53205   8.891   7.302  10.944  0.1264 -0.5705 -0.4439
  404MOL0     C53206   8.883   7.144  10.944 -0.2308 -0.5860 -0.3146
  404MOL0     C53207   8.992   7.085  10.859 -0.1036  0.8114  0.2797
  404MOL0     C53208   8.969   6.939  10.816 -0.1321  0.0766  0.1991
  404MOL0     C53209   8.861   6.921  10.702 -0.7605  0.4129 -0.9678
  404MOL0     C53210   8.821   6.774  10.682  0.2521  0.8231  0.3340
  404MOL0     C53211   8.757   6.704  10.810  0.3755 -0.0427 -0.2324
  404MOL0     C53212   8.642   6.605  10.774 -0.8165 -0.4417  0.0079
  404MOL0     N53213   8.599   6.541  10.897  0.1168  0.1398 -0.1192
  404MOL0     C53214   8.487   6.585  10.968  0.4157  0.2848 -0.2456
  404MOL0     C53215   8.488   6.519  11.088 -1.1236 -0.8506 -0.5040
  404MOL0     C53216   8.397   6.520  11.210  0.1389  0.5391 -0.3016
  404MOL0     C53217   8.483   6.517  11.342 -0.2192 -0.3529 -1.2019
  404MOL0     C53218   8.560   6.638  11.356 -0.5173  0.9895  0.7906
  404MOL0     C53219   8.472   6.752  11.421  1.0051 -0.3589 -0.5024
  404MOL0     O53220   8.518   6.889  11.420  0.0171 -1.4263  0.9449
  404MOL0     C53221   8.627   6.916  11.499 -0.4366  0.9160  0.5686
  404MOL0     C53222   8.617   7.004  11.600 -0.4693 -0.5330 -0.5701
  404MOL0     C53223   8.722   7.039  11.682  0.3174  0.0701 -0.5199
  404MOL0     C53224   8.848   6.979  11.668 -0.1378 -0.0582  0.3096
  404MOL0     C53225   8.969   7.022  11.752  0.4513  0.7871  0.3669
  404MOL0     O53226   9.078   6.970  11.705 -0.1473 -0.9481 -0.0510
  404MOL0     C53227   9.196   6.974  11.778 -0.0070 -0.4856 -0.0823
  404MOL0     C53228   9.208   6.926  11.912 -0.0845  0.2915 -0.9952
  404MOL0     C53229   9.338   6.941  11.979  0.1239 -0.3988  0.1234
  404MOL0     C53230   9.452   6.986  11.913 -0.6042 -0.0323 -0.2765
  404MOL0     O53231   9.568   6.965  11.984 -0.4527  0.1539 -0.5746
  404MOL0     C53232   9.615   6.831  11.977 -0.1254 -0.2494  0.3688
  404MOL0     C53233   9.651   6.795  12.120 -0.7302 -1.4500  0.0180
  404MOL0     C53234   9.802   6.833  12.153  0.0509 -0.6858  0.3038
  404MOL0     C53235   9.829   6.778  12.303 -0.3339  0.3169  0.7763
  404MOL0     C53236   9.982   6.790  12.345 -0.2829  0.7878  1.1341
  404MOL0     C53237  10.033   6.937  12.350 -0.0473  0.4777  0.0981
  404MOL0     C53238  10.182   6.930  12.375 -0.3669 -0.7123  0.5168
  404MOL0     C53239  10.233   7.064  12.422 -0.0803  0.5939 -0.7048
  404MOL0    Cl53240  10.235   7.201  12.307  0.1992 -0.2683 -0.0646
  404MOL0     C53241   9.438   7.025  11.783  0.1151 -0.4143 -0.6358
  404MOL0     C53242   9.317   7.025  11.717  0.3579  0.3114 -0.5761
  404MOL0     O53243   8.956   7.085  11.857 -0.1010 -0.6532 -0.2177
  404MOL0     C53244   8.865   6.902  11.552  0.7101 -0.1369  0.2821
  404MOL0     C53245   8.752   6.876  11.465 -0.2624  1.3164 -0.4461
  404MOL0     N53246   8.592   6.422  11.074 -0.7638 -0.3410 -1.1948
  404MOL0     N53247   8.660   6.439  10.972  0.1508 -0.5218 -0.3795
  404MOL0     C53248   8.833   7.601  11.014 -0.2487 -0.4204  0.2235
  404MOL0     C53249   8.794   7.730  10.970  0.1496  0.4896 -0.8004
  404MOL0     C53250   8.686   8.083  10.768 -0.2057 -0.4420 -0.0567
  404MOL0     C53251   8.571   8.147  10.831 -0.4716 -0.3125  0.5789
  404MOL0     C53252   8.559   8.287  10.819  0.7974 -0.0671  0.5835
  404MOL0     C53253   8.650   8.360  10.751  0.5753 -0.2320  0.2295
  404MOL0     O53254   8.641   8.494  10.747  0.0027  0.0964  0.1099
  404MOL0     C53255   8.533   8.579  10.788  0.4836  0.0018 -0.3053
  404MOL0     C53256   8.532   8.602  10.946 -0.3619 -0.4907  0.7325
  404MOL0     C53257   8.670   8.664  11.000 -0.0387 -0.1911  0.3163
  404MOL0     C53258   8.649   8.721  11.142  0.2858  0.2678  0.1848
  404MOL0     C53259   8.761   8.790  11.189 -0.3470 -0.6771  0.0099
  404MOL0     C53260   8.848   8.864  11.238  0.3949  0.6918  0.0046
  404MOL0     C53261   8.761   8.294  10.695  0.2919 -0.3232 -0.5304
  404MOL0     C53262   8.783   8.153  10.696 -0.9816 -0.6064  0.3526
  404MOL0     H53263   8.490   7.676  10.841  0.8866  3.6601  1.0284
  404MOL0     H53264   8.581   7.425  10.891 -1.7142  0.8654  0.5924
  404MOL0     H53265   8.981   7.340  10.994  0.7426  0.6418 -2.3596
  404MOL0     H53266   8.904   7.355  10.849 -1.1483  0.4279 -0.0993
  404MOL0     H53267   8.786   7.112  10.906 -0.9486  0.8491  0.2439
  404MOL0     H53268   8.893   7.108  11.047 -0.5193  1.8057  0.6140
  404MOL0     H53269   9.076   7.078  10.927 -0.0003 -0.9193  0.0301
  404MOL0     H53270   9.018   7.151  10.776  0.6483  2.6436  1.9022
  404MOL0     H53271   9.059   6.895  10.772  0.6950  0.3931  1.5225
  404MOL0     H53272   8.955   6.885  10.910  0.0493 -2.5689 -1.2039
  404MOL0     H53273   8.913   6.958  10.613  3.2367 -0.2266  0.8901
  404MOL0     H53274   8.779   6.987  10.732 -0.8069 -0.8834  2.1387
  404MOL0     H53275   8.904   6.712  10.646 -1.6428 -0.8280 -1.4305
  404MOL0     H53276   8.740   6.781  10.610 -0.3277  3.3450  1.1444
  404MOL0     H53277   8.828   6.665  10.884  0.5023 -0.4151 -0.5473
  404MOL0     H53278   8.715   6.792  10.860  1.7251 -0.7166  2.2948
  404MOL0     H53279   8.680   6.522  10.713  2.4830  0.2262  0.9602
  404MOL0     H53280   8.564   6.657  10.717  2.4625  3.3690 -1.5003
  404MOL0     H53281   8.408   6.652  10.935  1.7820  3.6091  2.6216
  404MOL0     H53282   8.339   6.428  11.201 -0.6919  1.1663 -1.7325
  404MOL0     H53283   8.322   6.599  11.201  0.1998  0.4549 -1.8284
  404MOL0     H53284   8.548   6.429  11.337 -0.2948 -0.6290  1.3661
  404MOL0     H53285   8.418   6.507  11.430 -2.2451  0.8319 -2.4828
  404MOL0     H53286   8.654   6.620  11.409  0.3478  2.2268 -0.2557
  404MOL0     H53287   8.593   6.672  11.257 -0.0243 -2.8579 -0.5238
  404MOL0     H53288   8.467   6.719  11.525 -1.1416  2.7168  0.5501
  404MOL0     H53289   8.370   6.729  11.389  0.4054 -3.3216  2.9250
  404MOL0     H53290   8.519   7.050  11.600 -0.7766 -1.1117 -2.0437
  404MOL0     H53291   8.714   7.124  11.749  1.7543 -0.1784 -0.0101
  404MOL0     H53292   9.112   6.890  11.946 -0.9685  2.6313 -0.8524
  404MOL0     H53293   9.362   6.904  12.078 -0.5388  1.2455  0.9361
  404MOL0     H53294   9.707   6.827  11.919 -1.2150 -0.0944 -1.4786
  404MOL0     H53295   9.534   6.773  11.932 -1.6421  1.9057  0.1311
  404MOL0     H53296   9.645   6.686  12.134  0.7538 -1.6156 -0.4448
  404MOL0     H53297   9.585   6.838  12.196  0.8040 -1.2452  1.2904
  404MOL0     H53298   9.806   6.943  12.153  1.3339 -0.6891 -1.9026
  404MOL0     H53299   9.888   6.804  12.093  0.5969  3.9389 -1.5671
  404MOL0     H53300   9.759   6.827  12.371 -2.8604  0.5295 -1.8207
  404MOL0     H53301   9.811   6.671  12.297  1.5918  0.0368 -1.9664
  404MOL0     H53302  10.042   6.727  12.278 -0.4142  0.2761  1.4944
  404MOL0     H53303   9.997   6.746  12.444  0.7644  3.7899  2.3993
  404MOL0     H53304   9.990   6.995  12.432  0.0729  1.3693 -0.4550
  404MOL0     H53305  10.003   7.001  12.266 -0.3584  0.2017 -0.0008
  404MOL0     H53306  10.214   6.846  12.436  0.8160 -0.0765  0.8066
  404MOL0     H53307  10.222   6.914  12.274 -4.8843  0.9990 -1.8662
  404MOL0     H53308  10.340   7.060  12.445  0.2973  6.1017 -0.1008
  404MOL0     H53309  10.178   7.090  12.513  1.1248 -3.3551  1.3780
  404MOL0     H53310   9.515   7.076  11.726 -0.6537  1.3813 -0.1493
  404MOL0     H53311   9.298   7.072  11.621  1.0136  0.1241 -0.7980
  404MOL0     H53312   8.961   6.863  11.519 -0.9297 -1.6604 -3.3422
  404MOL0     H53313   8.773   6.808  11.383  0.3174  1.9563 -0.8452
  404MOL0     H53314   8.927   7.594  11.067  0.1378  0.1898 -0.3780
  404MOL0     H53315   8.865   7.810  10.990  2.4610 -1.8896  1.1948
  404MOL0     H53316   8.493   8.092  10.882  0.4743 -0.4883  1.8827
  404MOL0     H53317   8.466   8.325  10.861  1.4647 -0.8608  2.9548
  404MOL0     H53318   8.441   8.532  10.752  0.6297 -0.1574 -0.4700
  404MOL0     H53319   8.538   8.675  10.736  0.3510 -0.3581 -0.9940
  404MOL0     H53320   8.451   8.674  10.962  0.6932  0.5491  1.6554
  404MOL0     H53321   8.518   8.506  10.996 -0.2475  0.3769  2.5132
  404MOL0     H53322   8.712   8.736  10.929 -1.5127 -0.5847 -0.9759
  404MOL0     H53323   8.741   8.581  11.000 -1.0752 -1.0912  0.0770
  404MOL0     H53324   8.556   8.779  11.151 -0.7709 -1.0900 -1.3474
  404MOL0     H53325   8.619   8.641  11.209  1.8143 -0.7290 -0.2835
  404MOL0     H53326   8.910   8.933  11.291 -2.7790  2.5359  1.6236
  404MOL0     H53327   8.830   8.361  10.644 -2.2339  4.0659  1.1783
  404MOL0     H53328   8.876   8.107  10.666  0.3339  0.2962  2.8174
  405MOL0     O53329  11.016   1.353   8.445 -0.8839 -1.0032 -0.1342
  405MOL0     C53330  10.920   1.420   8.401  0.7860  0.2541 -0.0286
  405MOL0     O53331  10.785   1.406   8.428 -0.3659  0.2815 -0.2473
  405MOL0     C53332  10.744   1.333   8.538 -0.0736  0.1904 -0.6325
  405MOL0     C53333  10.808   1.223   8.608  1.0524 -0.2799 -0.3154
  405MOL0     C53334  10.739   1.167   8.714  0.0738  0.9543 -0.7722
  405MOL0     C53335  10.619   1.214   8.758  1.6738 -0.0424 -0.5911
  405MOL0     O53336  10.556   1.147   8.870  0.4513  0.3018 -0.2074
  405MOL0     C53337  10.642   1.114   8.976  0.4715  0.2015 -0.0231
  405MOL0     C53338  10.556   1.114   9.104 -0.7349 -0.3243 -1.1289
  405MOL0     C53339  10.572   0.984   9.184  0.5046  0.7647 -1.5120
  405MOL0     C53340  10.480   0.983   9.295  0.3693  0.3801 -0.1006
  405MOL0     C53341  10.496   0.866   9.394  0.3452  0.8013 -0.5498
  405MOL0     C53342  10.386   0.842   9.504 -0.0424  0.3337  0.9174
  405MOL0     C53343  10.409   0.715   9.586 -0.5503  0.0035  0.2004
  405MOL0     C53344  10.282   0.647   9.645 -0.2186 -0.0620 -0.5785
  405MOL0     N53345  10.164   0.645   9.540 -1.1470 -1.0754  0.1419
  405MOL0     C53346  10.173   0.616   9.409  0.3477  0.7635  0.0748
  405MOL0     C53347  10.047   0.658   9.366  0.5940  0.4519 -1.6407
  405MOL0     C53348   9.986   0.677   9.234 -0.6228 -0.0569 -0.0119
  405MOL0     C53349  10.075   0.656   9.106 -0.4388  0.8485  0.7672
  405MOL0     C53350   9.997   0.694   8.971  0.2291  0.2240 -0.2417
  405MOL0     C53351  10.081   0.682   8.842  0.0366  0.4300  0.1750
  405MOL0     O53352  10.189   0.780   8.844  0.7370  0.1199 -0.5319
  405MOL0     C53353  10.173   0.890   8.769 -0.0497 -0.4799  0.3520
  405MOL0     C53354  10.067   0.915   8.671 -0.1114 -0.6654 -0.0920
  405MOL0     C53355  10.062   1.043   8.618  0.4967 -0.5697 -0.1051
  405MOL0     C53356  10.141   1.144   8.663 -0.7222 -0.1350  0.3999
  405MOL0     C53357  10.128   1.279   8.617 -0.5122 -0.8950  0.5046
  405MOL0     O53358  10.210   1.373   8.664  0.5695  0.1483 -0.1638
  405MOL0     C53359  10.218   1.500   8.599  0.0179 -0.1673  0.2965
  405MOL0     C53360  10.270   1.512   8.459 -0.4584 -0.4223 -0.4812
  405MOL0     C53361  10.279   1.639   8.392 -0.5028  0.1260 -0.9373
  405MOL0     C53362  10.238   1.751   8.454  0.7966 -0.6823 -0.4948
  405MOL0     O53363  10.253   1.873   8.386 -0.6483 -0.2728 -0.5690
  405MOL0     C53364  10.141   1.957   8.387  0.1158  0.7340 -0.2584
  405MOL0     C53365  10.198   2.097   8.360 -0.1054 -0.1939  0.2458
  405MOL0     C53366  10.269   2.171   8.474 -0.4551 -0.2184 -0.5448
  405MOL0     C53367  10.191   2.217   8.594 -0.9210 -0.5066 -1.0464
  405MOL0     C53368  10.303   2.257   8.690 -0.6119  1.1606 -0.4672
  405MOL0     C53369  10.236   2.344   8.794 -0.4696  0.1955 -0.2303
  405MOL0     C53370  10.187   2.274   8.923 -0.3815  0.4854  0.1166
  405MOL0     C53371  10.053   2.342   8.974 -1.1487 -0.2606  0.2739
  405MOL0    Cl53372  10.041   2.324   9.155 -0.1637 -0.3532 -0.3121
  405MOL0     C53373  10.185   1.745   8.594 -0.3535  0.4348  0.8127
  405MOL0     C53374  10.185   1.622   8.654 -0.5444 -0.8294 -0.1594
  405MOL0     O53375  10.045   1.301   8.526 -0.1791 -0.1631 -0.2485
  405MOL0     C53376  10.223   1.124   8.779 -0.4198 -0.2555  0.7540
  405MOL0     C53377  10.254   0.994   8.818  0.1351  0.9025 -0.5916
  405MOL0     N53378   9.965   0.685   9.479 -0.5305 -0.5933 -0.0925
  405MOL0     N53379  10.039   0.669   9.583  0.1421 -0.0943  0.4704
  405MOL0     C53380  10.548   1.303   8.683 -0.2058 -0.1365 -0.0433
  405MOL0     C53381  10.613   1.368   8.576 -0.2404 -0.2632  0.4479
  405MOL0     C53382  10.953   1.532   8.300  0.3687  0.5347 -0.2040
  405MOL0     C53383  10.861   1.569   8.198 -0.2197  0.5675 -0.3266
  405MOL0     C53384  10.884   1.679   8.117 -0.9105  1.1383  0.1988
  405MOL0     C53385  10.996   1.762   8.139  0.5754 -0.3576 -0.1803
  405MOL0     O53386  11.026   1.873   8.066 -0.7976 -0.0360  0.3438
  405MOL0     C53387  10.968   1.901   7.940 -0.0645  0.5553  0.5799
  405MOL0     C53388  10.973   2.042   7.907 -0.2388  0.0501  0.3034
  405MOL0     C53389  10.871   2.124   7.989  0.0531 -0.5295  0.3222
  405MOL0     C53390  10.859   2.266   7.935 -0.0154  0.2393 -0.5285
  405MOL0     C53391  10.740   2.334   7.984 -0.5692  0.3291 -0.6429
  405MOL0     C53392  10.637   2.380   8.028  0.0287 -0.1242  0.1307
  405MOL0     C53393  11.093   1.722   8.237  0.0120  0.5831  0.2621
  405MOL0     C53394  11.077   1.606   8.312  0.5995  0.6275 -0.1067
  405MOL0     H53395  10.908   1.185   8.590  1.5408 -0.1758  1.8890
  405MOL0     H53396  10.793   1.086   8.762  1.2257  2.0719 -0.1226
  405MOL0     H53397  10.723   1.187   8.987  0.0344  0.6664  0.1757
  405MOL0     H53398  10.674   1.010   8.967  1.5760  0.0973  3.6213
  405MOL0     H53399  10.451   1.131   9.079 -0.3339  0.1939 -2.5602
  405MOL0     H53400  10.585   1.187   9.181  2.0298 -2.3788 -0.0377
  405MOL0     H53401  10.667   0.963   9.233 -0.5046  1.3453  0.8324
  405MOL0     H53402  10.550   0.900   9.116  0.4609 -0.2508 -0.2796
  405MOL0     H53403  10.481   1.083   9.340 -0.4361  0.2924  0.1225
  405MOL0     H53404  10.377   0.973   9.259 -0.4649  0.6613  2.0695
  405MOL0     H53405  10.583   0.894   9.454 -0.1929 -0.7498  1.0858
  405MOL0     H53406  10.502   0.773   9.338 -2.0789 -0.5071  1.1462
  405MOL0     H53407  10.297   0.822   9.443  0.6174 -1.1612  0.3922
  405MOL0     H53408  10.379   0.927   9.573  0.0406  0.1615  1.1377
  405MOL0     H53409  10.466   0.642   9.527  2.4605 -0.8730  3.7622
  405MOL0     H53410  10.472   0.741   9.671 -0.5497  3.1067 -0.6205
  405MOL0     H53411  10.248   0.709   9.729 -0.5876  0.4035 -1.0605
  405MOL0     H53412  10.309   0.545   9.674 -0.6038 -0.6513 -2.1570
  405MOL0     H53413  10.249   0.598   9.334 -0.6997  1.4862 -1.2182
  405MOL0     H53414   9.965   0.783   9.220 -1.4185 -0.4885 -3.0440
  405MOL0     H53415   9.894   0.618   9.224 -1.7189  1.3693  1.1913
  405MOL0     H53416  10.108   0.552   9.105  3.4215  1.8405 -2.9662
  405MOL0     H53417  10.168   0.711   9.124  0.3393 -0.0356 -0.4455
  405MOL0     H53418   9.914   0.625   8.955  0.2539  0.1201  0.0596
  405MOL0     H53419   9.959   0.796   8.982  0.5387  0.1777  1.6222
  405MOL0     H53420  10.010   0.687   8.760 -0.4160 -1.2131  0.4464
  405MOL0     H53421  10.109   0.577   8.828 -1.2818  0.2640 -1.3762
  405MOL0     H53422   9.978   0.856   8.650 -1.3246  0.6433  1.1141
  405MOL0     H53423   9.979   1.075   8.557  0.6275 -0.1860 -0.0839
  405MOL0     H53424  10.284   1.424   8.398 -4.6650 -2.3433  0.9692
  405MOL0     H53425  10.329   1.658   8.298  0.2764  0.4971 -0.4604
  405MOL0     H53426  10.080   1.948   8.478 -0.0072  1.6174 -0.2391
  405MOL0     H53427  10.085   1.928   8.297 -0.3301  2.1481 -0.4658
  405MOL0     H53428  10.127   2.170   8.320 -0.5412 -0.0880  1.1915
  405MOL0     H53429  10.268   2.095   8.276  0.7687  4.0380  0.6796
  405MOL0     H53430  10.309   2.260   8.426 -0.7199 -0.5543 -1.4175
  405MOL0     H53431  10.362   2.121   8.501  2.0967  3.9363 -0.7824
  405MOL0     H53432  10.130   2.302   8.563 -1.5832 -0.2170  0.8758
  405MOL0     H53433  10.115   2.147   8.629 -0.7953 -0.4227 -0.5958
  405MOL0     H53434  10.378   2.315   8.636 -0.4830  1.3638 -0.0747
  405MOL0     H53435  10.341   2.167   8.739 -0.7584  1.1034 -0.4565
  405MOL0     H53436  10.168   2.410   8.741  0.9067  0.9978 -1.0747
  405MOL0     H53437  10.326   2.404   8.811 -0.6501  0.6445 -0.8452
  405MOL0     H53438  10.177   2.167   8.904  2.3482  0.1651  0.1974
  405MOL0     H53439  10.259   2.280   9.005 -1.9323  1.9070  1.4667
  405MOL0     H53440   9.962   2.308   8.924 -0.7806 -2.1803  0.8018
  405MOL0     H53441  10.059   2.449   8.954 -2.6554 -0.4654 -1.4608
  405MOL0     H53442  10.159   1.835   8.647  0.0009  1.2216 -0.3046
  405MOL0     H53443  10.150   1.632   8.756  0.3752  0.8265  0.0222
  405MOL0     H53444  10.270   1.201   8.839  1.1856  0.1075 -0.8805
  405MOL0     H53445  10.337   0.983   8.888 -0.2767 -1.4950 -0.4281
  405MOL0     H53446  10.454   1.349   8.711  1.0090  2.2691  0.3503
  405MOL0     H53447  10.562   1.450   8.527 -1.3734 -2.4735 -2.3645
  405MOL0     H53448  10.772   1.509   8.183  1.1202 -2.4297  2.4034
  405MOL0     H53449  10.806   1.675   8.042  0.3113 -1.2066 -1.0634
  405MOL0     H53450  10.865   1.863   7.946  1.0237 -2.5848  1.7847
  405MOL0     H53451  11.029   1.848   7.866  0.3969 -0.7965  1.8807
  405MOL0     H53452  11.074   2.079   7.928  0.2418 -0.7744 -0.4611
  405MOL0     H53453  10.976   2.056   7.798 -0.9071  0.1727  0.2999
  405MOL0     H53454  10.906   2.127   8.092  0.6603  3.8813  0.1508
  405MOL0     H53455  10.778   2.068   7.980  1.3356 -2.8323  0.5838
  405MOL0     H53456  10.949   2.318   7.968  0.1388 -0.1173 -0.3801
  405MOL0     H53457  10.861   2.262   7.825 -1.0062  1.8618 -0.6373
  405MOL0     H53458  10.550   2.425   8.070  0.8401 -0.6484  2.5423
  405MOL0     H53459  11.190   1.769   8.246 -0.2397  1.6107 -1.7860
  405MOL0     H53460  11.145   1.570   8.388  0.1799 -2.7421 -1.1856
  406MOL0     O53461   8.943   9.955   5.042 -0.0389  0.0731  0.0113
  406MOL0     C53462   8.827   9.988   5.023 -0.3952  0.2127 -0.1577
  406MOL0     O53463   8.723   9.924   4.959 -0.6170  0.3959  1.2972
  406MOL0     C53464   8.748   9.818   4.880 -0.2712  0.4043  0.7225
  406MOL0     C53465   8.652   9.790   4.780  1.0371 -0.0033  0.4502
  406MOL0     C53466   8.648   9.671   4.708  0.0168 -0.1837  0.6382
  406MOL0     C53467   8.750   9.581   4.722 -0.4176  0.2078  0.7336
  406MOL0     O53468   8.748   9.465   4.656 -0.3764  0.5794 -0.3295
  406MOL0     C53469   8.774   9.480   4.511  0.3772  0.4475 -0.6060
  406MOL0     C53470   8.707   9.374   4.430  0.3430 -0.6826  0.7534
  406MOL0     C53471   8.716   9.372   4.280 -0.4096 -1.4176  0.3185
  406MOL0     C53472   8.676   9.232   4.233  0.0005 -1.1478 -0.9729
  406MOL0     C53473   8.679   9.204   4.077  0.4010  0.5463 -0.7104
  406MOL0     C53474   8.812   9.224   4.003  0.1014 -0.1825 -0.4425
  406MOL0     C53475   8.911   9.135   4.072 -0.2781 -0.2229  0.1870
  406MOL0     C53476   9.024   9.116   3.974 -0.8929  1.0449  0.4562
  406MOL0     N53477   9.063   9.232   3.890  0.2860  0.3750 -0.5310
  406MOL0     C53478   9.081   9.226   3.754  0.1995 -0.3607  0.7384
  406MOL0     C53479   9.158   9.338   3.726  0.4870  0.8826  0.3384
  406MOL0     C53480   9.206   9.378   3.592 -0.6039  0.4126 -0.3710
  406MOL0     C53481   9.140   9.503   3.544  0.0185  0.3957  0.5130
  406MOL0     C53482   8.998   9.487   3.482 -0.2171 -1.5132  1.1780
  406MOL0     C53483   8.994   9.411   3.354  0.0805 -1.1303  0.1260
  406MOL0     O53484   9.004   9.261   3.370  0.5177 -0.7837 -0.0022
  406MOL0     C53485   8.909   9.178   3.304 -0.6092 -0.2157  1.6024
  406MOL0     C53486   8.923   9.037   3.314  0.0119 -0.0181 -0.2942
  406MOL0     C53487   8.835   8.951   3.246  0.1443 -0.0397 -0.3531
  406MOL0     C53488   8.728   9.010   3.178  0.0785  0.6001  0.1985
  406MOL0     C53489   8.629   8.916   3.116 -0.3993  0.4982 -0.1231
  406MOL0     O53490   8.554   8.969   3.019  0.4535 -0.0592 -0.2978
  406MOL0     C53491   8.464   8.887   2.954  0.0715 -0.0286 -0.5688
  406MOL0     C53492   8.513   8.780   2.870  0.5227 -0.2222 -0.0803
  406MOL0     C53493   8.417   8.693   2.826 -1.2576  0.4894  0.1855
  406MOL0     C53494   8.277   8.705   2.840  1.2108  1.0031 -0.2578
  406MOL0     O53495   8.194   8.607   2.781 -0.9263  0.1987 -0.5403
  406MOL0     C53496   8.058   8.588   2.807  0.8057 -0.0196 -0.7502
  406MOL0     C53497   8.043   8.491   2.935 -0.2026 -0.0945 -0.1105
  406MOL0     C53498   8.085   8.540   3.070 -0.3354 -1.0571  0.2578
  406MOL0     C53499   8.004   8.660   3.112  0.6187 -1.1846 -1.4822
  406MOL0     C53500   8.087   8.743   3.213  0.4334  0.1828  0.4780
  406MOL0     C53501   8.121   8.659   3.339  0.0655 -0.5621 -0.1578
  406MOL0     C53502   8.213   8.746   3.422  0.0254  0.1360  0.3213
  406MOL0     C53503   8.130   8.852   3.491  0.0207  0.7387  0.1723
  406MOL0    Cl53504   8.214   8.952   3.610  0.3886  0.7075 -0.5270
  406MOL0     C53505   8.237   8.805   2.925  0.8940 -0.6321 -0.0436
  406MOL0     C53506   8.326   8.890   2.983 -0.1041 -0.1223  0.1899
  406MOL0     O53507   8.617   8.799   3.162  0.6087 -0.3144 -0.5051
  406MOL0     C53508   8.717   9.150   3.158  0.5294  1.4630 -0.8977
  406MOL0     C53509   8.806   9.231   3.217 -0.5813 -0.3917 -0.4645
  406MOL0     N53510   9.187   9.399   3.846 -1.2093 -0.4568 -0.3436
  406MOL0     N53511   9.135   9.331   3.943 -0.7517 -0.3973 -1.1631
  406MOL0     C53512   8.852   9.603   4.810 -0.0460  0.4250  1.1791
  406MOL0     C53513   8.851   9.720   4.894 -0.1742  0.0623  0.0097
  406MOL0     C53514   8.799  10.119   5.090  0.6404  0.1651  0.5027
  406MOL0     C53515   8.899  10.203   5.157  0.4687  0.7335 -0.4415
  406MOL0     C53516   8.868  10.315   5.234  1.1252 -1.4392  0.7575
  406MOL0     C53517   8.736  10.336   5.272  0.2550  0.2151 -0.7866
  406MOL0     O53518   8.698  10.441   5.356 -0.5581  0.0749  0.1259
  406MOL0     C53519   8.792  10.495   5.450  0.6318 -0.7835 -0.4715
  406MOL0     C53520   8.789  10.441   5.598  0.7190 -0.3754  0.1546
  406MOL0     C53521   8.782  10.287   5.608 -0.3969  0.2127 -1.2038
  406MOL0     C53522   8.780  10.237   5.751 -0.1723 -0.1681  0.1998
  406MOL0     C53523   8.685  10.311   5.842  0.3712 -0.4819 -1.4480
  406MOL0     C53524   8.615  10.375   5.923  0.0068 -0.2214  0.9047
  406MOL0     C53525   8.642  10.259   5.210  0.2926 -0.0728 -0.1810
  406MOL0     C53526   8.664  10.160   5.109 -1.3092  0.5201 -0.3446
  406MOL0     H53527   8.575   9.860   4.750  1.6024  1.0508  1.4099
  406MOL0     H53528   8.572   9.667   4.631  1.2890  0.1461 -0.6940
  406MOL0     H53529   8.882   9.469   4.492  0.3929  0.1723 -0.3690
  406MOL0     H53530   8.735   9.574   4.471 -0.1073  0.4745 -0.0745
  406MOL0     H53531   8.601   9.386   4.452  1.0952  2.5882  3.3873
  406MOL0     H53532   8.751   9.282   4.469  0.7457 -1.7314 -1.9462
  406MOL0     H53533   8.820   9.384   4.248 -1.6043  1.5000 -3.1996
  406MOL0     H53534   8.652   9.438   4.220 -1.0836 -0.9346  1.5178
  406MOL0     H53535   8.743   9.155   4.272 -0.6057 -2.2105 -1.9668
  406MOL0     H53536   8.574   9.207   4.265 -0.4809  0.2182 -1.3959
  406MOL0     H53537   8.615   9.278   4.028 -0.5334 -0.4331 -1.0003
  406MOL0     H53538   8.645   9.101   4.072 -1.0601  0.9308  0.5361
  406MOL0     H53539   8.851   9.325   4.020  1.0226 -0.7153  0.7191
  406MOL0     H53540   8.810   9.186   3.900  2.9285 -2.4135  0.1950
  406MOL0     H53541   8.954   9.182   4.161 -0.2728 -2.6671  1.5759
  406MOL0     H53542   8.877   9.036   4.104  0.2825 -0.4907 -0.0233
  406MOL0     H53543   8.997   9.032   3.910 -0.8017 -1.2736  3.2526
  406MOL0     H53544   9.115   9.084   4.026  2.2161  1.5081 -4.0959
  406MOL0     H53545   9.037   9.158   3.681  2.8978 -1.5855  0.0900
  406MOL0     H53546   9.198   9.302   3.514  4.0574  2.2899 -3.0912
  406MOL0     H53547   9.314   9.397   3.600 -0.4985  0.0173 -0.8056
  406MOL0     H53548   9.208   9.557   3.478  1.8570 -2.4717 -0.0996
  406MOL0     H53549   9.124   9.570   3.629  4.6050 -2.8237  4.4605
  406MOL0     H53550   8.920   9.449   3.549 -0.3978  0.4027  2.1341
  406MOL0     H53551   8.976   9.592   3.460  1.9999 -1.4764 -1.2092
  406MOL0     H53552   9.077   9.440   3.288 -1.0032 -2.6856 -2.0232
  406MOL0     H53553   8.902   9.437   3.302  1.5294 -0.5947 -2.3119
  406MOL0     H53554   9.008   9.004   3.371  0.3138 -1.0711 -1.3291
  406MOL0     H53555   8.855   8.844   3.241 -0.0594 -0.0445 -4.1371
  406MOL0     H53556   8.620   8.771   2.853  0.3638  0.2295 -1.4489
  406MOL0     H53557   8.451   8.604   2.774  0.3145  0.8880  0.5066
  406MOL0     H53558   8.008   8.536   2.724 -0.9784 -0.2311  0.3935
  406MOL0     H53559   8.001   8.681   2.821  3.0321  1.3925 -0.5147
  406MOL0     H53560   8.103   8.403   2.912  1.2219  0.7048  0.4803
  406MOL0     H53561   7.938   8.460   2.934 -1.5571  3.7776  1.8116
  406MOL0     H53562   8.192   8.564   3.076 -0.7088  1.3312 -1.2252
  406MOL0     H53563   8.063   8.455   3.135  0.0717 -1.1828  0.2371
  406MOL0     H53564   7.975   8.724   3.027 -1.8870  0.0768  0.2044
  406MOL0     H53565   7.913   8.624   3.161  0.1289 -0.9946 -2.2217
  406MOL0     H53566   8.030   8.834   3.232  1.2885  0.2980  2.7114
  406MOL0     H53567   8.176   8.792   3.172  0.3839  0.8559  1.1573
  406MOL0     H53568   8.162   8.559   3.324 -1.8491 -2.0685  3.4218
  406MOL0     H53569   8.036   8.634   3.403  0.1115 -0.9492 -0.2445
  406MOL0     H53570   8.263   8.685   3.497 -1.5291  2.8076  3.7983
  406MOL0     H53571   8.290   8.789   3.358  0.6167 -0.7885  0.3879
  406MOL0     H53572   8.046   8.808   3.545 -0.0054  0.5439 -0.0265
  406MOL0     H53573   8.076   8.904   3.412 -5.0457 -5.0500 -0.9354
  406MOL0     H53574   8.133   8.823   2.952  1.0702 -0.5734  0.6158
  406MOL0     H53575   8.303   8.955   3.066 -2.0129 -1.6169  0.8983
  406MOL0     H53576   8.642   9.187   3.088  1.0487 -0.1164 -2.3632
  406MOL0     H53577   8.782   9.333   3.187  0.3288 -0.4143 -1.3168
  406MOL0     H53578   8.935   9.533   4.810  0.2350  0.7465  0.6183
  406MOL0     H53579   8.938   9.746   4.954  1.0949 -2.3755 -0.6760
  406MOL0     H53580   9.007  10.194   5.154  0.3922 -0.7904  0.1700
  406MOL0     H53581   8.950  10.382   5.258  0.8447 -1.1169  0.8204
  406MOL0     H53582   8.775  10.603   5.451  1.1032 -0.7071  1.4791
  406MOL0     H53583   8.899  10.486   5.427  2.2625  4.7654  2.9419
  406MOL0     H53584   8.856  10.501   5.660  1.8651 -0.7253 -0.7094
  406MOL0     H53585   8.689  10.462   5.637  0.2988 -2.0578  0.0659
  406MOL0     H53586   8.870  10.235   5.567  2.0608  2.6316  0.6345
  406MOL0     H53587   8.694  10.251   5.555 -1.2590 -0.0591  0.3632
  406MOL0     H53588   8.759  10.129   5.750 -1.4544  0.0695 -0.8458
  406MOL0     H53589   8.876  10.263   5.798  0.2200  1.2378 -1.3018
  406MOL0     H53590   8.547  10.422   5.991 -0.1302 -0.9557  1.2852
  406MOL0     H53591   8.541  10.289   5.235  0.9954  1.7373  0.7128
  406MOL0     H53592   8.575  10.124   5.058 -2.8152  3.3145  0.1236
  407MOL0     O53593   9.591   2.895   1.473 -0.7892 -0.1541  0.0202
  407MOL0     C53594   9.543   2.840   1.371 -0.3611 -0.4303  0.3446
  407MOL0     O53595   9.613   2.817   1.250 -0.6810  1.3176  0.4918
  407MOL0     C53596   9.747   2.823   1.242 -0.4161  0.9712 -0.2827
  407MOL0     C53597   9.838   2.826   1.340 -0.1540 -0.2186 -0.1343
  407MOL0     C53598   9.971   2.820   1.312  0.3089 -0.8720  0.0325
  407MOL0     C53599  10.012   2.804   1.180 -0.2338  0.0184 -0.5411
  407MOL0     O53600  10.145   2.788   1.159 -0.3500  0.4879 -0.2203
  407MOL0     C53601  10.222   2.904   1.189  0.3131  0.2981 -0.4805
  407MOL0     C53602  10.370   2.883   1.177 -0.3958  0.2030 -0.1871
  407MOL0     C53603  10.418   2.874   1.029  0.4407  0.9203  1.5925
  407MOL0     C53604  10.555   2.823   1.016  1.0149 -0.9826  0.3066
  407MOL0     C53605  10.648   2.935   1.069  0.4721  0.2932  0.2711
  407MOL0     C53606  10.724   2.893   1.200  0.3182 -0.5141  0.0701
  407MOL0     C53607  10.851   2.797   1.173 -0.2222 -0.4165  0.3564
  407MOL0     C53608  10.950   2.834   1.065 -0.2941 -0.7867  0.3571
  407MOL0     N53609  10.986   2.981   1.080 -0.6487  0.4550  0.3970
  407MOL0     C53610  11.052   3.027   1.187  0.3834  0.3471  0.1040
  407MOL0     C53611  11.077   3.152   1.169  0.2875  0.1423  0.2481
  407MOL0     C53612  11.145   3.242   1.266 -1.2363 -0.5603  0.2459
  407MOL0     C53613  11.291   3.282   1.247  0.2592  1.5911  0.0716
  407MOL0     C53614  11.323   3.405   1.325  0.3786 -0.5919  0.4963
  407MOL0     C53615  11.473   3.428   1.332  0.4935  0.4448 -0.0368
  407MOL0     O53616  11.536   3.329   1.415  1.1012  0.5621  0.3935
  407MOL0     C53617  11.676   3.348   1.398 -0.2349  0.2938  0.3670
  407MOL0     C53618  11.760   3.434   1.474 -0.6139 -0.6823  0.0414
  407MOL0     C53619  11.895   3.450   1.434  0.1481 -0.4739 -0.0003
  407MOL0     C53620  11.957   3.365   1.342 -0.1456  0.7663  0.6181
  407MOL0     C53621  12.105   3.363   1.322 -0.4717  0.2365 -0.2791
  407MOL0     O53622  12.173   3.425   1.424  0.5402 -0.6827  0.6302
  407MOL0     C53623  12.302   3.407   1.453 -0.7275  0.4805 -0.2124
  407MOL0     C53624  12.395   3.318   1.395  0.1770 -0.4053 -0.6477
  407MOL0     C53625  12.524   3.307   1.444 -0.6123 -0.0408 -0.1155
  407MOL0     C53626  12.568   3.376   1.565  0.1095 -0.3831 -0.6547
  407MOL0     O53627  12.694   3.366   1.618  0.7267 -0.9575  1.0695
  407MOL0     C53628  12.797   3.325   1.535 -0.1242 -0.5250  0.0411
  407MOL0     C53629  12.836   3.174   1.551  0.8176 -0.9197  0.3655
  407MOL0     C53630  12.882   3.151   1.697 -0.5200 -0.6384  0.0734
  407MOL0     C53631  12.917   2.999   1.726 -0.3190 -1.1356  0.1815
  407MOL0     C53632  13.057   2.976   1.653  0.1384 -0.0742  0.2289
  407MOL0     C53633  13.162   2.946   1.752  0.2083  0.4471 -0.2559
  407MOL0     C53634  13.309   2.959   1.701 -0.0350 -0.9639  0.1659
  407MOL0     C53635  13.344   3.109   1.662 -0.1963 -0.5100 -0.4039
  407MOL0    Cl53636  13.506   3.105   1.590 -0.8512 -0.4186  0.3679
  407MOL0     C53637  12.474   3.458   1.624 -0.2890  0.4716 -0.2376
  407MOL0     C53638  12.356   3.481   1.557  0.8149 -0.8487 -0.3488
  407MOL0     O53639  12.153   3.304   1.229 -0.3558  1.0329  0.0137
  407MOL0     C53640  11.874   3.284   1.273 -0.7601  0.6835  0.7602
  407MOL0     C53641  11.738   3.266   1.303 -0.2506 -0.7463  0.7818
  407MOL0     N53642  11.016   3.194   1.054 -0.4671  0.9247 -0.4587
  407MOL0     N53643  10.964   3.087   0.996  0.2324  0.4154  0.6989
  407MOL0     C53644   9.922   2.796   1.080 -0.4700  0.5596  0.7145
  407MOL0     C53645   9.791   2.813   1.111  0.2215  0.2315  0.1871
  407MOL0     C53646   9.395   2.817   1.372  0.1840  0.2163 -0.4463
  407MOL0     C53647   9.332   2.752   1.268  0.1613 -0.2014 -0.0465
  407MOL0     C53648   9.195   2.717   1.264 -0.4260  0.4755 -0.0384
  407MOL0     C53649   9.120   2.756   1.378 -0.4142  0.4950  0.3340
  407MOL0     O53650   8.992   2.711   1.388 -0.2824 -0.3006  0.0864
  407MOL0     C53651   8.883   2.804   1.405  0.1763  0.5079  0.1865
  407MOL0     C53652   8.774   2.777   1.497 -0.5430  0.2199 -0.3581
  407MOL0     C53653   8.806   2.712   1.631  0.0948  0.4983 -0.5196
  407MOL0     C53654   8.676   2.669   1.698  0.4735  0.3801  0.3324
  407MOL0     C53655   8.699   2.592   1.819  1.5186  0.7145 -0.9020
  407MOL0     C53656   8.730   2.528   1.915  0.3241  0.4099  0.0387
  407MOL0     C53657   9.169   2.831   1.480 -0.4082  0.6871  0.0441
  407MOL0     C53658   9.309   2.864   1.479  0.5348  0.1883 -0.2595
  407MOL0     H53659   9.804   2.850   1.440 -1.3165  1.5340 -0.9024
  407MOL0     H53660  10.038   2.806   1.396  0.4162 -2.0699 -0.2423
  407MOL0     H53661  10.205   2.927   1.294 -0.1555  4.0258 -1.2460
  407MOL0     H53662  10.189   2.987   1.126  1.9138 -0.0380 -1.8388
  407MOL0     H53663  10.402   2.798   1.237 -1.8097  0.6028  1.1899
  407MOL0     H53664  10.433   2.962   1.219  2.6056 -2.2331  0.2803
  407MOL0     H53665  10.393   2.959   0.965 -1.1389 -2.2596 -2.4480
  407MOL0     H53666  10.353   2.806   0.974  0.3210  1.2120  1.3695
  407MOL0     H53667  10.557   2.731   1.076 -0.7181 -2.0337 -1.1490
  407MOL0     H53668  10.571   2.804   0.910  1.8660  0.4380  0.1554
  407MOL0     H53669  10.597   3.029   1.092 -1.0381 -0.8824  2.0693
  407MOL0     H53670  10.718   2.957   0.988 -0.1423  1.3003 -0.0056
  407MOL0     H53671  10.658   2.842   1.270 -1.1229 -0.1513 -0.9733
  407MOL0     H53672  10.755   2.990   1.239 -1.9590  1.3387 -2.3945
  407MOL0     H53673  10.898   2.805   1.271 -4.5585  1.8951  2.5600
  407MOL0     H53674  10.817   2.695   1.151 -4.2785  0.5984  1.0996
  407MOL0     H53675  10.906   2.803   0.969 -1.1223 -0.6751  0.6926
  407MOL0     H53676  11.046   2.783   1.079  0.1178 -0.4730 -1.1664
  407MOL0     H53677  11.087   2.974   1.274 -0.2044 -2.3408 -1.2022
  407MOL0     H53678  11.138   3.207   1.369 -0.1552 -0.8395  0.2444
  407MOL0     H53679  11.089   3.335   1.260 -2.6887 -1.0558  3.7181
  407MOL0     H53680  11.313   3.294   1.140 -2.8209  1.9751 -0.6104
  407MOL0     H53681  11.355   3.206   1.292  0.3809  2.1315  0.8185
  407MOL0     H53682  11.283   3.488   1.267  0.3391 -2.1915 -1.8774
  407MOL0     H53683  11.278   3.412   1.425 -1.7573 -3.8127 -0.1205
  407MOL0     H53684  11.462   3.522   1.387 -2.3871 -0.4115  1.0684
  407MOL0     H53685  11.510   3.445   1.231  1.9135  2.6561  0.7916
  407MOL0     H53686  11.711   3.498   1.546 -4.3749  0.2709 -3.0163
  407MOL0     H53687  11.966   3.517   1.481 -0.2334 -1.6953  2.5197
  407MOL0     H53688  12.362   3.246   1.321  1.6784 -1.2399 -0.5604
  407MOL0     H53689  12.592   3.234   1.401 -2.4618  0.1895 -3.8129
  407MOL0     H53690  12.881   3.394   1.549 -2.1052  1.4472  3.9059
  407MOL0     H53691  12.781   3.348   1.429 -0.9193  1.5642  0.5674
  407MOL0     H53692  12.915   3.152   1.478  0.4319 -1.7919  0.1926
  407MOL0     H53693  12.739   3.126   1.535 -0.1562  0.6878  1.1910
  407MOL0     H53694  12.801   3.163   1.770  0.0190 -0.6225  0.6812
  407MOL0     H53695  12.963   3.219   1.726 -3.6365  3.0215  0.9878
  407MOL0     H53696  12.919   2.985   1.834 -2.7174 -3.0506  0.0533
  407MOL0     H53697  12.839   2.937   1.682 -0.9311  1.1923 -2.3035
  407MOL0     H53698  13.088   3.048   1.577 -2.6670  0.4655 -0.5180
  407MOL0     H53699  13.028   2.892   1.590 -3.4161  1.3359 -0.2245
  407MOL0     H53700  13.140   2.846   1.788 -4.8602  1.0424 -0.9659
  407MOL0     H53701  13.157   3.008   1.842 -0.2049 -0.9105  0.6739
  407MOL0     H53702  13.383   2.935   1.778 -2.4070  0.6064  3.1614
  407MOL0     H53703  13.330   2.896   1.614  0.9909 -0.7676  0.2662
  407MOL0     H53704  13.333   3.186   1.739 -0.6004  0.9856 -1.8820
  407MOL0     H53705  13.273   3.129   1.581  1.1619  0.1872 -1.4657
  407MOL0     H53706  12.501   3.506   1.718  0.3793  1.4070 -0.8815
  407MOL0     H53707  12.286   3.553   1.598 -0.5641 -2.8842  1.1060
  407MOL0     H53708  11.929   3.225   1.200  0.2085 -1.0128  2.7477
  407MOL0     H53709  11.679   3.191   1.252  0.4100 -2.2489  2.1295
  407MOL0     H53710   9.950   2.786   0.976 -2.8259 -1.0413  0.1614
  407MOL0     H53711   9.714   2.805   1.035 -0.4277 -0.8615  0.9467
  407MOL0     H53712   9.398   2.698   1.201 -1.8551 -0.8804 -1.5807
  407MOL0     H53713   9.158   2.649   1.188 -0.0234 -2.7349  2.4116
  407MOL0     H53714   8.839   2.827   1.308 -1.6390 -0.6727  0.6921
  407MOL0     H53715   8.916   2.903   1.438  1.0954  0.1048  0.5087
  407MOL0     H53716   8.743   2.870   1.546  0.8163  1.6693 -2.0851
  407MOL0     H53717   8.693   2.734   1.436 -0.2544  1.2842 -1.5489
  407MOL0     H53718   8.861   2.789   1.686 -1.8208  0.9635  0.8790
  407MOL0     H53719   8.882   2.637   1.607  3.3211  3.9429 -2.0629
  407MOL0     H53720   8.621   2.761   1.721  0.3506  0.5324 -0.5227
  407MOL0     H53721   8.617   2.608   1.628  0.9663 -0.6960  0.8311
  407MOL0     H53722   8.778   2.496   2.006  2.0432  2.9865  0.1591
  407MOL0     H53723   9.103   2.861   1.561 -0.5214 -0.2075  0.2928
  407MOL0     H53724   9.334   2.927   1.564  0.0738 -2.3284  1.8787
  408MOL0     O53725   6.898   1.039   0.063 -0.3415  0.1243 -0.2376
  408MOL0     C53726   6.822   1.057   0.158  0.0792 -0.2789 -0.2396
  408MOL0     O53727   6.841   1.137   0.268 -0.4796 -0.7093 -0.2635
  408MOL0     C53728   6.953   1.218   0.255  0.5579 -0.1594  0.5555
  408MOL0     C53729   6.955   1.331   0.156 -0.0708 -0.1855 -0.9502
  408MOL0     C53730   7.064   1.420   0.150  0.6620 -0.5891 -0.5230
  408MOL0     C53731   7.174   1.393   0.222 -0.4638 -0.0726  0.0797
  408MOL0     O53732   7.287   1.467   0.218 -0.1792 -0.1154 -0.7995
  408MOL0     C53733   7.363   1.461   0.097  0.4309 -0.4111 -0.7328
  408MOL0     C53734   7.505   1.520   0.122  1.1621  0.2997 -0.3052
  408MOL0     C53735   7.504   1.667   0.155 -0.3782  0.5043 -0.3401
  408MOL0     C53736   7.649   1.726   0.137  0.2541 -0.4257 -0.1042
  408MOL0     C53737   7.671   1.852   0.222  0.7854 -0.7749 -0.8113
  408MOL0     C53738   7.750   1.961   0.153 -0.4015  0.2115  0.5002
  408MOL0     C53739   7.779   2.080   0.252  0.4603  0.5535 -1.0997
  408MOL0     C53740   7.931   2.079   0.297  0.4535  0.2533 -0.5481
  408MOL0     N53741   7.943   2.171   0.412 -0.1924 -0.0638 -0.6533
  408MOL0     C53742   7.928   2.308   0.408 -0.3445  0.0758  0.2481
  408MOL0     C53743   7.918   2.353   0.525 -0.2191  0.8698 -0.5555
  408MOL0     C53744   7.913   2.490   0.572 -0.0245 -1.2074  0.9373
  408MOL0     C53745   7.775   2.569   0.563 -0.7984 -0.5874  0.7222
  408MOL0     C53746   7.672   2.485   0.631  0.5694  0.3428  0.1791
  408MOL0     C53747   7.698   2.473   0.783  0.1374  0.3043 -0.3183
  408MOL0     O53748   7.729   2.595   0.844 -0.1487 -1.0121 -0.3163
  408MOL0     C53749   7.810   2.584   0.952 -1.2271 -0.0826  0.1184
  408MOL0     C53750   7.878   2.702   0.996  0.1989 -0.0314 -0.0020
  408MOL0     C53751   7.956   2.710   1.116  0.1062 -0.1228  0.1826
  408MOL0     C53752   7.967   2.592   1.191 -0.0504  0.0010 -0.5850
  408MOL0     C53753   8.047   2.589   1.319  0.1308 -0.2426  0.5089
  408MOL0     O53754   8.042   2.478   1.391 -0.5673 -0.2070 -0.1073
  408MOL0     C53755   8.121   2.482   1.506 -1.0148 -0.1897  0.1601
  408MOL0     C53756   8.248   2.541   1.518  0.2253  1.1589  0.0921
  408MOL0     C53757   8.332   2.514   1.632  0.2504 -0.1418 -0.0968
  408MOL0     C53758   8.282   2.429   1.733  0.1937  0.0247  0.0917
  408MOL0     O53759   8.360   2.419   1.848 -0.6369 -0.5135  0.1627
  408MOL0     C53760   8.346   2.333   1.958  0.0320  0.0910 -0.0002
  408MOL0     C53761   8.445   2.347   2.077  0.4799 -0.6661 -0.8280
  408MOL0     C53762   8.410   2.244   2.170 -0.2634  0.8325  0.6150
  408MOL0     C53763   8.508   2.218   2.285  0.3202 -0.4061 -0.0379
  408MOL0     C53764   8.489   2.076   2.357  1.0809  0.0410  0.1786
  408MOL0     C53765   8.376   2.074   2.471 -0.6680 -0.5722  1.0374
  408MOL0     C53766   8.415   1.951   2.555  0.2681 -0.1556 -0.3993
  408MOL0     C53767   8.312   1.915   2.665  0.6111 -0.7931  0.1384
  408MOL0    Cl53768   8.146   1.877   2.609 -0.2874 -0.1967  0.3197
  408MOL0     C53769   8.152   2.378   1.726 -0.1835  0.2730  0.4312
  408MOL0     C53770   8.077   2.402   1.612 -0.3197 -1.4472  1.3182
  408MOL0     O53771   8.102   2.695   1.345 -0.4597 -0.3179  0.0008
  408MOL0     C53772   7.900   2.476   1.149 -0.9966  0.1628 -0.1594
  408MOL0     C53773   7.825   2.470   1.034  0.0456  0.5053 -1.0654
  408MOL0     N53774   7.928   2.245   0.608  0.3515  0.0916 -0.2035
  408MOL0     N53775   7.934   2.134   0.540  0.0579  0.4220  0.0658
  408MOL0     C53776   7.173   1.288   0.317 -0.0917  0.3695  0.8452
  408MOL0     C53777   7.061   1.203   0.336  0.5375  0.1135  1.0552
  408MOL0     C53778   6.691   1.004   0.134 -0.0826  0.1541 -0.8418
  408MOL0     C53779   6.590   1.022   0.237 -0.3967  0.2785 -0.1501
  408MOL0     C53780   6.460   0.981   0.230 -0.0019 -0.5407  0.5057
  408MOL0     C53781   6.418   0.909   0.113 -0.5972 -0.3472  0.3076
  408MOL0     O53782   6.284   0.871   0.096  0.0950  0.2027 -0.0906
  408MOL0     C53783   6.268   0.735   0.142 -0.3737  0.3800  0.0512
  408MOL0     C53784   6.122   0.717   0.168  0.4422 -0.5003 -0.7487
  408MOL0     C53785   6.029   0.722   0.047 -0.4525 -0.0312  0.3300
  408MOL0     C53786   6.016   0.582   0.006 -0.8059  0.4122 -1.1685
  408MOL0     C53787   6.106   0.534  -0.104 -0.2257  0.0830 -0.5595
  408MOL0     C53788   6.167   0.496  -0.203 -0.3676  1.1468  0.1176
  408MOL0     C53789   6.515   0.881   0.014 -0.7371  0.0941 -0.0302
  408MOL0     C53790   6.643   0.933   0.024  0.4076 -0.0442 -0.2757
  408MOL0     H53791   6.865   1.361   0.103  0.2798  3.7371  0.3524
  408MOL0     H53792   7.063   1.504   0.082  0.2212 -0.3332 -0.2053
  408MOL0     H53793   7.307   1.522   0.026 -0.6267 -0.0242  0.4094
  408MOL0     H53794   7.374   1.360   0.055 -0.3680 -0.5353 -0.6416
  408MOL0     H53795   7.554   1.511   0.025  1.9825  1.1011  0.0219
  408MOL0     H53796   7.565   1.472   0.201  2.1485 -0.6246 -1.5758
  408MOL0     H53797   7.474   1.684   0.259  0.5516 -1.2600  0.2562
  408MOL0     H53798   7.448   1.725   0.081  2.0663 -0.2839 -2.9739
  408MOL0     H53799   7.718   1.664   0.194  1.9546  4.2603  3.6343
  408MOL0     H53800   7.672   1.741   0.031  0.5208 -1.2400 -0.1711
  408MOL0     H53801   7.722   1.834   0.317  0.0313 -2.0412 -0.6167
  408MOL0     H53802   7.576   1.899   0.251  1.9135 -0.3484  2.6523
  408MOL0     H53803   7.688   1.994   0.069  0.0358 -0.3527 -0.0549
  408MOL0     H53804   7.849   1.930   0.120 -1.8577  0.7050 -5.4320
  408MOL0     H53805   7.753   2.171   0.197 -4.1904  0.3455  0.3298
  408MOL0     H53806   7.715   2.081   0.340 -0.9661 -0.8621 -2.0612
  408MOL0     H53807   7.992   2.126   0.219 -1.4893  0.8495 -1.7922
  408MOL0     H53808   7.956   1.979   0.334  0.0330  0.9303  1.7232
  408MOL0     H53809   7.932   2.370   0.319  2.6009  1.2195  1.0689
  408MOL0     H53810   7.980   2.554   0.514 -1.8212  1.2549  1.4469
  408MOL0     H53811   7.957   2.481   0.672 -2.3995 -1.0206  2.0808
  408MOL0     H53812   7.740   2.578   0.460  1.8106 -1.0350 -0.2805
  408MOL0     H53813   7.779   2.667   0.610 -2.2806  0.0869 -0.4649
  408MOL0     H53814   7.577   2.540   0.621  0.4434  0.1494  0.3126
  408MOL0     H53815   7.664   2.390   0.578  0.5471 -1.0731  2.6248
  408MOL0     H53816   7.776   2.397   0.797 -3.4831 -3.2502  3.2492
  408MOL0     H53817   7.607   2.433   0.829 -0.5283 -0.3805 -2.1435
  408MOL0     H53818   7.868   2.790   0.934 -0.5972 -0.4303 -0.4460
  408MOL0     H53819   7.989   2.808   1.151 -0.4113 -0.9875  3.4251
  408MOL0     H53820   8.299   2.594   1.438 -0.2356 -2.0046 -2.4854
  408MOL0     H53821   8.429   2.561   1.646 -1.3138  2.9558  1.2914
  408MOL0     H53822   8.341   2.229   1.925  1.1922  0.7144 -2.3898
  408MOL0     H53823   8.251   2.368   1.998 -0.3212  0.3356 -1.0219
  408MOL0     H53824   8.419   2.442   2.126 -0.9866 -1.0038 -0.9052
  408MOL0     H53825   8.553   2.334   2.071  1.7406  3.0283  5.0714
  408MOL0     H53826   8.392   2.151   2.115 -0.0370  1.3640 -0.3921
  408MOL0     H53827   8.311   2.260   2.214 -1.6389 -1.1688 -1.5400
  408MOL0     H53828   8.608   2.223   2.243  0.3034  1.5769  0.0912
  408MOL0     H53829   8.495   2.304   2.351 -3.2287  0.0924 -1.1819
  408MOL0     H53830   8.587   2.059   2.403  1.0216 -0.7032  0.0450
  408MOL0     H53831   8.472   2.000   2.280  1.2202 -0.5356  0.7026
  408MOL0     H53832   8.274   2.067   2.432  0.3541 -2.6686 -1.5214
  408MOL0     H53833   8.381   2.171   2.522 -2.3899 -0.4457  1.0222
  408MOL0     H53834   8.416   1.864   2.488  4.2195  0.6606 -1.6889
  408MOL0     H53835   8.511   1.977   2.601 -0.3542  0.5588  0.5210
  408MOL0     H53836   8.305   2.005   2.727  0.0400 -0.7464  0.0114
  408MOL0     H53837   8.360   1.840   2.729  0.8572  1.1484  2.3853
  408MOL0     H53838   8.104   2.340   1.816  1.4065  2.6044  2.4044
  408MOL0     H53839   7.970   2.385   1.605 -0.4084 -0.2270 -1.4521
  408MOL0     H53840   7.903   2.394   1.220  0.6021 -0.0003 -0.3760
  408MOL0     H53841   7.780   2.373   1.015 -0.1801 -0.4831  3.4186
  408MOL0     H53842   7.252   1.298   0.390  2.5494 -2.4529 -1.3977
  408MOL0     H53843   7.052   1.111   0.393  0.0869 -0.7787 -0.4000
  408MOL0     H53844   6.625   1.084   0.320 -0.5188 -0.6582  0.6105
  408MOL0     H53845   6.384   1.017   0.298  1.3213  0.9682  1.2425
  408MOL0     H53846   6.310   0.714   0.241 -0.8011  1.7957  0.5506
  408MOL0     H53847   6.298   0.665   0.063 -1.1079 -1.5685  1.4182
  408MOL0     H53848   6.119   0.624   0.224 -1.7803  0.4242  0.8327
  408MOL0     H53849   6.095   0.792   0.243  0.9371 -1.7763  0.7421
  408MOL0     H53850   6.071   0.781  -0.035 -1.5366 -0.0508 -0.2656
  408MOL0     H53851   5.927   0.758   0.067  0.0880  1.2898  0.8095
  408MOL0     H53852   6.035   0.513   0.088 -0.8146  2.9698  1.1517
  408MOL0     H53853   5.917   0.565  -0.037 -0.7267 -0.3164 -1.0747
  408MOL0     H53854   6.239   0.473  -0.279  0.2113 -0.0324  0.9832
  408MOL0     H53855   6.485   0.813  -0.066 -3.8242  1.4142 -0.1378
  408MOL0     H53856   6.726   0.918  -0.045  1.1495 -0.6558  0.7281
  409MOL0     O53857   9.837  10.048   8.357  0.2861  0.0698  0.6512
  409MOL0     C53858   9.857  10.164   8.363 -0.5277 -1.1009  0.0668
  409MOL0     O53859   9.957  10.224   8.444  1.0723  0.5080  0.2214
  409MOL0     C53860  10.017  10.131   8.528  0.2075 -0.5705 -0.9359
  409MOL0     C53861  10.125  10.058   8.492  0.2824 -0.7336 -0.3231
  409MOL0     C53862  10.198   9.986   8.585 -0.0283  0.7356 -0.2546
  409MOL0     C53863  10.152   9.977   8.720  0.0672  0.3226  0.0828
  409MOL0     O53864  10.214   9.903   8.819  0.2204 -0.2179 -0.0641
  409MOL0     C53865  10.358   9.894   8.802  1.1680  0.2468 -0.2086
  409MOL0     C53866  10.418   9.825   8.926  0.4333 -0.2307  0.8221
  409MOL0     C53867  10.571   9.807   8.899  0.0004 -1.1108  0.1590
  409MOL0     C53868  10.634   9.724   9.007 -0.3135  0.3493  1.1251
  409MOL0     C53869  10.782   9.757   9.030 -0.3635  0.0361  0.2379
  409MOL0     C53870  10.871   9.728   8.908  0.9474 -0.8130 -0.2334
  409MOL0     C53871  11.016   9.761   8.922  0.4114 -0.9470 -1.3097
  409MOL0     C53872  11.051   9.910   8.945 -1.0072  0.6523  0.9879
  409MOL0     N53873  10.999  10.004   8.838  0.7693  0.8158 -0.1397
  409MOL0     C53874  11.037   9.994   8.710  0.3816 -1.0950  0.1010
  409MOL0     C53875  10.950  10.058   8.632 -0.2081 -0.5355  0.0402
  409MOL0     C53876  10.966  10.093   8.480 -0.9084  0.2152 -0.0212
  409MOL0     C53877  11.071  10.195   8.476  0.1742 -0.0392 -0.2974
  409MOL0     C53878  11.103  10.243   8.334 -0.0509 -0.2356 -0.5336
  409MOL0     C53879  10.987  10.304   8.253 -0.1459  0.1963 -0.1635
  409MOL0     O53880  11.040  10.396   8.160 -0.6779  0.2723 -1.0432
  409MOL0     C53881  11.082  10.345   8.043 -0.1732 -0.1293  0.5221
  409MOL0     C53882  10.993  10.344   7.938  0.3883  0.2805 -0.1174
  409MOL0     C53883  11.024  10.287   7.816 -0.5889  0.4492 -0.8375
  409MOL0     C53884  11.153  10.223   7.807  0.1528 -0.2080  0.1151
  409MOL0     C53885  11.177  10.126   7.685  0.4736  0.0355 -0.2350
  409MOL0     O53886  11.278  10.027   7.704  0.0238 -0.1215  0.8228
  409MOL0     C53887  11.287   9.906   7.630  0.2311 -0.7993  0.6847
  409MOL0     C53888  11.185   9.861   7.551  0.0982  0.1087 -0.7309
  409MOL0     C53889  11.177   9.732   7.495 -0.1940  1.0187  0.8020
  409MOL0     C53890  11.283   9.640   7.519 -0.5653  0.6496  0.2051
  409MOL0     O53891  11.289   9.507   7.461 -0.8182 -0.2147 -0.8995
  409MOL0     C53892  11.170   9.461   7.397 -0.0715  0.3278 -1.1095
  409MOL0     C53893  11.213   9.330   7.321  0.1743  0.6631  0.0006
  409MOL0     C53894  11.182   9.335   7.163  0.6627  0.5258 -0.8719
  409MOL0     C53895  11.228   9.206   7.091  0.2706  1.0548 -0.2607
  409MOL0     C53896  11.196   9.212   6.935  0.0615 -0.0335 -0.3449
  409MOL0     C53897  11.218   9.082   6.851 -0.6515 -0.5453 -1.0808
  409MOL0     C53898  11.368   9.056   6.847 -0.5593  0.1280  0.0354
  409MOL0     C53899  11.403   8.933   6.764 -0.2723  0.0951 -0.0031
  409MOL0    Cl53900  11.337   8.944   6.594  0.4794  0.6847  0.0050
  409MOL0     C53901  11.394   9.690   7.586  0.1561  0.2714 -0.2221
  409MOL0     C53902  11.397   9.818   7.640  0.8885 -0.1230  0.8800
  409MOL0     O53903  11.108  10.140   7.587  0.3072 -0.1031 -0.0541
  409MOL0     C53904  11.249  10.232   7.902  0.2596  0.8318 -0.1777
  409MOL0     C53905  11.216  10.299   8.022  0.2962 -0.5373  0.8466
  409MOL0     N53906  10.843  10.087   8.719  1.2453  0.8444 -0.2210
  409MOL0     N53907  10.876  10.056   8.840  0.0089 -0.4667 -0.1824
  409MOL0     C53908  10.038  10.041   8.756 -0.6509 -0.6422  0.3710
  409MOL0     C53909   9.978  10.135   8.668 -0.0478  0.2984  0.0013
  409MOL0     C53910   9.793  10.258   8.261 -0.2792 -0.4572 -0.1837
  409MOL0     C53911   9.669  10.221   8.212 -0.1069 -0.3992 -0.4965
  409MOL0     C53912   9.602  10.300   8.124  0.2247  0.9385 -0.1902
  409MOL0     C53913   9.667  10.415   8.076  0.2858 -0.2559  0.2344
  409MOL0     O53914   9.606  10.509   7.985 -0.7135  0.0904  0.1509
  409MOL0     C53915   9.478  10.487   7.929  0.4553 -0.2717  0.2291
  409MOL0     C53916   9.498  10.397   7.802  0.1048  0.6586 -0.1606
  409MOL0     C53917   9.558  10.478   7.688  0.2392 -0.2645  0.0603
  409MOL0     C53918   9.641  10.392   7.581  0.9194  0.3360  0.2538
  409MOL0     C53919   9.564  10.274   7.547  0.1428  0.3449 -0.0912
  409MOL0     C53920   9.483  10.190   7.508  0.8061 -1.3308 -0.1683
  409MOL0     C53921   9.794  10.444   8.123 -0.4657 -0.0892 -0.1472
  409MOL0     C53922   9.860  10.366   8.219  0.1549 -0.3674  1.3318
  409MOL0     H53923  10.155  10.060   8.387  0.3036 -1.1475 -0.3245
  409MOL0     H53924  10.270   9.914   8.548 -0.6486  0.4048 -0.8470
  409MOL0     H53925  10.392   9.998   8.801  0.2124  0.5654 -1.6670
  409MOL0     H53926  10.392   9.839   8.714  0.3268  0.4198 -0.6440
  409MOL0     H53927  10.383   9.722   8.939  0.8698 -0.1540  3.0355
  409MOL0     H53928  10.404   9.875   9.023  1.7055 -1.3566  1.6277
  409MOL0     H53929  10.622   9.903   8.891 -0.1548 -0.6672  3.3359
  409MOL0     H53930  10.575   9.756   8.802 -3.0398 -0.9636 -0.1534
  409MOL0     H53931  10.578   9.744   9.098 -1.5040 -1.1564  0.7642
  409MOL0     H53932  10.626   9.617   8.985  0.7005  0.7099 -1.3383
  409MOL0     H53933  10.821   9.692   9.109  1.8789 -2.2048 -2.4330
  409MOL0     H53934  10.789   9.864   9.048 -1.8581  0.0864  0.6384
  409MOL0     H53935  10.837   9.788   8.824 -1.7442  3.6170  3.5227
  409MOL0     H53936  10.861   9.626   8.872  0.5520 -0.3517 -1.4529
  409MOL0     H53937  11.063   9.691   8.992 -1.7336  1.0066  2.3995
  409MOL0     H53938  11.055   9.744   8.821  2.4441 -1.3017 -0.4957
  409MOL0     H53939  11.161   9.916   8.940 -0.7942 -2.4466 -1.5611
  409MOL0     H53940  11.025   9.936   9.048 -1.0057 -1.5190  1.5985
  409MOL0     H53941  11.133   9.958   8.673  1.6695  1.1103  1.0582
  409MOL0     H53942  10.868  10.128   8.446 -1.2800 -0.1700  0.6176
  409MOL0     H53943  10.987   9.999   8.427  0.6263  1.4986 -1.8214
  409MOL0     H53944  11.171  10.166   8.511  0.1271  1.0374  0.7988
  409MOL0     H53945  11.039  10.287   8.527  1.4919  0.1185  0.2959
  409MOL0     H53946  11.183  10.318   8.338 -1.7980  1.7716 -1.2201
  409MOL0     H53947  11.147  10.169   8.267  5.1005  0.6724  1.3921
  409MOL0     H53948  10.919  10.356   8.322  0.4036 -0.6947  1.1029
  409MOL0     H53949  10.924  10.230   8.203 -4.1853  1.8521  1.9827
  409MOL0     H53950  10.897  10.393   7.948 -1.4418 -3.3357  2.3572
  409MOL0     H53951  10.958  10.270   7.731  1.2247 -3.9733 -1.6478
  409MOL0     H53952  11.102   9.930   7.536  0.2702 -0.3432 -4.7252
  409MOL0     H53953  11.090   9.713   7.433  1.6728 -0.1743 -1.6348
  409MOL0     H53954  11.111   9.527   7.333  1.2377  2.3894 -0.3068
  409MOL0     H53955  11.102   9.450   7.482  1.0924 -0.1418 -0.1960
  409MOL0     H53956  11.162   9.242   7.361 -2.8057  1.5744 -1.4865
  409MOL0     H53957  11.322   9.326   7.337 -0.1070 -0.3510  1.9406
  409MOL0     H53958  11.229   9.422   7.117  2.1881 -0.0370 -0.4533
  409MOL0     H53959  11.073   9.343   7.157  0.4533 -0.8875  0.4122
  409MOL0     H53960  11.336   9.192   7.094 -0.0124 -1.4962  2.5430
  409MOL0     H53961  11.179   9.126   7.147 -1.1918  1.7700 -0.4838
  409MOL0     H53962  11.264   9.285   6.888  1.8935 -0.5126  1.4460
  409MOL0     H53963  11.096   9.257   6.930 -0.0923 -0.3911 -0.4964
  409MOL0     H53964  11.175   9.088   6.751 -2.0015 -2.1157 -0.6356
  409MOL0     H53965  11.166   9.006   6.910 -3.3831  2.6658  1.0509
  409MOL0     H53966  11.420   9.144   6.809 -0.2637  0.3827  1.0004
  409MOL0     H53967  11.402   9.033   6.948  3.2264  2.9404 -0.3818
  409MOL0     H53968  11.356   8.844   6.806 -1.7888  0.7971 -0.1397
  409MOL0     H53969  11.510   8.915   6.754  0.1089  2.3295 -0.4904
  409MOL0     H53970  11.482   9.632   7.613  0.7676  1.1740 -0.2401
  409MOL0     H53971  11.479   9.866   7.693 -0.3866  5.6123 -1.5499
  409MOL0     H53972  11.348  10.188   7.894  0.2787  1.2230 -4.1015
  409MOL0     H53973  11.296  10.314   8.095 -1.4460  0.4622  2.6556
  409MOL0     H53974  10.005  10.034   8.859  3.0790  2.8595  2.0973
  409MOL0     H53975   9.894  10.196   8.699 -0.3622 -0.2084  0.1531
  409MOL0     H53976   9.624  10.122   8.222 -1.5403  0.0958 -1.6017
  409MOL0     H53977   9.498  10.269   8.116  0.6651 -0.5581 -0.5304
  409MOL0     H53978   9.419  10.575   7.906  0.5561 -0.0517  0.8210
  409MOL0     H53979   9.421  10.427   7.999  0.1367 -1.1235 -0.7270
  409MOL0     H53980   9.554  10.307   7.826 -1.0194 -0.0812 -0.2598
  409MOL0     H53981   9.399  10.359   7.777  0.0160  0.4284  0.5322
  409MOL0     H53982   9.610  10.561   7.736 -1.1057  3.7798 -4.6719
  409MOL0     H53983   9.477  10.521   7.630  1.1085 -0.8832 -1.6793
  409MOL0     H53984   9.657  10.454   7.492  0.3659  1.0706  0.6567
  409MOL0     H53985   9.745  10.382   7.615  1.4453  2.8115 -0.3900
  409MOL0     H53986   9.420  10.113   7.469 -0.4253 -0.6032  0.3211
  409MOL0     H53987   9.835  10.540   8.093 -1.0301  0.3422  0.4324
  409MOL0     H53988   9.957  10.387   8.263 -0.6953 -0.7006  3.4918
  410MOL0     O53989  11.001   5.992   2.039 -0.9975 -0.1125 -0.4421
  410MOL0     C53990  10.944   5.946   2.135 -0.1783  0.0610  0.0203
  410MOL0     O53991  10.823   5.947   2.151  0.5890  0.4525  0.0009
  410MOL0     C53992  10.749   5.959   2.038 -0.7358 -0.8479  1.0524
  410MOL0     C53993  10.720   6.091   1.986  0.0434  0.6740 -0.8232
  410MOL0     C53994  10.662   6.116   1.861  0.0003 -0.0623  0.1362
  410MOL0     C53995  10.628   6.006   1.775 -0.7528  0.2613  0.2922
  410MOL0     O53996  10.552   6.028   1.656  0.1095 -0.5091  0.0161
  410MOL0     C53997  10.580   5.947   1.535 -0.2303  0.4955 -0.5848
  410MOL0     C53998  10.495   6.008   1.413 -0.1995 -0.1512 -0.4568
  410MOL0     C53999  10.518   5.920   1.294 -0.3714 -0.7133 -0.2484
  410MOL0     C54000  10.424   5.965   1.187 -1.0267 -0.0539 -0.2399
  410MOL0     C54001  10.427   5.881   1.059 -1.0380  0.3038 -0.0744
  410MOL0     C54002  10.332   5.944   0.962 -0.4621  0.1092 -0.4829
  410MOL0     C54003  10.362   5.879   0.820  0.0888  0.0982 -0.5362
  410MOL0     C54004  10.507   5.909   0.771 -0.2703 -0.5616 -0.6223
  410MOL0     N54005  10.515   5.892   0.626 -0.1295  0.0118 -0.1790
  410MOL0     C54006  10.431   5.959   0.538 -0.4425  0.3113 -0.0653
  410MOL0     C54007  10.473   5.917   0.421 -0.4960  0.4446  0.4797
  410MOL0     C54008  10.425   5.961   0.286 -0.2800 -0.2265 -0.0597
  410MOL0     C54009  10.484   6.101   0.260  0.1579 -0.0569 -0.6241
  410MOL0     C54010  10.434   6.168   0.136 -0.0706 -0.3780  0.1711
  410MOL0     C54011  10.435   6.321   0.134  0.2028 -1.4763 -0.2751
  410MOL0     O54012  10.339   6.384   0.225  0.2293  0.6530  0.1971
  410MOL0     C54013  10.271   6.498   0.180 -0.0392  0.8084 -0.0147
  410MOL0     C54014  10.338   6.605   0.119  0.9372  0.3697  0.7109
  410MOL0     C54015  10.273   6.730   0.093  0.2303 -0.0933 -0.1738
  410MOL0     C54016  10.131   6.739   0.097  0.0989 -0.0688  0.9877
  410MOL0     C54017  10.056   6.868   0.065 -1.1729  0.1281  0.0001
  410MOL0     O54018   9.920   6.866   0.077 -1.1654  0.8643  0.6865
  410MOL0     C54019   9.859   6.981   0.038  0.3609  0.0661  0.1911
  410MOL0     C54020   9.817   7.075   0.132 -0.1976  0.4367 -0.8362
  410MOL0     C54021   9.741   7.186   0.091  0.7373 -0.9898  0.1420
  410MOL0     C54022   9.709   7.200  -0.042 -0.4225  0.0915 -0.4304
  410MOL0     O54023   9.609   7.293  -0.060  0.1828 -0.1108 -0.3347
  410MOL0     C54024   9.622   7.379  -0.169 -0.0053 -0.9649 -0.1076
  410MOL0     C54025   9.546   7.510  -0.136 -0.3784  0.5317  0.6605
  410MOL0     C54026   9.622   7.603  -0.044  0.4440  0.3144 -0.2091
  410MOL0     C54027   9.513   7.706  -0.008 -1.2310 -0.0114 -0.5216
  410MOL0     C54028   9.577   7.816   0.085 -0.0691  0.1379  0.1308
  410MOL0     C54029   9.473   7.900   0.164  0.5592  0.0336  0.9598
  410MOL0     C54030   9.381   7.833   0.273  0.0377 -0.1996 -0.3417
  410MOL0     C54031   9.288   7.929   0.345 -0.7141  0.0772  0.1825
  410MOL0    Cl54032   9.217   7.859   0.489  0.7415 -0.1704 -0.2063
  410MOL0     C54033   9.763   7.118  -0.144  0.2079 -0.2027 -0.2448
  410MOL0     C54034   9.830   7.001  -0.097 -0.8022 -1.4955  0.3031
  410MOL0     O54035  10.126   6.975   0.048  0.2505  0.5211  0.6435
  410MOL0     C54036  10.056   6.622   0.144 -1.0193  0.5162  0.3204
  410MOL0     C54037  10.134   6.507   0.186  0.0277  0.2048 -0.6790
  410MOL0     N54038  10.563   5.817   0.428  0.2695 -0.0380 -0.1870
  410MOL0     N54039  10.597   5.808   0.557 -0.8879  0.4022 -0.0259
  410MOL0     C54040  10.662   5.875   1.824 -0.7344 -0.0764 -0.0920
  410MOL0     C54041  10.710   5.847   1.951 -0.7644  0.1484 -0.3027
  410MOL0     C54042  11.026   5.944   2.260 -0.6802  1.2581 -0.4747
  410MOL0     C54043  10.957   5.929   2.382 -1.2529  0.3295  0.8868
  410MOL0     C54044  11.026   5.900   2.501  0.3831  0.3944  0.5221
  410MOL0     C54045  11.165   5.892   2.501  0.0478 -0.0048 -1.2832
  410MOL0     O54046  11.247   5.850   2.606  0.2467  0.2661  0.2126
  410MOL0     C54047  11.186   5.789   2.713  1.7832  0.0117 -0.5295
  410MOL0     C54048  11.144   5.893   2.806 -0.5137 -0.3871 -0.5060
  410MOL0     C54049  11.106   5.846   2.943 -0.3757  0.2109 -0.0198
  410MOL0     C54050  11.224   5.819   3.038  0.1163 -0.6547  0.3599
  410MOL0     C54051  11.180   5.761   3.166  0.2202  0.5734 -0.7795
  410MOL0     C54052  11.174   5.715   3.277 -0.2775 -0.9608 -0.6549
  410MOL0     C54053  11.234   5.916   2.383  0.7104 -0.1711  0.6215
  410MOL0     C54054  11.171   5.947   2.266  0.3191  0.0465  0.6142
  410MOL0     H54055  10.755   6.179   2.040 -1.1249  1.3651 -1.1405
  410MOL0     H54056  10.636   6.217   1.830 -2.7817 -1.2291 -1.7944
  410MOL0     H54057  10.553   5.841   1.540 -0.1564  0.5053  0.0335
  410MOL0     H54058  10.688   5.947   1.518 -0.0316  2.4804  0.4365
  410MOL0     H54059  10.526   6.113   1.401  0.9713 -0.4078  0.2145
  410MOL0     H54060  10.391   5.993   1.444 -1.7379  0.7176 -4.5289
  410MOL0     H54061  10.496   5.817   1.324  0.0623 -0.4220  1.1543
  410MOL0     H54062  10.624   5.927   1.267 -0.3317  0.2981  0.0895
  410MOL0     H54063  10.322   5.956   1.226 -0.3356 -0.3225  1.5965
  410MOL0     H54064  10.440   6.072   1.169 -1.6668  0.1563  0.4279
  410MOL0     H54065  10.396   5.778   1.081 -1.7275  0.2042 -1.4261
  410MOL0     H54066  10.526   5.890   1.014 -0.8076  1.1313  0.5711
  410MOL0     H54067  10.356   6.051   0.956  4.0441 -0.7538 -1.6906
  410MOL0     H54068  10.229   5.926   0.995  0.3907  0.7222  2.9031
  410MOL0     H54069  10.360   5.771   0.834  1.1806  0.2046  0.5888
  410MOL0     H54070  10.280   5.914   0.756 -0.7178 -1.4174 -0.3598
  410MOL0     H54071  10.578   5.839   0.815  1.6871  1.1554 -0.9251
  410MOL0     H54072  10.538   6.009   0.804  1.6534 -1.7217  1.3299
  410MOL0     H54073  10.353   6.030   0.562 -2.2132 -1.5352 -0.0965
  410MOL0     H54074  10.316   5.959   0.275 -0.5617 -2.8139  2.1139
  410MOL0     H54075  10.473   5.904   0.206 -2.1369 -1.7383 -0.1526
  410MOL0     H54076  10.593   6.089   0.255  0.2777  0.4593  0.5015
  410MOL0     H54077  10.458   6.182   0.329  2.4173 -0.6756  1.0688
  410MOL0     H54078  10.488   6.134   0.047 -0.0938  1.3892 -0.5669
  410MOL0     H54079  10.334   6.137   0.106 -0.4362  0.3401  0.6172
  410MOL0     H54080  10.410   6.361   0.036  0.7041  0.2017  0.2466
  410MOL0     H54081  10.535   6.361   0.153 -0.6876  1.5813 -1.4152
  410MOL0     H54082  10.446   6.597   0.115  0.7980 -1.7859  0.4780
  410MOL0     H54083  10.328   6.822   0.077 -0.8858  0.3449 -1.7756
  410MOL0     H54084   9.855   7.065   0.233  0.3007 -3.5250 -1.2562
  410MOL0     H54085   9.709   7.256   0.168  4.5099 -1.2920  2.2234
  410MOL0     H54086   9.605   7.337  -0.269  3.0263 -0.1816 -1.0251
  410MOL0     H54087   9.721   7.423  -0.169 -0.2827 -0.2831 -1.5667
  410MOL0     H54088   9.451   7.482  -0.088  0.4626 -0.5846  1.7489
  410MOL0     H54089   9.531   7.555  -0.235  0.3385  3.6104  1.8370
  410MOL0     H54090   9.704   7.633  -0.110  0.8968 -4.4796 -2.2562
  410MOL0     H54091   9.650   7.549   0.047 -1.4925 -1.3185 -0.5103
  410MOL0     H54092   9.468   7.756  -0.094  0.1917  0.1486 -1.1998
  410MOL0     H54093   9.431   7.658   0.046 -1.2789 -0.4456 -0.9648
  410MOL0     H54094   9.644   7.870   0.017 -1.1022  0.5932 -0.5481
  410MOL0     H54095   9.640   7.766   0.160  0.3566  1.1504  0.4584
  410MOL0     H54096   9.405   7.940   0.087 -0.3253 -1.4955  0.8922
  410MOL0     H54097   9.531   7.979   0.213  1.2782 -0.6863  1.2825
  410MOL0     H54098   9.322   7.748   0.238  1.7139 -1.9197  0.8024
  410MOL0     H54099   9.449   7.786   0.345  3.0039  0.6643 -2.4104
  410MOL0     H54100   9.219   7.967   0.269  0.8193 -0.7544 -1.7228
  410MOL0     H54101   9.350   8.006   0.391 -0.3112 -0.5747  0.7567
  410MOL0     H54102   9.752   7.148  -0.248  1.0926 -1.0273 -0.5873
  410MOL0     H54103   9.879   6.932  -0.166  1.8220 -3.5016  3.8442
  410MOL0     H54104   9.947   6.625   0.137 -0.8706  1.9323 -2.6879
  410MOL0     H54105  10.080   6.421   0.225 -1.1783  1.5990  0.8654
  410MOL0     H54106  10.627   5.793   1.762 -0.2109 -0.7866  0.5317
  410MOL0     H54107  10.737   5.750   1.991 -0.8770 -0.3371 -1.3672
  410MOL0     H54108  10.849   5.930   2.385 -1.3875  3.6887 -0.1369
  410MOL0     H54109  10.965   5.886   2.590  2.2382  1.2349  1.9923
  410MOL0     H54110  11.265   5.724   2.752  2.7975  1.3421 -0.2893
  410MOL0     H54111  11.095   5.733   2.690  1.6950 -0.0466 -0.0532
  410MOL0     H54112  11.226   5.966   2.808  0.2821 -1.1595 -2.3884
  410MOL0     H54113  11.067   5.958   2.761  0.8273 -0.9423 -3.8467
  410MOL0     H54114  11.061   5.748   2.924 -0.3686  0.2611 -0.2982
  410MOL0     H54115  11.041   5.915   2.998  1.0463  1.4851  0.0985
  410MOL0     H54116  11.296   5.751   2.991  1.5740  0.4821  0.8891
  410MOL0     H54117  11.269   5.917   3.054  2.0417 -1.9917  4.1121
  410MOL0     H54118  11.172   5.703   3.383 -0.8767  0.3514 -0.4964
  410MOL0     H54119  11.343   5.911   2.382  0.7913  1.2739  0.4428
  410MOL0     H54120  11.229   5.962   2.176 -1.3804 -3.8401 -1.3508
  411MOL0     O54121   8.493   6.346   3.438  0.3323  0.3645  0.3744
  411MOL0     C54122   8.380   6.325   3.397  0.7263  0.6346  0.6706
  411MOL0     O54123   8.345   6.348   3.265  0.0466 -0.6034  0.1043
  411MOL0     C54124   8.436   6.380   3.171  0.5979  0.5804  0.4632
  411MOL0     C54125   8.390   6.341   3.043 -0.6893 -0.9382  0.9723
  411MOL0     C54126   8.476   6.368   2.930 -0.2989 -0.6587  0.5225
  411MOL0     C54127   8.599   6.440   2.947  0.1394 -0.1622  0.4515
  411MOL0     O54128   8.699   6.453   2.853 -0.0343  0.7132 -0.1651
  411MOL0     C54129   8.748   6.327   2.815 -0.5653 -0.1786 -0.7090
  411MOL0     C54130   8.886   6.356   2.742 -0.2710 -0.6575 -0.5833
  411MOL0     C54131   8.984   6.432   2.833 -0.7333  0.0783  0.2002
  411MOL0     C54132   8.999   6.381   2.975  0.3782 -0.1226  0.0795
  411MOL0     C54133   9.021   6.229   2.992  0.3375 -0.5104  0.2094
  411MOL0     C54134   9.159   6.181   2.938  0.0768 -0.8773  0.6145
  411MOL0     C54135   9.167   6.023   2.935  0.7102  0.1068  0.2981
  411MOL0     C54136   9.144   5.953   3.074 -0.0333 -0.0161 -0.6906
  411MOL0     N54137   9.235   5.984   3.185  0.5335 -0.2983 -0.5691
  411MOL0     C54138   9.202   6.020   3.313 -0.7259  0.4130 -0.5619
  411MOL0     C54139   9.322   6.008   3.376  0.7555  0.2180  0.4580
  411MOL0     C54140   9.363   6.008   3.524 -0.2716 -0.1729  0.3065
  411MOL0     C54141   9.341   5.874   3.581  1.0809 -0.5819  0.1391
  411MOL0     C54142   9.197   5.821   3.583  0.2276 -0.1321 -0.1157
  411MOL0     C54143   9.171   5.669   3.590  0.1969  0.2915  0.6712
  411MOL0     O54144   9.256   5.575   3.516  0.3700  0.3258 -0.6309
  411MOL0     C54145   9.240   5.565   3.380  0.4344 -0.4596 -0.3681
  411MOL0     C54146   9.126   5.512   3.314  0.1325 -0.6083 -0.5842
  411MOL0     C54147   9.120   5.494   3.175 -0.8714  0.1318  0.1077
  411MOL0     C54148   9.224   5.525   3.099 -0.7937 -0.6532 -0.3393
  411MOL0     C54149   9.219   5.507   2.958  0.0926  0.3623 -0.3569
  411MOL0     O54150   9.100   5.465   2.901  0.4601  0.2521  0.4316
  411MOL0     C54151   9.064   5.427   2.776  0.2038 -0.2970 -0.7540
  411MOL0     C54152   9.139   5.380   2.668  0.6276  0.1504  0.0759
  411MOL0     C54153   9.080   5.304   2.563 -0.6732 -0.0654  0.2109
  411MOL0     C54154   8.941   5.292   2.550  0.2580 -0.1585  0.1440
  411MOL0     O54155   8.895   5.218   2.449 -0.0807 -0.7393  1.0169
  411MOL0     C54156   8.767   5.140   2.456  1.0476 -0.0760 -0.6661
  411MOL0     C54157   8.746   5.058   2.332 -0.2586  0.4297  0.2178
  411MOL0     C54158   8.633   4.956   2.336  0.5241  0.4173 -0.3475
  411MOL0     C54159   8.600   4.891   2.204 -0.0621 -0.2815  0.8263
  411MOL0     C54160   8.477   4.795   2.195 -0.2549  1.1343  0.7725
  411MOL0     C54161   8.481   4.720   2.057  0.0647  0.1190  0.1701
  411MOL0     C54162   8.364   4.620   2.026  0.2177  0.8918  0.0504
  411MOL0     C54163   8.322   4.578   1.879 -0.6177 -0.9332 -0.7794
  411MOL0    Cl54164   8.213   4.446   1.899 -0.3445  0.1547 -0.2805
  411MOL0     C54165   8.857   5.344   2.644  0.8469 -0.5704 -0.2284
  411MOL0     C54166   8.920   5.412   2.760  1.1999  0.0889  0.0652
  411MOL0     O54167   9.325   5.513   2.894  0.6533  0.0444 -0.3444
  411MOL0     C54168   9.337   5.588   3.164  0.7056 -0.3210 -0.1318
  411MOL0     C54169   9.341   5.609   3.306  0.9980  0.4959  0.2968
  411MOL0     N54170   9.425   5.973   3.289 -0.1267 -0.3740 -0.2307
  411MOL0     N54171   9.363   5.952   3.181  1.0514 -0.4372  0.4269
  411MOL0     C54172   8.621   6.499   3.073  0.2585 -0.9915 -1.1794
  411MOL0     C54173   8.540   6.471   3.190  0.9728 -0.2099 -0.0410
  411MOL0     C54174   8.275   6.289   3.500 -1.1434 -0.2670 -0.4051
  411MOL0     C54175   8.296   6.266   3.639  1.6134  0.2511 -0.0742
  411MOL0     C54176   8.193   6.256   3.727  0.7360  1.0408 -0.2903
  411MOL0     C54177   8.061   6.252   3.687  0.2618  0.3298 -0.4241
  411MOL0     O54178   7.958   6.239   3.776  0.3321 -0.0422  0.4166
  411MOL0     C54179   7.947   6.336   3.877 -0.2440 -0.0359 -0.2466
  411MOL0     C54180   7.915   6.467   3.826  0.5462 -0.2126 -1.1633
  411MOL0     C54181   7.887   6.574   3.933 -0.2883 -0.4898 -0.6084
  411MOL0     C54182   7.933   6.722   3.888  0.2540  0.6523  0.8036
  411MOL0     C54183   8.060   6.755   3.828 -1.1344  0.8944 -0.4738
  411MOL0     C54184   8.162   6.753   3.770 -0.9259 -0.3220 -0.3653
  411MOL0     C54185   8.039   6.250   3.545  0.2857  0.2413 -0.8551
  411MOL0     C54186   8.148   6.273   3.462  0.1782 -1.3357  0.5095
  411MOL0     H54187   8.302   6.279   3.050 -0.4379 -1.1580  2.8148
  411MOL0     H54188   8.448   6.317   2.839  1.1416 -3.2476  1.4320
  411MOL0     H54189   8.670   6.301   2.742 -1.8416  3.8808 -1.0315
  411MOL0     H54190   8.765   6.269   2.905  4.3122  0.7378 -0.7442
  411MOL0     H54191   8.865   6.417   2.653 -0.1262  0.7576  0.3129
  411MOL0     H54192   8.920   6.260   2.703  2.6336 -0.6246  1.5854
  411MOL0     H54193   8.966   6.540   2.832  1.0580  0.4038 -1.7591
  411MOL0     H54194   9.083   6.412   2.793 -1.2548 -1.1779 -0.4889
  411MOL0     H54195   9.072   6.441   3.031 -1.7518 -0.6542  3.7739
  411MOL0     H54196   8.907   6.400   3.030  0.2849  1.1908 -0.4794
  411MOL0     H54197   8.948   6.175   2.930 -0.5405  0.8242  0.0493
  411MOL0     H54198   9.007   6.193   3.095  0.0184 -0.5111  0.1661
  411MOL0     H54199   9.240   6.224   2.997 -0.7315  2.0319 -0.1863
  411MOL0     H54200   9.180   6.220   2.838  3.0952 -1.2319  1.0112
  411MOL0     H54201   9.095   5.987   2.860 -0.7559  2.1458  0.6642
  411MOL0     H54202   9.264   5.982   2.903 -1.2456 -4.0726 -0.9694
  411MOL0     H54203   9.148   5.844   3.060  0.8976  0.1872 -2.2466
  411MOL0     H54204   9.044   5.975   3.112 -0.0950 -2.7632  1.0511
  411MOL0     H54205   9.104   6.034   3.358  0.2350 -0.7878  2.1112
  411MOL0     H54206   9.313   6.086   3.583  1.2067 -0.7218  2.4112
  411MOL0     H54207   9.469   6.033   3.532  0.0120 -1.0857 -0.3732
  411MOL0     H54208   9.389   5.873   3.679  0.0618 -2.2398  0.6602
  411MOL0     H54209   9.408   5.810   3.522  0.7033 -0.3070 -0.5992
  411MOL0     H54210   9.144   5.873   3.663 -1.4639  0.1733 -1.3731
  411MOL0     H54211   9.143   5.858   3.495  0.7930  0.6244 -0.1626
  411MOL0     H54212   9.066   5.660   3.563 -0.5140  3.5927  1.8092
  411MOL0     H54213   9.180   5.634   3.693  3.0993  0.5344  0.5851
  411MOL0     H54214   9.047   5.484   3.383 -0.8541 -1.5314 -2.0555
  411MOL0     H54215   9.029   5.451   3.133 -1.9289  1.1615  1.2718
  411MOL0     H54216   9.247   5.378   2.661  0.5995 -3.1531 -1.2565
  411MOL0     H54217   9.147   5.259   2.490 -0.2158 -0.4655  0.8666
  411MOL0     H54218   8.686   5.214   2.464  1.2656  0.0530  0.5934
  411MOL0     H54219   8.767   5.087   2.552  3.1584 -0.3461 -0.7767
  411MOL0     H54220   8.841   5.009   2.306  0.4645  2.0747 -0.3681
  411MOL0     H54221   8.725   5.123   2.247  1.6024  1.2939  0.3622
  411MOL0     H54222   8.543   4.977   2.394 -0.3011 -3.8345  0.2324
  411MOL0     H54223   8.665   4.870   2.395 -3.4909 -0.1535  1.2889
  411MOL0     H54224   8.592   4.968   2.126  0.5244  0.2093  1.2438
  411MOL0     H54225   8.689   4.835   2.175  0.8279  0.5549  1.8658
  411MOL0     H54226   8.379   4.838   2.214 -1.4495 -0.3807 -1.4819
  411MOL0     H54227   8.490   4.710   2.262 -0.9799 -1.4096 -2.0528
  411MOL0     H54228   8.576   4.667   2.049 -0.1375 -0.7616  2.7668
  411MOL0     H54229   8.477   4.800   1.982  0.7508  0.1509  0.1630
  411MOL0     H54230   8.389   4.526   2.076  2.5923  2.5376  2.2001
  411MOL0     H54231   8.273   4.654   2.077 -0.9368  1.5903 -2.3369
  411MOL0     H54232   8.408   4.549   1.818 -1.2841 -1.3041 -1.5545
  411MOL0     H54233   8.284   4.669   1.830 -1.5578 -0.6896  0.3584
  411MOL0     H54234   8.749   5.340   2.644  0.6727 -0.2568  4.0726
  411MOL0     H54235   8.868   5.437   2.851 -1.7158 -2.4409 -0.7360
  411MOL0     H54236   9.429   5.611   3.111 -1.3104  2.4085 -2.7899
  411MOL0     H54237   9.431   5.654   3.347  2.4357 -1.0445 -1.0174
  411MOL0     H54238   8.706   6.567   3.079  0.0438 -0.3119 -4.1779
  411MOL0     H54239   8.575   6.503   3.287 -2.5584 -0.2366  1.3799
  411MOL0     H54240   8.400   6.267   3.671  2.6159 -0.4303 -2.9397
  411MOL0     H54241   8.226   6.244   3.830  1.8088 -1.6156 -0.8645
  411MOL0     H54242   8.047   6.344   3.921  0.0932  1.0040 -1.1354
  411MOL0     H54243   7.875   6.307   3.953  1.8021 -2.2254  0.9696
  411MOL0     H54244   7.992   6.494   3.753  0.4470  1.0458 -0.8263
  411MOL0     H54245   7.822   6.443   3.774  2.1430 -3.1617 -2.8928
  411MOL0     H54246   7.933   6.559   4.031  0.5660  0.6993 -0.7932
  411MOL0     H54247   7.780   6.593   3.943 -0.2185  1.1784 -2.3271
  411MOL0     H54248   7.856   6.770   3.827  0.4282 -0.7644 -0.6129
  411MOL0     H54249   7.920   6.785   3.976 -0.0585 -2.0206  2.7565
  411MOL0     H54250   8.245   6.758   3.702 -3.6093  2.2767 -3.7943
  411MOL0     H54251   7.938   6.233   3.511 -0.6835  0.1524  1.8029
  411MOL0     H54252   8.122   6.274   3.356  3.9903 -3.2361 -0.5888
  412MOL0     O54253   6.809   1.978   1.139  0.2196 -0.1204 -0.3123
  412MOL0     C54254   6.693   1.995   1.161  0.4399 -0.7802  0.7299
  412MOL0     O54255   6.631   1.987   1.282 -0.0548 -0.5349 -0.2404
  412MOL0     C54256   6.683   1.920   1.380 -0.9866 -0.9445  0.4242
  412MOL0     C54257   6.611   1.827   1.444  0.5541 -0.2159 -0.0417
  412MOL0     C54258   6.653   1.750   1.557  1.0534  0.3455 -0.4234
  412MOL0     C54259   6.786   1.760   1.595 -0.5628 -1.6586 -1.0494
  412MOL0     O54260   6.836   1.675   1.697 -0.1706 -1.3233  0.3363
  412MOL0     C54261   6.969   1.702   1.757  0.5897 -0.6537  0.4111
  412MOL0     C54262   7.007   1.592   1.866  0.6778  0.4062  1.0211
  412MOL0     C54263   7.154   1.592   1.927  0.1926  0.4944 -0.0165
  412MOL0     C54264   7.206   1.450   1.977 -0.6453  0.1845  0.8931
  412MOL0     C54265   7.352   1.456   2.022  0.1471  0.5984 -0.6373
  412MOL0     C54266   7.381   1.500   2.165 -0.0518 -0.0600 -0.5293
  412MOL0     C54267   7.539   1.491   2.181 -0.4924  0.3128  0.3667
  412MOL0     C54268   7.570   1.504   2.329 -0.1120 -0.2440  0.3799
  412MOL0     N54269   7.530   1.636   2.379  0.7819  0.1283 -0.6240
  412MOL0     C54270   7.531   1.666   2.512  0.1135 -0.6440 -0.1216
  412MOL0     C54271   7.540   1.803   2.516  0.3006 -0.4567  0.3372
  412MOL0     C54272   7.550   1.878   2.649 -0.0715  0.4141  0.5410
  412MOL0     C54273   7.689   1.906   2.700 -0.7199  0.0493 -0.4686
  412MOL0     C54274   7.779   1.980   2.596 -0.0100  0.2460  0.0928
  412MOL0     C54275   7.761   2.135   2.590  0.3174  0.6280  0.0910
  412MOL0     O54276   7.866   2.212   2.528  0.5288  0.0003  0.6897
  412MOL0     C54277   7.862   2.247   2.393  0.4192  1.1713 -0.2288
  412MOL0     C54278   7.768   2.188   2.304 -0.5546 -0.7968 -0.3249
  412MOL0     C54279   7.780   2.207   2.166  0.5239 -0.1362  0.4128
  412MOL0     C54280   7.865   2.314   2.111 -0.1080  0.8341  0.2831
  412MOL0     C54281   7.851   2.348   1.968  0.4030  0.5362  0.7582
  412MOL0     O54282   7.749   2.289   1.893 -0.0225  0.1748 -0.0961
  412MOL0     C54283   7.728   2.338   1.773 -0.2007  0.4410  0.6615
  412MOL0     C54284   7.693   2.469   1.752 -0.3345 -0.1890 -0.4690
  412MOL0     C54285   7.673   2.521   1.618  0.3650  0.0750 -0.3957
  412MOL0     C54286   7.671   2.445   1.510  0.4345  0.3347  1.1693
  412MOL0     O54287   7.613   2.498   1.393 -0.0714  0.1109 -0.3164
  412MOL0     C54288   7.583   2.397   1.297 -0.3120  0.1663  0.0978
  412MOL0     C54289   7.490   2.452   1.184 -0.3695  0.0182  0.6605
  412MOL0     C54290   7.373   2.525   1.256 -0.1990  0.3793 -0.3927
  412MOL0     C54291   7.255   2.534   1.168  0.5081 -1.1603 -0.4314
  412MOL0     C54292   7.261   2.634   1.049 -1.0326  0.6959  0.3106
  412MOL0     C54293   7.327   2.779   1.075 -0.2476  0.0342  1.0154
  412MOL0     C54294   7.276   2.856   1.199 -0.5538  0.2096 -0.7156
  412MOL0     C54295   7.301   2.999   1.194  0.2208 -1.0100  0.2389
  412MOL0    Cl54296   7.198   3.108   1.290  0.1410 -0.2041 -0.5831
  412MOL0     C54297   7.714   2.314   1.535 -0.3069 -0.3470 -0.2409
  412MOL0     C54298   7.731   2.258   1.661  0.5543  0.0772 -1.2158
  412MOL0     O54299   7.922   2.439   1.929 -0.1012  0.8128 -0.8278
  412MOL0     C54300   7.952   2.378   2.213 -0.1482 -0.0568 -1.0195
  412MOL0     C54301   7.951   2.332   2.345  0.0279  0.8171 -0.2534
  412MOL0     N54302   7.533   1.855   2.385 -0.6572  0.3829  0.1050
  412MOL0     N54303   7.528   1.749   2.305  0.3580 -0.4752  0.6100
  412MOL0     C54304   6.864   1.863   1.543  0.1494  0.5566  0.6483
  412MOL0     C54305   6.808   1.939   1.429  0.1413  0.5948 -0.3939
  412MOL0     C54306   6.600   2.035   1.051 -0.4516 -0.0471 -0.0561
  412MOL0     C54307   6.460   2.040   1.074 -0.9393  0.6083  0.0167
  412MOL0     C54308   6.382   2.094   0.972  0.4181  0.9221 -0.6035
  412MOL0     C54309   6.427   2.136   0.847 -0.8209 -0.3984 -0.5081
  412MOL0     O54310   6.355   2.180   0.744  0.6265 -0.4154  0.1785
  412MOL0     C54311   6.213   2.192   0.767 -0.2845  0.2618 -0.1834
  412MOL0     C54312   6.148   2.274   0.658 -0.2192  0.4915 -0.5792
  412MOL0     C54313   6.020   2.214   0.602  0.9470 -0.2689 -0.6991
  412MOL0     C54314   5.903   2.202   0.712 -0.7590  0.2065  0.1314
  412MOL0     C54315   5.770   2.201   0.656 -0.3648 -0.4952 -0.3212
  412MOL0     C54316   5.652   2.211   0.620  0.5365  0.7404 -0.4864
  412MOL0     C54317   6.568   2.134   0.830  0.5504  2.0130  0.5134
  412MOL0     C54318   6.654   2.086   0.925  0.7471 -1.0296 -1.3848
  412MOL0     H54319   6.505   1.815   1.422  0.6682 -2.3467  0.3704
  412MOL0     H54320   6.582   1.674   1.588  1.4877 -0.5816 -1.6302
  412MOL0     H54321   6.974   1.804   1.796 -2.0526 -0.8267  1.4196
  412MOL0     H54322   7.054   1.688   1.690 -0.3169 -3.2586 -0.3134
  412MOL0     H54323   6.992   1.505   1.801 -1.5167  0.6890  1.0631
  412MOL0     H54324   6.937   1.603   1.950  2.2178  3.0081  2.0896
  412MOL0     H54325   7.158   1.662   2.011 -0.7901  0.0545  0.4065
  412MOL0     H54326   7.222   1.629   1.850  1.6591  1.0543  1.4977
  412MOL0     H54327   7.147   1.413   2.062 -1.4013 -2.3819 -0.6131
  412MOL0     H54328   7.201   1.374   1.898  2.1750  1.4304 -0.5930
  412MOL0     H54329   7.416   1.518   1.959  2.7921  0.1354  1.4033
  412MOL0     H54330   7.398   1.357   2.013 -0.7712 -0.0441  1.3465
  412MOL0     H54331   7.340   1.423   2.231  3.8388 -4.5270 -2.7223
  412MOL0     H54332   7.338   1.598   2.187 -2.2487 -1.3660  1.4532
  412MOL0     H54333   7.566   1.391   2.146 -1.3939  0.0699  0.3420
  412MOL0     H54334   7.592   1.574   2.133  0.0666  0.8549  1.8601
  412MOL0     H54335   7.677   1.492   2.347  0.0503 -1.4571 -1.2029
  412MOL0     H54336   7.523   1.420   2.380 -0.0095  0.4029  1.5763
  412MOL0     H54337   7.542   1.594   2.593  0.5093  1.5021  1.8490
  412MOL0     H54338   7.493   1.818   2.721  2.7468 -0.3697  2.2728
  412MOL0     H54339   7.499   1.975   2.647  0.2258  0.5747 -2.0167
  412MOL0     H54340   7.737   1.814   2.732  0.0845  0.2568 -1.0575
  412MOL0     H54341   7.682   1.972   2.787 -2.4578  1.8440 -1.8610
  412MOL0     H54342   7.883   1.959   2.624  0.2375  1.4682  0.1427
  412MOL0     H54343   7.763   1.941   2.495 -0.0351  2.1392 -0.6729
  412MOL0     H54344   7.759   2.163   2.696 -2.2644 -1.2423  0.6286
  412MOL0     H54345   7.661   2.158   2.551  0.1093 -0.7235 -0.2218
  412MOL0     H54346   7.702   2.105   2.326 -1.8440  0.0364 -0.9529
  412MOL0     H54347   7.723   2.157   2.089  3.3959 -4.3207  0.6462
  412MOL0     H54348   7.694   2.537   1.836 -2.6668  0.5042 -0.9396
  412MOL0     H54349   7.644   2.624   1.602  0.5590 -0.0190 -1.4545
  412MOL0     H54350   7.538   2.308   1.342  1.8887 -1.6492 -1.0936
  412MOL0     H54351   7.675   2.365   1.248  1.5346  4.1212  0.6377
  412MOL0     H54352   7.461   2.376   1.110  1.4678  1.5376 -1.7531
  412MOL0     H54353   7.537   2.533   1.128 -0.1370  0.2223  1.1454
  412MOL0     H54354   7.396   2.617   1.310 -2.0224  0.4931  0.2479
  412MOL0     H54355   7.347   2.462   1.342 -1.4853  1.6321  0.1837
  412MOL0     H54356   7.233   2.430   1.141 -1.6957 -1.6909  2.8731
  412MOL0     H54357   7.166   2.560   1.225 -0.1791 -2.5947 -0.8005
  412MOL0     H54358   7.162   2.648   1.006 -0.2379  3.6525 -0.7723
  412MOL0     H54359   7.324   2.594   0.969  0.1878 -2.5249  2.6510
  412MOL0     H54360   7.309   2.836   0.984  1.6873 -1.3337 -0.3029
  412MOL0     H54361   7.436   2.771   1.075 -0.1381  1.2546 -0.4116
  412MOL0     H54362   7.168   2.840   1.193 -0.5192 -0.7511  0.7442
  412MOL0     H54363   7.300   2.821   1.300 -2.2939  0.8499 -0.0493
  412MOL0     H54364   7.284   3.043   1.095  0.9503 -0.4172  0.3757
  412MOL0     H54365   7.406   3.021   1.212  1.2079 -2.7043 -2.7364
  412MOL0     H54366   7.734   2.241   1.457  2.3770  0.1113 -0.0837
  412MOL0     H54367   7.771   2.158   1.670 -0.6621 -0.3533 -0.3278
  412MOL0     H54368   8.011   2.459   2.172  2.1330 -1.7700 -1.2939
  412MOL0     H54369   8.024   2.363   2.420  0.3521  0.1543 -0.2894
  412MOL0     H54370   6.970   1.876   1.566  0.1166 -1.5214  2.1827
  412MOL0     H54371   6.861   2.016   1.375 -0.9665  1.2149 -0.6338
  412MOL0     H54372   6.414   2.000   1.163 -0.7967 -1.2890 -0.7296
  412MOL0     H54373   6.277   2.097   0.998  0.7173 -0.8048  1.0283
  412MOL0     H54374   6.190   2.244   0.861  0.1064  1.3398 -0.6639
  412MOL0     H54375   6.159   2.100   0.789 -1.3580  1.1376  1.0421
  412MOL0     H54376   6.134   2.371   0.706  1.7478 -0.0483  1.2590
  412MOL0     H54377   6.218   2.277   0.574 -0.8728  0.0325 -1.1557
  412MOL0     H54378   6.039   2.119   0.551 -0.5697 -0.6240 -0.6797
  412MOL0     H54379   5.989   2.276   0.517 -2.2959  3.6424  2.8578
  412MOL0     H54380   5.921   2.103   0.754 -0.9148 -1.0220 -2.4830
  412MOL0     H54381   5.907   2.274   0.794 -1.5656 -1.3451  1.5866
  412MOL0     H54382   5.548   2.224   0.600  0.0095 -1.1252  0.7342
  412MOL0     H54383   6.612   2.158   0.734  0.3162  0.7446  0.0672
  412MOL0     H54384   6.761   2.094   0.908  0.5445  0.0936 -2.2435
  413MOL0     O54385  10.905   4.206   6.124  0.2985 -0.2820  0.7507
  413MOL0     C54386  10.880   4.252   6.013 -0.9621 -0.1133  0.2506
  413MOL0     O54387  10.804   4.186   5.922 -0.0558  0.3574  0.6208
  413MOL0     C54388  10.775   4.059   5.957  0.7206 -0.6915 -0.0230
  413MOL0     C54389  10.656   4.037   6.031 -0.3155 -0.1864  0.3802
  413MOL0     C54390  10.619   3.913   6.075  0.8582 -0.2953 -0.4243
  413MOL0     C54391  10.703   3.802   6.066  0.1504  0.4586 -0.3938
  413MOL0     O54392  10.655   3.681   6.117  0.6316 -0.2706 -0.8790
  413MOL0     C54393  10.710   3.560   6.082  0.1426 -0.5366  0.1374
  413MOL0     C54394  10.663   3.451   6.179 -0.1317 -0.5326 -0.0557
  413MOL0     C54395  10.710   3.479   6.326 -0.0428 -0.5826  0.0676
  413MOL0     C54396  10.854   3.445   6.341 -2.0954 -0.3168 -1.1639
  413MOL0     C54397  10.945   3.537   6.421 -1.6409 -0.5015  0.7641
  413MOL0     C54398  10.899   3.583   6.561  0.3827  0.4276 -0.8994
  413MOL0     C54399  10.830   3.477   6.643 -1.1510  0.2937  0.3838
  413MOL0     C54400  10.815   3.513   6.787  1.3412 -0.4583 -0.5127
  413MOL0     N54401  10.752   3.644   6.819 -0.9432  0.3674 -0.2772
  413MOL0     C54402  10.782   3.709   6.931 -0.9106 -0.2398 -0.8978
  413MOL0     C54403  10.701   3.812   6.943 -0.0033  0.6673  0.3172
  413MOL0     C54404  10.707   3.902   7.053  0.1705  0.3707  0.4403
  413MOL0     C54405  10.848   3.965   7.070  0.0317 -1.1952  0.3138
  413MOL0     C54406  10.831   4.119   7.098  0.7410  0.5074 -0.1023
  413MOL0     C54407  10.785   4.159   7.242  0.1543 -0.1533 -0.0952
  413MOL0     O54408  10.901   4.118   7.324  0.3907  0.8142  0.6380
  413MOL0     C54409  10.946   4.194   7.423 -1.2668  0.5719  0.1067
  413MOL0     C54410  10.981   4.136   7.546 -0.5813 -1.0367 -0.1319
  413MOL0     C54411  11.021   4.215   7.652  0.6940 -0.4693 -0.4302
  413MOL0     C54412  11.033   4.357   7.632  0.4366 -0.7396 -0.0042
  413MOL0     C54413  11.065   4.452   7.749  0.8022  0.2529  0.3604
  413MOL0     O54414  11.080   4.586   7.721  0.0237  0.0334  0.1250
  413MOL0     C54415  11.100   4.664   7.829 -0.9928 -0.2421 -0.1574
  413MOL0     C54416  11.215   4.752   7.825  0.2783  0.2832 -0.2324
  413MOL0     C54417  11.238   4.842   7.933 -0.2672 -0.1454 -0.1700
  413MOL0     C54418  11.167   4.846   8.051  0.0261 -0.3170  0.0530
  413MOL0     O54419  11.210   4.921   8.159 -0.0154  0.0605 -0.2443
  413MOL0     C54420  11.134   4.903   8.283  0.5215  0.1329 -0.0875
  413MOL0     C54421  11.225   4.946   8.409 -0.3289  0.1660 -0.9949
  413MOL0     C54422  11.326   4.837   8.452  0.1818  0.1068  1.2346
  413MOL0     C54423  11.462   4.897   8.494  0.4694 -0.6446 -0.9209
  413MOL0     C54424  11.544   4.966   8.383  0.4537  0.0922  0.5702
  413MOL0     C54425  11.668   5.017   8.445 -0.3138  0.1124 -0.9175
  413MOL0     C54426  11.761   5.086   8.347 -0.3550  0.0749 -0.8894
  413MOL0     C54427  11.857   5.185   8.407  0.5772  0.4943  0.3351
  413MOL0    Cl54428  11.771   5.347   8.436  0.2194  0.1582  0.6343
  413MOL0     C54429  11.042   4.785   8.047  0.2040  0.5371 -0.6735
  413MOL0     C54430  11.009   4.693   7.937 -0.9698 -0.6205  0.2745
  413MOL0     O54431  11.068   4.392   7.856 -0.1409 -0.4664  0.7214
  413MOL0     C54432  11.016   4.408   7.503 -0.9576  1.2849 -1.0703
  413MOL0     C54433  10.973   4.321   7.406 -0.2241  0.4087  0.3643
  413MOL0     N54434  10.612   3.811   6.839 -0.7677  0.2750 -0.5009
  413MOL0     N54435  10.634   3.700   6.770 -0.2237  0.1441  0.1952
  413MOL0     C54436  10.827   3.826   6.004  0.7832 -0.5421 -0.1145
  413MOL0     C54437  10.857   3.950   5.951  0.2717 -0.6489  0.1188
  413MOL0     C54438  10.930   4.386   5.976  0.4604  0.5544 -1.0439
  413MOL0     C54439  10.966   4.476   6.080  0.1635 -0.4038  0.3728
  413MOL0     C54440  11.007   4.610   6.054  0.1329 -0.1719  0.3978
  413MOL0     C54441  11.017   4.648   5.929 -0.4758 -1.0956  0.4824
  413MOL0     O54442  11.075   4.763   5.908  0.8630 -0.1328  0.2998
  413MOL0     C54443  11.079   4.821   5.779 -0.7225  1.1624 -0.4695
  413MOL0     C54444  11.135   4.962   5.768 -0.8047  1.2187  0.0815
  413MOL0     C54445  11.284   4.973   5.778 -0.5565  0.0827 -0.2732
  413MOL0     C54446  11.347   5.107   5.734 -1.0996 -1.1761 -0.3588
  413MOL0     C54447  11.330   5.211   5.834  0.5182  0.1592  0.4657
  413MOL0     C54448  11.328   5.297   5.918 -0.3740  0.0665  0.6490
  413MOL0     C54449  10.988   4.562   5.820  0.2222 -0.9201 -1.0358
  413MOL0     C54450  10.935   4.435   5.840 -0.9721  0.2065  0.1851
  413MOL0     H54451  10.588   4.122   6.041  2.5537  2.4542 -0.6739
  413MOL0     H54452  10.518   3.908   6.115  1.3533  1.9908  1.3578
  413MOL0     H54453  10.819   3.554   6.071  0.1022 -1.4948  0.2131
  413MOL0     H54454  10.676   3.544   5.979 -1.8033 -2.1081  0.9500
  413MOL0     H54455  10.707   3.356   6.148  1.8303  1.2598 -3.3514
  413MOL0     H54456  10.554   3.449   6.175 -0.3696  3.7654 -3.3573
  413MOL0     H54457  10.641   3.420   6.387 -3.8617  3.5574  0.2883
  413MOL0     H54458  10.690   3.582   6.357 -0.4257 -0.6579  0.0819
  413MOL0     H54459  10.868   3.341   6.373  2.0419  0.1388 -0.9847
  413MOL0     H54460  10.898   3.428   6.242 -3.5897  1.3796 -2.1734
  413MOL0     H54461  10.951   3.616   6.346  0.5672 -1.3112 -0.0017
  413MOL0     H54462  11.048   3.501   6.429 -2.0094 -2.1273 -0.9176
  413MOL0     H54463  10.841   3.675   6.557  0.2120  0.3285 -0.7119
  413MOL0     H54464  10.990   3.611   6.616 -1.5444 -0.1259  2.9275
  413MOL0     H54465  10.733   3.460   6.596 -0.5246  1.4151 -1.4286
  413MOL0     H54466  10.893   3.388   6.648  0.1527  1.1194 -0.4732
  413MOL0     H54467  10.914   3.514   6.834  1.1523  1.6422 -0.0744
  413MOL0     H54468  10.741   3.443   6.828 -2.5545  3.3607 -0.3660
  413MOL0     H54469  10.857   3.670   6.999 -1.3613  1.0883  0.4200
  413MOL0     H54470  10.677   3.849   7.144 -0.2713 -0.1589 -0.0048
  413MOL0     H54471  10.638   3.984   7.031  0.2797  0.5789  0.8703
  413MOL0     H54472  10.903   3.957   6.976  2.7039  2.3801  1.3586
  413MOL0     H54473  10.903   3.921   7.153  1.4825 -2.3002 -1.1810
  413MOL0     H54474  10.918   4.182   7.078 -1.8864  3.5566 -3.1683
  413MOL0     H54475  10.754   4.160   7.031 -0.6791 -0.3864  0.9244
  413MOL0     H54476  10.694   4.105   7.267  0.1957  0.3002  1.1172
  413MOL0     H54477  10.759   4.265   7.239 -0.8332 -0.2437  2.6869
  413MOL0     H54478  10.973   4.028   7.554 -0.3628 -1.1868 -1.6190
  413MOL0     H54479  11.043   4.172   7.749 -1.0382  1.1629  0.7603
  413MOL0     H54480  11.286   4.730   7.747  0.7183 -2.1588  0.7660
  413MOL0     H54481  11.330   4.899   7.919 -1.1884  2.1639  2.2945
  413MOL0     H54482  11.127   4.794   8.278 -1.7321  0.2882 -2.5344
  413MOL0     H54483  11.034   4.946   8.288  0.7496  0.6851 -0.2259
  413MOL0     H54484  11.166   4.968   8.498  0.6779  1.6399 -0.6565
  413MOL0     H54485  11.282   5.036   8.384  2.4631 -0.9899  0.7295
  413MOL0     H54486  11.339   4.768   8.367 -0.7196  2.0098 -0.5314
  413MOL0     H54487  11.289   4.775   8.535  2.4492 -2.1852  0.6658
  413MOL0     H54488  11.448   4.966   8.577  1.7373  1.7427 -2.5960
  413MOL0     H54489  11.521   4.810   8.523 -0.0177 -0.5473  0.4076
  413MOL0     H54490  11.497   5.050   8.331 -3.1940 -2.0702  0.0363
  413MOL0     H54491  11.576   4.889   8.312  0.7876  2.6706 -2.3210
  413MOL0     H54492  11.728   4.942   8.498 -2.1276  0.5110  1.8991
  413MOL0     H54493  11.646   5.081   8.531  1.2571 -1.2606  0.5946
  413MOL0     H54494  11.816   4.999   8.312 -2.7625 -3.2205  2.6616
  413MOL0     H54495  11.710   5.138   8.266 -0.2724 -0.4101 -1.2550
  413MOL0     H54496  11.935   5.206   8.334  2.1995  0.3694  1.9640
  413MOL0     H54497  11.895   5.143   8.500 -5.8835 -1.6309  2.5542
  413MOL0     H54498  10.975   4.791   8.131  2.4048 -0.1253  1.2314
  413MOL0     H54499  10.912   4.644   7.934 -1.5355  0.5248 -1.7134
  413MOL0     H54500  11.024   4.514   7.482 -0.3603  1.7082  1.1378
  413MOL0     H54501  10.953   4.353   7.304  0.6350  1.4028  0.4891
  413MOL0     H54502  10.909   3.757   5.988  1.4387  0.5761 -1.8845
  413MOL0     H54503  10.952   3.952   5.898 -0.8254 -1.9362 -2.0626
  413MOL0     H54504  10.961   4.450   6.185 -1.1404 -1.5040  0.0650
  413MOL0     H54505  11.026   4.676   6.138 -0.4132 -0.7104  0.9600
  413MOL0     H54506  10.974   4.823   5.746 -1.5933 -2.0456  1.6360
  413MOL0     H54507  11.142   4.753   5.721 -1.2696 -0.7078  1.0168
  413MOL0     H54508  11.099   5.001   5.672  2.1256 -0.7504 -1.9374
  413MOL0     H54509  11.083   5.026   5.841  1.5533  0.9426  2.1227
  413MOL0     H54510  11.312   4.902   5.700 -1.7600  0.1992 -0.8290
  413MOL0     H54511  11.318   4.926   5.871  1.5288 -1.8742 -1.8989
  413MOL0     H54512  11.454   5.088   5.744 -0.7978  0.4114 -0.3812
  413MOL0     H54513  11.325   5.136   5.631  1.9684  0.8707 -0.5777
  413MOL0     H54514  11.332   5.376   5.991 -1.9563  0.8522 -0.0653
  413MOL0     H54515  11.012   4.598   5.721  3.3508 -2.8693 -1.1133
  413MOL0     H54516  10.906   4.365   5.763  0.5126 -2.5065  1.9260
  414MOL0     O54517   0.423  10.505   5.400  0.2286  0.4275  0.3427
  414MOL0     C54518   0.325  10.442   5.357  0.5325  0.4406  0.9400
  414MOL0     O54519   0.291  10.315   5.384  0.3753 -0.3241  0.4964
  414MOL0     C54520   0.378  10.216   5.419  1.5037  0.4182 -0.2360
  414MOL0     C54521   0.331  10.085   5.436 -0.1063 -0.4453  0.7558
  414MOL0     C54522   0.409   9.975   5.454  0.3577 -0.1881 -0.1367
  414MOL0     C54523   0.552   9.988   5.468 -0.1092 -0.2475  0.0790
  414MOL0     O54524   0.638   9.886   5.478  0.0575  0.0009  0.2719
  414MOL0     C54525   0.575   9.754   5.477 -0.4209  0.1492  0.2226
  414MOL0     C54526   0.578   9.695   5.338  0.4323 -0.9466 -0.2178
  414MOL0     C54527   0.523   9.551   5.339  0.1602 -0.8259 -0.8525
  414MOL0     C54528   0.422   9.518   5.225  0.1107  0.6515 -0.6700
  414MOL0     C54529   0.500   9.518   5.093  0.8794 -0.1053 -0.4949
  414MOL0     C54530   0.499   9.634   4.999  0.2930 -0.7120  0.2017
  414MOL0     C54531   0.358   9.691   4.945 -0.3816 -0.4208  0.5248
  414MOL0     C54532   0.382   9.797   4.839  0.7120 -0.1394  0.3455
  414MOL0     N54533   0.417   9.734   4.708  0.3638 -0.1968  0.1428
  414MOL0     C54534   0.492   9.790   4.605 -0.6272 -0.3352  0.5502
  414MOL0     C54535   0.524   9.697   4.513  0.2203  1.4824  0.4873
  414MOL0     C54536   0.590   9.696   4.377 -0.0050 -0.1250 -1.2580
  414MOL0     C54537   0.719   9.614   4.389 -0.3284  0.2717 -0.4679
  414MOL0     C54538   0.711   9.467   4.330  0.9164 -0.8132 -0.2762
  414MOL0     C54539   0.844   9.435   4.268 -0.5175 -0.5161  1.0032
  414MOL0     O54540   0.935   9.397   4.373  0.6617 -0.1537  0.3968
  414MOL0     C54541   1.065   9.377   4.339 -0.5851 -0.7358 -0.0449
  414MOL0     C54542   1.169   9.395   4.428 -0.2051  0.6763  0.3731
  414MOL0     C54543   1.309   9.381   4.388 -0.3262 -0.9562  0.2652
  414MOL0     C54544   1.338   9.339   4.261  1.2133  0.7319 -0.3704
  414MOL0     C54545   1.475   9.305   4.205 -1.1455  0.3943 -0.7243
  414MOL0     O54546   1.572   9.264   4.292  0.8677 -0.7452  0.5231
  414MOL0     C54547   1.704   9.304   4.279  0.4567 -1.0648 -0.1038
  414MOL0     C54548   1.796   9.198   4.291  0.3607 -0.1990  0.4541
  414MOL0     C54549   1.933   9.222   4.305  0.1694 -0.1106  1.0911
  414MOL0     C54550   1.977   9.355   4.293  0.8413  0.4953 -0.1436
  414MOL0     O54551   2.112   9.371   4.299 -0.1847  0.0742  0.4664
  414MOL0     C54552   2.157   9.493   4.236 -0.5605  0.5458  1.1911
  414MOL0     C54553   2.312   9.502   4.222  0.9181  0.2194 -0.4109
  414MOL0     C54554   2.372   9.414   4.110  0.2003 -0.1863  0.7588
  414MOL0     C54555   2.504   9.342   4.134  0.9927 -0.9694 -0.6172
  414MOL0     C54556   2.543   9.257   4.018  0.8007 -0.0177 -0.1238
  414MOL0     C54557   2.664   9.176   4.037  1.1395  0.0253 -0.8166
  414MOL0     C54558   2.697   9.085   3.920  0.3459 -0.5678  0.6113
  414MOL0     C54559   2.620   8.955   3.936 -0.3186  0.0282  0.4941
  414MOL0    Cl54560   2.696   8.831   3.855  0.3621  0.1646  0.2514
  414MOL0     C54561   1.888   9.461   4.270 -0.6483 -0.3660 -0.4368
  414MOL0     C54562   1.749   9.440   4.264  0.4520  0.0185 -1.0497
  414MOL0     O54563   1.490   9.338   4.089 -0.0732  0.9098 -0.3057
  414MOL0     C54564   1.224   9.320   4.172  0.1531  0.3207  0.3077
  414MOL0     C54565   1.096   9.329   4.212 -0.9107 -0.9229  0.4385
  414MOL0     N54566   0.465   9.578   4.563 -0.0484  0.0162 -0.7349
  414MOL0     N54567   0.403   9.603   4.676  0.7592 -0.3790  0.0396
  414MOL0     C54568   0.605  10.120   5.452 -0.0920 -0.1691 -0.0122
  414MOL0     C54569   0.518  10.229   5.429 -0.4517  0.1968  0.8525
  414MOL0     C54570   0.211  10.510   5.288  0.7560  1.2687  0.8292
  414MOL0     C54571   0.092  10.443   5.247 -0.2249  0.5426 -0.2104
  414MOL0     C54572  -0.001  10.511   5.177  0.2298 -0.4628  0.0538
  414MOL0     C54573   0.015  10.641   5.138  0.0529  0.2352  0.3259
  414MOL0     O54574  -0.083  10.672   5.049  0.2770  0.1352  0.9469
  414MOL0     C54575  -0.109  10.816   5.038  0.9378  0.1713  0.9459
  414MOL0     C54576  -0.231  10.832   4.940 -0.2966  0.0723  1.0066
  414MOL0     C54577  -0.222  10.759   4.806  0.3040 -0.6352  0.0821
  414MOL0     C54578  -0.124  10.828   4.713  0.7037  1.2793 -0.2410
  414MOL0     C54579  -0.112  10.762   4.582 -0.3673 -0.0115  0.2339
  414MOL0     C54580  -0.097  10.720   4.475 -0.5934 -0.1218  0.0977
  414MOL0     C54581   0.131  10.712   5.172  0.6910  1.4490  0.6256
  414MOL0     C54582   0.224  10.642   5.251 -1.2449 -0.5155 -0.5021
  414MOL0     H54583   0.223  10.072   5.443 -0.2825  1.6041  3.7379
  414MOL0     H54584   0.350   9.884   5.452  1.5870 -0.9984 -0.7182
  414MOL0     H54585   0.473   9.765   5.516 -1.1664  1.4963 -1.8917
  414MOL0     H54586   0.636   9.692   5.543  0.2400 -0.4472 -0.9237
  414MOL0     H54587   0.682   9.698   5.303  0.4512 -2.4221 -0.3287
  414MOL0     H54588   0.513   9.755   5.273  0.4451  0.5935  1.1416
  414MOL0     H54589   0.477   9.526   5.435 -0.9049  0.5829 -0.9699
  414MOL0     H54590   0.601   9.474   5.337  0.4199 -0.6121  0.2583
  414MOL0     H54591   0.378   9.419   5.241 -2.6892  1.5167 -2.2752
  414MOL0     H54592   0.340   9.589   5.208  2.7762  3.7359 -1.6917
  414MOL0     H54593   0.433   9.454   5.036 -1.0741 -1.1987  2.8300
  414MOL0     H54594   0.593   9.461   5.103 -1.0939 -3.0396  4.7666
  414MOL0     H54595   0.553   9.611   4.907 -2.2478 -2.3452 -0.9899
  414MOL0     H54596   0.544   9.719   5.051  0.3188 -2.2497  2.9027
  414MOL0     H54597   0.303   9.604   4.908  1.3295 -1.5907  0.5909
  414MOL0     H54598   0.312   9.733   5.035  1.3037 -0.6480  1.5395
  414MOL0     H54599   0.466   9.862   4.866 -0.0432  1.3453 -0.7327
  414MOL0     H54600   0.300   9.868   4.823  3.6334  2.9600 -2.4900
  414MOL0     H54601   0.512   9.897   4.608 -1.2393 -0.2268  1.4579
  414MOL0     H54602   0.608   9.803   4.365 -0.8556  0.6541  2.7919
  414MOL0     H54603   0.527   9.654   4.298 -0.5322  0.3042 -1.0712
  414MOL0     H54604   0.753   9.601   4.492  2.5409  0.0239 -1.3582
  414MOL0     H54605   0.794   9.678   4.342  1.8457  0.0918  2.4326
  414MOL0     H54606   0.701   9.397   4.413  4.2202 -1.4291 -0.2644
  414MOL0     H54607   0.625   9.458   4.262  1.3235  3.2250 -1.6008
  414MOL0     H54608   0.896   9.525   4.231  0.6948 -0.8278  1.8761
  414MOL0     H54609   0.833   9.369   4.182 -1.0183 -1.2245  1.6082
  414MOL0     H54610   1.165   9.421   4.533  0.3881  0.9420  0.3345
  414MOL0     H54611   1.392   9.399   4.457 -1.6082  0.0118  1.6132
  414MOL0     H54612   1.769   9.093   4.289 -3.5887  0.6366 -1.4208
  414MOL0     H54613   2.004   9.144   4.330  0.3572  0.3506  2.0271
  414MOL0     H54614   2.126   9.575   4.301 -3.6840  0.7912 -0.4160
  414MOL0     H54615   2.111   9.503   4.137  2.2270  1.3294 -0.1306
  414MOL0     H54616   2.342   9.453   4.315  3.0634  0.5787 -0.8404
  414MOL0     H54617   2.353   9.603   4.223 -0.8747  1.1015 -3.2753
  414MOL0     H54618   2.383   9.468   4.015  1.4524 -3.2351 -0.9650
  414MOL0     H54619   2.309   9.329   4.082  3.1519 -1.7671 -1.7383
  414MOL0     H54620   2.588   9.403   4.169  0.3572  0.2938 -1.2197
  414MOL0     H54621   2.470   9.278   4.216  0.4809 -1.4061 -1.1663
  414MOL0     H54622   2.554   9.323   3.931 -0.4570 -2.6668 -2.4703
  414MOL0     H54623   2.460   9.189   3.997 -0.7239  1.6909  0.0937
  414MOL0     H54624   2.666   9.111   4.126  2.9483  0.0099 -0.8428
  414MOL0     H54625   2.745   9.248   4.052  2.7623 -2.0965  1.5226
  414MOL0     H54626   2.685   9.142   3.828 -1.2730 -0.2981  0.9584
  414MOL0     H54627   2.802   9.053   3.917  1.3600  2.4622 -0.1880
  414MOL0     H54628   2.516   8.971   3.907 -0.9475  0.1910  2.6639
  414MOL0     H54629   2.601   8.930   4.041 -3.3715 -1.0937 -0.2339
  414MOL0     H54630   1.924   9.563   4.262 -0.9184 -0.0204  1.9830
  414MOL0     H54631   1.675   9.518   4.253  2.5349  2.5299  1.2779
  414MOL0     H54632   1.247   9.292   4.070 -3.7481  0.9512 -0.9239
  414MOL0     H54633   1.020   9.297   4.141  0.1953 -4.8180  0.7526
  414MOL0     H54634   0.711  10.139   5.462 -0.0796  0.5248 -1.2109
  414MOL0     H54635   0.569  10.324   5.439  0.0079  0.4770 -2.8832
  414MOL0     H54636   0.075  10.338   5.269 -1.1386  1.0687  1.9141
  414MOL0     H54637  -0.084  10.460   5.130 -1.0331  1.5631 -0.0769
  414MOL0     H54638  -0.026  10.880   5.006  0.6307  0.3913  0.5741
  414MOL0     H54639  -0.144  10.851   5.136 -3.6668 -0.9158 -0.0677
  414MOL0     H54640  -0.320  10.785   4.982  1.3760 -2.8676  1.5912
  414MOL0     H54641  -0.243  10.939   4.924 -2.1485  0.0024  1.7153
  414MOL0     H54642  -0.315  10.763   4.747  1.2898  1.7145 -1.4274
  414MOL0     H54643  -0.188  10.656   4.821  1.0750 -0.3372  0.3919
  414MOL0     H54644  -0.157  10.931   4.700 -1.8719  0.5667 -0.0309
  414MOL0     H54645  -0.028  10.821   4.765  0.2513 -1.6577  0.3836
  414MOL0     H54646  -0.083  10.708   4.369 -0.4795  0.5863  0.0239
  414MOL0     H54647   0.160  10.804   5.123  3.5564 -0.6611 -2.0911
  414MOL0     H54648   0.306  10.688   5.305 -1.8333 -1.5620  1.3564
  415MOL0     O54649   2.257   7.108   4.302  0.8033 -0.5401 -0.1430
  415MOL0     C54650   2.202   7.126   4.188  0.0471  1.3276  0.4303
  415MOL0     O54651   2.113   7.225   4.157 -0.3987 -0.3629  0.6328
  415MOL0     C54652   2.057   7.309   4.250  0.5369 -0.1554  0.2032
  415MOL0     C54653   2.067   7.313   4.385  0.2352 -0.3175 -1.1211
  415MOL0     C54654   1.987   7.401   4.459  1.0659  0.0923  0.1722
  415MOL0     C54655   1.900   7.501   4.397 -0.1858  0.1872 -0.3211
  415MOL0     O54656   1.814   7.594   4.446 -0.1184  0.7879  0.5128
  415MOL0     C54657   1.777   7.594   4.586  0.1148 -0.0712  1.3609
  415MOL0     C54658   1.650   7.690   4.594  0.6545  0.4020 -0.5216
  415MOL0     C54659   1.523   7.613   4.633  0.1029 -0.2547  1.2933
  415MOL0     C54660   1.394   7.686   4.623  0.0726 -0.5893  0.4273
  415MOL0     C54661   1.287   7.612   4.544 -0.7485  0.6422  0.7944
  415MOL0     C54662   1.320   7.608   4.390 -0.8931  1.0304 -0.2106
  415MOL0     C54663   1.201   7.562   4.304 -0.1290  0.0621 -0.3078
  415MOL0     C54664   1.105   7.663   4.238 -0.8060 -0.3984 -1.1828
  415MOL0     N54665   1.021   7.588   4.140 -0.6416  0.5810  0.3814
  415MOL0     C54666   1.060   7.555   4.017 -0.6458  0.5224 -0.1106
  415MOL0     C54667   0.952   7.500   3.952 -1.0107  1.0059  1.1348
  415MOL0     C54668   0.964   7.459   3.803 -0.1439  0.4197 -0.2194
  415MOL0     C54669   1.043   7.337   3.779 -0.1513 -0.3184  0.2769
  415MOL0     C54670   1.196   7.355   3.770 -0.0013 -0.8349 -0.0264
  415MOL0     C54671   1.243   7.460   3.667  1.4199  0.8852 -0.0581
  415MOL0     O54672   1.375   7.445   3.626 -0.7286 -0.2581  0.9474
  415MOL0     C54673   1.413   7.455   3.493  0.1321 -0.4468  0.4323
  415MOL0     C54674   1.445   7.584   3.444 -0.7872 -0.1043  0.5955
  415MOL0     C54675   1.485   7.606   3.312 -0.5449 -0.3949 -0.1604
  415MOL0     C54676   1.512   7.485   3.240  0.8428 -0.0965  0.5009
  415MOL0     C54677   1.585   7.493   3.108  0.1782  0.6385  0.7524
  415MOL0     O54678   1.616   7.370   3.051  0.0987  0.2243  0.2416
  415MOL0     C54679   1.673   7.367   2.923 -1.4135  0.6805  0.6662
  415MOL0     C54680   1.607   7.428   2.821 -0.2457  0.2414 -0.5879
  415MOL0     C54681   1.659   7.427   2.686  0.3856 -0.2329 -0.1798
  415MOL0     C54682   1.795   7.379   2.667 -0.5118 -0.2795  0.8816
  415MOL0     O54683   1.869   7.392   2.555 -0.9453 -0.8794  0.2431
  415MOL0     C54684   1.820   7.474   2.459 -1.0317 -0.5438  0.8197
  415MOL0     C54685   1.910   7.458   2.336 -0.4893 -0.3074 -0.0541
  415MOL0     C54686   2.059   7.473   2.369 -0.1591  1.4075  1.2226
  415MOL0     C54687   2.126   7.340   2.423 -0.8427 -0.4125 -0.3631
  415MOL0     C54688   2.274   7.369   2.450  1.2312 -0.1795 -0.0095
  415MOL0     C54689   2.358   7.247   2.484  0.2955 -0.9904  0.7483
  415MOL0     C54690   2.436   7.201   2.358 -0.1257  0.7360 -0.1337
  415MOL0     C54691   2.544   7.088   2.392  0.3021 -0.3742  0.5042
  415MOL0    Cl54692   2.593   7.013   2.236  0.1758 -0.6179  0.0700
  415MOL0     C54693   1.853   7.315   2.774 -0.2682 -0.2246 -0.3959
  415MOL0     C54694   1.789   7.296   2.901  0.1374 -1.3953 -0.9586
  415MOL0     O54695   1.601   7.606   3.047 -0.0665  0.4675 -0.5479
  415MOL0     C54696   1.474   7.358   3.289 -0.3715 -1.7254 -0.1028
  415MOL0     C54697   1.418   7.345   3.417 -0.2540  0.5345 -0.9039
  415MOL0     N54698   0.838   7.494   4.038 -0.6810 -0.2538 -0.2634
  415MOL0     N54699   0.886   7.552   4.147  0.1878  0.0776 -0.0712
  415MOL0     C54700   1.896   7.503   4.255 -0.6392 -0.4466  1.3158
  415MOL0     C54701   1.980   7.410   4.186 -0.3435  0.2489 -0.5384
  415MOL0     C54702   2.240   7.027   4.080 -0.8839  0.2932 -0.3252
  415MOL0     C54703   2.303   6.914   4.125 -0.4086  0.4808 -0.2277
  415MOL0     C54704   2.320   6.800   4.037 -0.3135 -0.3146  0.3489
  415MOL0     C54705   2.295   6.813   3.900 -0.1467 -0.4232  0.0475
  415MOL0     O54706   2.339   6.719   3.816  0.5274  0.2609 -0.2720
  415MOL0     C54707   2.317   6.731   3.676  0.3070 -0.2942 -0.1935
  415MOL0     C54708   2.371   6.598   3.618  0.0071 -0.2789  0.1086
  415MOL0     C54709   2.267   6.488   3.641 -0.5292  1.0971 -0.0603
  415MOL0     C54710   2.306   6.342   3.625 -0.0290 -0.4298 -0.2536
  415MOL0     C54711   2.362   6.335   3.496  1.0795  1.5535  0.0539
  415MOL0     C54712   2.401   6.327   3.380 -0.1115 -0.5561 -0.0766
  415MOL0     C54713   2.244   6.934   3.856  0.0924  0.4522  1.0308
  415MOL0     C54714   2.205   7.038   3.941 -0.8133 -0.6081  0.6811
  415MOL0     H54715   2.130   7.249   4.445 -0.1827  2.5802  2.8459
  415MOL0     H54716   1.972   7.390   4.566 -0.3731  0.1809  0.0082
  415MOL0     H54717   1.859   7.647   4.638  0.7742  0.1961  0.0860
  415MOL0     H54718   1.778   7.490   4.621  0.1133 -0.2278  0.8951
  415MOL0     H54719   1.640   7.746   4.500  0.0087 -1.6824 -1.7622
  415MOL0     H54720   1.678   7.766   4.667  2.9693 -1.4391  0.6239
  415MOL0     H54721   1.530   7.581   4.738 -3.3646 -1.3874  1.3180
  415MOL0     H54722   1.517   7.520   4.576 -3.2404 -1.2040  2.8844
  415MOL0     H54723   1.345   7.697   4.720 -2.4007 -0.6304 -0.7620
  415MOL0     H54724   1.425   7.783   4.584 -0.6665 -0.3872  0.3451
  415MOL0     H54725   1.186   7.652   4.555  0.4500  3.4147  3.0070
  415MOL0     H54726   1.283   7.507   4.573  0.5173 -0.3719 -2.2359
  415MOL0     H54727   1.401   7.541   4.363 -0.7034  0.5741  1.3964
  415MOL0     H54728   1.347   7.710   4.359 -2.0448  1.7323  0.9802
  415MOL0     H54729   1.243   7.511   4.216  2.3736 -1.2519  1.5324
  415MOL0     H54730   1.144   7.482   4.352  2.9166 -1.7766  0.4785
  415MOL0     H54731   1.177   7.727   4.187  2.2606  0.8770  3.9942
  415MOL0     H54732   1.055   7.721   4.315  1.0586 -2.0591  1.4678
  415MOL0     H54733   1.160   7.565   3.974 -0.4643 -0.9770 -0.0769
  415MOL0     H54734   1.003   7.543   3.745 -0.0308  2.1789  2.2587
  415MOL0     H54735   0.860   7.450   3.769  0.6262 -2.9421 -2.1281
  415MOL0     H54736   1.007   7.289   3.687 -0.3820 -1.4075  0.9228
  415MOL0     H54737   1.019   7.256   3.849  1.1239 -2.1631 -1.2993
  415MOL0     H54738   1.233   7.388   3.867 -0.8444  1.3431 -0.3957
  415MOL0     H54739   1.252   7.266   3.741  2.0157  0.8776 -1.6881
  415MOL0     H54740   1.225   7.562   3.704  0.0321  0.1664  1.3432
  415MOL0     H54741   1.170   7.459   3.585 -2.0059 -5.5260  2.4013
  415MOL0     H54742   1.450   7.664   3.518  2.8832 -0.2144  0.6387
  415MOL0     H54743   1.528   7.695   3.268  0.6470 -1.9789 -2.4169
  415MOL0     H54744   1.503   7.458   2.829 -1.1520 -2.7493 -0.2568
  415MOL0     H54745   1.593   7.460   2.606  0.7599 -1.5653 -1.0699
  415MOL0     H54746   1.834   7.575   2.499  0.4799 -0.4465  0.1141
  415MOL0     H54747   1.713   7.465   2.434 -0.7175  1.5213 -1.6632
  415MOL0     H54748   1.877   7.543   2.277 -0.6896 -1.8774 -2.3560
  415MOL0     H54749   1.895   7.369   2.273 -0.1867  0.2372 -0.9066
  415MOL0     H54750   2.063   7.540   2.456 -0.0296  2.4606  0.4339
  415MOL0     H54751   2.115   7.512   2.283 -0.4452 -0.8759 -0.0942
  415MOL0     H54752   2.075   7.291   2.506 -1.0253 -0.5033 -0.5266
  415MOL0     H54753   2.136   7.265   2.344 -1.1816 -1.6464  0.7295
  415MOL0     H54754   2.260   7.438   2.533 -3.4286  2.3128 -2.4930
  415MOL0     H54755   2.317   7.419   2.363  0.8758  1.9378  0.9829
  415MOL0     H54756   2.299   7.163   2.521 -0.9647 -1.4509 -1.9868
  415MOL0     H54757   2.430   7.288   2.554  0.8387 -0.5135 -0.0731
  415MOL0     H54758   2.355   7.166   2.293  0.7400  1.8553 -1.8906
  415MOL0     H54759   2.484   7.274   2.293  0.0871  1.3885  0.7473
  415MOL0     H54760   2.501   7.015   2.463  0.6795 -1.9102 -0.7913
  415MOL0     H54761   2.636   7.130   2.434  1.4967 -3.7819  1.6618
  415MOL0     H54762   1.940   7.257   2.747  0.9782  1.8222 -0.9484
  415MOL0     H54763   1.823   7.242   2.989 -2.3024 -1.2432  0.1427
  415MOL0     H54764   1.502   7.270   3.233  4.8187  1.1223 -2.7495
  415MOL0     H54765   1.388   7.246   3.451  1.0967 -0.0815 -1.4185
  415MOL0     H54766   1.840   7.581   4.205  1.1945 -1.6569 -3.0561
  415MOL0     H54767   1.979   7.410   4.077  0.4541  0.0228 -0.5513
  415MOL0     H54768   2.326   6.899   4.230 -1.1594 -2.6899 -0.4151
  415MOL0     H54769   2.342   6.701   4.076 -3.3560 -0.6032  1.6221
  415MOL0     H54770   2.371   6.821   3.646  0.1886  0.3414  1.4154
  415MOL0     H54771   2.211   6.760   3.670  1.3202  4.0675 -0.3039
  415MOL0     H54772   2.405   6.611   3.515 -0.4088  0.5297  0.0636
  415MOL0     H54773   2.462   6.565   3.668 -0.1535  1.1321  1.3959
  415MOL0     H54774   2.186   6.506   3.570 -2.2790 -1.2543  1.1749
  415MOL0     H54775   2.213   6.505   3.735 -0.6683  1.9553 -0.2855
  415MOL0     H54776   2.385   6.319   3.696  0.8004 -0.0672 -1.0402
  415MOL0     H54777   2.213   6.285   3.624 -1.8229  2.2859 -0.3151
  415MOL0     H54778   2.440   6.333   3.280 -0.3147 -1.4669 -0.2232
  415MOL0     H54779   2.227   6.950   3.750  2.3014 -1.7475  0.2461
  415MOL0     H54780   2.163   7.124   3.890 -0.7811 -2.8102 -3.5059
  416MOL0     O54781   5.267   2.014   1.019  0.3115  0.0965 -0.0205
  416MOL0     C54782   5.340   2.026   0.926  0.2429  0.7278  0.4889
  416MOL0     O54783   5.315   2.092   0.809  0.1438 -0.6622 -0.1359
  416MOL0     C54784   5.190   2.153   0.808 -0.1354 -0.5309  0.0972
  416MOL0     C54785   5.194   2.297   0.820 -0.0790  0.4706  0.0004
  416MOL0     C54786   5.076   2.366   0.793  0.1985 -0.0502 -0.2876
  416MOL0     C54787   4.957   2.304   0.776 -0.2068 -0.4303  0.8228
  416MOL0     O54788   4.841   2.368   0.756  0.1431 -0.3028 -0.4001
  416MOL0     C54789   4.776   2.372   0.886 -0.1066 -0.9018 -0.0794
  416MOL0     C54790   4.657   2.467   0.889 -0.1747  0.0544 -0.7569
  416MOL0     C54791   4.586   2.468   1.029 -0.1476  0.4776 -0.1095
  416MOL0     C54792   4.473   2.372   1.047  0.5138 -0.1643 -0.0990
  416MOL0     C54793   4.405   2.379   1.181  0.3180  1.0653 -1.0697
  416MOL0     C54794   4.291   2.282   1.201  0.4446 -0.0399  0.3878
  416MOL0     C54795   4.158   2.307   1.127  0.3969  1.0447 -0.5736
  416MOL0     C54796   4.044   2.228   1.194 -0.6980 -0.9244  0.4579
  416MOL0     N54797   3.921   2.265   1.132  0.3488 -0.5836 -0.3293
  416MOL0     C54798   3.876   2.251   0.999  0.1768 -0.1411 -0.4041
  416MOL0     C54799   3.746   2.274   1.006  0.0191 -0.6224  0.7354
  416MOL0     C54800   3.642   2.262   0.895 -1.0080  0.1731  0.3689
  416MOL0     C54801   3.685   2.178   0.765  0.3404 -0.4098  0.2674
  416MOL0     C54802   3.703   2.020   0.789  0.9278 -0.1445 -0.1239
  416MOL0     C54803   3.794   1.949   0.690  0.1209  0.3248  0.3388
  416MOL0     O54804   3.932   1.993   0.674  0.5025  0.2638 -0.3433
  416MOL0     C54805   4.028   1.980   0.773  0.5560  0.5654 -0.1560
  416MOL0     C54806   4.008   1.905   0.885 -0.5073 -0.0916  0.5714
  416MOL0     C54807   4.111   1.894   0.972  0.2609 -0.9441 -0.2172
  416MOL0     C54808   4.240   1.955   0.953 -0.0439 -0.0812  0.5636
  416MOL0     C54809   4.354   1.925   1.039 -1.1618 -0.9293 -0.0609
  416MOL0     O54810   4.442   2.028   1.057 -0.1466 -0.3788 -0.2876
  416MOL0     C54811   4.550   2.023   1.141  0.2120 -0.6734 -0.3467
  416MOL0     C54812   4.674   2.032   1.079 -0.8118  0.1220 -0.4047
  416MOL0     C54813   4.793   2.044   1.156 -0.5038 -0.3641  0.3072
  416MOL0     C54814   4.790   2.035   1.296  1.0511 -0.4858  0.3231
  416MOL0     O54815   4.910   2.031   1.376  0.4922  0.6510  0.4756
  416MOL0     C54816   5.042   2.044   1.316  0.6341 -0.5161 -0.4640
  416MOL0     C54817   5.149   2.072   1.422 -0.2370  0.5798 -0.2163
  416MOL0     C54818   5.290   2.028   1.372  0.4505 -0.6039  0.3534
  416MOL0     C54819   5.399   2.040   1.473 -0.1035 -0.8176 -0.0768
  416MOL0     C54820   5.473   2.163   1.475  0.0619  0.4407  0.3248
  416MOL0     C54821   5.590   2.152   1.563 -0.3377 -0.0900 -0.3054
  416MOL0     C54822   5.715   2.088   1.490  0.2727 -0.3660  0.1346
  416MOL0     C54823   5.834   2.113   1.582  1.1415 -0.7148  0.2861
  416MOL0    Cl54824   5.984   2.037   1.528 -0.0499 -0.2358  0.1763
  416MOL0     C54825   4.668   2.050   1.358 -1.0921 -0.0159  0.4191
  416MOL0     C54826   4.550   2.032   1.285  0.1528  0.5073  0.2218
  416MOL0     O54827   4.372   1.815   1.083  0.1510  0.0394 -0.6523
  416MOL0     C54828   4.260   2.039   0.836  0.4799 -0.0790 -0.2395
  416MOL0     C54829   4.148   2.054   0.750 -0.5590 -0.1480  0.2607
  416MOL0     N54830   3.712   2.304   1.131 -0.0979 -0.3702  0.6592
  416MOL0     N54831   3.810   2.298   1.209 -0.0680  0.3337 -0.1372
  416MOL0     C54832   4.958   2.157   0.748 -0.1145  0.8984  0.0245
  416MOL0     C54833   5.074   2.087   0.763 -0.1516 -1.2662  0.8184
  416MOL0     C54834   5.467   1.948   0.917 -0.5561 -0.4804  0.1203
  416MOL0     C54835   5.533   1.936   0.799 -0.2957  0.6461  0.2937
  416MOL0     C54836   5.660   1.877   0.787 -0.8574 -0.1877 -0.1494
  416MOL0     C54837   5.721   1.806   0.889  0.5093  0.2816 -0.0492
  416MOL0     O54838   5.845   1.760   0.873  0.5068  0.2533 -0.1797
  416MOL0     C54839   5.924   1.704   0.989  0.1733  0.2773  0.0796
  416MOL0     C54840   6.072   1.712   0.953 -0.2457  0.7942 -0.1467
  416MOL0     C54841   6.151   1.661   1.073 -0.5081  0.3551 -0.0408
  416MOL0     C54842   6.305   1.678   1.045  0.1912 -0.3030  0.5023
  416MOL0     C54843   6.391   1.638   1.150  0.1691  0.7576 -0.1826
  416MOL0     C54844   6.471   1.613   1.245 -0.5301 -1.3476 -0.0418
  416MOL0     C54845   5.653   1.803   1.010  1.2367  1.1390 -0.0750
  416MOL0     C54846   5.523   1.866   1.026  0.8384 -0.0407  0.0585
  416MOL0     H54847   5.284   2.356   0.832  1.5395 -1.8612 -0.0899
  416MOL0     H54848   5.063   2.470   0.821  1.7468  0.3111 -0.7702
  416MOL0     H54849   4.843   2.414   0.961 -2.9414  1.4623  1.3095
  416MOL0     H54850   4.742   2.271   0.912 -1.3121 -0.9939 -1.8276
  416MOL0     H54851   4.588   2.449   0.806 -0.2325 -1.7399 -0.3582
  416MOL0     H54852   4.687   2.572   0.881  0.6701 -0.1579 -0.4417
  416MOL0     H54853   4.530   2.562   1.038  0.5364  0.9211 -0.4349
  416MOL0     H54854   4.666   2.458   1.102  0.7271 -0.4104 -1.1557
  416MOL0     H54855   4.398   2.380   0.968 -2.1054 -1.4267  2.1099
  416MOL0     H54856   4.519   2.278   1.017  0.8264  0.5010 -1.8556
  416MOL0     H54857   4.384   2.484   1.202  4.2185  2.4217 -2.9565
  416MOL0     H54858   4.486   2.340   1.245  0.0897  2.5149  0.1439
  416MOL0     H54859   4.261   2.276   1.306 -1.2139  1.4339  0.0342
  416MOL0     H54860   4.325   2.182   1.172 -0.0242 -0.1902  0.3434
  416MOL0     H54861   4.142   2.415   1.136 -0.3501  0.7849  1.6789
  416MOL0     H54862   4.171   2.269   1.025 -0.6070 -2.6899  0.5519
  416MOL0     H54863   4.042   2.270   1.294  1.2043 -1.6304  0.8448
  416MOL0     H54864   4.053   2.119   1.201 -0.9320 -1.0803 -1.2496
  416MOL0     H54865   3.942   2.219   0.919 -0.3999  1.5058 -1.5862
  416MOL0     H54866   3.607   2.359   0.860 -0.9578  0.3721  0.8605
  416MOL0     H54867   3.562   2.202   0.941  0.5810 -0.7586  2.0822
  416MOL0     H54868   3.782   2.222   0.739  0.0305 -0.6873 -1.4887
  416MOL0     H54869   3.611   2.187   0.685 -2.8807  1.5087  3.1723
  416MOL0     H54870   3.738   2.002   0.891  3.4085 -0.2866 -0.9396
  416MOL0     H54871   3.601   1.982   0.790  0.0919  1.8231 -2.0898
  416MOL0     H54872   3.748   1.959   0.592  1.7565  1.4621 -0.3459
  416MOL0     H54873   3.786   1.840   0.695 -0.6301  0.2986 -0.9691
  416MOL0     H54874   3.913   1.868   0.923 -0.8230  2.4174  2.4713
  416MOL0     H54875   4.098   1.833   1.061 -2.7494  1.0421  0.8722
  416MOL0     H54876   4.680   2.015   0.972 -1.1339  0.2504 -0.4449
  416MOL0     H54877   4.891   2.041   1.109 -1.5259 -0.2295 -1.9958
  416MOL0     H54878   5.051   2.130   1.250 -1.2165  0.4492  0.4690
  416MOL0     H54879   5.058   1.951   1.261 -1.8525 -1.9177  0.9742
  416MOL0     H54880   5.123   2.021   1.515 -3.6058  0.0790 -1.3070
  416MOL0     H54881   5.147   2.175   1.461  1.6024  0.0709  1.3706
  416MOL0     H54882   5.309   2.090   1.284  1.5662  0.9322  1.6302
  416MOL0     H54883   5.296   1.923   1.340  0.6385 -0.1873 -1.0712
  416MOL0     H54884   5.352   2.012   1.568  0.5357  2.6549  1.4164
  416MOL0     H54885   5.463   1.952   1.462  0.1900 -0.4241 -1.6719
  416MOL0     H54886   5.406   2.244   1.507  1.2848  1.6664 -0.1373
  416MOL0     H54887   5.508   2.179   1.373 -0.9603  1.5293  0.1172
  416MOL0     H54888   5.574   2.084   1.648 -0.4379 -0.9649 -1.0093
  416MOL0     H54889   5.623   2.251   1.597  2.9425 -1.9116  2.5223
  416MOL0     H54890   5.696   1.981   1.482 -1.0441 -0.0251 -3.3947
  416MOL0     H54891   5.731   2.138   1.393 -0.5940 -1.1216 -0.4114
  416MOL0     H54892   5.808   2.083   1.683 -2.4352  2.9996  0.7359
  416MOL0     H54893   5.846   2.222   1.583 -0.1644 -0.5040 -1.3168
  416MOL0     H54894   4.655   2.064   1.465  0.3453  2.9717  0.2999
  416MOL0     H54895   4.459   2.042   1.344  0.6555  2.6094  0.7507
  416MOL0     H54896   4.342   2.105   0.808 -2.1763  2.9097 -1.6352
  416MOL0     H54897   4.165   2.119   0.665  1.0384 -1.5228 -0.5439
  416MOL0     H54898   4.865   2.106   0.725  1.3801 -1.0148 -2.2226
  416MOL0     H54899   5.076   1.982   0.735  0.3491 -1.4091  1.3767
  416MOL0     H54900   5.504   1.984   0.705  0.0661 -0.6745 -0.5177
  416MOL0     H54901   5.717   1.883   0.695 -1.8937 -2.9077 -1.0820
  416MOL0     H54902   5.903   1.599   1.011 -0.3773  0.1830 -0.8384
  416MOL0     H54903   5.893   1.757   1.080 -0.4386 -2.1213  1.3542
  416MOL0     H54904   6.097   1.645   0.870  1.4742 -0.5605  1.3614
  416MOL0     H54905   6.099   1.817   0.941 -2.2745  1.1511 -2.3462
  416MOL0     H54906   6.139   1.553   1.085  2.2713 -0.1697 -1.2715
  416MOL0     H54907   6.116   1.707   1.166  0.3325 -1.6148  1.3168
  416MOL0     H54908   6.330   1.629   0.950 -3.6499 -0.1518 -0.7666
  416MOL0     H54909   6.333   1.783   1.030 -2.1326  0.3739  0.5075
  416MOL0     H54910   6.550   1.588   1.312  1.4314  5.1251  0.7426
  416MOL0     H54911   5.685   1.760   1.104  0.1502  2.8547  1.1526
  416MOL0     H54912   5.465   1.847   1.115 -1.1663  0.5943 -1.0493
  417MOL0     O54913   8.096   1.503   6.030 -0.7913 -0.6485 -0.5880
  417MOL0     C54914   8.152   1.584   6.104 -0.1739  0.1345 -0.9076
  417MOL0     O54915   8.109   1.718   6.118  0.6676 -0.4809 -0.2227
  417MOL0     C54916   7.992   1.757   6.057  0.0503  1.2016  1.0465
  417MOL0     C54917   7.868   1.760   6.130 -1.0379 -1.0960 -0.8826
  417MOL0     C54918   7.752   1.783   6.056  0.0305  0.5449  0.1514
  417MOL0     C54919   7.751   1.810   5.920 -0.5949 -0.3454  0.2431
  417MOL0     O54920   7.645   1.816   5.836 -0.2181 -0.4692 -0.7935
  417MOL0     C54921   7.523   1.742   5.858 -1.0979  0.4902 -0.0553
  417MOL0     C54922   7.427   1.768   5.731  0.1411 -0.2209  1.0175
  417MOL0     C54923   7.351   1.644   5.667 -0.9704  0.0696 -0.9614
  417MOL0     C54924   7.218   1.689   5.607  0.5702  0.2575 -0.4682
  417MOL0     C54925   7.131   1.573   5.560 -0.4061 -0.3765 -1.0072
  417MOL0     C54926   7.103   1.457   5.663 -0.6457  0.6436 -0.3449
  417MOL0     C54927   7.038   1.506   5.786 -0.3774 -0.1666  0.0436
  417MOL0     C54928   6.950   1.407   5.866 -0.1317 -0.0846  0.9282
  417MOL0     N54929   7.038   1.305   5.919  0.0650  0.3167  0.3636
  417MOL0     C54930   7.042   1.274   6.052 -0.5450  0.4667  0.0496
  417MOL0     C54931   7.147   1.182   6.057  0.6924 -0.0840  0.1833
  417MOL0     C54932   7.179   1.100   6.179  0.1339 -0.4124  1.2824
  417MOL0     C54933   7.117   1.167   6.304 -0.2860  0.7255  0.3148
  417MOL0     C54934   7.179   1.116   6.438 -0.2236 -0.0219  0.1363
  417MOL0     C54935   7.163   1.216   6.551 -0.8998  0.5974  0.2718
  417MOL0     O54936   7.034   1.256   6.596  0.1846 -0.7255 -0.2466
  417MOL0     C54937   6.917   1.197   6.561 -0.5068  0.2434  0.6400
  417MOL0     C54938   6.821   1.264   6.481 -0.4766  0.5422 -0.3888
  417MOL0     C54939   6.697   1.206   6.461 -0.8434  0.3652 -1.1365
  417MOL0     C54940   6.654   1.079   6.507  0.1521  0.0724 -0.0296
  417MOL0     C54941   6.518   1.027   6.496  0.0645 -0.3244 -0.2171
  417MOL0     O54942   6.481   0.921   6.586  0.4726 -0.8104  0.8966
  417MOL0     C54943   6.350   0.877   6.555  0.4216 -0.0705 -1.2333
  417MOL0     C54944   6.248   0.894   6.650  0.5961 -0.4962  0.6263
  417MOL0     C54945   6.114   0.852   6.629  0.0581 -0.0301 -1.1611
  417MOL0     C54946   6.076   0.783   6.509 -0.8141  0.1867 -1.1594
  417MOL0     O54947   5.951   0.737   6.488  0.2200 -0.2717 -0.7589
  417MOL0     C54948   5.926   0.599   6.505 -0.3436  0.7168  0.6458
  417MOL0     C54949   5.790   0.575   6.448 -0.4732  0.4161 -0.5713
  417MOL0     C54950   5.788   0.557   6.291 -0.2940  0.2027 -0.3307
  417MOL0     C54951   5.647   0.525   6.229  0.3933  0.2024  0.1464
  417MOL0     C54952   5.663   0.499   6.067  0.5698  0.0559 -0.4964
  417MOL0     C54953   5.750   0.393   6.024  0.4625  0.8214  0.7602
  417MOL0     C54954   5.732   0.344   5.879  0.2939  0.4546  0.0791
  417MOL0     C54955   5.595   0.322   5.827 -0.6440  0.1504 -0.0704
  417MOL0    Cl54956   5.522   0.169   5.897 -0.2822  0.2456 -0.8514
  417MOL0     C54957   6.186   0.757   6.421  0.2729  0.8280 -0.3134
  417MOL0     C54958   6.315   0.805   6.443 -0.3372 -0.6664  0.4004
  417MOL0     O54959   6.456   1.073   6.397 -0.6417  0.5752  0.6275
  417MOL0     C54960   6.755   1.007   6.569 -0.5768  0.4649 -0.5387
  417MOL0     C54961   6.887   1.067   6.596 -0.0841 -0.6263  0.1429
  417MOL0     N54962   7.211   1.164   5.934  0.1999  1.2702  0.9898
  417MOL0     N54963   7.146   1.247   5.860  0.0238  0.2194  0.3476
  417MOL0     C54964   7.875   1.832   5.861  0.3892  0.1767 -0.3994
  417MOL0     C54965   7.993   1.809   5.931 -0.0480  0.2564  0.9997
  417MOL0     C54966   8.277   1.549   6.170 -0.0998 -0.6686 -0.4754
  417MOL0     C54967   8.310   1.587   6.304  0.2627 -0.8051 -1.0137
  417MOL0     C54968   8.438   1.558   6.364  0.2207 -0.0422 -0.1018
  417MOL0     C54969   8.535   1.503   6.281 -1.0509  0.3413  0.1090
  417MOL0     O54970   8.658   1.475   6.324 -0.4084  0.7360 -0.0190
  417MOL0     C54971   8.671   1.338   6.376 -0.5202  0.3596 -0.1886
  417MOL0     C54972   8.814   1.328   6.422  0.5231  0.1990  0.9311
  417MOL0     C54973   8.846   1.200   6.488  0.1580  0.4802 -0.0085
  417MOL0     C54974   8.892   1.205   6.639  1.0938 -0.1901 -0.3218
  417MOL0     C54975   8.768   1.241   6.721  0.7021 -0.4517 -1.0639
  417MOL0     C54976   8.665   1.255   6.781 -0.0513 -0.4533  0.1623
  417MOL0     C54977   8.505   1.469   6.150 -0.8339 -0.1710  0.3068
  417MOL0     C54978   8.385   1.494   6.094  1.8307  0.6185  0.6016
  417MOL0     H54979   7.863   1.757   6.238  1.6707  3.1211 -0.4037
  417MOL0     H54980   7.664   1.774   6.117 -0.8392 -4.2770 -1.4505
  417MOL0     H54981   7.479   1.784   5.949 -1.1121  1.2878 -0.4255
  417MOL0     H54982   7.534   1.633   5.863 -3.1677  0.2777  2.0730
  417MOL0     H54983   7.484   1.811   5.648  1.1618 -4.8796 -1.0367
  417MOL0     H54984   7.355   1.845   5.759 -3.7556 -2.6998 -1.2767
  417MOL0     H54985   7.357   1.565   5.742  3.1545 -1.1430 -2.3069
  417MOL0     H54986   7.412   1.602   5.587 -1.5131  1.4552 -2.1469
  417MOL0     H54987   7.156   1.727   5.689 -0.3729  0.0426 -1.0647
  417MOL0     H54988   7.222   1.776   5.541 -2.5110  3.3342  2.9489
  417MOL0     H54989   7.189   1.536   5.475  0.3039 -1.0108 -0.2761
  417MOL0     H54990   7.039   1.620   5.525 -1.9522 -0.4883  2.5071
  417MOL0     H54991   7.200   1.407   5.678 -0.6818  0.0612 -1.9135
  417MOL0     H54992   7.040   1.375   5.628 -1.5105  1.7260 -1.3554
  417MOL0     H54993   7.111   1.542   5.859 -1.4231  0.7251  0.7079
  417MOL0     H54994   6.971   1.588   5.756 -0.3918 -0.9012 -2.0968
  417MOL0     H54995   6.868   1.382   5.799 -1.8781  0.3014  2.8063
  417MOL0     H54996   6.909   1.475   5.941 -1.0772  0.7743 -0.3299
  417MOL0     H54997   6.971   1.298   6.130  0.2359  4.3362 -0.2280
  417MOL0     H54998   7.288   1.099   6.171  0.1103  1.3268  0.0506
  417MOL0     H54999   7.135   1.000   6.179 -2.5642  0.6811  1.3807
  417MOL0     H55000   7.009   1.149   6.301  0.1408 -2.1973 -2.2563
  417MOL0     H55001   7.135   1.274   6.302 -0.1553  0.7890  2.3186
  417MOL0     H55002   7.136   1.021   6.473 -1.5417 -0.1187 -1.5885
  417MOL0     H55003   7.283   1.089   6.418 -0.5988 -1.8713  0.4867
  417MOL0     H55004   7.221   1.304   6.524 -1.3612  0.6307 -0.6254
  417MOL0     H55005   7.201   1.167   6.641  0.6607 -0.8833 -1.1184
  417MOL0     H55006   6.838   1.361   6.436 -0.4276  1.3719  1.3422
  417MOL0     H55007   6.630   1.274   6.409  0.9907  1.5140 -2.0876
  417MOL0     H55008   6.283   0.930   6.747  2.2959  0.0076 -0.1402
  417MOL0     H55009   6.042   0.855   6.710  1.5386 -1.6223  0.2644
  417MOL0     H55010   5.940   0.567   6.609  2.7245 -1.7110 -0.3743
  417MOL0     H55011   5.999   0.542   6.448  1.0873  1.5895  1.5524
  417MOL0     H55012   5.727   0.661   6.473 -0.8682 -0.7737  3.2171
  417MOL0     H55013   5.746   0.487   6.496 -0.2007  1.6358  2.0977
  417MOL0     H55014   5.851   0.470   6.268 -0.0741 -0.9949  3.9483
  417MOL0     H55015   5.831   0.644   6.241  0.6265  1.8540  3.0266
  417MOL0     H55016   5.600   0.438   6.276 -0.4354  0.1137 -0.8058
  417MOL0     H55017   5.580   0.610   6.244 -0.7309 -0.6750  0.3459
  417MOL0     H55018   5.700   0.598   6.040 -0.9310  0.9727  0.6121
  417MOL0     H55019   5.564   0.492   6.022 -0.0241  1.2245  0.5685
  417MOL0     H55020   5.753   0.305   6.090  0.7494 -1.2416 -1.8420
  417MOL0     H55021   5.853   0.427   6.035  0.7436 -0.3482  2.0805
  417MOL0     H55022   5.780   0.415   5.811  1.3489 -1.9939 -1.8794
  417MOL0     H55023   5.786   0.249   5.871  1.2089  0.9183  0.6512
  417MOL0     H55024   5.601   0.303   5.719 -0.5079  0.9928 -0.2143
  417MOL0     H55025   5.538   0.414   5.840  1.2048  1.3267  0.0376
  417MOL0     H55026   6.160   0.712   6.326  0.1675  3.8479 -1.8243
  417MOL0     H55027   6.408   0.788   6.388  1.1623  0.7325  2.3478
  417MOL0     H55028   6.754   0.902   6.594  1.4937  0.3131 -0.9135
  417MOL0     H55029   6.955   0.998   6.645  0.4773 -0.4444 -0.3601
  417MOL0     H55030   7.881   1.847   5.754 -0.7815 -3.4838 -1.1190
  417MOL0     H55031   8.088   1.807   5.879 -1.1938  0.7492 -1.2117
  417MOL0     H55032   8.235   1.641   6.361 -0.1836 -0.1724 -2.1780
  417MOL0     H55033   8.444   1.582   6.469 -1.0068  1.9234 -0.4279
  417MOL0     H55034   8.650   1.264   6.299 -2.4132  1.0730 -0.4273
  417MOL0     H55035   8.600   1.338   6.460  0.2080  1.4908  0.4565
  417MOL0     H55036   8.880   1.347   6.337  3.4149 -5.1133  1.5645
  417MOL0     H55037   8.826   1.410   6.492 -7.0313 -0.2267  3.7056
  417MOL0     H55038   8.928   1.156   6.431 -1.9272 -2.4160 -1.0042
  417MOL0     H55039   8.761   1.130   6.485  1.9464 -1.8819  1.1687
  417MOL0     H55040   8.939   1.109   6.661  0.1228 -0.3826  0.9943
  417MOL0     H55041   8.972   1.279   6.650  0.1181  0.8523 -0.1025
  417MOL0     H55042   8.571   1.267   6.832  0.0115  0.2133  0.1268
  417MOL0     H55043   8.579   1.412   6.095 -1.7274 -0.2435 -0.8606
  417MOL0     H55044   8.370   1.483   5.987  1.9037 -0.4173  0.6907
  418MOL0     O55045  10.801   0.542   6.967 -0.3270  0.4529  0.3454
  418MOL0     C55046  10.747   0.604   6.883 -0.3905 -0.5068  1.3353
  418MOL0     O55047  10.628   0.656   6.894  0.6232  0.3857 -0.4924
  418MOL0     C55048  10.549   0.637   7.017 -0.6658  0.4681 -0.2124
  418MOL0     C55049  10.571   0.552   7.127  0.0754  0.1796  0.4045
  418MOL0     C55050  10.497   0.565   7.244 -0.5206 -0.2844  0.5954
  418MOL0     C55051  10.404   0.661   7.254 -0.2766 -1.1348 -0.6915
  418MOL0     O55052  10.330   0.694   7.369 -0.3072 -0.0611 -0.3090
  418MOL0     C55053  10.366   0.643   7.499  1.2941  1.0027  0.3796
  418MOL0     C55054  10.346   0.758   7.601  0.2110  0.9178  0.0497
  418MOL0     C55055  10.193   0.795   7.614 -0.5284  0.2651  0.1391
  418MOL0     C55056  10.192   0.942   7.652 -0.0335 -0.6080 -0.8433
  418MOL0     C55057  10.243   0.974   7.798 -0.4382  0.4285  0.3689
  418MOL0     C55058  10.184   0.901   7.919  0.0220 -0.3680  0.0639
  418MOL0     C55059  10.221   0.967   8.054  0.8912  0.4611  0.6062
  418MOL0     C55060  10.368   0.938   8.095 -0.4268 -1.3597  0.1688
  418MOL0     N55061  10.409   0.798   8.093 -0.2744 -0.4601 -0.3453
  418MOL0     C55062  10.479   0.731   7.992 -0.0622 -0.3678  0.2067
  418MOL0     C55063  10.463   0.592   8.021 -0.8659 -0.0412  0.1469
  418MOL0     C55064  10.550   0.481   7.962  0.1839 -0.5287  0.0647
  418MOL0     C55065  10.611   0.502   7.823  0.2785  0.8515  1.0830
  418MOL0     C55066  10.711   0.387   7.765  0.5384 -0.3438 -0.9630
  418MOL0     C55067  10.762   0.424   7.627  0.2325  0.7673  0.5028
  418MOL0     O55068  10.882   0.496   7.639  0.7270 -0.6662  0.8207
  418MOL0     C55069  10.967   0.484   7.536 -1.3577  1.0335 -0.5386
  418MOL0     C55070  11.088   0.412   7.566  0.2606  0.5473  0.0233
  418MOL0     C55071  11.179   0.368   7.467  0.3591  0.2673 -0.2865
  418MOL0     C55072  11.157   0.397   7.339  0.0874 -0.3359  0.3981
  418MOL0     C55073  11.244   0.351   7.227 -0.2783 -0.0100 -0.7192
  418MOL0     O55074  11.214   0.403   7.101  0.1261  0.2192  0.0764
  418MOL0     C55075  11.248   0.346   6.976 -0.2150 -0.1299  0.1849
  418MOL0     C55076  11.233   0.420   6.860 -0.7281 -0.5780 -0.2509
  418MOL0     C55077  11.252   0.355   6.742  0.8434 -0.3078 -0.1051
  418MOL0     C55078  11.306   0.226   6.731 -0.1054  0.0154 -0.2532
  418MOL0     O55079  11.338   0.187   6.602 -0.3049  0.5558 -0.0297
  418MOL0     C55080  11.400   0.067   6.578 -0.0872 -0.2776  0.2171
  418MOL0     C55081  11.407   0.036   6.430 -0.3030  0.3867 -0.0490
  418MOL0     C55082  11.309  -0.085   6.393 -0.5774 -0.5059 -0.9606
  418MOL0     C55083  11.347  -0.119   6.252 -0.5479  0.0635 -0.0323
  418MOL0     C55084  11.267  -0.239   6.192  0.6449  0.2893 -0.0967
  418MOL0     C55085  11.137  -0.187   6.153  0.7392 -0.0813  0.5500
  418MOL0     C55086  11.036  -0.292   6.091  0.1872 -0.4207  0.0128
  418MOL0     C55087  10.909  -0.232   6.045 -0.1880 -0.7490 -0.3959
  418MOL0    Cl55088  10.809  -0.187   6.188 -0.1920 -0.1744  0.1597
  418MOL0     C55089  11.322   0.152   6.845 -0.4666  0.7160 -0.4744
  418MOL0     C55090  11.278   0.200   6.969 -0.3572 -0.7290 -0.3215
  418MOL0     O55091  11.347   0.288   7.253 -0.3497  0.1474 -0.0799
  418MOL0     C55092  11.041   0.473   7.312  0.7056  0.0894  0.1504
  418MOL0     C55093  10.951   0.517   7.408 -0.3489  0.3251  0.7207
  418MOL0     N55094  10.402   0.585   8.146 -0.4793  0.7870  0.4303
  418MOL0     N55095  10.353   0.704   8.179 -0.1605 -0.4548 -0.8143
  418MOL0     C55096  10.377   0.739   7.143 -0.5165 -0.1945 -1.3729
  418MOL0     C55097  10.447   0.730   7.025 -0.4522 -0.0248  0.2543
  418MOL0     C55098  10.804   0.592   6.744  0.4028  0.1791 -0.5229
  418MOL0     C55099  10.895   0.489   6.715  0.3080 -0.4068 -0.6050
  418MOL0     C55100  10.939   0.465   6.587  0.4894 -0.1658  1.8502
  418MOL0     C55101  10.891   0.538   6.480  0.1955  0.0657 -0.7497
  418MOL0     O55102  10.934   0.509   6.354  0.8264  0.7656 -0.4540
  418MOL0     C55103  11.062   0.543   6.303 -0.4416  0.0112 -0.0823
  418MOL0     C55104  11.165   0.439   6.305 -0.6600 -0.0937  0.2599
  418MOL0     C55105  11.149   0.337   6.193  0.7813  0.0448  0.4080
  418MOL0     C55106  11.223   0.377   6.064  0.7336  1.3992 -0.4544
  418MOL0     C55107  11.204   0.261   5.976  0.0681  0.1474  0.1760
  418MOL0     C55108  11.196   0.162   5.901  1.8398 -0.3938  0.2805
  418MOL0     C55109  10.798   0.638   6.502 -0.0615 -0.4805 -0.1301
  418MOL0     C55110  10.755   0.666   6.632  0.2207 -0.5263  0.0756
  418MOL0     H55111  10.647   0.476   7.139 -0.1432  0.0474  1.0073
  418MOL0     H55112  10.532   0.505   7.328 -1.8115  0.2655  1.5487
  418MOL0     H55113  10.469   0.607   7.489  1.2495  1.5796 -3.6143
  418MOL0     H55114  10.310   0.552   7.519  1.6607  0.6852 -0.0149
  418MOL0     H55115  10.402   0.847   7.574 -0.6315  2.2292  2.3374
  418MOL0     H55116  10.385   0.730   7.700  2.4296  0.3858 -0.9259
  418MOL0     H55117  10.140   0.732   7.686  2.7969  1.3037  3.8322
  418MOL0     H55118  10.134   0.788   7.522  1.7222  0.4281 -1.4035
  418MOL0     H55119  10.258   0.999   7.585  0.4267 -0.2160 -0.0754
  418MOL0     H55120  10.093   0.985   7.635  1.1453  2.8445  0.0397
  418MOL0     H55121  10.229   1.082   7.806  3.7533  1.1651 -0.2020
  418MOL0     H55122  10.351   0.957   7.807 -0.6035 -0.8599  0.1591
  418MOL0     H55123  10.207   0.794   7.926 -0.9784 -0.7019 -1.3597
  418MOL0     H55124  10.075   0.899   7.910 -0.3210 -3.5518  2.9162
  418MOL0     H55125  10.207   1.075   8.051 -0.4966  0.2829 -0.0211
  418MOL0     H55126  10.151   0.923   8.127  1.8188 -1.5545  0.3605
  418MOL0     H55127  10.362   0.973   8.198  0.4720 -1.6547  0.3316
  418MOL0     H55128  10.447   1.002   8.055 -0.3747 -3.5134 -3.6569
  418MOL0     H55129  10.544   0.781   7.921 -0.7601 -2.4389 -2.0261
  418MOL0     H55130  10.498   0.386   7.977  0.5819 -0.5355  1.5656
  418MOL0     H55131  10.635   0.476   8.030 -1.5579  1.0894  2.4867
  418MOL0     H55132  10.661   0.599   7.812 -0.9394  1.4173  0.3047
  418MOL0     H55133  10.529   0.514   7.751 -0.4387 -1.0082  1.5403
  418MOL0     H55134  10.795   0.362   7.831 -0.3671 -1.6848 -0.2646
  418MOL0     H55135  10.662   0.289   7.762  1.8856 -1.2008  1.7733
  418MOL0     H55136  10.687   0.487   7.580  0.6613 -1.3254 -3.3371
  418MOL0     H55137  10.778   0.332   7.570 -0.5431 -0.3276  1.9558
  418MOL0     H55138  11.113   0.393   7.670  2.0712 -2.2666 -0.8214
  418MOL0     H55139  11.271   0.318   7.495 -1.0658 -2.3368  0.0797
  418MOL0     H55140  11.218   0.528   6.858  1.1496 -0.2750  0.6285
  418MOL0     H55141  11.238   0.422   6.657  0.6614  3.2258  2.5059
  418MOL0     H55142  11.347  -0.017   6.625  1.5064 -0.8293  1.1234
  418MOL0     H55143  11.501   0.080   6.618 -1.1462  4.0892  2.0587
  418MOL0     H55144  11.509   0.015   6.400 -1.3854 -1.2950 -2.9668
  418MOL0     H55145  11.378   0.119   6.365 -1.0734 -0.1904 -0.4695
  418MOL0     H55146  11.203  -0.063   6.411  0.2359  2.5520  0.6744
  418MOL0     H55147  11.337  -0.174   6.451 -0.1188 -1.7373 -2.9686
  418MOL0     H55148  11.335  -0.035   6.183  0.7542  1.2625  1.1474
  418MOL0     H55149  11.454  -0.140   6.251 -0.8028 -1.4551  1.2614
  418MOL0     H55150  11.267  -0.328   6.256  1.7782 -1.5645 -2.4786
  418MOL0     H55151  11.312  -0.278   6.100 -1.7941 -1.3605 -0.7008
  418MOL0     H55152  11.152  -0.121   6.067 -0.1447 -2.4927 -1.6062
  418MOL0     H55153  11.079  -0.150   6.237  1.4713 -3.4643  2.7396
  418MOL0     H55154  11.075  -0.356   6.010 -0.2605 -0.4457 -0.1854
  418MOL0     H55155  11.003  -0.357   6.173  4.1625 -1.6981  0.8432
  418MOL0     H55156  10.851  -0.298   5.980  2.2435 -2.3426 -1.0812
  418MOL0     H55157  10.928  -0.141   5.989  2.8968 -2.6717 -2.8318
  418MOL0     H55158  11.360   0.051   6.835  2.8221  1.8561 -0.9110
  418MOL0     H55159  11.277   0.129   7.050  0.1157 -1.0132 -0.5620
  418MOL0     H55160  11.016   0.483   7.207  3.0683  2.5474 -0.2998
  418MOL0     H55161  10.873   0.583   7.371  0.9457  0.2855 -2.3483
  418MOL0     H55162  10.285   0.796   7.151 -0.7657 -0.7157 -0.2607
  418MOL0     H55163  10.425   0.803   6.947  1.1345 -1.4220 -1.5796
  418MOL0     H55164  10.938   0.435   6.798 -0.0199 -0.0916 -0.2291
  418MOL0     H55165  11.001   0.380   6.563 -2.3171 -2.0862  0.8365
  418MOL0     H55166  11.099   0.610   6.381 -0.6657 -0.1726  0.1807
  418MOL0     H55167  11.051   0.593   6.206 -0.8519 -2.9863 -1.7164
  418MOL0     H55168  11.263   0.486   6.300  0.2940 -1.8323  1.3805
  418MOL0     H55169  11.170   0.386   6.401  3.4825  1.9659  1.3902
  418MOL0     H55170  11.042   0.333   6.173  0.0743 -0.0958  3.5688
  418MOL0     H55171  11.178   0.241   6.237 -1.0899 -0.0140  1.6182
  418MOL0     H55172  11.177   0.468   6.024  0.3263  2.0324  1.3315
  418MOL0     H55173  11.327   0.393   6.095  1.1632 -3.9559  2.0032
  418MOL0     H55174  11.193   0.079   5.833  0.2607 -1.1000  1.1554
  418MOL0     H55175  10.767   0.692   6.413  2.0243 -0.3500 -0.8304
  418MOL0     H55176  10.684   0.746   6.652  0.1835 -0.8592  1.3043
  419MOL0     O55177   1.198   8.793   6.792 -0.5548 -0.1965  0.4789
  419MOL0     C55178   1.212   8.856   6.900  0.2143 -0.9176 -0.1498
  419MOL0     O55179   1.293   8.818   7.001  0.7085 -0.1472 -0.1234
  419MOL0     C55180   1.310   8.681   7.015  0.6914  0.2833  0.6241
  419MOL0     C55181   1.437   8.620   6.995  0.6952  0.8305 -0.0275
  419MOL0     C55182   1.442   8.475   7.004 -0.3673  0.8044  0.1093
  419MOL0     C55183   1.331   8.402   7.034  0.4918  0.1193 -1.2488
  419MOL0     O55184   1.332   8.261   7.056  0.9216 -0.3327  0.4035
  419MOL0     C55185   1.452   8.186   7.012 -0.1266 -0.4945  0.1988
  419MOL0     C55186   1.410   8.040   7.003 -0.3333 -0.2681 -0.0641
  419MOL0     C55187   1.317   8.013   6.883  0.8469  0.1411  0.1473
  419MOL0     C55188   1.257   7.873   6.889  0.3867 -0.4800  0.4890
  419MOL0     C55189   1.164   7.849   6.770 -0.1110 -0.0988 -0.2193
  419MOL0     C55190   1.109   7.704   6.779  0.2329  0.7964  0.6661
  419MOL0     C55191   1.051   7.664   6.640 -0.4561  0.3448 -0.6681
  419MOL0     C55192   0.986   7.529   6.643  0.1903  1.1157  0.2883
  419MOL0     N55193   0.858   7.543   6.716 -0.6621 -0.1626  0.5625
  419MOL0     C55194   0.740   7.512   6.657  0.2987  0.9392 -0.7704
  419MOL0     C55195   0.664   7.474   6.758 -0.3755  0.6237 -0.4154
  419MOL0     C55196   0.522   7.426   6.748 -0.0893  0.0714 -0.0466
  419MOL0     C55197   0.502   7.273   6.742  0.0765  1.4462 -0.1695
  419MOL0     C55198   0.362   7.236   6.691  0.5981 -0.1414  0.0021
  419MOL0     C55199   0.250   7.302   6.770  0.1088 -0.1943 -0.2674
  419MOL0     O55200   0.133   7.226   6.734 -0.0104  0.0944 -0.0304
  419MOL0     C55201   0.049   7.272   6.635 -0.0683 -0.3852 -0.3294
  419MOL0     C55202  -0.016   7.179   6.558 -1.0748 -0.2517  1.2227
  419MOL0     C55203  -0.090   7.223   6.442 -0.3235 -0.9664 -0.6356
  419MOL0     C55204  -0.113   7.355   6.415  0.2494  0.0204 -0.4172
  419MOL0     C55205  -0.189   7.406   6.303 -0.0093  0.1170  0.2992
  419MOL0     O55206  -0.203   7.322   6.195 -0.0077  0.5931  0.5948
  419MOL0     C55207  -0.241   7.369   6.071 -0.2291  0.1914  0.5227
  419MOL0     C55208  -0.295   7.274   5.983  0.5996  0.4900 -0.8729
  419MOL0     C55209  -0.330   7.311   5.856  0.0067  0.2257  0.2599
  419MOL0     C55210  -0.285   7.425   5.797  0.9902  0.3043  1.1938
  419MOL0     O55211  -0.321   7.451   5.669  0.5678  0.5298  1.1469
  419MOL0     C55212  -0.352   7.584   5.619  0.9894  0.1874 -0.8055
  419MOL0     C55213  -0.389   7.586   5.470  0.9169  0.7001  0.3358
  419MOL0     C55214  -0.272   7.614   5.383 -0.2070 -0.0124  0.8179
  419MOL0     C55215  -0.307   7.592   5.233 -0.2780  0.3885 -1.2859
  419MOL0     C55216  -0.217   7.655   5.126 -0.7392  0.5836 -0.4537
  419MOL0     C55217  -0.287   7.634   4.989 -0.1231  0.6485 -0.5010
  419MOL0     C55218  -0.358   7.769   4.935 -0.4771 -0.1634  0.4280
  419MOL0     C55219  -0.393   7.747   4.778  0.0034 -0.1702 -0.3005
  419MOL0    Cl55220  -0.513   7.616   4.743 -0.5395  0.2685  0.2179
  419MOL0     C55221  -0.219   7.516   5.873  0.2216 -0.0367 -0.0441
  419MOL0     C55222  -0.200   7.485   6.007 -1.2755  0.4188 -0.2589
  419MOL0     O55223  -0.234   7.522   6.307  0.1792  0.5180 -0.3143
  419MOL0     C55224  -0.061   7.447   6.510 -0.2442  0.7660 -0.3282
  419MOL0     C55225   0.029   7.402   6.609 -0.3771 -0.1579  0.6159
  419MOL0     N55226   0.733   7.478   6.875  0.0628 -0.4343 -0.8181
  419MOL0     N55227   0.853   7.493   6.847 -0.7770 -0.1024  0.0414
  419MOL0     C55228   1.207   8.469   7.050  0.1274  0.0919 -0.9503
  419MOL0     C55229   1.196   8.606   7.048 -0.2725  0.4214  0.7190
  419MOL0     C55230   1.142   8.971   6.935 -0.0307  0.0765  0.8104
  419MOL0     C55231   1.075   9.058   6.841  0.0108  0.3532  0.4606
  419MOL0     C55232   1.011   9.169   6.875  0.1133  0.5047 -1.4920
  419MOL0     C55233   1.014   9.207   7.008 -0.4467 -0.2457 -1.1606
  419MOL0     O55234   0.935   9.310   7.064  0.3047 -0.6772  0.3458
  419MOL0     C55235   0.813   9.341   7.004  0.0188 -0.3476  0.0121
  419MOL0     C55236   0.711   9.238   7.021 -0.4908 -0.1952  0.0566
  419MOL0     C55237   0.641   9.247   7.156  1.5840 -0.0097 -0.7364
  419MOL0     C55238   0.708   9.189   7.277 -0.0870  0.0380 -0.0388
  419MOL0     C55239   0.612   9.130   7.376 -0.0087  1.1471  0.1167
  419MOL0     C55240   0.550   9.049   7.438  0.3859  0.4614 -0.4592
  419MOL0     C55241   1.080   9.141   7.102 -0.1033  0.1083  0.4202
  419MOL0     C55242   1.139   9.021   7.064  0.2448  0.6492  0.1500
  419MOL0     H55243   1.510   8.691   6.959 -2.1484  3.8330 -0.3670
  419MOL0     H55244   1.535   8.430   6.971 -0.2469  0.6820  0.6174
  419MOL0     H55245   1.530   8.209   7.085  3.3595 -5.0251 -1.6207
  419MOL0     H55246   1.485   8.223   6.915 -0.3702 -0.4457  0.1314
  419MOL0     H55247   1.365   8.012   7.098 -1.8981  0.9733 -0.3982
  419MOL0     H55248   1.499   7.976   7.003  1.7066  2.2974 -1.7988
  419MOL0     H55249   1.382   8.031   6.797  1.9354 -1.5352  0.5659
  419MOL0     H55250   1.231   8.080   6.877 -1.7352 -2.8323  1.0082
  419MOL0     H55251   1.342   7.804   6.894  1.2306  0.6027  1.6415
  419MOL0     H55252   1.209   7.854   6.985 -0.4587 -1.8484 -0.1775
  419MOL0     H55253   1.209   7.863   6.671  3.4698 -2.3778  0.8986
  419MOL0     H55254   1.082   7.922   6.772 -0.3244 -0.3521  0.5188
  419MOL0     H55255   1.030   7.693   6.855 -2.7792  4.4426 -1.5572
  419MOL0     H55256   1.184   7.628   6.799 -2.6592 -2.8464 -1.1415
  419MOL0     H55257   0.986   7.746   6.607  2.0667  2.8314  0.2257
  419MOL0     H55258   1.124   7.661   6.558 -1.0115 -0.0655 -1.1635
  419MOL0     H55259   1.058   7.459   6.686 -0.7491 -0.3320 -0.4069
  419MOL0     H55260   0.963   7.491   6.543  0.1326 -0.6187  0.9090
  419MOL0     H55261   0.709   7.523   6.553  0.6355  0.1036 -0.9649
  419MOL0     H55262   0.463   7.473   6.669  1.6168 -0.3689 -1.6390
  419MOL0     H55263   0.485   7.440   6.850  0.2705  2.6701 -0.2111
  419MOL0     H55264   0.510   7.232   6.843 -2.7671 -0.3244 -0.5284
  419MOL0     H55265   0.572   7.227   6.673 -1.9988 -3.0417  0.3276
  419MOL0     H55266   0.354   7.265   6.586  1.7904 -0.3784 -0.1643
  419MOL0     H55267   0.353   7.128   6.698 -1.3760  0.0331  0.8661
  419MOL0     H55268   0.247   7.406   6.735  0.8780 -0.2054 -0.3726
  419MOL0     H55269   0.257   7.305   6.879 -1.8646  2.3205 -0.1150
  419MOL0     H55270  -0.002   7.073   6.573 -1.1142 -0.5262 -0.4757
  419MOL0     H55271  -0.144   7.150   6.384 -0.8385  0.2618 -1.7575
  419MOL0     H55272  -0.339   7.181   6.016  1.8504  0.3655  0.5541
  419MOL0     H55273  -0.401   7.259   5.793 -0.4815  0.7945  0.3319
  419MOL0     H55274  -0.268   7.646   5.651  0.1318  0.3550  1.2739
  419MOL0     H55275  -0.444   7.621   5.665 -1.4020 -0.6939 -4.4036
  419MOL0     H55276  -0.470   7.655   5.449  0.5534  0.0758 -0.3699
  419MOL0     H55277  -0.425   7.483   5.461  3.0444 -0.4145  3.2212
  419MOL0     H55278  -0.188   7.550   5.410  0.0150 -0.1766 -0.2089
  419MOL0     H55279  -0.249   7.721   5.383  1.5886 -0.3755  1.1907
  419MOL0     H55280  -0.304   7.487   5.203  0.9724  0.5097 -1.6699
  419MOL0     H55281  -0.408   7.632   5.220  0.2767  1.0180 -4.5896
  419MOL0     H55282  -0.122   7.602   5.134  0.7465  3.2066  0.5459
  419MOL0     H55283  -0.206   7.764   5.138 -0.2870  0.5944 -0.9462
  419MOL0     H55284  -0.363   7.556   4.990  0.6422 -0.1482 -1.6597
  419MOL0     H55285  -0.204   7.625   4.917  1.3907  6.2604  0.0318
  419MOL0     H55286  -0.450   7.788   4.991  0.5895  3.8442  1.1165
  419MOL0     H55287  -0.299   7.858   4.957  0.1233 -0.6952  1.0419
  419MOL0     H55288  -0.303   7.721   4.721  0.0994 -0.0194 -0.2177
  419MOL0     H55289  -0.430   7.841   4.736 -1.7505 -2.2406 -3.8465
  419MOL0     H55290  -0.167   7.601   5.830 -1.9446  0.6694 -1.4402
  419MOL0     H55291  -0.142   7.556   6.066 -1.7362  0.7689 -0.2248
  419MOL0     H55292  -0.088   7.552   6.515  1.5361  1.2569 -0.4070
  419MOL0     H55293   0.074   7.480   6.670 -1.6935 -0.8528  2.5640
  419MOL0     H55294   1.130   8.405   7.092 -1.1724  0.6151 -2.4440
  419MOL0     H55295   1.103   8.658   7.071 -0.4980  1.5673 -2.2498
  419MOL0     H55296   1.101   9.034   6.738 -2.5763  0.3638 -0.2688
  419MOL0     H55297   0.957   9.221   6.797 -3.1029 -3.4064 -2.2180
  419MOL0     H55298   0.828   9.358   6.897 -1.4987 -2.8030 -0.6848
  419MOL0     H55299   0.786   9.439   7.044  0.0438  0.0821 -0.9882
  419MOL0     H55300   0.637   9.237   6.941 -2.8430 -2.6905  2.0334
  419MOL0     H55301   0.757   9.139   7.015 -2.2025 -0.9115 -2.6843
  419MOL0     H55302   0.540   9.205   7.145  1.5194  0.6385 -3.6600
  419MOL0     H55303   0.627   9.355   7.171  1.4398 -0.0155 -0.8183
  419MOL0     H55304   0.771   9.107   7.241 -0.1060 -0.2291  0.5176
  419MOL0     H55305   0.771   9.271   7.312  1.3586  0.2976 -2.9685
  419MOL0     H55306   0.487   8.981   7.491 -0.9944  1.3061 -0.9574
  419MOL0     H55307   1.080   9.173   7.206  2.5340  1.0605  0.2045
  419MOL0     H55308   1.169   8.962   7.150 -4.2434 -2.6684 -0.2034
  420MOL0     O55309   6.598   9.334   0.900  0.8113 -0.4028  0.1884
  420MOL0     C55310   6.499   9.347   0.829  0.0387 -0.4113  1.2146
  420MOL0     O55311   6.478   9.281   0.717  0.0377 -0.0162  0.5178
  420MOL0     C55312   6.583   9.218   0.657  0.6433  0.5801 -0.4083
  420MOL0     C55313   6.595   9.080   0.679  0.7616 -0.3733 -0.0828
  420MOL0     C55314   6.691   9.018   0.610 -1.3589  0.7475  0.2046
  420MOL0     C55315   6.788   9.077   0.522 -0.1897  0.3621  0.5730
  420MOL0     O55316   6.877   9.001   0.447 -0.4765  0.5154 -0.4432
  420MOL0     C55317   6.924   9.056   0.328  0.4339  0.0875  0.3464
  420MOL0     C55318   6.951   8.947   0.229  0.2468 -0.5841  0.1860
  420MOL0     C55319   6.829   8.860   0.208  0.0309 -0.9132  0.4520
  420MOL0     C55320   6.852   8.745   0.108  0.2722  1.2418 -0.2196
  420MOL0     C55321   6.742   8.627   0.133 -0.5463  0.0020 -0.4105
  420MOL0     C55322   6.597   8.671   0.103 -0.5470 -1.4303  1.2225
  420MOL0     C55323   6.499   8.557   0.121  0.1681  0.5350 -0.0048
  420MOL0     C55324   6.352   8.580   0.103  0.0778  0.2119 -0.0821
  420MOL0     N55325   6.328   8.637  -0.031 -0.5178  1.1015  0.0195
  420MOL0     C55326   6.362   8.568  -0.152 -0.0394  0.5862  0.1982
  420MOL0     C55327   6.344   8.661  -0.250  0.4595  0.4804  0.0500
  420MOL0     C55328   6.370   8.644  -0.395 -0.3669  0.0647 -0.4082
  420MOL0     C55329   6.425   8.775  -0.466  0.0707 -1.4034  0.0535
  420MOL0     C55330   6.570   8.791  -0.479  0.0724 -0.7752 -0.4317
  420MOL0     C55331   6.645   8.772  -0.339  0.4983 -0.3558 -0.0926
  420MOL0     O55332   6.759   8.860  -0.335 -0.1356 -0.4125 -0.6692
  420MOL0     C55333   6.735   8.991  -0.314 -0.4774  0.3683 -0.4149
  420MOL0     C55334   6.837   9.069  -0.363 -0.1004 -0.5386  0.0869
  420MOL0     C55335   6.839   9.210  -0.376  0.4988  0.3355 -0.4373
  420MOL0     C55336   6.735   9.275  -0.305 -0.7689 -0.0530  0.2679
  420MOL0     C55337   6.736   9.428  -0.311  1.1063 -0.8788 -0.7152
  420MOL0     O55338   6.807   9.485  -0.404  0.1511 -0.0442  0.5027
  420MOL0     C55339   6.801   9.620  -0.424 -0.5599 -0.1678  1.3068
  420MOL0     C55340   6.686   9.703  -0.436 -0.5823  0.6139  0.3283
  420MOL0     C55341   6.693   9.840  -0.477 -0.4352 -0.2147 -0.1746
  420MOL0     C55342   6.818   9.889  -0.510  0.1335  0.1624 -0.7549
  420MOL0     O55343   6.849  10.018  -0.535 -0.5462  0.0028  0.3092
  420MOL0     C55344   6.817  10.048  -0.662  0.0026 -0.1038 -0.1592
  420MOL0     C55345   6.821  10.199  -0.670  0.2900  0.1450  1.7760
  420MOL0     C55346   6.729  10.269  -0.574 -0.0695 -0.2263  0.4679
  420MOL0     C55347   6.699  10.416  -0.617 -1.2264  0.2315 -0.2630
  420MOL0     C55348   6.572  10.451  -0.529 -0.0873 -0.5131  0.8378
  420MOL0     C55349   6.524  10.590  -0.578 -0.4914 -0.1217 -0.0812
  420MOL0     C55350   6.391  10.616  -0.509  0.2046  0.8847  0.1857
  420MOL0     C55351   6.380  10.755  -0.445 -1.3559 -0.9313  0.5138
  420MOL0    Cl55352   6.353  10.877  -0.575 -0.0226  0.1617 -0.0024
  420MOL0     C55353   6.926   9.797  -0.513  0.5256 -0.7424  0.1845
  420MOL0     C55354   6.917   9.670  -0.466  0.0235 -0.0217 -0.5228
  420MOL0     O55355   6.642   9.480  -0.244 -0.0029  0.1228 -0.3522
  420MOL0     C55356   6.628   9.198  -0.259  1.0091 -0.1243 -0.0270
  420MOL0     C55357   6.627   9.058  -0.261 -0.0470  1.0940  0.4796
  420MOL0     N55358   6.305   8.773  -0.181 -0.4004 -0.3272  0.2826
  420MOL0     N55359   6.290   8.765  -0.055 -0.3213 -0.9232 -0.1567
  420MOL0     C55360   6.778   9.216   0.513  0.0410  0.6861  0.0616
  420MOL0     C55361   6.670   9.286   0.575 -0.1969 -0.0682 -0.8740
  420MOL0     C55362   6.391   9.443   0.881 -0.2870  0.3185  0.9024
  420MOL0     C55363   6.394   9.493   1.014  0.2801  0.3388 -0.4333
  420MOL0     C55364   6.281   9.567   1.063  0.0750  0.1700 -0.4362
  420MOL0     C55365   6.184   9.618   0.975  0.0890 -0.0748 -0.0157
  420MOL0     O55366   6.095   9.715   1.022 -0.1155  0.2713 -0.2691
  420MOL0     C55367   6.032   9.806   0.931 -0.2068  0.2499  0.0424
  420MOL0     C55368   6.133   9.900   0.846  0.4358 -0.1313 -0.6634
  420MOL0     C55369   6.029   9.946   0.732 -0.3148  0.4377  0.8640
  420MOL0     C55370   5.930  10.048   0.765  0.6637 -0.5091  0.0024
  420MOL0     C55371   5.793   9.984   0.784 -0.3349 -0.1629 -0.4730
  420MOL0     C55372   5.682   9.946   0.820  0.1095 -0.7117 -1.0938
  420MOL0     C55373   6.186   9.568   0.843  0.2004  0.1126 -0.4889
  420MOL0     C55374   6.281   9.479   0.795  0.4593  0.4423  0.1950
  420MOL0     H55375   6.538   9.019   0.748 -1.0119 -2.1425 -2.8871
  420MOL0     H55376   6.705   8.912   0.632  1.6550  1.0547  0.0777
  420MOL0     H55377   7.019   9.108   0.341  0.4282  0.9961 -2.5188
  420MOL0     H55378   6.858   9.129   0.280  1.6968  0.4255 -0.9448
  420MOL0     H55379   7.033   8.884   0.264  2.5583  1.5697 -1.0391
  420MOL0     H55380   6.979   8.989   0.131 -0.2080 -0.5395  0.0722
  420MOL0     H55381   6.743   8.927   0.193  1.1896  0.2048 -1.5985
  420MOL0     H55382   6.806   8.815   0.305  1.7584 -0.7899  0.9500
  420MOL0     H55383   6.845   8.770   0.001 -1.1552 -3.4630 -1.4274
  420MOL0     H55384   6.954   8.705   0.113  0.4377  1.7868  1.3528
  420MOL0     H55385   6.742   8.594   0.238  2.5476 -2.3803 -0.9787
  420MOL0     H55386   6.768   8.541   0.070  1.6534 -0.8625  1.5084
  420MOL0     H55387   6.589   8.710   0.001 -0.7104 -0.3251  1.6481
  420MOL0     H55388   6.565   8.747   0.174 -4.3635 -0.8688 -0.8409
  420MOL0     H55389   6.527   8.475   0.055  0.2768  1.5570 -1.2608
  420MOL0     H55390   6.509   8.534   0.228  2.0336  4.5931  0.9140
  420MOL0     H55391   6.314   8.662   0.165  0.6094  2.1734 -2.2034
  420MOL0     H55392   6.302   8.484   0.116  1.4011 -0.7398 -1.7310
  420MOL0     H55393   6.395   8.465  -0.152 -1.7959 -0.0303  1.3968
  420MOL0     H55394   6.271   8.619  -0.436 -1.7608  3.6581  0.3729
  420MOL0     H55395   6.441   8.562  -0.409  0.1181  0.4287 -0.0675
  420MOL0     H55396   6.397   8.867  -0.414  2.2631  0.1407 -1.3372
  420MOL0     H55397   6.385   8.786  -0.567  0.8529  3.5814  0.0715
  420MOL0     H55398   6.610   8.725  -0.556  0.3816 -1.8682  0.6146
  420MOL0     H55399   6.590   8.887  -0.525 -0.0911 -2.3231 -4.0362
  420MOL0     H55400   6.677   8.668  -0.329 -0.8068 -0.5918  2.0780
  420MOL0     H55401   6.584   8.794  -0.252  0.9374 -0.6910  0.3101
  420MOL0     H55402   6.924   9.019  -0.405  0.5749  0.5473  0.1504
  420MOL0     H55403   6.928   9.257  -0.417 -0.1840  2.6657  0.6149
  420MOL0     H55404   6.589   9.674  -0.397 -1.1766  0.3890 -1.2819
  420MOL0     H55405   6.603   9.900  -0.477 -0.1476  0.2195  0.1344
  420MOL0     H55406   6.712  10.021  -0.680 -0.9901  3.5702 -0.7404
  420MOL0     H55407   6.890  10.007  -0.732 -1.9637  0.0923 -2.4638
  420MOL0     H55408   6.777  10.211  -0.770  1.5413  0.6479  1.2571
  420MOL0     H55409   6.925  10.234  -0.668 -0.4579  3.5338 -2.5252
  420MOL0     H55410   6.775  10.250  -0.476  1.0586  0.1633  0.0349
  420MOL0     H55411   6.638  10.209  -0.572  0.0687 -0.4265  1.6278
  420MOL0     H55412   6.770  10.496  -0.594  0.8147 -1.7997  0.9833
  420MOL0     H55413   6.686  10.421  -0.726 -0.8961  1.4617 -0.2630
  420MOL0     H55414   6.605  10.461  -0.425  2.5892  2.7974 -0.1793
  420MOL0     H55415   6.496  10.374  -0.549  0.5617 -1.2736  1.2508
  420MOL0     H55416   6.513  10.604  -0.686  1.0942 -0.9863 -0.3816
  420MOL0     H55417   6.595  10.661  -0.534 -0.0816  0.3638 -1.4696
  420MOL0     H55418   6.304  10.612  -0.576  1.2189 -1.9877 -1.1058
  420MOL0     H55419   6.380  10.539  -0.432 -0.1196  0.0697 -0.6453
  420MOL0     H55420   6.472  10.775  -0.390 -0.1905 -2.1499 -0.8919
  420MOL0     H55421   6.300  10.760  -0.371 -0.5843  3.8024  1.3260
  420MOL0     H55422   7.022   9.833  -0.548 -0.2499  0.1672 -1.0791
  420MOL0     H55423   6.995   9.595  -0.472 -0.5253 -0.6306 -0.2946
  420MOL0     H55424   6.537   9.236  -0.212 -0.0610 -0.8616 -1.3998
  420MOL0     H55425   6.543   9.000  -0.223 -0.8364  1.2046 -0.9909
  420MOL0     H55426   6.847   9.277   0.455  2.6096 -2.3476 -0.3188
  420MOL0     H55427   6.653   9.390   0.552 -0.3994 -0.0411 -0.6011
  420MOL0     H55428   6.466   9.450   1.082  1.3358 -0.6269 -2.1003
  420MOL0     H55429   6.270   9.576   1.170 -0.7747  2.4380 -0.6574
  420MOL0     H55430   5.979   9.875   0.997  0.0765  1.1340 -0.6199
  420MOL0     H55431   5.960   9.751   0.870  0.7591 -1.0890  0.0746
  420MOL0     H55432   6.162   9.990   0.900 -2.8000  0.9255 -0.4600
  420MOL0     H55433   6.224   9.857   0.803 -0.1754  0.3875 -2.6021
  420MOL0     H55434   5.987   9.860   0.679 -1.5449  1.8793 -0.6224
  420MOL0     H55435   6.096   9.992   0.658  0.2081 -2.8906 -0.9328
  420MOL0     H55436   5.952  10.108   0.853 -3.3686 -0.3618  1.1358
  420MOL0     H55437   5.902  10.112   0.681 -3.0111 -2.3304 -0.3943
  420MOL0     H55438   5.587   9.916   0.861 -1.0199  0.9952 -2.3334
  420MOL0     H55439   6.106   9.587   0.772  0.6391  2.8249 -0.3524
  420MOL0     H55440   6.290   9.449   0.691  0.0687  1.8928 -0.2733
  421MOL0     O55441   5.343   0.018   6.796 -0.2980 -0.5111  0.2847
  421MOL0     C55442   5.250   0.064   6.856 -0.5843  0.2618 -0.8963
  421MOL0     O55443   5.234   0.195   6.886  0.4736 -0.7158  0.6458
  421MOL0     C55444   5.337   0.277   6.856 -0.0292  0.6026  0.2350
  421MOL0     C55445   5.464   0.272   6.929 -0.7396  0.0943  0.2543
  421MOL0     C55446   5.574   0.371   6.911  0.6042  0.4373 -0.6511
  421MOL0     C55447   5.548   0.479   6.840 -0.7244 -0.9988  0.7411
  421MOL0     O55448   5.645   0.574   6.811 -0.6045 -0.2859 -0.8376
  421MOL0     C55449   5.611   0.703   6.764 -0.4236  0.8310 -0.3738
  421MOL0     C55450   5.727   0.784   6.796 -0.8296  0.6971  0.6080
  421MOL0     C55451   5.726   0.846   6.938 -0.7103  0.7121  0.4962
  421MOL0     C55452   5.852   0.926   6.952 -0.2511 -0.3692 -0.8753
  421MOL0     C55453   5.863   0.963   7.098  0.3614 -0.6372 -0.4143
  421MOL0     C55454   5.996   1.039   7.120 -0.5194  0.0479 -0.2548
  421MOL0     C55455   6.128   0.979   7.068  0.1827  0.5098 -0.1353
  421MOL0     C55456   6.159   0.835   7.086 -0.1098 -0.2352 -0.8169
  421MOL0     N55457   6.263   0.762   7.008  0.3577  0.3718 -0.5669
  421MOL0     C55458   6.396   0.789   7.002 -0.0305  0.1500  0.5650
  421MOL0     C55459   6.436   0.682   6.930 -1.0142  0.2766 -0.1008
  421MOL0     C55460   6.577   0.664   6.887 -0.3587  0.0330 -0.3407
  421MOL0     C55461   6.654   0.581   6.986  0.3705  0.7034  0.0011
  421MOL0     C55462   6.596   0.437   7.023  1.0799 -1.1839  1.2576
  421MOL0     C55463   6.496   0.446   7.138 -0.4196 -0.0250  0.1480
  421MOL0     O55464   6.509   0.333   7.217 -0.1633  0.6403 -0.1485
  421MOL0     C55465   6.594   0.331   7.329 -0.2987 -0.8104  0.3340
  421MOL0     C55466   6.701   0.420   7.351  0.6342 -0.4020  0.1838
  421MOL0     C55467   6.784   0.406   7.459  0.2936 -0.5291  0.0190
  421MOL0     C55468   6.761   0.307   7.557 -0.6932  0.2486 -0.9374
  421MOL0     C55469   6.851   0.295   7.679  0.6426  0.1494 -0.6971
  421MOL0     O55470   6.801   0.207   7.770 -0.5152  0.2591  0.3375
  421MOL0     C55471   6.851   0.215   7.901  0.7468  0.4072 -0.2223
  421MOL0     C55472   6.900   0.103   7.958  0.3040 -0.4545 -0.9242
  421MOL0     C55473   6.947   0.099   8.090 -0.2457  0.1517 -0.1786
  421MOL0     C55474   6.952   0.221   8.160  0.1666  0.4048 -0.0830
  421MOL0     O55475   7.012   0.220   8.283 -0.1075 -1.2119 -0.0239
  421MOL0     C55476   6.918   0.228   8.392  0.4963  0.4464  0.4333
  421MOL0     C55477   6.987   0.191   8.529 -0.2557 -0.0283 -0.4976
  421MOL0     C55478   7.016   0.045   8.542  1.2954 -0.0994 -0.5847
  421MOL0     C55479   6.910  -0.025   8.625 -1.0311 -0.2282 -0.5552
  421MOL0     C55480   6.952  -0.175   8.647 -0.6085  0.7885 -0.1545
  421MOL0     C55481   6.829  -0.246   8.720  0.5605 -0.4418  0.8731
  421MOL0     C55482   6.877  -0.381   8.739 -0.1591 -0.0635  0.1082
  421MOL0     C55483   6.762  -0.472   8.802  0.4081 -0.6306  0.4539
  421MOL0    Cl55484   6.715  -0.390   8.956 -0.0453 -0.6099 -0.0246
  421MOL0     C55485   6.904   0.334   8.102  0.1758 -0.3815  0.2726
  421MOL0     C55486   6.856   0.333   7.976 -0.2432  0.1327  0.1352
  421MOL0     O55487   6.960   0.343   7.679  0.0206  0.3947  0.4125
  421MOL0     C55488   6.638   0.238   7.540 -1.2058 -0.3135 -0.3026
  421MOL0     C55489   6.565   0.244   7.420  0.8088  0.3392 -0.0931
  421MOL0     N55490   6.328   0.594   6.902 -0.3463 -0.4658 -0.4915
  421MOL0     N55491   6.226   0.642   6.958  0.5675  0.1512 -0.0805
  421MOL0     C55492   5.413   0.491   6.786 -0.0186  0.0919 -0.7880
  421MOL0     C55493   5.318   0.387   6.782 -0.0311 -0.7294  0.0814
  421MOL0     C55494   5.150  -0.033   6.916  0.2095  0.3909  0.5647
  421MOL0     C55495   5.039   0.019   6.981 -0.1992 -0.1071 -0.1189
  421MOL0     C55496   4.951  -0.082   7.031  0.3287  0.3768 -0.0739
  421MOL0     C55497   4.966  -0.218   7.008  0.3596  0.6458 -0.0909
  421MOL0     O55498   4.876  -0.308   7.058  0.3578 -0.0333  0.1609
  421MOL0     C55499   4.915  -0.448   7.077 -0.4041 -0.6633 -1.1104
  421MOL0     C55500   4.891  -0.537   6.960  0.2648  1.0994 -0.2477
  421MOL0     C55501   4.962  -0.665   6.992  0.4018  0.3846 -0.4380
  421MOL0     C55502   4.940  -0.779   6.879 -0.8266  0.6615  0.0533
  421MOL0     C55503   5.051  -0.874   6.873 -0.7646  0.0429  0.1726
  421MOL0     C55504   5.145  -0.953   6.876  1.1402  0.0600 -0.3782
  421MOL0     C55505   5.074  -0.263   6.926 -0.3429  1.3755 -0.9109
  421MOL0     C55506   5.169  -0.170   6.885  0.3379 -0.5536  0.3225
  421MOL0     H55507   5.474   0.179   6.983 -2.2130 -2.1616 -3.0462
  421MOL0     H55508   5.672   0.369   6.957 -0.3294  1.0608  1.4720
  421MOL0     H55509   5.536   0.746   6.830  1.5855  1.7873  1.4310
  421MOL0     H55510   5.580   0.706   6.659  0.1112  0.2942 -0.5525
  421MOL0     H55511   5.724   0.874   6.734  0.7674  0.8532  0.7117
  421MOL0     H55512   5.819   0.731   6.772 -0.6174 -0.2495  3.2312
  421MOL0     H55513   5.725   0.769   7.016  3.8625  0.4565  0.5700
  421MOL0     H55514   5.647   0.921   6.932  0.3393  1.8296  0.2937
  421MOL0     H55515   5.941   0.873   6.916  0.8196 -0.2692  1.4087
  421MOL0     H55516   5.841   1.019   6.895 -0.4782 -0.0463 -0.3110
  421MOL0     H55517   5.860   0.871   7.157  0.3890  0.2091  0.9687
  421MOL0     H55518   5.774   1.020   7.127 -1.8445 -3.5834 -1.0186
  421MOL0     H55519   6.016   1.052   7.227  0.2888 -0.3773 -0.3542
  421MOL0     H55520   5.987   1.138   7.074  0.1977  1.2487  1.9988
  421MOL0     H55521   6.105   0.997   6.963  0.8591  0.3930 -0.3135
  421MOL0     H55522   6.215   1.039   7.097  0.6397  0.2746 -0.9794
  421MOL0     H55523   6.065   0.779   7.083 -0.1095 -0.3302  0.2612
  421MOL0     H55524   6.193   0.829   7.190  0.0711  1.4035 -0.7601
  421MOL0     H55525   6.439   0.877   7.049 -2.1373  0.7831  1.4375
  421MOL0     H55526   6.626   0.762   6.881  2.4696 -1.3531 -2.8858
  421MOL0     H55527   6.581   0.629   6.783  0.0108  1.6677 -0.9081
  421MOL0     H55528   6.678   0.642   7.074 -3.3283  1.6682  0.5030
  421MOL0     H55529   6.746   0.551   6.934 -1.0412 -3.1808 -0.5903
  421MOL0     H55530   6.551   0.392   6.935  0.8182  0.0810  0.7133
  421MOL0     H55531   6.678   0.369   7.047  1.7178 -0.8035  0.2429
  421MOL0     H55532   6.395   0.456   7.096  1.2056 -4.0795 -6.1065
  421MOL0     H55533   6.509   0.533   7.203 -2.9444  1.2326 -0.8783
  421MOL0     H55534   6.741   0.493   7.280  1.6696 -1.3874 -0.2672
  421MOL0     H55535   6.863   0.479   7.474  1.2686 -1.9420  2.2821
  421MOL0     H55536   6.915   0.008   7.908 -2.8446 -2.4422  1.5584
  421MOL0     H55537   6.977   0.012   8.147  0.1056  0.2960 -0.1437
  421MOL0     H55538   6.840   0.157   8.365 -0.2607  0.1699  3.0246
  421MOL0     H55539   6.881   0.331   8.399 -0.5518  0.3467 -2.5811
  421MOL0     H55540   6.937   0.229   8.619 -0.2006  1.1463 -0.9381
  421MOL0     H55541   7.087   0.234   8.540  1.5196 -3.8992 -0.1453
  421MOL0     H55542   7.113   0.041   8.593 -0.4023 -0.3535  2.9606
  421MOL0     H55543   7.026   0.001   8.443 -1.6689 -1.3866 -0.4071
  421MOL0     H55544   6.905   0.019   8.725 -0.8216  1.8425 -1.4133
  421MOL0     H55545   6.813  -0.010   8.576 -1.4542  0.2064  0.3984
  421MOL0     H55546   7.035  -0.190   8.716 -0.5289 -3.3380 -0.8633
  421MOL0     H55547   6.984  -0.225   8.555  0.7508 -1.2383  1.3268
  421MOL0     H55548   6.736  -0.235   8.662  1.4906  4.3452 -0.1961
  421MOL0     H55549   6.812  -0.197   8.816 -2.6568 -1.7373  1.0901
  421MOL0     H55550   6.897  -0.426   8.641  1.3564 -0.2104  0.4683
  421MOL0     H55551   6.972  -0.384   8.792  0.5514  2.1322 -0.9129
  421MOL0     H55552   6.793  -0.577   8.815  1.8536 -0.8722 -3.4779
  421MOL0     H55553   6.681  -0.486   8.730  1.7404 -1.7542 -0.9106
  421MOL0     H55554   6.911   0.425   8.160  1.0847  2.3003 -3.6026
  421MOL0     H55555   6.817   0.423   7.929  0.2676 -0.5865 -1.7883
  421MOL0     H55556   6.609   0.158   7.608 -3.0326  1.7954  1.5213
  421MOL0     H55557   6.486   0.171   7.406  0.6945  0.2750  0.8081
  421MOL0     H55558   5.383   0.583   6.737 -3.7283  0.8791  2.4218
  421MOL0     H55559   5.224   0.395   6.729 -1.2653  3.3203  2.4743
  421MOL0     H55560   5.026   0.126   6.982 -0.0454 -0.0898  0.9285
  421MOL0     H55561   4.858  -0.064   7.085  1.1628 -2.0976  2.4482
  421MOL0     H55562   4.877  -0.492   7.170 -0.7134 -1.3599 -1.5587
  421MOL0     H55563   5.023  -0.452   7.094 -0.4082  1.5410 -0.2717
  421MOL0     H55564   4.782  -0.554   6.959  0.2431  1.0548 -2.7112
  421MOL0     H55565   4.907  -0.493   6.862 -1.0542 -0.2836 -1.1196
  421MOL0     H55566   4.933  -0.716   7.084 -3.9260  3.9312  0.4981
  421MOL0     H55567   5.070  -0.648   6.996  0.2726  1.0672  0.2283
  421MOL0     H55568   4.860  -0.852   6.893 -0.2416 -0.1763 -0.8327
  421MOL0     H55569   4.927  -0.740   6.778  0.8689  1.2978  0.0383
  421MOL0     H55570   5.231  -1.015   6.893  1.4071  1.1997  3.3000
  421MOL0     H55571   5.090  -0.364   6.893 -0.5209  1.3230 -0.8416
  421MOL0     H55572   5.257  -0.194   6.827 -0.0537  0.1631 -0.5818
  422MOL0     O55573   7.429  11.334   8.108 -0.4315  0.7665  1.1562
  422MOL0     C55574   7.332  11.395   8.059 -0.1155  0.5047 -0.3184
  422MOL0     O55575   7.218  11.335   8.024 -0.1781 -0.1344 -0.1287
  422MOL0     C55576   7.186  11.196   8.018 -0.0710 -0.4137 -0.9045
  422MOL0     C55577   7.254  11.089   8.086  0.0342 -0.6447  0.6337
  422MOL0     C55578   7.212  10.963   8.083  0.0203  0.0004 -0.3847
  422MOL0     C55579   7.088  10.937   8.027  0.1867  0.9899 -0.1216
  422MOL0     O55580   7.041  10.807   8.032 -0.2710  0.0127  0.4922
  422MOL0     C55581   7.023  10.744   7.904 -0.1115 -0.4577  0.0106
  422MOL0     C55582   6.954  10.607   7.921 -0.7361  0.4550 -0.2458
  422MOL0     C55583   6.806  10.618   7.963 -0.1201  0.7343  0.1879
  422MOL0     C55584   6.729  10.670   7.842  0.0318 -0.1576  1.2672
  422MOL0     C55585   6.578  10.686   7.857  0.8181  0.6182  0.9894
  422MOL0     C55586   6.501  10.598   7.767 -0.2075 -0.3002 -0.1568
  422MOL0     C55587   6.557  10.571   7.628 -0.7181 -0.0444  0.0674
  422MOL0     C55588   6.450  10.530   7.530  0.2107  0.0428  0.3231
  422MOL0     N55589   6.368  10.421   7.575  0.4026  0.3756 -0.6226
  422MOL0     C55590   6.407  10.292   7.604  0.4365 -0.2194  1.2067
  422MOL0     C55591   6.291  10.223   7.610 -0.4787 -0.0455  0.1166
  422MOL0     C55592   6.277  10.078   7.620 -0.0585  0.0300 -0.5205
  422MOL0     C55593   6.221  10.017   7.497 -0.7227  0.3050  0.8233
  422MOL0     C55594   6.332   9.982   7.392  0.8787 -0.9956  0.1723
  422MOL0     C55595   6.422  10.092   7.357 -0.2543  0.0565 -1.1977
  422MOL0     O55596   6.510  10.068   7.242  0.2493 -0.2769  0.9521
  422MOL0     C55597   6.555  10.180   7.179 -0.2714  0.2267 -1.0141
  422MOL0     C55598   6.561  10.182   7.041 -0.0244  0.2758  0.0373
  422MOL0     C55599   6.625  10.281   6.968 -0.3134 -0.2671  0.5452
  422MOL0     C55600   6.684  10.386   7.044  0.3994 -0.1269  0.2767
  422MOL0     C55601   6.745  10.502   6.970  0.6614  0.5979 -0.1473
  422MOL0     O55602   6.729  10.502   6.840  0.6423 -0.2241  0.8219
  422MOL0     C55603   6.822  10.582   6.767  0.2863 -0.3833 -0.5196
  422MOL0     C55604   6.775  10.684   6.687  0.0605  0.7610 -0.9210
  422MOL0     C55605   6.863  10.763   6.601  0.3837 -0.7270 -0.0844
  422MOL0     C55606   6.999  10.733   6.591 -0.4060 -0.6659 -0.7123
  422MOL0     O55607   7.073  10.797   6.498 -0.2471  0.1535 -0.7023
  422MOL0     C55608   7.013  10.845   6.375 -0.1176  0.7001  1.0264
  422MOL0     C55609   7.106  10.836   6.261 -0.3701 -0.7021 -0.3073
  422MOL0     C55610   7.242  10.903   6.282 -0.5925  0.6751 -0.6147
  422MOL0     C55611   7.321  10.875   6.157 -0.7285  0.0497 -0.5281
  422MOL0     C55612   7.463  10.915   6.137 -0.4690 -0.2176  0.0125
  422MOL0     C55613   7.469  11.068   6.133 -0.6897 -0.9078  0.0084
  422MOL0     C55614   7.612  11.106   6.177  0.0687 -1.0675  0.2383
  422MOL0     C55615   7.648  11.230   6.103  0.7060 -0.0534  0.1350
  422MOL0    Cl55616   7.731  11.192   5.951 -0.0624  0.1075 -0.4161
  422MOL0     C55617   7.048  10.651   6.689 -0.9062 -0.0313  0.3779
  422MOL0     C55618   6.967  10.575   6.780 -0.8139  0.0479 -0.3590
  422MOL0     O55619   6.790  10.591   7.037  0.2123 -0.6870 -0.4846
  422MOL0     C55620   6.681  10.381   7.182 -0.7253  0.9212  1.4461
  422MOL0     C55621   6.614  10.282   7.250 -0.3060  0.8095  0.3495
  422MOL0     N55622   6.192  10.309   7.577  0.1853  0.4868  0.2791
  422MOL0     N55623   6.237  10.427   7.549  0.2431  0.6578  1.3576
  422MOL0     C55624   7.011  11.037   7.968  0.1594 -0.5640  0.4086
  422MOL0     C55625   7.060  11.163   7.968 -0.7567 -0.7104  0.3972
  422MOL0     C55626   7.344  11.544   8.022 -0.9493 -0.7329 -0.0303
  422MOL0     C55627   7.460  11.618   8.053  0.1433 -0.8942 -0.7748
  422MOL0     C55628   7.470  11.751   8.002  0.5296 -0.1639  0.6184
  422MOL0     C55629   7.388  11.812   7.916 -0.4833  0.3504  0.0405
  422MOL0     O55630   7.411  11.947   7.882  0.5779  0.3000 -0.1630
  422MOL0     C55631   7.312  12.024   7.811  0.8216  0.0093  0.1636
  422MOL0     C55632   7.365  12.147   7.730 -0.8994  0.9368  0.1980
  422MOL0     C55633   7.433  12.266   7.810  0.6127  0.3172  0.0835
  422MOL0     C55634   7.574  12.235   7.849 -0.8070 -0.8714 -0.7220
  422MOL0     C55635   7.651  12.355   7.898 -0.2057 -0.8066  0.1801
  422MOL0     C55636   7.725  12.447   7.919 -0.3603 -0.1387 -0.4455
  422MOL0     C55637   7.278  11.728   7.877 -0.0358  0.6822  0.9428
  422MOL0     C55638   7.247  11.601   7.945 -0.4370  0.5688  0.9222
  422MOL0     H55639   7.348  11.120   8.130 -0.0182  2.6009 -1.2611
  422MOL0     H55640   7.266  10.880   8.126 -2.6878 -1.9180 -0.4790
  422MOL0     H55641   7.116  10.750   7.846 -0.2422  0.7625 -0.1065
  422MOL0     H55642   6.961  10.815   7.847 -2.6411 -1.6524  1.0891
  422MOL0     H55643   7.011  10.555   7.998  0.5833  0.0813 -1.4164
  422MOL0     H55644   6.959  10.551   7.827  1.1227  0.5434 -0.2468
  422MOL0     H55645   6.791  10.686   8.048  3.6283  0.2298  1.4303
  422MOL0     H55646   6.768  10.521   7.995  0.2829  0.1690 -0.9785
  422MOL0     H55647   6.771  10.771   7.833 -2.0139  1.0891  4.4110
  422MOL0     H55648   6.755  10.597   7.764  2.6612 -2.4948  4.0705
  422MOL0     H55649   6.560  10.789   7.825  2.5732  0.5886 -0.2687
  422MOL0     H55650   6.544  10.671   7.960 -0.8901  1.6239  0.5983
  422MOL0     H55651   6.409  10.657   7.755  1.0553  1.4187 -2.1510
  422MOL0     H55652   6.479  10.498   7.804  0.8697  0.0935  1.6483
  422MOL0     H55653   6.604  10.656   7.578 -1.4324  0.6479  0.5424
  422MOL0     H55654   6.629  10.489   7.631  0.7530  1.0831 -1.9651
  422MOL0     H55655   6.503  10.512   7.437  2.0733  1.4288  1.0484
  422MOL0     H55656   6.382  10.612   7.507 -4.4751 -2.7577  2.5480
  422MOL0     H55657   6.511  10.267   7.620  0.6140  0.6478  1.4787
  422MOL0     H55658   6.205  10.063   7.701  2.3681  1.4626  2.1011
  422MOL0     H55659   6.363  10.027   7.665  0.8635  2.5881  0.8458
  422MOL0     H55660   6.148  10.087   7.456  1.3795  1.6843 -0.7946
  422MOL0     H55661   6.163   9.927   7.521 -0.2058 -0.0044  0.9219
  422MOL0     H55662   6.387   9.890   7.417  0.7819 -1.0410  0.2205
  422MOL0     H55663   6.283   9.962   7.297  1.2080  0.3823 -0.3033
  422MOL0     H55664   6.494  10.104   7.438  3.1267  2.0425 -4.1923
  422MOL0     H55665   6.354  10.178   7.345 -0.2902  1.4548  5.3711
  422MOL0     H55666   6.497  10.114   6.987  2.3080 -3.0784  1.1411
  422MOL0     H55667   6.612  10.288   6.860  2.7760  0.5494  0.1311
  422MOL0     H55668   6.670  10.713   6.692 -0.8186 -1.8205 -2.3351
  422MOL0     H55669   6.816  10.846   6.549  3.7596  0.5090 -1.4739
  422MOL0     H55670   6.975  10.948   6.383 -1.9909  0.2702 -1.1788
  422MOL0     H55671   6.914  10.802   6.357 -0.5415  0.3003  3.8908
  422MOL0     H55672   7.052  10.896   6.188  2.2281  0.6000 -1.2859
  422MOL0     H55673   7.119  10.732   6.229  2.7697 -0.6492  0.3952
  422MOL0     H55674   7.292  10.845   6.361  2.2128  0.1239 -2.6277
  422MOL0     H55675   7.225  11.007   6.308 -4.1381  0.9926 -3.4190
  422MOL0     H55676   7.314  10.768   6.135 -0.8591 -0.3132  1.1548
  422MOL0     H55677   7.266  10.927   6.078 -1.4559  0.1276  0.0164
  422MOL0     H55678   7.510  10.881   6.045  2.0542  2.7068  0.0573
  422MOL0     H55679   7.515  10.858   6.214 -0.2280 -0.8485 -0.6102
  422MOL0     H55680   7.396  11.119   6.196 -0.6527  2.8537 -2.6640
  422MOL0     H55681   7.446  11.088   6.028 -3.0264 -1.1921  0.4093
  422MOL0     H55682   7.597  11.123   6.284  2.6445  0.2620  0.4600
  422MOL0     H55683   7.686  11.026   6.170  0.3951 -0.6524 -1.5278
  422MOL0     H55684   7.711  11.291   6.169  0.5178 -0.9520  1.1512
  422MOL0     H55685   7.565  11.289   6.062  1.2969  0.6604 -0.0588
  422MOL0     H55686   7.155  10.633   6.685 -1.0955 -1.3955  0.9086
  422MOL0     H55687   7.015  10.511   6.853 -0.9451 -0.1034 -0.4024
  422MOL0     H55688   6.730  10.461   7.236  0.4959  0.9553  0.3512
  422MOL0     H55689   6.596  10.282   7.357 -0.6905  0.7127  0.2875
  422MOL0     H55690   6.906  11.015   7.957 -0.1157 -2.2159  4.5698
  422MOL0     H55691   7.008  11.250   7.927  1.2753 -0.1741 -1.1834
  422MOL0     H55692   7.540  11.582   8.117 -1.0289 -2.3546 -0.0791
  422MOL0     H55693   7.554  11.810   8.036  0.3520 -0.1170  0.9778
  422MOL0     H55694   7.230  12.045   7.879  1.4967  1.6595  0.5068
  422MOL0     H55695   7.274  11.953   7.736  0.3565 -3.0765  3.0875
  422MOL0     H55696   7.423  12.107   7.647 -1.5883  0.1075  0.1108
  422MOL0     H55697   7.290  12.192   7.664  0.0863  1.1657 -0.7956
  422MOL0     H55698   7.368  12.280   7.897 -0.0316 -3.5895  0.4096
  422MOL0     H55699   7.442  12.360   7.754  2.7086  1.1052  1.6061
  422MOL0     H55700   7.575  12.152   7.919  1.6948 -0.6849 -0.4718
  422MOL0     H55701   7.635  12.192   7.769  2.1540 -0.2135  1.0662
  422MOL0     H55702   7.790  12.532   7.928  0.2814 -0.6042 -0.6073
  422MOL0     H55703   7.200  11.765   7.811  0.4244 -2.1572 -1.4100
  422MOL0     H55704   7.161  11.549   7.903  0.1622  0.2643  0.0547
  423MOL0     O55705   9.847   4.374   9.775  0.0741  0.5463  0.0872
  423MOL0     C55706   9.831   4.401   9.650 -0.5733 -0.9291  0.1560
  423MOL0     O55707   9.738   4.484   9.602 -0.3121 -1.0155 -0.4766
  423MOL0     C55708   9.663   4.552   9.696  0.2531  0.5495 -0.2969
  423MOL0     C55709   9.586   4.509   9.807 -0.0519 -0.0351 -0.3675
  423MOL0     C55710   9.523   4.583   9.904  0.0925 -0.5992 -0.6455
  423MOL0     C55711   9.549   4.716   9.901  1.2037 -1.2933 -0.1865
  423MOL0     O55712   9.501   4.797  10.004  0.2768  0.2261  0.1060
  423MOL0     C55713   9.562   4.924  10.043 -0.1242 -1.8656 -0.0538
  423MOL0     C55714   9.530   4.961  10.187 -0.2939  0.6399  0.3858
  423MOL0     C55715   9.633   4.906  10.283  0.5122 -0.3479 -0.1994
  423MOL0     C55716   9.611   4.760  10.332 -1.4238  0.2311  0.7781
  423MOL0     C55717   9.685   4.720  10.451 -0.1188  0.5847 -0.2656
  423MOL0     C55718   9.687   4.569  10.467 -0.3109 -0.5684 -0.4201
  423MOL0     C55719   9.803   4.523  10.548 -0.2592 -0.6740 -1.7435
  423MOL0     C55720   9.818   4.366  10.537 -0.0730 -0.5931 -0.0921
  423MOL0     N55721   9.944   4.327  10.613 -0.1453 -0.6261  0.0205
  423MOL0     C55722  10.064   4.283  10.550  0.4927  0.5175 -0.6240
  423MOL0     C55723  10.139   4.225  10.648  1.1050  0.4197 -0.2588
  423MOL0     C55724  10.264   4.145  10.631  0.4927 -0.3180 -0.3920
  423MOL0     C55725  10.254   4.037  10.532  0.1968 -0.0715  0.0608
  423MOL0     C55726  10.381   3.947  10.534 -0.2703 -0.4383 -0.4327
  423MOL0     C55727  10.379   3.852  10.420 -0.6598  0.5616 -0.1875
  423MOL0     O55728  10.504   3.789  10.392 -0.7315  0.3404  0.2958
  423MOL0     C55729  10.538   3.754  10.264 -0.1057 -0.0564 -0.4848
  423MOL0     C55730  10.448   3.741  10.155 -0.0124  0.6711  0.4115
  423MOL0     C55731  10.495   3.682  10.034  0.3520 -0.0728 -0.6111
  423MOL0     C55732  10.629   3.650  10.015  0.4045 -1.0946  0.0321
  423MOL0     C55733  10.670   3.594   9.882 -1.2942 -1.1773 -0.3221
  423MOL0     O55734  10.576   3.548   9.797  0.4931  0.0930 -0.0949
  423MOL0     C55735  10.598   3.489   9.671 -0.9097  0.6601 -0.5284
  423MOL0     C55736  10.716   3.497   9.596  0.4544  0.5013 -0.4263
  423MOL0     C55737  10.711   3.457   9.457 -0.0742  0.3148  0.2787
  423MOL0     C55738  10.599   3.398   9.398  0.6535  0.5050 -0.6634
  423MOL0     O55739  10.592   3.364   9.266 -0.7485 -0.6039  0.1284
  423MOL0     C55740  10.719   3.327   9.206 -0.3453 -0.7628  0.6718
  423MOL0     C55741  10.711   3.315   9.058 -0.0072  0.0034 -0.3589
  423MOL0     C55742  10.651   3.184   9.018 -0.3175  0.4910  0.2650
  423MOL0     C55743  10.600   3.188   8.867 -1.9106  0.1188 -0.9196
  423MOL0     C55744  10.547   3.052   8.818  0.8138  0.4043  0.8277
  423MOL0     C55745  10.539   3.046   8.661 -0.2711  0.4339  0.2542
  423MOL0     C55746  10.408   2.979   8.592 -0.5711 -0.9902 -0.1129
  423MOL0     C55747  10.426   2.944   8.448  0.0851  1.1290  0.7186
  423MOL0    Cl55748  10.465   3.090   8.359 -0.3305  0.2037  0.0812
  423MOL0     C55749  10.480   3.396   9.470 -0.2523  1.0138  0.7851
  423MOL0     C55750  10.480   3.430   9.607 -0.5772 -0.2898  0.0107
  423MOL0     O55751  10.794   3.600   9.867  0.0125  0.2192  0.4827
  423MOL0     C55752  10.715   3.675  10.119 -0.4306 -0.6060  0.3116
  423MOL0     C55753  10.671   3.723  10.238  0.0179 -0.4233 -0.7464
  423MOL0     N55754  10.077   4.235  10.769  0.2789 -0.4930 -0.7476
  423MOL0     N55755   9.962   4.296  10.744 -0.1517 -0.0693 -0.0073
  423MOL0     C55756   9.616   4.772   9.794 -1.3744  0.0310  0.1863
  423MOL0     C55757   9.675   4.686   9.698 -1.2299 -1.5952 -0.2250
  423MOL0     C55758   9.925   4.343   9.554  1.2798 -0.0251 -0.7241
  423MOL0     C55759   9.890   4.334   9.418 -0.2017  0.0791  0.0717
  423MOL0     C55760   9.968   4.274   9.316 -0.4353 -0.4937 -0.8916
  423MOL0     C55761  10.092   4.230   9.361 -0.2692  1.6446  0.4278
  423MOL0     O55762  10.195   4.168   9.289 -0.7778  0.6558 -0.6674
  423MOL0     C55763  10.234   4.230   9.162  0.3551  0.8474 -0.5519
  423MOL0     C55764  10.374   4.210   9.118 -0.2432  0.5968 -0.2081
  423MOL0     C55765  10.442   4.301   9.012 -0.2986 -0.0123 -0.2004
  423MOL0     C55766  10.417   4.448   9.022 -0.2372 -0.6675 -0.3943
  423MOL0     C55767  10.487   4.536   8.926  0.8599 -0.5440  0.1266
  423MOL0     C55768  10.546   4.608   8.850 -0.0149 -0.3871  0.2377
  423MOL0     C55769  10.124   4.230   9.505  0.0551  1.0694  0.2781
  423MOL0     C55770  10.042   4.295   9.599 -0.4118  0.1718 -1.3491
  423MOL0     H55771   9.568   4.402   9.794  0.1935  0.1064 -2.1356
  423MOL0     H55772   9.459   4.542   9.982 -0.4566  2.3839  0.6170
  423MOL0     H55773   9.527   5.001   9.975  2.0500 -0.6372  0.1152
  423MOL0     H55774   9.670   4.924  10.024  0.0743 -0.8195  0.9580
  423MOL0     H55775   9.429   4.933  10.218  0.7627 -1.9445  1.8032
  423MOL0     H55776   9.539   5.070  10.183 -1.2136  0.8203  2.2960
  423MOL0     H55777   9.624   4.975  10.368  1.8805  0.2068 -0.4775
  423MOL0     H55778   9.737   4.921  10.252  0.9836  3.6358  2.4646
  423MOL0     H55779   9.505   4.743  10.354 -2.8536  2.8382 -3.0024
  423MOL0     H55780   9.645   4.692  10.253  1.6097 -1.0413  2.9526
  423MOL0     H55781   9.642   4.777  10.533 -1.0482  0.1448 -0.4333
  423MOL0     H55782   9.787   4.759  10.440  0.7407 -0.7394  2.2390
  423MOL0     H55783   9.711   4.530  10.367  0.9567  1.0487 -0.7906
  423MOL0     H55784   9.592   4.524  10.496 -0.2976  1.0562  2.4698
  423MOL0     H55785   9.901   4.546  10.505  0.7930 -3.0698 -0.8271
  423MOL0     H55786   9.796   4.553  10.652  2.1911 -2.5977 -0.9139
  423MOL0     H55787   9.831   4.343  10.431  4.8362 -0.8804  0.3302
  423MOL0     H55788   9.736   4.310  10.583 -3.0468  3.5264  0.1719
  423MOL0     H55789  10.084   4.295  10.444  3.5401 -1.5106 -0.3970
  423MOL0     H55790  10.275   4.091  10.725 -3.2182 -1.1887 -0.2928
  423MOL0     H55791  10.344   4.214  10.605 -0.1469 -0.3661 -2.8135
  423MOL0     H55792  10.242   4.086  10.435 -0.6097  0.0959  0.2302
  423MOL0     H55793  10.170   3.969  10.550 -1.2415  1.9934  1.6665
  423MOL0     H55794  10.468   4.013  10.531 -1.6032  1.4143 -0.4451
  423MOL0     H55795  10.400   3.902  10.632 -2.6375 -1.4737 -0.3846
  423MOL0     H55796  10.338   3.902  10.332  0.9109  3.1603  0.4434
  423MOL0     H55797  10.313   3.770  10.448  2.1729 -1.9004 -0.2545
  423MOL0     H55798  10.340   3.754  10.155 -0.2282 -0.8015 -1.0801
  423MOL0     H55799  10.427   3.665   9.951  1.6110 -1.8098 -1.3452
  423MOL0     H55800  10.805   3.546   9.635  1.2777 -2.2554  1.4665
  423MOL0     H55801  10.802   3.469   9.399 -1.2932 -1.2616 -2.1583
  423MOL0     H55802  10.770   3.240   9.248  2.1688  0.2816 -0.0152
  423MOL0     H55803  10.780   3.418   9.206 -1.2931 -0.1177  0.5523
  423MOL0     H55804  10.815   3.311   9.022  1.2352  3.8168  2.1683
  423MOL0     H55805  10.655   3.400   9.019 -3.5968 -2.0945 -0.1576
  423MOL0     H55806  10.564   3.166   9.082  0.6073  1.0251  1.7211
  423MOL0     H55807  10.727   3.106   9.027  0.7326  1.4386 -0.2375
  423MOL0     H55808  10.528   3.269   8.854  0.1996  2.1592 -0.4650
  423MOL0     H55809  10.688   3.209   8.805 -0.0286 -2.6697  0.5708
  423MOL0     H55810  10.447   3.030   8.855  0.6666  0.2746  0.3588
  423MOL0     H55811  10.614   2.968   8.840 -1.0895 -1.6946 -1.0349
  423MOL0     H55812  10.632   3.004   8.620 -0.5077  0.4485 -0.3176
  423MOL0     H55813  10.544   3.151   8.629  1.4456  0.5854  0.9226
  423MOL0     H55814  10.359   2.901   8.652  0.4755  0.0822  2.2773
  423MOL0     H55815  10.330   3.057   8.590  0.4416  0.0317 -1.1260
  423MOL0     H55816  10.339   2.898   8.398 -0.9382  2.0778  1.5720
  423MOL0     H55817  10.498   2.862   8.438 -1.2961 -0.0700  0.1409
  423MOL0     H55818  10.398   3.366   9.405  0.7475  1.8566 -0.9328
  423MOL0     H55819  10.387   3.415   9.660 -1.3933 -0.7504 -1.4839
  423MOL0     H55820  10.817   3.642  10.101 -1.3257 -3.9014  0.7417
  423MOL0     H55821  10.734   3.744  10.325 -1.0934 -0.3574  0.0625
  423MOL0     H55822   9.624   4.880   9.785  1.4625  0.1916  2.9174
  423MOL0     H55823   9.731   4.740   9.622 -0.2352  0.8085  2.0319
  423MOL0     H55824   9.793   4.368   9.383 -0.8152 -1.7289 -0.0975
  423MOL0     H55825   9.936   4.289   9.213 -3.2374  1.5141  0.1335
  423MOL0     H55826  10.218   4.338   9.173  4.1691  1.4459  0.5856
  423MOL0     H55827  10.163   4.195   9.088 -0.8132  0.7983  0.5549
  423MOL0     H55828  10.441   4.231   9.202  1.0628 -0.7222 -0.8637
  423MOL0     H55829  10.385   4.102   9.101  0.3195 -0.0846  3.4967
  423MOL0     H55830  10.410   4.254   8.918 -0.7642  0.4356 -0.2684
  423MOL0     H55831  10.549   4.278   9.012 -0.9342 -4.0711 -3.1030
  423MOL0     H55832  10.310   4.465   9.009 -0.6035  0.7769  3.2360
  423MOL0     H55833  10.437   4.486   9.123 -0.2569  0.6340 -0.8739
  423MOL0     H55834  10.586   4.671   8.773  0.1452 -1.4014 -0.5250
  423MOL0     H55835  10.217   4.186   9.540 -0.5058  1.3482  2.2396
  423MOL0     H55836  10.077   4.294   9.702 -1.2833 -1.5233 -1.0291
  424MOL0     O55837   0.511  11.118   7.122  0.4014 -0.1575  0.8619
  424MOL0     C55838   0.604  11.137   7.200 -0.9446  0.4279  0.1554
  424MOL0     O55839   0.602  11.129   7.343  0.2413 -0.1849  0.0156
  424MOL0     C55840   0.494  11.081   7.415  0.9384 -0.1018 -0.8751
  424MOL0     C55841   0.495  11.106   7.558 -0.6848  0.7822 -0.2349
  424MOL0     C55842   0.398  11.057   7.644 -0.1693  0.0337 -0.1300
  424MOL0     C55843   0.287  10.993   7.588 -0.4988 -0.5104  0.0786
  424MOL0     O55844   0.183  10.942   7.672 -0.3053  0.6266  1.0399
  424MOL0     C55845   0.221  10.907   7.802 -0.1737 -0.2229 -0.3699
  424MOL0     C55846   0.104  10.857   7.890  0.0546  0.1817 -0.4234
  424MOL0     C55847   0.122  10.826   8.039 -0.6832 -0.2145 -0.9662
  424MOL0     C55848  -0.018  10.783   8.111  0.3204  0.1007  0.0080
  424MOL0     C55849  -0.023  10.635   8.130 -0.4475  0.0649 -0.0278
  424MOL0     C55850  -0.158  10.594   8.187 -1.0003 -0.6265 -0.3810
  424MOL0     C55851  -0.185  10.598   8.334 -0.1548  0.0616 -0.0229
  424MOL0     C55852  -0.075  10.524   8.417 -0.2465  0.4433  0.3332
  424MOL0     N55853  -0.112  10.466   8.548 -0.2214  0.7023  0.0737
  424MOL0     C55854  -0.216  10.521   8.629  0.6654 -0.5909 -0.6430
  424MOL0     C55855  -0.213  10.454   8.742  0.1737  0.1110 -0.5703
  424MOL0     C55856  -0.288  10.477   8.869 -0.4176  0.5667  0.9574
  424MOL0     C55857  -0.384  10.346   8.884 -0.3691 -0.4253 -0.1742
  424MOL0     C55858  -0.520  10.365   8.956  0.2487 -0.2934  0.1113
  424MOL0     C55859  -0.516  10.380   9.107  0.3054  0.4149 -0.3425
  424MOL0     O55860  -0.493  10.254   9.176 -0.3873  0.3932  0.1211
  424MOL0     C55861  -0.595  10.163   9.209  0.1495 -0.7895  0.4925
  424MOL0     C55862  -0.580  10.077   9.305 -0.2234  0.1941 -0.5822
  424MOL0     C55863  -0.677   9.972   9.340 -0.6739 -1.2015 -0.3735
  424MOL0     C55864  -0.809   9.983   9.282  0.0846  0.6787 -0.4069
  424MOL0     C55865  -0.916   9.886   9.335 -0.4412  0.3146  0.9143
  424MOL0     O55866  -0.878   9.787   9.420  0.3041 -0.0115  0.3793
  424MOL0     C55867  -0.969   9.696   9.445 -0.7591 -0.7815 -0.2552
  424MOL0     C55868  -1.024   9.692   9.564  0.6467  0.5199 -0.3699
  424MOL0     C55869  -1.121   9.592   9.606 -0.2722 -0.0397  0.3137
  424MOL0     C55870  -1.165   9.502   9.508  0.6763  0.1986 -0.1103
  424MOL0     O55871  -1.265   9.411   9.517 -0.7513  0.2521 -1.3509
  424MOL0     C55872  -1.358   9.425   9.632 -0.7981  0.2468  0.2669
  424MOL0     C55873  -1.466   9.322   9.625 -0.0988 -0.7574  0.6427
  424MOL0     C55874  -1.484   9.268   9.484 -0.1248 -0.1820  0.0704
  424MOL0     C55875  -1.614   9.180   9.476  0.5271 -0.2800 -0.0078
  424MOL0     C55876  -1.653   9.152   9.328 -0.2831  0.3454 -0.1170
  424MOL0     C55877  -1.537   9.081   9.254 -1.2488  0.5727  0.1544
  424MOL0     C55878  -1.580   9.029   9.116 -0.0404  0.4865  0.1464
  424MOL0     C55879  -1.645   8.899   9.119  1.0743 -0.3504 -0.4087
  424MOL0    Cl55880  -1.706   8.858   8.960  0.5997 -0.2933 -0.2938
  424MOL0     C55881  -1.115   9.511   9.378 -0.4056  0.8168 -0.5209
  424MOL0     C55882  -1.015   9.603   9.348 -0.2216  0.2525 -0.0408
  424MOL0     O55883  -1.030   9.895   9.279  0.2910  0.7294  0.0621
  424MOL0     C55884  -0.823  10.084   9.184 -0.2416 -0.3118  0.3018
  424MOL0     C55885  -0.718  10.170   9.144  0.3872  0.5565  0.7537
  424MOL0     N55886  -0.117  10.359   8.731  0.5144  0.4169 -0.4803
  424MOL0     N55887  -0.054  10.357   8.612  0.1599 -0.3801 -0.7738
  424MOL0     C55888   0.266  10.987   7.451  0.0795  0.7721  0.9278
  424MOL0     C55889   0.368  11.032   7.366 -0.5872 -0.3442 -0.6023
  424MOL0     C55890   0.739  11.164   7.136 -0.5831 -0.0285 -0.8272
  424MOL0     C55891   0.762  11.182   6.999  0.1097  0.4151 -0.5446
  424MOL0     C55892   0.887  11.217   6.941 -0.2516  0.4185 -0.0849
  424MOL0     C55893   0.997  11.240   7.035  0.1363  0.1897  0.5030
  424MOL0     O55894   1.128  11.259   7.009 -0.2616  0.1083 -0.5181
  424MOL0     C55895   1.185  11.234   6.882  0.0025 -0.4949  0.4715
  424MOL0     C55896   1.178  11.369   6.812  0.3823 -0.5739  0.4583
  424MOL0     C55897   1.313  11.439   6.835  0.1473  0.3128 -0.6141
  424MOL0     C55898   1.316  11.586   6.784 -0.5252  0.8132 -0.5202
  424MOL0     C55899   1.231  11.664   6.873  0.2937  0.3767  0.0688
  424MOL0     C55900   1.156  11.737   6.942 -0.8715  0.6568 -0.3822
  424MOL0     C55901   0.971  11.230   7.175 -0.3903  0.1823  0.5925
  424MOL0     C55902   0.851  11.199   7.221  1.2130 -0.1797  0.7810
  424MOL0     H55903   0.578  11.150   7.613  0.8525 -2.1430  0.0167
  424MOL0     H55904   0.421  11.069   7.750 -0.1816  0.5995 -0.1907
  424MOL0     H55905   0.263  10.992   7.857 -0.6673 -0.4508  0.3868
  424MOL0     H55906   0.295  10.827   7.796  0.1558  0.1635 -1.7634
  424MOL0     H55907   0.072  10.771   7.830 -0.9613  1.2071 -1.3858
  424MOL0     H55908   0.023  10.930   7.889  1.5984  1.9781 -0.4396
  424MOL0     H55909   0.154  10.923   8.079  1.3014  0.4936 -3.9481
  424MOL0     H55910   0.193  10.743   8.035  0.0277  0.3627 -0.6356
  424MOL0     H55911  -0.026  10.836   8.206 -1.3531 -0.2452  0.0859
  424MOL0     H55912  -0.093  10.829   8.046  0.2034  2.4987  1.7286
  424MOL0     H55913   0.053  10.607   8.203  1.0317 -2.4925 -2.3695
  424MOL0     H55914  -0.007  10.566   8.046 -5.4602 -1.1376 -0.3101
  424MOL0     H55915  -0.163  10.492   8.148  2.3400 -1.1120  0.1534
  424MOL0     H55916  -0.238  10.655   8.143  1.8337  1.7627 -2.5718
  424MOL0     H55917  -0.198  10.704   8.358  2.6230  1.1835 -2.6993
  424MOL0     H55918  -0.278  10.543   8.348 -0.7048  0.6309 -1.2944
  424MOL0     H55919   0.009  10.589   8.441 -0.8247  1.4316 -0.2182
  424MOL0     H55920  -0.028  10.450   8.351 -2.1584 -0.8125  0.2889
  424MOL0     H55921  -0.282  10.603   8.601  1.6607  0.1481 -0.8800
  424MOL0     H55922  -0.353  10.558   8.835  0.5706  0.5458 -1.1686
  424MOL0     H55923  -0.228  10.491   8.959 -0.7844  1.4474  1.0786
  424MOL0     H55924  -0.329  10.271   8.942 -1.9019  0.2558  2.3413
  424MOL0     H55925  -0.399  10.304   8.784  0.4975 -0.6375 -0.2299
  424MOL0     H55926  -0.558  10.456   8.909  1.2460 -0.6498 -1.4945
  424MOL0     H55927  -0.583  10.282   8.921  1.5544 -0.6359 -1.5957
  424MOL0     H55928  -0.611  10.420   9.143  0.5761  4.2900 -3.2359
  424MOL0     H55929  -0.447  10.453   9.149 -0.1491  0.8363 -0.3243
  424MOL0     H55930  -0.479  10.066   9.343 -1.1452  0.1862  2.0515
  424MOL0     H55931  -0.662   9.887   9.406 -1.9393 -1.9626 -1.0143
  424MOL0     H55932  -0.993   9.765   9.639  1.4151  1.7924 -1.8712
  424MOL0     H55933  -1.142   9.588   9.712 -0.4680 -1.0577  0.2380
  424MOL0     H55934  -1.407   9.523   9.631 -0.0658  0.6586  1.8643
  424MOL0     H55935  -1.306   9.429   9.728 -1.6674 -1.0496  0.8133
  424MOL0     H55936  -1.557   9.377   9.649  0.0750  1.1077 -2.4247
  424MOL0     H55937  -1.473   9.241   9.697  0.0725 -1.0883  0.2894
  424MOL0     H55938  -1.398   9.203   9.468 -0.8264 -1.1443  0.1020
  424MOL0     H55939  -1.506   9.343   9.408 -0.2449 -1.0771 -0.7989
  424MOL0     H55940  -1.612   9.090   9.538  0.5625 -0.3569 -0.1202
  424MOL0     H55941  -1.705   9.221   9.521  1.0678 -0.8015  1.6406
  424MOL0     H55942  -1.676   9.248   9.280  2.2641  1.4839  0.7713
  424MOL0     H55943  -1.742   9.090   9.318  0.3561 -0.2190 -3.5631
  424MOL0     H55944  -1.494   8.991   9.300  1.9875  0.4987 -2.6187
  424MOL0     H55945  -1.451   9.148   9.261 -0.6086 -0.0188 -1.5434
  424MOL0     H55946  -1.642   9.100   9.060 -1.6105  0.4038  1.6990
  424MOL0     H55947  -1.491   9.015   9.054 -0.5850  1.5972 -0.9265
  424MOL0     H55948  -1.726   8.891   9.192  0.1410  0.6374 -1.2943
  424MOL0     H55949  -1.578   8.819   9.150 -0.8116 -1.7758  0.1775
  424MOL0     H55950  -1.137   9.444   9.296  0.9720  1.1095 -1.1677
  424MOL0     H55951  -0.964   9.604   9.252  1.4067  5.5240  0.5540
  424MOL0     H55952  -0.919  10.092   9.135 -0.6135 -0.4938  0.9878
  424MOL0     H55953  -0.719  10.217   9.047 -2.9475 -0.2522  0.2727
  424MOL0     H55954   0.179  10.940   7.407  0.1238  1.0078  0.5829
  424MOL0     H55955   0.347  11.036   7.259  0.2107  3.2844 -0.7680
  424MOL0     H55956   0.669  11.186   6.943 -2.0650  2.8020  2.8781
  424MOL0     H55957   0.892  11.223   6.833 -2.4906  0.5728 -0.2195
  424MOL0     H55958   1.123  11.165   6.824 -0.1752  1.2075 -1.4881
  424MOL0     H55959   1.289  11.199   6.886  0.3741  0.6117  1.0365
  424MOL0     H55960   1.179  11.342   6.706 -1.1063  0.3316  0.1821
  424MOL0     H55961   1.097  11.430   6.852 -0.5682 -0.5187 -1.4277
  424MOL0     H55962   1.389  11.372   6.795  2.8828  0.2486  4.0163
  424MOL0     H55963   1.336  11.434   6.942 -0.1719 -2.0282 -0.5967
  424MOL0     H55964   1.419  11.621   6.791  1.0986 -3.5819  0.7547
  424MOL0     H55965   1.282  11.578   6.680 -0.6900 -1.9780 -0.3044
  424MOL0     H55966   1.100  11.781   7.022 -1.1042 -3.8292  2.3163
  424MOL0     H55967   1.054  11.251   7.242  0.3184  1.2587 -0.5873
  424MOL0     H55968   0.819  11.190   7.324 -3.9581 -0.3171 -0.5555
  425MOL0     O55969   5.003   2.156  10.105  0.3289 -0.3271  0.1639
  425MOL0     C55970   4.899   2.105  10.052  0.1329 -0.3290  0.0404
  425MOL0     O55971   4.783   2.164  10.037  0.2416 -0.0146 -0.7484
  425MOL0     C55972   4.747   2.272  10.113  0.2125 -0.0781 -0.7332
  425MOL0     C55973   4.782   2.278  10.244  0.3419  0.1876  0.4668
  425MOL0     C55974   4.751   2.392  10.319  0.8692 -0.0462  0.1503
  425MOL0     C55975   4.697   2.506  10.257 -0.6851  0.3074  0.1974
  425MOL0     O55976   4.670   2.618  10.322  0.0830  0.1897  0.0879
  425MOL0     C55977   4.764   2.651  10.430 -0.3794  0.6017 -0.7233
  425MOL0     C55978   4.726   2.792  10.466 -0.2610  0.4119  0.3103
  425MOL0     C55979   4.836   2.848  10.555  0.2753 -0.5386  0.1286
  425MOL0     C55980   4.828   3.006  10.572 -0.1122 -0.2162  0.5825
  425MOL0     C55981   4.969   3.058  10.607 -0.1822 -0.3327  0.1426
  425MOL0     C55982   4.972   3.210  10.616 -0.6861 -0.8770  0.0962
  425MOL0     C55983   4.986   3.272  10.755  0.3641  0.5008 -0.4993
  425MOL0     C55984   4.875   3.211  10.842 -0.0736 -0.2909  0.0192
  425MOL0     N55985   4.886   3.291  10.967  0.0085  0.8877  0.1996
  425MOL0     C55986   4.945   3.238  11.082 -0.0372 -0.2649 -0.4449
  425MOL0     C55987   4.923   3.332  11.170 -0.3420  0.5333  0.4937
  425MOL0     C55988   4.962   3.317  11.314 -0.3054  0.5943 -0.0315
  425MOL0     C55989   5.105   3.330  11.341 -0.5361  0.4228 -0.2334
  425MOL0     C55990   5.134   3.323  11.496  0.1743  0.8726  0.5566
  425MOL0     C55991   5.279   3.305  11.541 -0.4412 -0.5900  0.3512
  425MOL0     O55992   5.357   3.406  11.476  0.1202  0.2301 -0.1613
  425MOL0     C55993   5.491   3.409  11.508 -0.2222  0.5398 -0.4167
  425MOL0     C55994   5.563   3.526  11.476  0.3469  1.1108 -0.5449
  425MOL0     C55995   5.693   3.528  11.526 -0.0371 -0.4152 -0.3034
  425MOL0     C55996   5.761   3.418  11.589 -0.0703 -0.3976  0.0048
  425MOL0     C55997   5.896   3.433  11.629  0.3048  0.8991 -0.6337
  425MOL0     O55998   5.936   3.564  11.649  0.4007 -0.2061  0.7493
  425MOL0     C55999   6.067   3.562  11.686 -0.5485 -0.0986 -0.0121
  425MOL0     C56000   6.112   3.619  11.802 -1.9456 -0.5556 -1.2326
  425MOL0     C56001   6.252   3.619  11.840  0.1670 -0.6417  0.8948
  425MOL0     C56002   6.342   3.567  11.756  0.0366  0.3212  0.7808
  425MOL0     O56003   6.477   3.539  11.783 -0.4830 -0.3955 -0.5203
  425MOL0     C56004   6.563   3.644  11.835 -0.2821 -0.4062 -0.2890
  425MOL0     C56005   6.660   3.583  11.945  0.5038  0.1502  0.1703
  425MOL0     C56006   6.775   3.668  11.992  0.4609 -0.4114  0.3694
  425MOL0     C56007   6.853   3.584  12.102  0.1509 -0.0828  0.7626
  425MOL0     C56008   6.980   3.519  12.049 -0.5351  0.1092  0.4828
  425MOL0     C56009   7.089   3.608  11.989 -0.4897  0.2800  0.1152
  425MOL0     C56010   7.226   3.538  11.962 -0.2944 -0.1544 -0.6115
  425MOL0     C56011   7.215   3.437  11.847 -0.3184 -0.2465  0.2008
  425MOL0    Cl56012   7.151   3.274  11.866  0.2801  0.0357  0.5832
  425MOL0     C56013   6.306   3.513  11.631  0.0004  0.3940  0.2030
  425MOL0     C56014   6.172   3.520  11.596 -0.3163 -0.4050  1.3484
  425MOL0     O56015   5.969   3.335  11.643  0.3947  0.3375  0.4133
  425MOL0     C56016   5.691   3.304  11.615  0.4595  0.1404 -0.0691
  425MOL0     C56017   5.558   3.303  11.580  0.3697 -0.0072  0.7105
  425MOL0     N56018   4.852   3.436  11.121  0.1976  0.1858  0.7311
  425MOL0     N56019   4.826   3.410  10.995 -0.0223  0.4975  0.0123
  425MOL0     C56020   4.669   2.496  10.121 -0.3055 -1.2299 -1.4778
  425MOL0     C56021   4.685   2.381  10.046 -0.4317  0.4112  0.7025
  425MOL0     C56022   4.898   1.967   9.999  0.4209 -1.1618  0.0379
  425MOL0     C56023   4.959   1.859  10.062 -0.7170  0.2187 -0.2526
  425MOL0     C56024   4.925   1.734  10.021  0.2583  0.6605  0.0248
  425MOL0     C56025   4.846   1.707   9.909 -0.4003  0.5130 -1.2068
  425MOL0     O56026   4.834   1.574   9.877 -0.5837  0.3507 -0.7723
  425MOL0     C56027   4.790   1.555   9.744  0.2114  0.0318 -0.9650
  425MOL0     C56028   4.754   1.406   9.718 -0.4194  0.3629  0.6309
  425MOL0     C56029   4.709   1.395   9.574 -0.0872  0.5563 -0.2977
  425MOL0     C56030   4.695   1.250   9.523  0.6604 -0.2387  1.0710
  425MOL0     C56031   4.567   1.183   9.564 -0.6058 -0.7614 -0.6885
  425MOL0     C56032   4.459   1.143   9.611 -0.9403 -0.6448 -0.0405
  425MOL0     C56033   4.788   1.816   9.848 -0.2174 -1.1965 -0.2231
  425MOL0     C56034   4.815   1.947   9.887 -0.1042  0.1832  0.4302
  425MOL0     H56035   4.833   2.193  10.288 -2.9882 -1.6600  1.0783
  425MOL0     H56036   4.776   2.373  10.423  2.3098  0.3939 -0.0933
  425MOL0     H56037   4.869   2.647  10.399 -0.3590 -1.6671 -0.5377
  425MOL0     H56038   4.755   2.581  10.514  0.5057 -1.2007 -2.0407
  425MOL0     H56039   4.630   2.798  10.518  0.6917  2.4933  1.9643
  425MOL0     H56040   4.724   2.856  10.377 -1.5575  0.0586  0.0493
  425MOL0     H56041   4.926   2.826  10.497 -0.1950 -0.3566 -0.6977
  425MOL0     H56042   4.843   2.789  10.647  0.5206  1.1589  1.2415
  425MOL0     H56043   4.791   3.066  10.489  2.8077  2.6950  1.2031
  425MOL0     H56044   4.770   3.031  10.661 -0.5038  0.8737  0.0307
  425MOL0     H56045   5.042   3.026  10.531  0.6058  0.2007  0.6628
  425MOL0     H56046   5.005   3.010  10.698  1.9045 -1.6585 -1.2566
  425MOL0     H56047   4.884   3.255  10.569 -0.4686 -1.1088 -0.5498
  425MOL0     H56048   5.061   3.252  10.568 -1.2231 -0.0312 -0.1876
  425MOL0     H56049   5.087   3.241  10.781 -0.9299 -3.0404  0.9863
  425MOL0     H56050   4.981   3.381  10.744 -0.7190  0.2051 -3.9012
  425MOL0     H56051   4.897   3.106  10.865  1.2531 -0.8952 -3.5123
  425MOL0     H56052   4.780   3.224  10.789 -0.4866 -0.6219  0.6623
  425MOL0     H56053   4.978   3.140  11.115 -1.7752  0.2999  3.5752
  425MOL0     H56054   4.932   3.222  11.359  0.1370  0.7557  0.6043
  425MOL0     H56055   4.913   3.401  11.365  1.1299 -0.0965  2.6492
  425MOL0     H56056   5.142   3.420  11.291  0.6021 -0.4022 -0.9352
  425MOL0     H56057   5.165   3.245  11.306 -0.2757 -0.5529  2.3994
  425MOL0     H56058   5.111   3.419  11.543  1.2739  0.7346  1.4278
  425MOL0     H56059   5.078   3.242  11.544  0.5884 -1.4544 -2.6109
  425MOL0     H56060   5.311   3.202  11.525  2.0329  0.1438  0.1271
  425MOL0     H56061   5.291   3.315  11.650  1.5263 -2.8138  0.4043
  425MOL0     H56062   5.508   3.609  11.432 -1.6001  0.7532  1.0955
  425MOL0     H56063   5.738   3.627  11.526  2.8364 -1.6077 -0.9070
  425MOL0     H56064   6.040   3.666  11.868 -0.7352 -4.1844  3.1892
  425MOL0     H56065   6.277   3.670  11.932  0.7045  0.6713  0.0497
  425MOL0     H56066   6.493   3.712  11.884  0.3839 -1.8369  2.9187
  425MOL0     H56067   6.625   3.690  11.758  0.9047 -2.4559 -0.6255
  425MOL0     H56068   6.695   3.491  11.897 -1.2671  0.4548 -1.9014
  425MOL0     H56069   6.594   3.541  12.021 -1.2506  0.4595 -1.1229
  425MOL0     H56070   6.734   3.760  12.035  0.4436  1.4564 -3.2797
  425MOL0     H56071   6.824   3.704  11.901  0.2158 -1.0166 -0.0035
  425MOL0     H56072   6.895   3.656  12.173  0.4045  0.3741  0.1656
  425MOL0     H56073   6.796   3.506  12.153 -0.6934 -0.0530 -0.1138
  425MOL0     H56074   6.939   3.457  11.968 -1.0540 -1.6602  2.0470
  425MOL0     H56075   7.025   3.452  12.123  0.7366  1.2269  0.7624
  425MOL0     H56076   7.112   3.687  12.061 -0.0758  1.6108 -1.4402
  425MOL0     H56077   7.061   3.655  11.895 -3.1840  0.8805  1.1265
  425MOL0     H56078   7.292   3.620  11.932  0.0005  0.2759  1.1140
  425MOL0     H56079   7.271   3.496  12.052  2.5359  1.4043 -1.1673
  425MOL0     H56080   7.320   3.414  11.830  0.2865  2.6645 -0.4780
  425MOL0     H56081   7.188   3.497  11.759  1.6483  0.6848  0.1873
  425MOL0     H56082   6.376   3.468  11.561  0.0420  3.2661 -1.7331
  425MOL0     H56083   6.148   3.494  11.494 -0.5254  1.1497  0.9808
  425MOL0     H56084   5.727   3.211  11.656  2.1530 -0.5900 -2.9447
  425MOL0     H56085   5.510   3.210  11.608  1.6482 -0.3756  1.8313
  425MOL0     H56086   4.604   2.572  10.079  0.5193 -1.9589 -4.2671
  425MOL0     H56087   4.661   2.374   9.941  1.5121 -4.6989  0.2945
  425MOL0     H56088   5.027   1.870  10.146 -1.5570  3.6377  0.1381
  425MOL0     H56089   4.960   1.649  10.079 -1.8133 -2.3083 -2.7074
  425MOL0     H56090   4.867   1.597   9.679  2.9010 -2.4217  0.3804
  425MOL0     H56091   4.704   1.617   9.717  1.4688  0.6199 -4.0412
  425MOL0     H56092   4.835   1.335   9.738 -0.4623 -1.6473 -4.8697
  425MOL0     H56093   4.673   1.369   9.783 -1.8110 -1.0479 -1.7586
  425MOL0     H56094   4.766   1.462   9.509 -1.6480  0.8480 -1.3895
  425MOL0     H56095   4.613   1.446   9.564 -0.1422  0.4121 -0.5122
  425MOL0     H56096   4.701   1.254   9.413  1.1621 -1.8282  1.0138
  425MOL0     H56097   4.782   1.190   9.549  0.0094 -1.3057  0.8449
  425MOL0     H56098   4.372   1.101   9.657  0.8279 -2.6070  1.6899
  425MOL0     H56099   4.730   1.820   9.756 -3.2008  0.5926  1.5597
  425MOL0     H56100   4.758   2.025   9.836 -3.0439 -0.1581  2.8824
  426MOL0     O56101  10.242   3.185   7.651 -0.3193 -0.0444 -0.0977
  426MOL0     C56102  10.142   3.207   7.708 -0.7331 -0.1510 -0.8430
  426MOL0     O56103  10.062   3.310   7.689  0.1639  1.2602 -0.2363
  426MOL0     C56104  10.070   3.386   7.572 -0.5575  0.1138 -0.5856
  426MOL0     C56105  10.021   3.337   7.441 -0.4131 -0.6131 -0.2682
  426MOL0     C56106  10.035   3.424   7.330 -0.2193  0.6539  0.8572
  426MOL0     C56107  10.095   3.551   7.353  0.5620 -0.7290  1.3254
  426MOL0     O56108  10.101   3.621   7.237 -0.1571 -0.5463  0.0834
  426MOL0     C56109  10.228   3.601   7.169  0.8216 -0.2237 -0.3177
  426MOL0     C56110  10.257   3.724   7.083  0.0537 -0.4088 -0.0395
  426MOL0     C56111  10.263   3.859   7.164 -0.3370 -0.1926  0.3858
  426MOL0     C56112  10.307   3.971   7.069  0.2541 -0.4122  0.6069
  426MOL0     C56113  10.335   4.097   7.151 -0.0280  0.3477 -0.4442
  426MOL0     C56114  10.355   4.220   7.071  1.2737 -0.3824  1.3518
  426MOL0     C56115  10.502   4.258   7.026  0.9205 -0.3218  0.5120
  426MOL0     C56116  10.521   4.403   6.977 -0.2694  0.2251 -0.2339
  426MOL0     N56117  10.668   4.423   6.964  0.1621  0.4809  0.4939
  426MOL0     C56118  10.735   4.421   6.846 -0.1480  0.4164 -0.7646
  426MOL0     C56119  10.847   4.489   6.877  0.4634 -0.9425 -0.4219
  426MOL0     C56120  10.948   4.527   6.787  0.0393 -0.0666  0.2052
  426MOL0     C56121  11.023   4.399   6.724 -0.3494  0.9332 -0.6175
  426MOL0     C56122  11.058   4.292   6.827  0.0540  1.2206  0.7375
  426MOL0     C56123  11.152   4.325   6.935  0.2047  0.3097  0.6140
  426MOL0     O56124  11.186   4.192   6.993  0.6639  0.3216 -0.1986
  426MOL0     C56125  11.237   4.191   7.129  0.4331 -1.1513  0.0451
  426MOL0     C56126  11.208   4.087   7.217  0.1471 -0.7540  0.6156
  426MOL0     C56127  11.255   4.097   7.348  0.3947 -0.1651 -0.9191
  426MOL0     C56128  11.325   4.211   7.398  0.1588  0.9497 -0.0169
  426MOL0     C56129  11.356   4.217   7.542  0.5161  0.0602  1.4408
  426MOL0     O56130  11.427   4.326   7.592 -0.1325  0.2475 -0.0462
  426MOL0     C56131  11.476   4.332   7.720 -0.0344  0.3752  0.1840
  426MOL0     C56132  11.501   4.225   7.811 -0.0519 -0.5577  0.7584
  426MOL0     C56133  11.532   4.262   7.940  1.4828 -0.1948  0.6035
  426MOL0     C56134  11.562   4.393   7.968  0.1069 -0.6566 -0.6029
  426MOL0     O56135  11.615   4.428   8.093  0.1993 -0.9480 -0.2786
  426MOL0     C56136  11.604   4.567   8.134 -0.4009  0.1036 -0.1147
  426MOL0     C56137  11.614   4.565   8.290 -0.1770  0.2942  0.2768
  426MOL0     C56138  11.764   4.539   8.335 -0.1813 -0.1172 -1.4632
  426MOL0     C56139  11.825   4.670   8.383 -0.6619  0.5264 -0.6532
  426MOL0     C56140  11.971   4.666   8.436  0.6567  0.2294  0.8056
  426MOL0     C56141  12.030   4.811   8.453  0.9747  0.7197  0.6451
  426MOL0     C56142  12.170   4.795   8.509 -0.3579 -0.8055  0.5096
  426MOL0     C56143  12.176   4.828   8.658 -0.5212 -1.1819 -0.6055
  426MOL0    Cl56144  12.345   4.801   8.713  0.1964  0.1313 -0.0405
  426MOL0     C56145  11.540   4.502   7.879 -0.9487 -0.6307  0.4597
  426MOL0     C56146  11.487   4.462   7.760 -0.9636  0.0631  0.0278
  426MOL0     O56147  11.316   4.120   7.611  0.2955 -0.3183 -0.5062
  426MOL0     C56148  11.366   4.310   7.304  0.0628 -0.2445  0.2057
  426MOL0     C56149  11.310   4.304   7.174  0.9454 -1.6806 -0.1260
  426MOL0     N56150  10.861   4.507   7.017 -1.4041  0.2813  0.2750
  426MOL0     N56151  10.749   4.462   7.066 -0.6540  0.0219  0.1813
  426MOL0     C56152  10.136   3.603   7.473  0.4360 -0.0522 -0.2866
  426MOL0     C56153  10.119   3.523   7.588 -0.0467 -0.0138 -0.1251
  426MOL0     C56154  10.093   3.118   7.811 -0.2779  0.4754  0.2467
  426MOL0     C56155  10.143   2.982   7.812 -0.1799  0.5224 -0.2427
  426MOL0     C56156  10.092   2.891   7.902 -0.7076  0.1048  0.1334
  426MOL0     C56157   9.991   2.931   7.994 -0.0627  0.8103 -0.1063
  426MOL0     O56158   9.964   2.835   8.089 -0.3542  0.2253  0.0090
  426MOL0     C56159   9.913   2.883   8.219 -0.1877  0.0732 -0.4752
  426MOL0     C56160   9.917   2.766   8.333 -0.8245  0.4294 -0.3778
  426MOL0     C56161  10.059   2.709   8.355 -0.8091  0.0155 -0.2806
  426MOL0     C56162  10.048   2.584   8.439 -0.1905  0.6464  0.3761
  426MOL0     C56163  10.032   2.599   8.583  0.1934 -0.6812  0.3894
  426MOL0     C56164  10.011   2.623   8.700  0.2554  0.2723 -0.5607
  426MOL0     C56165   9.942   3.061   7.999 -0.2067  0.3572 -0.3347
  426MOL0     C56166   9.987   3.147   7.898  0.0196  0.7093  0.0851
  426MOL0     H56167   9.992   3.236   7.416 -0.7330 -0.3685 -0.9181
  426MOL0     H56168  10.019   3.386   7.229  2.1800  0.2141  0.5689
  426MOL0     H56169  10.233   3.513   7.105  2.0727  1.3255 -2.4732
  426MOL0     H56170  10.317   3.599   7.232  1.5448  1.0557 -1.2736
  426MOL0     H56171  10.187   3.734   6.999 -0.8631  2.6142  0.9764
  426MOL0     H56172  10.359   3.711   7.044  0.8344  2.4217  0.8179
  426MOL0     H56173  10.331   3.837   7.247 -0.1037  0.6951  0.4466
  426MOL0     H56174  10.170   3.889   7.213 -0.1024  0.5574  0.3857
  426MOL0     H56175  10.394   3.940   7.010 -0.3837  0.4984 -0.8806
  426MOL0     H56176  10.220   3.984   7.003 -0.5052  0.4044  1.7328
  426MOL0     H56177  10.421   4.068   7.213  0.3577 -1.9115 -1.9167
  426MOL0     H56178  10.257   4.128   7.221  0.0962 -0.7289  0.1907
  426MOL0     H56179  10.305   4.301   7.124 -2.1781 -0.0311 -2.0416
  426MOL0     H56180  10.295   4.208   6.981  3.1936 -0.6111  0.0538
  426MOL0     H56181  10.568   4.255   7.113  0.9372  0.7483  0.5585
  426MOL0     H56182  10.540   4.178   6.962  0.8893 -1.4964  1.9114
  426MOL0     H56183  10.483   4.466   7.058  2.1439  0.6977  0.6118
  426MOL0     H56184  10.461   4.440   6.893 -1.9578  2.5605  1.8473
  426MOL0     H56185  10.687   4.405   6.750  0.3101 -2.7773 -0.5665
  426MOL0     H56186  11.023   4.594   6.828  0.9215 -2.5227  2.9551
  426MOL0     H56187  10.896   4.579   6.706 -0.6865 -1.5951 -0.3622
  426MOL0     H56188  11.119   4.435   6.688  0.7352 -1.6893 -0.5669
  426MOL0     H56189  10.971   4.362   6.635 -0.0919  0.3048 -0.5134
  426MOL0     H56190  10.966   4.253   6.870  1.0299 -1.6000  0.4453
  426MOL0     H56191  11.103   4.214   6.765  0.1660  0.9969  1.1016
  426MOL0     H56192  11.098   4.393   7.001 -2.0128  1.2694 -2.0083
  426MOL0     H56193  11.248   4.360   6.895 -0.7497 -0.3458 -2.4696
  426MOL0     H56194  11.158   3.991   7.207 -2.0019 -0.1993  4.2097
  426MOL0     H56195  11.232   4.018   7.419 -0.3050 -1.6842 -2.7402
  426MOL0     H56196  11.496   4.121   7.782  0.9526 -0.1633 -0.9930
  426MOL0     H56197  11.550   4.192   8.020  4.4225 -0.7753 -0.4490
  426MOL0     H56198  11.513   4.619   8.103 -0.0761 -0.0210 -1.3420
  426MOL0     H56199  11.691   4.620   8.092  0.3736 -2.0364 -1.3440
  426MOL0     H56200  11.551   4.482   8.325  3.4449 -1.3380  3.7407
  426MOL0     H56201  11.573   4.662   8.320 -0.6713 -0.1252  0.9899
  426MOL0     H56202  11.831   4.471   8.282  0.9606 -1.6510  1.7111
  426MOL0     H56203  11.757   4.484   8.429  1.7930  1.9105 -0.0424
  426MOL0     H56204  11.824   4.747   8.305  3.7886  0.4019 -1.0885
  426MOL0     H56205  11.761   4.706   8.464 -0.4540 -0.9306  0.1939
  426MOL0     H56206  12.028   4.605   8.364  0.0959  2.0417 -1.2632
  426MOL0     H56207  11.975   4.620   8.536 -2.4900  2.8993  2.3270
  426MOL0     H56208  11.965   4.872   8.517  2.6271  0.3909  2.7097
  426MOL0     H56209  12.028   4.866   8.358 -1.0398  1.9735  1.3477
  426MOL0     H56210  12.209   4.693   8.500 -1.4913 -1.1680 -0.6793
  426MOL0     H56211  12.222   4.850   8.431  0.1841 -1.6637  0.2462
  426MOL0     H56212  12.121   4.761   8.725  2.6547 -1.2318  2.2344
  426MOL0     H56213  12.140   4.929   8.678  0.4532 -0.4914 -2.1384
  426MOL0     H56214  11.557   4.607   7.899  1.8307 -1.1876  1.4987
  426MOL0     H56215  11.450   4.535   7.689 -1.0823  0.8293  0.8638
  426MOL0     H56216  11.424   4.390   7.349 -0.9768  1.6993 -1.7419
  426MOL0     H56217  11.330   4.381   7.100  1.0532  0.7523  2.2553
  426MOL0     H56218  10.172   3.705   7.484 -3.7999  1.5213  1.4243
  426MOL0     H56219  10.160   3.543   7.686  0.2061 -0.8958 -0.0413
  426MOL0     H56220  10.209   2.939   7.738  0.6409 -3.4496  2.5046
  426MOL0     H56221  10.127   2.788   7.907  3.4202  1.3803  1.3774
  426MOL0     H56222   9.810   2.917   8.208 -0.6544 -1.1290  0.0235
  426MOL0     H56223   9.978   2.964   8.253  0.2481 -0.2484 -0.5368
  426MOL0     H56224   9.869   2.810   8.420  0.3614  1.6091 -0.2904
  426MOL0     H56225   9.850   2.682   8.310  1.9715 -1.7822 -1.0735
  426MOL0     H56226  10.122   2.791   8.392 -2.0898  1.1311 -0.4945
  426MOL0     H56227  10.087   2.678   8.254 -5.4967 -0.1664 -1.7454
  426MOL0     H56228   9.969   2.521   8.396  1.8528 -1.1833 -0.9374
  426MOL0     H56229  10.126   2.508   8.425  0.1060  0.4714  2.5497
  426MOL0     H56230  10.021   2.646   8.804  0.8053 -1.4688 -0.2035
  426MOL0     H56231   9.897   3.090   8.093 -0.5942 -1.8467  0.1926
  426MOL0     H56232   9.955   3.251   7.902 -0.2329  0.5989  1.6453
  427MOL0     O56233   0.963   2.383   6.682  0.2893  0.2392 -0.0550
  427MOL0     C56234   0.959   2.275   6.748  0.0055 -0.1027 -1.0668
  427MOL0     O56235   0.922   2.270   6.880 -0.1595  0.4895 -0.1355
  427MOL0     C56236   0.835   2.366   6.932  0.5485 -1.2935  0.7243
  427MOL0     C56237   0.854   2.379   7.076  1.6212 -0.9172 -0.2743
  427MOL0     C56238   0.777   2.472   7.147  0.0311 -0.2622  0.3598
  427MOL0     C56239   0.690   2.567   7.074 -0.5507 -1.0582  0.3461
  427MOL0     O56240   0.621   2.662   7.144 -0.8119  0.0126 -1.0524
  427MOL0     C56241   0.703   2.782   7.152 -0.0201 -0.0667  0.9506
  427MOL0     C56242   0.634   2.885   7.245  0.9709  0.1527  0.9066
  427MOL0     C56243   0.480   2.878   7.235  0.2771 -0.5244 -0.3658
  427MOL0     C56244   0.433   2.917   7.092 -0.6120  0.1229  1.0007
  427MOL0     C56245   0.285   2.898   7.068 -0.2937  0.9023 -0.0699
  427MOL0     C56246   0.236   2.752   7.064 -0.7055 -0.6137 -0.7449
  427MOL0     C56247   0.086   2.726   7.061 -0.0225  0.9564  1.1495
  427MOL0     C56248   0.060   2.585   7.003  0.4457 -0.3078  0.1118
  427MOL0     N56249   0.141   2.464   7.042  0.7553  0.1153 -0.2462
  427MOL0     C56250   0.256   2.429   6.969  0.4917 -0.0192 -0.0104
  427MOL0     C56251   0.318   2.336   7.049  0.0423 -0.3451 -0.5661
  427MOL0     C56252   0.440   2.257   7.011  0.2066 -0.3386 -0.4621
  427MOL0     C56253   0.427   2.123   7.086  0.2335 -0.3498 -0.2259
  427MOL0     C56254   0.547   2.025   7.073 -0.6619 -0.2274  0.8415
  427MOL0     C56255   0.602   1.996   6.933  0.9804 -0.1983 -0.6489
  427MOL0     O56256   0.708   1.903   6.932  0.6606 -0.0700 -0.5164
  427MOL0     C56257   0.693   1.766   6.962 -0.4429  0.1150  0.1135
  427MOL0     C56258   0.570   1.703   6.967  0.5840 -0.0029  0.1235
  427MOL0     C56259   0.557   1.568   6.996 -0.2366  0.1823  1.1391
  427MOL0     C56260   0.664   1.484   7.031 -0.5806 -0.0204 -0.0518
  427MOL0     C56261   0.654   1.344   7.069  0.2480  0.4517 -0.5057
  427MOL0     O56262   0.535   1.277   7.052  0.1003  0.5647  0.0998
  427MOL0     C56263   0.529   1.142   7.084  0.1590  0.2612  0.0061
  427MOL0     C56264   0.411   1.097   7.141  0.3571  0.0503 -0.2077
  427MOL0     C56265   0.399   0.961   7.181  0.6462  0.1957  0.2137
  427MOL0     C56266   0.496   0.864   7.159 -0.0774  0.1683  0.4297
  427MOL0     O56267   0.485   0.728   7.185 -0.4478  0.3518  0.0334
  427MOL0     C56268   0.352   0.670   7.196  0.3983 -0.1650  0.4374
  427MOL0     C56269   0.363   0.532   7.258  1.2153  0.0333 -0.6127
  427MOL0     C56270   0.422   0.430   7.157 -0.5901 -0.0428  0.2306
  427MOL0     C56271   0.311   0.336   7.102 -0.1752  0.0113  0.0116
  427MOL0     C56272   0.374   0.218   7.030  0.4338  0.6003 -0.1341
  427MOL0     C56273   0.324   0.092   7.094  0.0424  0.6365  0.2827
  427MOL0     C56274   0.389  -0.028   7.003  0.2952 -0.2141  0.0803
  427MOL0     C56275   0.299  -0.122   6.934  0.5608 -0.3141 -0.6901
  427MOL0    Cl56276   0.197  -0.051   6.811 -0.1929 -0.5572  0.0507
  427MOL0     C56277   0.616   0.909   7.114  0.0667 -0.0440  0.4177
  427MOL0     C56278   0.631   1.041   7.068 -0.1073  0.6231  0.1559
  427MOL0     O56279   0.754   1.290   7.116  0.9804 -0.5998  0.2370
  427MOL0     C56280   0.797   1.550   7.017 -0.0673  0.7736  0.9694
  427MOL0     C56281   0.806   1.682   6.992  0.4109  0.2199 -0.1076
  427MOL0     N56282   0.236   2.320   7.163 -0.6025  0.5495 -0.4911
  427MOL0     N56283   0.136   2.393   7.161  0.0353 -0.0782 -0.1782
  427MOL0     C56284   0.663   2.545   6.936  0.4543  0.5121  0.0569
  427MOL0     C56285   0.736   2.451   6.877 -0.3209 -0.0087  1.5290
  427MOL0     C56286   1.019   2.153   6.695 -0.0137  1.5412  0.3316
  427MOL0     C56287   1.098   2.150   6.578  0.9090  0.3774  0.5538
  427MOL0     C56288   1.149   2.023   6.541  0.4716  0.4850  0.2502
  427MOL0     C56289   1.139   1.911   6.621 -0.9752 -0.0818 -0.3305
  427MOL0     O56290   1.192   1.791   6.562  0.8792  0.0246 -0.5355
  427MOL0     C56291   1.311   1.747   6.631  0.2636 -0.1676 -0.5339
  427MOL0     C56292   1.389   1.641   6.544  0.0977 -0.2205 -0.3341
  427MOL0     C56293   1.428   1.700   6.400 -0.0454 -0.4684 -0.0755
  427MOL0     C56294   1.535   1.826   6.413  0.2127 -0.4891  0.2404
  427MOL0     C56295   1.645   1.798   6.504 -0.2771 -0.4032 -0.2240
  427MOL0     C56296   1.726   1.787   6.592 -0.0890 -0.0895  0.2647
  427MOL0     C56297   1.078   1.915   6.742 -0.1892 -1.1991  0.0160
  427MOL0     C56298   1.007   2.033   6.781 -0.3198  0.1835 -0.1088
  427MOL0     H56299   0.917   2.307   7.125  2.8738  0.1855 -0.2202
  427MOL0     H56300   0.790   2.479   7.254 -1.2984  2.4987  0.4315
  427MOL0     H56301   0.722   2.821   7.051  2.8057  1.3906  1.9487
  427MOL0     H56302   0.800   2.752   7.193 -1.3171 -2.2114  2.6206
  427MOL0     H56303   0.665   2.989   7.229  0.0476  0.5402  1.4953
  427MOL0     H56304   0.663   2.883   7.351  0.6090 -0.9538  1.0007
  427MOL0     H56305   0.431   2.948   7.303  2.9846  1.2994 -0.1233
  427MOL0     H56306   0.456   2.774   7.256  0.7990 -0.4463  0.6291
  427MOL0     H56307   0.440   3.023   7.068  1.4393 -0.0429  0.7330
  427MOL0     H56308   0.489   2.859   7.018 -2.8781 -1.8921  0.7454
  427MOL0     H56309   0.265   2.926   6.964 -2.4049 -2.6206 -0.7722
  427MOL0     H56310   0.222   2.956   7.137 -1.9944 -1.1193  0.1643
  427MOL0     H56311   0.277   2.695   7.148  1.5822 -1.2892 -2.2363
  427MOL0     H56312   0.291   2.727   6.972  4.8656  0.0580  1.9959
  427MOL0     H56313   0.068   2.740   7.168  0.7598 -0.3405  1.4787
  427MOL0     H56314   0.031   2.798   7.000  2.3655  2.6859  0.9026
  427MOL0     H56315   0.046   2.595   6.895 -1.6146 -3.0082  0.0427
  427MOL0     H56316  -0.045   2.566   7.026  0.3666 -2.6301 -1.8789
  427MOL0     H56317   0.288   2.483   6.880  0.3553  0.2228  0.0853
  427MOL0     H56318   0.535   2.309   7.029  3.0943 -4.5573 -1.9110
  427MOL0     H56319   0.439   2.237   6.903 -3.9789 -2.1123 -0.2768
  427MOL0     H56320   0.339   2.069   7.050 -1.0997 -0.3274  2.6831
  427MOL0     H56321   0.414   2.156   7.190  0.9797  1.4649 -0.6772
  427MOL0     H56322   0.636   2.059   7.127 -1.0114  0.9458  0.7074
  427MOL0     H56323   0.525   1.928   7.119 -0.9249  1.0563  3.6758
  427MOL0     H56324   0.641   2.089   6.891 -0.4442 -0.2864 -2.3071
  427MOL0     H56325   0.514   1.968   6.875  0.2394  1.5352 -0.4325
  427MOL0     H56326   0.476   1.749   6.940  0.2732  0.3474  1.7059
  427MOL0     H56327   0.460   1.523   6.980  0.7113 -1.4951 -0.2875
  427MOL0     H56328   0.318   1.152   7.154  1.2275  1.3043  0.8948
  427MOL0     H56329   0.311   0.932   7.238  1.0774 -3.0283 -0.5902
  427MOL0     H56330   0.302   0.675   7.099 -0.5626  0.2243  0.9383
  427MOL0     H56331   0.283   0.725   7.261 -1.6480  1.1413 -2.5574
  427MOL0     H56332   0.261   0.507   7.288  1.1048  0.8532 -0.2587
  427MOL0     H56333   0.430   0.539   7.344  0.9273  0.7539 -0.4336
  427MOL0     H56334   0.495   0.365   7.207 -1.4192  0.2788  1.9308
  427MOL0     H56335   0.473   0.474   7.071  3.1782 -5.1715 -0.6684
  427MOL0     H56336   0.243   0.309   7.183  1.0579 -2.3176  0.3503
  427MOL0     H56337   0.256   0.391   7.025 -0.8946 -1.9283 -0.9168
  427MOL0     H56338   0.481   0.242   7.033  0.1742  1.9739 -1.2108
  427MOL0     H56339   0.338   0.212   6.927 -1.6380 -1.0641  0.5968
  427MOL0     H56340   0.216   0.075   7.092  0.6429 -4.7641 -0.0890
  427MOL0     H56341   0.364   0.086   7.195  1.9986 -2.6932 -0.5529
  427MOL0     H56342   0.454   0.014   6.926 -1.2652 -2.2693 -2.5166
  427MOL0     H56343   0.456  -0.083   7.071  2.9845 -0.0395 -2.2260
  427MOL0     H56344   0.234  -0.162   7.013  1.2104  0.0915  0.0551
  427MOL0     H56345   0.350  -0.205   6.885 -0.2219  0.0198 -2.1362
  427MOL0     H56346   0.700   0.842   7.101  0.9992  1.6297 -3.5381
  427MOL0     H56347   0.726   1.072   7.027 -0.9070  0.7952 -1.6490
  427MOL0     H56348   0.884   1.498   7.056 -1.4247 -0.1282  2.9220
  427MOL0     H56349   0.901   1.730   7.013  0.9320  0.6767 -3.0766
  427MOL0     H56350   0.579   2.593   6.886  0.4370  0.7138  0.2767
  427MOL0     H56351   0.731   2.441   6.769 -0.4742  0.2712  1.5112
  427MOL0     H56352   1.108   2.241   6.518 -0.3961  1.3970  1.8207
  427MOL0     H56353   1.178   2.010   6.437 -0.6750  0.9703 -0.1523
  427MOL0     H56354   1.275   1.710   6.728 -1.0310  0.4067 -0.7715
  427MOL0     H56355   1.376   1.831   6.656  0.8578 -0.7757 -0.0048
  427MOL0     H56356   1.476   1.595   6.592 -0.6764 -0.8456  0.5442
  427MOL0     H56357   1.326   1.551   6.539 -1.2816  0.5196  2.0577
  427MOL0     H56358   1.335   1.724   6.347  0.3377 -0.9659 -0.9937
  427MOL0     H56359   1.477   1.622   6.341 -1.7505 -0.7421 -1.2002
  427MOL0     H56360   1.566   1.857   6.312  3.7109  1.5370  1.7617
  427MOL0     H56361   1.471   1.905   6.454  1.3544  1.5275 -1.6206
  427MOL0     H56362   1.794   1.764   6.672 -1.8341 -2.0591  1.2721
  427MOL0     H56363   1.086   1.822   6.798 -0.8339 -2.0801 -1.3111
  427MOL0     H56364   0.947   2.038   6.871  1.0030  1.6607  0.7644
  428MOL0     O56365   5.635   7.046   5.548  0.5561  0.0836 -0.6015
  428MOL0     C56366   5.526   7.005   5.595 -0.9898 -0.4037  0.0299
  428MOL0     O56367   5.482   6.883   5.601 -0.0516  0.4385  0.5578
  428MOL0     C56368   5.563   6.787   5.552 -0.8694  0.2767  0.0144
  428MOL0     C56369   5.569   6.665   5.625  0.4140  0.6251  0.0998
  428MOL0     C56370   5.635   6.548   5.580 -0.6543 -0.3036 -0.2862
  428MOL0     C56371   5.710   6.561   5.463  0.2795  0.3383  0.4652
  428MOL0     O56372   5.778   6.449   5.427 -0.4299  0.1257 -0.1551
  428MOL0     C56373   5.765   6.400   5.294  0.4699  0.0895  0.1554
  428MOL0     C56374   5.820   6.251   5.289  0.0714  0.2195  0.4269
  428MOL0     C56375   5.786   6.186   5.154 -0.3781  0.5588 -0.1080
  428MOL0     C56376   5.859   6.241   5.032  0.0262 -0.7342 -0.6295
  428MOL0     C56377   5.868   6.154   4.905  0.5096 -0.4262  0.1844
  428MOL0     C56378   5.738   6.147   4.827  0.1785  0.5938 -0.3300
  428MOL0     C56379   5.761   6.048   4.716  0.3057 -0.0982  0.8564
  428MOL0     C56380   5.851   6.098   4.605  0.6291 -0.5568  0.3545
  428MOL0     N56381   5.839   6.009   4.490 -0.2345 -0.1797  0.9792
  428MOL0     C56382   5.892   5.883   4.478 -0.3871  0.7852  0.3969
  428MOL0     C56383   5.811   5.804   4.401  0.6569 -1.1157  0.3650
  428MOL0     C56384   5.825   5.656   4.365 -0.0797 -0.2488  0.3503
  428MOL0     C56385   5.781   5.572   4.475  0.2147  0.8326  0.9310
  428MOL0     C56386   5.785   5.415   4.453  0.0119 -0.0777 -0.6240
  428MOL0     C56387   5.924   5.372   4.426  0.0165  0.5551 -0.4042
  428MOL0     O56388   6.014   5.440   4.514 -0.8341 -0.3651 -0.2525
  428MOL0     C56389   6.144   5.448   4.468  0.2560  0.5083 -1.0892
  428MOL0     C56390   6.204   5.573   4.477  0.6985 -0.0295 -0.3552
  428MOL0     C56391   6.339   5.587   4.455 -0.2582  0.2567  0.9259
  428MOL0     C56392   6.421   5.478   4.412 -0.6375  0.5601 -0.7610
  428MOL0     C56393   6.561   5.499   4.361 -0.8596  0.4825  0.8600
  428MOL0     O56394   6.623   5.393   4.318  0.6788  0.2259  0.0183
  428MOL0     C56395   6.723   5.418   4.230  0.1808  0.0253 -0.5591
  428MOL0     C56396   6.713   5.357   4.101  1.2909 -0.1009 -0.3330
  428MOL0     C56397   6.816   5.383   4.009 -0.8341 -0.5250 -0.0283
  428MOL0     C56398   6.926   5.465   4.030 -1.0299 -0.6493  0.2492
  428MOL0     O56399   7.000   5.509   3.924  0.5398  0.3860 -0.1367
  428MOL0     C56400   7.061   5.645   3.919  0.4187  0.2651 -0.4058
  428MOL0     C56401   7.141   5.666   3.798 -0.1949  0.3235 -0.2522
  428MOL0     C56402   7.281   5.589   3.806 -0.1488 -0.5728  0.9402
  428MOL0     C56403   7.345   5.593   3.673 -1.3897  0.1101  0.6059
  428MOL0     C56404   7.501   5.567   3.691  0.6911  0.2853  1.0199
  428MOL0     C56405   7.579   5.540   3.562 -0.3335 -0.7114  0.4411
  428MOL0     C56406   7.729   5.573   3.572 -0.2950 -0.3043  0.0277
  428MOL0     C56407   7.812   5.514   3.459  0.0553 -0.3575 -0.3341
  428MOL0    Cl56408   7.800   5.616   3.312 -0.5443 -0.2153  0.2057
  428MOL0     C56409   6.935   5.522   4.159 -1.3056 -0.5961 -0.5266
  428MOL0     C56410   6.841   5.492   4.260 -0.5668 -0.0370 -0.3932
  428MOL0     O56411   6.600   5.621   4.345 -0.8018 -0.3686 -0.2485
  428MOL0     C56412   6.356   5.360   4.389  0.1364 -0.2425 -0.0189
  428MOL0     C56413   6.220   5.347   4.418  0.2703 -0.4590 -0.6979
  428MOL0     N56414   5.702   5.890   4.358  0.1108 -0.1279  0.6826
  428MOL0     N56415   5.727   6.010   4.406  0.3264  0.2430 -0.6437
  428MOL0     C56416   5.698   6.675   5.379 -0.0800 -0.1158  0.4754
  428MOL0     C56417   5.625   6.781   5.427  0.7753  0.6619 -0.3132
  428MOL0     C56418   5.453   7.112   5.663 -0.3879  0.0833  0.0706
  428MOL0     C56419   5.486   7.251   5.672 -1.4178  0.3916  0.1355
  428MOL0     C56420   5.403   7.346   5.738  0.6799 -0.3711  0.0204
  428MOL0     C56421   5.281   7.310   5.796 -0.6693 -0.2282 -0.2976
  428MOL0     O56422   5.197   7.402   5.851  0.1186  0.1939  0.1806
  428MOL0     C56423   5.191   7.527   5.786 -0.4827  0.6755  0.6891
  428MOL0     C56424   5.042   7.556   5.760  0.2069 -0.1556 -0.3724
  428MOL0     C56425   4.964   7.604   5.881 -0.1295 -1.1228 -0.3455
  428MOL0     C56426   4.982   7.514   6.014  0.2029  0.2057  0.0959
  428MOL0     C56427   4.875   7.556   6.108 -0.6391  0.3985 -0.9916
  428MOL0     C56428   4.777   7.582   6.176  0.1005 -0.4739 -0.6854
  428MOL0     C56429   5.249   7.173   5.786 -0.1377  0.6019  1.1142
  428MOL0     C56430   5.325   7.078   5.718 -0.2052  0.0587 -0.6305
  428MOL0     H56431   5.527   6.654   5.724  0.6588 -1.0683  0.0558
  428MOL0     H56432   5.641   6.462   5.646  0.2104  2.1384  3.1212
  428MOL0     H56433   5.815   6.464   5.221  0.4302 -0.7542 -0.6342
  428MOL0     H56434   5.662   6.399   5.257  2.0533 -2.3098 -5.1293
  428MOL0     H56435   5.777   6.187   5.367  1.0947  0.0324  0.8562
  428MOL0     H56436   5.929   6.257   5.291  0.1613  0.2575 -1.9824
  428MOL0     H56437   5.677   6.187   5.143 -0.3615 -0.3265 -0.3622
  428MOL0     H56438   5.827   6.087   5.173 -0.2991  1.0843  3.1639
  428MOL0     H56439   5.790   6.325   5.019 -1.3973 -1.3832  2.0700
  428MOL0     H56440   5.961   6.280   5.047  1.0955 -3.2090 -0.9888
  428MOL0     H56441   5.913   6.059   4.934  0.3820  0.1047  2.2390
  428MOL0     H56442   5.938   6.196   4.832 -0.8335  0.5994 -0.5746
  428MOL0     H56443   5.689   6.238   4.790 -2.6787 -0.8245 -0.3449
  428MOL0     H56444   5.663   6.104   4.894  1.6024  1.4626  1.9204
  428MOL0     H56445   5.806   5.956   4.756 -1.6182 -0.3690  2.5834
  428MOL0     H56446   5.662   6.027   4.673  1.0364  1.0721 -1.5492
  428MOL0     H56447   5.954   6.087   4.639  1.3862 -2.2409 -2.1742
  428MOL0     H56448   5.829   6.201   4.575  1.8943 -0.5684 -0.6923
  428MOL0     H56449   5.985   5.847   4.522 -1.9732 -2.8597  1.1576
  428MOL0     H56450   5.930   5.627   4.354 -0.0971 -0.0114 -0.4416
  428MOL0     H56451   5.766   5.637   4.275 -1.3555 -1.0121  1.3008
  428MOL0     H56452   5.674   5.593   4.488 -0.7830 -1.9213 -1.7895
  428MOL0     H56453   5.850   5.589   4.558  3.7606 -0.4544 -1.5562
  428MOL0     H56454   5.750   5.370   4.546 -3.3633 -1.7561 -2.5269
  428MOL0     H56455   5.718   5.377   4.375  0.0243 -4.3805  1.1971
  428MOL0     H56456   5.954   5.377   4.321 -0.1631  2.7010 -0.3848
  428MOL0     H56457   5.929   5.265   4.451 -5.5120 -0.3045 -1.6126
  428MOL0     H56458   6.144   5.651   4.523  0.8739 -0.0322 -0.1161
  428MOL0     H56459   6.379   5.688   4.457  0.5993  0.2977 -4.3383
  428MOL0     H56460   6.620   5.305   4.085  0.3136  2.1516 -2.7232
  428MOL0     H56461   6.789   5.348   3.910  1.1105 -0.6306 -0.5609
  428MOL0     H56462   7.115   5.673   4.010 -0.8130 -1.6860  0.9806
  428MOL0     H56463   6.976   5.713   3.913  0.9648  1.0376  0.3656
  428MOL0     H56464   7.148   5.774   3.783 -1.7383  0.2713 -1.6359
  428MOL0     H56465   7.084   5.632   3.712  0.7391  0.5358 -0.9752
  428MOL0     H56466   7.283   5.485   3.840  0.6047 -0.4752  1.2302
  428MOL0     H56467   7.343   5.646   3.876  2.5321 -3.7606  1.4280
  428MOL0     H56468   7.303   5.505   3.623  2.8670 -1.5964 -0.3662
  428MOL0     H56469   7.332   5.690   3.624 -4.1567  1.5871  3.7874
  428MOL0     H56470   7.507   5.471   3.742 -2.7942 -0.7312 -0.2239
  428MOL0     H56471   7.543   5.649   3.751  1.2128 -0.8121  2.1884
  428MOL0     H56472   7.542   5.601   3.479 -2.9202 -2.8904 -0.1787
  428MOL0     H56473   7.568   5.434   3.534 -1.5673 -0.7581  1.0540
  428MOL0     H56474   7.763   5.677   3.581  1.7729 -0.7838 -1.5368
  428MOL0     H56475   7.759   5.530   3.668 -0.4048 -2.4654 -0.8560
  428MOL0     H56476   7.763   5.419   3.434 -2.1434  1.2133 -2.4260
  428MOL0     H56477   7.916   5.494   3.487  0.5896  1.3563 -1.0033
  428MOL0     H56478   7.020   5.589   4.177 -0.3709 -2.3844  2.5035
  428MOL0     H56479   6.855   5.519   4.364  0.5356 -6.6319  1.6111
  428MOL0     H56480   6.402   5.266   4.358  0.7902  0.1368 -0.2221
  428MOL0     H56481   6.181   5.249   4.395 -2.3148 -0.0844  1.5497
  428MOL0     H56482   5.742   6.672   5.280 -1.8132 -0.7502 -0.3164
  428MOL0     H56483   5.620   6.868   5.363  0.9093 -1.1775 -2.9782
  428MOL0     H56484   5.574   7.297   5.628 -0.4351 -0.8138  0.7780
  428MOL0     H56485   5.417   7.453   5.749 -2.6388 -0.0056  2.1942
  428MOL0     H56486   5.230   7.522   5.684 -1.6465  0.9571  0.2102
  428MOL0     H56487   5.236   7.606   5.846  4.8502  1.4382 -3.4878
  428MOL0     H56488   5.030   7.625   5.676  0.7544  1.4481  0.8342
  428MOL0     H56489   4.998   7.459   5.732  0.5237  0.4390 -3.3034
  428MOL0     H56490   4.860   7.611   5.850  0.3083 -0.3910 -1.7621
  428MOL0     H56491   4.996   7.705   5.909  1.2886 -1.7153  0.2856
  428MOL0     H56492   4.971   7.408   5.988  0.1475 -0.8461  3.8637
  428MOL0     H56493   5.081   7.533   6.056 -0.0364  1.8987 -0.0210
  428MOL0     H56494   4.685   7.594   6.229  0.8163  1.7456  0.1443
  428MOL0     H56495   5.152   7.132   5.815 -0.4735  0.0891 -0.6036
  428MOL0     H56496   5.298   6.973   5.721  3.0367 -0.9146 -1.2933
  429MOL0     O56497   0.577   4.065   9.485 -0.4010  0.0071  0.4283
  429MOL0     C56498   0.474   4.123   9.453 -1.9973 -0.1909  0.5246
  429MOL0     O56499   0.359   4.068   9.415  0.4496  0.3274 -0.7931
  429MOL0     C56500   0.363   3.941   9.368  0.5421  0.0412 -0.0606
  429MOL0     C56501   0.347   3.835   9.449 -0.1504  0.1651 -0.1737
  429MOL0     C56502   0.353   3.706   9.405 -0.1375 -0.4408 -0.2213
  429MOL0     C56503   0.366   3.676   9.272  0.5320 -0.5753 -0.2295
  429MOL0     O56504   0.353   3.547   9.224  0.1070  0.0379  0.1002
  429MOL0     C56505   0.429   3.446   9.280  0.1817  0.5938  0.3252
  429MOL0     C56506   0.396   3.325   9.213  0.2486 -0.0306  0.2927
  429MOL0     C56507   0.471   3.325   9.073  0.0090  1.0833 -0.5941
  429MOL0     C56508   0.410   3.410   8.968 -0.2171 -0.2740  0.5667
  429MOL0     C56509   0.514   3.407   8.841  0.7308  0.1035 -0.3598
  429MOL0     C56510   0.464   3.497   8.728  0.2153 -0.5620  0.0838
  429MOL0     C56511   0.326   3.481   8.668 -0.1636 -0.2482  1.1906
  429MOL0     C56512   0.309   3.590   8.550  0.8990  0.0043 -0.6138
  429MOL0     N56513   0.389   3.570   8.432  0.4087  0.0569  0.1588
  429MOL0     C56514   0.432   3.677   8.355  0.6538 -0.2049  0.2392
  429MOL0     C56515   0.490   3.602   8.250 -0.1932  0.4835  0.3192
  429MOL0     C56516   0.552   3.671   8.135  0.3214  1.0050 -0.4298
  429MOL0     C56517   0.441   3.684   8.032 -0.1759 -0.6004  0.3538
  429MOL0     C56518   0.488   3.788   7.924  0.7711  0.3022 -0.0324
  429MOL0     C56519   0.584   3.733   7.832  0.4888  0.4602  0.5155
  429MOL0     O56520   0.509   3.640   7.754  0.5068 -0.3263 -0.1501
  429MOL0     C56521   0.566   3.545   7.682  0.1289  0.9629  0.0088
  429MOL0     C56522   0.684   3.576   7.616  0.5202 -0.1896 -0.6245
  429MOL0     C56523   0.741   3.488   7.532 -0.7545  0.0138 -0.1866
  429MOL0     C56524   0.683   3.357   7.516 -0.5223  0.3406  1.0532
  429MOL0     C56525   0.757   3.258   7.425  0.6763 -0.2623  0.7993
  429MOL0     O56526   0.868   3.305   7.353  0.3820 -0.4852 -0.5469
  429MOL0     C56527   0.966   3.228   7.302  0.0876  0.5535  1.1301
  429MOL0     C56528   1.001   3.243   7.171 -0.0672 -0.4942 -0.4181
  429MOL0     C56529   1.122   3.177   7.119  0.7675  0.3730  0.3916
  429MOL0     C56530   1.194   3.100   7.194 -0.5827  0.9487 -0.9105
  429MOL0     O56531   1.302   3.051   7.139  0.2241 -0.2504  0.2537
  429MOL0     C56532   1.353   2.925   7.174 -0.1191  0.1404 -0.0378
  429MOL0     C56533   1.492   2.940   7.231  0.4196  0.3729 -0.2607
  429MOL0     C56534   1.584   3.006   7.123 -0.6413 -0.6891 -0.2771
  429MOL0     C56535   1.710   3.035   7.202 -0.4356  0.8313 -0.0196
  429MOL0     C56536   1.832   3.072   7.101 -1.1092  0.1209 -0.1423
  429MOL0     C56537   1.850   2.965   6.991 -0.8884  0.6729  1.2583
  429MOL0     C56538   1.988   2.964   6.925 -0.3580  0.4533  0.1985
  429MOL0     C56539   1.990   2.852   6.829 -0.3470  0.6829  0.2527
  429MOL0    Cl56540   2.052   2.701   6.914 -0.1759 -0.1117 -0.1061
  429MOL0     C56541   1.150   3.075   7.326 -1.0270  0.0912  0.0485
  429MOL0     C56542   1.039   3.139   7.375 -0.1692  0.0456 -0.4735
  429MOL0     O56543   0.716   3.142   7.425 -0.5037 -0.5562 -0.7755
  429MOL0     C56544   0.565   3.326   7.583 -0.1988  0.7640 -0.5049
  429MOL0     C56545   0.509   3.414   7.672  0.0211  0.5277 -0.0537
  429MOL0     N56546   0.498   3.470   8.281  0.2842  0.3913 -0.4161
  429MOL0     N56547   0.429   3.454   8.389  0.4869  0.2515 -0.1725
  429MOL0     C56548   0.369   3.786   9.187 -0.0071  0.8927 -0.2083
  429MOL0     C56549   0.377   3.917   9.231 -0.2160  0.2941 -0.1894
  429MOL0     C56550   0.488   4.265   9.464  0.5658  0.1571 -0.3813
  429MOL0     C56551   0.398   4.343   9.388  0.5599  0.1131  0.0118
  429MOL0     C56552   0.384   4.478   9.411  0.4561  0.3466 -0.4196
  429MOL0     C56553   0.457   4.546   9.512 -0.8694 -0.0669 -0.0204
  429MOL0     O56554   0.423   4.676   9.524  0.7628  0.6441 -0.6020
  429MOL0     C56555   0.449   4.749   9.647 -0.1199 -0.0598  0.6610
  429MOL0     C56556   0.365   4.885   9.633  0.6392  0.4506  0.0141
  429MOL0     C56557   0.219   4.877   9.653  0.2394 -0.2795 -0.9991
  429MOL0     C56558   0.140   4.863   9.529 -0.6199 -0.1918 -0.1352
  429MOL0     C56559   0.005   4.895   9.551 -0.5026  0.6814 -0.3220
  429MOL0     C56560  -0.111   4.917   9.559  0.3466  0.8150  0.1465
  429MOL0     C56561   0.550   4.473   9.591  0.2198  0.7240 -0.8077
  429MOL0     C56562   0.566   4.325   9.563  0.6623  0.1802 -0.1966
  429MOL0     H56563   0.329   3.840   9.556 -0.3267  3.0259 -0.2622
  429MOL0     H56564   0.346   3.623   9.474  2.4345  0.0326  0.7174
  429MOL0     H56565   0.391   3.422   9.380  0.1245  0.7835  0.3483
  429MOL0     H56566   0.537   3.460   9.278  0.0693  1.4721 -2.1651
  429MOL0     H56567   0.288   3.325   9.197  0.0229  1.5765  1.5226
  429MOL0     H56568   0.431   3.234   9.263 -1.0152 -0.8303 -0.2308
  429MOL0     H56569   0.456   3.227   9.029  1.3490  1.1940 -1.3685
  429MOL0     H56570   0.578   3.348   9.084 -0.3691  3.4785 -1.2133
  429MOL0     H56571   0.310   3.373   8.942 -0.7940  1.2281  0.5187
  429MOL0     H56572   0.409   3.517   8.991  0.2383  0.3892 -2.2391
  429MOL0     H56573   0.522   3.304   8.805  3.1724 -0.0618  0.4441
  429MOL0     H56574   0.612   3.441   8.876  0.1397 -1.8873  4.0041
  429MOL0     H56575   0.536   3.476   8.648 -0.4497 -2.2212 -0.1084
  429MOL0     H56576   0.488   3.598   8.763 -1.6450 -0.7442  2.0780
  429MOL0     H56577   0.294   3.380   8.640 -1.6826  0.0250  1.8171
  429MOL0     H56578   0.254   3.499   8.749  0.7791 -1.0183  2.2162
  429MOL0     H56579   0.341   3.684   8.595 -3.4570  1.3512  0.1306
  429MOL0     H56580   0.202   3.603   8.530  0.6228 -2.3017 -0.8894
  429MOL0     H56581   0.404   3.781   8.363  0.7982  0.1168 -2.5474
  429MOL0     H56582   0.639   3.608   8.116  0.3283  0.4195  1.3191
  429MOL0     H56583   0.590   3.770   8.165 -2.1903  2.3555 -1.3987
  429MOL0     H56584   0.350   3.729   8.074 -0.6104  1.7091 -2.6818
  429MOL0     H56585   0.416   3.592   7.979 -1.3158 -0.7959  1.1844
  429MOL0     H56586   0.402   3.822   7.866 -0.8893 -0.9304  1.5515
  429MOL0     H56587   0.521   3.877   7.978  1.3795 -0.5824  1.1140
  429MOL0     H56588   0.669   3.681   7.876 -1.8620 -2.0691  2.4090
  429MOL0     H56589   0.623   3.816   7.773  0.8815  2.3329  3.2225
  429MOL0     H56590   0.725   3.677   7.614  2.9621 -1.0928  0.2511
  429MOL0     H56591   0.831   3.516   7.477  0.8052  3.2517  3.5399
  429MOL0     H56592   0.956   3.315   7.105 -1.7889 -2.4269 -1.4659
  429MOL0     H56593   1.156   3.194   7.017 -2.5061 -0.0373 -0.9198
  429MOL0     H56594   1.360   2.863   7.084 -1.7275 -2.1874  1.3253
  429MOL0     H56595   1.283   2.874   7.242  1.0479  0.2207  1.2692
  429MOL0     H56596   1.527   2.840   7.256 -1.1666 -0.9953 -3.0480
  429MOL0     H56597   1.493   2.998   7.324  1.5867  2.0736 -1.2690
  429MOL0     H56598   1.547   3.100   7.080 -0.3194 -0.8941 -1.0059
  429MOL0     H56599   1.611   2.933   7.046  2.4146  1.2465 -1.2383
  429MOL0     H56600   1.684   3.118   7.268  3.3405  0.9795  1.5458
  429MOL0     H56601   1.728   2.945   7.262 -0.5115  0.1646 -0.9607
  429MOL0     H56602   1.922   3.081   7.162  0.5639 -3.1521 -1.8537
  429MOL0     H56603   1.810   3.170   7.058 -1.4659 -1.5238 -4.1764
  429MOL0     H56604   1.762   2.962   6.926 -1.5073 -3.4580  2.0180
  429MOL0     H56605   1.833   2.862   7.023 -0.6873  0.2633  0.0874
  429MOL0     H56606   2.002   3.059   6.872 -4.0661  1.8851  1.4581
  429MOL0     H56607   2.069   2.958   6.999 -1.1825  0.9294  1.1598
  429MOL0     H56608   2.060   2.875   6.748  0.7788 -0.9695  0.7023
  429MOL0     H56609   1.898   2.843   6.771  0.8847 -0.5062 -1.6597
  429MOL0     H56610   1.218   3.025   7.394 -0.6423  1.8394  0.9888
  429MOL0     H56611   1.001   3.117   7.475 -2.2529  1.6192 -0.8475
  429MOL0     H56612   0.503   3.237   7.571  0.8067 -0.2328  1.3373
  429MOL0     H56613   0.415   3.398   7.723 -0.2355 -3.2183 -1.3751
  429MOL0     H56614   0.355   3.754   9.085 -1.6342 -1.9062  0.8081
  429MOL0     H56615   0.372   3.998   9.159 -2.9794 -1.5111 -2.2761
  429MOL0     H56616   0.330   4.299   9.316  0.3871 -0.6483  0.6351
  429MOL0     H56617   0.314   4.536   9.351  1.2356  0.9809 -0.7342
  429MOL0     H56618   0.553   4.780   9.641 -0.3901  0.6298 -2.0486
  429MOL0     H56619   0.432   4.695   9.741  0.6938  2.1058  2.1175
  429MOL0     H56620   0.411   4.959   9.700  2.5936  1.8846 -2.7121
  429MOL0     H56621   0.387   4.929   9.536 -0.6281  2.4312  0.5726
  429MOL0     H56622   0.183   4.970   9.698 -0.0393  1.5677 -4.6714
  429MOL0     H56623   0.191   4.803   9.729  0.4589 -2.6639 -3.0704
  429MOL0     H56624   0.192   4.912   9.446 -1.5441 -0.2602 -0.7735
  429MOL0     H56625   0.133   4.759   9.496  2.1437 -0.6415  0.5091
  429MOL0     H56626  -0.216   4.934   9.555 -0.3544 -2.8102 -0.3007
  429MOL0     H56627   0.611   4.504   9.675 -5.4292  0.6120  3.9014
  429MOL0     H56628   0.633   4.271   9.629  1.2965  0.9494 -0.1906
  430MOL0     O56629   8.624  10.103  10.457  0.3730  0.2346  0.3127
  430MOL0     C56630   8.643   9.981  10.420  0.7165  0.2075 -0.1104
  430MOL0     O56631   8.561   9.908  10.340  0.1623 -0.3654  0.0233
  430MOL0     C56632   8.437   9.899  10.386  0.3164  0.6433 -0.3792
  430MOL0     C56633   8.396   9.875  10.520  0.0864 -0.1480 -0.6537
  430MOL0     C56634   8.268   9.831  10.548  0.5922 -0.1971 -1.1512
  430MOL0     C56635   8.172   9.809  10.449 -0.0318  0.1368  0.0074
  430MOL0     O56636   8.041   9.779  10.476 -0.2538 -0.4529  0.2361
  430MOL0     C56637   7.996   9.717  10.598  0.4548  0.0452  0.2133
  430MOL0     C56638   7.846   9.694  10.612  1.3283 -1.0382  0.6012
  430MOL0     C56639   7.774   9.604  10.508  1.8031  0.5268  1.4313
  430MOL0     C56640   7.758   9.672  10.370  0.2070  0.3904 -0.1707
  430MOL0     C56641   7.737   9.577  10.255 -0.3720  0.9006  0.4523
  430MOL0     C56642   7.633   9.460  10.269  0.6459  0.5588  1.4081
  430MOL0     C56643   7.658   9.340  10.180 -0.2319  0.2568  0.0632
  430MOL0     C56644   7.689   9.378  10.036  0.1567 -0.4272 -0.9571
  430MOL0     N56645   7.583   9.470   9.992 -0.4072 -0.6335 -0.6688
  430MOL0     C56646   7.452   9.426   9.964 -0.5510  0.0798 -0.4743
  430MOL0     C56647   7.385   9.527   9.891  0.0040  0.2571  0.0658
  430MOL0     C56648   7.244   9.527   9.848  0.0161 -0.7149 -0.8160
  430MOL0     C56649   7.178   9.661   9.876 -0.3744 -0.1981  0.6510
  430MOL0     C56650   7.190   9.762   9.764  0.0614  0.2511 -0.3298
  430MOL0     C56651   7.276   9.888   9.796 -0.3105  0.2951  0.4224
  430MOL0     O56652   7.291   9.964   9.671 -0.6320 -1.0512  0.4833
  430MOL0     C56653   7.316  10.097   9.672 -0.5836  0.9914 -0.1432
  430MOL0     C56654   7.335  10.172   9.791 -0.0268 -0.2955 -0.1931
  430MOL0     C56655   7.352  10.314   9.779  0.4423 -0.6244  0.2887
  430MOL0     C56656   7.364  10.379   9.649 -0.1516  0.4045  1.0070
  430MOL0     C56657   7.371  10.526   9.635  0.6314  0.7563  0.6185
  430MOL0     O56658   7.317  10.597   9.737  0.0033  0.5548 -0.2621
  430MOL0     C56659   7.308  10.731   9.722 -0.3223 -0.2260  0.0264
  430MOL0     C56660   7.228  10.794   9.631  0.2855 -0.0275  0.2082
  430MOL0     C56661   7.219  10.939   9.628  0.7509  0.7388  0.3872
  430MOL0     C56662   7.288  11.016   9.713 -0.6105  0.2764  0.3507
  430MOL0     O56663   7.277  11.149   9.724 -0.4263 -0.4523  0.2076
  430MOL0     C56664   7.267  11.218   9.603 -0.1113 -0.1123 -1.0400
  430MOL0     C56665   7.266  11.375   9.633  0.2200  0.1560 -0.8617
  430MOL0     C56666   7.134  11.447   9.657  0.6775 -1.2036  0.1885
  430MOL0     C56667   7.154  11.594   9.698  0.2320  0.0075 -0.3464
  430MOL0     C56668   7.196  11.697   9.582  0.5735  0.6912  0.9322
  430MOL0     C56669   7.222  11.847   9.625 -0.5424  0.0734 -0.0616
  430MOL0     C56670   7.227  11.929   9.499  0.0566  0.4846  0.0635
  430MOL0     C56671   7.336  12.041   9.504  0.7720 -0.3295 -0.6910
  430MOL0    Cl56672   7.360  12.122   9.347  0.2972  0.1308  0.3357
  430MOL0     C56673   7.364  10.947   9.812  0.9942  0.3318  0.7669
  430MOL0     C56674   7.368  10.809   9.821 -0.3800 -0.5415 -0.0858
  430MOL0     O56675   7.416  10.567   9.524  0.6529  0.7233  0.0024
  430MOL0     C56676   7.341  10.296   9.534  0.6925 -1.3038  0.5939
  430MOL0     C56677   7.329  10.154   9.542 -0.0818 -0.0539 -0.2262
  430MOL0     N56678   7.482   9.629   9.875 -0.2473 -0.3583  0.2424
  430MOL0     N56679   7.593   9.603   9.947 -0.0359 -0.0509 -0.1274
  430MOL0     C56680   8.213   9.830  10.317 -0.0849 -0.3520  0.2737
  430MOL0     C56681   8.340   9.868  10.283 -0.2078 -0.3225  0.2606
  430MOL0     C56682   8.773   9.927  10.453  0.1689 -0.1026  0.4601
  430MOL0     C56683   8.872  10.001  10.513 -0.2060  0.0976 -0.5691
  430MOL0     C56684   9.002   9.949  10.550 -0.0508 -0.2320  0.7247
  430MOL0     C56685   9.034   9.817  10.518  0.1347  0.0447  0.2434
  430MOL0     O56686   9.164   9.776  10.513  0.2300 -0.4035 -0.5164
  430MOL0     C56687   9.181   9.642  10.548 -0.2887  0.2608 -0.5785
  430MOL0     C56688   9.122   9.594  10.684 -0.2040 -0.2502 -0.6339
  430MOL0     C56689   9.177   9.648  10.817 -0.5811 -0.9830  0.8378
  430MOL0     C56690   9.161   9.548  10.923 -0.3835  0.4532 -0.8214
  430MOL0     C56691   9.020   9.521  10.968 -0.9939  0.4824 -0.2304
  430MOL0     C56692   8.907   9.500  11.006 -0.4440  0.3259 -0.4826
  430MOL0     C56693   8.926   9.748  10.455 -0.6173 -0.2575  0.2000
  430MOL0     C56694   8.802   9.793  10.424  0.7078 -0.3226  0.5187
  430MOL0     H56695   8.464   9.887  10.604 -0.6345  0.5219 -0.1503
  430MOL0     H56696   8.235   9.815  10.650  2.7767  1.4502 -0.0687
  430MOL0     H56697   8.020   9.782  10.683  0.1451  1.9209 -1.0741
  430MOL0     H56698   8.056   9.627  10.614  0.9349  0.6932  2.5210
  430MOL0     H56699   7.803   9.794  10.617  0.4316 -1.4347  0.8966
  430MOL0     H56700   7.818   9.653  10.709  1.8379 -1.3594  0.6172
  430MOL0     H56701   7.675   9.571  10.541  2.6238 -4.1446 -0.0434
  430MOL0     H56702   7.825   9.509  10.485  2.2588  1.6311 -3.1828
  430MOL0     H56703   7.681   9.750  10.374 -0.2416  0.1102 -2.1559
  430MOL0     H56704   7.852   9.722  10.343  2.8842 -3.2594  1.5413
  430MOL0     H56705   7.832   9.529  10.230 -1.4936 -2.0296  1.3438
  430MOL0     H56706   7.717   9.642  10.169  0.6296  0.1511 -0.3685
  430MOL0     H56707   7.536   9.499  10.235  0.9179  1.8885  2.1381
  430MOL0     H56708   7.626   9.428  10.373  3.9061 -1.8356  1.0465
  430MOL0     H56709   7.741   9.279  10.218 -1.2451 -2.3747 -1.6074
  430MOL0     H56710   7.566   9.281  10.182 -0.1730  0.1156 -0.8295
  430MOL0     H56711   7.698   9.294   9.968  0.8912 -1.3186  0.2010
  430MOL0     H56712   7.784   9.432  10.027  2.3126 -3.0955  2.8683
  430MOL0     H56713   7.396   9.334   9.977 -1.8715  0.8479 -0.5505
  430MOL0     H56714   7.202   9.449   9.911  0.2478 -0.2719 -0.1030
  430MOL0     H56715   7.229   9.501   9.743 -2.8762 -0.9320 -0.4211
  430MOL0     H56716   7.205   9.718   9.965 -2.5294  0.9735  0.6278
  430MOL0     H56717   7.071   9.644   9.890 -0.1432 -1.6504  0.7735
  430MOL0     H56718   7.236   9.711   9.679 -0.6028 -2.9004  1.0592
  430MOL0     H56719   7.087   9.784   9.734 -1.2261  0.3973  3.6313
  430MOL0     H56720   7.374   9.854   9.829 -1.2704 -2.6169  0.5499
  430MOL0     H56721   7.232   9.941   9.880 -0.3300  2.4404 -0.8711
  430MOL0     H56722   7.322  10.132   9.891  5.7711 -1.4653  0.4323
  430MOL0     H56723   7.352  10.376   9.868  0.6305  2.3631 -1.6480
  430MOL0     H56724   7.182  10.727   9.559  2.2147 -1.1891 -0.0149
  430MOL0     H56725   7.158  10.974   9.545  0.0930  0.5997  0.8071
  430MOL0     H56726   7.186  11.183   9.538 -1.3063  2.1358 -0.8882
  430MOL0     H56727   7.350  11.195   9.536 -1.1449 -2.9144 -1.4844
  430MOL0     H56728   7.329  11.423   9.558  1.6151 -0.5856 -0.2089
  430MOL0     H56729   7.318  11.382   9.729 -0.0264 -0.9932 -0.6337
  430MOL0     H56730   7.067  11.398   9.729  1.3348 -0.0712  1.6319
  430MOL0     H56731   7.073  11.452   9.566 -0.2546  0.9479  0.8478
  430MOL0     H56732   7.071  11.637   9.754  0.1393 -0.1500 -0.3625
  430MOL0     H56733   7.245  11.589   9.759  0.5629 -0.1021 -0.8386
  430MOL0     H56734   7.108  11.693   9.516  2.0881  1.2628 -1.2520
  430MOL0     H56735   7.277  11.658   9.519 -1.6148 -1.9139 -0.5345
  430MOL0     H56736   7.314  11.847   9.683 -1.7584 -0.9902  1.9944
  430MOL0     H56737   7.144  11.895   9.685  1.8383  2.2567  1.4445
  430MOL0     H56738   7.257  11.867   9.414 -0.0323  2.2851 -1.3320
  430MOL0     H56739   7.131  11.967   9.466  0.7922  1.5609 -0.8889
  430MOL0     H56740   7.432  12.003   9.539  0.0803  0.5337  2.4655
  430MOL0     H56741   7.307  12.117   9.577  0.8012 -0.7294 -0.2542
  430MOL0     H56742   7.406  11.018   9.882  0.9090  0.7324  0.4189
  430MOL0     H56743   7.419  10.763   9.905 -2.3498 -1.0532  0.8867
  430MOL0     H56744   7.342  10.337   9.433 -2.8387  0.9494  1.2785
  430MOL0     H56745   7.331  10.096   9.450 -0.5740  0.9225 -0.8578
  430MOL0     H56746   8.155   9.808  10.228 -0.6798  2.9106 -0.2525
  430MOL0     H56747   8.374   9.873  10.180  0.2639 -1.5844  0.3322
  430MOL0     H56748   8.843  10.100  10.546  1.9617  0.2134  1.2562
  430MOL0     H56749   9.064  10.006  10.619 -1.3867  0.2162  1.6072
  430MOL0     H56750   9.288   9.619  10.555  0.0137  1.2290 -1.6611
  430MOL0     H56751   9.144   9.565  10.479  1.1874 -3.4317  2.4004
  430MOL0     H56752   9.016   9.619  10.681 -1.0340 -3.2853  0.1480
  430MOL0     H56753   9.125   9.485  10.684  1.1133 -0.2963  2.0931
  430MOL0     H56754   9.116   9.736  10.840  0.2203  1.1539 -3.9595
  430MOL0     H56755   9.275   9.692  10.798 -2.3482  2.8585 -0.5552
  430MOL0     H56756   9.203   9.453  10.887  0.6163  0.1984  0.9019
  430MOL0     H56757   9.226   9.563  11.010 -1.3088  3.8473 -0.6125
  430MOL0     H56758   8.813   9.477  11.052 -1.9300 -0.1106 -3.5115
  430MOL0     H56759   8.942   9.644  10.428  0.0683 -0.0242 -0.3231
  430MOL0     H56760   8.723   9.725  10.394  1.0212  0.4416 -2.3510
  431MOL0     O56761   3.371   8.232   5.481  0.0372  1.0363  0.6122
  431MOL0     C56762   3.329   8.133   5.552  0.5688 -0.0974  1.7776
  431MOL0     O56763   3.190   8.106   5.581 -0.3125 -0.2361  0.2379
  431MOL0     C56764   3.102   8.180   5.498 -0.0327 -0.0435 -0.8689
  431MOL0     C56765   3.062   8.306   5.537 -0.5288  0.3760  0.2925
  431MOL0     C56766   2.973   8.378   5.459  0.0501  0.4948 -0.2533
  431MOL0     C56767   2.921   8.313   5.344  1.0291 -0.4133  0.3627
  431MOL0     O56768   2.833   8.396   5.263 -0.0400 -0.1720 -0.3419
  431MOL0     C56769   2.767   8.344   5.146 -0.7792  0.2132 -0.2384
  431MOL0     C56770   2.699   8.452   5.055 -0.2953  0.9030  0.0578
  431MOL0     C56771   2.581   8.507   5.139  0.3138  1.0209  0.1346
  431MOL0     C56772   2.496   8.603   5.061 -0.7529  0.0011  0.5887
  431MOL0     C56773   2.434   8.708   5.152  0.3582 -0.1327  0.7288
  431MOL0     C56774   2.331   8.797   5.087  0.6349 -0.1141 -0.0163
  431MOL0     C56775   2.191   8.739   5.065 -0.2099  0.7767 -0.6503
  431MOL0     C56776   2.094   8.854   5.011 -0.4481 -1.1290 -0.1841
  431MOL0     N56777   1.961   8.803   4.978 -0.0709  0.1501  0.0978
  431MOL0     C56778   1.926   8.738   4.860  0.2883 -0.5339  0.2544
  431MOL0     C56779   1.797   8.701   4.886 -1.3401  0.3611  0.0957
  431MOL0     C56780   1.722   8.611   4.797 -0.1130  0.0522  1.1844
  431MOL0     C56781   1.575   8.589   4.845 -0.8286  0.0201 -0.7548
  431MOL0     C56782   1.490   8.718   4.837  0.0962  1.4617  0.7167
  431MOL0     C56783   1.340   8.673   4.860  0.2029  0.4956 -0.4518
  431MOL0     O56784   1.347   8.630   4.996 -0.1559 -0.0029  0.2427
  431MOL0     C56785   1.291   8.712   5.097 -0.1244 -1.0457 -0.2130
  431MOL0     C56786   1.262   8.646   5.216 -0.5493  0.4964 -0.1591
  431MOL0     C56787   1.220   8.723   5.331  0.7377  0.1840  0.2143
  431MOL0     C56788   1.175   8.853   5.325 -0.3649  0.1376  0.2310
  431MOL0     C56789   1.122   8.917   5.444  0.6123 -0.2502  1.1257
  431MOL0     O56790   1.120   8.848   5.548  0.3090  0.0862  0.1847
  431MOL0     C56791   1.112   8.883   5.674 -0.0411  1.2592  0.3334
  431MOL0     C56792   1.046   8.797   5.762 -0.2378  0.6165 -0.1985
  431MOL0     C56793   1.042   8.833   5.904 -0.2528 -0.6709  0.3104
  431MOL0     C56794   1.109   8.943   5.962  0.0046 -0.1694  0.8918
  431MOL0     O56795   1.106   8.977   6.088 -0.2532 -1.2185 -0.1007
  431MOL0     C56796   1.034   8.874   6.172 -0.5017 -0.2688 -0.8781
  431MOL0     C56797   1.020   8.930   6.306 -0.0292  0.3460  0.3753
  431MOL0     C56798   0.904   8.869   6.397  0.1074 -0.9694  0.4236
  431MOL0     C56799   0.919   8.907   6.543  0.0840 -0.7025 -0.1577
  431MOL0     C56800   0.806   8.844   6.632 -0.4365  0.5259 -0.0288
  431MOL0     C56801   0.857   8.775   6.761  0.0048 -0.5373 -0.4195
  431MOL0     C56802   0.758   8.687   6.827  0.4358  0.0451  0.3681
  431MOL0     C56803   0.824   8.651   6.959 -1.0084  0.5932  0.3117
  431MOL0    Cl56804   0.799   8.796   7.079  0.0292  0.1346 -0.4840
  431MOL0     C56805   1.181   9.021   5.867  0.4630 -0.2632  0.5468
  431MOL0     C56806   1.186   8.988   5.731 -0.0880 -0.7384  0.2573
  431MOL0     O56807   1.090   9.033   5.437 -0.5095  0.1696  0.0246
  431MOL0     C56808   1.180   8.915   5.195 -0.1589 -0.0114 -0.4511
  431MOL0     C56809   1.254   8.849   5.091 -0.3837  0.4793 -0.4875
  431MOL0     N56810   1.763   8.733   5.008 -0.0618 -0.4372 -0.3406
  431MOL0     N56811   1.860   8.780   5.070 -0.3112  0.1459 -0.7142
  431MOL0     C56812   2.951   8.183   5.311 -0.9011  0.1091 -1.0454
  431MOL0     C56813   3.036   8.114   5.395  0.5135  0.5522  0.6502
  431MOL0     C56814   3.413   8.038   5.617 -1.4675  1.0095 -0.4577
  431MOL0     C56815   3.560   8.026   5.583  0.8273 -0.4432 -0.1436
  431MOL0     C56816   3.647   7.927   5.649  0.4975 -0.1192 -0.0666
  431MOL0     C56817   3.587   7.840   5.745  0.9989 -0.8696 -0.5761
  431MOL0     O56818   3.670   7.760   5.825 -0.4270 -0.1834  0.5743
  431MOL0     C56819   3.756   7.828   5.911  0.3764  0.9018  0.7898
  431MOL0     C56820   3.685   7.870   6.044 -0.3370 -0.6637 -0.0386
  431MOL0     C56821   3.778   7.974   6.112  0.0080  0.8462  0.2821
  431MOL0     C56822   3.708   8.059   6.214 -0.0953  0.3398 -0.3198
  431MOL0     C56823   3.651   7.980   6.320 -0.6752  0.5797  1.1101
  431MOL0     C56824   3.623   7.911   6.417 -0.4315 -0.7395 -0.3575
  431MOL0     C56825   3.447   7.847   5.763  0.8524  0.6129 -1.1303
  431MOL0     C56826   3.364   7.943   5.708  0.2568 -0.1470  0.7517
  431MOL0     H56827   3.102   8.340   5.632  0.1366 -1.7154  0.8206
  431MOL0     H56828   2.943   8.481   5.478  0.2502  0.3389  0.9666
  431MOL0     H56829   2.697   8.267   5.179 -0.5480 -0.2235 -0.7593
  431MOL0     H56830   2.844   8.293   5.088  0.7965  2.3620 -0.1232
  431MOL0     H56831   2.662   8.397   4.968  0.5622  1.3852 -0.6261
  431MOL0     H56832   2.774   8.524   5.020 -0.2225  1.6697  1.7255
  431MOL0     H56833   2.610   8.573   5.221  0.4266  0.8246  0.2524
  431MOL0     H56834   2.515   8.428   5.176 -1.9895  2.2974 -1.0278
  431MOL0     H56835   2.570   8.652   4.997 -0.9108  0.1842  0.5451
  431MOL0     H56836   2.420   8.548   5.005  0.3451 -0.7524 -0.2071
  431MOL0     H56837   2.516   8.771   5.188  2.2727 -0.2754 -2.8878
  431MOL0     H56838   2.395   8.661   5.242 -0.2542  1.6475  1.4518
  431MOL0     H56839   2.361   8.830   4.987 -7.0814  2.4704 -2.1862
  431MOL0     H56840   2.333   8.883   5.155  2.1757 -0.3118  0.2431
  431MOL0     H56841   2.196   8.663   4.986 -1.7548 -0.1431  0.0848
  431MOL0     H56842   2.159   8.690   5.158  5.8415  1.8985  2.5542
  431MOL0     H56843   2.137   8.883   4.915 -0.9289 -1.4488 -0.5024
  431MOL0     H56844   2.094   8.948   5.067  1.2996 -0.5476 -1.0954
  431MOL0     H56845   1.972   8.728   4.762  0.7749 -0.1118  0.4346
  431MOL0     H56846   1.789   8.525   4.791 -2.1686 -1.5519 -0.2696
  431MOL0     H56847   1.718   8.659   4.698  1.0010 -0.3176  0.9448
  431MOL0     H56848   1.576   8.564   4.952 -1.1028  3.1423  0.0590
  431MOL0     H56849   1.533   8.505   4.789 -0.2774 -0.3789 -0.5792
  431MOL0     H56850   1.518   8.777   4.924  1.6073  1.8956 -0.0330
  431MOL0     H56851   1.512   8.768   4.742  0.5177 -1.5043 -0.8707
  431MOL0     H56852   1.298   8.596   4.794 -0.4702 -0.5141  1.1065
  431MOL0     H56853   1.276   8.762   4.851 -2.5018 -1.0658  1.6721
  431MOL0     H56854   1.283   8.540   5.225 -4.4551 -0.6418 -2.3510
  431MOL0     H56855   1.234   8.665   5.422  1.9425 -1.5149 -0.9647
  431MOL0     H56856   1.000   8.703   5.732  3.6125 -2.5158  2.7030
  431MOL0     H56857   0.986   8.760   5.962  0.9652 -0.7325  1.4886
  431MOL0     H56858   1.098   8.788   6.192  1.9059  1.7987  1.1719
  431MOL0     H56859   0.934   8.842   6.142  0.2456 -0.8248 -2.9956
  431MOL0     H56860   1.000   9.038   6.305  2.5590  0.8724  0.0492
  431MOL0     H56861   1.112   8.916   6.364  1.0541  1.2512 -1.0634
  431MOL0     H56862   0.911   8.761   6.382  0.1753 -1.0296  0.8882
  431MOL0     H56863   0.813   8.908   6.351 -0.0259  0.0303  1.4794
  431MOL0     H56864   1.024   8.887   6.568 -0.1824  0.1170  1.8463
  431MOL0     H56865   0.887   9.011   6.534  0.3617 -0.7811 -3.0534
  431MOL0     H56866   0.747   8.771   6.576 -1.1562  2.2700 -1.6494
  431MOL0     H56867   0.731   8.922   6.647 -2.0337 -0.6907 -1.3445
  431MOL0     H56868   0.888   8.857   6.827 -0.2348 -1.9702  1.5880
  431MOL0     H56869   0.943   8.710   6.743  0.4105 -0.3157  0.6356
  431MOL0     H56870   0.674   8.755   6.843  1.7659  1.2317  3.0886
  431MOL0     H56871   0.721   8.606   6.765 -0.0646 -0.8942  1.8467
  431MOL0     H56872   0.931   8.629   6.950 -1.0851  0.6925 -1.1776
  431MOL0     H56873   0.768   8.570   7.007 -2.6316  3.6052  4.0905
  431MOL0     H56874   1.236   9.110   5.897  2.0692 -0.3998 -1.7247
  431MOL0     H56875   1.248   9.043   5.661  3.1592 -2.2140  1.7486
  431MOL0     H56876   1.148   9.018   5.182 -1.3035 -0.4747 -1.5411
  431MOL0     H56877   1.277   8.902   4.999 -0.3849 -1.1925 -1.4958
  431MOL0     H56878   2.906   8.145   5.220 -2.4233  1.3922 -0.8642
  431MOL0     H56879   3.051   8.008   5.377 -0.5831  0.5867 -0.6295
  431MOL0     H56880   3.603   8.094   5.510  0.8464 -0.1533  0.1312
  431MOL0     H56881   3.750   7.945   5.621  0.2181  1.9617  0.0451
  431MOL0     H56882   3.777   7.924   5.863 -0.2271  1.4551  1.5990
  431MOL0     H56883   3.851   7.778   5.932  1.0521  1.8159  0.0221
  431MOL0     H56884   3.591   7.922   6.024 -0.3123 -0.1932  0.9822
  431MOL0     H56885   3.669   7.782   6.108 -0.1912  1.7394  3.5712
  431MOL0     H56886   3.823   8.034   6.033 -0.5229  1.2720  0.2920
  431MOL0     H56887   3.859   7.922   6.164 -1.0405  0.5058  1.6461
  431MOL0     H56888   3.782   8.125   6.260 -2.9115  2.3944  1.5524
  431MOL0     H56889   3.636   8.125   6.165  0.2133  0.1651 -1.0340
  431MOL0     H56890   3.605   7.867   6.513 -0.1631  1.1192  0.5970
  431MOL0     H56891   3.406   7.786   5.844 -1.4360  1.0162 -1.9109
  431MOL0     H56892   3.262   7.944   5.748 -0.2193  3.1192 -0.2724
  432MOL0     O56893   8.896   6.437   2.300  0.5575  0.5445  0.6538
  432MOL0     C56894   8.918   6.519   2.386  0.6618 -0.3779  0.7105
  432MOL0     O56895   9.014   6.509   2.482  0.7266  0.7514  0.7349
  432MOL0     C56896   9.102   6.402   2.490 -0.1648 -1.0972 -0.7094
  432MOL0     C56897   9.086   6.280   2.437  0.2259 -0.3582 -0.1304
  432MOL0     C56898   9.177   6.182   2.466  0.7863 -0.7759  0.1426
  432MOL0     C56899   9.294   6.205   2.546  1.1700  0.5334 -0.8714
  432MOL0     O56900   9.397   6.124   2.580 -0.1090 -0.2980  0.8148
  432MOL0     C56901   9.374   5.981   2.573  0.4056  0.0386  0.0104
  432MOL0     C56902   9.489   5.893   2.614  0.1030  1.1006 -0.0703
  432MOL0     C56903   9.545   5.928   2.761  0.8947  0.6753 -0.6067
  432MOL0     C56904   9.617   5.820   2.824 -0.5330  0.6130 -0.3002
  432MOL0     C56905   9.670   5.857   2.971 -0.4043 -0.0564  0.4394
  432MOL0     C56906   9.751   5.744   3.033 -0.5433  0.4029  0.3621
  432MOL0     C56907   9.775   5.787   3.175 -0.4119 -0.3889 -0.3151
  432MOL0     C56908   9.922   5.743   3.222  0.2009  0.4909 -1.1569
  432MOL0     N56909   9.968   5.785   3.360  0.2868  0.2201 -0.2034
  432MOL0     C56910  10.027   5.905   3.390  0.3600  0.7787  1.3428
  432MOL0     C56911  10.035   5.906   3.518  0.0435  0.1659 -0.5329
  432MOL0     C56912  10.097   6.019   3.599 -0.3022  0.8707  0.8019
  432MOL0     C56913   9.989   6.112   3.663  1.0362  0.0286 -1.0410
  432MOL0     C56914   9.889   6.168   3.559  1.1364  0.3278  0.3466
  432MOL0     C56915   9.954   6.246   3.448  0.0517 -0.0676  0.3099
  432MOL0     O56916  10.023   6.361   3.501 -0.2909 -0.3166 -0.6257
  432MOL0     C56917   9.932   6.459   3.534  0.3671  0.4877 -0.8429
  432MOL0     C56918   9.930   6.490   3.668  0.2462  0.2192 -0.4090
  432MOL0     C56919   9.849   6.597   3.714 -0.4173  0.2414  0.0273
  432MOL0     C56920   9.768   6.669   3.622 -0.3645 -0.4039  0.1778
  432MOL0     C56921   9.681   6.779   3.677  0.3749  0.2805 -0.0293
  432MOL0     O56922   9.697   6.804   3.816 -0.0181  0.3428  0.1038
  432MOL0     C56923   9.690   6.932   3.869 -0.8130  0.1307 -1.0271
  432MOL0     C56924   9.687   6.940   4.009  0.1301  0.2785  0.7785
  432MOL0     C56925   9.675   7.053   4.071  0.0481 -0.1545 -0.3254
  432MOL0     C56926   9.668   7.179   4.005 -0.0529  0.1650  0.3897
  432MOL0     O56927   9.638   7.292   4.073  0.2388 -0.2842 -0.1211
  432MOL0     C56928   9.609   7.414   4.011 -0.5123 -0.3679  0.2806
  432MOL0     C56929   9.580   7.523   4.118  0.2378  0.1835  0.3315
  432MOL0     C56930   9.691   7.528   4.210  0.1452  0.2074 -0.3726
  432MOL0     C56931   9.667   7.629   4.325 -0.6999 -0.2111  0.3783
  432MOL0     C56932   9.806   7.631   4.401  0.2842  0.1459  0.7984
  432MOL0     C56933   9.813   7.733   4.528 -0.6050  1.3459  0.7860
  432MOL0     C56934   9.743   7.640   4.628 -0.5649 -0.1586 -0.6815
  432MOL0     C56935   9.763   7.690   4.772  0.1914  0.0142 -1.1216
  432MOL0    Cl56936   9.692   7.580   4.901 -0.2501 -0.7050 -0.3302
  432MOL0     C56937   9.682   7.174   3.864  0.6972 -0.4187 -1.1848
  432MOL0     C56938   9.696   7.056   3.799 -0.1820  0.6325  0.2062
  432MOL0     O56939   9.619   6.854   3.608 -0.7803  0.9204  0.5245
  432MOL0     C56940   9.774   6.631   3.483 -0.4047 -0.2510  0.2411
  432MOL0     C56941   9.859   6.524   3.437 -0.0459 -0.5184 -0.1474
  432MOL0     N56942   9.974   5.799   3.575  0.2763  0.1274  0.3869
  432MOL0     N56943   9.941   5.712   3.475 -0.1124 -0.2484 -0.4857
  432MOL0     C56944   9.320   6.341   2.588  0.3396  0.3531  0.4428
  432MOL0     C56945   9.218   6.435   2.563  0.3350 -0.4358  0.6755
  432MOL0     C56946   8.846   6.648   2.374 -0.9102 -0.1789 -0.4957
  432MOL0     C56947   8.810   6.723   2.485  0.5897 -0.2512  0.7449
  432MOL0     C56948   8.739   6.850   2.479 -0.3321 -0.4941  0.6345
  432MOL0     C56949   8.701   6.898   2.354  0.7902  0.8477  0.3086
  432MOL0     O56950   8.638   7.019   2.350  0.4639  1.0666  0.6775
  432MOL0     C56951   8.546   7.039   2.241 -0.1888 -0.5451 -0.2282
  432MOL0     C56952   8.477   7.168   2.249 -0.4121  0.0582 -0.6715
  432MOL0     C56953   8.563   7.287   2.234 -0.9874  0.1205 -0.7706
  432MOL0     C56954   8.651   7.311   2.112 -0.0877 -0.0796 -0.0565
  432MOL0     C56955   8.784   7.253   2.104 -0.5319 -0.3399  0.3139
  432MOL0     C56956   8.898   7.203   2.099  0.2319 -0.0719 -0.3725
  432MOL0     C56957   8.738   6.818   2.240  0.1649  0.2709 -0.2726
  432MOL0     C56958   8.801   6.696   2.248  0.5866 -0.0662  0.3713
  432MOL0     H56959   9.008   6.256   2.366  1.0122  2.6935 -2.1973
  432MOL0     H56960   9.157   6.080   2.434  1.6019 -1.8137  2.7276
  432MOL0     H56961   9.353   5.955   2.468  1.6048 -0.6236 -0.0850
  432MOL0     H56962   9.284   5.963   2.633 -1.7410 -0.8939 -3.2183
  432MOL0     H56963   9.570   5.887   2.540  0.0383  0.1335 -0.0767
  432MOL0     H56964   9.455   5.789   2.611  1.4952  0.6388 -2.0872
  432MOL0     H56965   9.461   5.952   2.828  2.6235  0.5950  1.7117
  432MOL0     H56966   9.600   6.022   2.762  1.4232  0.4482  2.7022
  432MOL0     H56967   9.552   5.733   2.837  0.5340  0.1077  2.2563
  432MOL0     H56968   9.702   5.807   2.757 -0.9822 -1.5412 -0.5262
  432MOL0     H56969   9.583   5.880   3.034 -0.9908 -1.5982  0.2437
  432MOL0     H56970   9.734   5.945   2.964  0.4414 -0.4297  2.5858
  432MOL0     H56971   9.845   5.736   2.976 -0.9594 -1.0812 -0.1484
  432MOL0     H56972   9.695   5.651   3.024 -1.2603  0.8334  0.3231
  432MOL0     H56973   9.770   5.895   3.189 -0.4403 -0.2481 -1.3666
  432MOL0     H56974   9.692   5.745   3.234  1.2188 -0.2281  2.2895
  432MOL0     H56975   9.992   5.784   3.148  0.9271  1.3031 -0.0505
  432MOL0     H56976   9.934   5.634   3.217  1.2128  0.6599 -4.0316
  432MOL0     H56977  10.063   5.980   3.320  1.6477 -0.9843  0.0039
  432MOL0     H56978  10.175   6.076   3.547  0.7260  0.8601  2.2842
  432MOL0     H56979  10.154   5.965   3.675  1.0660  1.8940  0.5548
  432MOL0     H56980  10.040   6.188   3.722 -1.1354 -0.3077  1.4924
  432MOL0     H56981   9.936   6.059   3.743 -2.3672  2.7891 -1.1953
  432MOL0     H56982   9.825   6.088   3.522  1.2294 -1.2409  3.2403
  432MOL0     H56983   9.811   6.227   3.608  0.6250 -0.3295  0.3301
  432MOL0     H56984   9.885   6.268   3.366  0.2894  1.2692  0.4402
  432MOL0     H56985  10.031   6.189   3.395 -0.3903 -0.9209  0.5755
  432MOL0     H56986   9.984   6.427   3.738 -1.6431 -1.1607 -0.1411
  432MOL0     H56987   9.864   6.615   3.820  3.1955  0.6972 -0.4318
  432MOL0     H56988   9.696   6.848   4.065  1.0592  1.0392  1.9506
  432MOL0     H56989   9.653   7.036   4.176  0.8953 -1.5392 -0.3504
  432MOL0     H56990   9.520   7.402   3.947 -0.3683 -3.0341  0.4663
  432MOL0     H56991   9.691   7.450   3.949 -0.3436  0.7573  1.1417
  432MOL0     H56992   9.488   7.491   4.169 -2.3546  2.3948 -2.5497
  432MOL0     H56993   9.564   7.619   4.068  0.3137 -0.3380 -0.7155
  432MOL0     H56994   9.783   7.555   4.159  0.3619  3.9304  1.6137
  432MOL0     H56995   9.704   7.431   4.259 -0.8156 -0.5242 -1.5133
  432MOL0     H56996   9.645   7.730   4.288 -1.0564 -0.9053 -1.3710
  432MOL0     H56997   9.589   7.592   4.391 -0.1119 -2.3550 -0.0585
  432MOL0     H56998   9.871   7.682   4.329  0.3281  2.6831  2.5380
  432MOL0     H56999   9.853   7.535   4.426 -0.4202  0.0365  1.7384
  432MOL0     H57000   9.768   7.832   4.525 -2.0144  0.7253 -1.9723
  432MOL0     H57001   9.915   7.755   4.559  0.1949 -2.0067  0.9808
  432MOL0     H57002   9.635   7.637   4.611 -0.4810 -0.1652 -1.2102
  432MOL0     H57003   9.780   7.538   4.617 -2.1124 -0.8262 -0.1109
  432MOL0     H57004   9.721   7.790   4.790 -1.7831 -1.1757  1.6377
  432MOL0     H57005   9.869   7.707   4.789 -0.1908  1.7446 -0.1619
  432MOL0     H57006   9.684   7.267   3.808 -0.1126  0.4830  0.2232
  432MOL0     H57007   9.707   7.057   3.691 -2.5087  1.5080 -0.0844
  432MOL0     H57008   9.702   6.671   3.411 -0.5639 -2.1605 -0.7262
  432MOL0     H57009   9.847   6.494   3.333 -1.3709 -2.0983  0.4084
  432MOL0     H57010   9.407   6.358   2.651 -1.4218 -0.2106  3.1866
  432MOL0     H57011   9.237   6.537   2.596 -1.3096  0.7229 -1.6749
  432MOL0     H57012   8.850   6.685   2.578  0.7508  3.3286  2.3234
  432MOL0     H57013   8.715   6.908   2.567  2.3045  0.0675  1.0895
  432MOL0     H57014   8.478   6.957   2.217  0.3930 -0.6152 -1.7517
  432MOL0     H57015   8.614   7.056   2.157  1.6704 -0.7544  1.1780
  432MOL0     H57016   8.413   7.174   2.160  0.0513  0.4075 -0.9864
  432MOL0     H57017   8.421   7.166   2.343  2.1848 -2.9606  0.9731
  432MOL0     H57018   8.635   7.286   2.316  1.2853 -0.3022 -2.6521
  432MOL0     H57019   8.505   7.377   2.252  0.4213  1.3366 -2.0437
  432MOL0     H57020   8.588   7.282   2.028  1.4370 -0.0992 -1.2209
  432MOL0     H57021   8.658   7.420   2.103 -1.1933  0.5798  4.4220
  432MOL0     H57022   8.992   7.152   2.098  0.8227  0.9956 -0.6009
  432MOL0     H57023   8.719   6.872   2.148  0.1598 -0.3093 -0.6148
  432MOL0     H57024   8.850   6.634   2.173 -1.0142 -3.1547  1.7227
  433MOL0     O57025   8.288   4.528   6.170  0.8310  0.4088 -1.2215
  433MOL0     C57026   8.265   4.597   6.068 -0.5476  0.3879  0.3014
  433MOL0     O57027   8.332   4.705   6.024  0.3992  0.4487 -1.0631
  433MOL0     C57028   8.430   4.766   6.105  0.0430  0.4252  0.3465
  433MOL0     C57029   8.516   4.709   6.199 -0.6794 -0.2852 -0.1561
  433MOL0     C57030   8.627   4.778   6.256  0.0475  0.6934  0.4651
  433MOL0     C57031   8.660   4.909   6.220  0.6007  0.5957 -0.6341
  433MOL0     O57032   8.776   4.967   6.268  0.3500  0.0795 -0.5272
  433MOL0     C57033   8.763   5.106   6.268  0.4568  0.1963 -0.3186
  433MOL0     C57034   8.855   5.150   6.381  0.1941  0.3908 -0.0580
  433MOL0     C57035   8.879   5.304   6.390  0.6390 -0.2718 -0.3744
  433MOL0     C57036   8.928   5.339   6.539  0.5108  0.4958 -0.4296
  433MOL0     C57037   8.921   5.497   6.564 -0.2884 -0.3033  0.7212
  433MOL0     C57038   8.975   5.531   6.700  0.2479  0.6028 -0.0399
  433MOL0     C57039   8.983   5.676   6.738  0.0195 -0.5943 -0.6425
  433MOL0     C57040   9.083   5.724   6.850  0.6027  0.3385 -0.7333
  433MOL0     N57041   9.132   5.862   6.827  0.6069 -0.8665 -0.3225
  433MOL0     C57042   9.057   5.973   6.837  0.0222  0.9090  0.1981
  433MOL0     C57043   9.137   6.073   6.796  0.4270  0.2103 -0.3064
  433MOL0     C57044   9.076   6.216   6.785 -0.6180 -0.2648 -1.0036
  433MOL0     C57045   9.024   6.253   6.923  0.3450 -0.2795 -1.2384
  433MOL0     C57046   8.958   6.396   6.928  0.1926 -0.0424  0.9425
  433MOL0     C57047   8.837   6.409   6.838  0.1594  0.0444  0.7797
  433MOL0     O57048   8.780   6.530   6.890 -0.3766 -0.4717  0.2538
  433MOL0     C57049   8.659   6.563   6.838 -0.8263 -0.5877  0.6220
  433MOL0     C57050   8.604   6.676   6.900 -0.2566 -0.7714 -0.1349
  433MOL0     C57051   8.471   6.711   6.867  1.0533 -0.0075  0.0965
  433MOL0     C57052   8.392   6.642   6.777 -0.5306 -0.2102 -0.2731
  433MOL0     C57053   8.263   6.674   6.740 -0.0252 -0.6982 -0.5921
  433MOL0     O57054   8.215   6.665   6.605 -0.4854  0.0577 -0.1081
  433MOL0     C57055   8.083   6.687   6.572  0.5595  0.1537 -0.1879
  433MOL0     C57056   7.971   6.697   6.655  0.9745 -0.9589 -0.4123
  433MOL0     C57057   7.854   6.753   6.611  0.5104  0.3654  1.1258
  433MOL0     C57058   7.830   6.776   6.477 -0.5845 -0.2110 -0.4422
  433MOL0     O57059   7.705   6.827   6.434 -0.5460 -0.1698  0.4368
  433MOL0     C57060   7.703   6.963   6.412 -0.6594 -0.5499  0.2270
  433MOL0     C57061   7.546   6.997   6.402 -0.3966  0.4312 -0.5153
  433MOL0     C57062   7.465   6.907   6.310 -0.2920  0.0907 -0.6724
  433MOL0     C57063   7.329   6.973   6.279  0.1239 -0.4758 -0.0737
  433MOL0     C57064   7.232   6.881   6.218  1.4228  0.5653 -1.0562
  433MOL0     C57065   7.224   6.741   6.287 -0.7456  0.2855  0.4677
  433MOL0     C57066   7.106   6.661   6.221 -0.8823 -1.0042  0.0623
  433MOL0     C57067   7.113   6.517   6.242 -1.0930 -0.4248 -0.4552
  433MOL0    Cl57068   7.263   6.452   6.154  0.1116  0.2069 -0.5422
  433MOL0     C57069   7.936   6.762   6.388 -0.5585  0.4803 -0.2294
  433MOL0     C57070   8.068   6.718   6.436  0.2226  0.5364  0.0508
  433MOL0     O57071   8.190   6.706   6.832 -0.2220  0.1005  0.1607
  433MOL0     C57072   8.454   6.530   6.716 -0.8300  0.0953  0.2053
  433MOL0     C57073   8.577   6.495   6.752  0.7575 -0.2737  0.5486
  433MOL0     N57074   9.260   6.016   6.771  0.3552  0.0041 -0.1728
  433MOL0     N57075   9.254   5.886   6.777  0.7586  0.4689  0.2609
  433MOL0     C57076   8.573   4.969   6.117  0.1911 -0.4868 -0.9448
  433MOL0     C57077   8.463   4.896   6.066 -0.3364 -0.6047  0.4225
  433MOL0     C57078   8.155   4.553   5.981 -0.4704  0.2589  0.1336
  433MOL0     C57079   8.142   4.615   5.855  0.9068  0.8813  0.4863
  433MOL0     C57080   8.028   4.589   5.765 -0.6052 -0.8628  0.4364
  433MOL0     C57081   7.931   4.499   5.805 -0.0636 -0.3493 -0.4068
  433MOL0     O57082   7.810   4.462   5.749 -0.4538 -0.3528  0.0777
  433MOL0     C57083   7.748   4.535   5.644  0.6859 -0.1788 -0.2933
  433MOL0     C57084   7.634   4.444   5.599  0.4000 -0.4305 -0.4109
  433MOL0     C57085   7.690   4.330   5.507  0.4078  0.1248 -0.6368
  433MOL0     C57086   7.710   4.386   5.364 -0.0023  0.2346  1.0079
  433MOL0     C57087   7.720   4.286   5.257 -0.5847  0.6102  1.1998
  433MOL0     C57088   7.725   4.200   5.177 -0.0131  0.1761 -0.6148
  433MOL0     C57089   7.954   4.441   5.929  0.5654 -1.1907  0.1689
  433MOL0     C57090   8.060   4.460   6.014  0.3012 -0.3619  0.0149
  433MOL0     H57091   8.513   4.613   6.250 -0.2666 -0.0148  0.3857
  433MOL0     H57092   8.681   4.736   6.340  1.9344  1.3940 -0.3516
  433MOL0     H57093   8.660   5.129   6.299  0.7097  0.9196 -0.0055
  433MOL0     H57094   8.790   5.157   6.176 -0.7055 -0.3426 -0.9901
  433MOL0     H57095   8.948   5.092   6.370  0.2773  0.3885  0.5875
  433MOL0     H57096   8.807   5.120   6.474  2.2214 -0.2518  0.8547
  433MOL0     H57097   8.781   5.352   6.385  1.2956  1.0651 -1.4502
  433MOL0     H57098   8.947   5.341   6.313  2.5372  1.1165  1.8359
  433MOL0     H57099   8.869   5.292   6.618  1.6271  2.2741  1.5564
  433MOL0     H57100   9.027   5.295   6.557 -0.9543 -3.2400 -0.5854
  433MOL0     H57101   8.816   5.523   6.572 -1.7056 -4.2464 -1.9082
  433MOL0     H57102   8.965   5.547   6.477  1.0880 -1.0240  0.9622
  433MOL0     H57103   9.071   5.480   6.706  0.2806  0.6856  0.1480
  433MOL0     H57104   8.907   5.480   6.770 -0.3458  0.7661 -0.4885
  433MOL0     H57105   9.006   5.715   6.639 -0.7216 -0.8414 -0.9182
  433MOL0     H57106   8.887   5.719   6.768 -0.0036 -3.2165  4.1818
  433MOL0     H57107   9.164   5.654   6.830  0.8661  0.6444 -0.7434
  433MOL0     H57108   9.042   5.725   6.952  3.1563  1.5594  0.3632
  433MOL0     H57109   8.949   5.978   6.849  0.1523 -0.9495  3.4883
  433MOL0     H57110   8.992   6.218   6.715  0.5380  0.3790 -2.4159
  433MOL0     H57111   9.160   6.280   6.757 -0.5204  0.5698  1.0664
  433MOL0     H57112   9.108   6.245   6.992 -0.0196  1.6697 -0.5021
  433MOL0     H57113   8.949   6.178   6.951  0.2064  1.1417  2.8370
  433MOL0     H57114   8.918   6.428   7.024 -2.2396 -0.2390  0.0594
  433MOL0     H57115   9.035   6.469   6.899  1.2949 -1.6698 -0.3953
  433MOL0     H57116   8.762   6.330   6.849 -0.1026  0.1301 -0.2897
  433MOL0     H57117   8.860   6.426   6.732 -2.6755 -1.2383 -0.1188
  433MOL0     H57118   8.659   6.741   6.967 -0.6821 -1.2598  0.7092
  433MOL0     H57119   8.425   6.794   6.920  2.3169 -0.5141  2.0883
  433MOL0     H57120   7.962   6.666   6.759  2.0757  0.4420  0.1350
  433MOL0     H57121   7.779   6.760   6.689 -1.0625 -3.6912  0.2034
  433MOL0     H57122   7.757   6.995   6.323 -1.6966 -1.0341 -0.5946
  433MOL0     H57123   7.723   7.019   6.504  1.0823 -1.9112  0.7240
  433MOL0     H57124   7.532   7.101   6.371 -2.0062  0.0656 -1.1456
  433MOL0     H57125   7.509   6.978   6.503 -1.4065  1.8676 -0.5707
  433MOL0     H57126   7.456   6.808   6.357  0.4349 -0.3766 -1.4844
  433MOL0     H57127   7.522   6.879   6.220 -1.8324 -2.7775 -0.8734
  433MOL0     H57128   7.284   7.029   6.361  2.5180 -0.0647  1.0135
  433MOL0     H57129   7.354   7.039   6.195 -3.3355 -1.8603 -2.4582
  433MOL0     H57130   7.274   6.854   6.121  0.2501  0.5213 -1.5728
  433MOL0     H57131   7.130   6.920   6.214  0.9901 -0.4901 -0.7243
  433MOL0     H57132   7.205   6.767   6.392 -2.3006 -0.6833  0.4604
  433MOL0     H57133   7.313   6.679   6.282 -2.0237 -1.7837  1.8578
  433MOL0     H57134   7.013   6.710   6.253 -2.5917 -0.2660 -5.0763
  433MOL0     H57135   7.114   6.688   6.115  1.9187  3.5105  1.1679
  433MOL0     H57136   7.020   6.475   6.202  0.7673 -4.2814 -1.0980
  433MOL0     H57137   7.119   6.492   6.348  0.8068  1.5919 -0.0030
  433MOL0     H57138   7.928   6.783   6.282 -3.3509  1.8806  0.1716
  433MOL0     H57139   8.149   6.714   6.364  3.8081  0.1120  3.7445
  433MOL0     H57140   8.402   6.459   6.652  1.7109 -0.6655 -1.1218
  433MOL0     H57141   8.612   6.412   6.692 -2.1526  1.0058 -3.4344
  433MOL0     H57142   8.584   5.072   6.084 -0.3720  0.1316  0.6869
  433MOL0     H57143   8.396   4.946   5.997  1.4466  0.7802 -0.3939
  433MOL0     H57144   8.206   4.696   5.822  2.3131 -1.1247 -2.1051
  433MOL0     H57145   8.019   4.641   5.670 -2.3580 -1.0954  0.4363
  433MOL0     H57146   7.820   4.557   5.565  1.0323  0.4534  0.1884
  433MOL0     H57147   7.704   4.633   5.668 -0.1536 -0.6710  0.2181
  433MOL0     H57148   7.578   4.400   5.682  3.0111 -2.5936  0.3563
  433MOL0     H57149   7.558   4.496   5.540 -2.0223 -0.5251  2.4086
  433MOL0     H57150   7.621   4.245   5.500  3.3697 -2.3535 -1.7411
  433MOL0     H57151   7.766   4.280   5.568 -0.8718  0.9491  1.7507
  433MOL0     H57152   7.614   4.429   5.336 -1.6794 -2.8277  1.6396
  433MOL0     H57153   7.788   4.463   5.359 -1.4209  1.6680 -3.4828
  433MOL0     H57154   7.714   4.127   5.099  0.2140 -0.1082 -0.3830
  433MOL0     H57155   7.865   4.394   5.971  0.4593 -1.6053 -0.5122
  433MOL0     H57156   8.046   4.416   6.113 -2.5898  0.0637 -0.1123
  434MOL0     O57157   7.685  11.415   1.321 -0.0326 -0.6507  0.7074
  434MOL0     C57158   7.707  11.488   1.417 -0.3118 -0.7117  0.5772
  434MOL0     O57159   7.810  11.466   1.507  0.3990 -0.1884  0.0320
  434MOL0     C57160   7.881  11.353   1.479 -0.5932  0.8467 -0.1078
  434MOL0     C57161   7.891  11.251   1.576  0.2590 -0.2028  0.1796
  434MOL0     C57162   7.986  11.151   1.553  0.5110  0.5610 -0.1962
  434MOL0     C57163   8.077  11.148   1.452 -0.6648  0.8272 -0.1204
  434MOL0     O57164   8.168  11.051   1.438  0.0244  0.3636 -0.7154
  434MOL0     C57165   8.117  10.917   1.434  0.6780  0.4763 -0.2291
  434MOL0     C57166   8.216  10.838   1.351 -0.5630  0.3770  0.4137
  434MOL0     C57167   8.207  10.684   1.329  0.3402 -0.0910  1.1939
  434MOL0     C57168   8.087  10.643   1.262  0.9822  0.0074  0.3706
  434MOL0     C57169   8.070  10.490   1.256  0.2157 -0.5328  0.1395
  434MOL0     C57170   7.946  10.435   1.178  0.3526  0.6135 -0.0491
  434MOL0     C57171   7.934  10.282   1.191  0.1479 -0.3895 -0.8100
  434MOL0     C57172   7.878  10.256   1.329 -0.1391  0.3668  1.0056
  434MOL0     N57173   7.875  10.113   1.365  0.1789  0.3857  0.4476
  434MOL0     C57174   7.937  10.001   1.309 -0.0295 -0.4317  0.1929
  434MOL0     C57175   7.883   9.893   1.366 -0.6192  0.6503  0.3489
  434MOL0     C57176   7.922   9.753   1.350  0.4889  0.4058  0.3935
  434MOL0     C57177   7.837   9.685   1.239  0.0007  0.3749 -0.8417
  434MOL0     C57178   7.885   9.732   1.102 -0.5182 -0.4868  0.1223
  434MOL0     C57179   7.819   9.643   0.990 -0.3311  0.3220  0.2504
  434MOL0     O57180   7.885   9.520   0.985  0.2957 -0.0100  0.4333
  434MOL0     C57181   7.842   9.422   0.893 -0.2701 -0.9428 -0.7628
  434MOL0     C57182   7.877   9.291   0.926  0.2300 -0.4206  1.0633
  434MOL0     C57183   7.838   9.183   0.841  0.1888  0.2763  0.4310
  434MOL0     C57184   7.749   9.195   0.739  0.7535  0.5577 -0.2968
  434MOL0     C57185   7.714   9.078   0.651  0.3351 -0.3797  0.6556
  434MOL0     O57186   7.633   9.105   0.547  0.7844  0.1493 -0.4715
  434MOL0     C57187   7.586   8.995   0.480 -0.5499 -0.5412  0.6058
  434MOL0     C57188   7.457   8.998   0.426 -0.3669  0.0795  0.3233
  434MOL0     C57189   7.422   8.913   0.316 -0.3840 -0.1710  0.5478
  434MOL0     C57190   7.507   8.816   0.260  0.1888 -0.3345  0.4783
  434MOL0     O57191   7.462   8.719   0.179 -0.5490 -0.0628 -0.4639
  434MOL0     C57192   7.465   8.593   0.243  0.3041 -0.3105  0.5210
  434MOL0     C57193   7.346   8.509   0.192 -0.2204  0.1716  0.8111
  434MOL0     C57194   7.310   8.389   0.281  0.5188  0.1049  0.2717
  434MOL0     C57195   7.172   8.330   0.235 -0.7536  0.9399 -0.2696
  434MOL0     C57196   7.130   8.194   0.290  0.5059 -0.6531 -0.2586
  434MOL0     C57197   7.244   8.087   0.287 -0.5976 -0.5026 -0.7206
  434MOL0     C57198   7.203   7.943   0.302  0.2183  0.0153  0.8253
  434MOL0     C57199   7.199   7.870   0.173  0.5626  0.2316 -0.2577
  434MOL0    Cl57200   7.079   7.933   0.054 -0.4933 -0.1274  0.3792
  434MOL0     C57201   7.634   8.820   0.309 -0.5694 -0.3453  0.9543
  434MOL0     C57202   7.669   8.899   0.416 -0.3463  0.3171  0.7123
  434MOL0     O57203   7.752   8.968   0.692  0.1513  0.2996  0.2099
  434MOL0     C57204   7.708   9.333   0.710  0.4553 -0.0937  0.1753
  434MOL0     C57205   7.750   9.441   0.792 -0.5552 -0.6189  0.5140
  434MOL0     N57206   7.783   9.942   1.453 -0.1094  0.4569 -0.5163
  434MOL0     N57207   7.792  10.065   1.462 -0.2448  0.4424  0.0594
  434MOL0     C57208   8.076  11.260   1.372 -0.2823  0.5432  0.9014
  434MOL0     C57209   7.979  11.359   1.377  0.5528 -0.1778 -0.2809
  434MOL0     C57210   7.631  11.614   1.427  0.5312 -0.0033  0.2512
  434MOL0     C57211   7.632  11.684   1.553  0.1016  0.3437 -0.8570
  434MOL0     C57212   7.543  11.797   1.558 -0.0254 -0.3085 -0.2336
  434MOL0     C57213   7.462  11.838   1.458  0.2629  0.3641 -0.7483
  434MOL0     O57214   7.382  11.945   1.477 -0.3179 -0.2721 -0.5244
  434MOL0     C57215   7.338  12.007   1.361  0.7356 -0.3392 -1.0443
  434MOL0     C57216   7.456  12.081   1.296 -0.2462 -0.3902  0.2739
  434MOL0     C57217   7.526  12.183   1.404 -0.0297 -0.0818  0.2414
  434MOL0     C57218   7.429  12.299   1.433 -0.4647 -0.4770 -0.2177
  434MOL0     C57219   7.491  12.371   1.549  0.8667 -0.0699  0.6575
  434MOL0     C57220   7.524  12.440   1.635  0.9116 -0.5620 -1.1457
  434MOL0     C57221   7.470  11.769   1.336 -0.2914 -0.4661  0.1074
  434MOL0     C57222   7.549  11.655   1.320  0.9385 -1.1848  0.1715
  434MOL0     H57223   7.822  11.236   1.658  0.4204 -1.1943  0.1367
  434MOL0     H57224   7.985  11.062   1.615  1.7329  1.0104  0.4952
  434MOL0     H57225   8.013  10.908   1.398 -0.2242  2.6054  1.6132
  434MOL0     H57226   8.118  10.882   1.537  2.4037  2.6345  0.5551
  434MOL0     H57227   8.304  10.857   1.414 -0.1406 -0.4309  0.0815
  434MOL0     H57228   8.239  10.887   1.256  0.9448 -0.1280  0.4919
  434MOL0     H57229   8.226  10.632   1.423 -0.9236 -2.2475  0.3169
  434MOL0     H57230   8.294  10.648   1.274 -0.1362  2.3355 -1.4090
  434MOL0     H57231   7.997  10.687   1.306  1.3732  0.1165  1.0884
  434MOL0     H57232   8.100  10.689   1.164 -2.6149  2.7437  0.9801
  434MOL0     H57233   8.068  10.459   1.361 -1.2600  1.8594  0.9007
  434MOL0     H57234   8.166  10.458   1.215  1.2808 -0.4732  2.4340
  434MOL0     H57235   7.952  10.467   1.074  3.4093  1.4216  0.2794
  434MOL0     H57236   7.855  10.479   1.221 -0.0462 -0.1461 -0.1000
  434MOL0     H57237   7.863  10.232   1.125  1.4129 -0.1295 -2.4444
  434MOL0     H57238   8.030  10.230   1.188  2.0486  2.4880  2.3621
  434MOL0     H57239   7.774  10.287   1.338 -1.1794 -2.7060  0.6500
  434MOL0     H57240   7.936  10.311   1.405 -2.1140  4.1400  0.0176
  434MOL0     H57241   8.022  10.009   1.242  0.6284  4.0797  1.2064
  434MOL0     H57242   7.891   9.695   1.438 -2.4658 -1.4007 -1.6644
  434MOL0     H57243   8.029   9.739   1.330  0.6101  3.4789 -1.6604
  434MOL0     H57244   7.732   9.707   1.260 -0.7749 -3.0202 -0.6834
  434MOL0     H57245   7.849   9.577   1.245 -0.7705  0.3647  1.0932
  434MOL0     H57246   7.844   9.831   1.080  0.2443  0.1563  1.5054
  434MOL0     H57247   7.994   9.741   1.101 -0.3358 -0.4244  4.1496
  434MOL0     H57248   7.822   9.694   0.893 -2.7136 -2.1367 -1.2491
  434MOL0     H57249   7.715   9.617   1.009  0.1765 -1.1508  1.2565
  434MOL0     H57250   7.964   9.269   0.988  0.8275 -0.1230  0.3386
  434MOL0     H57251   7.883   9.084   0.847  0.2839  0.0150 -2.6273
  434MOL0     H57252   7.381   9.072   0.451 -1.1443 -1.2996  2.3038
  434MOL0     H57253   7.321   8.923   0.277 -0.5948 -2.0066  0.5100
  434MOL0     H57254   7.466   8.607   0.352  4.0616 -0.0722  0.5891
  434MOL0     H57255   7.554   8.537   0.214  0.1576 -0.4423  0.3279
  434MOL0     H57256   7.372   8.498   0.086 -0.0137 -0.3932  0.9174
  434MOL0     H57257   7.261   8.578   0.196  1.1910  2.0848 -0.2544
  434MOL0     H57258   7.312   8.405   0.389  3.5872 -1.2953  0.5445
  434MOL0     H57259   7.384   8.314   0.252 -1.8295 -3.7531  3.2716
  434MOL0     H57260   7.095   8.399   0.267  0.7451  1.1273  3.4042
  434MOL0     H57261   7.169   8.317   0.126  0.9894  0.2367 -0.2691
  434MOL0     H57262   7.043   8.153   0.238  0.9880 -1.0458 -0.7646
  434MOL0     H57263   7.091   8.198   0.392 -0.9655 -0.7718 -0.7935
  434MOL0     H57264   7.321   8.109   0.361 -2.3557 -0.3718  1.1418
  434MOL0     H57265   7.291   8.101   0.189  0.5373  2.0031  0.1165
  434MOL0     H57266   7.282   7.888   0.354  0.7153 -2.4354 -2.2150
  434MOL0     H57267   7.109   7.940   0.358  0.5639 -0.0503  1.4079
  434MOL0     H57268   7.184   7.765   0.199 -1.3069  1.2846  3.7121
  434MOL0     H57269   7.296   7.884   0.124  0.8543  0.5837  0.4085
  434MOL0     H57270   7.718   8.756   0.284  0.9176  1.7638  0.2847
  434MOL0     H57271   7.772   8.904   0.450  0.3671 -2.9017 -0.6790
  434MOL0     H57272   7.639   9.343   0.626 -0.0884 -1.1128  0.4816
  434MOL0     H57273   7.706   9.534   0.758 -0.9948 -1.7599 -2.2621
  434MOL0     H57274   8.158  11.262   1.301 -1.1389  0.2727 -0.1191
  434MOL0     H57275   7.977  11.440   1.304 -1.2401 -0.6042 -0.7462
  434MOL0     H57276   7.681  11.654   1.645 -0.3486  0.2201 -0.6519
  434MOL0     H57277   7.533  11.866   1.641 -0.8136 -0.4881 -0.1709
  434MOL0     H57278   7.255  12.074   1.383  0.3908 -0.9781 -0.3623
  434MOL0     H57279   7.290  11.936   1.293 -1.7651 -0.7123  0.9689
  434MOL0     H57280   7.523  12.009   1.249 -0.8008  0.4191 -1.8914
  434MOL0     H57281   7.398  12.140   1.223  1.9174 -0.1589 -1.3557
  434MOL0     H57282   7.617  12.226   1.362 -1.0937  3.1031  0.8823
  434MOL0     H57283   7.550  12.138   1.501 -0.1843 -0.9650 -0.1265
  434MOL0     H57284   7.413  12.376   1.357  1.1468 -1.8481 -2.0756
  434MOL0     H57285   7.333  12.279   1.481 -0.1742  1.8143  1.5179
  434MOL0     H57286   7.558  12.521   1.697 -0.9552 -0.0825 -0.6940
  434MOL0     H57287   7.423  11.808   1.246  1.1178 -0.6872 -0.7582
  434MOL0     H57288   7.555  11.606   1.224  2.8746  1.4049 -1.1432
  435MOL0     O57289   8.416   8.746   5.460  0.3288 -0.4824 -0.3464
  435MOL0     C57290   8.355   8.854   5.480 -1.0965  1.2260 -0.0964
  435MOL0     O57291   8.336   8.906   5.602  0.2639 -0.9226 -0.8919
  435MOL0     C57292   8.382   8.843   5.711 -0.5340 -0.4950  0.0601
  435MOL0     C57293   8.462   8.914   5.798  0.6266 -0.2303 -0.1020
  435MOL0     C57294   8.511   8.852   5.917  0.3292 -0.2087  0.4314
  435MOL0     C57295   8.488   8.714   5.944 -1.2922  0.4045 -0.0680
  435MOL0     O57296   8.545   8.672   6.062  0.5098  0.0810 -0.0184
  435MOL0     C57297   8.548   8.530   6.102  0.0939 -0.2508 -0.1424
  435MOL0     C57298   8.434   8.499   6.211 -0.7784  0.4776 -0.1858
  435MOL0     C57299   8.296   8.474   6.150 -0.9584 -0.6469 -0.2223
  435MOL0     C57300   8.187   8.428   6.254  0.1602 -1.5000 -0.1060
  435MOL0     C57301   8.070   8.374   6.179 -0.2253  0.2760 -0.1891
  435MOL0     C57302   7.939   8.397   6.259 -0.3975  0.4190  0.5689
  435MOL0     C57303   7.825   8.311   6.200  0.7916 -0.6003  0.3146
  435MOL0     C57304   7.763   8.229   6.306  0.5550 -0.0430 -0.5515
  435MOL0     N57305   7.664   8.304   6.378 -0.3005  1.1356  0.1159
  435MOL0     C57306   7.535   8.288   6.362  1.4334  0.3500  0.1029
  435MOL0     C57307   7.485   8.373   6.452 -0.2887  0.7260 -0.8256
  435MOL0     C57308   7.339   8.412   6.467 -0.5496  0.1998  0.6942
  435MOL0     C57309   7.286   8.460   6.613 -0.2575 -0.1006 -0.5629
  435MOL0     C57310   7.329   8.601   6.666 -0.0651  0.4876 -0.7582
  435MOL0     C57311   7.421   8.591   6.787  0.0142 -0.7734  0.1849
  435MOL0     O57312   7.450   8.708   6.854  0.1500  0.0404 -0.0364
  435MOL0     C57313   7.570   8.768   6.844  0.0864 -0.1217  0.1036
  435MOL0     C57314   7.668   8.753   6.744 -0.2342  0.4607 -0.4679
  435MOL0     C57315   7.784   8.823   6.741  0.2002 -0.1909  0.1301
  435MOL0     C57316   7.809   8.923   6.838 -0.8174 -1.5043  0.0246
  435MOL0     C57317   7.929   9.008   6.828  0.9178 -0.2318  0.8969
  435MOL0     O57318   7.994   9.008   6.721 -0.1238  0.1008  0.5762
  435MOL0     C57319   8.102   9.089   6.715 -0.5561 -0.4018 -0.6109
  435MOL0     C57320   8.229   9.018   6.709  0.2667 -1.3457  0.0655
  435MOL0     C57321   8.345   9.092   6.698  0.2589 -0.1247  0.4596
  435MOL0     C57322   8.340   9.234   6.676 -0.3529  1.3937  0.1313
  435MOL0     O57323   8.441   9.320   6.700 -0.5674 -0.4229  0.1267
  435MOL0     C57324   8.575   9.271   6.700  0.0275  0.0447  0.0329
  435MOL0     C57325   8.654   9.392   6.761  0.2031  0.1152 -0.1000
  435MOL0     C57326   8.806   9.348   6.803  0.9905 -0.2660 -0.1729
  435MOL0     C57327   8.865   9.230   6.730  0.1472  0.5708 -0.0408
  435MOL0     C57328   9.012   9.213   6.746  0.1814  0.1300  0.2972
  435MOL0     C57329   9.040   9.087   6.669 -0.3793  0.0069 -1.2851
  435MOL0     C57330   9.191   9.068   6.687  0.4257 -0.1854 -0.1691
  435MOL0     C57331   9.249   8.936   6.639 -1.0924 -0.5931  0.3907
  435MOL0    Cl57332   9.213   8.894   6.470 -0.1548  0.2137  0.4776
  435MOL0     C57333   8.214   9.296   6.673  0.5145  0.1015  0.8255
  435MOL0     C57334   8.099   9.231   6.703  0.1263 -0.4881  0.3844
  435MOL0     O57335   7.968   9.060   6.936  0.0290 -0.0242 -0.9819
  435MOL0     C57336   7.709   8.947   6.937 -0.4494  0.4440  0.8105
  435MOL0     C57337   7.584   8.880   6.935 -0.0240 -0.6678 -0.0274
  435MOL0     N57338   7.582   8.426   6.536 -1.3757 -0.6885 -0.4226
  435MOL0     N57339   7.698   8.382   6.489  0.0324 -1.0036  0.5463
  435MOL0     C57340   8.390   8.653   5.870  1.0698  0.5455  0.1495
  435MOL0     C57341   8.346   8.713   5.754  0.9669  0.4325  0.3783
  435MOL0     C57342   8.286   8.919   5.363 -0.7869 -0.1338 -0.6339
  435MOL0     C57343   8.199   9.025   5.387  1.0183  0.0658 -0.1981
  435MOL0     C57344   8.123   9.066   5.280 -0.2983 -0.5556 -0.2226
  435MOL0     C57345   8.137   9.011   5.150 -0.0977  0.2842  0.4055
  435MOL0     O57346   8.044   9.049   5.061 -0.2902 -0.6146  0.0718
  435MOL0     C57347   8.021   8.981   4.938 -0.2178 -0.1610 -0.8561
  435MOL0     C57348   7.921   9.046   4.853  0.1243  0.2335  0.0815
  435MOL0     C57349   7.785   9.064   4.922  0.1325 -0.4794 -0.0060
  435MOL0     C57350   7.713   8.935   4.948  0.9682  0.4267  0.0916
  435MOL0     C57351   7.590   8.951   5.031  0.3650  0.0685 -0.3908
  435MOL0     C57352   7.499   8.965   5.109 -0.1664 -0.4794  0.7196
  435MOL0     C57353   8.227   8.909   5.116 -0.6543  0.0506  0.6254
  435MOL0     C57354   8.295   8.866   5.228  0.0642  0.9021 -0.1647
  435MOL0     H57355   8.489   9.018   5.789  1.3368 -0.6131 -3.9398
  435MOL0     H57356   8.562   8.914   5.990  0.6524 -0.5811  0.5186
  435MOL0     H57357   8.645   8.498   6.142 -0.7118 -0.5060  1.7145
  435MOL0     H57358   8.535   8.464   6.016  4.3046 -2.4263  0.5890
  435MOL0     H57359   8.433   8.579   6.285  0.3507  1.0043 -0.7089
  435MOL0     H57360   8.468   8.404   6.252 -1.9070  0.1784  0.0747
  435MOL0     H57361   8.301   8.401   6.068  0.3376 -0.3759 -0.4114
  435MOL0     H57362   8.265   8.574   6.117  3.1293  1.6247  1.9544
  435MOL0     H57363   8.225   8.343   6.312 -2.7383 -3.6312 -1.1252
  435MOL0     H57364   8.167   8.505   6.329 -0.7388 -1.0744 -0.7648
  435MOL0     H57365   8.094   8.271   6.147  0.0363  0.9708 -2.4401
  435MOL0     H57366   8.049   8.422   6.083 -1.1965 -1.3422 -0.8334
  435MOL0     H57367   7.912   8.501   6.240  3.3775  1.3836 -0.2772
  435MOL0     H57368   7.942   8.381   6.368 -1.7353 -0.9287  0.4463
  435MOL0     H57369   7.752   8.373   6.146  1.2531  1.2391  1.7096
  435MOL0     H57370   7.861   8.248   6.118  3.2090  1.8537 -0.6368
  435MOL0     H57371   7.834   8.203   6.385 -1.5793 -2.7913  0.6098
  435MOL0     H57372   7.723   8.140   6.258  2.0013 -0.6460 -0.6778
  435MOL0     H57373   7.486   8.232   6.284 -1.7541 -1.2533  3.0028
  435MOL0     H57374   7.269   8.335   6.434  0.5078 -1.7528  2.6427
  435MOL0     H57375   7.325   8.499   6.403  0.9215  0.1200  0.2360
  435MOL0     H57376   7.307   8.376   6.680  0.3208 -0.1485 -0.7948
  435MOL0     H57377   7.177   8.455   6.620 -0.3074  1.5582  0.1569
  435MOL0     H57378   7.379   8.655   6.586 -0.4949  1.3369 -0.4643
  435MOL0     H57379   7.235   8.654   6.682 -0.1164  1.3271 -3.4058
  435MOL0     H57380   7.515   8.547   6.752  0.5437 -0.8224  1.6028
  435MOL0     H57381   7.374   8.521   6.857 -1.3769 -0.9414 -0.8733
  435MOL0     H57382   7.640   8.694   6.657 -1.7752  1.7589 -0.9032
  435MOL0     H57383   7.846   8.801   6.654 -1.0418 -0.4632 -0.7090
  435MOL0     H57384   8.232   8.911   6.694  2.2031 -1.2616 -0.3346
  435MOL0     H57385   8.427   9.024   6.717 -1.2560 -2.0026  0.6444
  435MOL0     H57386   8.616   9.248   6.601 -1.6601 -1.7800 -0.3064
  435MOL0     H57387   8.584   9.181   6.761 -0.7098 -1.6993 -2.2578
  435MOL0     H57388   8.602   9.440   6.844 -0.0644  0.1908 -0.3090
  435MOL0     H57389   8.672   9.466   6.682  0.7679 -2.5253 -2.6118
  435MOL0     H57390   8.811   9.337   6.912 -1.3692  4.7797  0.7409
  435MOL0     H57391   8.872   9.434   6.789 -1.3395  1.7863  0.6702
  435MOL0     H57392   8.817   9.138   6.765 -0.1193  0.4132 -0.7831
  435MOL0     H57393   8.855   9.236   6.621  4.1744 -2.5771 -0.8448
  435MOL0     H57394   9.038   9.211   6.852  1.6110 -0.2259 -0.0467
  435MOL0     H57395   9.061   9.302   6.705  1.7745 -0.1485  1.5055
  435MOL0     H57396   9.002   9.088   6.567 -0.2057 -0.2493 -1.3537
  435MOL0     H57397   8.987   9.007   6.722 -0.5849 -0.1927 -1.7929
  435MOL0     H57398   9.228   9.151   6.625  0.1428 -0.0574 -0.1659
  435MOL0     H57399   9.226   9.089   6.788 -1.3587 -0.0721  0.4419
  435MOL0     H57400   9.223   8.861   6.714  3.6782 -0.2646  2.7303
  435MOL0     H57401   9.358   8.945   6.634 -0.7085 -4.4101 -1.6090
  435MOL0     H57402   8.201   9.403   6.679 -0.6372 -0.0447  1.1830
  435MOL0     H57403   8.010   9.290   6.722  0.4017  1.4623 -3.3968
  435MOL0     H57404   7.725   9.016   7.020 -1.2116 -1.9648  3.0828
  435MOL0     H57405   7.506   8.902   7.008 -0.4424 -3.0403  0.3001
  435MOL0     H57406   8.353   8.552   5.886 -0.4349  1.5402  3.8896
  435MOL0     H57407   8.275   8.659   5.692  1.5060  1.5897 -1.3117
  435MOL0     H57408   8.182   9.073   5.483  2.2097  1.1239 -0.4814
  435MOL0     H57409   8.052   9.147   5.292  1.3639  0.9592 -0.1947
  435MOL0     H57410   7.980   8.884   4.968 -1.5756  0.8893  0.9019
  435MOL0     H57411   8.119   8.971   4.891 -0.0726 -2.9207 -0.1438
  435MOL0     H57412   7.962   9.141   4.817  0.6075  0.8248  2.0560
  435MOL0     H57413   7.911   8.977   4.769  1.6443  0.7898 -0.6067
  435MOL0     H57414   7.721   9.122   4.855  2.1988  0.7710 -0.9962
  435MOL0     H57415   7.771   9.124   5.012 -0.5594  0.1806 -0.5395
  435MOL0     H57416   7.698   8.874   4.858  1.7804 -0.5966  0.6267
  435MOL0     H57417   7.781   8.879   5.012  0.9190 -2.4376 -2.1185
  435MOL0     H57418   7.419   8.996   5.173  0.7615  3.0296  0.3816
  435MOL0     H57419   8.227   8.866   5.016  0.2254  0.0733  0.6092
  435MOL0     H57420   8.355   8.779   5.206  1.9341  1.7383  1.3445
  436MOL0     O57421   8.115  10.475   0.414 -0.3079 -0.6764 -0.6721
  436MOL0     C57422   8.081  10.570   0.357  1.3410 -0.5971  1.0314
  436MOL0     O57423   8.147  10.621   0.243  0.0644  0.4838 -0.1547
  436MOL0     C57424   8.274  10.587   0.214  0.2608 -0.5388  0.3054
  436MOL0     C57425   8.377  10.524   0.292  0.1387  0.2068 -0.3240
  436MOL0     C57426   8.498  10.493   0.243  0.6543 -0.2298  0.5515
  436MOL0     C57427   8.537  10.530   0.116 -0.0801  0.5588 -0.0243
  436MOL0     O57428   8.666  10.500   0.080 -0.1807  0.5510 -0.1067
  436MOL0     C57429   8.754  10.586   0.010  0.6780 -0.4860  0.5719
  436MOL0     C57430   8.866  10.617   0.109  1.2960  0.4028 -0.1681
  436MOL0     C57431   8.976  10.702   0.038 -0.7591 -0.8535  0.4263
  436MOL0     C57432   9.116  10.667   0.090  0.2256  0.2055  0.9384
  436MOL0     C57433   9.208  10.788   0.064 -0.0871 -0.0982  0.5212
  436MOL0     C57434   9.355  10.744   0.070  0.1208 -0.8381 -0.7209
  436MOL0     C57435   9.452  10.855   0.012  0.4565  0.4145  0.3107
  436MOL0     C57436   9.531  10.927   0.115 -0.0701 -0.1593  0.1662
  436MOL0     N57437   9.640  10.857   0.177 -0.2758  0.7572  0.1642
  436MOL0     C57438   9.638  10.781   0.295  0.0926 -0.4885 -0.5862
  436MOL0     C57439   9.755  10.717   0.308 -0.6648  0.8555  0.3343
  436MOL0     C57440   9.810  10.610   0.403  0.5556 -0.1887  0.2334
  436MOL0     C57441   9.844  10.665   0.543 -0.8159  0.0657  0.4016
  436MOL0     C57442   9.959  10.767   0.522  0.3780 -0.4019  0.0605
  436MOL0     C57443  10.096  10.724   0.463  0.9300 -0.1193 -0.2628
  436MOL0     O57444  10.134  10.597   0.507  0.3089 -0.0116  0.5664
  436MOL0     C57445  10.150  10.567   0.639  0.0399 -0.6170 -0.1602
  436MOL0     C57446  10.164  10.438   0.670  0.2102  0.6641 -0.7347
  436MOL0     C57447  10.177  10.392   0.802  0.5052  0.1021 -0.3172
  436MOL0     C57448  10.173  10.486   0.906 -0.2712 -0.5403 -0.4016
  436MOL0     C57449  10.195  10.443   1.054 -0.0798 -0.3426  0.5659
  436MOL0     O57450  10.164  10.534   1.156  0.3795  0.3654 -0.5553
  436MOL0     C57451  10.210  10.514   1.288  0.4789  0.0768 -0.6865
  436MOL0     C57452  10.120  10.542   1.395  1.1987 -0.8001  0.4156
  436MOL0     C57453  10.142  10.513   1.524  0.7797  0.3901 -0.3460
  436MOL0     C57454  10.243  10.423   1.566 -0.7745 -0.5676  0.3384
  436MOL0     O57455  10.255  10.402   1.703 -0.5829  0.3653 -0.2941
  436MOL0     C57456  10.370  10.323   1.753 -0.3821  0.5288  0.1420
  436MOL0     C57457  10.348  10.170   1.718 -0.1887 -1.0107  0.2249
  436MOL0     C57458  10.446  10.076   1.785 -0.1832  0.1254  0.2982
  436MOL0     C57459  10.420   9.936   1.744  0.2700  0.7989  0.1008
  436MOL0     C57460  10.310   9.863   1.813  0.4131  0.4098  1.0237
  436MOL0     C57461  10.345   9.807   1.953  0.7995 -0.1727  0.0171
  436MOL0     C57462  10.230   9.750   2.024  0.4019  0.3123  0.1258
  436MOL0     C57463  10.256   9.743   2.170  0.0120 -0.5185  0.4717
  436MOL0    Cl57464  10.130   9.649   2.242  0.4984  0.3371 -0.1863
  436MOL0     C57465  10.333  10.388   1.461 -0.3531 -0.8997  0.3604
  436MOL0     C57466  10.326  10.433   1.329  0.4160 -0.4934  0.4638
  436MOL0     O57467  10.210  10.323   1.080  0.5219 -0.5271  0.3464
  436MOL0     C57468  10.160  10.619   0.876 -1.0324  0.1379 -0.7168
  436MOL0     C57469  10.156  10.660   0.744  0.3452 -0.4956 -0.4618
  436MOL0     N57470   9.821  10.747   0.194 -0.0065  0.2032  0.1090
  436MOL0     N57471   9.752  10.821   0.109  0.1296 -0.1722  0.0913
  436MOL0     C57472   8.453  10.606   0.035  0.0384 -0.7125 -0.9687
  436MOL0     C57473   8.321  10.637   0.087  0.3122 -1.1398 -0.3230
  436MOL0     C57474   7.952  10.628   0.390  0.3395 -0.2750 -0.3509
  436MOL0     C57475   7.894  10.564   0.510 -0.0749  0.8087 -0.1528
  436MOL0     C57476   7.759  10.590   0.549 -0.3697 -1.2489 -0.2634
  436MOL0     C57477   7.693  10.683   0.467  0.3927 -0.7620  0.1680
  436MOL0     O57478   7.568  10.725   0.519 -0.0422  0.2808 -0.7224
  436MOL0     C57479   7.472  10.771   0.423  0.1043 -0.0848 -0.4997
  436MOL0     C57480   7.345  10.814   0.504 -0.5212 -0.8759  1.0586
  436MOL0     C57481   7.255  10.703   0.543  0.4590 -0.8275  0.3671
  436MOL0     C57482   7.161  10.734   0.650  0.3058  0.0123 -0.5537
  436MOL0     C57483   7.074  10.628   0.685  0.8263 -0.3894 -0.0382
  436MOL0     C57484   7.004  10.543   0.720  0.1345  0.4259  0.3976
  436MOL0     C57485   7.741  10.731   0.348 -1.1498  0.0637  0.4104
  436MOL0     C57486   7.875  10.713   0.315  0.5005 -0.2385 -0.5771
  436MOL0     H57487   8.344  10.491   0.390 -1.4815  0.0778 -0.8915
  436MOL0     H57488   8.576  10.434   0.288  0.4290 -1.4263 -0.5600
  436MOL0     H57489   8.702  10.680  -0.012  1.7510  0.2560  1.0982
  436MOL0     H57490   8.777  10.534  -0.083  0.3155 -1.9369  1.2639
  436MOL0     H57491   8.914  10.523   0.138  3.3798  1.1847 -0.9317
  436MOL0     H57492   8.824  10.668   0.196  1.1437  2.0513 -1.1737
  436MOL0     H57493   8.971  10.806   0.072  3.3569 -0.7643  1.2405
  436MOL0     H57494   8.972  10.690  -0.071 -0.7472 -1.5889  0.4997
  436MOL0     H57495   9.104  10.647   0.197  0.3497  2.8704  1.5163
  436MOL0     H57496   9.157  10.573   0.051  2.4716  0.4943  2.4257
  436MOL0     H57497   9.193  10.879   0.122  1.2537  0.3492  0.2125
  436MOL0     H57498   9.187  10.822  -0.038  0.0974  0.7971  0.7712
  436MOL0     H57499   9.372  10.655   0.009  1.2298  0.0632 -1.7884
  436MOL0     H57500   9.378  10.704   0.169 -1.1722 -0.2698 -0.1669
  436MOL0     H57501   9.523  10.806  -0.055  0.4197  2.3613 -1.2602
  436MOL0     H57502   9.402  10.925  -0.055  2.7307  1.3499 -0.5008
  436MOL0     H57503   9.468  10.957   0.198 -1.7596  2.8861 -2.0216
  436MOL0     H57504   9.572  11.016   0.066  1.1401 -0.6849  0.1723
  436MOL0     H57505   9.561  10.789   0.372 -0.5800  0.0536 -1.3027
  436MOL0     H57506   9.890  10.552   0.355 -1.0617  0.8786 -4.2688
  436MOL0     H57507   9.725  10.544   0.420  0.2833  0.6598  2.4420
  436MOL0     H57508   9.870  10.574   0.598 -3.9817 -2.2778 -1.6101
  436MOL0     H57509   9.761  10.726   0.581 -1.5817 -1.5317  1.4240
  436MOL0     H57510   9.925  10.850   0.458 -1.5745  0.5236  2.1698
  436MOL0     H57511   9.976  10.799   0.625  2.3188 -3.0139  0.6498
  436MOL0     H57512  10.168  10.802   0.487  1.4631  0.5499 -3.5319
  436MOL0     H57513  10.070  10.726   0.356 -4.4396 -0.2414  0.7320
  436MOL0     H57514  10.177  10.377   0.582 -0.4645 -2.9645  1.4734
  436MOL0     H57515  10.185  10.286   0.823  1.1338 -0.2012 -2.0167
  436MOL0     H57516  10.025  10.583   1.361  1.2934 -1.1664 -0.3160
  436MOL0     H57517  10.088  10.561   1.605  0.5342  1.1681 -0.9603
  436MOL0     H57518  10.392  10.334   1.860  0.3769  1.8257 -0.1180
  436MOL0     H57519  10.456  10.368   1.702 -3.9228  5.5537 -2.2635
  436MOL0     H57520  10.350  10.155   1.610  0.9957  0.2025  0.0576
  436MOL0     H57521  10.248  10.155   1.759  0.3102 -2.0778  1.1052
  436MOL0     H57522  10.418  10.077   1.891  1.6638  0.9668  0.8148
  436MOL0     H57523  10.544  10.119   1.762 -0.6691  1.5638  0.7986
  436MOL0     H57524  10.394   9.947   1.638 -4.5907  4.7718  1.3337
  436MOL0     H57525  10.510   9.873   1.744 -1.3916 -2.0073 -3.6894
  436MOL0     H57526  10.273   9.783   1.749  0.9211 -0.2940  1.5887
  436MOL0     H57527  10.233   9.940   1.824 -1.4748 -0.9549 -1.5622
  436MOL0     H57528  10.396   9.884   2.011 -0.2240  1.8791 -1.6968
  436MOL0     H57529  10.418   9.727   1.936  1.2891  0.3197 -0.2416
  436MOL0     H57530  10.145   9.816   2.005 -1.0818 -1.4973  0.2239
  436MOL0     H57531  10.206   9.649   1.990  0.5579  0.4468 -0.4021
  436MOL0     H57532  10.262   9.845   2.210 -0.7367 -0.5879  0.7784
  436MOL0     H57533  10.348   9.686   2.184  0.1583 -0.2898  0.4386
  436MOL0     H57534  10.417  10.323   1.483 -0.9692 -2.0488 -0.5887
  436MOL0     H57535  10.395  10.408   1.249  0.3922  2.5439 -0.6205
  436MOL0     H57536  10.147  10.692   0.955 -1.1723  0.1432 -0.7439
  436MOL0     H57537  10.150  10.768   0.730 -6.0299  0.0978  2.8228
  436MOL0     H57538   8.476  10.652  -0.061 -2.9829 -0.4588 -1.6765
  436MOL0     H57539   8.263  10.711   0.032 -3.1464 -2.5111  1.1833
  436MOL0     H57540   7.947  10.503   0.583  1.7689  1.8224 -0.5846
  436MOL0     H57541   7.722  10.547   0.641  2.2924 -2.5698  0.2929
  436MOL0     H57542   7.452  10.684   0.359  0.4852  1.6025 -3.0407
  436MOL0     H57543   7.515  10.851   0.363  5.0606 -0.5510  1.9607
  436MOL0     H57544   7.394  10.876   0.579  1.8314  2.3504 -2.7669
  436MOL0     H57545   7.288  10.885   0.443  0.1838 -1.8106 -0.7906
  436MOL0     H57546   7.327  10.629   0.580  2.4503  1.1636  0.7411
  436MOL0     H57547   7.201  10.671   0.454  1.5543 -2.7342  0.3308
  436MOL0     H57548   7.214  10.758   0.743 -0.1809  0.7096 -0.4455
  436MOL0     H57549   7.107  10.819   0.606 -1.7335 -0.6212  0.5969
  436MOL0     H57550   6.950  10.459   0.759  1.0906  0.2482  1.3908
  436MOL0     H57551   7.687  10.804   0.288 -0.5589  0.0864 -0.1055
  436MOL0     H57552   7.913  10.743   0.217  0.4819 -0.1855 -0.5684
  437MOL0     O57553   3.994  10.861   2.972  0.2882 -0.0156 -0.6906
  437MOL0     C57554   4.101  10.835   3.031 -0.2864 -0.1532  0.7016
  437MOL0     O57555   4.167  10.709   3.018  0.0932 -0.6573 -0.2351
  437MOL0     C57556   4.119  10.586   2.982  1.2230 -0.5291 -0.3546
  437MOL0     C57557   3.988  10.555   2.946  0.8943 -0.1964  0.6590
  437MOL0     C57558   3.950  10.426   2.894 -0.7576  0.3770  0.1798
  437MOL0     C57559   4.048  10.319   2.913  0.4223 -0.0997  0.2294
  437MOL0     O57560   3.997  10.205   2.865 -0.2249 -0.3655 -0.2294
  437MOL0     C57561   4.062  10.088   2.927  0.2546 -0.0723 -0.4425
  437MOL0     C57562   3.982   9.954   2.901  0.1706 -0.9534 -0.4885
  437MOL0     C57563   3.863   9.925   2.991  0.0572  0.3991 -0.6421
  437MOL0     C57564   3.761  10.038   2.992  0.4320 -0.2909 -0.7042
  437MOL0     C57565   3.641  10.011   3.083  1.0346 -0.8110  0.8070
  437MOL0     C57566   3.564   9.886   3.037  0.0475 -1.0361  0.1253
  437MOL0     C57567   3.412   9.893   3.050  0.0463 -0.3691  0.3280
  437MOL0     C57568   3.364   9.865   3.188 -0.2278 -0.0872 -0.2857
  437MOL0     N57569   3.213   9.864   3.192  0.5775  0.2692 -0.2561
  437MOL0     C57570   3.120   9.767   3.164  0.1133  0.1496 -0.3392
  437MOL0     C57571   3.002   9.824   3.181  0.1359 -0.2330  0.9013
  437MOL0     C57572   2.875   9.756   3.136  0.1423 -0.2709 -0.2242
  437MOL0     C57573   2.741   9.823   3.167  0.5573 -0.6514 -0.3132
  437MOL0     C57574   2.716   9.842   3.320  0.1153  0.0177 -0.0386
  437MOL0     C57575   2.595   9.923   3.349  0.7259  0.2292  0.2780
  437MOL0     O57576   2.484   9.833   3.361 -0.1010 -0.0624  0.7176
  437MOL0     C57577   2.354   9.873   3.393  0.3845  0.4287  1.0141
  437MOL0     C57578   2.299   9.995   3.353 -0.2150 -0.0366  0.2614
  437MOL0     C57579   2.165  10.028   3.377 -0.5918  1.1104  0.3018
  437MOL0     C57580   2.081   9.934   3.445  0.1684  0.4439  0.5770
  437MOL0     C57581   1.941   9.970   3.473 -0.5752 -0.5986 -0.1422
  437MOL0     O57582   1.851   9.880   3.527 -0.1487 -0.5912 -0.0794
  437MOL0     C57583   1.725   9.921   3.548  0.3958  0.7112 -0.5724
  437MOL0     C57584   1.683   9.973   3.655  0.4076  0.4505 -0.2444
  437MOL0     C57585   1.547   9.994   3.669  1.3498 -1.0023 -0.8510
  437MOL0     C57586   1.442   9.966   3.577  0.4663  0.0382  0.4150
  437MOL0     O57587   1.325  10.027   3.593 -0.5017  0.7047 -0.5320
  437MOL0     C57588   1.216   9.948   3.545 -0.3882  0.0348  0.4394
  437MOL0     C57589   1.107  10.055   3.539  0.0173  0.4668  0.0949
  437MOL0     C57590   1.068  10.097   3.683 -0.2112  0.2956  0.3530
  437MOL0     C57591   0.967  10.212   3.656  0.0084 -1.5699 -0.0189
  437MOL0     C57592   0.923  10.272   3.789  0.1060  0.6892 -0.8998
  437MOL0     C57593   0.831  10.385   3.781  0.3684  0.0862  0.1636
  437MOL0     C57594   0.682  10.345   3.735 -0.3737  0.8094 -0.2489
  437MOL0     C57595   0.590  10.473   3.759  0.6929 -0.6191  0.7436
  437MOL0    Cl57596   0.661  10.630   3.718 -0.3254  0.0542  0.7239
  437MOL0     C57597   1.487   9.890   3.467  0.3919 -0.6970 -0.3641
  437MOL0     C57598   1.630   9.865   3.453 -0.1866  0.3940 -0.7473
  437MOL0     O57599   1.917  10.091   3.444  0.6501 -0.8663 -0.2573
  437MOL0     C57600   2.137   9.804   3.472  0.1508 -0.6014 -0.0269
  437MOL0     C57601   2.269   9.776   3.447 -1.0532 -0.6139  0.5628
  437MOL0     N57602   3.022   9.955   3.226 -0.5048  0.8432 -0.2235
  437MOL0     N57603   3.148   9.975   3.241 -0.1007 -0.0801  0.1237
  437MOL0     C57604   4.174  10.346   2.958  0.5137 -0.8964 -0.1001
  437MOL0     C57605   4.208  10.477   2.990  0.5081  0.9153 -0.3043
  437MOL0     C57606   4.173  10.958   3.072  0.2097  0.1525  0.4999
  437MOL0     C57607   4.233  10.963   3.197 -0.6982  0.6932  0.0824
  437MOL0     C57608   4.307  11.079   3.229 -0.3713 -0.3498  0.1849
  437MOL0     C57609   4.320  11.182   3.143  0.3036  0.0819 -0.2787
  437MOL0     O57610   4.380  11.299   3.176  0.1125  0.1708 -0.3356
  437MOL0     C57611   4.525  11.289   3.167  0.7019 -0.5742  0.3502
  437MOL0     C57612   4.589  11.288   3.307  0.1064  0.5992  0.4589
  437MOL0     C57613   4.592  11.431   3.358 -0.8854 -0.0517  0.7055
  437MOL0     C57614   4.464  11.518   3.368  0.1228  0.9510  0.9592
  437MOL0     C57615   4.495  11.633   3.450  1.2250  0.0372  0.0871
  437MOL0     C57616   4.505  11.738   3.510  0.3956  0.3266  0.1418
  437MOL0     C57617   4.263  11.175   3.016  0.3676 -0.7835 -0.5653
  437MOL0     C57618   4.194  11.060   2.976  0.7305  0.1400 -0.4339
  437MOL0     H57619   3.910  10.630   2.937 -1.1760 -1.9428  2.8001
  437MOL0     H57620   3.851  10.384   2.879 -1.1235  0.6713  1.6090
  437MOL0     H57621   4.058  10.098   3.036 -1.3236  0.1848 -0.4975
  437MOL0     H57622   4.165  10.072   2.895 -0.9799 -2.0580 -4.0351
  437MOL0     H57623   4.049   9.867   2.901 -1.0119 -1.9073 -1.6140
  437MOL0     H57624   3.939   9.956   2.801 -1.4243 -0.8364  0.1696
  437MOL0     H57625   3.896   9.896   3.091  1.0292  3.7053  0.1352
  437MOL0     H57626   3.818   9.833   2.953  0.6844 -0.5953  0.9129
  437MOL0     H57627   3.810  10.125   3.036 -3.0331  1.0934  0.8237
  437MOL0     H57628   3.725  10.058   2.890  1.2681 -0.5820 -1.0708
  437MOL0     H57629   3.575  10.096   3.061  0.3162 -1.8633 -1.3204
  437MOL0     H57630   3.657  10.002   3.191  3.2649 -0.9219  0.5020
  437MOL0     H57631   3.600   9.800   3.094 -0.0994 -0.4785  1.0721
  437MOL0     H57632   3.588   9.870   2.931 -1.5799 -3.7609  0.0781
  437MOL0     H57633   3.381   9.994   3.021  0.2049 -0.0553  1.2241
  437MOL0     H57634   3.372   9.820   2.979 -1.0232 -2.2122  2.6863
  437MOL0     H57635   3.395   9.939   3.262 -0.2984  1.9354 -2.1783
  437MOL0     H57636   3.396   9.766   3.223 -6.0035 -2.0465  0.5265
  437MOL0     H57637   3.136   9.674   3.110  1.8256  1.7319 -2.7689
  437MOL0     H57638   2.873   9.653   3.175 -1.2612 -0.4452 -0.6793
  437MOL0     H57639   2.870   9.744   3.028 -2.7810  1.5067 -0.4000
  437MOL0     H57640   2.651   9.774   3.128 -0.2775  1.2245 -0.8555
  437MOL0     H57641   2.740   9.918   3.114  2.6699 -0.8371 -0.7752
  437MOL0     H57642   2.713   9.750   3.380 -1.8726 -0.3700 -0.6762
  437MOL0     H57643   2.801   9.894   3.365 -1.3748 -0.2005  3.3386
  437MOL0     H57644   2.574   9.989   3.264 -5.1306 -0.2951  0.9134
  437MOL0     H57645   2.608   9.992   3.433 -0.7344  1.0214 -0.1037
  437MOL0     H57646   2.367  10.058   3.296 -0.6684  1.7619  1.6456
  437MOL0     H57647   2.132  10.123   3.336 -2.7800 -0.3182 -1.5151
  437MOL0     H57648   1.758   9.988   3.733  3.3234 -2.7307 -2.1389
  437MOL0     H57649   1.524  10.049   3.760 -1.6858 -2.1086 -0.8466
  437MOL0     H57650   1.190   9.870   3.618 -2.6479  1.7151  1.5398
  437MOL0     H57651   1.229   9.903   3.446  2.0854 -0.5675  0.9747
  437MOL0     H57652   1.023  10.003   3.491 -1.2084 -0.9053  3.4330
  437MOL0     H57653   1.145  10.139   3.480  2.7688  0.7155  2.0616
  437MOL0     H57654   1.156  10.124   3.742 -0.7752  0.1469  1.2795
  437MOL0     H57655   1.023  10.014   3.739 -1.7850  2.7362  2.9774
  437MOL0     H57656   1.025  10.285   3.598 -1.6143  0.4995  0.8190
  437MOL0     H57657   0.877  10.177   3.605 -1.4484  1.1653  0.4832
  437MOL0     H57658   1.015  10.291   3.844 -0.4409 -1.0224  0.7270
  437MOL0     H57659   0.876  10.192   3.847 -0.7290  2.9175  1.7386
  437MOL0     H57660   0.877  10.448   3.704  2.0603 -2.8657 -1.4575
  437MOL0     H57661   0.821  10.431   3.879 -1.4990  0.9657 -0.3834
  437MOL0     H57662   0.682  10.323   3.627 -2.1830  3.9683 -1.0170
  437MOL0     H57663   0.656  10.254   3.789  0.5593  0.4294 -0.4067
  437MOL0     H57664   0.563  10.479   3.865  0.0650 -1.7358  0.6574
  437MOL0     H57665   0.504  10.441   3.700  0.6775 -1.7924  1.3891
  437MOL0     H57666   1.426   9.872   3.379 -1.6262 -2.1364  1.2364
  437MOL0     H57667   1.655   9.822   3.357  1.2872  1.9281 -1.0895
  437MOL0     H57668   2.074   9.729   3.519  1.5515 -1.4608  0.5365
  437MOL0     H57669   2.311   9.679   3.469  1.1562  0.4797  1.4704
  437MOL0     H57670   4.249  10.268   2.959  0.5256 -0.9300  2.7413
  437MOL0     H57671   4.312  10.502   3.013 -0.3285  2.7842  1.7644
  437MOL0     H57672   4.225  10.887   3.275  0.0240  1.5393  1.0011
  437MOL0     H57673   4.358  11.105   3.321 -0.1998 -2.6320  0.7889
  437MOL0     H57674   4.560  11.376   3.110  0.7632  0.3212  1.7115
  437MOL0     H57675   4.548  11.193   3.120 -1.6437 -0.3551 -1.4386
  437MOL0     H57676   4.542  11.222   3.381  0.1437  2.6129  2.3642
  437MOL0     H57677   4.692  11.251   3.296  0.6112  2.0578  0.1264
  437MOL0     H57678   4.659  11.486   3.292  2.3629 -2.0819  2.0382
  437MOL0     H57679   4.628  11.438   3.461 -1.3972  1.1868  0.8216
  437MOL0     H57680   4.432  11.546   3.267  2.6671  2.2220  0.4121
  437MOL0     H57681   4.389  11.451   3.412 -0.1863 -2.5069 -3.9672
  437MOL0     H57682   4.517  11.819   3.579 -0.1212 -0.3298  1.0124
  437MOL0     H57683   4.278  11.258   2.948  2.6509 -0.1984  0.5634
  437MOL0     H57684   4.151  11.044   2.878  0.6421 -0.3213 -0.3227
  438MOL0     O57685   9.961   7.776   0.772 -0.2790 -0.4758 -0.1265
  438MOL0     C57686  10.007   7.674   0.814 -0.2549  0.3301 -0.8309
  438MOL0     O57687   9.952   7.552   0.792 -0.4867 -0.0373 -0.7275
  438MOL0     C57688   9.862   7.529   0.693  0.6962 -0.2714  0.1644
  438MOL0     C57689   9.864   7.407   0.615 -0.0500 -0.7972  0.2662
  438MOL0     C57690   9.791   7.387   0.502  0.7945 -0.4381  0.6114
  438MOL0     C57691   9.707   7.485   0.452  0.4701  0.3770 -0.1876
  438MOL0     O57692   9.627   7.454   0.343  0.4894 -0.0070  0.4555
  438MOL0     C57693   9.484   7.446   0.385  0.1991  0.1449 -0.0896
  438MOL0     C57694   9.401   7.421   0.254  0.3129  0.1613  0.1539
  438MOL0     C57695   9.262   7.363   0.287 -0.6351 -0.8907 -0.4446
  438MOL0     C57696   9.177   7.472   0.363 -1.3533  0.4185 -0.1431
  438MOL0     C57697   9.045   7.404   0.421  0.2225 -0.5642  0.8755
  438MOL0     C57698   8.949   7.512   0.484 -0.5133 -0.3075 -0.0316
  438MOL0     C57699   8.809   7.443   0.515 -0.6087 -0.5862  0.5970
  438MOL0     C57700   8.824   7.387   0.653  0.2334 -0.0058 -0.2005
  438MOL0     N57701   8.709   7.293   0.671  0.6996 -0.1032 -0.1893
  438MOL0     C57702   8.699   7.159   0.656 -0.6655  0.0697  0.2147
  438MOL0     C57703   8.572   7.127   0.683 -0.5273  0.8481 -0.1485
  438MOL0     C57704   8.503   6.996   0.670 -0.6954  0.7501 -0.0299
  438MOL0     C57705   8.441   6.979   0.537 -0.7716 -1.1101  0.8598
  438MOL0     C57706   8.305   7.051   0.519 -0.9679  0.6901  0.4415
  438MOL0     C57707   8.201   6.986   0.611 -0.3209  0.1638  0.0623
  438MOL0     O57708   8.075   7.057   0.588  0.1772 -0.2988  0.3937
  438MOL0     C57709   7.954   7.013   0.637 -1.3622 -0.4433  0.2784
  438MOL0     C57710   7.885   6.901   0.588  0.2846 -0.1980  0.0164
  438MOL0     C57711   7.752   6.880   0.624  1.2249 -0.5381 -0.0273
  438MOL0     C57712   7.682   6.968   0.715  0.9075  0.6959  1.1007
  438MOL0     C57713   7.537   6.936   0.732 -0.2644 -0.4093 -1.0266
  438MOL0     O57714   7.493   6.809   0.705 -1.3580  0.3293 -0.1117
  438MOL0     C57715   7.365   6.764   0.732  0.4609 -0.9354 -0.2212
  438MOL0     C57716   7.264   6.770   0.628  0.0832 -0.4389  0.2494
  438MOL0     C57717   7.133   6.721   0.660  0.1932 -1.0053 -0.0103
  438MOL0     C57718   7.107   6.658   0.783  0.3346  0.5807 -0.3912
  438MOL0     O57719   6.974   6.620   0.816 -0.7381  0.6042  1.1106
  438MOL0     C57720   6.961   6.514   0.896 -0.0183 -0.3167  0.2802
  438MOL0     C57721   6.823   6.504   0.965  0.0192 -0.9160 -0.2011
  438MOL0     C57722   6.782   6.616   1.066 -0.3693 -0.8033  0.5280
  438MOL0     C57723   6.745   6.751   1.011 -0.1122 -0.5816 -0.1403
  438MOL0     C57724   6.674   6.748   0.868 -0.5195  0.4018 -0.6412
  438MOL0     C57725   6.623   6.886   0.829 -0.5071  0.1716  0.0015
  438MOL0     C57726   6.487   6.910   0.879  0.3732  0.8499 -0.0004
  438MOL0     C57727   6.390   6.841   0.790  0.9257 -0.4376 -0.4384
  438MOL0    Cl57728   6.230   6.924   0.800  0.0402  0.4194 -0.2432
  438MOL0     C57729   7.211   6.655   0.884 -0.1006  0.8917  0.4457
  438MOL0     C57730   7.331   6.717   0.863 -0.8244  0.3931 -0.1395
  438MOL0     O57731   7.465   7.031   0.772  0.5923 -0.7145  0.9929
  438MOL0     C57732   7.748   7.081   0.764 -0.7003  0.5250  0.2410
  438MOL0     C57733   7.889   7.102   0.725 -0.8688 -0.6388  0.1196
  438MOL0     N57734   8.512   7.239   0.731  0.3838 -0.0333  0.1192
  438MOL0     N57735   8.587   7.340   0.729 -0.7617 -0.5515 -0.2540
  438MOL0     C57736   9.686   7.597   0.530  0.3165  0.1210 -0.5873
  438MOL0     C57737   9.756   7.622   0.652  0.0547 -0.5134 -0.6347
  438MOL0     C57738  10.100   7.680   0.921 -0.2643 -0.8089 -0.1076
  438MOL0     C57739  10.173   7.570   0.962 -0.7023  0.3374 -0.6714
  438MOL0     C57740  10.284   7.574   1.048 -0.4081  0.6469  0.4409
  438MOL0     C57741  10.317   7.694   1.109 -0.3419  0.3480  0.2265
  438MOL0     O57742  10.412   7.715   1.203 -0.1271  0.9584  0.4818
  438MOL0     C57743  10.442   7.608   1.296 -0.4414 -0.1558  0.0619
  438MOL0     C57744  10.558   7.664   1.372  0.3714  0.4037 -0.9507
  438MOL0     C57745  10.594   7.556   1.470 -0.5458 -0.5473  0.6446
  438MOL0     C57746  10.670   7.602   1.592 -0.9738  0.9513 -0.6385
  438MOL0     C57747  10.750   7.496   1.649  0.6332 -0.5615 -0.1041
  438MOL0     C57748  10.828   7.420   1.701 -0.0665 -0.1327  0.0805
  438MOL0     C57749  10.235   7.804   1.073 -1.4093 -0.5999 -0.4856
  438MOL0     C57750  10.127   7.801   0.987  0.4371  0.5314  0.6131
  438MOL0     H57751   9.929   7.324   0.640  0.4109 -0.4222  0.3368
  438MOL0     H57752   9.813   7.294   0.451  0.2662  0.1892 -0.8173
  438MOL0     H57753   9.442   7.527   0.445  1.2391  1.2910 -0.8652
  438MOL0     H57754   9.475   7.360   0.452  1.3171 -1.7700 -2.2189
  438MOL0     H57755   9.453   7.345   0.196  2.5937  1.8424 -0.1557
  438MOL0     H57756   9.393   7.515   0.198 -0.9908 -0.0314 -0.0162
  438MOL0     H57757   9.268   7.273   0.347 -0.0361 -1.8684 -1.9085
  438MOL0     H57758   9.214   7.334   0.193  2.0763 -0.6789 -1.9929
  438MOL0     H57759   9.225   7.499   0.458 -0.1780 -0.7464 -0.3632
  438MOL0     H57760   9.158   7.561   0.302  0.3116  0.2268 -1.0140
  438MOL0     H57761   9.079   7.325   0.489  2.8922 -0.6192 -0.3892
  438MOL0     H57762   8.994   7.370   0.331  1.1566  3.8885 -1.6096
  438MOL0     H57763   8.934   7.597   0.416  0.4159  1.3131  1.6603
  438MOL0     H57764   9.004   7.552   0.570 -1.0911  2.7348 -0.9553
  438MOL0     H57765   8.736   7.524   0.517  1.0768  1.1220 -1.7851
  438MOL0     H57766   8.790   7.364   0.443 -1.2188 -0.1192  0.2401
  438MOL0     H57767   8.814   7.462   0.732 -3.5113 -2.7338  2.2324
  438MOL0     H57768   8.920   7.338   0.670  0.3606  1.0893  2.6762
  438MOL0     H57769   8.772   7.088   0.619  0.0947 -0.5174  2.6118
  438MOL0     H57770   8.432   6.975   0.750 -1.0333  0.5255 -0.3841
  438MOL0     H57771   8.580   6.920   0.680  0.3618  1.9885  1.7707
  438MOL0     H57772   8.429   6.871   0.521  1.4595 -1.3261  0.3717
  438MOL0     H57773   8.508   7.019   0.461  0.0430  3.1896  3.4795
  438MOL0     H57774   8.315   7.157   0.543 -1.7766  0.8303  0.1848
  438MOL0     H57775   8.263   7.045   0.418 -0.0637 -2.5160  0.1115
  438MOL0     H57776   8.226   6.982   0.717 -2.2418  0.6709  0.5659
  438MOL0     H57777   8.191   6.880   0.585 -1.6609 -0.1605  1.7379
  438MOL0     H57778   7.940   6.840   0.517  1.4029  1.8470 -0.9940
  438MOL0     H57779   7.696   6.793   0.591 -1.1330  1.1484 -0.7523
  438MOL0     H57780   7.289   6.797   0.526 -0.2900 -1.7076 -0.1980
  438MOL0     H57781   7.056   6.739   0.586  0.7378 -2.6005 -1.0251
  438MOL0     H57782   7.033   6.499   0.978 -2.9443 -1.4763  2.8248
  438MOL0     H57783   6.968   6.429   0.827 -0.1386 -1.2767  1.4084
  438MOL0     H57784   6.827   6.405   1.010 -0.5454 -0.6274  0.5092
  438MOL0     H57785   6.743   6.499   0.890 -2.6855 -1.7580  2.5474
  438MOL0     H57786   6.868   6.618   1.134 -0.6021 -3.3001  0.9913
  438MOL0     H57787   6.697   6.580   1.125 -2.1986  2.2831 -0.0068
  438MOL0     H57788   6.688   6.822   1.071  0.0639 -0.6853  0.1563
  438MOL0     H57789   6.838   6.801   0.982 -1.1501  0.9766 -0.8878
  438MOL0     H57790   6.597   6.671   0.882  1.0356 -1.1609 -0.2317
  438MOL0     H57791   6.742   6.709   0.792 -1.5698  0.6691 -1.7524
  438MOL0     H57792   6.621   6.890   0.720  0.4084 -1.6035 -0.1215
  438MOL0     H57793   6.694   6.963   0.860  0.7427 -0.3792 -1.3853
  438MOL0     H57794   6.486   6.887   0.986 -2.3118  2.0345  0.3131
  438MOL0     H57795   6.485   7.019   0.874 -0.5850  0.9134  1.1003
  438MOL0     H57796   6.381   6.734   0.815  0.5004 -0.1281  0.8228
  438MOL0     H57797   6.419   6.845   0.685  0.3204  0.0443 -0.5947
  438MOL0     H57798   7.203   6.608   0.982  0.9064  1.1311  0.6536
  438MOL0     H57799   7.403   6.728   0.943 -1.7839  2.3057  0.5224
  438MOL0     H57800   7.693   7.144   0.833  0.7698  3.6098 -1.2363
  438MOL0     H57801   7.938   7.188   0.770 -1.5844  0.0330 -0.3408
  438MOL0     H57802   9.612   7.671   0.500  0.7360  2.2030  2.8717
  438MOL0     H57803   9.745   7.716   0.705  1.5185 -0.6473 -0.0354
  438MOL0     H57804  10.151   7.468   0.930 -0.2658  0.7322 -2.3027
  438MOL0     H57805  10.336   7.479   1.059  0.4994  0.6257 -2.9350
  438MOL0     H57806  10.468   7.514   1.247 -2.1124 -1.5943  1.7511
  438MOL0     H57807  10.366   7.594   1.374  2.8101 -2.0179  3.2224
  438MOL0     H57808  10.650   7.684   1.316  0.4791 -0.6828 -1.1982
  438MOL0     H57809  10.527   7.759   1.417 -0.2068 -1.6343  3.5472
  438MOL0     H57810  10.652   7.473   1.428 -3.6695 -2.3571 -0.3825
  438MOL0     H57811  10.507   7.500   1.506 -2.4125 -0.0003 -2.6251
  438MOL0     H57812  10.727   7.689   1.560 -0.5366 -0.1334 -2.9881
  438MOL0     H57813  10.600   7.639   1.668 -0.5042  1.2048 -0.3274
  438MOL0     H57814  10.913   7.363   1.733  2.5838  2.9462 -0.9330
  438MOL0     H57815  10.259   7.900   1.118  1.2031 -0.5460 -1.8250
  438MOL0     H57816  10.064   7.887   0.969 -1.9536 -1.4396 -0.9944
  439MOL0     O57817   8.471  11.122   1.992 -0.5235 -0.4392 -0.1832
  439MOL0     C57818   8.538  11.147   1.895  0.3868  0.9186  0.0526
  439MOL0     O57819   8.578  11.062   1.795 -0.1847 -0.3549 -0.0069
  439MOL0     C57820   8.521  10.944   1.798  2.0897 -0.3730  0.3957
  439MOL0     C57821   8.608  10.835   1.816 -0.3939 -1.2425 -0.5784
  439MOL0     C57822   8.558  10.711   1.810 -0.1375  0.2323  0.1518
  439MOL0     C57823   8.430  10.687   1.773  1.0884 -0.5069  0.2642
  439MOL0     O57824   8.373  10.566   1.781  0.5350 -0.4555 -0.2485
  439MOL0     C57825   8.458  10.451   1.758 -1.0412 -0.2738 -0.4186
  439MOL0     C57826   8.400  10.316   1.754 -0.3682  0.3672  0.6969
  439MOL0     C57827   8.273  10.302   1.663 -0.8124 -0.8254  0.2760
  439MOL0     C57828   8.176  10.187   1.701  0.1436 -0.2637  0.5961
  439MOL0     C57829   8.237  10.053   1.695  1.3227 -0.0100  0.2487
  439MOL0     C57830   8.142   9.935   1.728 -0.2439 -0.4906  0.2140
  439MOL0     C57831   8.232   9.807   1.710 -0.9305  0.2900 -0.3902
  439MOL0     C57832   8.133   9.688   1.704 -1.0036 -0.4318 -0.3857
  439MOL0     N57833   8.184   9.574   1.631 -0.2753 -0.5792  0.7341
  439MOL0     C57834   8.265   9.476   1.672 -0.0619  0.2615 -0.2680
  439MOL0     C57835   8.284   9.409   1.556  0.0394 -0.3700  0.1681
  439MOL0     C57836   8.376   9.293   1.529  0.4018  0.3886 -0.1157
  439MOL0     C57837   8.495   9.355   1.454  0.2527  0.0503  0.0402
  439MOL0     C57838   8.611   9.239   1.451 -0.5381 -0.0790  0.7910
  439MOL0     C57839   8.693   9.270   1.336  0.4095  0.1149  1.2611
  439MOL0     O57840   8.771   9.156   1.295  0.0366 -0.4327 -0.9102
  439MOL0     C57841   8.819   9.161   1.164 -0.3930  0.5638  0.3579
  439MOL0     C57842   8.828   9.269   1.082 -0.6191 -0.1695  0.3225
  439MOL0     C57843   8.869   9.263   0.946  0.6819 -0.9645 -0.2899
  439MOL0     C57844   8.907   9.130   0.901  0.1839  0.1674  1.1042
  439MOL0     C57845   8.958   9.118   0.762  0.7354  0.1245  1.4438
  439MOL0     O57846   9.033   9.018   0.734 -0.4298 -0.0808  0.1427
  439MOL0     C57847   9.104   8.999   0.614 -0.0558 -0.2214  0.3858
  439MOL0     C57848   9.235   9.034   0.606 -1.0029  0.0120  0.8322
  439MOL0     C57849   9.309   9.023   0.483 -0.6384 -0.6156  0.0045
  439MOL0     C57850   9.242   8.979   0.365  0.0605  0.0455 -0.0947
  439MOL0     O57851   9.322   8.974   0.250  1.1117 -0.1732  0.3203
  439MOL0     C57852   9.265   8.910   0.137 -0.6836  0.5169 -0.4558
  439MOL0     C57853   9.367   8.912   0.024  0.4877  0.1495 -0.3006
  439MOL0     C57854   9.482   8.817   0.014 -0.0669  0.4035  1.9809
  439MOL0     C57855   9.568   8.861  -0.116  0.4847  0.6287 -0.2222
  439MOL0     C57856   9.688   8.764  -0.150  0.0055  0.0017 -0.2126
  439MOL0     C57857   9.810   8.771  -0.045 -0.7895  0.3657  0.1282
  439MOL0     C57858   9.910   8.659  -0.082  0.6969  1.0217 -0.2000
  439MOL0     C57859  10.052   8.703  -0.040 -1.2109  1.0094  0.7171
  439MOL0    Cl57860  10.114   8.865  -0.107  0.3301 -0.1381 -0.5198
  439MOL0     C57861   9.100   8.946   0.372  0.7305 -1.6057 -0.3861
  439MOL0     C57862   9.037   8.951   0.505  0.3269 -0.7626 -0.2067
  439MOL0     O57863   8.944   9.215   0.681  0.5941 -0.7958 -0.1055
  439MOL0     C57864   8.890   9.022   0.979 -0.0818  0.0589 -0.1622
  439MOL0     C57865   8.843   9.036   1.110 -0.0414 -0.2331  0.2471
  439MOL0     N57866   8.204   9.466   1.456  0.0756 -0.2330 -0.2482
  439MOL0     N57867   8.150   9.568   1.500  0.1306 -1.0357 -0.2968
  439MOL0     C57868   8.341  10.790   1.757 -0.1795 -0.0162  0.0357
  439MOL0     C57869   8.386  10.922   1.760  0.8158 -1.2974 -0.8739
  439MOL0     C57870   8.554  11.294   1.872  0.6211  0.4707 -0.3248
  439MOL0     C57871   8.520  11.395   1.958 -0.2988  0.8677 -1.0134
  439MOL0     C57872   8.540  11.533   1.935 -0.2909 -0.4713 -0.4087
  439MOL0     C57873   8.603  11.573   1.823 -1.3833 -0.3617  0.1540
  439MOL0     O57874   8.627  11.698   1.773 -0.8331  0.2475 -0.5911
  439MOL0     C57875   8.607  11.817   1.848  0.2770  0.0399 -0.6976
  439MOL0     C57876   8.451  11.864   1.836 -0.3067  0.1526 -0.5815
  439MOL0     C57877   8.424  11.979   1.934  0.5488 -0.1679  0.3186
  439MOL0     C57878   8.512  12.107   1.897  0.1497 -0.1256 -0.2434
  439MOL0     C57879   8.493  12.149   1.760  0.3452  0.2086 -0.7044
  439MOL0     C57880   8.471  12.190   1.650  0.1063 -0.7013  0.2121
  439MOL0     C57881   8.639  11.480   1.732  0.3228  0.5406  0.2213
  439MOL0     C57882   8.611  11.343   1.749  0.3797  0.6418  0.0237
  439MOL0     H57883   8.714  10.850   1.836 -0.5678 -1.8950  1.0251
  439MOL0     H57884   8.638  10.639   1.821 -0.4296  0.2757  3.7676
  439MOL0     H57885   8.539  10.447   1.831  0.1938  1.2460 -1.6222
  439MOL0     H57886   8.503  10.468   1.659  0.7267 -0.1145  0.3751
  439MOL0     H57887   8.372  10.306   1.859  0.4903 -0.3724  0.8617
  439MOL0     H57888   8.471  10.245   1.711 -2.3429 -0.5551 -1.2481
  439MOL0     H57889   8.309  10.287   1.561 -0.1349  1.1194  0.1703
  439MOL0     H57890   8.213  10.394   1.660 -0.0213 -0.2915  0.3510
  439MOL0     H57891   8.150  10.207   1.805 -0.5415 -0.9542  0.5668
  439MOL0     H57892   8.084  10.194   1.642  1.2009  3.2279 -0.9126
  439MOL0     H57893   8.305  10.056   1.781 -1.4093  0.0990  2.5547
  439MOL0     H57894   8.293  10.051   1.602 -1.5943  6.1092 -2.1673
  439MOL0     H57895   8.061   9.919   1.656  0.3004 -0.7412 -0.3546
  439MOL0     H57896   8.098   9.926   1.827 -0.7818  0.9095  0.1136
  439MOL0     H57897   8.292   9.811   1.619  0.0125 -2.0000  0.0586
  439MOL0     H57898   8.291   9.780   1.799 -2.5794  0.2620  0.7393
  439MOL0     H57899   8.038   9.718   1.659 -0.9358 -0.4215 -0.5259
  439MOL0     H57900   8.130   9.642   1.803  3.4131 -2.3274 -0.9049
  439MOL0     H57901   8.319   9.457   1.764  2.3015 -1.0116 -1.8138
  439MOL0     H57902   8.330   9.222   1.460 -1.1272  2.0142 -0.8556
  439MOL0     H57903   8.405   9.257   1.628 -3.5735  2.1109  1.9081
  439MOL0     H57904   8.557   9.438   1.489  1.6503 -1.0920  0.3751
  439MOL0     H57905   8.455   9.390   1.358  1.0176 -0.3616 -0.4488
  439MOL0     H57906   8.678   9.252   1.535 -1.5275  2.1216  1.3139
  439MOL0     H57907   8.569   9.138   1.451 -1.7739  0.4085  0.1278
  439MOL0     H57908   8.771   9.344   1.358 -0.2696  1.6938 -1.2726
  439MOL0     H57909   8.626   9.299   1.255 -0.2699 -2.6448  0.7301
  439MOL0     H57910   8.788   9.367   1.104 -1.7942 -1.0918  2.5430
  439MOL0     H57911   8.861   9.352   0.884  0.4824 -1.1320 -0.5059
  439MOL0     H57912   9.296   9.078   0.684  5.5343  2.9927 -4.8866
  439MOL0     H57913   9.409   9.061   0.471 -1.5451  2.2852  0.8419
  439MOL0     H57914   9.177   8.972   0.114 -1.0898  0.9013  1.9248
  439MOL0     H57915   9.245   8.805   0.161  1.7213  0.8699  4.1581
  439MOL0     H57916   9.410   9.011   0.008 -2.2797  1.9893  2.4824
  439MOL0     H57917   9.302   8.900  -0.064  1.0046 -0.1873 -0.6454
  439MOL0     H57918   9.455   8.711   0.009 -1.2978  0.7374 -0.3907
  439MOL0     H57919   9.552   8.822   0.098  2.5737  0.2421 -0.0743
  439MOL0     H57920   9.497   8.845  -0.197  2.9886  0.1749 -2.4771
  439MOL0     H57921   9.603   8.964  -0.115  3.0358 -0.0923  3.1419
  439MOL0     H57922   9.729   8.789  -0.249  1.5506 -0.6687  0.2343
  439MOL0     H57923   9.647   8.663  -0.140 -1.3479  0.5570  0.1563
  439MOL0     H57924   9.763   8.758   0.054 -0.8188  4.8287  0.8890
  439MOL0     H57925   9.839   8.875  -0.034 -4.2131  1.4290  0.3246
  439MOL0     H57926   9.874   8.569  -0.032  0.1683  2.6101  2.4553
  439MOL0     H57927   9.914   8.647  -0.191  2.1190  0.5901 -0.1107
  439MOL0     H57928  10.122   8.620  -0.053 -0.5765  1.2485  2.3651
  439MOL0     H57929  10.058   8.707   0.070 -0.8477 -0.1854  0.7590
  439MOL0     H57930   9.051   8.914   0.281  1.0494  0.2799 -1.2540
  439MOL0     H57931   8.933   8.921   0.516 -0.3948  0.8846 -1.9390
  439MOL0     H57932   8.913   8.925   0.936  1.0157  0.6436 -0.9384
  439MOL0     H57933   8.820   8.943   1.161  1.6291 -2.1413 -2.2526
  439MOL0     H57934   8.240  10.775   1.723 -1.8559  2.0825  3.4782
  439MOL0     H57935   8.313  11.000   1.741  1.3700 -0.1171  1.5291
  439MOL0     H57936   8.459  11.373   2.045  1.0402  0.9144 -0.0126
  439MOL0     H57937   8.514  11.609   2.008 -1.3995 -3.1536  2.1772
  439MOL0     H57938   8.674  11.892   1.806  1.4540  0.1027  1.2014
  439MOL0     H57939   8.650  11.799   1.947  0.3062  3.5335  0.0383
  439MOL0     H57940   8.440  11.907   1.736 -1.1859  3.3663  0.7717
  439MOL0     H57941   8.377  11.786   1.856 -0.0443  0.2616  0.9676
  439MOL0     H57942   8.455  11.941   2.032  1.4353  0.8448  0.4447
  439MOL0     H57943   8.318  12.002   1.950 -0.0939 -3.6700  2.1879
  439MOL0     H57944   8.486  12.194   1.957  0.2555 -0.4874  0.3315
  439MOL0     H57945   8.619  12.096   1.913  0.3755  1.3359 -0.6459
  439MOL0     H57946   8.446  12.216   1.549  1.5717 -0.5204 -0.1353
  439MOL0     H57947   8.689  11.512   1.641 -2.1312 -0.5785 -1.6354
  439MOL0     H57948   8.636  11.274   1.669 -4.5050  0.9922 -2.1849
  440MOL0     O57949   8.277   0.326   4.519  0.0545 -0.1081 -0.1571
  440MOL0     C57950   8.227   0.274   4.426 -0.0370  0.2065 -0.0998
  440MOL0     O57951   8.187   0.144   4.413  0.4344  0.2763  0.2760
  440MOL0     C57952   8.170   0.086   4.537 -0.5570 -0.4972 -0.7063
  440MOL0     C57953   8.277   0.043   4.607  0.1979  0.2547 -0.3052
  440MOL0     C57954   8.257   0.003   4.741  0.3409  1.6295 -0.7216
  440MOL0     C57955   8.126  -0.000   4.796 -0.2927 -0.1391 -0.9729
  440MOL0     O57956   8.101  -0.014   4.932 -0.1103  1.1848 -0.3017
  440MOL0     C57957   7.981   0.002   4.992 -0.7375  0.4684 -0.6507
  440MOL0     C57958   7.945   0.138   5.068  0.6926  0.1488 -0.4254
  440MOL0     C57959   8.064   0.183   5.148  0.5775 -0.5716 -0.3548
  440MOL0     C57960   8.023   0.272   5.268 -0.9585 -0.4400 -0.1826
  440MOL0     C57961   8.125   0.274   5.395  0.8890 -0.2221 -0.4990
  440MOL0     C57962   8.266   0.318   5.362  0.0499 -0.0619 -0.1369
  440MOL0     C57963   8.361   0.265   5.473 -0.1226 -0.4536  0.7314
  440MOL0     C57964   8.503   0.297   5.435 -0.3958 -0.8288  0.0415
  440MOL0     N57965   8.596   0.259   5.546  0.5911 -0.9032  0.0258
  440MOL0     C57966   8.654   0.135   5.563  0.6143 -1.3805 -0.6957
  440MOL0     C57967   8.751   0.159   5.657  0.8288  0.6125  0.8340
  440MOL0     C57968   8.836   0.058   5.722 -0.4270  0.2912 -0.5231
  440MOL0     C57969   8.948   0.128   5.811 -0.4852 -0.4358  0.9199
  440MOL0     C57970   8.884   0.168   5.944  0.4418 -0.2092 -0.2336
  440MOL0     C57971   8.973   0.246   6.040 -0.1618 -0.1948 -1.0821
  440MOL0     O57972   9.106   0.206   6.008  0.2491  0.4535 -0.3461
  440MOL0     C57973   9.214   0.263   6.067  0.2030 -0.0209 -0.4854
  440MOL0     C57974   9.213   0.350   6.176 -0.4581  0.4255  0.5645
  440MOL0     C57975   9.332   0.403   6.232 -0.1235  0.2096  1.0906
  440MOL0     C57976   9.456   0.373   6.171 -0.0579  0.1134  0.7801
  440MOL0     C57977   9.583   0.425   6.223 -0.9592  0.2411 -0.3795
  440MOL0     O57978   9.690   0.422   6.147  0.5345  0.2036 -0.6896
  440MOL0     C57979   9.782   0.523   6.156 -0.4059  0.5287 -0.6834
  440MOL0     C57980   9.909   0.478   6.165  0.6071  0.1833  0.0890
  440MOL0     C57981  10.020   0.560   6.139  0.6179 -0.2050 -1.0806
  440MOL0     C57982  10.005   0.698   6.121  0.1165 -0.1031  0.3314
  440MOL0     O57983  10.120   0.779   6.107 -0.4231 -0.1596  0.0891
  440MOL0     C57984  10.102   0.915   6.114  0.7808 -0.9760  0.1743
  440MOL0     C57985  10.242   0.984   6.100 -0.4766 -0.2889 -0.7267
  440MOL0     C57986  10.228   1.143   6.106 -0.3885  0.6209 -0.1445
  440MOL0     C57987  10.356   1.226   6.076 -0.5044 -0.6672  0.8629
  440MOL0     C57988  10.439   1.172   5.958  0.5530 -0.3285 -0.1281
  440MOL0     C57989  10.555   1.252   5.906  0.1906  0.3547 -0.1632
  440MOL0     C57990  10.526   1.324   5.775  0.1618 -0.2118 -0.2512
  440MOL0     C57991  10.647   1.379   5.704 -0.0914  0.0446  0.5072
  440MOL0    Cl57992  10.583   1.443   5.547 -0.2600 -0.3865 -0.6480
  440MOL0     C57993   9.867   0.750   6.130 -1.3566  0.2194  0.3211
  440MOL0     C57994   9.762   0.660   6.145 -0.4816  1.0132 -0.2280
  440MOL0     O57995   9.575   0.489   6.327 -0.4026  0.1298 -0.2633
  440MOL0     C57996   9.460   0.288   6.053 -0.4354 -0.8669 -0.2626
  440MOL0     C57997   9.343   0.237   6.011  0.3279 -0.8354  0.2168
  440MOL0     N57998   8.750   0.297   5.685 -0.8430 -0.4132 -0.3875
  440MOL0     N57999   8.661   0.353   5.618  0.1831  0.2944 -0.5965
  440MOL0     C58000   8.022   0.031   4.711  0.4091 -0.4286 -0.1964
  440MOL0     C58001   8.042   0.066   4.584  0.5266 -0.9411 -0.2996
  440MOL0     C58002   8.230   0.354   4.297 -0.8030 -0.3895  0.2353
  440MOL0     C58003   8.310   0.464   4.272  0.0519 -0.3336  0.6895
  440MOL0     C58004   8.297   0.555   4.166 -0.0379  1.4512 -0.2912
  440MOL0     C58005   8.199   0.524   4.075  0.5577 -0.0183  0.5344
  440MOL0     O58006   8.186   0.600   3.962 -0.5290 -0.6715  0.4028
  440MOL0     C58007   8.295   0.657   3.886  0.0710  0.5339 -0.2501
  440MOL0     C58008   8.241   0.699   3.744  0.2638 -0.4788 -0.3384
  440MOL0     C58009   8.154   0.827   3.754 -0.1822 -0.0635 -0.4557
  440MOL0     C58010   8.219   0.948   3.671  0.8361  0.0398 -0.1602
  440MOL0     C58011   8.134   1.069   3.677  0.8680  0.5247  0.7778
  440MOL0     C58012   8.074   1.173   3.674 -0.9271  0.3586 -0.3511
  440MOL0     C58013   8.111   0.413   4.091  0.2480 -0.6388 -0.2212
  440MOL0     C58014   8.125   0.344   4.209  0.6604 -0.5976  0.2530
  440MOL0     H58015   8.374   0.066   4.565  0.3525  1.2181  0.5526
  440MOL0     H58016   8.348   0.006   4.801  1.0336 -1.7126 -1.4282
  440MOL0     H58017   7.985  -0.074   5.071  2.7887 -0.2382 -1.3624
  440MOL0     H58018   7.896  -0.024   4.929  0.5755 -1.8014 -1.5828
  440MOL0     H58019   7.856   0.130   5.131  2.9555 -1.1720  2.8606
  440MOL0     H58020   7.921   0.213   4.992  1.3234  3.4179  2.3083
  440MOL0     H58021   8.142   0.233   5.091  2.2377 -1.8868  0.6398
  440MOL0     H58022   8.121   0.095   5.180 -1.8438 -0.9290  3.7759
  440MOL0     H58023   8.001   0.370   5.225  1.1961  0.2320  0.1300
  440MOL0     H58024   7.929   0.237   5.313  0.0238 -0.7224  1.7880
  440MOL0     H58025   8.117   0.172   5.433 -0.0789 -0.5033 -1.4149
  440MOL0     H58026   8.085   0.339   5.474 -3.8927 -3.0173 -0.2073
  440MOL0     H58027   8.244   0.423   5.345 -1.4135 -0.6561 -2.3543
  440MOL0     H58028   8.305   0.280   5.267  0.5531 -0.0345  0.0605
  440MOL0     H58029   8.329   0.305   5.569 -1.2931 -0.4589  0.3611
  440MOL0     H58030   8.346   0.157   5.478 -0.1483 -0.7369 -2.6505
  440MOL0     H58031   8.526   0.397   5.398  0.7241 -0.6769  1.0976
  440MOL0     H58032   8.534   0.218   5.366 -0.2102 -2.4451  1.8962
  440MOL0     H58033   8.624   0.041   5.518 -1.8387 -1.5384  1.0999
  440MOL0     H58034   8.891  -0.004   5.651  1.6899 -1.0251  2.0863
  440MOL0     H58035   8.781  -0.015   5.782  1.4367  1.0750  2.4053
  440MOL0     H58036   8.988   0.221   5.770 -1.8826  0.4154  1.4058
  440MOL0     H58037   9.039   0.067   5.817  1.6949  2.4896 -0.3500
  440MOL0     H58038   8.784   0.201   5.915 -0.6364 -2.0533  1.1643
  440MOL0     H58039   8.857   0.075   5.994 -0.5825 -0.7411 -1.7155
  440MOL0     H58040   8.949   0.219   6.143  4.2273  0.2295  0.2200
  440MOL0     H58041   8.950   0.353   6.032  1.1221  0.2224  0.4661
  440MOL0     H58042   9.119   0.371   6.227  0.4753 -1.2011  3.1372
  440MOL0     H58043   9.330   0.470   6.317  0.5399  1.9011 -0.1610
  440MOL0     H58044   9.926   0.372   6.186 -2.3272 -0.1634  1.2543
  440MOL0     H58045  10.122   0.523   6.132  0.7661 -0.0635  0.1825
  440MOL0     H58046  10.059   0.941   6.211 -2.3393 -0.8109 -1.1334
  440MOL0     H58047  10.029   0.949   6.040 -0.3870  0.9568  2.1109
  440MOL0     H58048  10.279   0.961   5.999 -0.3679  0.9884 -0.9990
  440MOL0     H58049  10.306   0.952   6.182 -1.3168  1.4681  0.6816
  440MOL0     H58050  10.195   1.166   6.208  1.6306 -0.7698  0.8962
  440MOL0     H58051  10.149   1.168   6.036  1.8537  1.8441 -2.3943
  440MOL0     H58052  10.320   1.323   6.041 -1.2338 -1.1020  0.4010
  440MOL0     H58053  10.431   1.230   6.156 -1.6099  3.0858  1.9297
  440MOL0     H58054  10.362   1.164   5.880 -0.9170  2.6989  0.8526
  440MOL0     H58055  10.472   1.070   5.980  2.8901  0.3131 -0.4394
  440MOL0     H58056  10.630   1.178   5.876 -0.8403 -1.3020  1.1892
  440MOL0     H58057  10.594   1.320   5.982 -1.9893  0.6160  0.7885
  440MOL0     H58058  10.467   1.254   5.716 -2.5264 -0.1396  2.1653
  440MOL0     H58059  10.454   1.404   5.796 -1.4792 -1.8303  0.5880
  440MOL0     H58060  10.716   1.297   5.687  2.1738  1.7546  1.0294
  440MOL0     H58061  10.695   1.458   5.763  0.5523 -0.2786  0.4192
  440MOL0     H58062   9.842   0.855   6.137  0.7167  0.7541  0.4817
  440MOL0     H58063   9.659   0.690   6.165 -1.8047 -3.9771  2.0792
  440MOL0     H58064   9.558   0.262   6.016 -1.7753 -2.1294 -3.1849
  440MOL0     H58065   9.356   0.154   5.943  0.0683 -0.6146 -0.1090
  440MOL0     H58066   7.921   0.032   4.749 -0.0857  2.0312 -1.3996
  440MOL0     H58067   7.953   0.096   4.530  1.2683 -0.2806 -1.1877
  440MOL0     H58068   8.375   0.500   4.351 -0.1976  1.0712  0.2959
  440MOL0     H58069   8.364   0.640   4.158  0.0819  1.4689  0.7787
  440MOL0     H58070   8.378   0.589   3.867  1.3722  2.4570 -1.8474
  440MOL0     H58071   8.341   0.739   3.943  0.1178 -0.7005  1.5721
  440MOL0     H58072   8.323   0.711   3.673  0.0276 -1.8203 -0.8554
  440MOL0     H58073   8.188   0.609   3.713  1.0605 -0.6740 -1.1803
  440MOL0     H58074   8.132   0.860   3.856 -0.5797  0.6268 -0.7565
  440MOL0     H58075   8.060   0.810   3.700 -0.2998 -0.1438 -0.2284
  440MOL0     H58076   8.304   0.980   3.732  0.1668  0.1942  0.7109
  440MOL0     H58077   8.245   0.915   3.570 -1.1284 -3.8666  0.4234
  440MOL0     H58078   8.029   1.268   3.656 -2.2869  0.1528  1.6668
  440MOL0     H58079   8.023   0.395   4.030 -0.2373  0.8951 -0.0023
  440MOL0     H58080   8.055   0.263   4.230  1.3993 -0.9942  1.2116
  441MOL0     O58081   1.105   4.990   8.264 -0.7371 -0.4964  0.2205
  441MOL0     C58082   1.016   4.908   8.273  0.4460 -0.4842 -0.6829
  441MOL0     O58083   1.028   4.788   8.342  0.0852  0.2216  0.3699
  441MOL0     C58084   1.155   4.770   8.381 -0.6243  0.1454 -0.6565
  441MOL0     C58085   1.244   4.731   8.280  0.2628  0.5610 -0.1289
  441MOL0     C58086   1.376   4.704   8.306 -0.2557  0.0048 -0.4500
  441MOL0     C58087   1.421   4.700   8.441 -0.1962  0.6347  0.3967
  441MOL0     O58088   1.554   4.674   8.465  0.7444 -0.1995 -0.0749
  441MOL0     C58089   1.631   4.783   8.502 -0.3514  0.0214  0.8965
  441MOL0     C58090   1.783   4.750   8.495  0.5472  0.3111 -0.2441
  441MOL0     C58091   1.823   4.738   8.352  1.5294  0.2625  0.4275
  441MOL0     C58092   1.858   4.873   8.281  0.2702  0.5426 -0.2588
  441MOL0     C58093   1.992   4.932   8.333 -0.5294 -1.0548 -0.1496
  441MOL0     C58094   2.115   4.865   8.262  0.6725  0.5596 -0.4548
  441MOL0     C58095   2.243   4.938   8.278 -0.2587 -0.4715  0.0780
  441MOL0     C58096   2.284   4.962   8.418  0.7223  0.6021 -1.3843
  441MOL0     N58097   2.305   4.835   8.500 -0.9423 -0.4493 -0.0599
  441MOL0     C58098   2.219   4.739   8.552  0.7524  0.4506 -1.3647
  441MOL0     C58099   2.295   4.645   8.612  0.0788  0.3006 -0.2959
  441MOL0     C58100   2.254   4.521   8.680 -0.2639 -0.9918 -0.0866
  441MOL0     C58101   2.224   4.414   8.576  0.2570  0.1668 -0.1229
  441MOL0     C58102   2.167   4.287   8.631 -0.3430 -0.1470  0.1883
  441MOL0     C58103   2.280   4.197   8.694  0.0971 -0.4826 -0.2095
  441MOL0     O58104   2.229   4.082   8.762  0.1824  0.3666 -0.0973
  441MOL0     C58105   2.256   3.952   8.731  0.4510  0.0373  0.5187
  441MOL0     C58106   2.179   3.866   8.802  0.2627 -0.1394 -0.2315
  441MOL0     C58107   2.190   3.724   8.777 -0.0982  0.3910  0.9185
  441MOL0     C58108   2.289   3.668   8.688  0.5854  0.8635  0.3473
  441MOL0     C58109   2.299   3.516   8.668  1.1395 -0.1443 -0.3318
  441MOL0     O58110   2.386   3.473   8.578  0.3198 -1.2617  0.0477
  441MOL0     C58111   2.365   3.344   8.538 -1.7673 -0.5368 -0.3367
  441MOL0     C58112   2.344   3.330   8.402 -0.2164 -0.5379 -0.2219
  441MOL0     C58113   2.323   3.205   8.343 -0.5213 -0.4023  0.0977
  441MOL0     C58114   2.332   3.089   8.426 -1.1812 -0.5309 -0.6589
  441MOL0     O58115   2.325   2.962   8.383 -0.3337 -0.1145 -0.3435
  441MOL0     C58116   2.354   2.934   8.244  0.7577  0.2512 -0.7095
  441MOL0     C58117   2.236   2.933   8.155  0.3457  0.4429 -0.1551
  441MOL0     C58118   2.267   2.887   8.004  0.1615  0.6431 -0.4700
  441MOL0     C58119   2.318   2.745   8.003 -1.4678  0.0053  0.2769
  441MOL0     C58120   2.282   2.676   7.869  0.2201 -0.3067  0.2597
  441MOL0     C58121   2.324   2.529   7.859  0.2590  0.2946  0.2911
  441MOL0     C58122   2.340   2.484   7.710  0.2565  0.0955  0.7896
  441MOL0     C58123   2.216   2.497   7.621  0.2777  0.0195  0.4861
  441MOL0    Cl58124   2.084   2.427   7.720 -0.0635 -0.0736 -0.5579
  441MOL0     C58125   2.367   3.101   8.558  0.3650  0.1552 -1.1857
  441MOL0     C58126   2.372   3.223   8.611 -0.5894 -0.3497  0.2955
  441MOL0     O58127   2.207   3.448   8.725 -0.4291 -0.8992 -0.2505
  441MOL0     C58128   2.378   3.756   8.620  0.4214  0.3178 -0.4632
  441MOL0     C58129   2.354   3.899   8.641  0.4715  0.5092 -0.0761
  441MOL0     N58130   2.428   4.679   8.591  0.7143 -0.6171  0.0329
  441MOL0     N58131   2.433   4.789   8.521  1.1483  0.1060 -0.1840
  441MOL0     C58132   1.329   4.732   8.544  0.2435  0.7740 -0.6667
  441MOL0     C58133   1.197   4.771   8.512 -0.1987  0.5555 -0.1611
  441MOL0     C58134   0.894   4.931   8.204 -0.6375 -0.4168 -0.2241
  441MOL0     C58135   0.836   5.059   8.211 -0.9577 -0.8646 -0.1918
  441MOL0     C58136   0.726   5.078   8.122  1.4404 -0.4579  0.4044
  441MOL0     C58137   0.679   4.984   8.033  0.9037 -0.2304 -0.0536
  441MOL0     O58138   0.579   4.993   7.939 -0.7386 -0.4107 -0.6417
  441MOL0     C58139   0.484   5.101   7.946  0.3655 -0.9658  0.3859
  441MOL0     C58140   0.380   5.085   7.835  0.0328 -0.1503 -0.8392
  441MOL0     C58141   0.288   4.957   7.843  0.2604  0.1474 -0.3028
  441MOL0     C58142   0.221   4.927   7.976 -0.7467 -0.4734  0.1239
  441MOL0     C58143   0.112   5.029   8.003  0.9217  0.9611 -0.5736
  441MOL0     C58144   0.015   5.101   8.036 -0.3155 -1.0169  0.0115
  441MOL0     C58145   0.736   4.858   8.036 -0.1024  0.5958  0.3089
  441MOL0     C58146   0.845   4.824   8.120  0.4089 -0.5462 -0.3681
  441MOL0     H58147   1.202   4.720   8.181 -2.6133 -0.1970  1.0751
  441MOL0     H58148   1.453   4.690   8.231  1.4549 -1.5503  1.4738
  441MOL0     H58149   1.616   4.813   8.606  0.4473 -1.7350  1.5509
  441MOL0     H58150   1.597   4.864   8.437  1.6909 -2.0432 -3.1207
  441MOL0     H58151   1.797   4.647   8.530  4.3629 -2.0945 -6.8842
  441MOL0     H58152   1.842   4.832   8.535  1.0611 -0.0734 -0.2107
  441MOL0     H58153   1.744   4.684   8.297  4.8015 -2.7133 -1.8294
  441MOL0     H58154   1.904   4.665   8.347 -1.7259 -3.8535  1.7112
  441MOL0     H58155   1.864   4.858   8.173  0.6989 -0.3094 -0.1231
  441MOL0     H58156   1.788   4.954   8.304 -0.4832  0.0965 -0.9511
  441MOL0     H58157   2.005   4.933   8.442 -1.9184  0.8391  0.0517
  441MOL0     H58158   1.992   5.036   8.300 -0.9831 -0.6779  0.9852
  441MOL0     H58159   2.093   4.847   8.156 -1.8798 -0.4805  0.1804
  441MOL0     H58160   2.129   4.762   8.296 -0.2139 -0.0343 -1.7838
  441MOL0     H58161   2.319   4.875   8.231 -1.1805 -0.6479 -1.2162
  441MOL0     H58162   2.242   5.031   8.221  0.2998 -1.6369 -1.9136
  441MOL0     H58163   2.216   5.028   8.473 -0.4125 -1.7672  0.2073
  441MOL0     H58164   2.381   5.011   8.401  0.3387  1.8540 -0.0942
  441MOL0     H58165   2.111   4.743   8.542  0.8913  1.0392 -2.8551
  441MOL0     H58166   2.164   4.530   8.740 -0.9225  1.8144 -1.3261
  441MOL0     H58167   2.332   4.472   8.740 -1.0104 -1.3683  0.5976
  441MOL0     H58168   2.313   4.408   8.513  0.4738  2.3218 -0.0741
  441MOL0     H58169   2.148   4.460   8.511  1.0307  1.1154 -0.3768
  441MOL0     H58170   2.096   4.316   8.709 -1.3793  0.7432 -1.0489
  441MOL0     H58171   2.105   4.224   8.567 -2.6884 -0.7914  2.9015
  441MOL0     H58172   2.329   4.261   8.768  1.5157  0.0095 -1.5129
  441MOL0     H58173   2.354   4.169   8.619  0.6483  0.1643  0.0841
  441MOL0     H58174   2.104   3.906   8.870  2.5520  0.6871  1.9303
  441MOL0     H58175   2.110   3.659   8.813 -2.7366  1.2177 -2.8203
  441MOL0     H58176   2.338   3.425   8.350 -0.6343 -1.0857 -1.1909
  441MOL0     H58177   2.307   3.210   8.235  1.8786 -1.5694 -0.3693
  441MOL0     H58178   2.390   2.832   8.252  0.2387  0.0545 -0.8212
  441MOL0     H58179   2.437   2.998   8.214  0.8772  0.8782  0.8312
  441MOL0     H58180   2.187   3.031   8.161  0.0990  0.2547  1.2526
  441MOL0     H58181   2.157   2.870   8.195 -0.3875  0.9680 -0.7619
  441MOL0     H58182   2.353   2.946   7.970  1.6330  0.3888  2.4376
  441MOL0     H58183   2.178   2.895   7.942 -1.1998  0.2236  1.3252
  441MOL0     H58184   2.426   2.747   8.019 -1.2138  0.1903 -1.3461
  441MOL0     H58185   2.265   2.689   8.081 -0.1853  0.5077  1.5608
  441MOL0     H58186   2.343   2.723   7.792  0.0952 -0.2858  0.1730
  441MOL0     H58187   2.182   2.702   7.834  0.8315  3.0103  0.6921
  441MOL0     H58188   2.255   2.469   7.919 -1.4036  2.5252  0.7481
  441MOL0     H58189   2.425   2.534   7.901 -1.2290  2.1008  4.0492
  441MOL0     H58190   2.426   2.533   7.664 -0.8068 -0.2624 -1.7342
  441MOL0     H58191   2.364   2.377   7.712  0.3896  0.0870 -0.3858
  441MOL0     H58192   2.220   2.457   7.519 -1.7295  2.0560 -0.4968
  441MOL0     H58193   2.205   2.603   7.596 -1.2445  0.1849  1.7460
  441MOL0     H58194   2.378   3.015   8.624 -1.7366  2.2248  2.2289
  441MOL0     H58195   2.389   3.228   8.718 -2.6707  0.1411  0.6447
  441MOL0     H58196   2.455   3.720   8.552 -1.9213 -2.9100 -1.6472
  441MOL0     H58197   2.403   3.967   8.571 -2.0284  2.7597  0.1918
  441MOL0     H58198   1.352   4.739   8.650  3.7973  0.4995 -1.3027
  441MOL0     H58199   1.125   4.807   8.585  1.7568  1.8545  1.2325
  441MOL0     H58200   0.862   5.142   8.275 -0.3911 -0.4674 -0.9233
  441MOL0     H58201   0.678   5.175   8.124  0.0076 -1.1089 -0.5700
  441MOL0     H58202   0.539   5.196   7.947 -0.8033 -0.2328 -1.0563
  441MOL0     H58203   0.427   5.111   8.039 -0.5481  3.7967 -0.4137
  441MOL0     H58204   0.323   5.176   7.855  1.5228  0.6492 -0.0687
  441MOL0     H58205   0.428   5.086   7.736  1.2377 -0.1763 -0.2745
  441MOL0     H58206   0.345   4.866   7.824  1.6219  0.3095  2.4719
  441MOL0     H58207   0.220   4.954   7.757  0.3238 -0.1095 -0.3444
  441MOL0     H58208   0.168   4.835   7.952  2.1577 -1.3363 -3.8981
  441MOL0     H58209   0.290   4.917   8.060  0.2739  0.2153 -0.6045
  441MOL0     H58210  -0.072   5.161   8.059 -1.1385 -2.2671  0.2720
  441MOL0     H58211   0.714   4.791   7.954  2.4702  0.9971 -0.8261
  441MOL0     H58212   0.891   4.726   8.115 -0.2589 -0.8210 -1.4347
  442MOL0     O58213   1.022   2.669  10.014 -0.3335 -0.1850  0.1383
  442MOL0     C58214   0.913   2.617  10.023  0.0264 -0.3508 -1.0316
  442MOL0     O58215   0.800   2.679  10.067 -0.2493  0.0650  0.5857
  442MOL0     C58216   0.803   2.805  10.111 -0.5903  0.0783  0.2570
  442MOL0     C58217   0.828   2.910  10.023 -0.1743  0.6308 -0.1118
  442MOL0     C58218   0.832   3.043  10.068 -0.7816  0.3562  0.2876
  442MOL0     C58219   0.809   3.076  10.208  0.1390  0.2087 -1.0390
  442MOL0     O58220   0.815   3.195  10.273  0.0851 -0.2688 -0.2974
  442MOL0     C58221   0.884   3.309  10.217 -0.4764  0.8198  0.6561
  442MOL0     C58222   1.044   3.294  10.233  0.8965 -0.2465 -0.3032
  442MOL0     C58223   1.103   3.288  10.377 -0.0800 -0.6529  0.9077
  442MOL0     C58224   1.048   3.180  10.460 -0.6767  0.1617  0.4457
  442MOL0     C58225   1.111   3.196  10.603 -0.2605  0.8121  0.0779
  442MOL0     C58226   1.100   3.060  10.688  0.1900  0.7249 -0.8116
  442MOL0     C58227   1.175   3.072  10.821  0.0271  0.2675  0.4754
  442MOL0     C58228   1.090   3.066  10.951  0.2472  0.1415  0.4363
  442MOL0     N58229   1.010   3.191  10.970 -0.1115 -0.2119 -0.2097
  442MOL0     C58230   1.064   3.305  11.017 -0.0612  0.5616  0.0532
  442MOL0     C58231   0.961   3.391  11.038  0.5024  1.3139  0.1376
  442MOL0     C58232   0.989   3.531  11.087 -0.0469 -1.1049 -0.1841
  442MOL0     C58233   0.968   3.522  11.237  0.8952  0.1699  0.5262
  442MOL0     C58234   0.940   3.662  11.285  0.2380 -0.2774 -0.4380
  442MOL0     C58235   0.936   3.669  11.443 -0.2436  0.1691 -0.3640
  442MOL0     O58236   1.009   3.773  11.508  0.4263  0.1553 -0.5710
  442MOL0     C58237   1.142   3.767  11.508 -0.1622 -0.1502 -0.3580
  442MOL0     C58238   1.220   3.656  11.547  0.0073  0.5633 -0.3042
  442MOL0     C58239   1.362   3.666  11.572 -0.4336  0.6353  0.0105
  442MOL0     C58240   1.428   3.787  11.533  0.5170 -0.6526  0.2948
  442MOL0     C58241   1.572   3.789  11.556 -0.6130  0.3601 -0.1523
  442MOL0     O58242   1.629   3.675  11.610 -0.0979  0.0809  0.1934
  442MOL0     C58243   1.769   3.655  11.610  0.7957  0.9640  0.1430
  442MOL0     C58244   1.865   3.713  11.522  0.4226  0.1622 -0.2054
  442MOL0     C58245   1.998   3.682  11.519  0.4644  0.2726  0.1667
  442MOL0     C58246   2.048   3.590  11.607 -0.5062  0.4592 -0.6011
  442MOL0     O58247   2.190   3.574  11.616 -0.4357 -0.3854 -0.2562
  442MOL0     C58248   2.254   3.684  11.679  0.5794  0.4462 -0.0249
  442MOL0     C58249   2.410   3.687  11.653  0.0776  0.7602 -0.2155
  442MOL0     C58250   2.458   3.743  11.518  0.7829 -0.7341 -0.7183
  442MOL0     C58251   2.416   3.888  11.481  0.2234 -1.3285 -0.2431
  442MOL0     C58252   2.459   3.926  11.337 -0.3889  1.0893  0.4358
  442MOL0     C58253   2.389   4.054  11.277 -0.1266 -0.4763  0.3300
  442MOL0     C58254   2.459   4.185  11.325 -0.1923  0.5244  0.6023
  442MOL0     C58255   2.429   4.306  11.237  0.3192  0.7262  0.4303
  442MOL0    Cl58256   2.256   4.345  11.241  0.0342  0.2835  0.4081
  442MOL0     C58257   1.964   3.535  11.705  0.3412  0.3670 -0.2415
  442MOL0     C58258   1.822   3.570  11.706  0.4391  0.8805  0.0974
  442MOL0     O58259   1.633   3.894  11.527 -0.2472  0.1992 -0.0608
  442MOL0     C58260   1.349   3.895  11.485 -0.7550  0.4586  0.0648
  442MOL0     C58261   1.216   3.887  11.492 -0.1270 -0.2388  0.1102
  442MOL0     N58262   0.844   3.321  10.998 -0.4568  0.0210  0.3944
  442MOL0     N58263   0.879   3.194  10.963  0.0882 -0.9614 -1.3657
  442MOL0     C58264   0.793   2.961  10.294  0.2675  0.6483 -0.9205
  442MOL0     C58265   0.788   2.830  10.249 -0.5937  0.6537  0.5897
  442MOL0     C58266   0.894   2.473  10.004 -0.7224 -0.3422  0.4619
  442MOL0     C58267   1.015   2.397   9.966 -0.4935 -0.8761 -0.1614
  442MOL0     C58268   1.009   2.259   9.940 -0.1476 -1.0969 -0.1136
  442MOL0     C58269   0.882   2.195   9.946  0.5143 -0.5313 -0.6309
  442MOL0     O58270   0.861   2.068   9.912 -0.1988 -0.4606 -0.0649
  442MOL0     C58271   0.971   1.981   9.890  0.8816  0.1252  0.5068
  442MOL0     C58272   1.024   1.926  10.033 -0.4873  0.4557  0.5894
  442MOL0     C58273   0.924   1.848  10.108 -0.2074  0.3845  0.9682
  442MOL0     C58274   0.984   1.809  10.239  0.3671  0.5135 -0.1695
  442MOL0     C58275   0.873   1.730  10.313 -0.2542  0.1001  0.2589
  442MOL0     C58276   0.769   1.679  10.363  0.3121 -0.0116 -0.6154
  442MOL0     C58277   0.774   2.271   9.984  0.4332 -0.5535 -0.0795
  442MOL0     C58278   0.773   2.406  10.006 -0.1099 -0.2126  0.5831
  442MOL0     H58279   0.845   2.906   9.916  2.4238  1.8276  0.1920
  442MOL0     H58280   0.857   3.118   9.994  0.9686  1.2936  1.7384
  442MOL0     H58281   0.874   3.401  10.275 -0.0175  1.5230 -0.3576
  442MOL0     H58282   0.860   3.327  10.112  0.4519  6.1311  1.0683
  442MOL0     H58283   1.085   3.372  10.168  1.3205 -0.2385 -0.0266
  442MOL0     H58284   1.072   3.202  10.182 -2.9152 -3.2881  2.4749
  442MOL0     H58285   1.080   3.386  10.418  1.8416 -1.2249  3.5896
  442MOL0     H58286   1.211   3.284  10.359  0.0936  1.4643  1.2716
  442MOL0     H58287   0.942   3.207  10.464 -0.7438  0.0796 -0.4116
  442MOL0     H58288   1.049   3.079  10.418 -1.1474  0.6411 -0.7936
  442MOL0     H58289   1.062   3.283  10.646 -0.5006  0.2055  1.0696
  442MOL0     H58290   1.217   3.223  10.593 -0.5503  1.4218 -1.8955
  442MOL0     H58291   1.144   2.978  10.631 -2.1709 -0.9858 -0.3469
  442MOL0     H58292   1.002   3.015  10.710 -0.1622  1.3202 -1.1243
  442MOL0     H58293   1.249   2.992  10.824  0.9384  0.7878 -3.3030
  442MOL0     H58294   1.222   3.170  10.832 -0.2371  0.3840  0.5825
  442MOL0     H58295   1.159   3.056  11.035  0.0568  2.1670  0.8799
  442MOL0     H58296   1.025   2.979  10.944 -1.5645  1.5838 -2.7877
  442MOL0     H58297   1.165   3.336  11.041  0.7332 -0.3456 -1.8850
  442MOL0     H58298   0.916   3.596  11.037 -0.9125 -1.6650  0.3182
  442MOL0     H58299   1.084   3.567  11.046 -0.6942 -0.5920 -1.2646
  442MOL0     H58300   1.058   3.490  11.290  1.6421  1.1758 -0.0970
  442MOL0     H58301   0.884   3.453  11.255  0.5163  0.7230  0.9168
  442MOL0     H58302   1.029   3.719  11.255  1.3530 -1.2034  0.9299
  442MOL0     H58303   0.846   3.702  11.247  0.4891  1.2358  0.4594
  442MOL0     H58304   0.977   3.574  11.481  2.5648  1.0682 -0.9485
  442MOL0     H58305   0.834   3.689  11.475  0.2133  1.1251  0.5333
  442MOL0     H58306   1.169   3.564  11.574 -2.0287  1.7047 -0.0548
  442MOL0     H58307   1.415   3.575  11.596  0.2894  1.3941  1.4284
  442MOL0     H58308   1.834   3.795  11.459  2.8844  0.3312 -1.3130
  442MOL0     H58309   2.063   3.726  11.443  0.9633  2.4573  1.7527
  442MOL0     H58310   2.237   3.680  11.787 -3.1355 -1.4284 -0.4907
  442MOL0     H58311   2.213   3.781  11.648  1.5476  1.2498  1.1406
  442MOL0     H58312   2.445   3.584  11.654 -2.7186 -0.3102 -1.1582
  442MOL0     H58313   2.455   3.740  11.737  1.6993 -1.2880  0.2766
  442MOL0     H58314   2.429   3.673  11.439  0.1628  0.1630 -1.2965
  442MOL0     H58315   2.567   3.743  11.527  1.0409  0.2747 -3.0528
  442MOL0     H58316   2.310   3.909  11.497  1.1005  2.3335  1.7954
  442MOL0     H58317   2.463   3.949  11.558 -0.0575 -0.5776 -0.6640
  442MOL0     H58318   2.422   3.848  11.269  1.8616 -0.4132  0.8325
  442MOL0     H58319   2.568   3.924  11.334 -0.3391  0.7188  1.8893
  442MOL0     H58320   2.281   4.044  11.284  0.0915 -3.1361  1.1918
  442MOL0     H58321   2.413   4.042  11.171 -1.8593  1.0803 -0.2822
  442MOL0     H58322   2.434   4.196  11.431 -2.0669 -0.6590  0.3387
  442MOL0     H58323   2.564   4.161  11.305 -0.2235  0.3554  0.6421
  442MOL0     H58324   2.453   4.286  11.132  0.1634  2.4157  0.0426
  442MOL0     H58325   2.483   4.396  11.268 -0.3262  0.0883  3.8592
  442MOL0     H58326   1.992   3.474  11.790 -2.4401  0.7673  1.0455
  442MOL0     H58327   1.756   3.513  11.771  0.8290  0.5822  0.2322
  442MOL0     H58328   1.409   3.977  11.448  0.7291 -1.0065 -0.9175
  442MOL0     H58329   1.156   3.973  11.463  0.8685  1.2363  2.1427
  442MOL0     H58330   0.805   2.987  10.399 -2.0521  2.0856 -0.9413
  442MOL0     H58331   0.779   2.743  10.314  1.5855 -1.4758 -1.7469
  442MOL0     H58332   1.116   2.438   9.974 -1.3308  1.0831  1.2567
  442MOL0     H58333   1.100   2.204   9.915 -0.6306 -1.1548 -1.9092
  442MOL0     H58334   1.050   2.022   9.825  1.4825 -1.5015  0.1609
  442MOL0     H58335   0.947   1.899   9.822  0.5877 -0.6802  1.5476
  442MOL0     H58336   1.124   1.887  10.013 -0.4419  1.4296 -1.3426
  442MOL0     H58337   1.055   2.007  10.099  3.6597 -0.6118  0.2127
  442MOL0     H58338   0.891   1.761  10.050 -1.6912  1.8267 -0.4239
  442MOL0     H58339   0.840   1.917  10.117  2.1485  4.5579 -4.1680
  442MOL0     H58340   1.076   1.750  10.234  0.3978  0.5951 -0.6961
  442MOL0     H58341   1.018   1.894  10.298  2.0141 -0.1111 -0.1609
  442MOL0     H58342   0.683   1.625  10.396  1.3285 -0.7858  0.8704
  442MOL0     H58343   0.682   2.214   9.985  0.2202 -0.3531 -2.3076
  442MOL0     H58344   0.672   2.444  10.016 -0.2038  1.1720 -3.7155
  443MOL0     O58345   5.070   4.507   6.411  0.7661  0.5917  0.0771
  443MOL0     C58346   4.953   4.543   6.426 -0.2756  0.2190  0.6163
  443MOL0     O58347   4.906   4.603   6.536  0.2939 -1.0634  0.5799
  443MOL0     C58348   4.995   4.636   6.636 -0.2372  1.0042 -0.4017
  443MOL0     C58349   5.087   4.545   6.695  0.5211  0.8554  0.4051
  443MOL0     C58350   5.185   4.589   6.781 -0.2772  0.5625  0.2440
  443MOL0     C58351   5.195   4.724   6.821 -0.6734  0.1846  0.4868
  443MOL0     O58352   5.286   4.760   6.919  0.2913  0.0567 -0.9456
  443MOL0     C58353   5.243   4.717   7.055 -0.7069  0.6253 -0.7801
  443MOL0     C58354   5.149   4.820   7.110 -0.9337  0.7529 -0.3070
  443MOL0     C58355   5.174   4.816   7.267  1.0517 -0.2195 -0.2399
  443MOL0     C58356   5.070   4.922   7.330 -0.4022  0.2437  0.1129
  443MOL0     C58357   5.113   4.954   7.471 -0.4379 -0.4411  0.3275
  443MOL0     C58358   5.117   4.842   7.572 -0.4835  0.4193 -0.3386
  443MOL0     C58359   5.185   4.884   7.712  0.1633  0.9755  0.0664
  443MOL0     C58360   5.192   4.779   7.826 -0.1998  0.2066 -0.5433
  443MOL0     N58361   5.279   4.671   7.769 -0.2461  0.4894 -0.2409
  443MOL0     C58362   5.231   4.558   7.707  0.9095  0.0747  0.1836
  443MOL0     C58363   5.337   4.474   7.707  0.0026 -0.2166 -0.7990
  443MOL0     C58364   5.342   4.327   7.670 -0.1190 -0.1786  0.4405
  443MOL0     C58365   5.231   4.280   7.588  0.0087  0.4640 -0.8783
  443MOL0     C58366   5.264   4.137   7.529  0.3649 -0.5756 -0.5792
  443MOL0     C58367   5.324   4.128   7.396  0.4815 -0.4003 -0.0758
  443MOL0     O58368   5.467   4.109   7.420  0.7622  0.2316  0.1282
  443MOL0     C58369   5.544   4.064   7.319  0.4549 -1.1170 -0.8530
  443MOL0     C58370   5.671   4.118   7.318  0.2536 -0.6660  0.4394
  443MOL0     C58371   5.776   4.083   7.245 -0.1560  0.2686 -0.6160
  443MOL0     C58372   5.737   3.984   7.145 -0.1516  0.3219 -0.7201
  443MOL0     C58373   5.836   3.949   7.033  1.0747  1.0802  0.5900
  443MOL0     O58374   5.928   4.047   6.982  0.7810 -0.6565 -0.8232
  443MOL0     C58375   5.971   4.018   6.853 -0.6535  0.6237 -0.4491
  443MOL0     C58376   6.105   4.045   6.819 -0.6107 -1.1267 -0.2684
  443MOL0     C58377   6.153   4.033   6.686 -0.0871  0.1213 -0.8161
  443MOL0     C58378   6.072   3.988   6.588 -0.7092  0.4542 -0.1641
  443MOL0     O58379   6.137   3.991   6.463 -0.5301  0.1498  0.7488
  443MOL0     C58380   6.050   3.994   6.346 -0.7353  0.2034 -0.4562
  443MOL0     C58381   6.120   4.022   6.212 -0.1654  0.1790  0.2383
  443MOL0     C58382   6.077   3.947   6.088 -1.0798 -0.9774 -1.0052
  443MOL0     C58383   6.156   3.977   5.953 -0.4679 -0.0940 -0.4259
  443MOL0     C58384   6.116   3.898   5.824  0.2170  0.0432 -0.0936
  443MOL0     C58385   6.233   3.858   5.733 -1.0766  0.0331  1.0060
  443MOL0     C58386   6.312   3.982   5.665 -0.0768  1.2905 -0.1943
  443MOL0     C58387   6.379   3.950   5.529 -0.5848  0.0026 -0.2868
  443MOL0    Cl58388   6.529   3.847   5.546  0.1820 -0.4228 -0.2188
  443MOL0     C58389   5.938   3.962   6.606 -0.6129  0.5689 -0.2632
  443MOL0     C58390   5.884   3.985   6.737 -0.5172  0.6905 -0.9878
  443MOL0     O58391   5.833   3.833   7.007  0.8443  0.0802 -0.4034
  443MOL0     C58392   5.610   3.940   7.127  1.2569  0.2666  0.6901
  443MOL0     C58393   5.512   3.970   7.216  0.3715  0.2621  1.2823
  443MOL0     N58394   5.441   4.530   7.773  0.2592 -0.1940  0.4934
  443MOL0     N58395   5.405   4.648   7.809 -0.0901  0.3067  0.0612
  443MOL0     C58396   5.102   4.818   6.767 -0.5744  0.1267 -0.6299
  443MOL0     C58397   5.006   4.775   6.672 -0.7562  0.9506  0.5126
  443MOL0     C58398   4.849   4.496   6.330 -0.3629  1.1302 -0.0732
  443MOL0     C58399   4.706   4.513   6.347  0.0910 -0.1621 -0.0802
  443MOL0     C58400   4.608   4.474   6.261 -0.5467  0.0309 -0.1154
  443MOL0     C58401   4.648   4.401   6.147 -0.2124  0.2308  0.7526
  443MOL0     O58402   4.544   4.376   6.058  0.1123  0.4817 -0.0674
  443MOL0     C58403   4.573   4.289   5.947  0.1951  1.3444  0.7694
  443MOL0     C58404   4.440   4.239   5.878  0.1184 -0.5628  1.2116
  443MOL0     C58405   4.355   4.341   5.805  0.2196  0.3647 -0.2433
  443MOL0     C58406   4.433   4.428   5.706 -0.9495  0.0756  0.7093
  443MOL0     C58407   4.360   4.534   5.646 -0.0496  0.1922  0.2205
  443MOL0     C58408   4.286   4.613   5.594  0.2515  0.0405 -0.1444
  443MOL0     C58409   4.783   4.378   6.127  0.0931  0.5329  0.0066
  443MOL0     C58410   4.885   4.426   6.217  0.2096  0.1321  0.0447
  443MOL0     H58411   5.077   4.439   6.675 -1.6499  0.8335  1.2782
  443MOL0     H58412   5.264   4.522   6.813 -2.0207 -1.5723  0.3033
  443MOL0     H58413   5.337   4.726   7.111 -2.6855  4.8760  2.5327
  443MOL0     H58414   5.200   4.617   7.061 -1.1915  0.8613 -0.2419
  443MOL0     H58415   5.043   4.796   7.100 -1.0457  1.5186 -1.0642
  443MOL0     H58416   5.160   4.921   7.069  1.1771  0.7566  0.1366
  443MOL0     H58417   5.277   4.850   7.274  0.8369  0.6244 -0.9909
  443MOL0     H58418   5.162   4.720   7.319  0.1703  0.6295  1.1942
  443MOL0     H58419   5.071   5.013   7.269 -1.0618 -1.3051 -2.3213
  443MOL0     H58420   4.966   4.889   7.341 -1.1899  2.4262 -0.1550
  443MOL0     H58421   5.046   5.027   7.516 -1.1817  0.9523 -2.7378
  443MOL0     H58422   5.211   5.002   7.463  0.6232 -2.5663 -0.2757
  443MOL0     H58423   5.165   4.751   7.534  0.1153  1.8493 -3.2694
  443MOL0     H58424   5.014   4.811   7.592  0.3312 -1.2217  1.7333
  443MOL0     H58425   5.288   4.902   7.681 -0.1865  2.4486 -0.3623
  443MOL0     H58426   5.138   4.979   7.740  1.5135  1.7853 -0.3528
  443MOL0     H58427   5.094   4.739   7.856  1.3711 -0.9897  3.6524
  443MOL0     H58428   5.226   4.825   7.919 -2.0106 -0.8752  0.7110
  443MOL0     H58429   5.132   4.536   7.668  0.2558 -0.6462  2.1750
  443MOL0     H58430   5.338   4.269   7.763 -0.4645 -3.2558 -1.3840
  443MOL0     H58431   5.434   4.320   7.613 -0.8515  2.3055 -1.2311
  443MOL0     H58432   5.208   4.350   7.507 -3.1623  1.5351  0.7826
  443MOL0     H58433   5.137   4.281   7.644  0.8239  2.2128  0.5917
  443MOL0     H58434   5.331   4.085   7.598 -0.2193 -0.7466 -0.1349
  443MOL0     H58435   5.165   4.091   7.530  0.1511 -0.1444  0.8339
  443MOL0     H58436   5.307   4.217   7.335  2.8062 -1.0177 -1.7705
  443MOL0     H58437   5.286   4.046   7.335  0.5448  1.1128 -2.2305
  443MOL0     H58438   5.700   4.193   7.391  6.1539 -0.3399 -1.6553
  443MOL0     H58439   5.880   4.109   7.254 -0.6545  2.3825 -0.4606
  443MOL0     H58440   6.167   4.079   6.901  0.7954 -3.0721 -0.4436
  443MOL0     H58441   6.257   4.051   6.660  0.0293 -0.1023 -0.5083
  443MOL0     H58442   5.972   4.068   6.364 -0.3106  0.0108  2.5984
  443MOL0     H58443   6.009   3.892   6.340  2.2332 -1.0237 -3.9929
  443MOL0     H58444   6.228   4.017   6.226 -0.0271  0.6123 -0.5963
  443MOL0     H58445   6.091   4.127   6.199 -3.5818 -0.6179  0.3421
  443MOL0     H58446   5.972   3.976   6.073 -1.1799 -1.4211 -1.1707
  443MOL0     H58447   6.079   3.841   6.113 -0.0355 -0.7011  0.1807
  443MOL0     H58448   6.152   4.085   5.941  0.3228 -0.2361 -2.2209
  443MOL0     H58449   6.260   3.944   5.962 -0.2886 -0.2287 -2.5736
  443MOL0     H58450   6.047   3.963   5.771  0.7867  1.2401  0.5900
  443MOL0     H58451   6.069   3.800   5.837 -1.0643  0.4006 -1.7304
  443MOL0     H58452   6.198   3.784   5.659 -0.3905 -2.5359  3.0905
  443MOL0     H58453   6.306   3.806   5.794  0.4088  1.4226  0.4785
  443MOL0     H58454   6.241   4.063   5.646  0.5377  2.0893  0.8051
  443MOL0     H58455   6.392   4.020   5.729 -0.6685  3.5448 -0.6982
  443MOL0     H58456   6.404   4.041   5.473 -1.0422 -1.0115 -2.2585
  443MOL0     H58457   6.296   3.899   5.479 -1.4782  0.2194  0.9278
  443MOL0     H58458   5.866   3.939   6.528 -1.2701 -1.1066  0.7844
  443MOL0     H58459   5.778   3.978   6.762 -0.5083 -0.7168 -1.2229
  443MOL0     H58460   5.584   3.880   7.040  2.4249 -0.0628  0.5579
  443MOL0     H58461   5.415   3.920   7.213  0.3293  0.3671  0.8540
  443MOL0     H58462   5.115   4.919   6.805  2.6705 -0.5906  0.4779
  443MOL0     H58463   4.936   4.842   6.623 -0.2915  0.9485 -0.1520
  443MOL0     H58464   4.672   4.561   6.439  2.5260  4.1255 -1.1597
  443MOL0     H58465   4.501   4.489   6.273 -1.5976 -2.2243 -4.6398
  443MOL0     H58466   4.628   4.201   5.980  1.6846  0.5157 -3.3598
  443MOL0     H58467   4.638   4.341   5.876  4.5001 -1.7875  2.0561
  443MOL0     H58468   4.470   4.160   5.808 -1.1063  0.8946 -1.1018
  443MOL0     H58469   4.381   4.183   5.951  0.2076 -0.6651  1.2067
  443MOL0     H58470   4.308   4.415   5.871  2.0678  3.4011 -2.0874
  443MOL0     H58471   4.280   4.289   5.745  0.0840 -3.2606  2.6827
  443MOL0     H58472   4.505   4.486   5.764 -0.6231  1.0763 -0.6474
  443MOL0     H58473   4.478   4.372   5.624 -3.0492  1.8231 -1.7882
  443MOL0     H58474   4.235   4.701   5.560  0.9783  0.7766  0.6350
  443MOL0     H58475   4.830   4.338   6.038  0.7055 -2.2996  1.4748
  443MOL0     H58476   4.990   4.419   6.189  0.2472  1.8440 -0.3104
  444MOL0     O58477  11.125   3.292   2.188  0.4794  0.1656  1.2099
  444MOL0     C58478  11.070   3.220   2.270 -0.1596  0.3175  1.2948
  444MOL0     O58479  11.138   3.138   2.352  0.4547  0.7665 -0.5366
  444MOL0     C58480  11.275   3.150   2.344 -0.8424 -0.1799  0.7337
  444MOL0     C58481  11.341   3.061   2.261  0.0426  0.1368 -0.2090
  444MOL0     C58482  11.480   3.064   2.248 -0.5070  0.2053  0.3206
  444MOL0     C58483  11.562   3.123   2.344  0.3375 -0.2030  0.1838
  444MOL0     O58484  11.696   3.115   2.317 -0.2118  0.6143 -0.4280
  444MOL0     C58485  11.781   3.047   2.412 -1.1975  0.2162  0.3687
  444MOL0     C58486  11.921   2.992   2.358 -0.4330  0.1859  0.2170
  444MOL0     C58487  12.033   3.098   2.374  0.8861  1.2456  0.4301
  444MOL0     C58488  12.166   3.038   2.323  0.5275 -0.6660 -0.8118
  444MOL0     C58489  12.282   3.141   2.314  0.0297  0.2443 -0.6539
  444MOL0     C58490  12.314   3.215   2.436  0.4986 -0.3170 -0.4516
  444MOL0     C58491  12.358   3.119   2.544 -0.3511  0.0784 -0.2975
  444MOL0     C58492  12.373   3.189   2.680 -0.1653  1.4474 -0.3523
  444MOL0     N58493  12.474   3.133   2.776  0.2711 -0.3430  0.1206
  444MOL0     C58494  12.605   3.168   2.766  0.1836 -1.2571  0.7820
  444MOL0     C58495  12.663   3.113   2.874 -0.1669  0.7417  0.1669
  444MOL0     C58496  12.807   3.113   2.922  0.1095  0.4802  0.4651
  444MOL0     C58497  12.884   2.989   2.904  0.0069 -0.0500  0.2084
  444MOL0     C58498  12.888   2.933   2.761  0.0605 -0.2615  0.3236
  444MOL0     C58499  12.955   3.024   2.648  0.5338 -0.2826 -0.0030
  444MOL0     O58500  13.092   3.043   2.685  0.0842  0.3662 -0.6964
  444MOL0     C58501  13.179   2.934   2.679  0.2608  0.8932  0.0805
  444MOL0     C58502  13.223   2.881   2.797 -0.2601  0.6737 -0.4259
  444MOL0     C58503  13.340   2.808   2.800 -0.2596  0.4202  0.3639
  444MOL0     C58504  13.412   2.778   2.676  0.4060  0.5655  0.2704
  444MOL0     C58505  13.537   2.700   2.683 -0.6200  0.1932 -0.2635
  444MOL0     O58506  13.580   2.641   2.561  0.8168  0.3735 -0.1892
  444MOL0     C58507  13.665   2.534   2.572 -0.2041 -0.0219  0.3565
  444MOL0     C58508  13.640   2.426   2.655 -0.1760 -0.9374  0.4019
  444MOL0     C58509  13.728   2.321   2.658 -0.5313  0.4253  0.3742
  444MOL0     C58510  13.840   2.327   2.573  0.8164 -0.2021 -0.2910
  444MOL0     O58511  13.935   2.232   2.586  1.3149  0.9674 -0.9138
  444MOL0     C58512  13.948   2.116   2.495  0.4873 -0.5308  0.1184
  444MOL0     C58513  14.071   2.041   2.540  0.2360 -0.6209  1.1093
  444MOL0     C58514  14.056   1.996   2.683 -0.6966  0.0857  0.1708
  444MOL0     C58515  14.192   1.904   2.712  0.0976  0.1357  0.4949
  444MOL0     C58516  14.220   1.880   2.859  0.7514 -0.0378  0.5216
  444MOL0     C58517  14.196   1.992   2.963  0.6446  0.2651  0.0204
  444MOL0     C58518  14.235   1.932   3.094 -1.2273 -0.4930  0.1675
  444MOL0     C58519  14.224   2.028   3.208 -0.3961 -0.0592 -1.3834
  444MOL0    Cl58520  14.060   2.056   3.260 -0.2193  0.0171  0.2549
  444MOL0     C58521  13.874   2.441   2.503  0.5325  0.3441  0.0856
  444MOL0     C58522  13.784   2.543   2.507  0.3098 -0.4399  0.8239
  444MOL0     O58523  13.602   2.694   2.792  0.6496  0.0673  0.0655
  444MOL0     C58524  13.361   2.825   2.559 -0.7022 -0.1985  0.3018
  444MOL0     C58525  13.245   2.902   2.557  0.5026  0.2988  0.0394
  444MOL0     N58526  12.575   3.036   2.941  0.3444  0.2380 -0.0402
  444MOL0     N58527  12.455   3.057   2.888  0.2598 -0.4194  0.0519
  444MOL0     C58528  11.490   3.211   2.436  0.4906 -0.7066  0.1267
  444MOL0     C58529  11.353   3.230   2.435 -0.8673 -0.3977  0.2033
  444MOL0     C58530  10.924   3.221   2.275 -0.7693  0.5255 -0.6118
  444MOL0     C58531  10.857   3.181   2.389 -0.2642  0.0131 -0.0625
  444MOL0     C58532  10.716   3.181   2.395 -1.1023  0.2147 -0.0245
  444MOL0     C58533  10.640   3.232   2.285  0.4558  0.4386  0.4182
  444MOL0     O58534  10.503   3.256   2.280  0.2924  0.3995  0.3074
  444MOL0     C58535  10.415   3.200   2.384  0.4566  0.0126  1.0438
  444MOL0     C58536  10.288   3.286   2.382  0.1300 -0.0351  0.3973
  444MOL0     C58537  10.197   3.246   2.500 -0.4733 -0.6882 -0.5346
  444MOL0     C58538  10.075   3.181   2.447  1.2081  1.1303  0.3245
  444MOL0     C58539  10.114   3.049   2.390 -0.1916 -0.2172  0.6585
  444MOL0     C58540  10.130   2.947   2.323 -0.6514 -0.1259 -0.9191
  444MOL0     C58541  10.709   3.264   2.168 -0.2794 -0.4268 -0.7534
  444MOL0     C58542  10.851   3.261   2.164 -1.1521 -0.0287 -0.5570
  444MOL0     H58543  11.268   3.002   2.207 -0.4786  0.5119  0.0849
  444MOL0     H58544  11.532   3.004   2.174 -0.4280  1.5399 -0.7587
  444MOL0     H58545  11.725   2.958   2.444 -2.8073  1.4155  1.0589
  444MOL0     H58546  11.800   3.099   2.507  3.2071 -0.3987 -0.0038
  444MOL0     H58547  11.913   2.970   2.251  2.2423  1.3427 -0.2934
  444MOL0     H58548  11.957   2.908   2.418 -0.4843 -0.4840 -0.6787
  444MOL0     H58549  12.031   3.130   2.478 -0.8029 -0.3285  0.9238
  444MOL0     H58550  12.013   3.190   2.318 -0.1727  1.7482  1.5945
  444MOL0     H58551  12.194   2.956   2.389 -2.1161 -1.8984 -1.1143
  444MOL0     H58552  12.146   3.002   2.222 -0.8407 -4.0788  0.5346
  444MOL0     H58553  12.245   3.218   2.245  1.6479  1.8878  0.2336
  444MOL0     H58554  12.370   3.093   2.270  0.3430  1.7192 -1.7117
  444MOL0     H58555  12.221   3.264   2.464 -1.6206 -3.4478 -1.4902
  444MOL0     H58556  12.393   3.282   2.401 -0.5223 -0.0874 -2.4621
  444MOL0     H58557  12.300   3.028   2.559  0.1269 -0.5485 -2.0415
  444MOL0     H58558  12.460   3.088   2.520 -1.3766 -2.0288 -2.3387
  444MOL0     H58559  12.275   3.194   2.729 -0.3491 -1.6592 -0.2583
  444MOL0     H58560  12.404   3.293   2.665 -1.0372  1.8697  0.6583
  444MOL0     H58561  12.639   3.227   2.681 -0.4419  0.4459  1.6707
  444MOL0     H58562  12.804   3.149   3.026 -5.5704  1.1371  0.3887
  444MOL0     H58563  12.852   3.191   2.859  2.6161 -0.5853  0.8345
  444MOL0     H58564  12.839   2.925   2.980  2.7609  0.6905  2.6232
  444MOL0     H58565  12.984   3.019   2.936  1.0302 -0.9817 -1.8902
  444MOL0     H58566  12.942   2.838   2.758 -0.8312 -0.7615 -0.7470
  444MOL0     H58567  12.785   2.909   2.731 -0.9452  1.6682  1.9952
  444MOL0     H58568  12.909   3.123   2.654 -3.1446 -1.7382 -1.0648
  444MOL0     H58569  12.943   2.970   2.553  0.6351 -2.4324  1.1328
  444MOL0     H58570  13.184   2.906   2.896  2.0467  0.6011  0.5549
  444MOL0     H58571  13.374   2.781   2.899  1.2373  2.9523  0.6103
  444MOL0     H58572  13.549   2.420   2.715 -0.0545 -3.1359  0.4730
  444MOL0     H58573  13.725   2.230   2.716 -1.3484 -2.0273 -3.1445
  444MOL0     H58574  13.946   2.140   2.389 -2.0111  2.4002  0.6776
  444MOL0     H58575  13.865   2.046   2.512  0.3990 -0.1828  1.2348
  444MOL0     H58576  14.168   2.087   2.520  1.0947 -2.1456  1.6283
  444MOL0     H58577  14.064   1.951   2.477 -1.9352 -0.1545  0.5984
  444MOL0     H58578  13.961   1.947   2.706  1.2557 -3.5765  1.2087
  444MOL0     H58579  14.065   2.086   2.743  0.3498  0.7388 -0.9259
  444MOL0     H58580  14.185   1.805   2.665  3.4905 -0.3711  0.7923
  444MOL0     H58581  14.273   1.958   2.662  0.3977 -2.5688 -2.2744
  444MOL0     H58582  14.310   1.818   2.864 -1.1366 -3.3673 -2.2579
  444MOL0     H58583  14.144   1.805   2.886  2.6744 -2.4285 -0.2994
  444MOL0     H58584  14.089   2.009   2.975  0.9295  2.1403  0.2197
  444MOL0     H58585  14.243   2.088   2.938 -2.5078  1.9708  0.1278
  444MOL0     H58586  14.167   1.851   3.123  2.4979 -3.2749  1.8269
  444MOL0     H58587  14.338   1.895   3.101  0.0328  2.3372 -1.7046
  444MOL0     H58588  14.274   2.123   3.187 -2.8598  2.5539  3.1226
  444MOL0     H58589  14.278   1.983   3.291 -2.1684 -0.2737 -0.3025
  444MOL0     H58590  13.957   2.443   2.433  1.2852  0.3015  0.9611
  444MOL0     H58591  13.804   2.635   2.453 -1.8574 -0.0007  0.6979
  444MOL0     H58592  13.407   2.798   2.465 -0.5387 -0.0954  0.3512
  444MOL0     H58593  13.192   2.934   2.468 -0.3234  0.5293  0.5983
  444MOL0     H58594  11.546   3.269   2.509 -0.4184  2.1184 -1.2889
  444MOL0     H58595  11.285   3.277   2.506 -0.5149 -2.7570  2.2412
  444MOL0     H58596  10.919   3.137   2.467 -2.1102 -2.1926  0.2980
  444MOL0     H58597  10.670   3.169   2.492 -0.8977 -2.6682 -0.1896
  444MOL0     H58598  10.470   3.201   2.479  4.1690  2.7931 -0.8853
  444MOL0     H58599  10.384   3.096   2.367 -0.3763  0.6931 -2.3520
  444MOL0     H58600  10.316   3.392   2.391  0.9903 -0.2286  0.1026
  444MOL0     H58601  10.239   3.277   2.285 -0.3206 -1.4130  0.7371
  444MOL0     H58602  10.163   3.337   2.551  1.4253  0.1238 -0.6602
  444MOL0     H58603  10.253   3.175   2.560 -1.3509 -0.0513  1.1062
  444MOL0     H58604  10.001   3.154   2.523  3.7826 -3.2602  1.5802
  444MOL0     H58605  10.024   3.237   2.368  0.2119 -1.2864 -0.8257
  444MOL0     H58606  10.143   2.854   2.271 -0.8896 -0.4098 -0.4852
  444MOL0     H58607  10.649   3.291   2.081  1.3838 -1.3709 -2.2507
  444MOL0     H58608  10.897   3.307   2.077  3.7246 -1.5705  0.8888
  445MOL0     O58609   0.901  10.349   9.995  0.2728 -0.4732  0.3042
  445MOL0     C58610   0.845  10.419   9.907 -0.6591 -0.3173  0.8614
  445MOL0     O58611   0.717  10.405   9.866 -0.0174 -0.7519 -0.0675
  445MOL0     C58612   0.640  10.323   9.939 -0.1844  0.6704 -1.0693
  445MOL0     C58613   0.657  10.187   9.948 -1.1247  1.0023 -0.0897
  445MOL0     C58614   0.575  10.111  10.040 -0.3246 -1.6956  0.4897
  445MOL0     C58615   0.463  10.163  10.107 -0.7736  0.3155  0.0239
  445MOL0     O58616   0.395  10.069  10.188  0.5980 -0.2176  0.4702
  445MOL0     C58617   0.285  10.125  10.282  0.9603 -0.0455 -0.5628
  445MOL0     C58618   0.246  10.002  10.374  0.6618  0.9267  0.7039
  445MOL0     C58619   0.153   9.896  10.306 -0.0069  0.9844  0.1072
  445MOL0     C58620   0.003   9.929  10.280 -0.1000 -0.2316  0.3899
  445MOL0     C58621  -0.063   9.797  10.237  0.6464 -0.0882  0.4166
  445MOL0     C58622  -0.211   9.820  10.208 -0.6784 -0.1457 -0.4165
  445MOL0     C58623  -0.228   9.916  10.081 -1.0853 -1.3516  0.0646
  445MOL0     C58624  -0.376   9.929  10.033  0.2262 -0.2905  1.3254
  445MOL0     N58625  -0.375  10.041   9.933 -0.1986 -0.8547 -0.6335
  445MOL0     C58626  -0.288  10.075   9.831 -0.2737  0.1142 -0.3099
  445MOL0     C58627  -0.307  10.206   9.816  1.4312  0.4125  0.1468
  445MOL0     C58628  -0.230  10.300   9.736 -0.1119 -0.0645  0.6341
  445MOL0     C58629  -0.303  10.333   9.601  0.3563 -0.0916 -0.1950
  445MOL0     C58630  -0.239  10.396   9.484 -0.5808  0.2327  0.2464
  445MOL0     C58631  -0.212  10.544   9.503  0.0860  0.3906  1.3042
  445MOL0     O58632  -0.344  10.601   9.512 -0.9171  0.4583 -0.1339
  445MOL0     C58633  -0.360  10.717   9.578 -0.2591 -0.4131 -0.2800
  445MOL0     C58634  -0.402  10.830   9.502 -0.5757 -0.2321  0.0610
  445MOL0     C58635  -0.422  10.950   9.559 -0.4835 -0.1138 -0.1179
  445MOL0     C58636  -0.403  10.967   9.690 -0.2699  0.3646 -0.8257
  445MOL0     C58637  -0.418  11.099   9.757 -0.4777 -0.6974 -0.4867
  445MOL0     O58638  -0.513  11.106   9.855  0.9956  0.1413  0.4843
  445MOL0     C58639  -0.577  11.223   9.888  0.2666  0.6471 -0.5976
  445MOL0     C58640  -0.656  11.225  10.006 -1.4127  0.3466  0.1936
  445MOL0     C58641  -0.727  11.342  10.042  0.2025 -0.1518 -0.0464
  445MOL0     C58642  -0.716  11.457   9.969 -0.6431  0.3000 -0.1700
  445MOL0     O58643  -0.782  11.565  10.004  0.7384  0.8684  0.2005
  445MOL0     C58644  -0.908  11.546   9.934  0.2671 -0.1706 -0.4118
  445MOL0     C58645  -1.012  11.602  10.036  0.3821 -0.1818 -0.4173
  445MOL0     C58646  -0.974  11.733  10.104  0.2248 -0.6520 -0.6144
  445MOL0     C58647  -1.009  11.851  10.015 -0.1040 -0.2519 -0.0070
  445MOL0     C58648  -1.002  11.988  10.088  0.1317  0.1603 -0.4689
  445MOL0     C58649  -1.100  12.101  10.046  0.0877 -0.0279 -0.1247
  445MOL0     C58650  -1.240  12.049  10.047  0.4197 -0.7419  0.1829
  445MOL0     C58651  -1.348  12.167  10.077  0.3182  1.3861  0.5239
  445MOL0    Cl58652  -1.292  12.301   9.984 -0.0394  0.9630 -0.0331
  445MOL0     C58653  -0.634  11.457   9.855 -0.8575  0.6968  0.4056
  445MOL0     C58654  -0.568  11.340   9.813  0.3544  1.1433  0.9715
  445MOL0     O58655  -0.352  11.197   9.716 -0.0472 -1.0206  0.2119
  445MOL0     C58656  -0.364  10.858   9.775 -0.3076 -0.6577  0.1587
  445MOL0     C58657  -0.337  10.731   9.718  0.5809  0.4493 -0.0328
  445MOL0     N58658  -0.426  10.246   9.871  0.6868  0.5452  0.8183
  445MOL0     N58659  -0.464  10.147   9.945 -1.1103 -0.1345 -0.6308
  445MOL0     C58660   0.440  10.296  10.090  1.4053 -0.6107  1.3218
  445MOL0     C58661   0.533  10.370  10.020 -0.5044 -0.0391 -0.3421
  445MOL0     C58662   0.938  10.517   9.844  0.5829 -0.1577 -0.8197
  445MOL0     C58663   0.880  10.617   9.762  0.1739  0.8343  0.4103
  445MOL0     C58664   0.952  10.728   9.717  0.1169 -0.1514  0.1815
  445MOL0     C58665   1.089  10.731   9.736  0.3559 -0.2111  0.5019
  445MOL0     O58666   1.153  10.839   9.679 -0.1608  0.6557  0.7771
  445MOL0     C58667   1.290  10.863   9.736 -0.0749  0.2702 -0.2639
  445MOL0     C58668   1.319  11.010   9.693 -0.7895 -0.1940  0.3340
  445MOL0     C58669   1.453  11.067   9.749  0.0935  0.4088 -1.1045
  445MOL0     C58670   1.510  11.181   9.658 -0.0871  1.2217 -0.5694
  445MOL0     C58671   1.623  11.259   9.719  0.0860  0.2484  0.8702
  445MOL0     C58672   1.769  11.344   9.799 -0.5542 -0.0829 -0.2024
  445MOL0     C58673   1.146  10.636   9.819 -0.2422  0.6010 -0.2628
  445MOL0     C58674   1.070  10.522   9.870 -1.0477 -0.4252 -0.4755
  445MOL0     H58675   0.744  10.141   9.903  0.4050  3.0914  0.5412
  445MOL0     H58676   0.592  10.007  10.066 -0.1152 -1.9140 -0.4647
  445MOL0     H58677   0.198  10.178  10.242  1.8601  2.9166  1.0613
  445MOL0     H58678   0.334  10.201  10.344 -0.5288  0.1624  0.4068
  445MOL0     H58679   0.195  10.044  10.461 -0.5502  2.2970 -0.5991
  445MOL0     H58680   0.340   9.961  10.412  0.3395 -1.2098 -0.6189
  445MOL0     H58681   0.137   9.810  10.371 -0.2549  0.4336 -0.6637
  445MOL0     H58682   0.192   9.860  10.210 -1.8349  2.0855 -1.0910
  445MOL0     H58683  -0.041   9.959  10.376 -0.7579 -2.3651  0.8167
  445MOL0     H58684  -0.008  10.012  10.210 -3.1493 -1.5657 -0.8607
  445MOL0     H58685  -0.053   9.725  10.318  2.3498 -0.0963  0.2423
  445MOL0     H58686  -0.030   9.749  10.144 -4.3818  0.5180 -2.0160
  445MOL0     H58687  -0.259   9.869  10.293 -0.2595 -0.4593  0.0024
  445MOL0     H58688  -0.256   9.725  10.180  2.8452 -1.7971 -1.0573
  445MOL0     H58689  -0.199  10.018  10.106  0.2172 -1.6881  0.0157
  445MOL0     H58690  -0.184   9.874   9.990 -3.0596 -2.0104 -0.6292
  445MOL0     H58691  -0.449   9.953  10.111 -1.2055 -2.2234  0.6551
  445MOL0     H58692  -0.420   9.844   9.981  0.7435  1.1285 -1.6757
  445MOL0     H58693  -0.185  10.041   9.818 -0.2062  1.0231 -2.4373
  445MOL0     H58694  -0.133  10.254   9.716 -0.5496  0.1221 -2.2787
  445MOL0     H58695  -0.219  10.391   9.797  2.9278 -1.1786  1.9390
  445MOL0     H58696  -0.398  10.380   9.630  1.1900  1.5522 -0.0086
  445MOL0     H58697  -0.316  10.235   9.555  1.6432  0.3278 -1.4964
  445MOL0     H58698  -0.144  10.343   9.474 -1.1313 -0.9582  1.0468
  445MOL0     H58699  -0.307  10.386   9.398 -3.2868  0.6941  2.1942
  445MOL0     H58700  -0.160  10.586   9.416 -0.8475  3.4376  2.0956
  445MOL0     H58701  -0.164  10.566   9.599  3.3832  1.1693 -0.3476
  445MOL0     H58702  -0.414  10.813   9.395 -1.3338 -0.9104  0.2425
  445MOL0     H58703  -0.462  11.031   9.499 -0.2585  2.3210  2.7867
  445MOL0     H58704  -0.685  11.138  10.063 -0.5734 -0.5410 -0.6844
  445MOL0     H58705  -0.781  11.346  10.136 -1.3714 -0.2709 -0.9153
  445MOL0     H58706  -0.937  11.443   9.907  1.1405 -1.3612  2.7276
  445MOL0     H58707  -0.904  11.609   9.845  1.0478  0.8957  0.3651
  445MOL0     H58708  -1.027  11.521  10.108  0.2258  1.0708  0.9920
  445MOL0     H58709  -1.108  11.623   9.987  0.8418 -0.9110 -1.6908
  445MOL0     H58710  -0.867  11.735  10.127  0.6171 -0.4256 -2.3247
  445MOL0     H58711  -1.037  11.729  10.193 -0.0671  0.9954 -0.7127
  445MOL0     H58712  -0.939  11.857   9.932 -1.9270 -0.5686 -1.6382
  445MOL0     H58713  -1.107  11.849   9.966  0.6443  1.6128 -1.7272
  445MOL0     H58714  -0.898  12.023  10.086  0.5457 -0.9197  0.6628
  445MOL0     H58715  -1.041  11.964  10.188  3.1116  1.9340  1.2786
  445MOL0     H58716  -1.070  12.135   9.946 -2.8211  0.1902 -1.0154
  445MOL0     H58717  -1.089  12.181  10.120 -0.1530 -2.3533  2.5910
  445MOL0     H58718  -1.274  12.018   9.947  1.7804  0.3451 -0.6425
  445MOL0     H58719  -1.252  11.959  10.109  1.4774  0.2466  1.8813
  445MOL0     H58720  -1.345  12.201  10.181 -1.3644  2.8816  0.1234
  445MOL0     H58721  -1.443  12.120  10.050  0.3545  1.2348  0.6537
  445MOL0     H58722  -0.626  11.547   9.795  0.9021  0.2958  0.0002
  445MOL0     H58723  -0.529  11.339   9.712 -0.4658  2.6169  0.6103
  445MOL0     H58724  -0.356  10.879   9.881  0.2958  1.3706 -0.2359
  445MOL0     H58725  -0.322  10.643   9.780 -0.7811  1.7846  2.3345
  445MOL0     H58726   0.350  10.333  10.137 -1.0022  1.3423 -4.0193
  445MOL0     H58727   0.531  10.476  10.044  0.1664 -0.6000  2.5995
  445MOL0     H58728   0.774  10.626   9.737  0.1752 -0.9906 -0.3957
  445MOL0     H58729   0.904  10.815   9.673  0.9690  0.0352 -0.4032
  445MOL0     H58730   1.369  10.798   9.698  0.4188 -0.9880  2.6540
  445MOL0     H58731   1.295  10.852   9.844 -3.6422 -3.5754 -0.2151
  445MOL0     H58732   1.318  11.024   9.585  3.5623  0.1908  0.1768
  445MOL0     H58733   1.240  11.080   9.725  0.7393  0.7433  2.3306
  445MOL0     H58734   1.533  10.997   9.778  1.2517  1.9460 -0.4602
  445MOL0     H58735   1.428  11.117   9.842  1.7058  0.9976 -0.9521
  445MOL0     H58736   1.555  11.137   9.569 -2.6889 -2.1667 -0.4210
  445MOL0     H58737   1.429  11.248   9.628  0.5100  1.7378 -1.0719
  445MOL0     H58738   1.855  11.391   9.842  0.7250 -1.1904 -1.4558
  445MOL0     H58739   1.253  10.644   9.833 -0.3992  2.6166  0.0877
  445MOL0     H58740   1.118  10.445   9.931  0.3056 -1.4267 -2.6817
  446MOL0     O58741   3.492  10.114   4.528  0.0062  1.0494 -0.1361
  446MOL0     C58742   3.448  10.028   4.604 -0.3801  0.1951  0.5493
  446MOL0     O58743   3.351  10.053   4.702  0.1819  0.3030  0.4431
  446MOL0     C58744   3.329  10.178   4.748  0.6942 -0.3102 -0.4922
  446MOL0     C58745   3.418  10.295   4.744 -0.2197 -0.5098  0.1649
  446MOL0     C58746   3.361  10.413   4.797 -0.6934 -0.2509  0.0132
  446MOL0     C58747   3.229  10.424   4.827  0.3236  0.3194  0.5025
  446MOL0     O58748   3.172  10.543   4.856  0.1892  0.2289 -0.5736
  446MOL0     C58749   3.250  10.659   4.891  0.1641  0.9363 -0.7860
  446MOL0     C58750   3.156  10.771   4.937  0.5920 -0.2525 -1.3473
  446MOL0     C58751   3.222  10.884   5.014 -0.8179 -1.0521 -0.3180
  446MOL0     C58752   3.292  10.972   4.910 -0.1987 -0.4089 -0.2053
  446MOL0     C58753   3.355  11.094   4.979 -0.5488  0.5374 -0.6267
  446MOL0     C58754   3.258  11.192   5.047  0.7739  0.9591 -0.6367
  446MOL0     C58755   3.333  11.303   5.120  0.2862  0.3729 -0.2596
  446MOL0     C58756   3.251  11.359   5.240  0.1748  1.2468  0.2993
  446MOL0     N58757   3.131  11.434   5.203 -0.1366  1.3146  0.3053
  446MOL0     C58758   3.098  11.501   5.087  0.5470  0.4399  0.1181
  446MOL0     C58759   2.970  11.524   5.097  0.6763 -0.2330 -0.2617
  446MOL0     C58760   2.898  11.597   4.990  0.0732 -0.3791  0.1927
  446MOL0     C58761   2.856  11.513   4.870 -0.4856  0.1139 -0.2058
  446MOL0     C58762   2.966  11.424   4.820  0.8545  0.7864 -0.8558
  446MOL0     C58763   3.081  11.496   4.749 -0.3779 -0.6127  0.0013
  446MOL0     O58764   3.204  11.414   4.745  0.3267 -0.9405  0.0274
  446MOL0     C58765   3.300  11.463   4.667 -0.5262  0.2126 -0.6075
  446MOL0     C58766   3.348  11.597   4.660 -0.4443  0.8076 -0.3044
  446MOL0     C58767   3.433  11.630   4.559  0.0944  0.0724 -0.1829
  446MOL0     C58768   3.503  11.537   4.487  0.7448 -0.4661 -0.5956
  446MOL0     C58769   3.605  11.585   4.399  0.2452  0.1964 -0.1357
  446MOL0     O58770   3.650  11.713   4.402 -0.4648  0.3531 -0.0002
  446MOL0     C58771   3.756  11.751   4.328  0.1023  0.0572 -0.5090
  446MOL0     C58772   3.766  11.732   4.196 -0.5248  0.7497 -0.0481
  446MOL0     C58773   3.881  11.768   4.129  0.3778  0.3236  0.1171
  446MOL0     C58774   3.997  11.814   4.197 -0.5391  0.1475 -0.0109
  446MOL0     O58775   4.126  11.835   4.146 -0.0802 -0.7977  0.6507
  446MOL0     C58776   4.136  11.879   4.005 -0.3063 -0.0111 -0.4219
  446MOL0     C58777   4.279  11.944   3.988 -0.6893 -0.3842 -0.1821
  446MOL0     C58778   4.393  11.841   4.030  0.9380 -0.0168 -0.7786
  446MOL0     C58779   4.538  11.887   3.996  0.5006 -0.5324 -1.1433
  446MOL0     C58780   4.571  12.027   4.059 -0.0097  0.8933  0.0113
  446MOL0     C58781   4.725  12.065   4.023 -0.4689  0.9745 -0.9390
  446MOL0     C58782   4.755  12.207   4.054  0.1480  0.1448 -0.4094
  446MOL0     C58783   4.906  12.237   4.041 -0.5842 -0.0706  0.0896
  446MOL0    Cl58784   4.936  12.386   4.124  0.4740  0.2821 -0.1131
  446MOL0     C58785   3.990  11.844   4.334  0.1650 -0.1452  0.1423
  446MOL0     C58786   3.867  11.817   4.399  1.7245 -0.1446 -0.5721
  446MOL0     O58787   3.657  11.495   4.327  0.8665 -0.1559 -0.5798
  446MOL0     C58788   3.473  11.398   4.511  0.1023  0.1202  0.2686
  446MOL0     C58789   3.365  11.360   4.599 -0.1830  0.1120 -0.1983
  446MOL0     N58790   2.921  11.456   5.212  0.0724 -0.5438 -0.8603
  446MOL0     N58791   3.021  11.405   5.277 -0.3136  0.5583  0.2152
  446MOL0     C58792   3.152  10.306   4.848  0.3606  0.7199  0.1662
  446MOL0     C58793   3.201  10.185   4.805 -0.4337  0.1345 -0.0397
  446MOL0     C58794   3.532   9.908   4.616 -0.2308  0.8866  0.5896
  446MOL0     C58795   3.515   9.821   4.727  0.0314  1.2693  0.3587
  446MOL0     C58796   3.574   9.691   4.733 -0.4027 -0.6853 -0.7013
  446MOL0     C58797   3.660   9.652   4.631 -0.1870  0.2650 -0.7899
  446MOL0     O58798   3.719   9.525   4.633 -0.1438 -1.1787 -0.2924
  446MOL0     C58799   3.629   9.412   4.629  0.2999  0.6778  1.3346
  446MOL0     C58800   3.684   9.306   4.536  0.6028 -0.1490 -0.0755
  446MOL0     C58801   3.760   9.198   4.613 -1.0107 -0.7013 -0.5140
  446MOL0     C58802   3.892   9.259   4.669  0.6965  0.5015  0.1559
  446MOL0     C58803   3.995   9.281   4.572 -0.1385  0.3506  0.8131
  446MOL0     C58804   4.071   9.298   4.484  0.8125  0.1424  0.7999
  446MOL0     C58805   3.679   9.740   4.518 -0.2141  0.6122  0.3048
  446MOL0     C58806   3.617   9.872   4.511  0.4640  0.1799 -0.4348
  446MOL0     H58807   3.524  10.281   4.723 -0.5838 -1.0077 -1.3996
  446MOL0     H58808   3.428  10.499   4.788 -1.3413  0.4040  1.2306
  446MOL0     H58809   3.311  10.703   4.811 -1.3666 -0.3526 -2.7444
  446MOL0     H58810   3.314  10.632   4.975  2.5522 -1.7077 -3.2264
  446MOL0     H58811   3.081  10.733   5.007  1.1906  1.7874  0.5230
  446MOL0     H58812   3.094  10.814   4.858 -3.7346  0.0172  1.8443
  446MOL0     H58813   3.297  10.848   5.086  1.3857  0.8583 -1.5246
  446MOL0     H58814   3.156  10.945   5.076  2.8704  2.2230  0.7316
  446MOL0     H58815   3.364  10.910   4.856 -1.1608 -1.5729 -0.2082
  446MOL0     H58816   3.205  11.002   4.850 -0.3821  1.9947  1.1382
  446MOL0     H58817   3.417  11.145   4.905  0.3478 -2.1827 -1.8993
  446MOL0     H58818   3.416  11.054   5.060 -0.9383  2.0017  0.4301
  446MOL0     H58819   3.205  11.120   5.110  1.5279 -1.3241 -2.4666
  446MOL0     H58820   3.182  11.233   4.980 -1.4227  1.1134  1.8074
  446MOL0     H58821   3.432  11.271   5.154  2.7468  3.3565 -3.7782
  446MOL0     H58822   3.344  11.377   5.040 -1.1731  1.0349  0.1230
  446MOL0     H58823   3.312  11.427   5.302  1.2598 -1.3700  2.2887
  446MOL0     H58824   3.217  11.286   5.313  0.8972  1.1744  0.5750
  446MOL0     H58825   3.170  11.526   5.009  1.0810 -0.3661  0.3412
  446MOL0     H58826   2.963  11.679   4.961  0.3286 -0.8048 -0.4573
  446MOL0     H58827   2.805  11.639   5.029 -0.1486 -1.2531  0.6332
  446MOL0     H58828   2.814  11.569   4.786  0.1285  2.8977  1.2329
  446MOL0     H58829   2.777  11.447   4.906 -2.1930  0.9181 -2.2438
  446MOL0     H58830   2.989  11.353   4.900  1.3780 -4.0491 -4.8122
  446MOL0     H58831   2.935  11.352   4.744  0.3929  1.8276 -1.6807
  446MOL0     H58832   3.099  11.587   4.806  0.9394 -0.3692 -0.7640
  446MOL0     H58833   3.051  11.527   4.649 -1.2478 -0.6084  0.2589
  446MOL0     H58834   3.285  11.666   4.715 -0.2439  2.0942 -1.6271
  446MOL0     H58835   3.458  11.735   4.558  1.6227 -0.2693  0.3389
  446MOL0     H58836   3.681  11.685   4.148 -2.8124  2.0756  2.5102
  446MOL0     H58837   3.879  11.743   4.023 -3.3758 -0.5302  0.2531
  446MOL0     H58838   4.055  11.947   3.981  0.0157  1.3495  2.0610
  446MOL0     H58839   4.120  11.800   3.931 -1.3849  1.3998 -1.7585
  446MOL0     H58840   4.291  12.039   4.042 -0.6807 -1.0915  1.1159
  446MOL0     H58841   4.290  11.957   3.880 -1.5509  0.4132 -0.1811
  446MOL0     H58842   4.383  11.744   3.981  0.8883 -0.7347  0.5935
  446MOL0     H58843   4.387  11.827   4.139  1.9816  0.8479 -0.5909
  446MOL0     H58844   4.606  11.817   4.045 -0.8972  0.0709  1.8645
  446MOL0     H58845   4.547  11.873   3.888 -1.6318  0.1171 -1.4441
  446MOL0     H58846   4.570  12.016   4.168 -0.2669  0.4754 -0.0302
  446MOL0     H58847   4.515  12.114   4.023  1.7545  2.3532  0.6549
  446MOL0     H58848   4.747  12.055   3.917 -2.4195 -2.3112 -1.1607
  446MOL0     H58849   4.773  11.991   4.089 -1.1013  0.9897 -0.4537
  446MOL0     H58850   4.703  12.269   3.980  0.6103 -0.1071 -0.9567
  446MOL0     H58851   4.734  12.218   4.160  2.7094  0.0578  0.1672
  446MOL0     H58852   4.930  12.251   3.935 -2.3816 -1.0195 -0.4890
  446MOL0     H58853   4.970  12.155   4.076 -1.5311 -1.2756 -0.9018
  446MOL0     H58854   4.080  11.888   4.376 -1.0450  2.1954  0.4381
  446MOL0     H58855   3.860  11.832   4.507  0.0945  1.1222 -0.8124
  446MOL0     H58856   3.530  11.325   4.454 -2.4094 -1.2751 -0.6194
  446MOL0     H58857   3.335  11.256   4.606 -3.9887  0.8686 -2.4586
  446MOL0     H58858   3.054  10.339   4.880  1.4639  2.6607  1.8154
  446MOL0     H58859   3.131  10.103   4.792 -2.3376  2.0679 -2.9608
  446MOL0     H58860   3.445   9.830   4.810 -1.9528 -1.2211 -0.9184
  446MOL0     H58861   3.558   9.623   4.816 -0.7723 -3.5329 -2.9248
  446MOL0     H58862   3.535   9.457   4.595  0.2571  1.4122  2.3898
  446MOL0     H58863   3.610   9.371   4.728 -3.8139  0.2554  0.5626
  446MOL0     H58864   3.599   9.253   4.491  2.4270 -2.3024 -1.1632
  446MOL0     H58865   3.742   9.360   4.460 -1.2580  0.0725 -1.4120
  446MOL0     H58866   3.787   9.111   4.552  0.6466 -1.0687  0.6509
  446MOL0     H58867   3.702   9.149   4.692 -4.1571  2.0608 -0.9239
  446MOL0     H58868   3.868   9.349   4.726  2.3375  0.6503  0.6714
  446MOL0     H58869   3.946   9.202   4.746  1.5211  1.6143  0.4240
  446MOL0     H58870   4.134   9.300   4.398 -1.6897  1.8675 -1.1169
  446MOL0     H58871   3.742   9.711   4.435 -0.7967  0.7768 -0.1951
  446MOL0     H58872   3.619   9.936   4.423 -1.4694 -0.5649 -1.0572
  447MOL0     O58873  10.902   0.210   5.762  0.7783 -0.3417 -0.1505
  447MOL0     C58874  10.849   0.266   5.668  0.7096  0.6156  0.4318
  447MOL0     O58875  10.756   0.361   5.674  0.5214 -0.3313  0.0095
  447MOL0     C58876  10.733   0.426   5.789  0.1126 -0.0710 -0.7808
  447MOL0     C58877  10.829   0.448   5.891 -0.8872 -0.3665 -0.3681
  447MOL0     C58878  10.812   0.536   6.005 -0.3772  0.4732  0.2104
  447MOL0     C58879  10.689   0.601   6.013 -1.0345  0.0904 -0.1534
  447MOL0     O58880  10.654   0.679   6.123 -0.1237  0.3151 -1.1550
  447MOL0     C58881  10.584   0.804   6.113 -0.3778  0.1736  0.4740
  447MOL0     C58882  10.610   0.907   6.221 -0.2369  0.4346 -0.2017
  447MOL0     C58883  10.759   0.948   6.229  0.6800 -0.7664 -0.2364
  447MOL0     C58884  10.775   1.068   6.132 -0.2339  0.2263 -1.1323
  447MOL0     C58885  10.921   1.086   6.097  0.3704 -0.1973  0.6027
  447MOL0     C58886  10.937   1.183   5.977  0.5745  0.7090  0.4828
  447MOL0     C58887  10.921   1.112   5.834 -0.3782  0.6706 -1.0701
  447MOL0     C58888  11.041   1.018   5.797  0.4977  0.4038  0.2995
  447MOL0     N58889  11.023   0.958   5.658  0.4220  0.0931 -0.0782
  447MOL0     C58890  10.993   0.831   5.635  0.5095 -0.0997 -0.1349
  447MOL0     C58891  10.986   0.823   5.497 -0.0711  0.4026  0.3214
  447MOL0     C58892  10.929   0.712   5.411 -0.3539 -0.3684  0.3308
  447MOL0     C58893  11.026   0.624   5.333  0.5015 -0.5094 -0.6020
  447MOL0     C58894  10.942   0.498   5.276  0.6379 -1.8013 -0.1303
  447MOL0     C58895  11.021   0.419   5.178  0.3954  0.7884  0.7375
  447MOL0     O58896  11.144   0.375   5.231 -0.0993  0.4719  0.2637
  447MOL0     C58897  11.232   0.292   5.159  0.1542 -0.4463  0.8931
  447MOL0     C58898  11.189   0.184   5.079 -0.3583 -0.2776  0.4034
  447MOL0     C58899  11.288   0.109   5.007  0.7693  0.0591  0.5789
  447MOL0     C58900  11.421   0.130   5.022 -0.6459 -0.0688  0.0871
  447MOL0     C58901  11.530   0.049   4.954  0.4217 -0.5619  1.4341
  447MOL0     O58902  11.657   0.070   4.979 -0.4555  0.3545 -0.4200
  447MOL0     C58903  11.760   0.030   4.899  0.6953  0.7041  0.0560
  447MOL0     C58904  11.754   0.019   4.765  0.4538  0.6221  0.4789
  447MOL0     C58905  11.858  -0.032   4.682  0.7592 -0.3645  0.1949
  447MOL0     C58906  11.989  -0.027   4.735 -0.5260  0.3918  0.1007
  447MOL0     O58907  12.098  -0.072   4.655 -0.0475  0.6468  0.5514
  447MOL0     C58908  12.229  -0.069   4.710 -0.1132  0.3326  0.5406
  447MOL0     C58909  12.331  -0.101   4.607 -0.6256 -0.4694  0.2565
  447MOL0     C58910  12.465  -0.128   4.672 -0.0145 -0.0472  0.0066
  447MOL0     C58911  12.575  -0.138   4.567  0.8329 -0.5420 -0.1653
  447MOL0     C58912  12.708  -0.188   4.626 -0.4856 -0.9470 -0.2061
  447MOL0     C58913  12.748  -0.129   4.753 -0.2333 -0.0367  0.4367
  447MOL0     C58914  12.880  -0.177   4.817 -0.3110 -0.3437  0.0477
  447MOL0     C58915  12.870  -0.322   4.855  0.0860  0.0595 -0.3683
  447MOL0    Cl58916  12.745  -0.352   4.988  0.1786 -0.0829  0.1136
  447MOL0     C58917  12.003  -0.011   4.872  0.3865  0.6884 -0.7842
  447MOL0     C58918  11.888   0.007   4.960  0.2477 -0.0797  1.0812
  447MOL0     O58919  11.480  -0.026   4.870  0.1589  0.1779  0.8632
  447MOL0     C58920  11.466   0.232   5.110 -0.0436  0.2696  0.3201
  447MOL0     C58921  11.376   0.315   5.175  0.4305  0.6132  0.9907
  447MOL0     N58922  11.009   0.948   5.447 -0.4453  0.3221  0.1641
  447MOL0     N58923  11.035   1.025   5.540  0.4806 -0.5546 -0.0509
  447MOL0     C58924  10.590   0.579   5.922 -0.1717 -0.8415  0.0566
  447MOL0     C58925  10.616   0.498   5.810 -0.1144 -0.3364  0.5718
  447MOL0     C58926  10.862   0.211   5.530 -0.4777 -0.6218 -0.4487
  447MOL0     C58927  10.977   0.144   5.500 -0.4203  0.0042  0.1601
  447MOL0     C58928  10.977   0.069   5.373  0.5896 -0.3537  1.0002
  447MOL0     C58929  10.877   0.071   5.283 -0.7170 -0.1448 -0.3672
  447MOL0     O58930  10.900  -0.011   5.168  0.2235 -1.2491 -0.0569
  447MOL0     C58931  10.790  -0.009   5.075 -1.0927  0.7970  0.4174
  447MOL0     C58932  10.821  -0.090   4.945  0.1302 -0.4962  0.2702
  447MOL0     C58933  10.969  -0.076   4.906 -0.0572 -0.7363  0.1509
  447MOL0     C58934  11.008  -0.133   4.771 -0.5615  0.7669 -0.0146
  447MOL0     C58935  11.042  -0.278   4.755  0.3596 -0.7579 -0.5152
  447MOL0     C58936  11.052  -0.391   4.727 -0.8544  0.1277 -0.2324
  447MOL0     C58937  10.758   0.137   5.321 -0.5262 -0.8759  0.0243
  447MOL0     C58938  10.750   0.200   5.445  0.5262  0.5089 -0.6098
  447MOL0     H58939  10.928   0.403   5.889 -0.5692  0.3507 -1.0760
  447MOL0     H58940  10.874   0.544   6.094 -1.5075  1.2277  0.9602
  447MOL0     H58941  10.476   0.785   6.111 -0.9592  1.8957  5.0071
  447MOL0     H58942  10.614   0.848   6.018  1.7862  1.0533  1.5098
  447MOL0     H58943  10.587   0.859   6.317  0.1358 -0.7285 -0.6738
  447MOL0     H58944  10.551   0.998   6.209  3.8466  3.5086  0.8067
  447MOL0     H58945  10.830   0.870   6.199  2.8595  1.5920 -1.5020
  447MOL0     H58946  10.785   0.978   6.331  0.9514  2.0412 -1.0480
  447MOL0     H58947  10.729   1.046   6.035 -3.9859 -0.2552  0.6001
  447MOL0     H58948  10.730   1.159   6.172  4.4819  2.4677 -0.2586
  447MOL0     H58949  10.956   0.984   6.076  0.0275  0.1033 -1.6721
  447MOL0     H58950  10.965   1.135   6.184 -0.0215  1.1190  0.0831
  447MOL0     H58951  11.038   1.224   5.982  1.0715  0.3796 -3.6857
  447MOL0     H58952  10.880   1.275   5.989  1.8664  1.7674 -1.0280
  447MOL0     H58953  10.833   1.047   5.829 -2.4018  3.0304  1.3860
  447MOL0     H58954  10.913   1.201   5.771  0.9418  0.6527 -1.3047
  447MOL0     H58955  11.059   0.943   5.874 -0.9568  0.5122  0.7752
  447MOL0     H58956  11.131   1.081   5.796  0.6789  0.2558 -2.6558
  447MOL0     H58957  10.996   0.750   5.707 -1.1055  0.8941  1.0915
  447MOL0     H58958  10.869   0.746   5.326  2.5681  2.3505 -0.8374
  447MOL0     H58959  10.868   0.644   5.470  0.0003 -1.0719 -0.0970
  447MOL0     H58960  11.095   0.582   5.408  3.2225  3.6358 -0.4905
  447MOL0     H58961  11.084   0.673   5.255  0.5563 -1.4903 -1.1882
  447MOL0     H58962  10.895   0.444   5.359  2.8851 -0.2874  2.2728
  447MOL0     H58963  10.867   0.549   5.214  0.5670 -3.3240 -1.3658
  447MOL0     H58964  11.027   0.457   5.075 -4.1871 -0.1261 -0.1016
  447MOL0     H58965  10.963   0.327   5.163  0.5120  0.6577  1.0688
  447MOL0     H58966  11.084   0.159   5.075 -0.6442  0.8511  0.5230
  447MOL0     H58967  11.250   0.033   4.939 -3.5671  0.8541  1.8163
  447MOL0     H58968  11.657   0.028   4.716 -1.0059  0.2906  3.1177
  447MOL0     H58969  11.833  -0.067   4.583  1.2552  0.6777 -0.3165
  447MOL0     H58970  12.242  -0.146   4.786  1.8366  0.5661  0.4815
  447MOL0     H58971  12.244   0.031   4.751 -2.0916  2.7182 -3.8317
  447MOL0     H58972  12.349  -0.014   4.542 -0.7143  0.0842  0.9529
  447MOL0     H58973  12.298  -0.187   4.549 -0.7789  0.1676 -0.6233
  447MOL0     H58974  12.468  -0.221   4.730  1.5617 -1.2139 -1.8179
  447MOL0     H58975  12.493  -0.049   4.743  2.2012  0.0270 -0.8526
  447MOL0     H58976  12.528  -0.213   4.503 -2.1546 -0.5823  1.8132
  447MOL0     H58977  12.599  -0.051   4.506  3.5302 -1.4836 -0.5543
  447MOL0     H58978  12.788  -0.170   4.554  2.1042  0.5559  2.7834
  447MOL0     H58979  12.685  -0.293   4.649 -1.7023 -0.2724  2.0065
  447MOL0     H58980  12.664  -0.153   4.819 -1.2091 -3.0199 -1.6724
  447MOL0     H58981  12.763  -0.022   4.742  1.4613 -0.4174 -1.6933
  447MOL0     H58982  12.957  -0.172   4.740 -1.3975  2.2654 -0.9892
  447MOL0     H58983  12.901  -0.100   4.892  1.9563 -0.3091 -0.5749
  447MOL0     H58984  12.968  -0.362   4.882 -0.7076 -1.3713  0.5584
  447MOL0     H58985  12.834  -0.390   4.776  0.6771 -2.3175  1.2926
  447MOL0     H58986  12.097  -0.029   4.923 -1.6436  0.0904  3.1547
  447MOL0     H58987  11.901  -0.015   5.065  0.0376 -4.2628  0.4041
  447MOL0     H58988  11.572   0.253   5.121  0.0371 -0.7767  1.7230
  447MOL0     H58989  11.409   0.401   5.233 -3.1162  3.1197 -0.2889
  447MOL0     H58990  10.495   0.631   5.932 -0.5215 -1.2538 -0.9436
  447MOL0     H58991  10.538   0.469   5.741  0.3895 -3.1407  1.0483
  447MOL0     H58992  11.058   0.128   5.570 -0.7499  0.6572  0.7079
  447MOL0     H58993  11.057  -0.001   5.349  1.4604 -0.6477  4.1830
  447MOL0     H58994  10.771   0.095   5.044  2.1067  1.0814 -0.9392
  447MOL0     H58995  10.706  -0.049   5.133  0.4681  1.5011  3.3241
  447MOL0     H58996  10.791  -0.194   4.958  1.3646 -0.6634  2.3027
  447MOL0     H58997  10.758  -0.052   4.865 -0.4920 -1.6729  0.1859
  447MOL0     H58998  11.040  -0.117   4.980  2.6244  1.7437 -0.8664
  447MOL0     H58999  10.997   0.028   4.887  4.4835 -1.9665 -1.1808
  447MOL0     H59000  10.928  -0.109   4.700  0.5939 -0.1735 -1.6932
  447MOL0     H59001  11.099  -0.087   4.730  1.2637 -3.7066 -1.5903
  447MOL0     H59002  11.060  -0.494   4.702  3.9367  0.6573 -2.0235
  447MOL0     H59003  10.673   0.138   5.254  0.2769 -2.0300 -1.0631
  447MOL0     H59004  10.651   0.237   5.471  0.1853 -0.7057 -0.1460
  448MOL0     O59005   6.484   9.266   3.037  0.1663 -0.7732 -0.2338
  448MOL0     C59006   6.522   9.162   3.086 -0.6717  0.5037 -0.2932
  448MOL0     O59007   6.645   9.147   3.148 -0.0877  0.2646 -0.8369
  448MOL0     C59008   6.750   9.228   3.124 -0.5094 -0.5592  1.1190
  448MOL0     C59009   6.744   9.372   3.115 -0.0730 -1.3180  0.8574
  448MOL0     C59010   6.870   9.437   3.102  0.4341  0.3379 -0.8376
  448MOL0     C59011   6.991   9.380   3.129 -0.0801 -0.2375 -0.8623
  448MOL0     O59012   7.114   9.425   3.136 -0.6045 -0.0142 -0.5540
  448MOL0     C59013   7.132   9.556   3.189  0.2194 -0.8997  0.4333
  448MOL0     C59014   7.111   9.659   3.076  0.2866  0.2199  0.0741
  448MOL0     C59015   7.244   9.674   3.001 -0.6212  0.5972  0.5964
  448MOL0     C59016   7.241   9.794   2.906 -0.6542 -0.1572 -0.4925
  448MOL0     C59017   7.375   9.837   2.859 -1.0022  0.5751  0.4309
  448MOL0     C59018   7.356   9.966   2.777  0.2416 -0.2530  1.0641
  448MOL0     C59019   7.488  10.022   2.729 -0.9143 -0.0808 -0.0269
  448MOL0     C59020   7.583  10.052   2.845  0.0697  0.5047  0.9064
  448MOL0     N59021   7.666   9.938   2.881 -0.3297 -0.6945  0.3540
  448MOL0     C59022   7.682   9.885   3.005 -0.1747 -0.5184  0.1354
  448MOL0     C59023   7.756   9.772   2.986  0.3316 -0.1890 -0.5412
  448MOL0     C59024   7.777   9.677   3.094  0.0689  0.0211 -0.0283
  448MOL0     C59025   7.660   9.577   3.096  0.4427  0.5814  0.5188
  448MOL0     C59026   7.686   9.476   2.982 -0.7691  0.0381  0.2233
  448MOL0     C59027   7.571   9.369   2.965  0.3040  0.2519  0.3076
  448MOL0     O59028   7.550   9.303   3.098  0.0258 -0.1291 -0.0780
  448MOL0     C59029   7.455   9.198   3.079 -0.1738  0.1537 -0.4957
  448MOL0     C59030   7.438   9.118   3.195  0.0806 -0.2786  0.8562
  448MOL0     C59031   7.338   9.022   3.200  0.3150 -0.2361  0.3646
  448MOL0     C59032   7.260   9.000   3.081  0.8815 -0.2823  0.0483
  448MOL0     C59033   7.157   8.891   3.084  0.0581 -0.0836 -0.3520
  448MOL0     O59034   7.152   8.812   3.196 -1.2611 -1.5778  0.0107
  448MOL0     C59035   7.069   8.716   3.208  0.8647  0.3202 -0.8593
  448MOL0     C59036   7.044   8.623   3.103 -0.5712  0.6518 -0.4608
  448MOL0     C59037   6.977   8.503   3.135  1.3424  0.2393  0.0184
  448MOL0     C59038   6.912   8.491   3.257 -0.6439 -0.0925 -0.1024
  448MOL0     O59039   6.839   8.379   3.271  0.3825 -0.1738 -0.1996
  448MOL0     C59040   6.791   8.332   3.394 -0.8230 -0.1275  0.5007
  448MOL0     C59041   6.731   8.195   3.391  0.5460 -0.5566  0.3225
  448MOL0     C59042   6.835   8.080   3.374 -0.0994  0.3937 -0.8805
  448MOL0     C59043   6.794   7.949   3.303  0.2911 -0.4184 -0.1691
  448MOL0     C59044   6.664   7.892   3.366 -0.1728 -0.6552  0.8165
  448MOL0     C59045   6.651   7.879   3.518 -0.1704 -0.9487 -1.2596
  448MOL0     C59046   6.508   7.832   3.547  0.4727  0.7441  0.4938
  448MOL0     C59047   6.468   7.861   3.698 -0.3220  0.6876 -0.4798
  448MOL0    Cl59048   6.406   8.034   3.720  0.1979  0.6973 -0.4288
  448MOL0     C59049   6.941   8.587   3.359 -1.0236  0.5077  0.7828
  448MOL0     C59050   7.019   8.701   3.336 -0.7927  1.0250 -0.2360
  448MOL0     O59051   7.079   8.877   2.984 -0.7000  0.0760  0.3576
  448MOL0     C59052   7.283   9.070   2.969  0.0323  1.0883 -0.4854
  448MOL0     C59053   7.378   9.167   2.960  0.2708 -0.0794  0.9726
  448MOL0     N59054   7.788   9.751   2.856  0.0919 -0.2550 -0.1304
  448MOL0     N59055   7.737   9.860   2.790 -0.2410 -0.2478 -0.3483
  448MOL0     C59056   6.993   9.241   3.143  0.1425  0.4791 -0.3911
  448MOL0     C59057   6.872   9.165   3.141  0.0044  0.3053 -0.4281
  448MOL0     C59058   6.439   9.046   3.083  0.2446  0.2691 -0.8387
  448MOL0     C59059   6.485   8.918   3.117 -0.4665  0.2228  0.5759
  448MOL0     C59060   6.391   8.809   3.120  0.9031 -0.4660 -0.7378
  448MOL0     C59061   6.260   8.821   3.089 -0.3568  1.0566 -0.4317
  448MOL0     O59062   6.171   8.725   3.086  0.4890  0.2529  0.0781
  448MOL0     C59063   6.203   8.611   3.007 -0.2961  0.9414  0.3506
  448MOL0     C59064   6.106   8.582   2.892 -0.4431  0.0803  0.2942
  448MOL0     C59065   6.160   8.618   2.751 -0.3461  0.2528 -0.7516
  448MOL0     C59066   6.221   8.754   2.737  1.0856  0.4664 -0.2509
  448MOL0     C59067   6.232   8.780   2.591  0.3136  0.5011 -0.0641
  448MOL0     C59068   6.236   8.792   2.474  0.1771 -0.7293  0.8238
  448MOL0     C59069   6.216   8.943   3.062  0.5433  0.0502  0.0638
  448MOL0     C59070   6.301   9.052   3.044 -0.3831 -0.4938 -0.2890
  448MOL0     H59071   6.650   9.422   3.092  0.0242  0.6259  4.0768
  448MOL0     H59072   6.872   9.546   3.101  0.7803  0.8038  5.4924
  448MOL0     H59073   7.234   9.561   3.227 -0.2321 -1.3740  1.7507
  448MOL0     H59074   7.053   9.586   3.258 -1.2098  2.1778 -2.2445
  448MOL0     H59075   7.079   9.755   3.117 -0.5883  0.1695 -0.4689
  448MOL0     H59076   7.033   9.641   3.002  1.0169  2.3818 -1.3101
  448MOL0     H59077   7.287   9.586   2.953 -0.6900  0.7232  0.3038
  448MOL0     H59078   7.320   9.692   3.078  0.0053 -0.7916  0.3243
  448MOL0     H59079   7.175   9.763   2.824 -0.7933 -1.8679  0.2182
  448MOL0     H59080   7.198   9.879   2.961  0.9356 -0.4632  1.3465
  448MOL0     H59081   7.406   9.756   2.793 -0.9577  1.2751 -0.4293
  448MOL0     H59082   7.435   9.854   2.949 -0.3044  0.8129 -0.0712
  448MOL0     H59083   7.304  10.048   2.828 -0.8103  1.2433 -2.1456
  448MOL0     H59084   7.307   9.947   2.681 -3.7991  0.6706  2.7075
  448MOL0     H59085   7.530   9.952   2.656 -3.8709 -1.3250 -0.6651
  448MOL0     H59086   7.476  10.115   2.672 -0.4502  0.8010  1.2667
  448MOL0     H59087   7.524  10.080   2.932 -2.5705  5.0432 -1.9507
  448MOL0     H59088   7.667  10.118   2.820  2.0860 -1.3392  2.3950
  448MOL0     H59089   7.647   9.910   3.105  0.9158 -0.7432  0.5845
  448MOL0     H59090   7.780   9.719   3.195  1.0160  2.1725 -0.8908
  448MOL0     H59091   7.870   9.633   3.058 -2.5333 -3.7129 -3.0910
  448MOL0     H59092   7.568   9.634   3.076 -0.3787 -1.5923 -2.8526
  448MOL0     H59093   7.643   9.525   3.191  0.1862  0.5777  0.4737
  448MOL0     H59094   7.701   9.526   2.885  3.3756  0.2661  0.8008
  448MOL0     H59095   7.776   9.418   3.001 -2.5320 -3.3760 -1.1070
  448MOL0     H59096   7.596   9.286   2.898 -0.3687  0.7232 -0.5456
  448MOL0     H59097   7.477   9.412   2.930 -1.9519 -2.8400  2.1253
  448MOL0     H59098   7.498   9.126   3.285  0.6218 -1.3194  0.6035
  448MOL0     H59099   7.335   8.965   3.292  0.9816 -0.6207  0.1596
  448MOL0     H59100   7.072   8.619   2.998 -1.9895 -0.5243 -0.8327
  448MOL0     H59101   6.973   8.425   3.060  0.2665 -0.3730  0.6804
  448MOL0     H59102   6.712   8.401   3.425 -4.3147 -3.2453 -0.7822
  448MOL0     H59103   6.869   8.327   3.471 -0.3768 -2.8434 -0.0342
  448MOL0     H59104   6.668   8.205   3.302 -0.9531  0.4971  1.4695
  448MOL0     H59105   6.665   8.189   3.478 -0.1755  1.4726 -0.0299
  448MOL0     H59106   6.876   8.062   3.474  2.7347  3.4094 -1.3197
  448MOL0     H59107   6.921   8.117   3.317  0.2785 -0.6025 -0.9757
  448MOL0     H59108   6.778   7.974   3.198  2.2051 -0.3845 -0.4893
  448MOL0     H59109   6.877   7.878   3.302  0.4736 -0.2058 -0.1508
  448MOL0     H59110   6.662   7.790   3.325 -1.6066 -0.2007 -0.3447
  448MOL0     H59111   6.582   7.952   3.325 -0.1697 -0.1799  1.4960
  448MOL0     H59112   6.672   7.974   3.567  4.1911 -1.2924 -2.0644
  448MOL0     H59113   6.729   7.813   3.558  1.8066  1.0192 -1.6487
  448MOL0     H59114   6.437   7.873   3.473  0.3618 -2.8405 -1.6266
  448MOL0     H59115   6.506   7.727   3.517  2.1034  0.3281  1.7407
  448MOL0     H59116   6.555   7.853   3.765 -0.7751  0.4047  0.0813
  448MOL0     H59117   6.389   7.797   3.738 -0.4327 -0.5943 -2.6192
  448MOL0     H59118   6.904   8.575   3.461 -1.2116  4.0369  1.2318
  448MOL0     H59119   7.043   8.756   3.426  1.3116 -2.2508  1.3976
  448MOL0     H59120   7.212   9.056   2.888 -0.0231 -1.6110 -0.0582
  448MOL0     H59121   7.380   9.206   2.859  1.1779 -1.2001  0.5308
  448MOL0     H59122   7.083   9.182   3.157  0.6549  0.8684 -1.8780
  448MOL0     H59123   6.865   9.057   3.147  0.5146  0.1333 -2.3862
  448MOL0     H59124   6.586   8.888   3.146 -0.8564 -0.2652  1.4663
  448MOL0     H59125   6.424   8.708   3.143 -3.3167 -1.5545  1.4000
  448MOL0     H59126   6.197   8.526   3.075 -0.7697 -1.5601 -2.5986
  448MOL0     H59127   6.304   8.613   2.964  0.5836 -1.1383  2.1224
  448MOL0     H59128   6.100   8.474   2.882 -1.5228 -0.0853  2.2490
  448MOL0     H59129   6.008   8.618   2.923  0.9097  1.8974  2.8815
  448MOL0     H59130   6.079   8.609   2.679 -0.5327  0.8358 -0.6220
  448MOL0     H59131   6.236   8.544   2.725  0.6480  1.7605 -2.3790
  448MOL0     H59132   6.163   8.836   2.782  4.2830  3.8981 -1.8243
  448MOL0     H59133   6.312   8.756   2.797  0.4716  3.4984  0.7696
  448MOL0     H59134   6.255   8.812   2.370  1.0297 -1.0271  0.9088
  448MOL0     H59135   6.109   8.963   3.054  0.7031  0.5818 -0.9583
  448MOL0     H59136   6.260   9.148   3.013 -1.0384  0.3640  2.9033
  449MOL0     O59137   3.625   2.678   6.655  0.5775  0.0021 -0.5842
  449MOL0     C59138   3.618   2.793   6.615  0.5071 -1.2318 -0.4189
  449MOL0     O59139   3.520   2.874   6.659 -0.2307 -0.4533  0.1611
  449MOL0     C59140   3.475   2.856   6.785  0.6759  0.0930  0.1456
  449MOL0     C59141   3.549   2.826   6.901  0.3214  0.0784 -0.7607
  449MOL0     C59142   3.488   2.832   7.029 -0.2036 -0.7614 -0.4789
  449MOL0     C59143   3.346   2.853   7.041 -0.9492 -0.1600 -0.3568
  449MOL0     O59144   3.289   2.869   7.165  0.0350  0.5152 -0.4050
  449MOL0     C59145   3.272   3.013   7.204  1.0030  0.6986 -0.0338
  449MOL0     C59146   3.163   3.009   7.325 -0.3305  0.2868 -0.2525
  449MOL0     C59147   3.047   2.927   7.281  0.2565 -0.1180  1.2818
  449MOL0     C59148   2.927   2.944   7.381  0.4584  0.0238 -0.1068
  449MOL0     C59149   2.810   2.846   7.365 -0.0123  0.2135  0.2091
  449MOL0     C59150   2.705   2.873   7.474 -0.0762  0.0523  0.7592
  449MOL0     C59151   2.597   2.773   7.459 -0.8226 -0.1866 -0.2947
  449MOL0     C59152   2.531   2.780   7.317  0.8893 -0.7877 -1.0918
  449MOL0     N59153   2.384   2.769   7.331 -0.5709  0.6870 -0.1029
  449MOL0     C59154   2.293   2.869   7.367  0.4117  0.2274 -0.4205
  449MOL0     C59155   2.175   2.814   7.338 -0.7041  0.3151  0.5395
  449MOL0     C59156   2.053   2.887   7.369 -0.3660  0.4661  0.1925
  449MOL0     C59157   2.066   2.973   7.496 -0.7297  0.5708  0.2478
  449MOL0     C59158   2.093   2.896   7.622 -0.5063  0.5275 -0.2850
  449MOL0     C59159   1.965   2.841   7.675  0.1823 -0.0787 -0.2382
  449MOL0     O59160   1.884   2.949   7.723  0.0206  0.8676  0.3445
  449MOL0     C59161   1.751   2.926   7.714  0.2359 -0.0769  0.9467
  449MOL0     C59162   1.687   2.896   7.592 -0.3362  0.2515 -1.1140
  449MOL0     C59163   1.554   2.874   7.584  0.5369  0.2970 -0.0403
  449MOL0     C59164   1.472   2.898   7.693  0.9065 -0.5851 -0.5400
  449MOL0     C59165   1.325   2.865   7.689  0.9114  0.4228  0.4744
  449MOL0     O59166   1.252   2.892   7.800 -0.6776  0.4475  0.1319
  449MOL0     C59167   1.113   2.897   7.808  0.5697  0.5246  0.4403
  449MOL0     C59168   1.036   2.955   7.705  0.1203 -0.4780 -0.4396
  449MOL0     C59169   0.894   2.945   7.705  0.0904 -0.0496 -0.8269
  449MOL0     C59170   0.832   2.889   7.820 -0.0157 -0.0693  0.9023
  449MOL0     O59171   0.696   2.889   7.846  0.0703 -0.7982 -0.1012
  449MOL0     C59172   0.609   2.958   7.753 -0.0312  0.0712 -0.5749
  449MOL0     C59173   0.584   2.861   7.642 -0.2197  0.0353  0.0697
  449MOL0     C59174   0.509   2.731   7.692  0.8958 -0.0696  0.0319
  449MOL0     C59175   0.460   2.641   7.580  0.1389  0.0630  1.2717
  449MOL0     C59176   0.570   2.561   7.505  0.2292  0.1808 -1.1191
  449MOL0     C59177   0.527   2.444   7.410 -0.2360  0.5967  0.4788
  449MOL0     C59178   0.473   2.320   7.484  0.0387  0.9653 -0.1392
  449MOL0     C59179   0.555   2.244   7.589  1.1596  0.1791  0.4042
  449MOL0    Cl59180   0.653   2.128   7.498  0.6237 -0.1826 -0.2134
  449MOL0     C59181   0.911   2.850   7.929 -0.8819  0.0409  0.9900
  449MOL0     C59182   1.048   2.853   7.926 -0.4393 -0.1788  0.6780
  449MOL0     O59183   1.274   2.823   7.584  0.0070  0.9709 -0.3928
  449MOL0     C59184   1.534   2.951   7.814  1.0253  0.1082  0.1897
  449MOL0     C59185   1.674   2.952   7.825  0.2796 -0.0919  0.5189
  449MOL0     N59186   2.196   2.678   7.304 -0.3704  0.5239  0.1093
  449MOL0     N59187   2.324   2.660   7.291  0.2210  0.5218 -0.3916
  449MOL0     C59188   3.275   2.868   6.925  0.9334  0.2233  0.9186
  449MOL0     C59189   3.337   2.873   6.798  0.9835 -0.5830  0.7981
  449MOL0     C59190   3.714   2.826   6.505 -0.6570  0.1406  1.7580
  449MOL0     C59191   3.685   2.927   6.413 -0.0978 -0.1836 -0.8815
  449MOL0     C59192   3.769   2.962   6.305 -0.9812 -0.4797  0.2904
  449MOL0     C59193   3.895   2.882   6.291  1.0841  1.1104 -0.5315
  449MOL0     O59194   3.970   2.892   6.184  0.5242 -0.5116  0.2625
  449MOL0     C59195   4.108   2.937   6.202  0.8144 -0.8900 -0.3703
  449MOL0     C59196   4.199   2.891   6.083  0.0118  0.5631 -0.2436
  449MOL0     C59197   4.171   2.754   6.033  0.1640 -0.3179  0.3278
  449MOL0     C59198   4.299   2.674   5.995 -0.1997 -0.1715 -0.6420
  449MOL0     C59199   4.376   2.750   5.887 -0.0871  0.8308 -0.3103
  449MOL0     C59200   4.429   2.823   5.807 -0.6139 -1.1279 -0.1252
  449MOL0     C59201   3.917   2.776   6.380 -0.7604  0.4059 -0.1736
  449MOL0     C59202   3.827   2.746   6.483 -0.1831 -0.4005  0.3526
  449MOL0     H59203   3.657   2.820   6.903  0.5382  2.9133  1.0515
  449MOL0     H59204   3.536   2.827   7.126  1.9388 -0.0115 -1.4624
  449MOL0     H59205   3.237   3.073   7.119 -0.7756 -0.3003 -0.0447
  449MOL0     H59206   3.371   3.046   7.237  1.2893  2.6077 -2.4755
  449MOL0     H59207   3.134   3.109   7.358 -0.9362 -1.2421  4.6135
  449MOL0     H59208   3.213   2.970   7.414 -0.7045  1.7245  0.6180
  449MOL0     H59209   3.074   2.821   7.284 -0.6930 -0.4722 -0.6542
  449MOL0     H59210   3.022   2.950   7.177  1.3479 -0.5832  0.9071
  449MOL0     H59211   2.966   2.918   7.480  0.4979  0.4142 -0.0181
  449MOL0     H59212   2.891   3.047   7.374  0.6657  0.0423 -0.9518
  449MOL0     H59213   2.840   2.741   7.368 -0.0854 -0.0155 -3.1135
  449MOL0     H59214   2.784   2.842   7.258  5.1782 -1.6612 -1.3190
  449MOL0     H59215   2.668   2.976   7.470  1.1558  0.6794  3.6008
  449MOL0     H59216   2.750   2.870   7.574  2.1856  1.2723 -0.1506
  449MOL0     H59217   2.640   2.672   7.463  1.6351  0.8048 -0.5105
  449MOL0     H59218   2.528   2.800   7.540 -0.3222 -0.3882  0.1969
  449MOL0     H59219   2.560   2.689   7.263 -0.1643 -2.4748  1.0399
  449MOL0     H59220   2.562   2.863   7.253 -3.5762  0.6676 -1.7287
  449MOL0     H59221   2.312   2.972   7.395 -1.1779  0.6754 -0.8681
  449MOL0     H59222   1.967   2.819   7.363  0.2966 -0.5403  1.3610
  449MOL0     H59223   2.038   2.961   7.290 -2.2557  1.6128  1.5405
  449MOL0     H59224   1.975   3.034   7.505 -0.5839  0.7956  0.1854
  449MOL0     H59225   2.152   3.039   7.484 -0.3308 -0.0534 -0.4331
  449MOL0     H59226   2.164   2.817   7.597 -0.4570  0.6832 -0.6425
  449MOL0     H59227   2.138   2.952   7.705  1.4557  0.1932 -1.0804
  449MOL0     H59228   1.983   2.777   7.762  0.3320  0.6543  0.2695
  449MOL0     H59229   1.917   2.775   7.601 -0.0411 -0.9787  0.6847
  449MOL0     H59230   1.758   2.877   7.513  3.6743  2.3392  1.6287
  449MOL0     H59231   1.510   2.856   7.486 -0.2362 -1.5340  0.6052
  449MOL0     H59232   1.093   2.977   7.615 -0.7052 -4.6201 -2.1992
  449MOL0     H59233   0.833   2.984   7.624  0.6137  0.2073 -1.1002
  449MOL0     H59234   0.644   3.050   7.707 -1.1296  0.2746 -1.0436
  449MOL0     H59235   0.508   2.968   7.795 -1.3068 -4.0917 -2.1477
  449MOL0     H59236   0.679   2.835   7.595  0.3960 -0.8647  1.7529
  449MOL0     H59237   0.508   2.916   7.585 -2.8227  0.0079  3.2465
  449MOL0     H59238   0.424   2.766   7.752  0.8343 -0.4772  0.1914
  449MOL0     H59239   0.571   2.671   7.759  0.4009 -2.4129 -1.4572
  449MOL0     H59240   0.393   2.565   7.623 -2.3948 -0.1337 -2.5354
  449MOL0     H59241   0.405   2.706   7.512  0.9186  1.4368  1.9255
  449MOL0     H59242   0.645   2.516   7.571  1.9705  1.8319 -1.8716
  449MOL0     H59243   0.639   2.619   7.443  4.1011 -1.3941  1.2889
  449MOL0     H59244   0.605   2.406   7.343 -0.2634 -1.0723  1.3391
  449MOL0     H59245   0.442   2.483   7.353 -1.2579  0.0783  1.6074
  449MOL0     H59246   0.381   2.364   7.524  0.3088  1.6765 -0.2905
  449MOL0     H59247   0.459   2.250   7.402  3.7704  1.7206 -1.6062
  449MOL0     H59248   0.488   2.191   7.658 -3.3566  2.6984 -1.5636
  449MOL0     H59249   0.613   2.322   7.638  0.1397  1.6075 -0.5714
  449MOL0     H59250   0.844   2.823   8.010 -1.8570  4.7385  2.0566
  449MOL0     H59251   1.120   2.820   8.001  2.4179 -1.3852 -2.3252
  449MOL0     H59252   1.474   2.976   7.901  0.8780 -2.3523  0.8606
  449MOL0     H59253   1.710   2.994   7.918 -0.4864 -0.2265  0.8909
  449MOL0     H59254   3.167   2.882   6.922  0.4071 -3.1256 -0.4198
  449MOL0     H59255   3.283   2.899   6.708  1.1969  1.7149  1.2872
  449MOL0     H59256   3.591   2.980   6.419 -2.0595 -3.5249  0.2270
  449MOL0     H59257   3.738   3.043   6.240 -1.5484 -0.3649  0.6939
  449MOL0     H59258   4.138   2.907   6.303  1.1076  2.9403  0.8238
  449MOL0     H59259   4.116   3.046   6.194 -0.1933 -0.7704  0.0172
  449MOL0     H59260   4.184   2.954   5.995  0.3916 -1.1323 -1.5802
  449MOL0     H59261   4.300   2.912   6.120  0.2608  0.1116 -0.6499
  449MOL0     H59262   4.109   2.757   5.942  1.3075  1.3820 -0.4458
  449MOL0     H59263   4.117   2.694   6.106 -0.7677  1.6274  1.2863
  449MOL0     H59264   4.352   2.658   6.090  0.6552 -0.3364 -1.1372
  449MOL0     H59265   4.269   2.576   5.958  0.2718 -1.0586  1.1882
  449MOL0     H59266   4.473   2.881   5.728 -0.3821 -2.1692 -0.7757
  449MOL0     H59267   4.008   2.717   6.372 -0.5236  0.6793  0.4307
  449MOL0     H59268   3.850   2.665   6.552  0.2088 -1.7760 -1.3213
  450MOL0     O59269   2.039   8.890   9.167 -0.2493  0.5943  0.2670
  450MOL0     C59270   1.950   8.825   9.225 -0.0009  0.0333 -0.0995
  450MOL0     O59271   1.824   8.805   9.182  1.0373 -0.0289  0.1229
  450MOL0     C59272   1.774   8.889   9.081  0.5887  0.0674 -0.9619
  450MOL0     C59273   1.768   8.854   8.948 -0.0926  0.8712  0.4621
  450MOL0     C59274   1.701   8.937   8.854  0.5678  0.5650 -1.3182
  450MOL0     C59275   1.648   9.058   8.894 -1.2027 -0.2507 -0.2396
  450MOL0     O59276   1.580   9.129   8.802  0.4868  0.1293 -0.8748
  450MOL0     C59277   1.452   9.080   8.758  0.0189  0.7285  0.2735
  450MOL0     C59278   1.369   9.199   8.763  0.5807  0.4153 -0.3696
  450MOL0     C59279   1.403   9.291   8.649  0.7014 -0.0846  0.1545
  450MOL0     C59280   1.337   9.430   8.663  0.7693 -0.3492  0.2238
  450MOL0     C59281   1.388   9.523   8.545 -0.6072  0.3217 -0.1200
  450MOL0     C59282   1.361   9.670   8.566  0.7026  0.4137  0.1919
  450MOL0     C59283   1.425   9.762   8.477 -0.6622  0.6636 -0.4886
  450MOL0     C59284   1.352   9.890   8.455  0.0758  0.5366  0.2227
  450MOL0     N59285   1.345   9.965   8.573 -0.3386  0.2909  0.4668
  450MOL0     C59286   1.274   9.937   8.688  0.7953  0.8262  1.0106
  450MOL0     C59287   1.316  10.017   8.783 -0.4200  0.2597 -0.5457
  450MOL0     C59288   1.259  10.009   8.923  0.1218 -0.1839  0.6393
  450MOL0     C59289   1.360  10.019   9.030  0.7056 -0.8458 -0.7459
  450MOL0     C59290   1.294  10.054   9.165 -0.6315  0.2726  0.1020
  450MOL0     C59291   1.423  10.073   9.261 -0.1348 -0.2984  0.2768
  450MOL0     O59292   1.373  10.075   9.398  0.1646  0.1961 -0.5833
  450MOL0     C59293   1.428   9.986   9.483  0.2298  0.0301 -0.7665
  450MOL0     C59294   1.415  10.015   9.617 -0.5990 -0.0976 -0.3997
  450MOL0     C59295   1.476   9.936   9.721  0.4136 -0.4746 -0.5510
  450MOL0     C59296   1.558   9.821   9.684 -0.3008 -0.1419  1.2457
  450MOL0     C59297   1.636   9.748   9.782  0.7825  0.4767 -1.0220
  450MOL0     O59298   1.618   9.789   9.911 -0.5179 -0.2177  0.3902
  450MOL0     C59299   1.686   9.721  10.001  0.3947  0.6282 -0.3357
  450MOL0     C59300   1.825   9.698   9.992  0.3919 -0.3304 -0.8701
  450MOL0     C59301   1.878   9.614  10.091  0.6995 -0.0427  0.4537
  450MOL0     C59302   1.810   9.561  10.195 -0.0573  0.4563  0.3598
  450MOL0     O59303   1.886   9.493  10.285  0.2364  0.4531  0.3796
  450MOL0     C59304   1.827   9.387  10.368 -0.2752 -0.0795  1.1921
  450MOL0     C59305   1.942   9.302  10.429  0.1387  0.5607  0.8002
  450MOL0     C59306   2.062   9.301  10.333 -0.1295  0.2764 -0.6041
  450MOL0     C59307   2.143   9.169  10.340  0.1642  0.8832 -0.6831
  450MOL0     C59308   2.213   9.165  10.481 -0.0267 -0.0644 -0.1105
  450MOL0     C59309   2.306   9.036  10.499  1.1207 -0.1031 -0.3740
  450MOL0     C59310   2.453   9.068  10.535 -0.2541  0.1980  0.4687
  450MOL0     C59311   2.510   8.952  10.598  0.1258 -0.3787  0.5406
  450MOL0    Cl59312   2.691   8.986  10.613 -0.1266  0.0211 -0.3524
  450MOL0     C59313   1.668   9.582  10.199 -0.5665 -0.6839 -0.3044
  450MOL0     C59314   1.602   9.668  10.107 -0.1352  0.2254 -0.5295
  450MOL0     O59315   1.689   9.639   9.748  1.1280  0.1287  0.6220
  450MOL0     C59316   1.574   9.792   9.542  0.2479  0.4013  0.0337
  450MOL0     C59317   1.497   9.862   9.449 -0.6399 -0.7593  0.8865
  450MOL0     N59318   1.422  10.089   8.738 -0.1974 -0.3274  0.5515
  450MOL0     N59319   1.436  10.062   8.613 -0.5558  1.3284 -1.5072
  450MOL0     C59320   1.661   9.091   9.028 -0.9970 -0.2018 -0.0160
  450MOL0     C59321   1.728   9.014   9.117 -0.6181 -0.3754  0.6766
  450MOL0     C59322   1.992   8.766   9.347  1.0528  1.0048  0.0164
  450MOL0     C59323   1.902   8.739   9.450  0.7571  0.5868 -1.5446
  450MOL0     C59324   1.927   8.656   9.565  0.0917 -0.8019 -0.2707
  450MOL0     C59325   2.056   8.599   9.569  0.3175  0.1359 -0.0272
  450MOL0     O59326   2.092   8.512   9.676  0.8865  0.4592 -0.2772
  450MOL0     C59327   2.190   8.567   9.765  0.1389  0.4307  0.2144
  450MOL0     C59328   2.350   8.544   9.725  0.7556  0.0285 -0.1882
  450MOL0     C59329   2.426   8.488   9.843 -0.5232  1.2223  0.6857
  450MOL0     C59330   2.582   8.499   9.819 -0.0130 -0.2866  0.3311
  450MOL0     C59331   2.642   8.417   9.713 -0.0786 -0.2282 -0.3837
  450MOL0     C59332   2.678   8.339   9.631 -0.0768  0.1274 -0.3029
  450MOL0     C59333   2.145   8.603   9.456 -0.6210 -1.0457 -0.6456
  450MOL0     C59334   2.111   8.696   9.352 -0.3319 -0.1953 -0.0659
  450MOL0     H59335   1.823   8.764   8.922 -1.2380  0.7414 -1.7913
  450MOL0     H59336   1.703   8.907   8.750  2.0942 -0.9454 -0.9163
  450MOL0     H59337   1.422   9.001   8.827  3.7099 -2.6641 -1.5473
  450MOL0     H59338   1.449   9.037   8.657 -2.0171 -0.9548  0.9818
  450MOL0     H59339   1.394   9.250   8.856 -0.9351 -1.5437  1.1975
  450MOL0     H59340   1.265   9.171   8.781 -0.4534  1.8420 -3.4697
  450MOL0     H59341   1.369   9.256   8.551  0.5345  0.6210 -0.0428
  450MOL0     H59342   1.509   9.318   8.650  0.0936  2.7234  2.9941
  450MOL0     H59343   1.229   9.416   8.664  0.8999 -1.6007 -1.1103
  450MOL0     H59344   1.358   9.482   8.757  0.7719  1.1103 -0.5433
  450MOL0     H59345   1.351   9.468   8.459  1.3924 -3.5259  1.2219
  450MOL0     H59346   1.494   9.501   8.528 -0.9051 -0.4216 -1.1459
  450MOL0     H59347   1.388   9.692   8.670 -1.7773 -0.7692  1.1705
  450MOL0     H59348   1.255   9.697   8.563  0.7639  0.6013 -0.3027
  450MOL0     H59349   1.522   9.779   8.524  1.1616 -0.6948 -3.4684
  450MOL0     H59350   1.444   9.722   8.377  1.0869  0.6012 -0.1671
  450MOL0     H59351   1.252   9.873   8.414  0.8259 -0.5448 -1.2626
  450MOL0     H59352   1.401   9.955   8.382 -1.4549  2.1153  0.5087
  450MOL0     H59353   1.196   9.863   8.704 -1.1325  2.6960  0.6704
  450MOL0     H59354   1.209   9.911   8.920  0.5829 -0.4285 -1.8935
  450MOL0     H59355   1.190  10.093   8.938  1.4159  1.2479 -0.9914
  450MOL0     H59356   1.430  10.096   8.995 -1.4753  1.0967 -1.0573
  450MOL0     H59357   1.413   9.923   9.028  0.7727 -0.8062 -1.0727
  450MOL0     H59358   1.234  10.145   9.165 -0.4577  0.4033 -1.6030
  450MOL0     H59359   1.227   9.970   9.188  1.0374 -0.7511  1.4237
  450MOL0     H59360   1.461  10.170   9.229 -1.4619  1.1181  2.6934
  450MOL0     H59361   1.500  10.000   9.236  0.7303  1.0435 -1.1163
  450MOL0     H59362   1.366  10.111   9.630  2.5403  1.4138  1.4633
  450MOL0     H59363   1.443   9.962   9.821  3.5861 -0.4573  0.6168
  450MOL0     H59364   1.892   9.716   9.908  3.1605  1.9869  1.6104
  450MOL0     H59365   1.981   9.583  10.075  0.6180 -0.4409  0.6819
  450MOL0     H59366   1.762   9.319  10.312  1.5107 -3.5109  3.0029
  450MOL0     H59367   1.770   9.434  10.448  0.1360  1.4935  0.6005
  450MOL0     H59368   1.909   9.197  10.427  1.9891 -0.0738 -1.6559
  450MOL0     H59369   1.979   9.341  10.524  3.8582  0.8996 -0.6186
  450MOL0     H59370   2.133   9.379  10.363  5.7116 -4.1243 -1.1518
  450MOL0     H59371   2.035   9.325  10.229 -0.5347 -1.2261 -0.8812
  450MOL0     H59372   2.084   9.080  10.316  1.8509  0.4870 -4.0455
  450MOL0     H59373   2.222   9.180  10.265  0.5966 -0.4628 -0.4624
  450MOL0     H59374   2.149   9.183  10.567  0.8803  1.4363  0.2755
  450MOL0     H59375   2.276   9.253  10.473  0.4922 -0.5539 -1.9975
  450MOL0     H59376   2.296   8.982  10.405 -2.3862  0.4995 -0.4743
  450MOL0     H59377   2.258   8.976  10.577 -0.4424  3.7254  1.9054
  450MOL0     H59378   2.511   9.087  10.444  1.7271 -1.4552  1.3166
  450MOL0     H59379   2.473   9.155  10.598 -0.9320  1.4056 -0.8991
  450MOL0     H59380   2.504   8.859  10.540  1.9071 -2.6657  3.7485
  450MOL0     H59381   2.472   8.941  10.700  0.9933  1.2054  1.0658
  450MOL0     H59382   1.601   9.534  10.271 -0.4503  0.2721  0.4629
  450MOL0     H59383   1.495   9.658  10.095  0.1457 -1.6561 -1.8578
  450MOL0     H59384   1.631   9.702   9.519 -2.7088 -2.1437  1.9374
  450MOL0     H59385   1.502   9.826   9.347 -2.3644 -1.2049  0.9274
  450MOL0     H59386   1.617   9.188   9.048 -2.7889 -1.0591  0.4261
  450MOL0     H59387   1.732   9.045   9.221  0.0707 -2.4739  1.3191
  450MOL0     H59388   1.804   8.786   9.449  0.8202  0.9869  1.4515
  450MOL0     H59389   1.852   8.660   9.643 -0.6970  2.3495 -1.0602
  450MOL0     H59390   2.178   8.509   9.857 -2.0032  0.8169  0.2165
  450MOL0     H59391   2.178   8.674   9.788  0.4919  0.1622  1.7359
  450MOL0     H59392   2.379   8.480   9.641  2.4555 -0.6465  0.8521
  450MOL0     H59393   2.395   8.640   9.698  0.9968 -0.2527 -0.8139
  450MOL0     H59394   2.396   8.384   9.859 -0.3292  0.9912 -0.3754
  450MOL0     H59395   2.406   8.556   9.927  0.4224 -0.7888  2.6511
  450MOL0     H59396   2.591   8.602   9.783 -1.5107 -0.5360 -0.8423
  450MOL0     H59397   2.643   8.480   9.908 -0.3974  0.5622  0.7926
  450MOL0     H59398   2.703   8.272   9.551  1.4573  0.8269 -0.4405
  450MOL0     H59399   2.238   8.548   9.462  0.0659  0.1694  3.5939
  450MOL0     H59400   2.184   8.692   9.272 -0.6242 -1.0032 -0.3005
  451MOL0     O59401   0.499   0.969   5.006 -0.4133 -0.7428 -0.9335
  451MOL0     C59402   0.513   0.919   5.118 -0.6007 -0.4236 -0.7728
  451MOL0     O59403   0.428   0.956   5.226 -1.6678  0.4211  0.6790
  451MOL0     C59404   0.319   1.027   5.201 -0.5057 -0.3686 -0.8465
  451MOL0     C59405   0.200   0.988   5.247  0.8370 -0.8593 -0.2959
  451MOL0     C59406   0.083   1.045   5.221  0.2633 -0.3577 -0.9005
  451MOL0     C59407   0.076   1.173   5.148 -0.7500 -0.3840 -0.0053
  451MOL0     O59408  -0.025   1.264   5.129 -1.1470 -0.1376 -0.4727
  451MOL0     C59409  -0.132   1.247   5.220 -0.0825 -0.5541  0.0099
  451MOL0     C59410  -0.260   1.320   5.185 -0.0796 -0.4321  0.1977
  451MOL0     C59411  -0.242   1.472   5.211  0.4687  0.4430 -0.5540
  451MOL0     C59412  -0.302   1.532   5.342  0.0624  0.8220  0.0755
  451MOL0     C59413  -0.269   1.676   5.348 -0.8396  0.5249  0.5588
  451MOL0     C59414  -0.313   1.740   5.472 -0.1127  0.1320 -0.5735
  451MOL0     C59415  -0.286   1.897   5.472 -0.1310  0.1067  0.2941
  451MOL0     C59416  -0.149   1.934   5.398 -0.2931 -0.2484  0.7811
  451MOL0     N59417  -0.110   2.070   5.418  0.3522 -0.1074  0.2954
  451MOL0     C59418  -0.184   2.190   5.433 -0.5078  0.0818  0.0905
  451MOL0     C59419  -0.099   2.286   5.469 -0.1785 -0.6634  0.3657
  451MOL0     C59420  -0.110   2.435   5.494 -0.5653 -0.2783  0.3618
  451MOL0     C59421  -0.095   2.531   5.374  0.2330  0.4085  0.2830
  451MOL0     C59422   0.026   2.610   5.372 -0.5805  0.0125 -0.0419
  451MOL0     C59423   0.015   2.733   5.275 -1.2250 -0.0358 -0.4245
  451MOL0     O59424  -0.077   2.833   5.335  0.4711  0.2774  0.5345
  451MOL0     C59425  -0.057   2.963   5.315 -0.2763 -0.2768 -0.3943
  451MOL0     C59426  -0.131   3.033   5.409  0.1902 -0.2935  0.2474
  451MOL0     C59427  -0.101   3.170   5.420  0.1860  0.2161  0.1651
  451MOL0     C59428  -0.006   3.227   5.336 -0.2301 -0.7237 -0.1910
  451MOL0     C59429   0.013   3.375   5.344  0.2806 -0.4109  0.5492
  451MOL0     O59430   0.112   3.432   5.261  0.0560  0.2959 -0.0793
  451MOL0     C59431   0.128   3.567   5.249 -0.2222 -0.8024  0.1744
  451MOL0     C59432   0.026   3.651   5.197 -0.0938 -0.2818 -1.3998
  451MOL0     C59433   0.057   3.780   5.182  0.7821 -0.9167 -0.7697
  451MOL0     C59434   0.182   3.839   5.206 -0.4397  1.2766  0.0975
  451MOL0     O59435   0.184   3.973   5.178  0.1599 -0.1058 -0.3416
  451MOL0     C59436   0.291   3.999   5.085 -0.0064 -0.4204 -0.2284
  451MOL0     C59437   0.240   4.116   5.002 -0.0496  0.1564  1.0426
  451MOL0     C59438   0.346   4.181   4.913  0.2837  0.2750 -0.2659
  451MOL0     C59439   0.285   4.325   4.890 -0.4193  1.0589  1.3546
  451MOL0     C59440   0.379   4.410   4.796 -0.1574  0.2327 -0.1797
  451MOL0     C59441   0.344   4.555   4.797 -0.3579  0.1884  0.0746
  451MOL0     C59442   0.463   4.623   4.729 -0.6559 -0.1013 -0.0708
  451MOL0     C59443   0.441   4.771   4.718 -1.2066  0.2564  0.9441
  451MOL0    Cl59444   0.578   4.857   4.648 -0.2042  0.3552 -0.0802
  451MOL0     C59445   0.282   3.758   5.256 -0.5930 -0.0893  0.0959
  451MOL0     C59446   0.257   3.627   5.262  0.2350  0.6582 -0.9957
  451MOL0     O59447  -0.058   3.438   5.421 -0.1342  0.2997 -0.0021
  451MOL0     C59448   0.044   3.158   5.233 -0.5592  0.8635  0.0262
  451MOL0     C59449   0.042   3.016   5.226 -0.6311 -0.1583 -0.6816
  451MOL0     N59450   0.034   2.234   5.463  0.6088 -0.3646 -0.7510
  451MOL0     N59451   0.021   2.103   5.451 -0.3452  1.7231  0.9752
  451MOL0     C59452   0.206   1.220   5.112 -0.1272  0.0755  0.4739
  451MOL0     C59453   0.325   1.152   5.134 -0.7352  0.8473 -0.2326
  451MOL0     C59454   0.614   0.810   5.138  0.0156 -1.5799  0.0877
  451MOL0     C59455   0.635   0.728   5.028 -0.0554  0.4978  0.3632
  451MOL0     C59456   0.706   0.605   5.045  0.3756  0.6719 -0.1603
  451MOL0     C59457   0.752   0.569   5.168  0.3417  0.6919 -0.3732
  451MOL0     O59458   0.816   0.449   5.199  0.3451  0.3078 -0.4577
  451MOL0     C59459   0.763   0.331   5.150  0.3047  1.1376  1.5177
  451MOL0     C59460   0.826   0.209   5.218  0.3366 -0.8103 -0.3704
  451MOL0     C59461   0.742   0.087   5.173  0.1130  0.4498  0.5432
  451MOL0     C59462   0.769  -0.052   5.239 -0.0328 -1.4269 -0.3435
  451MOL0     C59463   0.904  -0.090   5.192 -0.0484  0.6866  0.6065
  451MOL0     C59464   1.001  -0.124   5.130 -0.4436  0.2072 -0.9818
  451MOL0     C59465   0.733   0.648   5.284  0.5063 -1.3001 -1.2027
  451MOL0     C59466   0.658   0.774   5.266 -0.1141 -0.0360 -0.8539
  451MOL0     H59467   0.191   0.893   5.300 -2.8346  0.2955  1.4928
  451MOL0     H59468  -0.015   1.009   5.251  0.2317  1.9776  2.2009
  451MOL0     H59469  -0.119   1.277   5.324 -1.6464 -1.5949  0.5522
  451MOL0     H59470  -0.166   1.143   5.223  1.1635 -0.9910 -0.2011
  451MOL0     H59471  -0.345   1.278   5.241  1.5335 -4.0313  0.2017
  451MOL0     H59472  -0.274   1.324   5.076  0.0108 -1.6826  0.1366
  451MOL0     H59473  -0.298   1.522   5.132 -1.3910  0.7103  0.8778
  451MOL0     H59474  -0.144   1.515   5.188  1.0424  0.4622  1.7123
  451MOL0     H59475  -0.412   1.530   5.339  0.0373 -1.4669  0.9978
  451MOL0     H59476  -0.285   1.473   5.432 -0.6262 -1.3910 -1.1724
  451MOL0     H59477  -0.310   1.722   5.257  1.2379  3.8467  1.1350
  451MOL0     H59478  -0.160   1.688   5.343 -0.6497 -1.2909 -1.1342
  451MOL0     H59479  -0.245   1.689   5.541  0.7444 -1.4367 -2.4912
  451MOL0     H59480  -0.416   1.707   5.485  0.8910 -2.8659  0.5713
  451MOL0     H59481  -0.366   1.951   5.421  0.8190 -0.0486 -1.4275
  451MOL0     H59482  -0.287   1.940   5.572  0.4116  0.0385  0.3300
  451MOL0     H59483  -0.154   1.920   5.290 -1.1238 -2.4029  1.0446
  451MOL0     H59484  -0.068   1.870   5.435  0.5760  0.3134 -0.0867
  451MOL0     H59485  -0.292   2.205   5.426 -0.7743 -0.5675  2.1613
  451MOL0     H59486  -0.039   2.466   5.571 -1.4242  0.6593  0.7969
  451MOL0     H59487  -0.212   2.452   5.530  0.1882  4.2177  0.9331
  451MOL0     H59488  -0.185   2.593   5.370 -1.3649 -1.7706  0.4757
  451MOL0     H59489  -0.101   2.471   5.283 -1.8922  0.9885 -0.0085
  451MOL0     H59490   0.049   2.645   5.473  0.4607 -2.3232  0.5856
  451MOL0     H59491   0.110   2.547   5.341 -1.1238 -1.0815  0.6793
  451MOL0     H59492  -0.010   2.685   5.180 -0.6986 -2.3746  0.5386
  451MOL0     H59493   0.120   2.764   5.275 -1.0865 -0.3636 -2.5152
  451MOL0     H59494  -0.199   2.987   5.480 -0.2566  0.8479  0.5817
  451MOL0     H59495  -0.158   3.231   5.490 -0.9055 -1.3530  0.7068
  451MOL0     H59496  -0.070   3.608   5.168 -1.0844  0.8609  0.0570
  451MOL0     H59497  -0.028   3.846   5.169 -0.4007 -1.7235  2.0626
  451MOL0     H59498   0.324   3.928   5.009 -0.5903 -0.1042 -0.7897
  451MOL0     H59499   0.382   4.026   5.140  1.1549 -4.4753  0.1485
  451MOL0     H59500   0.193   4.186   5.072 -0.9101 -2.2578  3.0438
  451MOL0     H59501   0.163   4.088   4.930  1.3209  2.0359 -1.3200
  451MOL0     H59502   0.359   4.134   4.815 -0.6120  0.2377 -0.3719
  451MOL0     H59503   0.442   4.178   4.966  0.4324  2.3032 -0.3501
  451MOL0     H59504   0.183   4.315   4.853 -1.2959  1.6707  3.4669
  451MOL0     H59505   0.282   4.371   4.989 -1.4303 -0.3205  1.9829
  451MOL0     H59506   0.371   4.374   4.693  1.9422  0.9931 -0.6727
  451MOL0     H59507   0.485   4.396   4.821  0.8590  0.4539 -3.8033
  451MOL0     H59508   0.340   4.591   4.900 -1.3253  0.0526  0.0895
  451MOL0     H59509   0.250   4.575   4.746  0.3321  0.9060 -0.9634
  451MOL0     H59510   0.554   4.608   4.786 -1.1173  2.7798  1.6188
  451MOL0     H59511   0.475   4.580   4.629  2.0000 -2.4553  1.1409
  451MOL0     H59512   0.433   4.815   4.818  1.6822 -1.2660  1.9642
  451MOL0     H59513   0.353   4.789   4.656 -1.0081 -0.1033  0.5582
  451MOL0     H59514   0.383   3.797   5.256 -1.0704  1.2926  1.8027
  451MOL0     H59515   0.331   3.551   5.283  1.8600  1.9379 -1.8339
  451MOL0     H59516   0.117   3.202   5.166 -0.6612  0.5826 -0.2721
  451MOL0     H59517   0.088   2.962   5.144  3.2555  1.8915 -0.1407
  451MOL0     H59518   0.217   1.313   5.056 -3.6256  0.6841  0.5770
  451MOL0     H59519   0.419   1.199   5.107 -0.6869  1.4418  0.8739
  451MOL0     H59520   0.599   0.749   4.928 -2.7560  3.3994  1.7469
  451MOL0     H59521   0.710   0.540   4.958 -5.2488 -0.3407 -0.0604
  451MOL0     H59522   0.755   0.317   5.041 -3.2669  1.1301  1.6465
  451MOL0     H59523   0.657   0.325   5.176 -0.1424  2.2119  0.1051
  451MOL0     H59524   0.934   0.202   5.201  1.1196  0.1301  3.2891
  451MOL0     H59525   0.831   0.235   5.324 -0.5981 -0.4230 -0.4095
  451MOL0     H59526   0.763   0.070   5.067  0.6719 -1.4185  0.9171
  451MOL0     H59527   0.637   0.107   5.199  0.8970  2.9642  2.1763
  451MOL0     H59528   0.752  -0.048   5.347 -5.0315  1.5100 -0.9243
  451MOL0     H59529   0.702  -0.122   5.189  0.7387  0.2490 -4.1618
  451MOL0     H59530   1.087  -0.154   5.073 -0.7340  0.0127 -1.3222
  451MOL0     H59531   0.780   0.611   5.374  0.8937 -0.8424 -1.2069
  451MOL0     H59532   0.636   0.817   5.364  5.4153 -2.3679  1.8428
  452MOL0     O59533   0.248  10.828   4.882 -0.2169  0.1885  0.1131
  452MOL0     C59534   0.348  10.836   4.807 -0.8162  0.0296  0.2258
  452MOL0     O59535   0.355  10.897   4.689 -0.0215 -0.1503 -1.0027
  452MOL0     C59536   0.249  10.973   4.655  0.5786  0.1029  0.2076
  452MOL0     C59537   0.219  11.083   4.722  0.0420 -0.7020 -0.2696
  452MOL0     C59538   0.116  11.171   4.682 -0.7746  1.1100  0.7098
  452MOL0     C59539   0.045  11.136   4.572  0.1102  1.3940 -0.5448
  452MOL0     O59540  -0.074  11.195   4.537 -0.2466  0.3134  0.1775
  452MOL0     C59541  -0.094  11.340   4.547  0.7586 -0.1705 -0.3023
  452MOL0     C59542  -0.209  11.394   4.457 -0.3374 -0.4220  0.3020
  452MOL0     C59543  -0.172  11.363   4.310 -0.2837 -0.1334  0.7240
  452MOL0     C59544  -0.296  11.388   4.220  0.0307 -0.6431  1.2005
  452MOL0     C59545  -0.264  11.462   4.087 -0.5149  0.3694 -0.1461
  452MOL0     C59546  -0.238  11.614   4.121  0.0675 -0.1608  1.1473
  452MOL0     C59547  -0.218  11.696   3.992  0.7736 -0.5369 -0.3643
  452MOL0     C59548  -0.217  11.848   4.024 -0.5127 -0.4888  0.6757
  452MOL0     N59549  -0.191  11.925   3.896  0.3975 -0.7138  0.7756
  452MOL0     C59550  -0.069  11.979   3.845 -0.0803  0.8471  0.4246
  452MOL0     C59551  -0.101  12.064   3.742 -1.4837  0.6365  0.6592
  452MOL0     C59552   0.005  12.112   3.644  0.2019  0.4709 -0.1427
  452MOL0     C59553  -0.048  12.126   3.501 -0.3232 -0.0375  0.5209
  452MOL0     C59554   0.063  12.170   3.406  0.9888  0.2212  0.4550
  452MOL0     C59555  -0.004  12.189   3.272  0.1284 -0.5809  0.3202
  452MOL0     O59556   0.084  12.250   3.177  0.0332  0.0934  0.0848
  452MOL0     C59557   0.091  12.381   3.153 -0.6350  0.4549 -0.3095
  452MOL0     C59558   0.185  12.434   3.062  0.2540 -0.5249 -0.9712
  452MOL0     C59559   0.199  12.570   3.047 -0.1150 -0.8682  0.3407
  452MOL0     C59560   0.124  12.667   3.116 -1.6729  0.0131  0.0549
  452MOL0     C59561   0.153  12.811   3.113 -0.1179  1.4083  0.3381
  452MOL0     O59562   0.244  12.856   3.010 -0.1756 -0.6345  0.3707
  452MOL0     C59563   0.230  12.987   2.974 -0.0723 -0.9088 -0.9522
  452MOL0     C59564   0.350  13.062   2.990  0.2985 -0.4311  0.7233
  452MOL0     C59565   0.334  13.208   2.978 -0.6341  1.0898 -0.3796
  452MOL0     C59566   0.217  13.268   2.939  0.0150  0.5344  0.9408
  452MOL0     O59567   0.222  13.405   2.943  0.1432  0.4966  0.1782
  452MOL0     C59568   0.100  13.472   2.940 -0.0078 -0.1776  1.2129
  452MOL0     C59569   0.009  13.451   3.061  0.3808  0.0606  0.2502
  452MOL0     C59570  -0.103  13.550   3.054  0.6710 -1.1232 -0.6224
  452MOL0     C59571  -0.212  13.516   3.163  0.3313  0.5876 -0.4090
  452MOL0     C59572  -0.322  13.621   3.147  0.3658 -1.1690  0.0299
  452MOL0     C59573  -0.458  13.562   3.102 -0.6464 -0.9228 -0.2263
  452MOL0     C59574  -0.523  13.462   3.200  0.3120 -0.3512  1.5747
  452MOL0     C59575  -0.578  13.527   3.329  0.9452 -1.1982 -0.3962
  452MOL0    Cl59576  -0.654  13.677   3.307 -0.3684  0.1455 -0.2242
  452MOL0     C59577   0.104  13.189   2.910  0.6990  0.0517 -0.0147
  452MOL0     C59578   0.104  13.055   2.931 -1.0299 -0.2145  0.2704
  452MOL0     O59579   0.089  12.887   3.187  0.1237  0.9283  0.6422
  452MOL0     C59580   0.034  12.613   3.208 -0.5268  0.6564 -0.7121
  452MOL0     C59581   0.020  12.475   3.231  0.0220 -1.3481  0.0777
  452MOL0     N59582  -0.236  12.072   3.732  0.1819  0.6557  0.5375
  452MOL0     N59583  -0.287  11.991   3.823 -0.1864 -0.5170  0.3549
  452MOL0     C59584   0.092  11.028   4.495  0.4634 -0.5354  1.1910
  452MOL0     C59585   0.199  10.948   4.529 -0.0778  0.4375  0.8374
  452MOL0     C59586   0.449  10.734   4.841  0.1347 -0.4043 -0.9428
  452MOL0     C59587   0.450  10.678   4.969 -0.0489  0.7513 -0.2442
  452MOL0     C59588   0.550  10.588   5.002  0.4902 -0.3889  0.2492
  452MOL0     C59589   0.651  10.547   4.917  1.0351 -0.1430  0.6950
  452MOL0     O59590   0.749  10.458   4.949  0.2621  0.1955 -0.1367
  452MOL0     C59591   0.801  10.461   5.079  0.1847 -0.0338 -1.0105
  452MOL0     C59592   0.765  10.346   5.168  0.3036 -0.5201  0.1214
  452MOL0     C59593   0.805  10.218   5.085  0.2133 -0.3192 -0.0765
  452MOL0     C59594   0.672  10.164   5.017 -0.3920  0.1657 -0.1296
  452MOL0     C59595   0.704  10.030   4.964 -0.1853 -0.0137 -0.1536
  452MOL0     C59596   0.727   9.917   4.938 -1.2947 -0.3935 -0.2899
  452MOL0     C59597   0.647  10.606   4.786  0.7689 -0.0252 -0.3514
  452MOL0     C59598   0.555  10.706   4.755 -0.5043 -0.5826  1.0139
  452MOL0     H59599   0.277  11.111   4.809  1.7796 -0.2938 -1.5050
  452MOL0     H59600   0.095  11.261   4.739 -1.3838  1.2160  0.3357
  452MOL0     H59601   0.002  11.384   4.517 -0.7592  2.9939 -0.9287
  452MOL0     H59602  -0.119  11.372   4.649 -2.0661  1.2263 -1.3349
  452MOL0     H59603  -0.213  11.503   4.463  2.8925  0.0334 -2.8446
  452MOL0     H59604  -0.306  11.358   4.492 -0.2350 -2.3461 -1.1922
  452MOL0     H59605  -0.135  11.262   4.295  0.5353  0.6551 -4.9205
  452MOL0     H59606  -0.092  11.435   4.289 -0.5232 -0.6912 -2.6687
  452MOL0     H59607  -0.325  11.289   4.182 -0.6065  1.3885 -4.7299
  452MOL0     H59608  -0.375  11.450   4.262 -0.4507  0.4209 -1.1237
  452MOL0     H59609  -0.355  11.455   4.027 -1.7806  3.6487  1.1733
  452MOL0     H59610  -0.177  11.424   4.032 -2.0419  1.6965 -3.7565
  452MOL0     H59611  -0.143  11.635   4.172  1.8276 -0.5267 -1.7186
  452MOL0     H59612  -0.316  11.654   4.185  1.3101  1.0544  1.9790
  452MOL0     H59613  -0.122  11.671   3.946  1.5716 -0.0567  0.9696
  452MOL0     H59614  -0.298  11.684   3.918  2.3329  1.9499 -2.6245
  452MOL0     H59615  -0.139  11.862   4.100 -0.6228  2.7848  0.3414
  452MOL0     H59616  -0.315  11.874   4.063  0.4991 -0.7464  3.6852
  452MOL0     H59617   0.035  11.966   3.874  1.2633  3.7160 -2.4833
  452MOL0     H59618   0.084  12.037   3.637  0.3740  0.4322  1.6618
  452MOL0     H59619   0.027  12.214   3.677  1.9844  0.6623 -1.7647
  452MOL0     H59620  -0.135  12.191   3.497  0.6192  1.2147 -0.3601
  452MOL0     H59621  -0.098  12.033   3.472 -0.4090 -0.0309  0.6440
  452MOL0     H59622   0.115  12.258   3.446  1.6724 -0.0389  0.1555
  452MOL0     H59623   0.138  12.091   3.391 -1.7244 -2.5700  0.6663
  452MOL0     H59624  -0.097  12.245   3.269  0.1605 -0.5782 -0.7716
  452MOL0     H59625  -0.028  12.090   3.232 -1.2310 -0.2860  0.3776
  452MOL0     H59626   0.236  12.358   3.005  0.7045 -1.0611  0.1188
  452MOL0     H59627   0.281  12.605   2.985  0.4386  0.8307  1.9657
  452MOL0     H59628   0.443  13.007   2.998  0.9186  0.3706 -0.5858
  452MOL0     H59629   0.414  13.272   3.014 -1.0596  0.0376  2.7453
  452MOL0     H59630   0.042  13.430   2.858  0.2002  0.7361  0.5893
  452MOL0     H59631   0.119  13.578   2.923  2.0967 -0.5555  0.8796
  452MOL0     H59632   0.066  13.481   3.150  1.5307  1.9486 -1.0562
  452MOL0     H59633  -0.013  13.344   3.067  0.8113 -0.1531 -1.4063
  452MOL0     H59634  -0.154  13.537   2.958 -2.2614  2.2529  0.2538
  452MOL0     H59635  -0.061  13.650   3.062  0.4874 -0.8496 -2.6808
  452MOL0     H59636  -0.248  13.414   3.147 -2.2280  1.5431 -1.2609
  452MOL0     H59637  -0.160  13.522   3.259  1.2524 -3.1752 -0.5105
  452MOL0     H59638  -0.285  13.706   3.089  0.1201  0.2665  1.8516
  452MOL0     H59639  -0.345  13.664   3.245  0.3303 -1.7608  0.2866
  452MOL0     H59640  -0.431  13.511   3.009 -0.9294 -2.6321  0.5850
  452MOL0     H59641  -0.511  13.657   3.087  3.8848  1.9876  0.2688
  452MOL0     H59642  -0.612  13.424   3.147 -1.1725  1.1896  2.8403
  452MOL0     H59643  -0.457  13.376   3.216  0.5260 -0.2104  1.4383
  452MOL0     H59644  -0.502  13.557   3.402  1.2126  1.7908 -1.7695
  452MOL0     H59645  -0.640  13.458   3.387  2.3900 -2.2252 -0.0044
  452MOL0     H59646   0.012  13.231   2.873  1.9453  1.9134 -1.2026
  452MOL0     H59647   0.011  13.001   2.910 -0.9471 -1.2379  2.3022
  452MOL0     H59648  -0.016  12.685   3.271  1.5767  2.4325 -0.9543
  452MOL0     H59649  -0.035  12.440   3.317  1.9602 -5.1997 -0.0340
  452MOL0     H59650   0.046  11.000   4.401  2.7532  5.0749 -2.0418
  452MOL0     H59651   0.242  10.870   4.467 -0.8765  0.9812 -0.4540
  452MOL0     H59652   0.370  10.686   5.042 -1.5948 -0.4661 -1.7374
  452MOL0     H59653   0.534  10.541   5.098  2.5855  1.9198  1.8388
  452MOL0     H59654   0.774  10.556   5.126  0.5280  0.8014 -2.4234
  452MOL0     H59655   0.909  10.470   5.066  0.0937  3.2337 -0.3727
  452MOL0     H59656   0.817  10.364   5.263 -3.9572  2.5871  2.2145
  452MOL0     H59657   0.658  10.351   5.189  0.2547 -1.2489  0.0706
  452MOL0     H59658   0.845  10.147   5.158  4.0632  1.3395 -0.3111
  452MOL0     H59659   0.891  10.217   5.017  0.2179  2.4149 -0.2218
  452MOL0     H59660   0.597  10.142   5.094 -1.2481  2.1361 -0.3376
  452MOL0     H59661   0.624  10.232   4.945  2.2922  1.1049 -1.1732
  452MOL0     H59662   0.750   9.814   4.923 -1.1048 -0.1550 -1.7374
  452MOL0     H59663   0.712  10.568   4.708 -1.9571 -1.1871 -2.2133
  452MOL0     H59664   0.549  10.758   4.660 -1.3300 -0.7604  0.9598
  453MOL0     O59665   6.761   9.798   3.268 -0.1258 -0.8010 -0.2214
  453MOL0     C59666   6.708   9.884   3.341 -0.0011 -0.7221  0.2710
  453MOL0     O59667   6.762   9.938   3.453 -0.2746  0.1815  0.0555
  453MOL0     C59668   6.867   9.886   3.520 -0.0802 -0.9150 -0.1732
  453MOL0     C59669   6.867   9.913   3.658  1.2284  0.6499  0.2362
  453MOL0     C59670   6.952   9.842   3.742 -0.3325 -0.1638  0.4933
  453MOL0     C59671   7.059   9.773   3.683 -1.2877  0.5463  0.8502
  453MOL0     O59672   7.156   9.697   3.740  0.6513  0.0958 -0.9733
  453MOL0     C59673   7.130   9.650   3.869  1.4091  1.0633 -0.3145
  453MOL0     C59674   7.238   9.555   3.920 -0.0852 -0.1328  0.9965
  453MOL0     C59675   7.386   9.603   3.904  0.3125 -0.6611  1.0206
  453MOL0     C59676   7.424   9.703   4.023 -0.2861  0.8085  0.1310
  453MOL0     C59677   7.552   9.782   3.975  0.0606 -0.0905  0.0017
  453MOL0     C59678   7.638   9.833   4.094 -0.0333 -0.8345  0.0531
  453MOL0     C59679   7.573   9.943   4.183 -0.3830  0.1736 -0.3391
  453MOL0     C59680   7.550  10.066   4.100  0.8581 -0.4460  0.0590
  453MOL0     N59681   7.413  10.081   4.060  0.8648 -0.0271  0.7119
  453MOL0     C59682   7.307  10.107   4.138  0.4735  0.3417  0.2356
  453MOL0     C59683   7.192  10.086   4.059  0.2764 -1.4042  0.4852
  453MOL0     C59684   7.052  10.119   4.093 -0.8420 -0.1677  0.9146
  453MOL0     C59685   7.007  10.263   4.052 -0.0678 -0.5507  0.9561
  453MOL0     C59686   6.875  10.306   4.113 -0.7862  0.4821 -0.1922
  453MOL0     C59687   6.852  10.453   4.080 -0.3771  0.3750 -1.2175
  453MOL0     O59688   6.736  10.477   4.007  0.3877 -0.4147 -0.3759
  453MOL0     C59689   6.732  10.615   3.976 -0.1860  0.3505 -0.9629
  453MOL0     C59690   6.631  10.690   4.023 -0.5221 -0.4351  1.1207
  453MOL0     C59691   6.617  10.821   3.977 -0.0743 -0.3735  0.6165
  453MOL0     C59692   6.712  10.890   3.904  0.2476 -0.4208  0.8727
  453MOL0     C59693   6.700  11.033   3.859  0.3147  0.1292 -0.6578
  453MOL0     O59694   6.781  11.083   3.762  0.0275  0.0127 -0.5356
  453MOL0     C59695   6.754  11.207   3.714  0.6236 -0.2939  0.5130
  453MOL0     C59696   6.823  11.324   3.757 -0.0629 -0.1989  0.0539
  453MOL0     C59697   6.789  11.453   3.725 -0.1652 -0.1739  0.1984
  453MOL0     C59698   6.680  11.467   3.640  0.5641 -0.6799 -0.6776
  453MOL0     O59699   6.631  11.596   3.610  0.2990 -0.2730  0.1703
  453MOL0     C59700   6.622  11.602   3.469 -0.0927 -0.3266 -1.1973
  453MOL0     C59701   6.490  11.670   3.434 -0.6275  0.0256  0.1111
  453MOL0     C59702   6.478  11.718   3.286  0.5217  0.0739 -0.3902
  453MOL0     C59703   6.484  11.598   3.188 -0.9655  0.6893  0.8055
  453MOL0     C59704   6.455  11.639   3.043  0.6810 -0.1283  0.1150
  453MOL0     C59705   6.303  11.633   3.024  0.1959  0.0610  0.3029
  453MOL0     C59706   6.272  11.658   2.877  0.4102  0.7151  0.4000
  453MOL0     C59707   6.117  11.638   2.831 -0.5873  0.2760  0.0868
  453MOL0    Cl59708   6.129  11.646   2.647 -0.0271 -0.1735 -0.0868
  453MOL0     C59709   6.597  11.355   3.614  0.6221  0.6379  0.6370
  453MOL0     C59710   6.645  11.231   3.640  0.8759  0.1108  1.0331
  453MOL0     O59711   6.598  11.086   3.896 -0.0691 -0.2898  0.2352
  453MOL0     C59712   6.824  10.812   3.859  0.6234 -0.4616 -0.1673
  453MOL0     C59713   6.836  10.672   3.890  0.7340 -0.9815 -1.0846
  453MOL0     N59714   7.236  10.034   3.940  0.9194 -0.0077  0.1378
  453MOL0     N59715   7.368  10.047   3.939  0.0688 -0.1464 -0.1015
  453MOL0     C59716   7.070   9.766   3.544 -0.2609 -0.0261 -1.0812
  453MOL0     C59717   6.973   9.811   3.460 -0.0037 -0.1240 -0.0158
  453MOL0     C59718   6.572   9.943   3.295 -0.2813 -0.2966  0.2194
  453MOL0     C59719   6.544   9.963   3.159 -0.2583 -1.2197  0.2158
  453MOL0     C59720   6.426  10.028   3.124  0.4307 -0.6225 -0.3656
  453MOL0     C59721   6.331  10.064   3.214 -0.7806  0.4009 -0.2239
  453MOL0     O59722   6.216  10.111   3.159  0.1685 -0.3431  0.3394
  453MOL0     C59723   6.139  10.198   3.249 -1.0442 -0.1023 -0.2774
  453MOL0     C59724   6.025  10.262   3.172 -0.1488 -0.3978  0.1753
  453MOL0     C59725   5.944  10.157   3.093 -0.0321 -0.1713 -0.4015
  453MOL0     C59726   5.857  10.225   2.990  0.3071  0.9421  0.5081
  453MOL0     C59727   5.806  10.123   2.895 -0.4264  0.2258  0.4528
  453MOL0     C59728   5.769  10.037   2.818 -0.5611 -0.5011 -0.5207
  453MOL0     C59729   6.354  10.037   3.352 -0.6951 -0.2902  1.0889
  453MOL0     C59730   6.471   9.985   3.387  0.3054 -0.9434 -0.7044
  453MOL0     H59731   6.785   9.970   3.700  0.5455 -1.7254  2.3008
  453MOL0     H59732   6.954   9.846   3.850  0.0339  0.0018  0.4831
  453MOL0     H59733   7.028   9.612   3.876  2.0072 -0.3222  2.8212
  453MOL0     H59734   7.125   9.737   3.935 -1.4826 -1.4951  3.2088
  453MOL0     H59735   7.236   9.460   3.865  0.6476  0.9096 -0.9215
  453MOL0     H59736   7.218   9.543   4.027  2.6061  2.0569  1.8331
  453MOL0     H59737   7.394   9.665   3.814  3.5697  0.7364  2.1192
  453MOL0     H59738   7.446   9.513   3.885  1.7570  0.8437 -2.6193
  453MOL0     H59739   7.340   9.761   4.064  0.1722  0.6668  1.3081
  453MOL0     H59740   7.452   9.630   4.099 -0.1841 -0.5258 -1.1503
  453MOL0     H59741   7.518   9.861   3.907 -4.4491 -1.4939  0.3179
  453MOL0     H59742   7.614   9.711   3.920  2.0622 -0.3799  2.4593
  453MOL0     H59743   7.732   9.879   4.062  0.4418  1.1529  3.6824
  453MOL0     H59744   7.659   9.748   4.160  0.3714 -0.5810  0.2571
  453MOL0     H59745   7.481   9.893   4.214  0.1636 -1.5386 -1.2903
  453MOL0     H59746   7.635   9.969   4.269  0.1105  0.2042 -0.6954
  453MOL0     H59747   7.616  10.064   4.013  0.8874  2.5363 -0.0928
  453MOL0     H59748   7.579  10.153   4.161  1.6024 -1.5675  1.3627
  453MOL0     H59749   7.297  10.140   4.241 -1.6821  0.9919 -0.1303
  453MOL0     H59750   7.053  10.133   4.202  3.3061  1.1352  0.8745
  453MOL0     H59751   6.979  10.043   4.064 -2.1286  0.7599  1.5922
  453MOL0     H59752   6.994  10.265   3.943 -1.8533  0.9831  1.1395
  453MOL0     H59753   7.085  10.334   4.079 -0.1022  0.1876 -0.7348
  453MOL0     H59754   6.802  10.239   4.069  1.0382 -1.8206  0.1139
  453MOL0     H59755   6.888  10.310   4.221  0.4064  0.7078 -0.3304
  453MOL0     H59756   6.938  10.499   4.030 -0.9144 -0.2650 -2.7895
  453MOL0     H59757   6.838  10.490   4.182  1.1173 -1.7627 -0.1643
  453MOL0     H59758   6.558  10.653   4.094 -1.4652  1.2873  1.1029
  453MOL0     H59759   6.523  10.869   4.004 -1.1935 -1.6168 -0.8348
  453MOL0     H59760   6.908  11.310   3.822 -0.3284 -0.2943  0.3844
  453MOL0     H59761   6.838  11.543   3.759  0.4253  0.3549 -1.8846
  453MOL0     H59762   6.637  11.509   3.414  1.5312  1.2551 -3.6469
  453MOL0     H59763   6.702  11.672   3.442 -0.0439  0.1561  0.1182
  453MOL0     H59764   6.480  11.750   3.507  2.0098  0.2423  0.3337
  453MOL0     H59765   6.406  11.611   3.474 -0.4356  1.5202  2.9829
  453MOL0     H59766   6.548  11.794   3.253  2.9480 -2.4847 -1.5728
  453MOL0     H59767   6.379  11.763   3.273  1.1584  2.2772  1.6698
  453MOL0     H59768   6.587  11.562   3.180 -1.3590 -0.0320 -2.1770
  453MOL0     H59769   6.410  11.526   3.224 -1.2735  0.9055  0.6128
  453MOL0     H59770   6.507  11.574   2.972 -0.1929  1.4414 -2.0597
  453MOL0     H59771   6.493  11.740   3.025  0.0206  1.1052  4.4618
  453MOL0     H59772   6.249  11.707   3.083  0.0227 -0.1610  0.4260
  453MOL0     H59773   6.260  11.537   3.054 -1.4627  0.4058 -0.7955
  453MOL0     H59774   6.298  11.763   2.862 -0.9520  1.5601  3.2322
  453MOL0     H59775   6.336  11.591   2.820  1.2878 -1.1679  3.3435
  453MOL0     H59776   6.052  11.715   2.872 -3.8951 -2.8301  1.2338
  453MOL0     H59777   6.082  11.540   2.867  0.4132 -1.8245 -4.0236
  453MOL0     H59778   6.500  11.368   3.568  1.9717  4.7075 -1.5259
  453MOL0     H59779   6.585  11.143   3.620  2.0528 -0.8622  1.6675
  453MOL0     H59780   6.902  10.852   3.796  0.5968 -0.1218  0.0142
  453MOL0     H59781   6.901  10.608   3.833 -0.9482 -2.3493 -1.5309
  453MOL0     H59782   7.163   9.718   3.516  0.1512 -0.1280  0.3637
  453MOL0     H59783   6.976   9.799   3.353  1.2734 -0.0981 -0.0041
  453MOL0     H59784   6.621   9.951   3.083  1.3047  3.4806  0.6735
  453MOL0     H59785   6.400  10.057   3.023  0.0970  0.3104 -0.0278
  453MOL0     H59786   6.196  10.276   3.300 -0.8594 -0.5078  0.1520
  453MOL0     H59787   6.099  10.139   3.332 -0.0860 -0.8858 -0.3553
  453MOL0     H59788   5.962  10.307   3.249  0.1344 -1.2779  0.9403
  453MOL0     H59789   6.068  10.341   3.109  1.2771  0.5212  2.1956
  453MOL0     H59790   5.888  10.104   3.171  0.4560 -2.0323 -1.2610
  453MOL0     H59791   6.009  10.085   3.043  1.7717  1.4153 -0.4724
  453MOL0     H59792   5.772  10.278   3.034 -0.5199  1.7730 -1.9572
  453MOL0     H59793   5.907  10.302   2.931  0.0516  2.3305  2.0436
  453MOL0     H59794   5.725   9.972   2.744 -5.0281 -0.0392  1.4183
  453MOL0     H59795   6.274  10.047   3.425 -0.5292  0.7283  1.1434
  453MOL0     H59796   6.502   9.968   3.490  2.6889 -0.6693 -1.3133
  454MOL0     O59797   3.048   6.766  10.790  0.1296  1.0422 -0.5319
  454MOL0     C59798   2.937   6.809  10.795 -0.3742  0.5677 -0.8741
  454MOL0     O59799   2.868   6.851  10.686 -0.6457 -0.2837 -0.1324
  454MOL0     C59800   2.905   6.799  10.559 -0.9966 -0.4882  0.7898
  454MOL0     C59801   2.946   6.888  10.463 -1.1950  0.0901  0.6543
  454MOL0     C59802   2.977   6.830  10.338 -0.2399 -1.2773  0.0971
  454MOL0     C59803   2.969   6.698  10.307  0.7743  0.0866  0.7349
  454MOL0     O59804   3.018   6.660  10.183 -0.4026 -0.7265  0.0473
  454MOL0     C59805   2.974   6.537  10.126  1.0217  0.4185 -0.1709
  454MOL0     C59806   3.035   6.494   9.997  0.2346 -0.1488  0.6300
  454MOL0     C59807   2.996   6.547   9.856  0.2970  0.3330  0.4732
  454MOL0     C59808   3.074   6.463   9.754 -0.2610 -0.7187  0.1975
  454MOL0     C59809   3.060   6.509   9.602 -0.3859  0.5151  0.1195
  454MOL0     C59810   3.087   6.659   9.584 -0.8024  0.8179  0.3726
  454MOL0     C59811   3.107   6.710   9.436 -0.3665  0.8069  0.8914
  454MOL0     C59812   3.187   6.835   9.427  0.1290 -0.0629  0.7341
  454MOL0     N59813   3.185   6.866   9.283  0.0530  0.3046 -0.3773
  454MOL0     C59814   3.229   6.784   9.180 -0.6472  0.0870  0.4346
  454MOL0     C59815   3.194   6.864   9.069  0.0227  0.8370 -0.4136
  454MOL0     C59816   3.212   6.804   8.927 -0.2005 -0.5527  0.5929
  454MOL0     C59817   3.199   6.915   8.820  0.6036 -0.7043 -0.6116
  454MOL0     C59818   3.233   6.870   8.680  0.6959  0.6451  0.7885
  454MOL0     C59819   3.115   6.815   8.610 -0.2649 -0.1999  0.3192
  454MOL0     O59820   3.167   6.785   8.480 -0.0335  1.0509  0.2014
  454MOL0     C59821   3.089   6.700   8.405  0.9354  0.1708 -0.2035
  454MOL0     C59822   2.949   6.718   8.376 -0.2176  0.3340 -0.2914
  454MOL0     C59823   2.882   6.641   8.290  0.1194  0.3297 -0.4415
  454MOL0     C59824   2.936   6.523   8.238 -0.3551  0.4311  0.0938
  454MOL0     C59825   2.861   6.426   8.148 -0.3420 -1.6681 -0.4150
  454MOL0     O59826   2.936   6.326   8.096  0.7821  0.2589 -0.0768
  454MOL0     C59827   2.863   6.234   8.019 -0.3087  0.1186  0.1379
  454MOL0     C59828   2.871   6.106   8.049  0.1601  0.6787  0.7227
  454MOL0     C59829   2.821   6.012   7.962  0.7433 -0.5458 -0.0358
  454MOL0     C59830   2.759   6.049   7.845 -0.0832  0.0582 -0.2490
  454MOL0     O59831   2.690   5.953   7.774 -0.8546  0.7965 -0.1148
  454MOL0     C59832   2.627   5.993   7.657 -0.5353  0.1874 -0.6717
  454MOL0     C59833   2.587   5.864   7.579 -0.8155  1.1696  0.7185
  454MOL0     C59834   2.516   5.894   7.452 -0.1401 -0.2041 -0.5352
  454MOL0     C59835   2.443   5.791   7.355  0.5608  0.8584  0.1264
  454MOL0     C59836   2.379   5.837   7.228  0.9392 -1.1248 -0.2695
  454MOL0     C59837   2.265   5.934   7.277 -0.0266  0.3474  1.1015
  454MOL0     C59838   2.231   6.017   7.143  0.5121 -0.7820  0.1504
  454MOL0     C59839   2.144   6.133   7.168 -0.1595  0.7290 -0.4278
  454MOL0    Cl59840   1.992   6.072   7.233 -0.0309 -0.1193 -0.1038
  454MOL0     C59841   2.748   6.184   7.820  0.7559  0.2537  0.5650
  454MOL0     C59842   2.798   6.278   7.905  0.0118  0.6159  0.4938
  454MOL0     O59843   2.752   6.455   8.119  0.5094 -0.8969  0.2751
  454MOL0     C59844   3.070   6.495   8.264  1.0966  0.0312 -0.1884
  454MOL0     C59845   3.149   6.583   8.343  0.2677 -0.6484 -0.3950
  454MOL0     N59846   3.132   6.979   9.108 -0.0429 -0.0049  0.7481
  454MOL0     N59847   3.115   6.975   9.234  0.4375  0.4257 -0.4642
  454MOL0     C59848   2.912   6.605  10.399 -0.8114  0.0622 -0.4026
  454MOL0     C59849   2.882   6.668  10.525 -0.4498 -0.3539 -0.2687
  454MOL0     C59850   2.882   6.818  10.930 -0.8698  0.2390 -0.7312
  454MOL0     C59851   2.797   6.920  10.971  0.8274 -0.5434 -0.6813
  454MOL0     C59852   2.723   6.913  11.087  0.5393 -0.2840 -0.1298
  454MOL0     C59853   2.747   6.804  11.169 -0.2809  0.3785 -0.4162
  454MOL0     O59854   2.682   6.793  11.290  0.7851 -0.2871  0.2917
  454MOL0     C59855   2.545   6.838  11.287 -0.0054 -1.0988  0.0525
  454MOL0     C59856   2.462   6.813  11.413  0.6592 -0.5276  0.0112
  454MOL0     C59857   2.495   6.677  11.474 -0.9650  0.6308  0.0689
  454MOL0     C59858   2.456   6.671  11.617  0.5435  0.1893 -0.8022
  454MOL0     C59859   2.564   6.728  11.697 -0.6253 -0.0494  1.0215
  454MOL0     C59860   2.675   6.771  11.736  0.2409  0.4455  0.1393
  454MOL0     C59861   2.837   6.705  11.136  0.0862  0.1009 -0.8275
  454MOL0     C59862   2.902   6.714  11.017 -0.6284  1.1777 -0.0919
  454MOL0     H59863   2.948   6.993  10.491  2.2468  0.2355  0.3586
  454MOL0     H59864   3.014   6.894  10.258 -1.1642 -1.0290 -0.1379
  454MOL0     H59865   2.866   6.532  10.110  0.8375  1.5172  0.5954
  454MOL0     H59866   2.996   6.457  10.197  1.3268  1.1977  0.6341
  454MOL0     H59867   3.016   6.386   9.993  1.5770 -0.4060  0.4673
  454MOL0     H59868   3.143   6.513   9.995  0.4188 -1.1116 -0.7368
  454MOL0     H59869   3.023   6.652   9.839  2.2317 -0.4045 -1.3032
  454MOL0     H59870   2.888   6.530   9.853 -0.0254  2.0978  0.7149
  454MOL0     H59871   3.183   6.469   9.766 -0.2964  0.7309 -0.0369
  454MOL0     H59872   3.039   6.363   9.781 -1.2139 -0.8924 -1.5315
  454MOL0     H59873   2.958   6.492   9.569 -0.1998  0.8523 -0.6463
  454MOL0     H59874   3.125   6.448   9.539 -1.2078  0.3745 -0.6029
  454MOL0     H59875   3.180   6.674   9.641  0.3390 -2.4705 -0.3897
  454MOL0     H59876   3.003   6.716   9.624 -1.3619  0.7939 -0.7429
  454MOL0     H59877   3.154   6.627   9.381 -4.7778 -1.7624  0.5041
  454MOL0     H59878   3.015   6.712   9.378 -0.3254 -1.3440  0.6430
  454MOL0     H59879   3.288   6.816   9.463  0.0429  0.8510  1.4796
  454MOL0     H59880   3.138   6.907   9.493  2.9063  0.2323  2.6228
  454MOL0     H59881   3.266   6.682   9.187 -0.4235  0.1564  0.2973
  454MOL0     H59882   3.132   6.732   8.911 -0.9320  0.5118 -0.7430
  454MOL0     H59883   3.306   6.752   8.910 -1.8287 -2.9384 -1.8248
  454MOL0     H59884   3.264   6.997   8.851  0.2636 -0.7740  0.3050
  454MOL0     H59885   3.097   6.953   8.812  1.6503  2.0126 -2.7772
  454MOL0     H59886   3.271   6.951   8.617 -1.9053 -0.9700 -3.3378
  454MOL0     H59887   3.309   6.791   8.680 -1.9723 -2.1193  1.4977
  454MOL0     H59888   3.036   6.890   8.601 -1.4810 -1.4218  0.3677
  454MOL0     H59889   3.066   6.730   8.659 -0.6388 -0.9623 -1.3048
  454MOL0     H59890   2.896   6.797   8.428  0.0731 -0.7195  1.7195
  454MOL0     H59891   2.780   6.678   8.287  1.0809  3.3918  0.8561
  454MOL0     H59892   2.923   6.083   8.142  2.4276  0.7498 -0.4630
  454MOL0     H59893   2.829   5.908   7.989 -0.5820 -1.2293 -2.0586
  454MOL0     H59894   2.692   6.058   7.598 -1.3953  0.0267 -1.8310
  454MOL0     H59895   2.527   6.034   7.675  0.5024  1.5031  3.0345
  454MOL0     H59896   2.522   5.810   7.648 -0.4970  0.3322  0.3801
  454MOL0     H59897   2.675   5.799   7.564 -1.8290 -0.3914  1.2988
  454MOL0     H59898   2.580   5.956   7.388  0.1619 -0.3782 -0.4064
  454MOL0     H59899   2.427   5.951   7.479 -0.5201 -0.1414 -1.8381
  454MOL0     H59900   2.523   5.720   7.335 -2.2165 -1.5555 -3.8617
  454MOL0     H59901   2.363   5.735   7.405 -0.4855 -0.4440 -2.7514
  454MOL0     H59902   2.345   5.744   7.181  1.7148 -0.9694 -1.1759
  454MOL0     H59903   2.440   5.874   7.145 -0.6940  1.2769 -0.4973
  454MOL0     H59904   2.280   6.015   7.349 -2.5774 -0.0141  2.1395
  454MOL0     H59905   2.175   5.881   7.308  2.3247 -3.3117  2.4153
  454MOL0     H59906   2.324   6.064   7.110  0.9218 -1.9913 -0.4459
  454MOL0     H59907   2.193   5.946   7.070  2.7185 -1.3681 -0.4980
  454MOL0     H59908   2.115   6.175   7.071 -2.0416  1.5065  0.4270
  454MOL0     H59909   2.202   6.195   7.237  1.6182 -0.6393 -0.6091
  454MOL0     H59910   2.698   6.222   7.732 -1.1229  0.3217  1.5971
  454MOL0     H59911   2.804   6.380   7.867 -1.2675 -0.3316 -2.5183
  454MOL0     H59912   3.131   6.411   8.233  0.7183 -0.5627  0.6343
  454MOL0     H59913   3.250   6.552   8.367  0.2627 -0.8500 -0.6346
  454MOL0     H59914   2.910   6.498  10.378 -1.7410  0.5048 -2.9539
  454MOL0     H59915   2.839   6.593  10.590  0.6466 -0.6310  0.1558
  454MOL0     H59916   2.762   6.997  10.904 -0.8968  0.9259  1.7252
  454MOL0     H59917   2.656   6.992  11.118  0.3287 -0.6447  0.3560
  454MOL0     H59918   2.502   6.781  11.204  0.1037 -0.3607 -0.5255
  454MOL0     H59919   2.545   6.947  11.280 -0.6718 -0.8503  2.7071
  454MOL0     H59920   2.496   6.903  11.465  2.9063  0.7760 -3.3634
  454MOL0     H59921   2.357   6.826  11.385  1.4034  0.6451 -2.5222
  454MOL0     H59922   2.594   6.631  11.460 -1.3713  0.2508 -1.7206
  454MOL0     H59923   2.434   6.613  11.410  1.2969 -0.9529 -0.6780
  454MOL0     H59924   2.360   6.720  11.637  0.2415 -1.0246  0.9440
  454MOL0     H59925   2.450   6.565  11.644 -0.9051  0.6205  0.7364
  454MOL0     H59926   2.770   6.816  11.758  0.6862 -0.4463  0.0975
  454MOL0     H59927   2.850   6.619  11.201 -2.8436  0.8431  0.9419
  454MOL0     H59928   2.971   6.638  10.982 -2.9868 -1.0280 -0.2062
  455MOL0     O59929   7.619   4.298   7.482  0.2910 -0.0030  0.9092
  455MOL0     C59930   7.555   4.369   7.404 -1.0384 -1.4005  0.4323
  455MOL0     O59931   7.593   4.488   7.356 -0.0998  0.8169 -0.0328
  455MOL0     C59932   7.720   4.538   7.363 -0.4431 -0.5232  0.3845
  455MOL0     C59933   7.802   4.524   7.480 -0.1980 -0.0425  0.1225
  455MOL0     C59934   7.925   4.586   7.476  0.1760  0.5527  0.0788
  455MOL0     C59935   7.966   4.649   7.358  0.4654 -0.0399  0.5845
  455MOL0     O59936   8.098   4.702   7.348  1.1613 -0.3625 -0.6726
  455MOL0     C59937   8.085   4.846   7.393  0.4627  0.5713 -0.0069
  455MOL0     C59938   8.225   4.906   7.416 -0.5002 -1.7073 -0.4860
  455MOL0     C59939   8.298   4.844   7.535 -1.0783 -0.4827  0.9249
  455MOL0     C59940   8.429   4.912   7.584  0.1126  0.3325 -0.3069
  455MOL0     C59941   8.516   4.830   7.685 -0.3468  0.4609  0.0208
  455MOL0     C59942   8.597   4.711   7.624 -0.2927  0.6216 -0.1563
  455MOL0     C59943   8.697   4.753   7.519  0.1341  0.5547 -0.0008
  455MOL0     C59944   8.748   4.624   7.462 -0.5422  0.7970  0.4725
  455MOL0     N59945   8.858   4.560   7.539  0.2517 -0.4172 -0.4772
  455MOL0     C59946   8.901   4.430   7.521  0.2105 -0.2111 -0.9410
  455MOL0     C59947   9.004   4.417   7.607 -0.6859 -0.0419  0.7337
  455MOL0     C59948   9.081   4.297   7.611  0.6165  0.0472 -0.1301
  455MOL0     C59949   9.227   4.332   7.568 -0.0823 -0.2935 -0.0490
  455MOL0     C59950   9.319   4.226   7.619 -0.4159 -0.5254  0.6594
  455MOL0     C59951   9.448   4.210   7.542  0.0145 -0.5591  1.1162
  455MOL0     O59952   9.424   4.206   7.399 -0.4051 -0.1765  0.1713
  455MOL0     C59953   9.370   4.093   7.347  1.0745 -0.3842  0.3645
  455MOL0     C59954   9.248   4.111   7.280  0.1241  0.5699 -1.1458
  455MOL0     C59955   9.189   3.999   7.225 -0.2105  0.3779  0.3612
  455MOL0     C59956   9.237   3.870   7.240  0.8885  0.1783  0.3431
  455MOL0     C59957   9.173   3.760   7.171 -0.9109  1.9623 -0.4182
  455MOL0     O59958   9.200   3.635   7.209  0.3245  0.4489  0.2698
  455MOL0     C59959   9.172   3.523   7.144  0.0595  1.4887  0.2658
  455MOL0     C59960   9.136   3.511   7.015  0.6809 -0.4684  0.4218
  455MOL0     C59961   9.114   3.377   6.967 -0.4597 -0.2852 -0.5061
  455MOL0     C59962   9.158   3.259   7.044  0.3148  0.0449  0.5147
  455MOL0     O59963   9.146   3.134   6.980  0.5810 -0.1665 -0.0691
  455MOL0     C59964   9.174   3.019   7.051 -0.2836  0.1734 -0.8637
  455MOL0     C59965   9.324   2.990   7.041 -0.1486 -0.1958  0.3473
  455MOL0     C59966   9.382   2.964   6.903 -0.5809  0.1802  0.7530
  455MOL0     C59967   9.315   2.839   6.842  0.1584 -0.7025 -0.5877
  455MOL0     C59968   9.246   2.860   6.708  0.0476 -0.1684  0.8045
  455MOL0     C59969   9.110   2.804   6.684 -0.3076  0.1313 -0.6861
  455MOL0     C59970   9.046   2.860   6.558  0.0521 -0.4081  0.6470
  455MOL0     C59971   8.925   2.779   6.507  0.3235  0.2335  0.2678
  455MOL0    Cl59972   8.801   2.752   6.646 -0.6861 -0.1570 -0.2510
  455MOL0     C59973   9.232   3.286   7.161 -0.5756 -0.3462 -0.2703
  455MOL0     C59974   9.218   3.414   7.212 -0.1816 -0.3989 -0.9782
  455MOL0     O59975   9.095   3.797   7.086  0.2016 -0.5607  0.5787
  455MOL0     C59976   9.356   3.852   7.321  0.1368  0.3076  0.6767
  455MOL0     C59977   9.418   3.966   7.372  0.0339  0.3875 -0.0610
  455MOL0     N59978   9.003   4.526   7.697  0.2876 -0.8586 -0.7394
  455MOL0     N59979   8.919   4.607   7.649  0.0986  0.1547 -0.3466
  455MOL0     C59980   7.890   4.663   7.249  0.0519 -0.5449 -0.4062
  455MOL0     C59981   7.766   4.604   7.249 -0.4948 -0.8861 -0.4607
  455MOL0     C59982   7.421   4.320   7.356  0.0978  0.3277  0.1742
  455MOL0     C59983   7.329   4.417   7.314  0.0211  0.3031 -0.9010
  455MOL0     C59984   7.194   4.368   7.276 -1.1887 -0.7234  0.0251
  455MOL0     C59985   7.156   4.236   7.285  0.7529  0.7037 -0.0992
  455MOL0     O59986   7.026   4.201   7.254  0.4101  0.2186  0.1375
  455MOL0     C59987   6.965   4.120   7.362 -0.6592  0.5760  0.1899
  455MOL0     C59988   6.817   4.081   7.346  0.4660  0.8816  0.0457
  455MOL0     C59989   6.713   4.162   7.425 -0.9754  0.6207  0.0191
  455MOL0     C59990   6.568   4.108   7.407 -0.6111 -0.9009 -0.1140
  455MOL0     C59991   6.496   4.146   7.526  0.5154  0.1771 -0.2973
  455MOL0     C59992   6.444   4.198   7.629 -0.3675 -0.0485  0.1841
  455MOL0     C59993   7.254   4.143   7.325  0.2016 -1.1077  1.0869
  455MOL0     C59994   7.381   4.187   7.355  0.1752  1.7546  0.3709
  455MOL0     H59995   7.776   4.468   7.570  2.9562  0.4933  1.5200
  455MOL0     H59996   7.993   4.571   7.560  1.8201  3.1605 -0.6693
  455MOL0     H59997   8.027   4.863   7.485 -0.4624 -0.8427 -0.3022
  455MOL0     H59998   8.019   4.899   7.324 -0.1405 -0.2046 -0.0418
  455MOL0     H59999   8.207   5.013   7.429  3.7023 -0.7006 -1.5854
  455MOL0     H60000   8.297   4.898   7.334  1.5173  1.9499  0.7190
  455MOL0     H60001   8.321   4.742   7.504 -3.4129 -1.2126  1.3928
  455MOL0     H60002   8.234   4.836   7.623  0.8187  0.1543  2.4341
  455MOL0     H60003   8.494   4.944   7.502  1.5011 -1.6165 -0.0178
  455MOL0     H60004   8.400   5.006   7.632 -2.4924 -0.0474 -0.9678
  455MOL0     H60005   8.458   4.793   7.770  0.3210  1.0286  0.7386
  455MOL0     H60006   8.587   4.901   7.729 -0.4583  1.1868 -0.9597
  455MOL0     H60007   8.523   4.637   7.593 -1.1966  1.0199  0.9517
  455MOL0     H60008   8.658   4.655   7.696 -1.3523  2.4211  2.3027
  455MOL0     H60009   8.639   4.801   7.439 -0.5652  0.3911  0.4044
  455MOL0     H60010   8.780   4.812   7.559  0.9155 -0.0070 -0.7665
  455MOL0     H60011   8.779   4.633   7.357 -2.9192 -1.2827 -0.5008
  455MOL0     H60012   8.661   4.557   7.457 -0.0458  0.0901  1.1532
  455MOL0     H60013   8.864   4.362   7.445 -2.3359 -0.3332  0.2925
  455MOL0     H60014   9.043   4.223   7.541  1.6964  0.5342 -1.2516
  455MOL0     H60015   9.065   4.253   7.710 -2.2244 -0.8285 -0.8880
  455MOL0     H60016   9.263   4.430   7.601 -1.3230  0.7500 -1.6496
  455MOL0     H60017   9.221   4.327   7.459 -1.5760  0.3670 -0.0290
  455MOL0     H60018   9.351   4.237   7.723  0.9384  0.4023  0.1686
  455MOL0     H60019   9.270   4.129   7.608 -1.3693  0.2390 -3.4030
  455MOL0     H60020   9.514   4.128   7.572  0.0767 -1.4537 -1.2389
  455MOL0     H60021   9.507   4.302   7.551  1.5779 -1.0575 -2.2119
  455MOL0     H60022   9.203   4.208   7.262 -0.0407  1.1663  1.9413
  455MOL0     H60023   9.098   4.015   7.167 -0.1640  1.2906  0.5125
  455MOL0     H60024   9.081   3.586   6.959 -0.4322 -1.7239 -0.2224
  455MOL0     H60025   9.054   3.354   6.879 -1.2238 -0.4095  0.0303
  455MOL0     H60026   9.112   2.941   7.005 -0.8780  0.3374 -0.3431
  455MOL0     H60027   9.146   3.036   7.155  0.4540  2.2802 -0.9743
  455MOL0     H60028   9.348   2.905   7.105 -1.3514 -1.1977 -0.5011
  455MOL0     H60029   9.385   3.073   7.078  0.7884 -0.0734 -1.3520
  455MOL0     H60030   9.490   2.948   6.915 -0.5137  0.6713  0.8469
  455MOL0     H60031   9.361   3.055   6.847  0.4956 -0.1944 -0.3009
  455MOL0     H60032   9.399   2.771   6.824 -0.4633 -0.9631 -2.8730
  455MOL0     H60033   9.248   2.795   6.916 -2.2307  2.3722 -0.7287
  455MOL0     H60034   9.310   2.804   6.639  1.5531  0.2592  1.8122
  455MOL0     H60035   9.245   2.966   6.682 -3.8251  0.1491  1.5768
  455MOL0     H60036   9.057   2.819   6.779 -0.3260 -1.5444 -0.3996
  455MOL0     H60037   9.119   2.697   6.665 -0.8672  0.2754 -1.9072
  455MOL0     H60038   9.008   2.962   6.570  2.9062  0.9459 -0.8596
  455MOL0     H60039   9.114   2.868   6.472 -0.7597 -0.0285  0.0202
  455MOL0     H60040   8.966   2.681   6.480  1.7047  0.6440  0.8016
  455MOL0     H60041   8.879   2.819   6.416  1.2630  0.6880 -0.0175
  455MOL0     H60042   9.266   3.207   7.226 -1.1662  1.4855  2.4365
  455MOL0     H60043   9.242   3.442   7.314  0.5640  1.1774 -1.5643
  455MOL0     H60044   9.396   3.752   7.331 -2.1946 -0.8120 -0.5475
  455MOL0     H60045   9.518   3.961   7.415  0.1888 -1.1193 -0.5441
  455MOL0     H60046   7.918   4.738   7.176 -2.6493  1.4758  0.4549
  455MOL0     H60047   7.704   4.633   7.165  0.9413 -2.2816 -2.0827
  455MOL0     H60048   7.357   4.522   7.320  0.7110  0.0742  0.2892
  455MOL0     H60049   7.122   4.442   7.242 -0.1880 -0.2017 -1.0292
  455MOL0     H60050   6.969   4.166   7.462 -0.6919  1.6499 -0.2912
  455MOL0     H60051   7.013   4.023   7.372 -0.1218  0.7776 -0.3921
  455MOL0     H60052   6.794   4.104   7.241  0.5828  0.9232  0.0297
  455MOL0     H60053   6.796   3.974   7.357 -2.0107  1.2385 -0.6067
  455MOL0     H60054   6.718   4.265   7.390 -1.3332  0.6186 -0.0392
  455MOL0     H60055   6.734   4.167   7.532  1.8595 -0.3549 -0.4048
  455MOL0     H60056   6.526   4.152   7.316 -2.1449 -4.2041 -1.1856
  455MOL0     H60057   6.559   4.000   7.394  1.2543 -0.9820 -1.1224
  455MOL0     H60058   6.415   4.218   7.730  1.4298 -1.5773  1.0633
  455MOL0     H60059   7.231   4.038   7.317 -1.8792 -0.6148 -0.1396
  455MOL0     H60060   7.455   4.108   7.349 -4.3528 -3.1505  0.9768
  456MOL0     O60061   9.899   5.775   7.918  0.1841  0.3814  0.5035
  456MOL0     C60062   9.941   5.867   7.849  0.4834  0.1645  0.2165
  456MOL0     O60063  10.077   5.897   7.821  0.7925  0.2103 -0.3971
  456MOL0     C60064  10.171   5.820   7.883 -0.8828 -1.0330 -0.0031
  456MOL0     C60065  10.162   5.680   7.892  1.0896  0.0211 -0.4291
  456MOL0     C60066  10.254   5.608   7.966 -0.2349  0.1821  0.0850
  456MOL0     C60067  10.362   5.667   8.025  0.4338 -0.5934 -1.1405
  456MOL0     O60068  10.446   5.581   8.098  1.3121  0.1927  1.1604
  456MOL0     C60069  10.557   5.636   8.164 -0.0792  0.7324  0.2781
  456MOL0     C60070  10.669   5.654   8.071  0.5206  0.4679 -0.1257
  456MOL0     C60071  10.712   5.512   8.029 -0.0649  1.1276  0.8286
  456MOL0     C60072  10.810   5.504   7.908  0.4626  0.1434  0.4021
  456MOL0     C60073  10.872   5.362   7.902  0.4436 -0.5188  0.5397
  456MOL0     C60074  10.930   5.349   7.755 -0.1958  0.1555 -0.9159
  456MOL0     C60075  10.985   5.202   7.733 -0.0335 -0.1044  1.2430
  456MOL0     C60076  11.102   5.157   7.824  0.5762 -0.1190  0.3672
  456MOL0     N60077  11.217   5.236   7.807  0.3810  0.7808  0.2504
  456MOL0     C60078  11.249   5.350   7.866 -0.1007  0.3138 -0.3477
  456MOL0     C60079  11.380   5.373   7.823 -1.1716  0.0137  0.0788
  456MOL0     C60080  11.460   5.496   7.868  0.0513 -1.1412 -0.4973
  456MOL0     C60081  11.481   5.605   7.760 -0.5803  0.2914 -0.7633
  456MOL0     C60082  11.605   5.572   7.677 -0.4187 -0.4242  0.2501
  456MOL0     C60083  11.735   5.529   7.741  0.7042  0.2628 -0.7996
  456MOL0     O60084  11.776   5.606   7.855  0.1564  0.2932  0.1779
  456MOL0     C60085  11.866   5.552   7.947  0.0218  1.0441 -0.7087
  456MOL0     C60086  11.842   5.560   8.087  0.7312  0.1217  0.0480
  456MOL0     C60087  11.936   5.530   8.184 -1.1076 -0.0860 -0.6425
  456MOL0     C60088  12.056   5.465   8.145 -0.8809  0.1923  1.0105
  456MOL0     C60089  12.161   5.437   8.247 -0.2064 -1.3111  0.2812
  456MOL0     O60090  12.119   5.422   8.376  0.6794 -0.4865 -0.6560
  456MOL0     C60091  12.201   5.371   8.482  0.2831 -0.2536 -0.1763
  456MOL0     C60092  12.136   5.308   8.592 -1.3093  0.3150  0.4062
  456MOL0     C60093  12.216   5.249   8.688  0.5424  0.9974  0.6733
  456MOL0     C60094  12.357   5.257   8.688 -0.4354  0.1473 -0.9857
  456MOL0     O60095  12.423   5.195   8.799  0.5534 -0.0199  0.8917
  456MOL0     C60096  12.536   5.105   8.762  0.2542 -0.3537 -0.8918
  456MOL0     C60097  12.571   5.022   8.890  0.1569 -0.0395 -0.1426
  456MOL0     C60098  12.636   5.093   9.012 -0.5041  0.4267 -0.1587
  456MOL0     C60099  12.669   4.999   9.123 -0.1457 -0.0690 -0.0461
  456MOL0     C60100  12.725   5.067   9.242 -0.4859 -0.6820 -0.0602
  456MOL0     C60101  12.627   5.165   9.307 -0.0404  0.5747 -0.6818
  456MOL0     C60102  12.674   5.220   9.439 -0.0296 -0.4913 -0.4733
  456MOL0     C60103  12.560   5.258   9.525 -1.1189 -0.6266 -1.0607
  456MOL0    Cl60104  12.456   5.398   9.473 -0.0063 -0.2069  0.0006
  456MOL0     C60105  12.417   5.317   8.585 -0.4435  0.1903  0.1206
  456MOL0     C60106  12.348   5.381   8.485  0.9893  1.3490  0.8202
  456MOL0     O60107  12.280   5.446   8.209 -0.1541  0.0009 -0.1072
  456MOL0     C60108  12.082   5.458   8.003  0.3952 -0.7422 -1.7705
  456MOL0     C60109  11.987   5.492   7.911 -0.1345 -0.4665  0.4397
  456MOL0     N60110  11.412   5.280   7.722  0.8246  0.4588  0.2004
  456MOL0     N60111  11.311   5.205   7.708 -0.1938 -1.0373  0.2237
  456MOL0     C60112  10.378   5.808   8.020  0.3709 -0.3292  1.1484
  456MOL0     C60113  10.276   5.881   7.951 -0.6311 -0.4507  0.1460
  456MOL0     C60114   9.850   5.947   7.765 -0.3745 -0.5565  0.3983
  456MOL0     C60115   9.892   6.033   7.653  0.6209  1.1796 -0.2452
  456MOL0     C60116   9.801   6.119   7.594  0.2073 -0.0607 -0.5006
  456MOL0     C60117   9.669   6.130   7.628 -0.6458  1.4444 -0.2139
  456MOL0     O60118   9.569   6.208   7.565  0.4357  0.0046 -0.3024
  456MOL0     C60119   9.608   6.321   7.492 -0.3494  0.4164  0.0876
  456MOL0     C60120   9.487   6.379   7.411 -0.3721  0.3754  0.6276
  456MOL0     C60121   9.550   6.515   7.351 -0.1944  0.7285 -0.5884
  456MOL0     C60122   9.483   6.580   7.227 -0.6600  0.4699  0.1180
  456MOL0     C60123   9.496   6.719   7.237 -0.2301 -0.2209  0.6729
  456MOL0     C60124   9.509   6.844   7.231 -0.0972  1.0429 -0.1479
  456MOL0     C60125   9.631   6.055   7.741  0.5245  0.5751  0.0562
  456MOL0     C60126   9.719   5.963   7.806  1.2081 -0.2950 -0.2480
  456MOL0     H60127  10.087   5.632   7.830  0.1785 -0.8086  1.2302
  456MOL0     H60128  10.236   5.501   7.971 -0.3265  0.1567 -0.6279
  456MOL0     H60129  10.590   5.553   8.228 -1.2554 -0.3540 -0.4657
  456MOL0     H60130  10.537   5.722   8.228  0.6570  2.0533 -1.1916
  456MOL0     H60131  10.760   5.697   8.114  0.4528 -1.9388  2.6780
  456MOL0     H60132  10.634   5.717   7.988 -1.2102  0.7682  0.7900
  456MOL0     H60133  10.623   5.456   7.999  1.6334 -2.1684  1.4244
  456MOL0     H60134  10.747   5.439   8.102 -0.5698 -0.4095 -0.4054
  456MOL0     H60135  10.759   5.530   7.815 -1.0938 -0.9931  0.8983
  456MOL0     H60136  10.896   5.571   7.910  0.0732  0.6406  0.9923
  456MOL0     H60137  10.796   5.286   7.922  0.0301 -0.6495 -1.3376
  456MOL0     H60138  10.943   5.338   7.983  0.9470  1.5154  0.7432
  456MOL0     H60139  10.999   5.430   7.729 -1.6411  2.4643  1.7812
  456MOL0     H60140  10.850   5.362   7.682 -1.2279 -0.4154  0.0858
  456MOL0     H60141  10.915   5.118   7.734  0.6907 -0.7232  1.0392
  456MOL0     H60142  11.034   5.211   7.635 -0.0016  0.4848  1.3085
  456MOL0     H60143  11.119   5.055   7.788 -0.4311 -0.6555  1.3745
  456MOL0     H60144  11.075   5.158   7.930  0.6574  3.8613  0.5050
  456MOL0     H60145  11.192   5.398   7.944 -0.0042 -1.3541  0.7993
  456MOL0     H60146  11.558   5.465   7.907  1.8321  3.0621 -1.0584
  456MOL0     H60147  11.414   5.538   7.958  3.4894  1.5445  0.2010
  456MOL0     H60148  11.489   5.708   7.797  0.8272  0.6641 -2.0578
  456MOL0     H60149  11.396   5.596   7.692 -0.0090 -0.7596 -1.3498
  456MOL0     H60150  11.582   5.501   7.598 -2.3538  1.8118 -1.3530
  456MOL0     H60151  11.625   5.664   7.621 -1.6757  0.3395  1.0021
  456MOL0     H60152  11.809   5.538   7.661  2.5009 -0.3167  0.7376
  456MOL0     H60153  11.712   5.426   7.770  0.2928  0.4546 -0.4319
  456MOL0     H60154  11.747   5.611   8.099 -0.8027 -2.1427 -1.7033
  456MOL0     H60155  11.909   5.558   8.285 -1.0829 -0.3661 -0.5575
  456MOL0     H60156  12.029   5.293   8.601 -1.4074  0.3990 -0.4943
  456MOL0     H60157  12.149   5.209   8.764  0.5130  0.3208  0.2972
  456MOL0     H60158  12.624   5.156   8.723  1.0681  0.5961  1.8809
  456MOL0     H60159  12.506   5.036   8.683 -3.0587  1.0532 -1.0484
  456MOL0     H60160  12.652   4.953   8.864 -0.0630 -2.3597  4.1941
  456MOL0     H60161  12.485   4.959   8.915 -0.3477  0.1557 -1.3174
  456MOL0     H60162  12.574   5.179   9.038  2.8112  1.8981  3.9791
  456MOL0     H60163  12.731   5.126   8.967  1.1664 -1.4054  1.8292
  456MOL0     H60164  12.569   4.963   9.149 -0.7625  1.3268 -0.3401
  456MOL0     H60165  12.737   4.923   9.085  0.1166  0.8923 -1.5925
  456MOL0     H60166  12.819   5.115   9.213 -0.1211 -1.4950 -0.2559
  456MOL0     H60167  12.751   4.985   9.309 -0.6446 -2.0517 -1.6143
  456MOL0     H60168  12.541   5.099   9.324 -0.0990  1.1817  1.7276
  456MOL0     H60169  12.594   5.251   9.249 -2.4535 -1.2580 -2.2288
  456MOL0     H60170  12.731   5.139   9.485 -0.6588 -1.2888 -1.0652
  456MOL0     H60171  12.734   5.305   9.407 -0.5925  0.2559  0.4081
  456MOL0     H60172  12.612   5.287   9.617  3.8569 -1.9767 -3.1187
  456MOL0     H60173  12.498   5.169   9.544 -1.8199 -0.3452 -1.9478
  456MOL0     H60174  12.526   5.325   8.588 -0.4804  2.4621 -1.4421
  456MOL0     H60175  12.405   5.440   8.415  0.9604  0.2247 -0.1871
  456MOL0     H60176  12.176   5.417   7.966  0.0151 -2.9472 -0.4721
  456MOL0     H60177  12.015   5.480   7.807 -0.4403 -3.9811  0.6341
  456MOL0     H60178  10.439   5.865   8.089 -1.1595 -0.1674  2.4289
  456MOL0     H60179  10.278   5.989   7.942  4.7716  0.3456  4.8566
  456MOL0     H60180   9.994   6.033   7.616  0.1258  2.5934 -1.7282
  456MOL0     H60181   9.838   6.179   7.512  2.8110 -0.3435  0.3489
  456MOL0     H60182   9.699   6.313   7.433 -0.9209  0.4091 -0.8108
  456MOL0     H60183   9.641   6.398   7.562 -0.7714  0.1595  0.5764
  456MOL0     H60184   9.454   6.308   7.335  0.7011  0.5463 -0.0236
  456MOL0     H60185   9.394   6.402   7.465 -0.0899  0.9836  0.8674
  456MOL0     H60186   9.655   6.488   7.333  0.4748  1.7710  1.4011
  456MOL0     H60187   9.549   6.584   7.436  0.9239 -2.3770  2.1760
  456MOL0     H60188   9.522   6.532   7.136 -1.2546 -1.1669  0.6816
  456MOL0     H60189   9.376   6.557   7.229 -0.6951  0.3149 -1.8672
  456MOL0     H60190   9.518   6.950   7.244  0.5984  0.8946  0.7518
  456MOL0     H60191   9.536   6.075   7.790 -0.2262 -0.9949 -0.6841
  456MOL0     H60192   9.684   5.903   7.890 -0.5892  1.1051  0.0530
  457MOL0     O60193   7.856   3.538  10.471  0.1824 -0.1417 -0.8729
  457MOL0     C60194   7.976   3.517  10.487  0.8208  0.6667 -0.2731
  457MOL0     O60195   8.029   3.397  10.517  0.3272  0.4817 -0.4935
  457MOL0     C60196   7.956   3.288  10.520  0.6672 -0.1263  0.3696
  457MOL0     C60197   8.018   3.162  10.492 -0.5723 -0.4031 -0.1850
  457MOL0     C60198   7.950   3.040  10.513  0.2687  0.6930 -0.8267
  457MOL0     C60199   7.817   3.032  10.564  0.4559 -0.1319  0.6000
  457MOL0     O60200   7.754   2.909  10.587 -0.6134  0.7588  0.1709
  457MOL0     C60201   7.690   2.896  10.713 -0.4179 -1.0380 -0.5013
  457MOL0     C60202   7.537   2.919  10.708 -0.1118 -0.1381 -0.3695
  457MOL0     C60203   7.458   2.795  10.644  0.0887 -0.2960  0.3791
  457MOL0     C60204   7.306   2.818  10.671  0.9024 -0.6156 -0.7180
  457MOL0     C60205   7.211   2.729  10.584  0.3131 -0.7297  0.5790
  457MOL0     C60206   7.182   2.598  10.659  0.2021 -0.4937 -1.1710
  457MOL0     C60207   7.076   2.500  10.604 -0.3015 -1.0402 -1.2585
  457MOL0     C60208   7.127   2.415  10.496 -0.5212  1.1466  0.2176
  457MOL0     N60209   7.021   2.376  10.403  0.5257  0.3539  0.0938
  457MOL0     C60210   6.976   2.249  10.380  0.5399  0.5502 -0.8621
  457MOL0     C60211   6.889   2.250  10.286  0.4434  0.0346 -0.3689
  457MOL0     C60212   6.799   2.131  10.243 -0.5451  0.3766  0.4041
  457MOL0     C60213   6.891   2.017  10.184 -0.5269 -0.3474  0.6988
  457MOL0     C60214   6.903   2.043  10.028 -0.0104 -0.3157  0.2474
  457MOL0     C60215   6.999   2.162   9.999 -1.1087 -0.1003  0.8560
  457MOL0     O60216   7.131   2.135  10.045  0.1652 -0.2803  0.4677
  457MOL0     C60217   7.208   2.243  10.058 -0.6705  0.1632  0.0951
  457MOL0     C60218   7.296   2.239  10.167 -1.0461  0.4318 -0.7175
  457MOL0     C60219   7.389   2.337  10.197 -0.0353 -0.3111 -0.6914
  457MOL0     C60220   7.401   2.448  10.120  0.0654 -0.7833 -0.7060
  457MOL0     C60221   7.510   2.554  10.144  0.0726 -0.9651  0.5302
  457MOL0     O60222   7.527   2.645  10.044  0.4966 -0.3028  0.1937
  457MOL0     C60223   7.607   2.758  10.040 -0.3757 -0.2711  0.3405
  457MOL0     C60224   7.695   2.783  10.149  0.3337 -0.2586  0.1721
  457MOL0     C60225   7.767   2.904  10.158  0.6565  0.7436 -0.0606
  457MOL0     C60226   7.745   2.998  10.065  0.5546 -0.1337  0.7760
  457MOL0     O60227   7.803   3.123  10.054 -0.8341  0.5437 -0.9035
  457MOL0     C60228   7.834   3.187  10.183  0.3270  0.0075  0.0321
  457MOL0     C60229   7.875   3.327  10.173  0.1653 -0.0290  0.1575
  457MOL0     C60230   8.011   3.339  10.111 -0.2494 -0.7435 -0.6353
  457MOL0     C60231   8.027   3.490  10.082 -0.6459 -0.3918  0.6185
  457MOL0     C60232   8.179   3.529  10.052  0.3010 -0.7111 -0.5401
  457MOL0     C60233   8.220   3.464   9.922 -0.2378 -0.1963 -0.3293
  457MOL0     C60234   8.368   3.503   9.882 -0.1959  0.0336 -0.2664
  457MOL0     C60235   8.404   3.438   9.752 -0.5070 -0.0918  0.5746
  457MOL0    Cl60236   8.422   3.265   9.784  0.2342  0.0660  0.1012
  457MOL0     C60237   7.659   2.975   9.952 -0.4771 -0.6476 -0.1042
  457MOL0     C60238   7.592   2.851   9.938  0.6976 -1.2285  0.2459
  457MOL0     O60239   7.587   2.530  10.238  0.0725  0.3367  0.3861
  457MOL0     C60240   7.309   2.460  10.007 -1.4203  0.3195 -0.0083
  457MOL0     C60241   7.225   2.362   9.972 -0.1314  0.2113 -1.0913
  457MOL0     N60242   6.865   2.383  10.262 -0.8185  0.6599  0.5912
  457MOL0     N60243   6.962   2.451  10.306  0.4387 -0.3268 -0.2891
  457MOL0     C60244   7.757   3.161  10.595  0.7065 -0.4883 -0.0030
  457MOL0     C60245   7.829   3.283  10.589  1.3228 -0.4521 -0.9148
  457MOL0     C60246   8.062   3.625  10.478 -1.1241 -0.2361 -0.2052
  457MOL0     C60247   8.019   3.761  10.477 -0.0321 -0.6340  1.1359
  457MOL0     C60248   8.111   3.870  10.458  0.3953 -0.0242  0.0894
  457MOL0     C60249   8.245   3.849  10.464 -1.0292 -0.1959 -0.1588
  457MOL0     O60250   8.327   3.954  10.433  0.5642 -0.4230  0.0908
  457MOL0     C60251   8.458   3.942  10.380 -0.1255 -0.3861  1.0806
  457MOL0     C60252   8.436   3.925  10.239  0.5111  0.5262  0.4852
  457MOL0     C60253   8.550   3.859  10.157  0.9258  0.3923  0.7360
  457MOL0     C60254   8.523   3.864  10.007 -0.4872 -0.4783  0.7618
  457MOL0     C60255   8.632   3.786   9.954 -0.4095  0.5102 -0.0095
  457MOL0     C60256   8.719   3.716   9.905  0.1309 -0.1033 -0.1124
  457MOL0     C60257   8.288   3.713  10.466 -0.3517  0.0457 -0.6748
  457MOL0     C60258   8.198   3.609  10.465 -0.2841  0.4523  0.2093
  457MOL0     H60259   8.120   3.152  10.455 -0.3379 -1.3955  0.6604
  457MOL0     H60260   8.003   2.955  10.471 -4.7643 -3.3800  0.0798
  457MOL0     H60261   7.733   2.963  10.788 -0.6682 -2.2682  0.7874
  457MOL0     H60262   7.715   2.795  10.747  2.3953 -0.7973 -1.5955
  457MOL0     H60263   7.518   3.016  10.660  0.7653  0.2486  0.0518
  457MOL0     H60264   7.513   2.929  10.814 -0.1247  1.5596 -0.4950
  457MOL0     H60265   7.499   2.703  10.686 -0.7317 -1.1190 -0.5713
  457MOL0     H60266   7.475   2.807  10.537  1.3475  0.5642  0.6554
  457MOL0     H60267   7.287   2.823  10.778 -0.3367 -3.3706 -0.7346
  457MOL0     H60268   7.301   2.923  10.639  0.2403  0.5675  2.8384
  457MOL0     H60269   7.246   2.705  10.483  1.3763 -0.3390  0.8445
  457MOL0     H60270   7.121   2.790  10.587  0.9366  0.1914  1.1591
  457MOL0     H60271   7.159   2.613  10.765 -0.5816 -1.7100 -1.1464
  457MOL0     H60272   7.281   2.555  10.676  1.1713  1.7291 -0.8943
  457MOL0     H60273   7.031   2.444  10.687 -1.0852  2.5815  1.0163
  457MOL0     H60274   6.992   2.560  10.569  2.4910  3.6067 -0.7894
  457MOL0     H60275   7.185   2.332  10.538  1.8049  2.3829 -0.3887
  457MOL0     H60276   7.206   2.473  10.449 -0.6921 -0.3979 -2.1659
  457MOL0     H60277   7.003   2.174  10.453 -2.6144  0.9615  0.9003
  457MOL0     H60278   6.730   2.169  10.167 -1.2631  0.6189  1.1614
  457MOL0     H60279   6.738   2.081  10.320 -0.8027 -4.4102 -2.4677
  457MOL0     H60280   6.856   1.915  10.201  3.2447 -2.0470 -0.6830
  457MOL0     H60281   6.991   2.008  10.226  0.5061  0.8465 -1.3365
  457MOL0     H60282   6.941   1.948   9.989 -0.2601 -0.5689  0.6060
  457MOL0     H60283   6.806   2.058   9.981 -0.5586 -0.4346  1.2974
  457MOL0     H60284   6.970   2.253  10.053 -1.1114 -0.1670  0.9676
  457MOL0     H60285   7.011   2.169   9.891 -1.6396 -1.3439  0.7014
  457MOL0     H60286   7.291   2.160  10.241  2.8121  2.0910  1.6902
  457MOL0     H60287   7.459   2.333  10.279 -1.8633 -1.2530  0.8968
  457MOL0     H60288   7.711   2.711  10.228 -1.6633 -2.6092 -1.3877
  457MOL0     H60289   7.835   2.912  10.243  0.6573  1.2684 -0.1092
  457MOL0     H60290   7.911   3.122  10.226  1.3300  1.3772  0.3803
  457MOL0     H60291   7.737   3.185  10.233 -1.3848 -0.6744 -3.0308
  457MOL0     H60292   7.878   3.378  10.269  2.1721 -0.9564  0.6491
  457MOL0     H60293   7.798   3.383  10.119  1.6184 -1.0255 -3.2198
  457MOL0     H60294   8.023   3.275  10.023  2.5080 -2.9195  1.1522
  457MOL0     H60295   8.092   3.302  10.175  0.7593 -1.8520 -2.4557
  457MOL0     H60296   7.959   3.529  10.005  0.7598  0.3721 -0.2714
  457MOL0     H60297   7.977   3.548  10.159 -3.8410  2.1182 -2.9664
  457MOL0     H60298   8.235   3.495  10.139 -1.3690 -2.6850 -0.1466
  457MOL0     H60299   8.188   3.637  10.034 -1.4170 -0.4135  0.1448
  457MOL0     H60300   8.151   3.497   9.844 -0.5272  0.5491  0.2299
  457MOL0     H60301   8.213   3.355   9.930  1.7562 -0.2849  0.8001
  457MOL0     H60302   8.369   3.612   9.884 -0.2543  0.0263  0.1686
  457MOL0     H60303   8.435   3.480   9.965 -0.9847  2.1501  1.0511
  457MOL0     H60304   8.493   3.483   9.707 -0.7740  0.2985  0.4314
  457MOL0     H60305   8.325   3.464   9.682 -2.1443  1.9059  2.9857
  457MOL0     H60306   7.638   3.057   9.884  1.2343 -1.2724 -1.4778
  457MOL0     H60307   7.521   2.841   9.857  1.7044 -0.3100 -0.7867
  457MOL0     H60308   7.317   2.555   9.954 -1.3180  1.4562  1.9323
  457MOL0     H60309   7.167   2.356   9.880 -1.0803 -1.1267 -0.4452
  457MOL0     H60310   7.660   3.169  10.645  1.1083  0.5259  0.6431
  457MOL0     H60311   7.774   3.375  10.608 -0.1582 -1.7071  1.2335
  457MOL0     H60312   7.913   3.777  10.493 -0.0518 -0.5953  0.9649
  457MOL0     H60313   8.086   3.976  10.456  0.6461  0.0348 -1.9593
  457MOL0     H60314   8.528   3.863  10.411 -0.4597 -1.0016  0.3107
  457MOL0     H60315   8.501   4.041  10.394 -2.0833  0.4753  1.2743
  457MOL0     H60316   8.346   3.868  10.215  0.0474  1.4044  0.0834
  457MOL0     H60317   8.424   4.026  10.198  3.5182 -0.4324 -3.3661
  457MOL0     H60318   8.569   3.761  10.200  1.2765  0.5497  0.9432
  457MOL0     H60319   8.641   3.919  10.164  0.7656  1.1101 -1.9507
  457MOL0     H60320   8.432   3.803   9.996  0.8488 -2.2414 -1.1689
  457MOL0     H60321   8.508   3.967   9.977 -2.8388 -1.0669 -0.3392
  457MOL0     H60322   8.788   3.652   9.852 -0.9480 -0.2052 -1.4589
  457MOL0     H60323   8.390   3.687  10.439 -1.0802 -0.1636 -3.4642
  457MOL0     H60324   8.245   3.512  10.452  0.2620  0.5446  1.3855
  458MOL0     O60325   9.418   0.666  11.403  1.0760  0.7681  0.2989
  458MOL0     C60326   9.386   0.761  11.331  0.6777  0.1265  0.1822
  458MOL0     O60327   9.466   0.849  11.260  0.1408 -0.4478 -0.6810
  458MOL0     C60328   9.605   0.836  11.272 -0.0437 -0.2759 -0.1247
  458MOL0     C60329   9.677   0.831  11.396  0.7880  0.2017  0.5054
  458MOL0     C60330   9.818   0.822  11.400  0.3762 -1.1568 -0.2047
  458MOL0     C60331   9.895   0.819  11.288 -0.0800 -0.4039 -0.9122
  458MOL0     O60332  10.036   0.812  11.303  0.6431  0.0193 -0.3821
  458MOL0     C60333  10.119   0.858  11.202  0.2170 -0.4740  0.0131
  458MOL0     C60334  10.264   0.835  11.236 -0.1775  0.3348 -0.2006
  458MOL0     C60335  10.310   0.698  11.191 -0.1162  0.0735  0.2852
  458MOL0     C60336  10.431   0.633  11.265  0.4598 -0.8179 -0.2040
  458MOL0     C60337  10.386   0.559  11.395 -0.7561  0.0751  0.1434
  458MOL0     C60338  10.485   0.474  11.477 -0.2576 -0.8971 -0.2609
  458MOL0     C60339  10.554   0.383  11.381 -0.3205  0.5491 -0.6068
  458MOL0     C60340  10.468   0.279  11.318 -0.6209  0.0642  0.9546
  458MOL0     N60341  10.413   0.173  11.398 -0.2083  0.1837 -0.0568
  458MOL0     C60342  10.293   0.159  11.467  0.1210 -0.1160  0.4125
  458MOL0     C60343  10.286   0.026  11.505 -0.1584 -0.3572 -2.4234
  458MOL0     C60344  10.189  -0.050  11.577 -0.2181  0.2854  0.2625
  458MOL0     C60345  10.037  -0.043  11.544  0.0495  0.0186 -0.9372
  458MOL0     C60346   9.980   0.089  11.607  0.1486 -0.4609 -0.5563
  458MOL0     C60347   9.832   0.101  11.559  0.7469 -0.0005  0.0301
  458MOL0     O60348   9.821   0.139  11.422  0.7777  0.2187 -0.5473
  458MOL0     C60349   9.693   0.159  11.370  0.2751  1.9119 -0.8554
  458MOL0     C60350   9.677   0.126  11.236 -0.2230  0.3143 -0.3357
  458MOL0     C60351   9.559   0.160  11.172  0.1417 -0.4089 -0.1848
  458MOL0     C60352   9.466   0.238  11.239  0.1947  0.6460  0.1326
  458MOL0     C60353   9.351   0.295  11.154 -0.8425  0.2590 -0.2355
  458MOL0     O60354   9.257   0.369  11.217  0.0190 -0.6184  0.5501
  458MOL0     C60355   9.161   0.428  11.148  0.4715 -0.8765 -0.5469
  458MOL0     C60356   9.031   0.376  11.163 -0.2295  0.2662  0.7288
  458MOL0     C60357   8.920   0.412  11.089  0.0746 -0.1612  0.7028
  458MOL0     C60358   8.943   0.523  10.995  1.2461 -0.2245 -0.4576
  458MOL0     O60359   8.846   0.575  10.913 -0.2956 -0.2172 -0.0547
  458MOL0     C60360   8.713   0.519  10.917  0.3093  1.0954 -1.2293
  458MOL0     C60361   8.627   0.602  10.826 -0.2795 -0.0265  0.9502
  458MOL0     C60362   8.615   0.735  10.894  0.5354 -0.9202  0.3823
  458MOL0     C60363   8.524   0.840  10.810  0.0809 -0.9114 -0.7943
  458MOL0     C60364   8.377   0.812  10.811 -0.1398 -0.4948  0.8650
  458MOL0     C60365   8.310   0.884  10.693 -0.0101  0.7269 -0.4043
  458MOL0     C60366   8.319   1.036  10.700  0.6429 -0.1730  0.0153
  458MOL0     C60367   8.260   1.110  10.582 -0.1401  0.2949  0.5501
  458MOL0    Cl60368   8.264   1.018  10.421  0.6467  0.1640  0.1761
  458MOL0     C60369   9.074   0.576  10.980  0.5040  0.8442  0.3394
  458MOL0     C60370   9.182   0.532  11.054 -0.2274  0.2124  0.1871
  458MOL0     O60371   9.355   0.266  11.037 -0.3025  0.2758  0.6120
  458MOL0     C60372   9.466   0.253  11.380  0.3164  0.2931 -0.2556
  458MOL0     C60373   9.583   0.212  11.446  1.1100 -0.0988 -0.4881
  458MOL0     N60374  10.397  -0.033  11.456 -0.4921 -0.2068 -0.2201
  458MOL0     N60375  10.468   0.047  11.394 -0.0459 -0.4750  0.7731
  458MOL0     C60376   9.822   0.823  11.166 -0.7896  0.5766  0.3098
  458MOL0     C60377   9.681   0.831  11.153 -0.7455  0.9313  0.3817
  458MOL0     C60378   9.242   0.789  11.307  0.1379  0.1785  0.6547
  458MOL0     C60379   9.145   0.709  11.371 -0.5777 -0.2407  1.1096
  458MOL0     C60380   9.008   0.730  11.356  0.5187 -0.1018  0.3414
  458MOL0     C60381   8.956   0.824  11.267 -0.3256 -0.7340  0.2801
  458MOL0     O60382   8.826   0.848  11.227  0.2334 -0.2831 -0.4832
  458MOL0     C60383   8.730   0.743  11.260 -1.0685  0.2748 -0.4360
  458MOL0     C60384   8.678   0.765  11.406  1.0920 -0.5983 -0.1878
  458MOL0     C60385   8.602   0.642  11.471  0.5823 -0.4072  0.8150
  458MOL0     C60386   8.522   0.571  11.358 -0.3064  0.1138  0.1794
  458MOL0     C60387   8.417   0.646  11.298  0.4865 -0.7240 -0.4197
  458MOL0     C60388   8.344   0.731  11.257  0.4035 -0.4505  0.3611
  458MOL0     C60389   9.052   0.907  11.206  0.1507 -0.5280 -0.1035
  458MOL0     C60390   9.188   0.895  11.227  0.5195 -1.0069 -0.2235
  458MOL0     H60391   9.608   0.843  11.479 -0.1844 -2.6065  0.2185
  458MOL0     H60392   9.856   0.823  11.501  2.3091 -0.8474 -0.8804
  458MOL0     H60393  10.098   0.966  11.193 -0.3036 -0.1728  3.5617
  458MOL0     H60394  10.091   0.811  11.107  0.0859 -0.3172 -0.0258
  458MOL0     H60395  10.267   0.849  11.345  3.1468 -0.7898 -0.0476
  458MOL0     H60396  10.327   0.912  11.190  1.3321 -1.9576 -2.2110
  458MOL0     H60397  10.323   0.696  11.082 -0.1000 -1.9958  0.2932
  458MOL0     H60398  10.226   0.630  11.210  1.3707 -1.4702  1.5941
  458MOL0     H60399  10.459   0.554  11.194  1.4474 -1.1804  0.5847
  458MOL0     H60400  10.517   0.697  11.285  0.0671  0.0268 -1.1004
  458MOL0     H60401  10.296   0.501  11.371 -0.2897  0.6385 -3.5861
  458MOL0     H60402  10.347   0.634  11.463 -1.5102 -0.9475  0.8747
  458MOL0     H60403  10.426   0.434  11.561 -1.9473 -0.9328 -1.4220
  458MOL0     H60404  10.572   0.519  11.526  0.6041 -1.1579 -1.5214
  458MOL0     H60405  10.599   0.434  11.295 -0.7912 -0.5646 -1.5324
  458MOL0     H60406  10.645   0.340  11.424  0.3212  2.5136  0.1248
  458MOL0     H60407  10.534   0.226  11.249  3.0056  2.4134  2.3288
  458MOL0     H60408  10.390   0.328  11.258 -2.1173 -2.1650  0.9443
  458MOL0     H60409  10.217   0.236  11.476  2.8448  3.0173 -1.4440
  458MOL0     H60410  10.201  -0.041  11.685 -1.2616  3.8917  0.2395
  458MOL0     H60411  10.220  -0.151  11.550  0.1113  0.9653 -2.1143
  458MOL0     H60412   9.992  -0.120  11.606  3.1193  0.1510  1.7191
  458MOL0     H60413  10.015  -0.060  11.438 -2.6676 -2.2601 -0.1104
  458MOL0     H60414   9.982   0.085  11.716 -0.0034  1.5792 -0.4507
  458MOL0     H60415  10.039   0.176  11.578 -3.3876  2.1155 -0.6306
  458MOL0     H60416   9.785   0.176  11.623  0.3720  0.6394 -0.9761
  458MOL0     H60417   9.792  -0.000  11.573  0.1208  0.3461  0.8331
  458MOL0     H60418   9.754   0.063  11.194 -0.0571 -0.3318  0.8922
  458MOL0     H60419   9.553   0.152  11.064 -1.0294  3.0403 -0.5125
  458MOL0     H60420   9.021   0.300  11.240  0.2623  0.5913  1.1156
  458MOL0     H60421   8.822   0.370  11.107 -0.7627  0.4328 -2.0746
  458MOL0     H60422   8.680   0.525  11.022  0.3292 -2.6500 -0.8973
  458MOL0     H60423   8.712   0.417  10.879  1.6166  0.9498 -0.8964
  458MOL0     H60424   8.533   0.562  10.787 -1.6790  4.3740 -0.7414
  458MOL0     H60425   8.693   0.620  10.741  1.8245 -1.4070  2.1917
  458MOL0     H60426   8.716   0.774  10.906  0.2997 -0.9313  2.8846
  458MOL0     H60427   8.559   0.728  10.987 -3.1097 -0.4017 -1.5950
  458MOL0     H60428   8.529   0.938  10.858 -0.1985 -0.0991 -2.3622
  458MOL0     H60429   8.570   0.847  10.711 -0.7349  1.2347 -1.0720
  458MOL0     H60430   8.341   0.840  10.910 -2.3519 -0.2379  0.0556
  458MOL0     H60431   8.365   0.704  10.794  4.4419 -0.7882 -2.2856
  458MOL0     H60432   8.207   0.848  10.689  0.3086 -0.1105 -1.2881
  458MOL0     H60433   8.357   0.843  10.603  3.0058  0.3034  1.2331
  458MOL0     H60434   8.287   1.063  10.801 -1.3084  0.0717 -0.6395
  458MOL0     H60435   8.426   1.061  10.705  0.6785 -0.3791  0.3417
  458MOL0     H60436   8.308   1.208  10.581  1.1163 -0.2234  3.0409
  458MOL0     H60437   8.156   1.140  10.601 -0.5970  0.5481 -1.9761
  458MOL0     H60438   9.099   0.646  10.901  2.1838  0.1665  0.2186
  458MOL0     H60439   9.279   0.580  11.042  1.5089 -1.8999  3.7989
  458MOL0     H60440   9.385   0.283  11.446  1.7229 -1.8429  2.6988
  458MOL0     H60441   9.588   0.236  11.552  1.9673 -0.7880 -0.3672
  458MOL0     H60442   9.884   0.812  11.077  1.2751 -1.1465  1.8349
  458MOL0     H60443   9.619   0.834  11.064 -0.1203 -0.6588 -0.1611
  458MOL0     H60444   9.182   0.632  11.439 -0.4654  1.1428  2.6610
  458MOL0     H60445   8.945   0.664  11.415 -0.9756  0.2975 -0.7533
  458MOL0     H60446   8.785   0.650  11.245 -0.0824  1.1078 -2.2449
  458MOL0     H60447   8.651   0.747  11.185  1.3630  1.3494 -3.1078
  458MOL0     H60448   8.766   0.776  11.469  1.3195  1.9973 -0.8517
  458MOL0     H60449   8.616   0.855  11.405 -0.6686 -1.5299  4.1482
  458MOL0     H60450   8.530   0.672  11.547  0.6073  3.4369 -0.4773
  458MOL0     H60451   8.669   0.574  11.525 -2.0280 -1.2869  3.1985
  458MOL0     H60452   8.581   0.531  11.275 -1.8076 -0.9672 -0.3887
  458MOL0     H60453   8.473   0.492  11.416  0.9884 -0.0982  1.0458
  458MOL0     H60454   8.280   0.813  11.231  2.3736  1.2161  0.5521
  458MOL0     H60455   9.014   0.977  11.132 -0.7560 -2.3419 -1.4472
  458MOL0     H60456   9.248   0.980  11.193 -0.8665  0.8719  1.7447
  459MOL0     O60457   9.713   6.859   4.764  0.0842  0.7663  0.0824
  459MOL0     C60458   9.601   6.892   4.733  0.0380  1.4050 -0.7988
  459MOL0     O60459   9.554   6.891   4.611 -0.2265  0.0255 -0.0380
  459MOL0     C60460   9.647   6.878   4.512 -0.3910 -0.2708 -0.1980
  459MOL0     C60461   9.738   6.986   4.476  0.2247 -0.9525  0.2762
  459MOL0     C60462   9.840   6.954   4.378  0.1666 -0.1430 -0.6393
  459MOL0     C60463   9.857   6.829   4.320  0.5708  0.1698 -0.1149
  459MOL0     O60464   9.968   6.792   4.249 -0.6841  0.5953 -0.1158
  459MOL0     C60465  10.029   6.898   4.177  0.1877 -0.4816 -0.1362
  459MOL0     C60466  10.125   6.841   4.073 -1.2481 -1.0988 -0.1232
  459MOL0     C60467  10.213   6.722   4.123 -0.1550 -1.2855  0.6853
  459MOL0     C60468  10.275   6.661   3.993 -1.2485 -0.1547 -0.9097
  459MOL0     C60469  10.375   6.553   4.027 -0.6550  0.5975  0.4291
  459MOL0     C60470  10.458   6.539   3.892 -0.1165 -0.3929  0.3590
  459MOL0     C60471  10.549   6.426   3.895 -0.9843  0.4820 -0.1299
  459MOL0     C60472  10.672   6.463   3.977  0.3042 -0.4629 -0.1598
  459MOL0     N60473  10.784   6.365   3.984 -0.4962 -0.3274 -0.7196
  459MOL0     C60474  10.845   6.305   3.876  0.2310 -1.1128 -0.8105
  459MOL0     C60475  10.935   6.218   3.933 -0.3398 -0.5569  0.0109
  459MOL0     C60476  11.026   6.130   3.848 -0.6058 -0.5981 -0.1235
  459MOL0     C60477  11.110   6.039   3.932  0.2660 -0.0592 -0.2910
  459MOL0     C60478  11.240   6.101   3.985 -0.2215 -0.5663 -0.7372
  459MOL0     C60479  11.339   6.135   3.878  0.0437 -0.2906  0.8953
  459MOL0     O60480  11.390   6.003   3.836  0.3131 -0.1694  0.6637
  459MOL0     C60481  11.439   5.996   3.713 -0.4487 -1.2977  0.4459
  459MOL0     C60482  11.573   6.029   3.693  1.0088 -1.4835 -0.1950
  459MOL0     C60483  11.625   6.027   3.566 -0.7237  0.0947 -0.7054
  459MOL0     C60484  11.548   5.984   3.457 -0.3038 -1.0061  1.4055
  459MOL0     C60485  11.607   5.968   3.314  0.1106  0.4662 -1.0251
  459MOL0     O60486  11.733   6.023   3.297  0.3425 -0.4496 -0.0783
  459MOL0     C60487  11.785   6.010   3.167  0.1988 -0.1112 -0.3483
  459MOL0     C60488  11.910   5.954   3.170  0.4414  0.6753 -0.1008
  459MOL0     C60489  11.993   5.948   3.058 -0.1269  0.7290 -0.2260
  459MOL0     C60490  11.953   6.004   2.943  0.8315  0.1021 -0.7392
  459MOL0     O60491  12.014   6.012   2.828  0.6317  0.7252 -0.0560
  459MOL0     C60492  12.133   5.929   2.812  0.5402  0.1533  0.9985
  459MOL0     C60493  12.195   5.952   2.675 -0.5378  0.3782 -0.9947
  459MOL0     C60494  12.097   5.913   2.567  1.5444  0.6615 -0.1019
  459MOL0     C60495  12.159   5.932   2.431 -0.7177 -0.0330  0.9698
  459MOL0     C60496  12.059   5.916   2.314  0.1363  0.1247 -0.4309
  459MOL0     C60497  12.101   5.955   2.178  0.9695 -0.1271 -0.0095
  459MOL0     C60498  12.001   5.923   2.068  0.0431 -0.4933  0.8690
  459MOL0     C60499  12.066   5.935   1.930 -0.4949 -0.4425 -0.1630
  459MOL0    Cl60500  12.087   6.093   1.870 -0.5320  0.0391 -0.3321
  459MOL0     C60501  11.828   6.073   2.945  1.3950  0.2237  0.3503
  459MOL0     C60502  11.745   6.086   3.053  0.1504  0.3173 -0.4409
  459MOL0     O60503  11.549   5.915   3.220  0.5262  0.7980 -0.7855
  459MOL0     C60504  11.419   5.937   3.476  0.2919 -0.1327 -0.2758
  459MOL0     C60505  11.371   5.945   3.609  0.5128  0.2829 -0.7167
  459MOL0     N60506  10.926   6.226   4.075  0.3829 -0.1174  0.2107
  459MOL0     N60507  10.837   6.318   4.103  0.5262  0.0382  0.8423
  459MOL0     C60508   9.758   6.731   4.351 -1.0229  0.1037 -1.3585
  459MOL0     C60509   9.656   6.759   4.439 -0.8714  1.4362 -0.6141
  459MOL0     C60510   9.512   6.917   4.843  0.0350  0.3762  0.0528
  459MOL0     C60511   9.380   6.931   4.817 -0.1833 -0.4336  0.1863
  459MOL0     C60512   9.292   6.975   4.910  0.2713 -0.3691 -0.2957
  459MOL0     C60513   9.326   6.996   5.047 -0.1932  0.7187  0.4106
  459MOL0     O60514   9.239   7.049   5.135  0.6386  0.3690  0.4949
  459MOL0     C60515   9.282   7.062   5.265  0.5066 -0.0866 -0.0989
  459MOL0     C60516   9.142   7.096   5.339 -0.9692  0.5447  0.4157
  459MOL0     C60517   9.172   7.110   5.490  0.8234  0.4737 -0.3825
  459MOL0     C60518   9.217   7.247   5.543 -0.3968  0.2523  0.4462
  459MOL0     C60519   9.126   7.352   5.511  0.1241 -0.6110 -0.8055
  459MOL0     C60520   9.046   7.440   5.490 -0.0307  0.0225  0.6098
  459MOL0     C60521   9.460   6.966   5.073  0.3443  0.2722  0.2346
  459MOL0     C60522   9.548   6.928   4.973  0.4198 -0.2923  0.2499
  459MOL0     H60523   9.732   7.081   4.528 -3.3190 -1.8766  1.7978
  459MOL0     H60524   9.912   7.034   4.366  0.2034  1.1025  5.1539
  459MOL0     H60525  10.073   6.962   4.254 -1.2124  0.5963 -0.1993
  459MOL0     H60526   9.968   6.978   4.134 -1.1504  0.3669  2.9767
  459MOL0     H60527  10.187   6.921   4.030 -4.6828  2.1033  0.3613
  459MOL0     H60528  10.054   6.820   3.992 -3.2764 -0.2747  1.3723
  459MOL0     H60529  10.148   6.642   4.161 -2.3771 -0.9035 -2.0169
  459MOL0     H60530  10.288   6.745   4.199  2.0168 -0.1783 -1.6514
  459MOL0     H60531  10.193   6.633   3.927 -0.9449 -1.7671 -0.6281
  459MOL0     H60532  10.342   6.733   3.945  1.8032 -0.9757  1.7654
  459MOL0     H60533  10.326   6.459   4.053 -1.7037  0.8871 -0.4792
  459MOL0     H60534  10.437   6.590   4.110  2.6969  1.2078 -2.1390
  459MOL0     H60535  10.500   6.633   3.853 -1.8964  0.5224  0.4998
  459MOL0     H60536  10.397   6.508   3.807  0.8038 -0.3509 -0.3356
  459MOL0     H60537  10.499   6.343   3.944 -1.4121  0.6836 -0.2197
  459MOL0     H60538  10.571   6.411   3.789  0.4802  1.6968 -0.0433
  459MOL0     H60539  10.633   6.494   4.074 -0.9646  1.1755 -1.1351
  459MOL0     H60540  10.701   6.551   3.918 -2.4336  0.6000 -0.0744
  459MOL0     H60541  10.811   6.316   3.774  0.4420 -0.8219 -0.8502
  459MOL0     H60542  11.099   6.178   3.782 -1.3217 -0.3072 -0.7215
  459MOL0     H60543  10.946   6.076   3.798 -3.1834  2.3691  0.4342
  459MOL0     H60544  11.141   5.960   3.864 -2.6159 -1.7555  0.1993
  459MOL0     H60545  11.056   6.001   4.019 -0.0985  1.0493 -0.0173
  459MOL0     H60546  11.205   6.187   4.043  1.5869 -1.0018  1.1489
  459MOL0     H60547  11.292   6.038   4.058  0.9625  0.2145 -0.8809
  459MOL0     H60548  11.432   6.185   3.907  2.2889 -0.9043 -4.1506
  459MOL0     H60549  11.298   6.217   3.818 -1.4967  2.9048  5.7711
  459MOL0     H60550  11.618   6.080   3.778 -1.4159 -1.0180  0.8880
  459MOL0     H60551  11.728   6.056   3.551  1.0315 -3.8537  1.8702
  459MOL0     H60552  11.941   5.905   3.262  1.5443  1.4914 -0.0216
  459MOL0     H60553  12.086   5.894   3.050 -1.2891 -1.0228 -4.1502
  459MOL0     H60554  12.093   5.827   2.804 -1.3049  0.9838 -3.3198
  459MOL0     H60555  12.207   5.941   2.892  0.5700 -0.2221  1.0334
  459MOL0     H60556  12.290   5.898   2.665 -0.7635 -0.5073  1.1832
  459MOL0     H60557  12.224   6.056   2.661  2.1603 -0.0773  0.5065
  459MOL0     H60558  12.006   5.973   2.575  0.1631 -1.2141 -0.9170
  459MOL0     H60559  12.065   5.809   2.572  1.8619  0.6268  2.1865
  459MOL0     H60560  12.191   6.036   2.438 -2.0152  0.3929  0.8770
  459MOL0     H60561  12.245   5.867   2.412 -0.6799  0.6931 -1.9681
  459MOL0     H60562  11.964   5.969   2.327 -0.9007 -1.1756 -2.2668
  459MOL0     H60563  12.035   5.810   2.309  0.5434  0.1102 -3.5062
  459MOL0     H60564  12.188   5.903   2.136  0.1664  1.9421 -4.9004
  459MOL0     H60565  12.142   6.056   2.181  0.0746  0.3347 -1.7210
  459MOL0     H60566  11.949   5.828   2.081 -0.1284 -0.6961 -1.0854
  459MOL0     H60567  11.925   6.001   2.081  0.0774 -0.3188  0.0403
  459MOL0     H60568  11.997   5.894   1.856 -1.9799 -0.8880  1.4087
  459MOL0     H60569  12.165   5.890   1.925  0.3814  0.9890  2.2509
  459MOL0     H60570  11.801   6.133   2.858  0.1042  0.6086  0.9799
  459MOL0     H60571  11.657   6.150   3.047 -1.6678 -1.7290  2.0642
  459MOL0     H60572  11.363   5.893   3.394  0.0311 -1.0588  0.3797
  459MOL0     H60573  11.269   5.916   3.632  1.3792 -0.7231  2.2438
  459MOL0     H60574   9.758   6.626   4.323  0.9853 -1.0532  2.2303
  459MOL0     H60575   9.595   6.672   4.463  1.3557 -0.5625 -1.7404
  459MOL0     H60576   9.336   6.922   4.718  2.5687  2.8263 -1.5642
  459MOL0     H60577   9.190   6.999   4.880  0.0474  0.0896  0.7852
  459MOL0     H60578   9.354   7.143   5.282  0.3522 -0.3296  2.0061
  459MOL0     H60579   9.317   6.967   5.307  0.3884 -1.0016 -1.9847
  459MOL0     H60580   9.087   7.183   5.301  0.4296  1.0083 -0.6446
  459MOL0     H60581   9.078   7.008   5.334  0.1907 -0.5398  3.1611
  459MOL0     H60582   9.237   7.029   5.524  1.1687  1.2612  0.8587
  459MOL0     H60583   9.079   7.090   5.544  0.8391  0.3719 -0.3928
  459MOL0     H60584   9.208   7.240   5.652  1.4005  1.0501  0.6829
  459MOL0     H60585   9.315   7.276   5.504  0.2839  0.1393  2.0159
  459MOL0     H60586   8.981   7.522   5.470 -0.5700 -0.1371  1.6234
  459MOL0     H60587   9.501   6.974   5.173 -0.7010  0.9609  0.6303
  459MOL0     H60588   9.653   6.901   4.982  0.6236 -0.1036 -1.3250
  460MOL0     O60589   2.489   4.190   7.343 -0.3350  0.4668  0.2441
  460MOL0     C60590   2.568   4.149   7.253  0.2302  0.8109  0.1474
  460MOL0     O60591   2.543   4.055   7.158  0.3187  0.8564 -0.7434
  460MOL0     C60592   2.417   4.031   7.100 -0.9061  0.6055  0.5198
  460MOL0     C60593   2.421   3.936   6.999  0.8469 -0.2176  0.6991
  460MOL0     C60594   2.304   3.893   6.932 -0.9202  0.6863 -0.1136
  460MOL0     C60595   2.183   3.946   6.970 -0.4013 -0.7139 -1.1599
  460MOL0     O60596   2.081   3.920   6.884 -0.5180 -0.6821 -0.5331
  460MOL0     C60597   1.949   3.951   6.923  0.4256 -0.5479 -0.5820
  460MOL0     C60598   1.845   3.871   6.839  0.0540 -0.7012 -0.0226
  460MOL0     C60599   1.837   3.729   6.899 -0.0596  0.6590  0.3023
  460MOL0     C60600   1.743   3.641   6.811 -0.1347 -0.1899  0.2486
  460MOL0     C60601   1.756   3.499   6.862 -0.1710 -0.5307 -0.5817
  460MOL0     C60602   1.692   3.395   6.773 -0.2837  0.9956  0.3933
  460MOL0     C60603   1.678   3.266   6.851  0.2940 -0.7308 -0.5624
  460MOL0     C60604   1.569   3.175   6.788  0.8985 -0.2468  0.0897
  460MOL0     N60605   1.610   3.121   6.660 -0.0848 -0.4567 -0.3081
  460MOL0     C60606   1.527   3.119   6.548  0.7649 -0.6916 -0.6175
  460MOL0     C60607   1.589   3.045   6.451  0.2875  0.1956 -0.6508
  460MOL0     C60608   1.539   3.003   6.315  0.0903 -0.0389 -0.3362
  460MOL0     C60609   1.653   2.997   6.212 -0.0319  0.5177 -0.1853
  460MOL0     C60610   1.600   3.005   6.065 -0.3391  0.2590 -0.4364
  460MOL0     C60611   1.512   2.878   6.035  0.8128 -0.4788  0.0960
  460MOL0     O60612   1.581   2.757   6.076  0.2173  0.2266 -0.1871
  460MOL0     C60613   1.561   2.639   6.010  0.3175  0.1057 -1.1462
  460MOL0     C60614   1.450   2.615   5.925 -0.1741  0.4827 -1.5753
  460MOL0     C60615   1.434   2.492   5.863 -0.3169 -0.9945 -0.4719
  460MOL0     C60616   1.544   2.409   5.866  0.9108 -0.1684 -0.0238
  460MOL0     C60617   1.533   2.286   5.799 -0.0207  0.2892  0.4124
  460MOL0     O60618   1.429   2.287   5.704 -0.8223 -0.4533 -0.5389
  460MOL0     C60619   1.397   2.167   5.643 -0.7640  0.8502 -0.5350
  460MOL0     C60620   1.260   2.142   5.618  0.4507  0.3695 -0.7103
  460MOL0     C60621   1.203   2.038   5.548 -0.1736  0.1661  0.2419
  460MOL0     C60622   1.283   1.939   5.501  0.3430  0.4589  0.3894
  460MOL0     O60623   1.235   1.823   5.436  0.9877 -0.5851  0.5297
  460MOL0     C60624   1.092   1.787   5.430 -0.0703 -1.0990  1.1417
  460MOL0     C60625   1.081   1.669   5.523  0.1912  0.6639  0.0610
  460MOL0     C60626   1.100   1.527   5.460 -0.1105 -0.1556 -0.9895
  460MOL0     C60627   1.228   1.495   5.387 -0.8111 -0.3340  0.1611
  460MOL0     C60628   1.197   1.424   5.258  0.0600  0.0167 -0.0108
  460MOL0     C60629   1.317   1.396   5.172  0.2911  0.2485 -0.2146
  460MOL0     C60630   1.378   1.257   5.193 -0.3644  1.0210  0.4497
  460MOL0     C60631   1.383   1.182   5.056  0.1641  0.3991  0.2530
  460MOL0    Cl60632   1.210   1.177   4.975 -0.0279 -0.7586  0.2332
  460MOL0     C60633   1.424   1.953   5.518  0.3127  0.6304 -0.4798
  460MOL0     C60634   1.486   2.063   5.589 -0.1406  0.7932  1.5422
  460MOL0     O60635   1.592   2.180   5.841  0.0557 -0.3007  0.7135
  460MOL0     C60636   1.657   2.432   5.950  0.7769  0.3602  0.2769
  460MOL0     C60637   1.671   2.551   6.012 -0.1743  1.0534 -0.6889
  460MOL0     N60638   1.700   2.998   6.513  0.1153  0.6247  0.3818
  460MOL0     N60639   1.718   3.040   6.633  0.5552  0.1658 -0.9265
  460MOL0     C60640   2.179   4.056   7.063  0.7782  1.4448 -0.1541
  460MOL0     C60641   2.301   4.096   7.122  0.3287  0.2433 -0.8907
  460MOL0     C60642   2.713   4.194   7.267 -0.4263 -1.0748 -1.0113
  460MOL0     C60643   2.812   4.140   7.191 -0.8381 -0.2983  0.0257
  460MOL0     C60644   2.948   4.145   7.230  0.2270  0.2345  0.5953
  460MOL0     C60645   2.997   4.220   7.334 -0.0512  0.3090 -0.2610
  460MOL0     O60646   3.125   4.237   7.381  0.0777  0.3673  0.1273
  460MOL0     C60647   3.217   4.279   7.276  0.3400  0.1118 -0.2219
  460MOL0     C60648   3.352   4.221   7.321 -0.4680 -0.6881  0.7841
  460MOL0     C60649   3.479   4.293   7.266 -0.1624 -0.5355  0.1715
  460MOL0     C60650   3.610   4.224   7.297  0.0063  0.1187 -0.6171
  460MOL0     C60651   3.643   4.219   7.439 -0.1930 -0.0561  0.0861
  460MOL0     C60652   3.674   4.189   7.558  0.5952 -0.4042  0.8307
  460MOL0     C60653   2.895   4.296   7.396  0.3286  0.0947  0.7181
  460MOL0     C60654   2.758   4.284   7.368  0.5288  0.0466  0.2129
  460MOL0     H60655   2.506   3.886   6.954 -0.8271 -0.1673 -2.8091
  460MOL0     H60656   2.305   3.814   6.858 -3.8163  3.1844 -3.1708
  460MOL0     H60657   1.931   4.059   6.920  2.5975 -0.0453  1.3302
  460MOL0     H60658   1.942   3.928   7.030  3.5674  2.1114  0.3595
  460MOL0     H60659   1.882   3.852   6.738  5.4122 -0.3631  1.6032
  460MOL0     H60660   1.747   3.918   6.848 -1.0753 -2.4274 -2.2913
  460MOL0     H60661   1.800   3.736   7.002  1.7816  0.8303  0.9849
  460MOL0     H60662   1.931   3.678   6.920 -1.8612 -3.9896 -1.4985
  460MOL0     H60663   1.639   3.675   6.809 -1.1594 -2.7709 -4.0218
  460MOL0     H60664   1.773   3.659   6.707 -2.6325  0.8635 -0.3768
  460MOL0     H60665   1.725   3.501   6.966  0.8091 -0.8809 -0.2696
  460MOL0     H60666   1.860   3.469   6.849 -0.3296 -0.5516 -2.0731
  460MOL0     H60667   1.753   3.380   6.683 -0.9936  0.8407 -0.0659
  460MOL0     H60668   1.593   3.430   6.743 -1.5861 -1.3559  1.6959
  460MOL0     H60669   1.775   3.214   6.855  0.7853  0.2354  2.1862
  460MOL0     H60670   1.666   3.289   6.957 -0.7260 -2.4702 -0.2629
  460MOL0     H60671   1.477   3.234   6.779  1.6696  0.7428 -2.0419
  460MOL0     H60672   1.545   3.089   6.851 -2.7570  1.2208  0.9421
  460MOL0     H60673   1.428   3.160   6.534  0.2923 -0.1544  3.1804
  460MOL0     H60674   1.463   3.079   6.296 -0.0770  0.4310  2.0130
  460MOL0     H60675   1.486   2.908   6.314 -0.5043  0.2740 -2.0123
  460MOL0     H60676   1.718   2.911   6.224  1.3404  0.8483 -3.8903
  460MOL0     H60677   1.707   3.092   6.224 -0.5370  0.8800 -0.7034
  460MOL0     H60678   1.527   3.082   6.037 -1.1020 -1.0695 -2.3935
  460MOL0     H60679   1.675   3.007   5.985 -3.9317  3.1146 -4.2146
  460MOL0     H60680   1.490   2.878   5.927 -1.3861 -2.3908  0.4664
  460MOL0     H60681   1.415   2.879   6.086 -0.1637  2.1811 -1.5786
  460MOL0     H60682   1.363   2.679   5.933 -0.7383 -0.4235  0.3309
  460MOL0     H60683   1.346   2.486   5.800  0.4615  2.0448 -2.0513
  460MOL0     H60684   1.207   2.228   5.658  0.6905  0.9815 -1.6834
  460MOL0     H60685   1.097   2.041   5.525 -0.2092 -3.4755 -0.7251
  460MOL0     H60686   1.060   1.775   5.326 -0.8415  1.2003  1.0629
  460MOL0     H60687   1.035   1.876   5.459  2.1574  0.8684 -0.1533
  460MOL0     H60688   0.979   1.669   5.562 -1.9627 -4.7104 -4.2370
  460MOL0     H60689   1.163   1.678   5.595 -0.2337 -1.8069  0.9344
  460MOL0     H60690   1.022   1.524   5.384  2.4143  1.2258 -3.8842
  460MOL0     H60691   1.092   1.447   5.534  1.3376 -1.4737 -2.1779
  460MOL0     H60692   1.284   1.586   5.363  0.8965 -1.3740  0.0046
  460MOL0     H60693   1.298   1.438   5.449 -2.7295 -1.7201  1.1594
  460MOL0     H60694   1.135   1.496   5.203 -3.1023 -0.0757  3.0519
  460MOL0     H60695   1.147   1.328   5.273 -0.3447  0.2128 -0.0828
  460MOL0     H60696   1.385   1.481   5.183  0.3604  0.2894 -0.9129
  460MOL0     H60697   1.281   1.399   5.069 -1.5998 -1.5078  0.3300
  460MOL0     H60698   1.481   1.273   5.226  1.4893 -2.3382 -2.9916
  460MOL0     H60699   1.326   1.198   5.270  2.2350 -0.7301  0.9751
  460MOL0     H60700   1.433   1.086   5.071  1.5074  1.0320 -0.0862
  460MOL0     H60701   1.447   1.238   4.987  0.7391  2.7227  2.5486
  460MOL0     H60702   1.486   1.872   5.480  0.6750  0.2336  0.9008
  460MOL0     H60703   1.594   2.056   5.591 -0.2283 -1.1309  1.5683
  460MOL0     H60704   1.734   2.359   5.973  0.0677 -0.6204 -0.3240
  460MOL0     H60705   1.763   2.584   6.058 -0.5956 -1.4816  2.3126
  460MOL0     H60706   2.085   4.110   7.070  0.0129  0.2457 -0.7605
  460MOL0     H60707   2.300   4.185   7.184 -1.1497 -0.1673 -0.2809
  460MOL0     H60708   2.775   4.085   7.105 -0.4962  0.0219 -0.3324
  460MOL0     H60709   3.004   4.068   7.177  1.1096  1.1843  0.1356
  460MOL0     H60710   3.224   4.388   7.287 -1.7631  0.2198  0.4907
  460MOL0     H60711   3.196   4.236   7.178 -3.0216 -0.8157  0.7912
  460MOL0     H60712   3.368   4.245   7.426  0.1495 -3.2748  1.3464
  460MOL0     H60713   3.358   4.114   7.298  0.6802 -0.1059 -2.1085
  460MOL0     H60714   3.475   4.392   7.312 -1.5703 -0.8011  0.6650
  460MOL0     H60715   3.470   4.295   7.157 -2.2017 -0.0705  0.3021
  460MOL0     H60716   3.609   4.118   7.268  0.8167  0.6106 -2.6208
  460MOL0     H60717   3.693   4.285   7.261  0.2788 -0.0797 -0.3230
  460MOL0     H60718   3.708   4.171   7.659 -1.1590  2.7570  2.1214
  460MOL0     H60719   2.925   4.366   7.474  0.8819  0.4631  0.1791
  460MOL0     H60720   2.698   4.356   7.422  0.1224 -1.5103  1.9238
  461MOL0     O60721   8.526   7.367   6.102 -0.0846  0.1201 -0.5518
  461MOL0     C60722   8.459   7.381   5.998 -0.1563  0.4643  0.1467
  461MOL0     O60723   8.408   7.506   5.958 -0.0130  0.4840 -1.0893
  461MOL0     C60724   8.398   7.593   6.066  0.1437  0.2550 -0.4965
  461MOL0     C60725   8.284   7.603   6.152  0.5530  0.4586 -0.8001
  461MOL0     C60726   8.283   7.691   6.267 -0.4745 -0.3668 -0.7205
  461MOL0     C60727   8.394   7.773   6.286  0.2448  0.2163 -0.2426
  461MOL0     O60728   8.391   7.856   6.394 -0.0830 -0.5014  0.9947
  461MOL0     C60729   8.458   7.984   6.388  0.3598  0.6918  0.4998
  461MOL0     C60730   8.440   8.064   6.523 -0.1494  0.6459  0.6737
  461MOL0     C60731   8.486   8.217   6.510  0.3291  0.3636  0.9869
  461MOL0     C60732   8.602   8.244   6.612 -0.4293 -0.3220  0.0958
  461MOL0     C60733   8.730   8.192   6.544 -0.8738  0.0315  0.1889
  461MOL0     C60734   8.825   8.136   6.653  0.4068 -0.5100 -0.1389
  461MOL0     C60735   8.938   8.043   6.607 -0.9399 -0.1676 -0.0522
  461MOL0     C60736   9.016   8.112   6.491  0.4545  0.1944 -0.4808
  461MOL0     N60737   9.067   8.246   6.521  0.1399 -0.3384 -0.4787
  461MOL0     C60738   9.157   8.284   6.618 -0.0992 -0.6294 -0.7825
  461MOL0     C60739   9.198   8.416   6.586  0.4189 -0.2799  0.1630
  461MOL0     C60740   9.310   8.509   6.641 -0.4031  1.0364  0.6493
  461MOL0     C60741   9.296   8.543   6.781 -0.3888 -0.0759  0.0178
  461MOL0     C60742   9.406   8.640   6.819 -0.8442 -0.0859 -0.0035
  461MOL0     C60743   9.433   8.633   6.966 -0.5571 -0.0003  0.0596
  461MOL0     O60744   9.315   8.671   7.042 -1.2867 -0.7224  1.2051
  461MOL0     C60745   9.309   8.789   7.107  0.0963 -0.5388 -0.4853
  461MOL0     C60746   9.252   8.792   7.237 -0.3565  0.2215  0.4134
  461MOL0     C60747   9.259   8.907   7.312  0.3431 -1.5217 -0.6777
  461MOL0     C60748   9.310   9.032   7.266  0.0630 -0.6028 -0.5656
  461MOL0     C60749   9.302   9.158   7.354  0.0917  0.9037 -0.0274
  461MOL0     O60750   9.284   9.152   7.489 -0.4160  0.0777  0.2082
  461MOL0     C60751   9.292   9.269   7.561 -0.0057  1.0872 -0.0751
  461MOL0     C60752   9.407   9.339   7.593  0.2070 -0.2813  0.0758
  461MOL0     C60753   9.410   9.440   7.690  0.3678  0.3157 -0.6441
  461MOL0     C60754   9.304   9.471   7.770  0.2274 -0.0124  0.8437
  461MOL0     O60755   9.304   9.550   7.882  0.3431 -1.4373 -0.1961
  461MOL0     C60756   9.428   9.586   7.950  0.2420 -0.1671  0.4807
  461MOL0     C60757   9.381   9.651   8.082  0.8494 -0.4090 -0.2942
  461MOL0     C60758   9.502   9.710   8.164  0.1079  0.7270  1.0154
  461MOL0     C60759   9.456   9.746   8.314 -0.1278  0.0173 -0.4175
  461MOL0     C60760   9.583   9.808   8.385 -0.1718 -0.2226 -0.3911
  461MOL0     C60761   9.548   9.832   8.535  0.4218 -0.8301  0.5510
  461MOL0     C60762   9.674   9.864   8.623  0.0342  0.1938 -0.2230
  461MOL0     C60763   9.613   9.863   8.767  0.5992 -0.1456  0.1390
  461MOL0    Cl60764   9.576   9.707   8.827  0.2673  0.2353 -0.0296
  461MOL0     C60765   9.184   9.403   7.745 -0.2322  0.0818 -0.3560
  461MOL0     C60766   9.182   9.305   7.647 -0.7125  0.2933 -0.4756
  461MOL0     O60767   9.304   9.263   7.286 -0.5436 -0.1133 -0.2191
  461MOL0     C60768   9.351   9.028   7.134 -0.3276 -0.5062  0.2672
  461MOL0     C60769   9.360   8.904   7.054  1.2035 -0.0423  0.1317
  461MOL0     N60770   9.124   8.456   6.469 -0.8324  0.7789  0.7763
  461MOL0     N60771   9.052   8.350   6.433 -1.1702  0.3530  0.8704
  461MOL0     C60772   8.501   7.772   6.193 -0.4646 -0.4802 -0.3917
  461MOL0     C60773   8.498   7.684   6.083 -0.2142  0.0625 -0.3490
  461MOL0     C60774   8.424   7.261   5.906  0.0810  0.2918 -0.2111
  461MOL0     C60775   8.328   7.271   5.806  0.7897 -0.2058 -0.4276
  461MOL0     C60776   8.295   7.169   5.715 -0.0746 -0.2688 -0.0407
  461MOL0     C60777   8.364   7.052   5.738 -0.8391  0.3484 -0.6675
  461MOL0     O60778   8.344   6.970   5.634 -0.2915  0.3403  0.3470
  461MOL0     C60779   8.384   6.834   5.647  0.0152  0.2471 -0.9490
  461MOL0     C60780   8.298   6.734   5.573 -0.2310 -0.1280 -0.3151
  461MOL0     C60781   8.252   6.788   5.437 -0.0936  0.0535 -0.6111
  461MOL0     C60782   8.368   6.806   5.341 -0.5220  0.5135 -0.1138
  461MOL0     C60783   8.464   6.695   5.334 -0.6590  0.4175  0.3621
  461MOL0     C60784   8.555   6.610   5.340 -0.3537  0.6018 -0.5345
  461MOL0     C60785   8.478   7.040   5.834  1.1559  0.3294  0.1849
  461MOL0     C60786   8.504   7.143   5.918  0.0188  0.3410 -0.2391
  461MOL0     H60787   8.197   7.541   6.133  1.2927 -1.2134  0.9946
  461MOL0     H60788   8.208   7.662   6.340  1.0916 -0.2128  1.0180
  461MOL0     H60789   8.420   8.046   6.306  0.1198  0.6786  0.5995
  461MOL0     H60790   8.566   7.970   6.374  0.8544  3.3734  1.0862
  461MOL0     H60791   8.473   8.018   6.616 -1.3477  2.0656  1.8470
  461MOL0     H60792   8.333   8.065   6.546  0.1177  0.7400  1.9367
  461MOL0     H60793   8.404   8.289   6.516  0.1960  0.4132 -0.9390
  461MOL0     H60794   8.517   8.229   6.406 -1.2824 -2.9162 -0.0197
  461MOL0     H60795   8.621   8.351   6.627  1.8514 -0.7191  0.4258
  461MOL0     H60796   8.576   8.196   6.707 -1.6454 -2.5288 -1.2662
  461MOL0     H60797   8.774   8.268   6.478 -1.0425  0.0721  0.1217
  461MOL0     H60798   8.719   8.110   6.473  0.3983  0.5336 -0.6154
  461MOL0     H60799   8.768   8.091   6.735 -0.4340  1.8903  0.6626
  461MOL0     H60800   8.876   8.220   6.701 -0.0392 -0.9430  1.1497
  461MOL0     H60801   9.005   8.042   6.693  0.8929  1.7761 -1.3448
  461MOL0     H60802   8.896   7.944   6.589  0.4724 -0.8809  0.4687
  461MOL0     H60803   8.949   8.107   6.405  0.6887  5.9544 -1.4011
  461MOL0     H60804   9.101   8.043   6.482  0.0014 -0.1145 -3.0213
  461MOL0     H60805   9.184   8.227   6.707 -1.3641 -0.3143 -0.1653
  461MOL0     H60806   9.303   8.598   6.578  0.8640  0.8530  0.2299
  461MOL0     H60807   9.402   8.454   6.622 -1.8110 -0.2957 -3.3526
  461MOL0     H60808   9.300   8.452   6.843  2.1562 -0.1679 -0.1916
  461MOL0     H60809   9.203   8.596   6.802  0.9511  1.6600  1.9890
  461MOL0     H60810   9.501   8.609   6.773 -1.4914 -1.4976 -0.4515
  461MOL0     H60811   9.381   8.742   6.787  0.0029  1.7276  4.4536
  461MOL0     H60812   9.518   8.699   6.985 -1.2122  0.7011  0.6211
  461MOL0     H60813   9.457   8.529   6.987 -1.7106 -0.6931 -1.8281
  461MOL0     H60814   9.209   8.695   7.259  0.8415 -0.4557 -0.1338
  461MOL0     H60815   9.208   8.911   7.408 -1.5371  0.4359 -1.6637
  461MOL0     H60816   9.500   9.309   7.546  0.7241 -0.6730  1.3200
  461MOL0     H60817   9.510   9.475   7.711  1.1384 -1.3719 -1.3172
  461MOL0     H60818   9.498   9.655   7.902  1.4792  1.3004  4.0847
  461MOL0     H60819   9.475   9.496   7.991 -0.1930 -0.6018  0.0392
  461MOL0     H60820   9.324   9.583   8.146  0.6002  0.9234  0.9678
  461MOL0     H60821   9.321   9.740   8.063 -0.3590 -1.1527 -0.0477
  461MOL0     H60822   9.539   9.796   8.106  1.3795 -0.9250 -0.7623
  461MOL0     H60823   9.572   9.626   8.176 -1.5725 -0.8673  0.1738
  461MOL0     H60824   9.378   9.823   8.311  1.3958  1.8583  2.3807
  461MOL0     H60825   9.431   9.656   8.370 -1.5346 -1.2336 -2.9482
  461MOL0     H60826   9.620   9.896   8.331  0.9424 -2.1531 -3.0091
  461MOL0     H60827   9.661   9.732   8.390 -0.6132 -0.7833 -1.6698
  461MOL0     H60828   9.489   9.754   8.584 -1.2974 -0.9015 -1.4639
  461MOL0     H60829   9.499   9.929   8.538  1.1061 -0.3613 -1.6758
  461MOL0     H60830   9.739   9.780   8.598 -2.3058 -1.3762 -1.4373
  461MOL0     H60831   9.727   9.950   8.584 -0.0118 -0.2418 -1.2837
  461MOL0     H60832   9.519   9.920   8.764 -1.2113 -2.8397  1.8045
  461MOL0     H60833   9.681   9.926   8.826  0.8884 -2.7193  2.7572
  461MOL0     H60834   9.101   9.406   7.815 -1.2467 -0.8756 -1.4754
  461MOL0     H60835   9.091   9.246   7.650  0.4527 -1.5597  2.2254
  461MOL0     H60836   9.376   9.124   7.091  1.9632 -1.4338 -0.6010
  461MOL0     H60837   9.402   8.906   6.954  2.4341 -1.4362  0.5792
  461MOL0     H60838   8.588   7.836   6.205 -2.1234  1.9653 -0.5477
  461MOL0     H60839   8.590   7.670   6.027  0.3948 -0.0510  0.6604
  461MOL0     H60840   8.287   7.368   5.783  3.3966  1.0798 -0.0116
  461MOL0     H60841   8.219   7.171   5.637 -0.7602  1.4068  0.6170
  461MOL0     H60842   8.390   6.797   5.749  0.5268 -1.3901 -1.5320
  461MOL0     H60843   8.488   6.822   5.614  0.8559 -0.5347  1.7614
  461MOL0     H60844   8.346   6.637   5.564  1.2519  0.3892  1.3883
  461MOL0     H60845   8.210   6.729   5.637  1.0900  1.6919  1.8064
  461MOL0     H60846   8.204   6.886   5.444  0.6319  0.3351  0.7924
  461MOL0     H60847   8.181   6.711   5.406 -0.2440 -2.3646  4.6565
  461MOL0     H60848   8.325   6.831   5.244 -2.4468  2.5784  1.1601
  461MOL0     H60849   8.423   6.891   5.382  0.7148 -0.8309  1.1109
  461MOL0     H60850   8.642   6.548   5.340 -1.0420 -0.4012  0.5047
  461MOL0     H60851   8.558   6.968   5.836 -1.1115 -2.3594  0.4928
  461MOL0     H60852   8.587   7.130   5.986  0.3983 -0.9379 -0.9197
  462MOL0     O60853   5.456   3.880   1.917 -0.7184 -1.0162 -1.1561
  462MOL0     C60854   5.450   3.875   2.042  0.1661  0.4693  0.4435
  462MOL0     O60855   5.507   3.776   2.116 -0.7926  0.7099  0.2080
  462MOL0     C60856   5.561   3.674   2.036  0.1677  0.3473 -0.8775
  462MOL0     C60857   5.698   3.666   2.015 -0.5844  0.9033  0.7537
  462MOL0     C60858   5.757   3.568   1.944  0.1732 -0.7421 -0.1833
  462MOL0     C60859   5.676   3.459   1.900 -0.4941 -1.2095  0.1831
  462MOL0     O60860   5.725   3.343   1.841  0.5474 -0.3267  0.0696
  462MOL0     C60861   5.861   3.333   1.823 -0.1414 -0.7971  1.0043
  462MOL0     C60862   5.870   3.206   1.733 -0.8191 -0.3772  1.6542
  462MOL0     C60863   6.015   3.184   1.663 -0.1488 -0.3744 -0.0185
  462MOL0     C60864   6.031   3.041   1.609  0.3849  0.4353  0.4564
  462MOL0     C60865   6.174   3.006   1.546  0.5313 -0.3547 -0.3488
  462MOL0     C60866   6.166   2.868   1.498  0.9419  0.6708  0.9326
  462MOL0     C60867   6.279   2.828   1.400  0.0027 -0.6660  0.4489
  462MOL0     C60868   6.403   2.833   1.477 -0.4854 -0.0154  0.2361
  462MOL0     N60869   6.512   2.735   1.435  0.4571 -0.1353  0.8172
  462MOL0     C60870   6.576   2.632   1.501  0.5869 -0.5589  0.1029
  462MOL0     C60871   6.691   2.617   1.431 -0.2813  0.1139  0.7673
  462MOL0     C60872   6.791   2.500   1.444  0.9048 -0.4253  0.6066
  462MOL0     C60873   6.733   2.365   1.391 -1.0349 -0.0717 -0.2479
  462MOL0     C60874   6.756   2.349   1.239  0.6029 -0.2521 -0.4673
  462MOL0     C60875   6.655   2.429   1.160  0.0214 -0.3484  0.5458
  462MOL0     O60876   6.682   2.422   1.014 -0.1241 -0.3966 -0.3295
  462MOL0     C60877   6.770   2.514   0.965 -0.5844 -0.1549  0.0686
  462MOL0     C60878   6.786   2.504   0.833  0.6667  0.2358  0.7066
  462MOL0     C60879   6.863   2.598   0.761  0.0097  0.1454  0.0089
  462MOL0     C60880   6.930   2.702   0.830 -1.6868  0.6276 -0.0583
  462MOL0     C60881   7.025   2.789   0.761  0.0429 -0.0076 -0.6335
  462MOL0     O60882   7.098   2.887   0.829 -0.1556 -0.0450 -0.7149
  462MOL0     C60883   7.203   2.942   0.761  0.6789 -0.7818  0.7890
  462MOL0     C60884   7.313   2.870   0.731 -0.0486 -0.0255  0.3457
  462MOL0     C60885   7.427   2.934   0.684  0.2801  0.7025 -0.1357
  462MOL0     C60886   7.430   3.078   0.673  0.4047  0.3251 -0.1237
  462MOL0     O60887   7.540   3.145   0.648  0.1353 -0.4489  0.2141
  462MOL0     C60888   7.669   3.090   0.661  1.4029 -0.4684  0.3379
  462MOL0     C60889   7.784   3.187   0.699 -0.5207  0.1061  0.2823
  462MOL0     C60890   7.912   3.157   0.605 -1.1217 -0.2131 -0.0592
  462MOL0     C60891   7.978   3.022   0.623  0.1252  0.7961 -0.3053
  462MOL0     C60892   8.095   3.009   0.526 -0.4335  0.0394  0.2646
  462MOL0     C60893   8.169   2.865   0.540  0.3553  0.1555 -0.4426
  462MOL0     C60894   8.239   2.844   0.671 -0.6302 -0.4408 -0.0638
  462MOL0     C60895   8.385   2.806   0.656  0.2140 -0.2368  0.0891
  462MOL0    Cl60896   8.404   2.655   0.562 -0.5125  0.2440 -0.0635
  462MOL0     C60897   7.309   3.147   0.691 -0.1716  0.4122 -0.6474
  462MOL0     C60898   7.193   3.080   0.738  0.7105 -0.2128 -0.4351
  462MOL0     O60899   7.039   2.774   0.639  0.8843  0.0058  0.2201
  462MOL0     C60900   6.911   2.708   0.966  0.1725 -0.4804  0.1360
  462MOL0     C60901   6.834   2.618   1.034 -0.2895  0.3470  0.5782
  462MOL0     N60902   6.711   2.714   1.339  0.9462 -1.3311 -1.4108
  462MOL0     N60903   6.595   2.782   1.334 -0.2419 -0.3691 -0.0319
  462MOL0     C60904   5.538   3.455   1.929 -1.1108 -0.2275 -0.1377
  462MOL0     C60905   5.480   3.566   1.991 -0.0576  0.5967  0.0965
  462MOL0     C60906   5.349   3.970   2.111  0.0595 -0.2743 -0.4102
  462MOL0     C60907   5.274   3.922   2.213 -0.1790 -0.1180 -0.4451
  462MOL0     C60908   5.171   4.001   2.274  0.0790 -0.3410  0.0974
  462MOL0     C60909   5.156   4.136   2.231  0.0614 -0.0996 -0.5947
  462MOL0     O60910   5.074   4.234   2.297 -0.0798  0.0198  0.2810
  462MOL0     C60911   4.996   4.194   2.414 -0.0359 -0.9773  0.3788
  462MOL0     C60912   4.941   4.316   2.487  0.3370  0.8148 -0.7798
  462MOL0     C60913   4.817   4.380   2.433 -0.2429  0.1322  0.0296
  462MOL0     C60914   4.678   4.315   2.470  0.3700  1.4467 -0.5309
  462MOL0     C60915   4.635   4.310   2.615 -0.4888 -0.0634  0.2502
  462MOL0     C60916   4.606   4.321   2.731  0.3685 -0.3082 -0.0675
  462MOL0     C60917   5.237   4.184   2.131 -0.9945 -0.7025  0.2930
  462MOL0     C60918   5.327   4.104   2.072 -0.4043  0.2865 -0.0997
  462MOL0     H60919   5.753   3.745   2.065 -0.6324  1.4324 -0.0120
  462MOL0     H60920   5.861   3.583   1.915 -0.6644 -0.2052 -3.3105
  462MOL0     H60921   5.919   3.328   1.915 -0.9920 -0.6085  1.5569
  462MOL0     H60922   5.904   3.414   1.763 -2.3235  1.0485  1.8161
  462MOL0     H60923   5.795   3.208   1.653 -0.1891  1.0847  1.0740
  462MOL0     H60924   5.851   3.127   1.806 -2.0944 -1.2524  0.4421
  462MOL0     H60925   6.101   3.205   1.727  1.3827 -2.5963 -1.2258
  462MOL0     H60926   6.026   3.249   1.575  0.3991 -0.4621 -0.0172
  462MOL0     H60927   6.022   2.977   1.698  1.4558  2.9855  2.5310
  462MOL0     H60928   5.957   3.009   1.535  0.8445 -0.5173  0.3962
  462MOL0     H60929   6.233   3.009   1.638  0.0696 -2.0480  0.0244
  462MOL0     H60930   6.197   3.075   1.465 -0.6822 -1.1204 -1.3749
  462MOL0     H60931   6.071   2.857   1.444 -0.5320  0.6075  3.3879
  462MOL0     H60932   6.160   2.785   1.569  2.2052 -2.0243 -1.8773
  462MOL0     H60933   6.280   2.733   1.344 -1.5064 -0.0890 -0.6337
  462MOL0     H60934   6.286   2.902   1.320 -3.3663 -0.1301  0.4991
  462MOL0     H60935   6.384   2.817   1.584  2.5138  1.0555  1.0452
  462MOL0     H60936   6.453   2.930   1.464 -0.1657 -0.4257 -1.8647
  462MOL0     H60937   6.536   2.555   1.565 -3.6359  1.8865  0.8136
  462MOL0     H60938   6.806   2.505   1.552 -1.5555  5.4798  1.0471
  462MOL0     H60939   6.889   2.524   1.402 -0.8891 -1.5620 -5.2823
  462MOL0     H60940   6.625   2.364   1.411 -1.3964  0.1077 -2.0294
  462MOL0     H60941   6.794   2.291   1.443 -1.5042 -0.5773 -0.4105
  462MOL0     H60942   6.854   2.385   1.207 -0.4798  1.4420 -2.1046
  462MOL0     H60943   6.736   2.246   1.209 -2.3339 -1.1127  3.5932
  462MOL0     H60944   6.659   2.536   1.179  0.9795 -0.5025  1.3302
  462MOL0     H60945   6.548   2.415   1.175 -0.1917 -0.2308 -0.7505
  462MOL0     H60946   6.767   2.411   0.780  1.8665 -0.9207  2.2158
  462MOL0     H60947   6.867   2.583   0.654 -0.5245 -4.1895  0.4307
  462MOL0     H60948   7.298   2.763   0.740  0.1031 -0.4968 -3.2716
  462MOL0     H60949   7.514   2.871   0.671 -0.6666 -0.4770 -1.0524
  462MOL0     H60950   7.697   3.030   0.573  3.6056 -2.2252  2.1096
  462MOL0     H60951   7.677   3.017   0.742  0.4887 -1.3834 -0.3625
  462MOL0     H60952   7.817   3.184   0.803 -1.4732  2.8544  0.7369
  462MOL0     H60953   7.747   3.289   0.690  1.2034  0.7420  0.1170
  462MOL0     H60954   7.988   3.233   0.623  1.8809 -3.2737  1.3518
  462MOL0     H60955   7.882   3.167   0.500 -1.6292  0.4387  0.1387
  462MOL0     H60956   8.013   3.009   0.726 -2.9797 -0.3230  0.7362
  462MOL0     H60957   7.912   2.937   0.603  3.3642 -1.8428 -0.7779
  462MOL0     H60958   8.177   3.080   0.536 -1.0612  0.7564  0.3828
  462MOL0     H60959   8.062   3.016   0.422  0.6146  2.6122  0.0500
  462MOL0     H60960   8.242   2.866   0.459  3.0892 -3.4058  1.6789
  462MOL0     H60961   8.099   2.785   0.517  0.0624  0.5873 -1.0842
  462MOL0     H60962   8.234   2.942   0.720  0.7312  0.0245 -0.8002
  462MOL0     H60963   8.182   2.763   0.716  1.3746 -0.8470  1.9115
  462MOL0     H60964   8.435   2.788   0.751  1.1515 -1.6436 -0.6338
  462MOL0     H60965   8.422   2.883   0.588  0.1707  0.5530  0.9514
  462MOL0     H60966   7.319   3.254   0.678 -0.9934  0.6425  0.4592
  462MOL0     H60967   7.103   3.132   0.769  0.6033 -1.4496  1.5167
  462MOL0     H60968   6.951   2.797   1.013 -0.3507 -0.0795 -0.1654
  462MOL0     H60969   6.820   2.646   1.138  0.0844  0.6382  0.5541
  462MOL0     H60970   5.475   3.371   1.898 -2.0088  0.2184  0.4576
  462MOL0     H60971   5.373   3.557   2.003 -0.3384 -0.6407 -2.5622
  462MOL0     H60972   5.305   3.823   2.247  3.7931  1.7251  2.0441
  462MOL0     H60973   5.111   3.964   2.357  0.3541  0.3312  0.6136
  462MOL0     H60974   5.070   4.141   2.475 -3.1792 -3.7181  2.1124
  462MOL0     H60975   4.917   4.122   2.394 -0.6168 -0.2446 -0.0520
  462MOL0     H60976   4.920   4.289   2.591  0.9212  3.7159  0.2017
  462MOL0     H60977   5.019   4.393   2.495  2.0067 -0.6266 -2.1535
  462MOL0     H60978   4.828   4.372   2.325  3.7477  1.8983  0.1403
  462MOL0     H60979   4.810   4.487   2.455  0.2010 -0.0219  0.9855
  462MOL0     H60980   4.605   4.373   2.413 -1.5319 -3.2101 -3.3798
  462MOL0     H60981   4.671   4.213   2.432 -3.5771  0.8517  1.2382
  462MOL0     H60982   4.574   4.330   2.832  3.4103  1.0599  0.8933
  462MOL0     H60983   5.243   4.291   2.115  1.1550 -0.6590  1.0144
  462MOL0     H60984   5.392   4.143   1.995  2.6297  1.1367  2.6606
  463MOL0     O60985   3.046   4.807   5.617  0.3216  0.1220  0.8648
  463MOL0     C60986   3.159   4.839   5.599  0.5061  0.4352  0.5516
  463MOL0     O60987   3.221   4.897   5.489 -0.4042 -0.4846  0.2342
  463MOL0     C60988   3.146   4.900   5.374  0.5726 -0.9309  0.5542
  463MOL0     C60989   3.086   5.022   5.335  0.3974  0.3240 -0.6851
  463MOL0     C60990   2.994   5.038   5.234 -0.5886  0.0779  0.0407
  463MOL0     C60991   2.980   4.928   5.142  0.0782 -0.4259 -0.6418
  463MOL0     O60992   2.912   4.961   5.027  0.1859 -0.7353  0.0072
  463MOL0     C60993   2.922   4.870   4.921  0.4319  0.4754 -0.4534
  463MOL0     C60994   2.862   4.914   4.788  0.1010  0.2234  0.0470
  463MOL0     C60995   2.805   4.794   4.697 -0.1510  0.6919 -0.9775
  463MOL0     C60996   2.907   4.675   4.686  0.0183 -0.2412 -0.3615
  463MOL0     C60997   2.838   4.556   4.628 -0.0258 -0.0950 -0.5668
  463MOL0     C60998   2.735   4.585   4.511  1.0497  0.6738 -0.0807
  463MOL0     C60999   2.794   4.639   4.383  0.3108 -0.0714 -0.0262
  463MOL0     C61000   2.895   4.545   4.329  0.4844 -0.3110 -0.1005
  463MOL0     N61001   2.854   4.404   4.323  0.5709  0.1557  0.7532
  463MOL0     C61002   2.807   4.348   4.213  0.0624 -1.0731 -0.4419
  463MOL0     C61003   2.818   4.219   4.228  0.4275  0.3077  0.0881
  463MOL0     C61004   2.812   4.112   4.119  0.9569 -0.4404  1.1355
  463MOL0     C61005   2.697   4.143   4.024  0.6855  0.6931  0.1856
  463MOL0     C61006   2.689   4.045   3.906  1.5105  0.2277 -1.0199
  463MOL0     C61007   2.569   4.082   3.817 -0.4011  0.5340  0.0783
  463MOL0     O61008   2.447   4.076   3.885  0.6159 -0.4791 -0.0812
  463MOL0     C61009   2.348   4.024   3.812  0.5829 -0.2304  0.8164
  463MOL0     C61010   2.262   3.943   3.888  0.6130  0.4849  0.6338
  463MOL0     C61011   2.139   3.890   3.836 -0.3608 -0.1623  0.2565
  463MOL0     C61012   2.115   3.920   3.693  1.2883  0.9157  0.2056
  463MOL0     C61013   2.001   3.852   3.637 -0.3874 -0.0307  1.0796
  463MOL0     O61014   1.901   3.807   3.719  0.1855 -0.2330  0.1304
  463MOL0     C61015   1.787   3.763   3.674  1.1972 -0.4297  0.1714
  463MOL0     C61016   1.704   3.849   3.608  0.6994  0.6234  0.0995
  463MOL0     C61017   1.587   3.799   3.542  0.4772  0.1433 -0.4632
  463MOL0     C61018   1.566   3.666   3.526  1.3397 -0.2458  0.3030
  463MOL0     O61019   1.455   3.615   3.450  0.2900  0.0454 -0.1774
  463MOL0     C61020   1.445   3.684   3.326 -0.7326  0.2830  0.4188
  463MOL0     C61021   1.435   3.578   3.217  1.0638 -0.3788 -0.0976
  463MOL0     C61022   1.339   3.610   3.098  0.6385 -0.3334 -0.3692
  463MOL0     C61023   1.329   3.484   3.013 -0.4091 -0.6993  0.4679
  463MOL0     C61024   1.223   3.470   2.919  1.0276 -0.2746 -0.2854
  463MOL0     C61025   1.216   3.582   2.809  0.7384  0.1681  0.5763
  463MOL0     C61026   1.152   3.716   2.847  0.2775 -0.3375  0.8455
  463MOL0     C61027   1.151   3.791   2.715  0.9664 -0.6994  0.4854
  463MOL0    Cl61028   1.099   3.953   2.771  0.2252  0.1363 -0.3938
  463MOL0     C61029   1.643   3.581   3.594 -0.8603  0.5853 -0.3241
  463MOL0     C61030   1.762   3.629   3.660  0.1959  1.0922 -0.3382
  463MOL0     O61031   2.004   3.831   3.515  1.1624  0.3076 -1.0153
  463MOL0     C61032   2.204   3.993   3.611  0.1388  0.5149 -0.7570
  463MOL0     C61033   2.318   4.041   3.669 -0.1628 -0.0209  0.2190
  463MOL0     N61034   2.863   4.190   4.354  0.0067  0.2833  0.1263
  463MOL0     N61035   2.886   4.307   4.417 -0.0821  0.1478  0.3447
  463MOL0     C61036   3.048   4.809   5.171  0.5358  0.9339  0.3538
  463MOL0     C61037   3.117   4.790   5.290 -0.2163 -0.3281  0.4561
  463MOL0     C61038   3.253   4.803   5.702 -0.0896  0.3686  0.2919
  463MOL0     C61039   3.382   4.765   5.675  0.0332 -0.4922 -0.3655
  463MOL0     C61040   3.467   4.725   5.773  0.9935 -0.1470 -0.7722
  463MOL0     C61041   3.423   4.725   5.912 -0.8415 -0.2037  0.6228
  463MOL0     O61042   3.522   4.672   6.003  0.2243 -0.7481 -0.8315
  463MOL0     C61043   3.477   4.655   6.140  0.3653 -0.2208 -0.1363
  463MOL0     C61044   3.589   4.588   6.220 -0.0729  0.1709 -0.6305
  463MOL0     C61045   3.704   4.684   6.249 -0.4248  1.1484 -0.5665
  463MOL0     C61046   3.841   4.623   6.287 -0.6283 -0.3930  0.3215
  463MOL0     C61047   3.865   4.612   6.429 -0.8855 -0.4977  1.2904
  463MOL0     C61048   3.857   4.590   6.544  0.4227  0.3265 -0.4819
  463MOL0     C61049   3.284   4.748   5.938  0.3540 -0.0845 -0.6447
  463MOL0     C61050   3.204   4.794   5.837 -0.3502 -0.1002 -0.1041
  463MOL0     H61051   3.116   5.113   5.386  0.9504 -0.9075  1.2768
  463MOL0     H61052   2.961   5.139   5.214  1.4904  0.6710 -0.6641
  463MOL0     H61053   2.882   4.772   4.948  1.5890 -0.7067 -2.6728
  463MOL0     H61054   3.029   4.849   4.911  0.4421  0.8744 -1.3381
  463MOL0     H61055   2.950   4.959   4.740 -0.9826 -0.5672 -2.8869
  463MOL0     H61056   2.785   4.990   4.806  0.9263  0.8526  1.0633
  463MOL0     H61057   2.785   4.823   4.594  0.2157 -2.1922 -1.9475
  463MOL0     H61058   2.704   4.767   4.728 -0.1835  2.2946  0.4663
  463MOL0     H61059   2.989   4.700   4.618  1.9838  0.1890  2.0141
  463MOL0     H61060   2.945   4.644   4.783 -1.1092 -1.7415 -0.3595
  463MOL0     H61061   2.782   4.514   4.712 -0.5764 -0.2473 -1.0071
  463MOL0     H61062   2.916   4.486   4.596  2.1096  3.0478 -2.8450
  463MOL0     H61063   2.662   4.659   4.544  2.4872  2.7902 -1.3971
  463MOL0     H61064   2.684   4.492   4.482  0.7283 -1.1236  5.2420
  463MOL0     H61065   2.714   4.665   4.313 -1.8969  2.1754  3.0655
  463MOL0     H61066   2.850   4.731   4.403  3.6960 -2.0877  0.4562
  463MOL0     H61067   2.981   4.541   4.398 -0.8028 -0.0115  1.5943
  463MOL0     H61068   2.928   4.589   4.235 -0.5136 -0.5330 -0.5604
  463MOL0     H61069   2.794   4.402   4.119 -2.0601 -0.2595  0.2584
  463MOL0     H61070   2.803   4.015   4.168 -0.6712 -1.1706 -0.4848
  463MOL0     H61071   2.906   4.116   4.064  0.8533 -0.1323  0.9772
  463MOL0     H61072   2.720   4.240   3.979 -1.9415  1.5283  0.4521
  463MOL0     H61073   2.602   4.146   4.078 -0.0129 -0.6331 -0.8832
  463MOL0     H61074   2.777   4.035   3.842  2.5953  0.2754  0.4146
  463MOL0     H61075   2.676   3.943   3.944  2.2653  1.1357  1.9378
  463MOL0     H61076   2.562   4.027   3.723 -0.0374  2.0154 -0.8641
  463MOL0     H61077   2.600   4.181   3.780  0.9806 -0.0692 -0.4422
  463MOL0     H61078   2.294   3.915   3.988 -1.9909 -3.3307  0.6423
  463MOL0     H61079   2.066   3.825   3.884  0.5295 -2.4775 -1.3282
  463MOL0     H61080   1.721   3.954   3.629 -1.6241  1.1002 -0.1500
  463MOL0     H61081   1.516   3.871   3.504 -0.6477 -2.1553 -3.0860
  463MOL0     H61082   1.534   3.742   3.298  0.6609 -2.0141 -0.1236
  463MOL0     H61083   1.348   3.736   3.329 -2.0584 -2.1041  1.8477
  463MOL0     H61084   1.390   3.494   3.271 -2.2731  2.3965  1.8845
  463MOL0     H61085   1.537   3.561   3.183  1.3234 -2.8533  1.6073
  463MOL0     H61086   1.374   3.694   3.037 -0.3051 -0.4322 -1.0790
  463MOL0     H61087   1.233   3.629   3.117  0.4494 -0.1843 -1.4738
  463MOL0     H61088   1.419   3.485   2.951 -0.7958  0.9740 -0.1028
  463MOL0     H61089   1.326   3.396   3.079 -1.5164  1.1759  3.1260
  463MOL0     H61090   1.128   3.453   2.970  2.4979 -1.8781  2.1367
  463MOL0     H61091   1.245   3.373   2.874 -0.9407 -0.2609 -1.3872
  463MOL0     H61092   1.151   3.534   2.735 -1.1121 -3.6450  4.2373
  463MOL0     H61093   1.314   3.597   2.761 -0.2593  0.0245 -1.6310
  463MOL0     H61094   1.052   3.700   2.890  1.2716 -1.6344  2.8547
  463MOL0     H61095   1.206   3.777   2.921  0.6674  1.6745 -0.9991
  463MOL0     H61096   1.089   3.754   2.633 -1.3899  2.6570  0.5823
  463MOL0     H61097   1.250   3.814   2.675  0.6841  0.6248  0.5189
  463MOL0     H61098   1.636   3.476   3.565 -1.1130  1.4477 -3.8162
  463MOL0     H61099   1.836   3.558   3.696 -0.8381  0.2241  0.1414
  463MOL0     H61100   2.173   4.015   3.510 -1.9567 -2.7827 -0.9980
  463MOL0     H61101   2.388   4.103   3.614 -2.5115  0.1193 -2.9023
  463MOL0     H61102   3.039   4.722   5.107  1.3137  0.6214  0.6572
  463MOL0     H61103   3.169   4.697   5.311 -0.3497 -0.5698 -0.2568
  463MOL0     H61104   3.420   4.762   5.573  0.5977 -2.8823 -0.1455
  463MOL0     H61105   3.558   4.680   5.737  1.6654  0.6007 -0.0725
  463MOL0     H61106   3.386   4.594   6.142 -1.2730  2.0911 -0.2182
  463MOL0     H61107   3.452   4.750   6.187 -2.3505  0.3938 -2.5368
  463MOL0     H61108   3.546   4.557   6.316  0.8431 -1.2009 -0.6397
  463MOL0     H61109   3.620   4.489   6.186 -4.3166 -2.7264  2.7701
  463MOL0     H61110   3.675   4.733   6.342  3.3043 -1.4065  2.2095
  463MOL0     H61111   3.707   4.760   6.170 -4.1233  0.3081 -1.7127
  463MOL0     H61112   3.875   4.527   6.249  0.0550 -1.6781  3.8249
  463MOL0     H61113   3.921   4.685   6.245 -1.2184  0.6462  0.6816
  463MOL0     H61114   3.845   4.555   6.645 -2.8451 -0.2188 -0.9322
  463MOL0     H61115   3.240   4.733   6.036 -0.7716  0.3093 -1.0730
  463MOL0     H61116   3.104   4.827   5.860  0.4750  1.7016  1.0839
  464MOL0     O61117   9.809   3.161   8.368 -0.9079  0.3755 -0.3127
  464MOL0     C61118   9.782   3.233   8.462 -0.1935  0.4165  0.2158
  464MOL0     O61119   9.733   3.357   8.452  0.6071  0.0583 -0.1780
  464MOL0     C61120   9.710   3.415   8.330 -0.2546  0.4704 -0.1354
  464MOL0     C61121   9.633   3.374   8.224  0.9723 -0.9250 -0.4472
  464MOL0     C61122   9.612   3.459   8.112  1.0628 -0.6413  0.3430
  464MOL0     C61123   9.657   3.591   8.100  0.3427 -0.2155  0.1557
  464MOL0     O61124   9.620   3.689   8.010  0.0148  0.3731  0.8884
  464MOL0     C61125   9.725   3.760   7.945 -0.5092  0.5526 -1.6071
  464MOL0     C61126   9.674   3.833   7.820  0.7160  0.0680 -0.5708
  464MOL0     C61127   9.796   3.889   7.748 -0.4718 -0.0220  1.1413
  464MOL0     C61128   9.766   3.902   7.598 -1.4326 -0.4300 -0.5422
  464MOL0     C61129   9.842   3.810   7.501 -0.8218 -0.4868  0.6062
  464MOL0     C61130   9.806   3.813   7.353 -0.3701  0.2737  0.8496
  464MOL0     C61131   9.785   3.958   7.294 -0.6176  0.2796 -0.5251
  464MOL0     C61132   9.811   3.953   7.142  0.3129  0.8102 -1.2296
  464MOL0     N61133   9.865   4.087   7.115 -0.2976 -0.0347 -0.4004
  464MOL0     C61134   9.802   4.195   7.059 -0.5688 -0.2982 -0.3250
  464MOL0     C61135   9.898   4.287   7.035 -0.2459  0.4385  0.8787
  464MOL0     C61136   9.894   4.415   6.960  0.6690 -0.0500 -0.0322
  464MOL0     C61137  10.007   4.506   7.013 -1.7935  0.7786 -0.2367
  464MOL0     C61138  10.018   4.618   6.921  0.5803  1.9566 -0.0513
  464MOL0     C61139  10.112   4.721   6.971 -0.2645  0.0972 -0.1732
  464MOL0     O61140  10.146   4.830   6.881  1.1794 -0.6637 -0.4401
  464MOL0     C61141  10.249   4.813   6.788 -0.0663 -0.2559 -0.7102
  464MOL0     C61142  10.307   4.688   6.773 -0.3553  1.2296 -0.3904
  464MOL0     C61143  10.432   4.679   6.709  1.3119  0.1612 -0.3885
  464MOL0     C61144  10.494   4.780   6.645 -0.6165  0.1387 -0.7162
  464MOL0     C61145  10.605   4.754   6.569 -0.5593  0.1095 -0.1704
  464MOL0     O61146  10.653   4.859   6.493  0.1404 -0.7023 -0.0405
  464MOL0     C61147  10.783   4.872   6.449  0.0830 -0.1613  0.5800
  464MOL0     C61148  10.792   4.965   6.346 -0.3891  0.6483  0.4757
  464MOL0     C61149  10.918   5.009   6.297  0.4683  0.1822 -0.8538
  464MOL0     C61150  11.034   4.954   6.332  0.2017 -0.6861 -0.5186
  464MOL0     O61151  11.164   4.981   6.295 -0.2844  0.1615 -0.4660
  464MOL0     C61152  11.186   5.084   6.203  0.1621 -0.6485 -0.7450
  464MOL0     C61153  11.198   5.218   6.275 -0.8162  0.5742  0.0488
  464MOL0     C61154  11.293   5.236   6.394  0.4514  0.3316 -0.1954
  464MOL0     C61155  11.417   5.150   6.384  0.5548 -0.8029 -0.5643
  464MOL0     C61156  11.514   5.177   6.498  0.5074  0.5899  0.2281
  464MOL0     C61157  11.467   5.153   6.644 -1.1580 -0.7060  0.4837
  464MOL0     C61158  11.380   5.031   6.651  0.2144 -0.9745 -1.1216
  464MOL0     C61159  11.350   4.978   6.799 -0.5309  0.5922  0.7941
  464MOL0    Cl61160  11.242   4.831   6.780  0.0398  0.2978  0.3167
  464MOL0     C61161  11.031   4.842   6.424 -0.2326 -0.1762 -0.3733
  464MOL0     C61162  10.910   4.811   6.489  1.0224  0.2228 -0.6060
  464MOL0     O61163  10.670   4.648   6.589 -0.3518  1.2828 -0.3865
  464MOL0     C61164  10.423   4.903   6.651 -0.5338  0.1460 -0.2290
  464MOL0     C61165  10.309   4.924   6.725 -0.0929  0.9352  0.4679
  464MOL0     N61166  10.017   4.227   7.078 -0.2131  0.3885  0.1488
  464MOL0     N61167   9.998   4.103   7.116 -0.0729  0.0417 -0.2872
  464MOL0     C61168   9.731   3.631   8.213  1.1273 -0.3558 -0.8048
  464MOL0     C61169   9.764   3.541   8.314  0.1442  0.0429  0.4117
  464MOL0     C61170   9.819   3.160   8.593 -0.3102  0.1127 -0.1003
  464MOL0     C61171   9.897   3.045   8.596  0.0358 -0.9458 -0.0372
  464MOL0     C61172   9.926   2.980   8.716 -0.3551  0.1782  0.8063
  464MOL0     C61173   9.878   3.015   8.838  0.3949 -0.1357  0.0493
  464MOL0     O61174   9.905   2.947   8.944 -0.4498  0.6237  0.8077
  464MOL0     C61175  10.041   2.928   8.987  0.4021  0.3824 -0.6068
  464MOL0     C61176  10.039   2.885   9.133 -0.2277  0.3285 -0.5796
  464MOL0     C61177   9.990   2.749   9.149 -0.3832  0.4721  0.8996
  464MOL0     C61178  10.007   2.693   9.290  0.4245 -0.6627  0.4278
  464MOL0     C61179  10.142   2.705   9.346  0.2176 -0.2093  0.5026
  464MOL0     C61180  10.259   2.714   9.386 -0.1929  1.1139 -0.1502
  464MOL0     C61181   9.800   3.124   8.838  0.2737  0.5388 -0.3399
  464MOL0     C61182   9.779   3.203   8.721 -1.1131  0.3542 -0.8330
  464MOL0     H61183   9.579   3.281   8.230 -2.0574  0.7685  4.9628
  464MOL0     H61184   9.549   3.436   8.027 -0.0536  1.2952  0.5675
  464MOL0     H61185   9.794   3.684   7.908  4.2270  4.0632 -0.8857
  464MOL0     H61186   9.770   3.831   8.015 -2.5792  0.1830  0.1958
  464MOL0     H61187   9.605   3.915   7.842  2.9486  2.2261 -1.1915
  464MOL0     H61188   9.630   3.757   7.755  2.1495 -1.1687 -0.1491
  464MOL0     H61189   9.889   3.832   7.755  0.6495  1.6916  0.7687
  464MOL0     H61190   9.810   3.986   7.796 -0.8556  1.1689 -1.0411
  464MOL0     H61191   9.658   3.887   7.588 -1.3021 -2.6193  0.6881
  464MOL0     H61192   9.796   4.003   7.567  0.1429 -1.0436 -1.1362
  464MOL0     H61193   9.851   3.707   7.536  2.5554 -0.1195  1.1879
  464MOL0     H61194   9.947   3.842   7.502 -1.1553  0.6799 -0.0750
  464MOL0     H61195   9.712   3.761   7.332 -0.5252  0.3945  1.2330
  464MOL0     H61196   9.883   3.764   7.293 -2.1224  0.1144 -1.3918
  464MOL0     H61197   9.682   3.993   7.295 -0.3057  1.2151  0.1675
  464MOL0     H61198   9.846   4.036   7.341  0.0955  0.1856 -1.2692
  464MOL0     H61199   9.714   3.957   7.091 -0.7748 -0.4596  0.6089
  464MOL0     H61200   9.879   3.877   7.103 -1.6111 -1.3176 -0.6548
  464MOL0     H61201   9.695   4.194   7.047 -0.5989 -1.1247 -0.0502
  464MOL0     H61202   9.800   4.468   6.977 -0.0625 -1.5293  0.7617
  464MOL0     H61203   9.899   4.401   6.851 -0.0500  1.0105 -0.2213
  464MOL0     H61204  10.104   4.455   7.010 -0.4602  3.1308  0.2897
  464MOL0     H61205   9.985   4.542   7.114  1.9836 -1.5720  1.6680
  464MOL0     H61206  10.035   4.586   6.817 -0.9367 -0.2682  0.3166
  464MOL0     H61207   9.913   4.649   6.918 -0.8170 -1.8814  1.7180
  464MOL0     H61208  10.198   4.664   7.006 -0.6418 -0.8130 -0.6736
  464MOL0     H61209  10.069   4.763   7.063 -0.2580 -2.8077  1.2940
  464MOL0     H61210  10.264   4.603   6.825 -0.2799  1.8269  0.6727
  464MOL0     H61211  10.462   4.574   6.706  2.6044  0.3943  2.0337
  464MOL0     H61212  10.703   5.013   6.306 -0.6493  1.4739  1.9555
  464MOL0     H61213  10.911   5.084   6.218  0.5167  2.5724  1.2782
  464MOL0     H61214  11.110   5.088   6.124 -4.0629  0.0087  2.9695
  464MOL0     H61215  11.283   5.074   6.154  0.1082  3.6172 -2.1557
  464MOL0     H61216  11.103   5.265   6.301 -1.4223  0.7993 -2.3057
  464MOL0     H61217  11.251   5.274   6.197 -2.2976  0.5294 -1.0313
  464MOL0     H61218  11.229   5.239   6.483 -0.2427  2.9945 -0.7070
  464MOL0     H61219  11.330   5.338   6.389 -1.2879  0.9878 -0.4647
  464MOL0     H61220  11.384   5.046   6.377 -1.4283 -0.1725 -1.4067
  464MOL0     H61221  11.472   5.174   6.292 -1.6889  5.2053 -0.8023
  464MOL0     H61222  11.542   5.282   6.487 -1.5775  1.0435 -1.3745
  464MOL0     H61223  11.606   5.121   6.480  0.0120  0.2968 -1.6556
  464MOL0     H61224  11.423   5.237   6.699  1.9937  0.7716  0.9686
  464MOL0     H61225  11.551   5.141   6.712  0.1972  4.7101  0.2340
  464MOL0     H61226  11.282   5.058   6.610 -0.0060  0.0126  0.0165
  464MOL0     H61227  11.414   4.947   6.589 -0.3834 -0.6916 -1.8558
  464MOL0     H61228  11.303   5.062   6.851 -0.0891  2.8644 -2.1978
  464MOL0     H61229  11.439   4.945   6.852 -0.6084 -0.2487  0.4117
  464MOL0     H61230  11.122   4.787   6.445 -1.5746 -1.7529  1.7524
  464MOL0     H61231  10.912   4.730   6.562 -0.2935 -0.5106 -1.3350
  464MOL0     H61232  10.478   4.987   6.610 -0.7301  0.6487  0.5220
  464MOL0     H61233  10.272   5.026   6.718 -1.0469  0.4728 -3.9322
  464MOL0     H61234   9.760   3.735   8.218  1.9254 -0.6183  2.1567
  464MOL0     H61235   9.828   3.592   8.386 -1.9186  2.2335  0.8406
  464MOL0     H61236   9.943   3.003   8.507  4.1081  1.4989  0.6503
  464MOL0     H61237   9.988   2.891   8.725 -1.4817 -0.5339  1.7243
  464MOL0     H61238  10.092   3.025   8.988 -0.5686  0.8990 -0.1793
  464MOL0     H61239  10.095   2.860   8.919 -0.4635 -0.3003 -0.6266
  464MOL0     H61240  10.138   2.886   9.180 -0.9851  0.4292  1.0639
  464MOL0     H61241   9.977   2.957   9.186  3.5869  2.1556  1.8690
  464MOL0     H61242  10.043   2.680   9.082 -1.5655 -3.1686  3.4041
  464MOL0     H61243   9.883   2.754   9.126  0.3352  3.9128 -2.8144
  464MOL0     H61244   9.951   2.768   9.345  1.4922  2.6002 -2.5812
  464MOL0     H61245   9.980   2.587   9.301  0.1952 -0.5074  1.4620
  464MOL0     H61246  10.362   2.697   9.411 -0.4390 -0.5470 -0.1610
  464MOL0     H61247   9.762   3.157   8.934  2.9952 -1.1750  1.4376
  464MOL0     H61248   9.720   3.294   8.724  2.7289  3.1288 -0.3673
  465MOL0     O61249   4.569   4.120   6.352 -0.3451  0.6228 -0.8264
  465MOL0     C61250   4.672   4.043   6.351  0.2098 -1.5511  0.6103
  465MOL0     O61251   4.700   3.935   6.268  0.1952  0.2189 -0.0842
  465MOL0     C61252   4.594   3.895   6.185  0.3061  0.0468  0.1382
  465MOL0     C61253   4.626   3.877   6.054  0.6394 -1.4106 -0.3255
  465MOL0     C61254   4.525   3.844   5.963 -0.0481  0.1101  1.0683
  465MOL0     C61255   4.398   3.814   6.007  0.2092 -1.2361 -0.2477
  465MOL0     O61256   4.280   3.798   5.931 -0.9969 -0.4372 -0.3302
  465MOL0     C61257   4.279   3.824   5.788  0.0100 -0.2259 -0.1809
  465MOL0     C61258   4.145   3.835   5.732  0.0450 -0.4742 -0.0508
  465MOL0     C61259   4.042   3.726   5.768 -0.1751 -0.5675 -0.6336
  465MOL0     C61260   4.100   3.586   5.774  0.1240  1.0635  0.2145
  465MOL0     C61261   4.135   3.526   5.639  0.0875  0.9057  0.5450
  465MOL0     C61262   4.020   3.469   5.567 -0.9240  0.2342  0.1208
  465MOL0     C61263   4.074   3.409   5.435  0.0109  0.4160  0.7358
  465MOL0     C61264   3.969   3.389   5.326  0.5548  0.6857  0.6335
  465MOL0     N61265   3.900   3.265   5.338  0.1852  0.2526 -0.6120
  465MOL0     C61266   3.951   3.130   5.344 -0.7588 -0.8173 -0.0970
  465MOL0     C61267   3.838   3.056   5.348 -0.4782 -0.2250 -0.0401
  465MOL0     C61268   3.821   2.912   5.347  0.1900  0.8088  0.0857
  465MOL0     C61269   3.755   2.875   5.213  0.5567  0.5145 -0.3975
  465MOL0     C61270   3.795   2.723   5.180  0.6877 -0.2576 -0.0366
  465MOL0     C61271   3.728   2.682   5.048  0.3114  0.2601 -0.4110
  465MOL0     O61272   3.784   2.557   5.014 -0.0383  0.3874  0.4910
  465MOL0     C61273   3.727   2.441   5.071 -1.1506 -0.3037  0.0522
  465MOL0     C61274   3.800   2.328   5.043  0.1287 -0.2006  0.5248
  465MOL0     C61275   3.770   2.207   5.101 -0.3319  0.2485  0.0633
  465MOL0     C61276   3.681   2.199   5.202 -0.8467 -0.0342  0.2941
  465MOL0     C61277   3.674   2.071   5.283 -0.0134 -0.4201 -0.6289
  465MOL0     O61278   3.594   2.074   5.398  0.0867 -0.1505 -0.5695
  465MOL0     C61279   3.603   1.963   5.477  0.3075  0.1138  0.6519
  465MOL0     C61280   3.716   1.943   5.563  0.5079 -0.3957 -0.0790
  465MOL0     C61281   3.708   1.833   5.654  0.4153 -1.0800  0.7085
  465MOL0     C61282   3.597   1.751   5.665 -0.9389 -0.1982 -0.0619
  465MOL0     O61283   3.584   1.660   5.772  0.9973 -0.0538  0.2891
  465MOL0     C61284   3.654   1.697   5.889  0.6611  0.0474 -1.6954
  465MOL0     C61285   3.562   1.625   5.999  0.3386 -0.9848 -0.2151
  465MOL0     C61286   3.535   1.478   5.977  0.4329 -0.0935 -0.9441
  465MOL0     C61287   3.474   1.409   6.101  0.1004 -0.0569 -0.0940
  465MOL0     C61288   3.503   1.257   6.101 -0.1434 -0.3037  0.7353
  465MOL0     C61289   3.446   1.191   5.968  0.4809 -0.5896  0.2692
  465MOL0     C61290   3.464   1.048   5.923 -0.6189 -0.3563 -0.1164
  465MOL0     C61291   3.378   0.959   6.000  1.1087  0.2989  0.1516
  465MOL0    Cl61292   3.419   0.954   6.169  0.0102  0.2357  0.3728
  465MOL0     C61293   3.495   1.759   5.569  0.4657  0.5975  0.6858
  465MOL0     C61294   3.495   1.868   5.480  0.4571 -0.2807  0.0701
  465MOL0     O61295   3.757   1.984   5.254  0.4258  0.7380  0.4438
  465MOL0     C61296   3.607   2.309   5.234 -0.4168  0.1589 -0.1346
  465MOL0     C61297   3.625   2.435   5.166 -0.5091  0.5662  1.0948
  465MOL0     N61298   3.722   3.143   5.350 -0.5165 -0.7377  0.9421
  465MOL0     N61299   3.763   3.263   5.331 -0.5608  0.9182 -0.2586
  465MOL0     C61300   4.363   3.832   6.135  0.6579 -0.2368 -0.1367
  465MOL0     C61301   4.457   3.872   6.233  0.2441  1.0656 -0.4721
  465MOL0     C61302   4.775   4.076   6.451 -0.1629  0.1479 -0.2016
  465MOL0     C61303   4.747   4.176   6.545 -0.4139 -0.7301 -0.1848
  465MOL0     C61304   4.850   4.219   6.634  0.7815  0.6222 -0.4981
  465MOL0     C61305   4.971   4.148   6.644 -0.1678 -0.1527  0.6750
  465MOL0     O61306   5.049   4.176   6.743  0.1278 -0.3327 -0.4495
  465MOL0     C61307   5.031   4.097   6.856  0.1919  0.7630 -0.3668
  465MOL0     C61308   5.089   4.156   6.980 -0.3303  1.2308  0.7943
  465MOL0     C61309   5.049   4.298   7.018  1.1734  0.3634 -0.0134
  465MOL0     C61310   5.086   4.335   7.160 -1.1594  0.3710  1.1245
  465MOL0     C61311   5.027   4.237   7.246 -0.1683 -0.3958 -0.3476
  465MOL0     C61312   4.968   4.155   7.312 -0.0690  0.2002 -0.1045
  465MOL0     C61313   4.983   4.028   6.572 -0.5027 -0.0378 -0.0792
  465MOL0     C61314   4.894   4.002   6.464 -0.0190  0.3050  0.5939
  465MOL0     H61315   4.725   3.903   6.018 -0.1793  3.4221  0.3136
  465MOL0     H61316   4.545   3.838   5.857 -1.6306  0.4450  0.7182
  465MOL0     H61317   4.334   3.744   5.738  0.5565 -0.2957  0.5017
  465MOL0     H61318   4.331   3.915   5.755 -2.9224  1.0328 -1.6772
  465MOL0     H61319   4.141   3.849   5.623 -4.4802  2.2139  0.1860
  465MOL0     H61320   4.108   3.934   5.762  1.0514  1.0088 -3.2790
  465MOL0     H61321   3.953   3.730   5.705  0.1277  1.5864 -0.9987
  465MOL0     H61322   4.019   3.747   5.872 -1.6299 -1.7584 -0.6826
  465MOL0     H61323   4.190   3.573   5.835  1.1807 -0.7698 -1.6183
  465MOL0     H61324   4.023   3.514   5.804  1.9592 -0.5487  1.2403
  465MOL0     H61325   4.202   3.443   5.662 -0.5726 -0.0040 -0.7194
  465MOL0     H61326   4.189   3.603   5.583  1.8670 -1.1175 -0.6444
  465MOL0     H61327   3.950   3.552   5.558  0.0740  1.0110 -0.7556
  465MOL0     H61328   3.965   3.390   5.619  1.1756 -3.6066 -2.9478
  465MOL0     H61329   4.145   3.474   5.383  1.0662  1.0138  2.8083
  465MOL0     H61330   4.113   3.309   5.457  0.4807 -0.0518 -1.8941
  465MOL0     H61331   4.004   3.382   5.223 -4.1541 -0.2935 -1.1485
  465MOL0     H61332   3.906   3.478   5.335  2.6590  2.7660 -3.0849
  465MOL0     H61333   4.052   3.093   5.326 -1.1986 -0.6091 -3.6957
  465MOL0     H61334   3.752   2.889   5.429 -0.4819  2.0449 -0.1070
  465MOL0     H61335   3.910   2.847   5.350 -1.2344 -1.5356 -2.9200
  465MOL0     H61336   3.785   2.937   5.128 -0.4720 -2.4469 -3.1245
  465MOL0     H61337   3.648   2.861   5.229  1.0969 -0.8839  2.8294
  465MOL0     H61338   3.902   2.703   5.181  0.5233 -1.1656  1.3087
  465MOL0     H61339   3.750   2.659   5.256 -1.4207  1.7750  0.5768
  465MOL0     H61340   3.772   2.754   4.978  4.8504 -2.0395 -0.2733
  465MOL0     H61341   3.619   2.682   5.057  0.4241 -0.4092  1.3473
  465MOL0     H61342   3.890   2.337   4.982  0.5361 -0.2434  1.1075
  465MOL0     H61343   3.808   2.109   5.073  0.4071 -0.5506  3.4028
  465MOL0     H61344   3.800   2.008   5.583 -0.8815  1.7800 -0.9772
  465MOL0     H61345   3.795   1.802   5.710  2.9855 -2.3996 -3.5603
  465MOL0     H61346   3.645   1.803   5.911  1.7108 -0.2140  0.2706
  465MOL0     H61347   3.757   1.662   5.902  0.3397  0.0043  1.6340
  465MOL0     H61348   3.459   1.660   6.004 -0.1685 -1.9841 -2.3509
  465MOL0     H61349   3.600   1.646   6.099  0.2161  1.9623 -0.7206
  465MOL0     H61350   3.634   1.436   5.956  0.0460 -0.5263 -1.9253
  465MOL0     H61351   3.465   1.473   5.894 -0.9607  0.3790  0.1713
  465MOL0     H61352   3.529   1.439   6.191  1.7195 -2.2257 -0.2987
  465MOL0     H61353   3.368   1.429   6.119  0.0156 -0.1392 -0.4872
  465MOL0     H61354   3.444   1.202   6.176 -0.6403 -1.9913 -0.8324
  465MOL0     H61355   3.610   1.239   6.114  0.6483  3.5073  0.5880
  465MOL0     H61356   3.485   1.250   5.884  0.2715 -0.9307 -0.0733
  465MOL0     H61357   3.342   1.226   5.970  1.1340  1.4438  1.9574
  465MOL0     H61358   3.441   1.036   5.816 -1.6855  0.2696  0.0365
  465MOL0     H61359   3.569   1.021   5.935 -0.4790  0.4933  0.6195
  465MOL0     H61360   3.382   0.861   5.953 -1.0251  0.5217 -0.5998
  465MOL0     H61361   3.272   0.986   5.996  0.1693 -2.5961  1.9997
  465MOL0     H61362   3.418   1.684   5.578 -0.4796  1.0912 -2.2740
  465MOL0     H61363   3.422   1.872   5.400  0.1503 -2.2815  0.1949
  465MOL0     H61364   3.536   2.294   5.316 -1.0049 -1.1040 -0.8373
  465MOL0     H61365   3.566   2.523   5.191 -0.0963  1.9591 -2.2424
  465MOL0     H61366   4.260   3.816   6.163  0.2332  0.5018 -1.1967
  465MOL0     H61367   4.429   3.890   6.337 -0.8915  4.3739 -1.2297
  465MOL0     H61368   4.660   4.240   6.541 -0.1352  0.3775  4.7140
  465MOL0     H61369   4.832   4.305   6.697  0.4293  0.4663 -0.3850
  465MOL0     H61370   5.076   4.000   6.835 -2.3709 -0.8757  1.1578
  465MOL0     H61371   4.930   4.062   6.880  1.2796 -2.0482  0.4981
  465MOL0     H61372   5.066   4.082   7.057  2.7136 -0.4803  0.2522
  465MOL0     H61373   5.198   4.148   6.974 -0.4320  0.9717 -2.7603
  465MOL0     H61374   4.941   4.296   7.033  1.6272 -1.4478  4.3146
  465MOL0     H61375   5.080   4.368   6.939  2.6795 -3.0553 -2.7053
  465MOL0     H61376   5.195   4.338   7.164 -1.1886  1.6314  1.2407
  465MOL0     H61377   5.056   4.436   7.186 -0.2187  0.9294  0.1392
  465MOL0     H61378   4.930   4.087   7.386  4.7849 -0.8831  1.7936
  465MOL0     H61379   5.077   3.975   6.583 -0.0820 -0.1749 -3.2796
  465MOL0     H61380   4.922   3.927   6.391 -0.5971  1.6959 -1.1440
  466MOL0     O61381   9.700   8.743   3.636 -0.3682 -0.5400  0.1824
  466MOL0     C61382   9.583   8.779   3.659 -0.5385  0.0847  0.0852
  466MOL0     O61383   9.531   8.799   3.782 -0.2984  0.4385 -0.2140
  466MOL0     C61384   9.576   8.763   3.904 -0.2249  0.5374 -0.0056
  466MOL0     C61385   9.701   8.702   3.934  1.8494 -0.2145 -0.0162
  466MOL0     C61386   9.737   8.705   4.066 -0.7649 -0.4700  0.2207
  466MOL0     C61387   9.664   8.773   4.168  0.6078  0.8419  1.1076
  466MOL0     O61388   9.716   8.796   4.290 -0.3028  0.1604 -0.2323
  466MOL0     C61389   9.755   8.676   4.360 -0.4186  0.5190 -0.5346
  466MOL0     C61390   9.723   8.713   4.501 -0.4639 -0.9720  0.2675
  466MOL0     C61391   9.799   8.612   4.596 -0.9178  0.3321  0.0970
  466MOL0     C61392   9.814   8.657   4.742 -0.1770 -1.0499 -0.3206
  466MOL0     C61393   9.916   8.564   4.809  0.4432 -0.0177 -0.2362
  466MOL0     C61394   9.903   8.557   4.959 -0.1647  0.3339 -1.0425
  466MOL0     C61395  10.011   8.485   5.022 -0.9932  0.4361 -0.7154
  466MOL0     C61396   9.986   8.486   5.177  1.1254 -0.3815 -0.2071
  466MOL0     N61397  10.064   8.377   5.241 -0.4545  0.1174  0.3984
  466MOL0     C61398  10.022   8.262   5.310 -1.0308 -0.8309  0.3544
  466MOL0     C61399  10.146   8.202   5.360  0.9684 -0.1590 -0.0921
  466MOL0     C61400  10.167   8.066   5.426 -0.4427  0.0449 -0.3239
  466MOL0     C61401  10.047   8.015   5.504 -0.3990  0.2751  0.1345
  466MOL0     C61402   9.993   8.090   5.622  0.0933 -0.1424  0.1862
  466MOL0     C61403  10.083   8.112   5.740  0.0884  0.3867 -0.0422
  466MOL0     O61404  10.172   8.228   5.719 -0.1009 -1.0525  0.4981
  466MOL0     C61405  10.222   8.299   5.824  0.0502 -0.2346  1.3820
  466MOL0     C61406  10.200   8.266   5.957  0.0302 -0.1858 -1.0174
  466MOL0     C61407  10.249   8.340   6.069 -0.1339  0.2056  0.5684
  466MOL0     C61408  10.328   8.455   6.040  0.5480  0.7964  0.4256
  466MOL0     C61409  10.394   8.535   6.141 -0.2767  0.0421 -0.0498
  466MOL0     O61410  10.523   8.574   6.114 -0.7614 -1.2017 -0.1271
  466MOL0     C61411  10.596   8.663   6.194  1.0579  0.4041 -0.1105
  466MOL0     C61412  10.543   8.765   6.279 -0.5967  0.7759 -0.5490
  466MOL0     C61413  10.635   8.852   6.344  0.1861  0.5760  0.2267
  466MOL0     C61414  10.774   8.848   6.311  0.7373 -0.7803 -0.9228
  466MOL0     O61415  10.857   8.924   6.384 -0.0777  0.6307 -0.2640
  466MOL0     C61416  10.988   8.976   6.340 -0.7069 -0.0848 -0.8048
  466MOL0     C61417  11.034   9.063   6.461  0.5513 -0.1803  0.8834
  466MOL0     C61418  10.994   9.213   6.478 -0.2955 -0.0363  0.6660
  466MOL0     C61419  10.862   9.227   6.563 -0.4678 -0.3269 -0.3148
  466MOL0     C61420  10.880   9.221   6.713  1.2577 -0.1312  0.4638
  466MOL0     C61421  10.757   9.264   6.796  0.5496 -0.3324  0.2566
  466MOL0     C61422  10.769   9.237   6.954 -0.2888 -0.8459  0.2508
  466MOL0     C61423  10.812   9.371   7.033  0.3720  0.4586  0.2041
  466MOL0    Cl61424  10.681   9.486   7.047 -0.0147  0.5436 -0.3136
  466MOL0     C61425  10.821   8.751   6.223  0.0832  0.0997  0.1444
  466MOL0     C61426  10.734   8.656   6.167  0.3631 -0.5709 -0.1770
  466MOL0     O61427  10.324   8.565   6.240  0.0326  0.0192  0.1743
  466MOL0     C61428  10.368   8.477   5.907 -0.0476 -0.4599  0.1054
  466MOL0     C61429  10.315   8.403   5.811 -0.6319 -0.5403  0.7347
  466MOL0     N61430  10.247   8.286   5.314 -1.0170  0.6440 -0.9401
  466MOL0     N61431  10.203   8.387   5.253 -0.0726 -0.0227  0.2512
  466MOL0     C61432   9.547   8.836   4.137  0.3559  0.2153  0.6571
  466MOL0     C61433   9.500   8.828   4.007 -0.4558  0.0575 -0.6289
  466MOL0     C61434   9.498   8.808   3.549  0.4538  1.6877  0.2245
  466MOL0     C61435   9.532   8.751   3.431  0.5618 -0.2210 -1.1429
  466MOL0     C61436   9.460   8.778   3.313 -0.4541 -0.4311 -1.4166
  466MOL0     C61437   9.352   8.866   3.313 -0.8074  0.3344 -0.7974
  466MOL0     O61438   9.264   8.876   3.211  0.3095  0.2383  0.4329
  466MOL0     C61439   9.293   8.806   3.092  0.0208  0.0822 -0.6568
  466MOL0     C61440   9.220   8.863   2.969 -0.3073 -0.6236  0.2651
  466MOL0     C61441   9.072   8.834   2.972 -0.6009  0.3127  0.7492
  466MOL0     C61442   8.991   8.860   2.841 -0.2833  0.4339  0.3888
  466MOL0     C61443   8.964   8.999   2.806 -0.4755  0.0107  0.6030
  466MOL0     C61444   8.933   9.115   2.783 -0.0884  0.0093 -0.5828
  466MOL0     C61445   9.306   8.929   3.440 -1.3608  1.0596  0.2447
  466MOL0     C61446   9.387   8.894   3.552 -0.2065  0.2473 -0.2409
  466MOL0     H61447   9.766   8.657   3.860  3.4153 -1.7516  2.1779
  466MOL0     H61448   9.831   8.662   4.100 -1.1238  0.6765  2.9920
  466MOL0     H61449   9.859   8.643   4.347 -0.4282  0.1569  0.2432
  466MOL0     H61450   9.699   8.585   4.338 -1.6861  0.9086  0.8786
  466MOL0     H61451   9.617   8.726   4.524 -1.3792 -3.2705 -2.0814
  466MOL0     H61452   9.772   8.809   4.520 -0.4344 -0.7934 -0.6534
  466MOL0     H61453   9.903   8.598   4.564 -0.1510  3.1423  1.0370
  466MOL0     H61454   9.759   8.511   4.606  2.1055 -0.7764  2.7617
  466MOL0     H61455   9.835   8.764   4.741 -0.5203 -0.9034  1.9004
  466MOL0     H61456   9.715   8.651   4.787 -1.8265  1.4893 -3.2847
  466MOL0     H61457  10.008   8.605   4.767  0.0254  0.3603 -0.7989
  466MOL0     H61458   9.919   8.464   4.766 -0.1545 -1.8202  3.4760
  466MOL0     H61459   9.808   8.503   4.966  0.4321 -0.9713 -2.3771
  466MOL0     H61460   9.884   8.658   4.997 -1.4375  0.6331 -2.3576
  466MOL0     H61461  10.016   8.383   4.981  0.3764 -0.0438  0.5732
  466MOL0     H61462  10.109   8.527   4.998 -0.3665 -0.3434  0.3684
  466MOL0     H61463   9.877   8.481   5.185  1.1439  0.6494  1.2550
  466MOL0     H61464  10.012   8.582   5.223  0.2616  0.5750 -1.6346
  466MOL0     H61465   9.916   8.239   5.317 -1.6874  2.2155  2.2216
  466MOL0     H61466  10.253   8.066   5.494 -2.1687 -1.5849  1.9997
  466MOL0     H61467  10.199   8.004   5.342 -2.8473 -1.3101 -0.3120
  466MOL0     H61468  10.062   7.908   5.525 -2.7963  0.2320  2.0548
  466MOL0     H61469   9.961   8.021   5.438  0.2928  0.8122 -0.7486
  466MOL0     H61470   9.958   8.188   5.587  1.6418 -0.2234 -1.7521
  466MOL0     H61471   9.908   8.028   5.652 -0.0984  0.8382  1.8164
  466MOL0     H61472  10.142   8.021   5.753  1.5398  1.3481  0.3055
  466MOL0     H61473  10.020   8.123   5.829  2.9176 -0.8945  2.3065
  466MOL0     H61474  10.149   8.171   5.971 -1.8331  0.7965 -0.7915
  466MOL0     H61475  10.228   8.300   6.168 -1.0395  3.2260  1.7160
  466MOL0     H61476  10.436   8.778   6.289 -1.0023  0.3786 -3.4027
  466MOL0     H61477  10.589   8.929   6.406 -2.4331  1.9603 -3.1212
  466MOL0     H61478  10.977   9.036   6.249  4.3537 -0.3334 -1.8864
  466MOL0     H61479  11.056   8.896   6.308 -2.3716 -0.7859 -2.8254
  466MOL0     H61480  11.142   9.062   6.443  0.2301 -1.0044 -1.2798
  466MOL0     H61481  11.028   8.997   6.548  1.3138  0.6439  1.5938
  466MOL0     H61482  10.970   9.265   6.385 -2.7882 -3.8016 -1.0025
  466MOL0     H61483  11.087   9.257   6.515  2.8678 -3.2183 -2.6718
  466MOL0     H61484  10.807   9.319   6.543  1.6144  1.5138  1.8143
  466MOL0     H61485  10.811   9.136   6.530 -0.2759 -0.3060 -0.6810
  466MOL0     H61486  10.959   9.292   6.739  2.2872  0.1181 -2.8266
  466MOL0     H61487  10.901   9.116   6.738 -2.0210 -0.7361  1.0984
  466MOL0     H61488  10.665   9.217   6.761  1.4050 -1.7518 -0.1569
  466MOL0     H61489  10.741   9.370   6.771  0.6842 -0.9429 -2.7068
  466MOL0     H61490  10.674   9.196   6.990 -0.8246  0.0440 -0.1032
  466MOL0     H61491  10.858   9.174   6.960  1.0107  0.5176 -2.3795
  466MOL0     H61492  10.885   9.420   6.968 -0.5379  1.9693  0.2771
  466MOL0     H61493  10.841   9.354   7.137  0.8689 -1.3282 -0.1964
  466MOL0     H61494  10.927   8.751   6.198 -0.3033  1.9117 -1.6804
  466MOL0     H61495  10.763   8.589   6.087 -1.7726 -1.8354  0.0132
  466MOL0     H61496  10.443   8.550   5.877 -0.4554 -0.7433 -1.6637
  466MOL0     H61497  10.348   8.426   5.710 -2.3916  0.3744  0.3339
  466MOL0     H61498   9.484   8.879   4.215  0.1543  1.6025 -0.2398
  466MOL0     H61499   9.404   8.878   3.997 -0.1178  1.1155  0.9853
  466MOL0     H61500   9.614   8.680   3.426  0.7432 -0.1568  0.3280
  466MOL0     H61501   9.486   8.717   3.227 -0.6141  0.3316 -2.0102
  466MOL0     H61502   9.279   8.699   3.108 -0.2594  0.1551 -0.4269
  466MOL0     H61503   9.400   8.814   3.070 -0.1809 -2.7903 -3.4650
  466MOL0     H61504   9.244   8.965   2.937  1.3082 -1.2070 -0.5081
  466MOL0     H61505   9.259   8.802   2.887 -1.5528  0.7292 -1.4159
  466MOL0     H61506   9.023   8.884   3.057 -2.1064  0.5519 -0.2207
  466MOL0     H61507   9.072   8.727   2.992  0.9844  0.4137  1.4533
  466MOL0     H61508   9.041   8.811   2.757 -1.9660  1.3947 -1.2400
  466MOL0     H61509   8.896   8.810   2.861  0.3105 -1.1977 -0.6487
  466MOL0     H61510   8.863   9.193   2.760  1.8833  2.1977  0.3836
  466MOL0     H61511   9.229   9.005   3.440 -0.6720  1.8191 -1.4881
  466MOL0     H61512   9.349   8.936   3.645 -2.8318 -0.3895 -0.9324
  467MOL0     O61513   5.082   4.652   0.351  0.0171  0.3469  0.3995
  467MOL0     C61514   5.173   4.687   0.420  0.0759 -0.1542  0.4064
  467MOL0     O61515   5.293   4.622   0.433  1.0396 -0.7793 -0.0443
  467MOL0     C61516   5.323   4.544   0.333  0.4418  0.1861  1.0494
  467MOL0     C61517   5.342   4.584   0.201  0.2894 -0.0483 -0.4049
  467MOL0     C61518   5.365   4.484   0.100 -0.0635  0.3305 -0.5118
  467MOL0     C61519   5.372   4.347   0.129 -0.4454 -0.2623 -0.2658
  467MOL0     O61520   5.391   4.245   0.033  0.7653  0.6730  0.2232
  467MOL0     C61521   5.349   4.257  -0.103  0.0553 -0.6989 -0.5843
  467MOL0     C61522   5.358   4.133  -0.181  0.4367  0.9025  0.9676
  467MOL0     C61523   5.501   4.096  -0.246  0.0437 -0.0768  0.9795
  467MOL0     C61524   5.513   3.966  -0.312  0.2240  0.1987  0.0588
  467MOL0     C61525   5.655   3.934  -0.341 -0.9588 -0.3127  0.1170
  467MOL0     C61526   5.715   3.991  -0.467  0.7035  0.1456  0.6285
  467MOL0     C61527   5.860   3.947  -0.502  0.3007 -1.6396 -0.1224
  467MOL0     C61528   5.916   4.052  -0.600 -0.4220  0.1685 -0.9455
  467MOL0     N61529   6.063   4.034  -0.598  0.6478 -0.2969 -0.9153
  467MOL0     C61530   6.160   4.086  -0.514 -0.3132  0.0133  0.7297
  467MOL0     C61531   6.270   4.010  -0.544 -0.0502 -0.0991 -0.1117
  467MOL0     C61532   6.394   4.016  -0.473 -0.0718 -0.9162  0.9119
  467MOL0     C61533   6.385   4.032  -0.323  0.0647  0.0284  0.5436
  467MOL0     C61534   6.455   4.170  -0.276 -0.4397 -0.3486  0.7078
  467MOL0     C61535   6.605   4.180  -0.292  1.0047  0.5909  0.1618
  467MOL0     O61536   6.637   4.318  -0.267 -0.6068  0.0763  0.8127
  467MOL0     C61537   6.771   4.356  -0.275  0.3699  0.4193  0.8149
  467MOL0     C61538   6.880   4.270  -0.305  0.1776 -0.5614  0.2273
  467MOL0     C61539   7.016   4.319  -0.321  0.4351  0.1007 -0.5002
  467MOL0     C61540   7.043   4.453  -0.294  0.4211  0.1034  0.1633
  467MOL0     C61541   7.175   4.508  -0.309  0.2891  0.1023  0.2698
  467MOL0     O61542   7.194   4.640  -0.267  0.4346 -0.2357  1.0356
  467MOL0     C61543   7.308   4.721  -0.293  0.5085  0.2893  0.1863
  467MOL0     C61544   7.436   4.699  -0.245  0.2009 -0.3431 -0.1232
  467MOL0     C61545   7.531   4.807  -0.265 -0.2633  0.1193 -0.4042
  467MOL0     C61546   7.506   4.916  -0.343 -0.1139 -0.3297 -0.2408
  467MOL0     O61547   7.592   5.016  -0.367  0.0032  0.4243  0.2172
  467MOL0     C61548   7.734   4.980  -0.379 -0.3667  0.3228  0.9666
  467MOL0     C61549   7.811   5.101  -0.421  0.4027 -0.7586  0.1629
  467MOL0     C61550   7.774   5.225  -0.339  0.0211  0.3965 -0.7688
  467MOL0     C61551   7.857   5.340  -0.342 -0.5698 -0.3761 -0.1510
  467MOL0     C61552   8.009   5.313  -0.315  0.0895 -0.2476 -0.4781
  467MOL0     C61553   8.040   5.280  -0.168  0.7657  0.2151 -0.0056
  467MOL0     C61554   8.006   5.372  -0.053 -0.5843  0.7290  0.6121
  467MOL0     C61555   8.076   5.499  -0.080  0.3266 -0.2115 -0.0889
  467MOL0    Cl61556   8.009   5.604  -0.214  0.1820  0.5524  0.3019
  467MOL0     C61557   7.371   4.933  -0.384  0.1892  1.1995  0.0086
  467MOL0     C61558   7.275   4.831  -0.367 -0.0732 -0.4735  0.1432
  467MOL0     O61559   7.263   4.442  -0.363 -0.1851  0.5016  0.2592
  467MOL0     C61560   6.932   4.535  -0.262 -0.2339 -0.5258 -0.8279
  467MOL0     C61561   6.801   4.493  -0.259 -0.1236 -0.4392 -0.1739
  467MOL0     N61562   6.245   3.938  -0.663 -0.3205  0.2378 -0.1351
  467MOL0     N61563   6.127   3.951  -0.686 -0.6528  0.4861  1.0100
  467MOL0     C61564   5.379   4.315   0.264  0.2452 -0.3668 -0.3021
  467MOL0     C61565   5.351   4.409   0.363 -0.1729 -0.5814  0.1089
  467MOL0     C61566   5.149   4.805   0.500 -0.0921  0.8406  0.1502
  467MOL0     C61567   5.012   4.847   0.517 -1.4086 -0.4278 -0.7665
  467MOL0     C61568   5.001   4.976   0.584  0.1778 -0.5386 -0.0433
  467MOL0     C61569   5.110   5.046   0.621  0.7528  0.2151 -0.1156
  467MOL0     O61570   5.087   5.171   0.680 -0.1631 -0.1826  0.0859
  467MOL0     C61571   5.036   5.260   0.577 -0.2886  0.0070 -0.0219
  467MOL0     C61572   4.993   5.403   0.615  0.2800  0.2398 -0.3786
  467MOL0     C61573   4.937   5.477   0.494 -1.0922 -1.0448  0.2611
  467MOL0     C61574   4.835   5.593   0.529 -0.3805  0.4830 -0.4075
  467MOL0     C61575   4.907   5.710   0.545  0.4866 -1.8071  0.4631
  467MOL0     C61576   4.979   5.798   0.579  0.4193 -0.2353 -0.0164
  467MOL0     C61577   5.234   4.990   0.623 -1.0289 -0.6894  0.3400
  467MOL0     C61578   5.258   4.864   0.568  0.6435 -0.3604 -0.1288
  467MOL0     H61579   5.326   4.686   0.164  0.2413  0.3985  0.8154
  467MOL0     H61580   5.392   4.500  -0.004 -2.1377  1.2422 -0.9528
  467MOL0     H61581   5.390   4.349  -0.146 -2.9543  1.1491  0.1490
  467MOL0     H61582   5.242   4.284  -0.101 -0.0531 -1.1623  0.2905
  467MOL0     H61583   5.277   4.128  -0.254  0.9952  4.3176 -0.1210
  467MOL0     H61584   5.348   4.043  -0.120 -1.4752  1.3759  1.3976
  467MOL0     H61585   5.574   4.100  -0.165  0.6723  0.9914  0.3894
  467MOL0     H61586   5.532   4.178  -0.312 -1.3601  0.2818  0.7297
  467MOL0     H61587   5.463   3.896  -0.245 -0.7146  1.3932  0.6532
  467MOL0     H61588   5.463   3.974  -0.409  1.4631  1.8341 -0.4922
  467MOL0     H61589   5.662   3.825  -0.345  3.0420 -0.2996  2.1711
  467MOL0     H61590   5.718   3.956  -0.254 -0.3323  0.6423 -0.5672
  467MOL0     H61591   5.724   4.099  -0.450  1.7671 -0.1679  2.3150
  467MOL0     H61592   5.645   3.964  -0.547 -0.7160  1.2879  1.4402
  467MOL0     H61593   5.926   3.939  -0.415 -0.0895  0.8697  0.5029
  467MOL0     H61594   5.848   3.850  -0.550  1.2034 -1.6094 -0.4262
  467MOL0     H61595   5.869   4.148  -0.580 -1.8826 -1.0832  2.4534
  467MOL0     H61596   5.887   4.016  -0.699  0.3076 -0.1992 -1.0373
  467MOL0     H61597   6.150   4.146  -0.424 -1.7506 -1.8450  1.8647
  467MOL0     H61598   6.444   4.107  -0.508  1.3449 -1.5462  1.2261
  467MOL0     H61599   6.456   3.934  -0.510  0.3813  0.4661 -1.6188
  467MOL0     H61600   6.421   3.946  -0.267  2.6290 -1.0415 -2.4125
  467MOL0     H61601   6.279   4.035  -0.299  0.1866 -0.9861  1.2502
  467MOL0     H61602   6.403   4.250  -0.329 -1.4938 -0.9157  0.8683
  467MOL0     H61603   6.433   4.199  -0.172 -0.4465  2.1325  0.0827
  467MOL0     H61604   6.623   4.148  -0.395 -2.0080 -2.3420  0.3863
  467MOL0     H61605   6.663   4.112  -0.230  1.4839  0.4637 -0.4152
  467MOL0     H61606   6.862   4.168  -0.339 -0.5522  0.0174 -1.2640
  467MOL0     H61607   7.093   4.255  -0.362  1.7301  2.7152 -2.3926
  467MOL0     H61608   7.456   4.602  -0.201  2.1732  0.2674  0.4253
  467MOL0     H61609   7.612   4.791  -0.195 -1.5478 -1.4919  0.8055
  467MOL0     H61610   7.749   4.902  -0.454  1.9732  1.7552 -0.1786
  467MOL0     H61611   7.772   4.928  -0.290  1.7598 -1.1719 -0.7086
  467MOL0     H61612   7.788   5.125  -0.526  1.1492  2.1886  0.5944
  467MOL0     H61613   7.915   5.072  -0.406  0.3398 -1.1114 -0.0580
  467MOL0     H61614   7.787   5.186  -0.238 -0.1581 -0.1192 -0.9381
  467MOL0     H61615   7.674   5.258  -0.370 -0.6134 -1.9978 -1.4903
  467MOL0     H61616   7.850   5.381  -0.442 -0.4828 -0.2691 -0.1129
  467MOL0     H61617   7.816   5.413  -0.272 -1.4878  0.7416 -1.8016
  467MOL0     H61618   8.067   5.397  -0.354 -1.1711  1.0046  0.2399
  467MOL0     H61619   8.036   5.231  -0.381  0.3632  1.9664 -3.3044
  467MOL0     H61620   8.148   5.265  -0.156  1.1475  3.1569  1.2181
  467MOL0     H61621   7.992   5.187  -0.137 -0.4972  0.7882 -0.1801
  467MOL0     H61622   7.901   5.383  -0.027 -0.8432 -0.7171  0.2713
  467MOL0     H61623   8.055   5.332   0.036 -0.1302  1.3815  0.6643
  467MOL0     H61624   8.177   5.470  -0.114 -0.9411 -1.4056 -3.2146
  467MOL0     H61625   8.077   5.573   0.001  0.3755 -3.8215  3.5442
  467MOL0     H61626   7.356   5.018  -0.451 -1.6809  0.8035 -0.1127
  467MOL0     H61627   7.173   4.853  -0.396  0.2502  1.0644  0.0991
  467MOL0     H61628   6.956   4.637  -0.233  3.2895 -2.0565  2.5140
  467MOL0     H61629   6.719   4.564  -0.253 -0.2592  0.0820 -4.7804
  467MOL0     H61630   5.406   4.213   0.289  0.5355 -0.0756  0.6343
  467MOL0     H61631   5.335   4.361   0.459 -0.5454 -3.2329 -1.1793
  467MOL0     H61632   4.934   4.787   0.471 -0.3337 -1.0840 -1.7650
  467MOL0     H61633   4.900   5.014   0.600  1.4150  2.7925  0.7075
  467MOL0     H61634   4.951   5.226   0.517  1.0845 -0.4569 -1.8409
  467MOL0     H61635   5.125   5.273   0.514  1.3363  0.4173  2.2236
  467MOL0     H61636   4.916   5.397   0.693 -1.9306 -5.0815 -2.4761
  467MOL0     H61637   5.078   5.462   0.653 -1.4274  3.5786 -1.3363
  467MOL0     H61638   4.878   5.398   0.446 -0.4301 -0.6479 -1.2699
  467MOL0     H61639   5.027   5.505   0.439  1.9375 -0.1193  5.0358
  467MOL0     H61640   4.773   5.600   0.439  2.1575 -1.8927 -2.5402
  467MOL0     H61641   4.775   5.558   0.613  1.9325 -0.3467  0.9994
  467MOL0     H61642   5.049   5.867   0.621  1.8832 -1.7429  0.1234
  467MOL0     H61643   5.325   5.040   0.657 -0.5145 -2.0347  0.9851
  467MOL0     H61644   5.357   4.822   0.551  0.1535 -0.9295 -1.7016
  468MOL0     O61645   0.037   9.439   9.640 -0.3055 -0.0986 -0.3963
  468MOL0     C61646   0.071   9.348   9.710 -0.7738  0.5660 -0.4097
  468MOL0     O61647   0.005   9.305   9.828  0.4407 -0.1925 -0.4113
  468MOL0     C61648  -0.118   9.342   9.876  0.0786  0.7925 -0.4007
  468MOL0     C61649  -0.204   9.447   9.842  0.0152  0.4364 -0.3374
  468MOL0     C61650  -0.320   9.476   9.911 -0.1717 -0.7044 -0.1418
  468MOL0     C61651  -0.360   9.395  10.017  0.5113  0.8483 -0.1008
  468MOL0     O61652  -0.474   9.427  10.075  0.3070  0.6495 -0.1308
  468MOL0     C61653  -0.519   9.344  10.184 -0.1249  0.0484  1.0747
  468MOL0     C61654  -0.630   9.404  10.261  0.6370  0.2569  0.8950
  468MOL0     C61655  -0.642   9.376  10.412  0.6897 -0.6841  0.4224
  468MOL0     C61656  -0.663   9.230  10.456 -0.0802  0.2943 -0.1831
  468MOL0     C61657  -0.643   9.212  10.601  0.2159  0.2147  0.8200
  468MOL0     C61658  -0.670   9.063  10.645 -0.2328  0.1553 -0.9040
  468MOL0     C61659  -0.640   8.951  10.547  0.0632  1.1681 -0.9858
  468MOL0     C61660  -0.678   8.811  10.598 -0.0463 -0.7876  0.2611
  468MOL0     N61661  -0.650   8.716  10.489 -0.1780 -0.6714 -0.7806
  468MOL0     C61662  -0.526   8.674  10.448 -1.2121 -0.3518  0.8840
  468MOL0     C61663  -0.543   8.617  10.326 -0.2799 -0.3722 -0.2009
  468MOL0     C61664  -0.434   8.571  10.242  0.4594  0.9529 -0.6986
  468MOL0     C61665  -0.446   8.417  10.235  0.2991  0.6876  0.1745
  468MOL0     C61666  -0.335   8.364  10.135  0.7676 -0.1987  0.3025
  468MOL0     C61667  -0.352   8.207  10.142 -0.0784 -0.4305 -0.0086
  468MOL0     O61668  -0.484   8.176  10.091 -0.1756  0.3937 -0.9813
  468MOL0     C61669  -0.501   8.145   9.956 -0.0428  0.0696 -0.0717
  468MOL0     C61670  -0.534   8.238   9.853  0.8401 -0.3978  0.6006
  468MOL0     C61671  -0.574   8.193   9.729  0.0016  1.0981 -0.1028
  468MOL0     C61672  -0.568   8.055   9.696  0.4006  0.5168 -0.5978
  468MOL0     C61673  -0.608   8.019   9.558  0.1940  0.8906  0.3912
  468MOL0     O61674  -0.604   8.116   9.457  0.2775 -0.0413 -0.1928
  468MOL0     C61675  -0.677   8.109   9.353 -0.0244  0.4249 -0.0835
  468MOL0     C61676  -0.802   8.059   9.338 -0.1804  0.8855 -0.3931
  468MOL0     C61677  -0.865   8.053   9.214  1.0368  0.8026 -0.5106
  468MOL0     C61678  -0.809   8.109   9.100  0.4996 -0.1107  0.2887
  468MOL0     O61679  -0.878   8.113   8.979 -0.4312  0.0218  0.2500
  468MOL0     C61680  -0.801   8.126   8.852  1.7408  0.1443 -0.6761
  468MOL0     C61681  -0.885   8.062   8.737  1.1742 -0.3009  1.2603
  468MOL0     C61682  -0.836   8.115   8.605  0.0567 -0.0252  0.0426
  468MOL0     C61683  -0.930   8.084   8.493 -0.4652 -0.1305  0.4270
  468MOL0     C61684  -1.002   8.212   8.449 -0.3389 -0.3156  0.6894
  468MOL0     C61685  -0.934   8.297   8.326  0.9852 -0.7324  0.0464
  468MOL0     C61686  -0.809   8.364   8.372  0.1602 -0.1201  0.4191
  468MOL0     C61687  -0.750   8.472   8.279 -0.2160 -0.2530 -0.1375
  468MOL0    Cl61688  -0.886   8.575   8.211  0.4865  0.2752  1.0530
  468MOL0     C61689  -0.678   8.165   9.111 -0.0160 -0.2181  0.2162
  468MOL0     C61690  -0.619   8.176   9.236 -0.2188  0.5350  0.1567
  468MOL0     O61691  -0.649   7.897   9.545 -1.0126 -1.9223 -0.6913
  468MOL0     C61692  -0.525   7.964   9.796  0.1333 -0.1487  1.3319
  468MOL0     C61693  -0.488   8.015   9.915  0.5369 -0.0346  0.4184
  468MOL0     N61694  -0.666   8.637  10.292 -0.0307 -0.3152 -0.2934
  468MOL0     N61695  -0.732   8.692  10.387  0.4534 -0.0944 -0.1281
  468MOL0     C61696  -0.283   9.282  10.042 -0.1289 -0.0552 -0.1263
  468MOL0     C61697  -0.163   9.265   9.987  0.7595 -0.1765 -0.0397
  468MOL0     C61698   0.195   9.282   9.685 -0.3490  0.3815 -0.0476
  468MOL0     C61699   0.253   9.185   9.770 -0.3845 -0.2213 -0.0152
  468MOL0     C61700   0.379   9.138   9.747 -0.3911  0.4376  0.2139
  468MOL0     C61701   0.446   9.153   9.634  0.4886 -0.5569  0.4651
  468MOL0     O61702   0.569   9.116   9.606 -0.8477  0.0694 -0.6292
  468MOL0     C61703   0.658   9.061   9.702 -0.4178  0.1208  0.3278
  468MOL0     C61704   0.763   9.160   9.742 -0.0225 -0.0178  0.0114
  468MOL0     C61705   0.690   9.275   9.815 -1.3133 -0.2008  0.4179
  468MOL0     C61706   0.799   9.378   9.851 -0.3693 -0.6175 -1.1285
  468MOL0     C61707   0.869   9.344   9.969 -0.3121  0.1517 -0.8352
  468MOL0     C61708   0.930   9.318  10.076  0.3814  0.3095  0.2264
  468MOL0     C61709   0.378   9.229   9.533 -0.3279  0.1403  0.6814
  468MOL0     C61710   0.265   9.306   9.564  1.1016 -0.0512 -0.7821
  468MOL0     H61711  -0.167   9.511   9.762  0.9899  0.0138 -0.2475
  468MOL0     H61712  -0.380   9.566   9.899  1.9475  0.9084  0.7549
  468MOL0     H61713  -0.435   9.340  10.254  1.2165 -4.5101 -0.4671
  468MOL0     H61714  -0.528   9.241  10.149  1.9382  0.2089 -0.0949
  468MOL0     H61715  -0.727   9.383  10.215  0.8492  1.8450 -0.3445
  468MOL0     H61716  -0.623   9.511  10.241 -1.8966 -0.1150 -2.9894
  468MOL0     H61717  -0.718   9.441  10.456  1.3506 -0.2465  0.9494
  468MOL0     H61718  -0.549   9.399  10.466  1.5810 -1.0598 -0.9040
  468MOL0     H61719  -0.766   9.205  10.430 -0.4376 -0.1981  1.6058
  468MOL0     H61720  -0.604   9.169  10.387  0.3733  1.4539 -0.8541
  468MOL0     H61721  -0.716   9.267  10.661 -0.0899  0.7600 -0.0406
  468MOL0     H61722  -0.539   9.237  10.626  0.6906 -2.4548  1.8084
  468MOL0     H61723  -0.777   9.053  10.662 -0.3872  1.1925 -1.2072
  468MOL0     H61724  -0.619   9.046  10.741 -1.2638 -0.4486 -0.4500
  468MOL0     H61725  -0.700   8.961  10.456 -0.4638 -0.1465 -0.8022
  468MOL0     H61726  -0.533   8.958  10.523 -0.2251  3.6685 -1.7669
  468MOL0     H61727  -0.781   8.802  10.635  0.9896 -4.4376  2.8275
  468MOL0     H61728  -0.621   8.787  10.688  3.4665  0.3307 -1.5104
  468MOL0     H61729  -0.430   8.677  10.499  0.0299  1.8152 -1.4076
  468MOL0     H61730  -0.334   8.595  10.279  0.2463  0.7857 -0.0079
  468MOL0     H61731  -0.455   8.621  10.146  2.6647  2.7381 -0.3431
  468MOL0     H61732  -0.546   8.396  10.195  1.2087 -0.3956 -1.6379
  468MOL0     H61733  -0.423   8.372  10.332  1.4081 -0.5555 -0.6353
  468MOL0     H61734  -0.360   8.403  10.036 -1.3652  1.7502  1.5172
  468MOL0     H61735  -0.231   8.385  10.161  0.9513 -3.2983  2.7331
  468MOL0     H61736  -0.342   8.179  10.248 -5.3186 -0.1555  0.8234
  468MOL0     H61737  -0.267   8.163  10.088 -1.5121 -1.6073 -1.3922
  468MOL0     H61738  -0.538   8.344   9.873  1.7069 -0.6909  2.4882
  468MOL0     H61739  -0.593   8.264   9.649  0.7408 -1.0099 -2.2621
  468MOL0     H61740  -0.854   8.032   9.430  2.4428  3.9025  2.2280
  468MOL0     H61741  -0.964   8.010   9.207  1.5238 -0.1703 -1.9565
  468MOL0     H61742  -0.707   8.071   8.858  1.2027 -0.9740 -1.9106
  468MOL0     H61743  -0.777   8.232   8.838  0.8950  0.5976  1.0645
  468MOL0     H61744  -0.992   8.082   8.748  1.0755 -0.7373  1.1223
  468MOL0     H61745  -0.876   7.953   8.747 -0.2196 -0.5509  0.0095
  468MOL0     H61746  -0.737   8.077   8.578  0.6415  2.6576 -2.0613
  468MOL0     H61747  -0.825   8.222   8.623 -0.7654  0.3279 -1.3776
  468MOL0     H61748  -0.879   8.036   8.409 -0.8007  0.9060 -0.4028
  468MOL0     H61749  -0.999   8.006   8.525 -1.9202  1.5055  1.4307
  468MOL0     H61750  -1.016   8.274   8.538 -1.9397  0.1272  0.1621
  468MOL0     H61751  -1.093   8.168   8.407 -0.2985 -1.0793  1.3675
  468MOL0     H61752  -1.007   8.365   8.282  0.4100 -0.8875  0.7490
  468MOL0     H61753  -0.910   8.227   8.245 -3.1290  0.2889 -2.3063
  468MOL0     H61754  -0.830   8.404   8.471 -2.5487  0.6519 -0.3824
  468MOL0     H61755  -0.729   8.292   8.393 -1.9292 -3.2726 -1.6370
  468MOL0     H61756  -0.711   8.428   8.186  1.2078  2.3036 -0.8386
  468MOL0     H61757  -0.673   8.533   8.328  0.3371 -2.6732  2.2600
  468MOL0     H61758  -0.629   8.218   9.031  0.0304  1.3065  1.2220
  468MOL0     H61759  -0.527   8.230   9.258 -1.2443  1.9150  1.1945
  468MOL0     H61760  -0.518   7.857   9.780 -3.3034 -0.4865  1.3555
  468MOL0     H61761  -0.463   7.947   9.997  0.9275  2.9382  2.9445
  468MOL0     H61762  -0.316   9.213  10.119 -0.1171 -0.8888 -0.8579
  468MOL0     H61763  -0.104   9.185  10.030 -0.2309 -0.4941  0.7563
  468MOL0     H61764   0.204   9.174   9.867 -2.3218  5.6665  0.0526
  468MOL0     H61765   0.405   9.084   9.838 -1.3708 -1.0530 -0.3567
  468MOL0     H61766   0.702   8.978   9.646 -0.0533  2.0332 -2.4127
  468MOL0     H61767   0.624   9.010   9.793 -1.0838 -1.7554 -0.9115
  468MOL0     H61768   0.841   9.115   9.804 -0.2654  1.8426  1.7914
  468MOL0     H61769   0.816   9.206   9.659 -2.1659  2.5745 -0.0541
  468MOL0     H61770   0.642   9.230   9.902 -0.6617 -2.6812 -0.4256
  468MOL0     H61771   0.622   9.319   9.742  3.4858  0.2276 -4.4548
  468MOL0     H61772   0.868   9.401   9.770 -0.7759  3.1564 -0.5754
  468MOL0     H61773   0.751   9.472   9.877 -0.1499 -1.2047  1.7327
  468MOL0     H61774   0.979   9.309  10.171  3.4176 -0.5881 -1.3017
  468MOL0     H61775   0.437   9.262   9.448  0.9751  0.4554  1.6632
  468MOL0     H61776   0.232   9.378   9.490 -0.6470 -1.6099 -1.6146
  469MOL0     O61777   8.685   1.322   7.307  0.6059 -0.3972 -0.2049
  469MOL0     C61778   8.659   1.429   7.261  0.0082  0.2371  0.2783
  469MOL0     O61779   8.606   1.532   7.335 -0.1470  0.5754  0.0848
  469MOL0     C61780   8.475   1.523   7.375 -0.0871  0.3383 -0.2148
  469MOL0     C61781   8.391   1.427   7.320 -0.4799 -0.8459 -0.1064
  469MOL0     C61782   8.254   1.425   7.362  0.1492 -0.2284 -0.1851
  469MOL0     C61783   8.207   1.526   7.449  0.0337  0.0124  0.2005
  469MOL0     O61784   8.070   1.532   7.446  0.3439  0.1109  0.7084
  469MOL0     C61785   8.022   1.562   7.575 -0.6938 -0.4638  0.0062
  469MOL0     C61786   7.949   1.695   7.566  0.8327  0.5321  0.0040
  469MOL0     C61787   7.831   1.686   7.469 -0.0214 -0.3596 -0.0924
  469MOL0     C61788   7.742   1.809   7.440  0.4614  0.6979 -0.1406
  469MOL0     C61789   7.673   1.862   7.553  0.7650 -0.3869  0.6502
  469MOL0     C61790   7.748   1.979   7.609  0.8517  1.1128 -0.8251
  469MOL0     C61791   7.679   2.033   7.736 -0.6001  0.3481 -0.1735
  469MOL0     C61792   7.767   2.130   7.806 -0.3099 -0.5055  0.8208
  469MOL0     N61793   7.689   2.179   7.915 -0.6823 -0.0685 -0.0467
  469MOL0     C61794   7.708   2.142   8.043 -1.5210  0.4691 -0.9254
  469MOL0     C61795   7.595   2.188   8.110  0.2684  0.3190  0.4106
  469MOL0     C61796   7.569   2.198   8.257  0.4478  0.9757  0.9151
  469MOL0     C61797   7.676   2.278   8.319 -0.1513 -0.1422  0.1718
  469MOL0     C61798   7.638   2.341   8.457 -0.5670 -0.2098  0.4633
  469MOL0     C61799   7.623   2.245   8.570 -0.1737  0.5871 -0.2761
  469MOL0     O61800   7.508   2.158   8.562 -0.2849  0.6540  0.1180
  469MOL0     C61801   7.517   2.030   8.599  0.1900  1.0591  0.2174
  469MOL0     C61802   7.625   1.942   8.587  0.3963  0.1719 -0.1172
  469MOL0     C61803   7.621   1.808   8.635 -0.6058 -0.7499  0.6303
  469MOL0     C61804   7.501   1.763   8.675  0.6590  0.6129 -1.2411
  469MOL0     C61805   7.483   1.617   8.711 -0.9324 -0.5996 -0.3904
  469MOL0     O61806   7.590   1.546   8.670 -0.4662  0.0315 -0.3106
  469MOL0     C61807   7.630   1.430   8.724 -0.7392 -0.0856 -0.2726
  469MOL0     C61808   7.773   1.409   8.712 -0.3918 -0.1664 -0.3157
  469MOL0     C61809   7.828   1.296   8.786  0.0425 -0.1622 -0.3116
  469MOL0     C61810   7.747   1.198   8.850 -0.4776  0.2018  0.4224
  469MOL0     O61811   7.809   1.098   8.921 -0.6806 -0.0848  0.2217
  469MOL0     C61812   7.935   1.114   8.989 -0.8357 -1.3023 -0.1546
  469MOL0     C61813   7.960   0.986   9.072  0.2233 -1.0068  0.3458
  469MOL0     C61814   7.880   0.999   9.197 -0.2040  0.5252 -0.3388
  469MOL0     C61815   7.876   0.865   9.261 -0.3906 -0.3874  0.6395
  469MOL0     C61816   7.817   0.882   9.410  0.8639  0.4688  0.4458
  469MOL0     C61817   7.841   0.748   9.463  0.7245  0.2268 -0.3322
  469MOL0     C61818   7.827   0.738   9.620  0.1662 -0.9845  0.4711
  469MOL0     C61819   7.820   0.582   9.672  0.0385  0.0852 -0.3876
  469MOL0    Cl61820   7.925   0.461   9.589  0.4195 -0.1119  0.1697
  469MOL0     C61821   7.607   1.232   8.857  0.3210 -0.2002  0.3626
  469MOL0     C61822   7.548   1.336   8.781  0.8265  0.0931  0.3122
  469MOL0     O61823   7.387   1.582   8.779  0.0152  0.4535 -0.2325
  469MOL0     C61824   7.393   1.850   8.681  0.2020 -0.3502 -0.6903
  469MOL0     C61825   7.400   1.980   8.638 -0.4768  0.9279 -0.1687
  469MOL0     N61826   7.533   2.264   8.015 -0.1618 -1.0949 -0.8551
  469MOL0     N61827   7.585   2.258   7.895 -0.1170 -0.7864 -0.0128
  469MOL0     C61828   8.289   1.632   7.493 -1.0068  0.4966 -0.2524
  469MOL0     C61829   8.422   1.629   7.460  0.1676  1.3659  0.7358
  469MOL0     C61830   8.752   1.466   7.142 -0.3106  0.4441  0.2183
  469MOL0     C61831   8.821   1.365   7.070 -0.4223  0.5759 -1.1698
  469MOL0     C61832   8.923   1.395   6.972 -0.2779  0.3801  1.0166
  469MOL0     C61833   8.951   1.534   6.943 -0.2601 -0.1825  0.7928
  469MOL0     O61834   9.025   1.561   6.827  0.7075 -0.0277 -0.0111
  469MOL0     C61835   9.168   1.582   6.848  0.2597  0.5018 -0.0703
  469MOL0     C61836   9.257   1.461   6.787  0.2255 -0.1769 -0.4335
  469MOL0     C61837   9.225   1.436   6.641  0.0797 -0.3831 -0.1813
  469MOL0     C61838   9.293   1.312   6.593 -0.3904 -0.9355  0.6933
  469MOL0     C61839   9.241   1.197   6.670 -0.6847 -0.8681 -0.4160
  469MOL0     C61840   9.185   1.109   6.739  0.2839  0.7923  0.1257
  469MOL0     C61841   8.893   1.634   7.028  0.5770  0.3994  0.6509
  469MOL0     C61842   8.786   1.601   7.117  0.2277  0.5578 -0.0211
  469MOL0     H61843   8.422   1.356   7.243  1.2862  1.2070 -1.4170
  469MOL0     H61844   8.187   1.349   7.323  0.3479 -0.1580 -0.6729
  469MOL0     H61845   8.094   1.548   7.656  1.4307 -0.0354 -1.7073
  469MOL0     H61846   7.948   1.485   7.598 -0.0780 -0.6213  1.5866
  469MOL0     H61847   8.007   1.782   7.537  0.2731  1.1480  0.6868
  469MOL0     H61848   7.912   1.723   7.665 -1.1975  0.8621 -0.7949
  469MOL0     H61849   7.771   1.599   7.499  0.8126 -0.8069  0.3076
  469MOL0     H61850   7.872   1.670   7.369  1.5611 -3.3588  0.9167
  469MOL0     H61851   7.808   1.888   7.403 -0.9817  2.4516  0.8713
  469MOL0     H61852   7.679   1.771   7.360  2.6064 -0.1027 -1.5530
  469MOL0     H61853   7.658   1.780   7.624 -2.1724 -1.8294 -1.4267
  469MOL0     H61854   7.574   1.887   7.515 -0.0902  1.6104  3.7852
  469MOL0     H61855   7.756   2.057   7.532 -2.7212  0.8827 -1.5595
  469MOL0     H61856   7.853   1.956   7.631  1.4475  2.3358 -2.2056
  469MOL0     H61857   7.588   2.090   7.717  0.1275  3.2585  3.8554
  469MOL0     H61858   7.659   1.952   7.806  2.0048  0.1170  0.4003
  469MOL0     H61859   7.788   2.215   7.741  0.8975 -2.1075 -0.9849
  469MOL0     H61860   7.863   2.087   7.837 -0.4088  0.1811  2.1798
  469MOL0     H61861   7.790   2.085   8.085 -3.2647 -4.0960 -2.9469
  469MOL0     H61862   7.579   2.095   8.292  2.4433 -0.0223 -2.1578
  469MOL0     H61863   7.473   2.245   8.280  0.1246  1.2167 -0.7506
  469MOL0     H61864   7.706   2.354   8.247  1.6084 -2.6122 -1.9251
  469MOL0     H61865   7.765   2.213   8.325  0.8782  1.3631  2.7553
  469MOL0     H61866   7.731   2.388   8.490  0.2857 -1.3796 -0.1806
  469MOL0     H61867   7.552   2.408   8.449 -0.8610 -0.4763  1.3076
  469MOL0     H61868   7.618   2.291   8.669  1.0191  3.6964 -1.5581
  469MOL0     H61869   7.713   2.183   8.580  1.3198  2.4539 -1.5742
  469MOL0     H61870   7.723   1.981   8.559  0.2879  0.0483 -0.6860
  469MOL0     H61871   7.712   1.749   8.639  0.5980  0.8446 -1.3733
  469MOL0     H61872   7.826   1.480   8.650 -0.5763  1.9516  1.8390
  469MOL0     H61873   7.934   1.274   8.798 -0.2581 -1.9642 -0.7557
  469MOL0     H61874   7.935   1.203   9.052  2.8669  0.2149 -1.9774
  469MOL0     H61875   8.020   1.119   8.920 -0.2878 -1.1247  0.5246
  469MOL0     H61876   8.063   0.960   9.097 -0.2987 -2.8602  0.7098
  469MOL0     H61877   7.931   0.897   9.016  1.0559 -1.4870  0.6494
  469MOL0     H61878   7.781   1.037   9.169  0.6183  1.6096 -1.9385
  469MOL0     H61879   7.913   1.071   9.273  1.1878 -1.3486  0.8866
  469MOL0     H61880   7.811   0.795   9.207  1.4345 -1.5902 -0.0935
  469MOL0     H61881   7.976   0.822   9.271 -0.4111 -0.5301  0.2583
  469MOL0     H61882   7.710   0.904   9.413  0.7154 -0.2529  0.4815
  469MOL0     H61883   7.881   0.953   9.463  1.6001 -0.1130  0.3508
  469MOL0     H61884   7.945   0.718   9.449  0.9361  1.0641 -0.6263
  469MOL0     H61885   7.783   0.670   9.414  3.8278 -1.9787 -0.7734
  469MOL0     H61886   7.907   0.797   9.667  1.6137 -1.1623 -1.6153
  469MOL0     H61887   7.735   0.788   9.649  1.7902  4.2894 -2.1701
  469MOL0     H61888   7.719   0.550   9.646  0.1868 -0.4377 -0.3423
  469MOL0     H61889   7.837   0.591   9.780 -1.5051  2.2862 -0.2772
  469MOL0     H61890   7.554   1.159   8.917  0.1032 -0.5933 -0.2969
  469MOL0     H61891   7.440   1.338   8.783  0.6802 -2.9941  1.8187
  469MOL0     H61892   7.293   1.813   8.703  0.2232 -1.1854 -1.8799
  469MOL0     H61893   7.314   2.044   8.651  0.7103  2.7276 -0.8042
  469MOL0     H61894   8.257   1.714   7.556  1.2496  1.0493  0.2686
  469MOL0     H61895   8.479   1.713   7.499 -2.6801  4.2845 -0.8685
  469MOL0     H61896   8.799   1.262   7.096  0.9715  0.3821 -0.6087
  469MOL0     H61897   8.984   1.321   6.920 -2.0542 -1.2084  1.0887
  469MOL0     H61898   9.195   1.580   6.954  1.4926  1.9542 -0.3213
  469MOL0     H61899   9.188   1.678   6.801  0.9968 -0.1162 -1.0585
  469MOL0     H61900   9.359   1.498   6.801  0.8515 -2.2209  0.7208
  469MOL0     H61901   9.256   1.368   6.843  1.6143 -0.9516 -1.6204
  469MOL0     H61902   9.256   1.525   6.585  0.6874  0.4814  1.4418
  469MOL0     H61903   9.119   1.429   6.618  0.1438  3.7789 -2.9436
  469MOL0     H61904   9.273   1.300   6.486 -0.4495  0.4722  0.5276
  469MOL0     H61905   9.400   1.315   6.613 -0.5354  1.4189  1.4093
  469MOL0     H61906   9.143   1.030   6.799 -1.7090 -0.1078 -2.2762
  469MOL0     H61907   8.918   1.737   7.006  0.3586 -0.1406 -2.5515
  469MOL0     H61908   8.740   1.676   7.181 -2.2500  0.4437 -1.5221
  470MOL0     O61909  10.170   8.029   7.799 -1.4669  0.0224 -0.3781
  470MOL0     C61910  10.126   8.101   7.719  0.2666 -0.2783  0.6522
  470MOL0     O61911  10.083   8.222   7.739  0.3676  0.5490 -1.3018
  470MOL0     C61912  10.096   8.291   7.853 -1.1114  0.5597 -0.8156
  470MOL0     C61913  10.101   8.234   7.988  0.6017  0.0440 -0.3319
  470MOL0     C61914  10.135   8.320   8.098  0.1328  0.3672  1.1286
  470MOL0     C61915  10.165   8.459   8.080 -0.2903  1.2606  0.5566
  470MOL0     O61916  10.209   8.524   8.186  0.7075 -0.5816  0.2330
  470MOL0     C61917  10.216   8.670   8.183  0.0759 -0.2620 -0.6989
  470MOL0     C61918  10.227   8.723   8.332 -0.9883 -0.2851  0.1565
  470MOL0     C61919  10.200   8.876   8.341 -0.4771  0.8646 -0.1598
  470MOL0     C61920  10.315   8.967   8.276 -0.9597  0.1856  0.3271
  470MOL0     C61921  10.293   9.119   8.297 -0.8406 -0.9770  1.0273
  470MOL0     C61922  10.435   9.192   8.286  0.3740 -1.1271 -0.3839
  470MOL0     C61923  10.419   9.338   8.323  0.5115 -0.6427 -1.3146
  470MOL0     C61924  10.442   9.437   8.216  1.0158 -0.2677  0.5570
  470MOL0     N61925  10.348   9.414   8.104  0.5369 -0.4282  0.3523
  470MOL0     C61926  10.378   9.412   7.972  0.4247  0.2371  1.4907
  470MOL0     C61927  10.271   9.359   7.905 -0.3186  1.0376 -0.8278
  470MOL0     C61928  10.258   9.331   7.756  0.0300 -0.8128  0.6174
  470MOL0     C61929  10.178   9.203   7.727 -0.3562  0.0462  0.0283
  470MOL0     C61930  10.177   9.173   7.576  0.5793 -0.1920  0.7608
  470MOL0     C61931  10.081   9.045   7.557  0.7342 -0.2818  0.1512
  470MOL0     O61932  10.159   8.939   7.609 -0.3197 -0.1801  0.8625
  470MOL0     C61933  10.175   8.829   7.533 -0.3565 -0.6040 -0.4104
  470MOL0     C61934  10.309   8.783   7.516 -0.0094 -0.2739  0.3351
  470MOL0     C61935  10.334   8.664   7.447 -1.4631 -1.1674  0.2333
  470MOL0     C61936  10.233   8.587   7.392 -0.1375 -0.8943 -0.2930
  470MOL0     C61937  10.255   8.459   7.318  0.1282 -0.5896 -0.5213
  470MOL0     O61938  10.381   8.405   7.324 -0.8303 -0.2862 -0.0544
  470MOL0     C61939  10.414   8.302   7.237  0.2248 -0.4547  0.1811
  470MOL0     C61940  10.328   8.205   7.198 -0.5921 -0.9834 -0.8529
  470MOL0     C61941  10.362   8.119   7.093 -0.4472  0.3998  0.3736
  470MOL0     C61942  10.478   8.139   7.013 -0.2347 -0.2425  0.2844
  470MOL0     O61943  10.522   8.051   6.918 -1.0932  1.2556 -0.1769
  470MOL0     C61944  10.627   8.088   6.824  0.5103 -0.0590  0.7514
  470MOL0     C61945  10.626   7.968   6.725 -0.0860 -0.1277  1.0193
  470MOL0     C61946  10.502   7.961   6.641  0.7826  0.7024  0.9808
  470MOL0     C61947  10.553   7.866   6.523 -0.4262  0.0137  0.1380
  470MOL0     C61948  10.441   7.843   6.418  0.3875 -1.1321 -0.0312
  470MOL0     C61949  10.489   7.723   6.338  1.0968 -0.7987 -1.0434
  470MOL0     C61950  10.387   7.686   6.235  0.5843  0.3875  0.3203
  470MOL0     C61951  10.426   7.575   6.135  0.6240  0.2012  0.3248
  470MOL0    Cl61952  10.326   7.570   5.990  0.1855  0.1831  0.2277
  470MOL0     C61953  10.549   8.254   7.043 -0.0129 -0.4298 -0.5133
  470MOL0     C61954  10.525   8.335   7.161 -0.7825 -0.4853  0.8129
  470MOL0     O61955  10.158   8.403   7.255 -0.0654  0.3984 -1.0564
  470MOL0     C61956  10.098   8.626   7.413 -0.4656 -0.6042  0.1819
  470MOL0     C61957  10.069   8.754   7.485  0.3472  0.3110 -0.3320
  470MOL0     N61958  10.173   9.330   8.013 -0.2199  0.0295 -0.1952
  470MOL0     N61959  10.216   9.381   8.119  0.1148  0.3021 -0.0422
  470MOL0     C61960  10.138   8.511   7.954 -0.0956 -0.4689 -0.1401
  470MOL0     C61961  10.111   8.433   7.843  0.1795  0.3469 -1.0180
  470MOL0     C61962  10.098   8.044   7.586  0.0087 -0.2776 -0.1108
  470MOL0     C61963  10.042   8.122   7.476 -0.0516  0.1849 -0.0808
  470MOL0     C61964  10.013   8.063   7.349  0.6313 -0.6284 -0.2008
  470MOL0     C61965  10.050   7.938   7.315  0.0948  0.2171 -0.6378
  470MOL0     O61966  10.026   7.872   7.189  0.5740  0.7000 -0.2215
  470MOL0     C61967   9.948   7.940   7.086 -0.0029 -0.1493  1.0159
  470MOL0     C61968   9.939   7.844   6.965  0.4631 -0.3737  0.8675
  470MOL0     C61969   9.837   7.886   6.865  0.5462 -0.4694 -0.4914
  470MOL0     C61970   9.891   7.986   6.754 -0.3257 -1.3429 -0.0180
  470MOL0     C61971   9.897   8.121   6.823 -0.1136  0.1282  1.0192
  470MOL0     C61972   9.892   8.229   6.886 -0.1528 -0.4082  0.1711
  470MOL0     C61973  10.128   7.868   7.414  0.5778 -0.1245  0.7003
  470MOL0     C61974  10.148   7.911   7.540 -1.3132  0.1837 -0.7962
  470MOL0     H61975  10.084   8.127   8.003  3.8978 -0.4156  1.0251
  470MOL0     H61976  10.138   8.274   8.196  0.6012 -0.7498  0.6130
  470MOL0     H61977  10.129   8.721   8.139 -0.1041  3.2105  3.1044
  470MOL0     H61978  10.302   8.705   8.125  0.1738  0.0012 -0.3955
  470MOL0     H61979  10.329   8.697   8.363  0.4656  2.7813 -1.5295
  470MOL0     H61980  10.158   8.668   8.396 -0.6127 -1.6160 -0.5357
  470MOL0     H61981  10.200   8.899   8.448  2.6267 -0.3387  0.1820
  470MOL0     H61982  10.104   8.904   8.296 -0.3025  2.0470  0.1696
  470MOL0     H61983  10.412   8.929   8.308  1.5427  2.5297 -3.6729
  470MOL0     H61984  10.320   8.945   8.169 -0.2460 -0.3300  0.4607
  470MOL0     H61985  10.238   9.131   8.391 -2.8973 -2.0820  0.0533
  470MOL0     H61986  10.222   9.159   8.223  0.2474  1.7635  1.3780
  470MOL0     H61987  10.482   9.193   8.187 -0.4509  2.0413 -0.8467
  470MOL0     H61988  10.506   9.143   8.354  0.6772  0.4331  0.4811
  470MOL0     H61989  10.318   9.351   8.363  1.0551 -0.4824  0.0668
  470MOL0     H61990  10.487   9.360   8.406  1.9612 -2.2439 -2.0110
  470MOL0     H61991  10.548   9.424   8.190  1.0153 -2.0739  1.3129
  470MOL0     H61992  10.426   9.540   8.249 -0.7203  0.7054 -2.7902
  470MOL0     H61993  10.472   9.441   7.926  1.4583 -1.0115  2.6986
  470MOL0     H61994  10.353   9.322   7.703  0.2800  0.3513  0.8483
  470MOL0     H61995  10.211   9.418   7.707  1.9942 -1.1860 -2.1704
  470MOL0     H61996  10.076   9.207   7.768 -1.4557 -2.0241 -2.2532
  470MOL0     H61997  10.235   9.122   7.774 -1.2374 -0.8581 -0.4181
  470MOL0     H61998  10.131   9.263   7.535 -0.8528 -0.3920  1.8294
  470MOL0     H61999  10.277   9.158   7.535  2.1746 -0.9155  4.4841
  470MOL0     H62000  10.058   9.025   7.452 -0.9340  0.1757  0.3992
  470MOL0     H62001   9.982   9.048   7.603  1.0558  0.2697  0.8249
  470MOL0     H62002  10.393   8.839   7.557 -1.0353  0.2631  1.8194
  470MOL0     H62003  10.440   8.644   7.434 -1.5602 -0.7111 -1.4995
  470MOL0     H62004  10.245   8.184   7.264  0.0625  0.9832  0.6557
  470MOL0     H62005  10.305   8.027   7.079 -1.4014  1.1530 -0.8956
  470MOL0     H62006  10.729   8.094   6.865 -0.0314  2.8394  1.9174
  470MOL0     H62007  10.604   8.180   6.771 -1.0561 -0.8925 -0.0912
  470MOL0     H62008  10.643   7.872   6.773 -2.3658 -2.1489 -1.8833
  470MOL0     H62009  10.713   7.983   6.660 -0.3006  1.8925  1.1313
  470MOL0     H62010  10.463   8.055   6.600 -0.4088  0.3170  1.1929
  470MOL0     H62011  10.410   7.929   6.692 -1.1313 -0.3150 -2.7611
  470MOL0     H62012  10.637   7.907   6.466 -0.8786  1.6604  0.5901
  470MOL0     H62013  10.580   7.769   6.566  0.9176 -0.1370 -0.9579
  470MOL0     H62014  10.438   7.935   6.358 -1.9272  0.5371  2.3907
  470MOL0     H62015  10.339   7.832   6.457  0.8205 -2.8815  0.6969
  470MOL0     H62016  10.497   7.635   6.402  0.4204  0.6001  1.0644
  470MOL0     H62017  10.585   7.746   6.292  1.6579 -0.0005  0.4540
  470MOL0     H62018  10.303   7.633   6.280  1.8923 -2.1264 -0.0346
  470MOL0     H62019  10.352   7.773   6.178 -1.5408 -1.0142 -0.6457
  470MOL0     H62020  10.435   7.477   6.182 -0.0566 -1.2320 -2.3106
  470MOL0     H62021  10.525   7.607   6.102  1.2007  0.6359  2.3489
  470MOL0     H62022  10.643   8.279   6.994  0.3326 -0.8193 -0.0588
  470MOL0     H62023  10.578   8.426   7.186  1.9915 -1.6148 -0.5249
  470MOL0     H62024  10.020   8.565   7.369 -1.4719  0.7937 -0.0633
  470MOL0     H62025   9.973   8.800   7.505  1.5672  2.2721  1.4043
  470MOL0     H62026  10.141   8.618   7.942  0.8222 -0.5306 -0.5328
  470MOL0     H62027  10.099   8.486   7.748  0.9654  5.0745  1.2037
  470MOL0     H62028  10.023   8.227   7.490  0.0818  0.2685 -0.4965
  470MOL0     H62029   9.960   8.133   7.285  1.8346  0.7575  0.2835
  470MOL0     H62030   9.996   8.036   7.065 -1.8218  0.7022  0.5557
  470MOL0     H62031   9.851   7.955   7.134 -0.6948 -2.2943  0.3983
  470MOL0     H62032  10.039   7.829   6.924  0.4459 -0.5857  0.9015
  470MOL0     H62033   9.898   7.748   6.998 -1.0774 -0.6321 -1.5541
  470MOL0     H62034   9.752   7.919   6.926  0.1366 -1.3817 -0.5382
  470MOL0     H62035   9.806   7.796   6.811  1.3576 -1.4889  0.6768
  470MOL0     H62036   9.980   7.940   6.711 -0.8692 -2.1593 -0.2791
  470MOL0     H62037   9.819   8.004   6.673  3.1680  0.7245 -3.0162
  470MOL0     H62038   9.896   8.326   6.933  1.5162  0.0471 -0.7879
  470MOL0     H62039  10.156   7.766   7.395 -1.3206 -1.0672  2.5118
  470MOL0     H62040  10.207   7.847   7.605 -1.2476  2.2597  1.3324
  471MOL0     O62041  10.876   0.136  10.808  1.1765  0.4808  0.3378
  471MOL0     C62042  10.808   0.030  10.829 -0.5883  0.1453 -0.4617
  471MOL0     O62043  10.813  -0.042  10.943 -0.4339 -0.0050  0.0648
  471MOL0     C62044  10.863   0.020  11.054  1.0102  0.3246  1.1339
  471MOL0     C62045  10.781   0.036  11.167 -0.2482 -0.2235  0.5670
  471MOL0     C62046  10.826   0.104  11.273  0.2968 -0.8221  0.3279
  471MOL0     C62047  10.951   0.168  11.276  0.9870  0.4607 -0.1580
  471MOL0     O62048  10.984   0.247  11.385  0.5326 -0.0696  0.1348
  471MOL0     C62049  11.006   0.384  11.351  0.4351 -0.8125  0.5936
  471MOL0     C62050  11.017   0.469  11.480  0.7377 -0.2150 -0.9447
  471MOL0     C62051  10.931   0.418  11.601  0.0861  0.1128  0.1121
  471MOL0     C62052  10.977   0.289  11.673 -0.5556 -0.1226 -0.6126
  471MOL0     C62053  10.873   0.247  11.779  0.1161  0.3058  1.1798
  471MOL0     C62054  10.737   0.205  11.729 -0.2185  0.2414 -0.0644
  471MOL0     C62055  10.652   0.146  11.836  0.0962  0.2332 -0.3171
  471MOL0     C62056  10.507   0.150  11.794 -0.0150  0.6145  0.1304
  471MOL0     N62057  10.428   0.050  11.867  0.3706  0.4319 -0.5714
  471MOL0     C62058  10.422  -0.085  11.820 -0.4625  0.1239 -0.5429
  471MOL0     C62059  10.374  -0.152  11.922 -0.4182  0.2162 -0.1452
  471MOL0     C62060  10.340  -0.301  11.925 -0.0224  0.3054 -0.1158
  471MOL0     C62061  10.445  -0.372  12.018  0.5698  0.1877  0.4355
  471MOL0     C62062  10.405  -0.518  12.043 -0.4371 -0.3999 -0.1172
  471MOL0     C62063  10.488  -0.598  12.149  0.3802  0.3831  0.4389
  471MOL0     O62064  10.464  -0.549  12.278  0.8169 -0.0494  0.2024
  471MOL0     C62065  10.563  -0.569  12.376  0.2498 -0.0798  0.2697
  471MOL0     C62066  10.677  -0.647  12.362  0.9922  0.3617 -0.0508
  471MOL0     C62067  10.759  -0.668  12.468 -0.7484 -0.4466  0.0469
  471MOL0     C62068  10.731  -0.612  12.596 -1.3436  0.0794 -0.3954
  471MOL0     C62069  10.810  -0.653  12.708 -0.3253 -0.5218 -0.1551
  471MOL0     O62070  10.942  -0.670  12.671  0.4283  0.0193 -0.3384
  471MOL0     C62071  11.003  -0.776  12.738  1.1360 -0.7285 -0.8765
  471MOL0     C62072  11.011  -0.897  12.671  0.2720 -1.0997 -0.3466
  471MOL0     C62073  11.068  -1.001  12.729 -0.4806  0.3898 -0.6105
  471MOL0     C62074  11.121  -0.995  12.853  0.2454  0.1727 -0.2411
  471MOL0     O62075  11.188  -1.101  12.911 -0.2733 -0.8330  1.0246
  471MOL0     C62076  11.234  -1.207  12.833  0.2906  0.4342 -0.1977
  471MOL0     C62077  11.342  -1.287  12.914 -0.3257 -0.1438  1.1772
  471MOL0     C62078  11.451  -1.195  12.951  0.4856 -0.1136 -0.8874
  471MOL0     C62079  11.574  -1.268  13.018  0.1088  0.3992  0.2072
  471MOL0     C62080  11.680  -1.166  13.058 -0.4221 -0.5112 -1.2434
  471MOL0     C62081  11.818  -1.221  13.109  0.2228 -0.5504  0.2832
  471MOL0     C62082  11.868  -1.317  12.998  0.5980  0.2876 -0.0401
  471MOL0     C62083  11.891  -1.252  12.858 -0.4639 -0.3685  0.0113
  471MOL0    Cl62084  11.989  -1.095  12.869  0.1524 -0.4053  0.1993
  471MOL0     C62085  11.116  -0.878  12.924 -0.9431 -0.4001 -0.3838
  471MOL0     C62086  11.068  -0.760  12.867  1.1116 -0.0752 -0.5934
  471MOL0     O62087  10.765  -0.672  12.818  0.1115 -0.0311 -0.5547
  471MOL0     C62088  10.630  -0.520  12.608 -0.0712 -1.2551  0.1756
  471MOL0     C62089  10.543  -0.501  12.499  0.3104  0.0219  0.8571
  471MOL0     N62090  10.352  -0.060  12.023 -0.3924 -0.1569 -0.3821
  471MOL0     N62091  10.385   0.061  11.993 -0.5776 -0.6540 -0.3033
  471MOL0     C62092  11.043   0.118  11.180 -0.5688 -0.7909 -0.4000
  471MOL0     C62093  10.998   0.058  11.059  0.8784 -0.2825  0.2968
  471MOL0     C62094  10.730  -0.018  10.721  0.8843  0.7197 -0.3432
  471MOL0     C62095  10.728   0.021  10.588  0.4146 -0.1322 -0.3065
  471MOL0     C62096  10.648  -0.039  10.491 -0.8386 -0.5141  0.0174
  471MOL0     C62097  10.567  -0.146  10.519  1.2848 -0.3929  0.5663
  471MOL0     O62098  10.510  -0.205  10.410  0.4171  0.6205  0.6787
  471MOL0     C62099  10.522  -0.342  10.419 -1.0090  1.1841  0.5596
  471MOL0     C62100  10.497  -0.395  10.277 -0.5176  0.0781  0.6869
  471MOL0     C62101  10.588  -0.513  10.225  0.3307  0.3289  0.1012
  471MOL0     C62102  10.550  -0.572  10.094  0.2052 -0.2284 -0.0236
  471MOL0     C62103  10.651  -0.578   9.992 -1.0977  0.2172 -0.3010
  471MOL0     C62104  10.730  -0.577   9.898 -0.3979 -0.0183  0.8488
  471MOL0     C62105  10.554  -0.178  10.651 -0.7394 -0.2808 -0.0992
  471MOL0     C62106  10.628  -0.117  10.752 -0.4706  0.0778 -0.1181
  471MOL0     H62107  10.682  -0.008  11.172 -0.7430  0.7363 -0.2434
  471MOL0     H62108  10.750   0.131  11.346 -1.5443 -1.1413 -1.3728
  471MOL0     H62109  10.913   0.420  11.306  0.4045  2.5396  2.9461
  471MOL0     H62110  11.100   0.407  11.300  0.4368 -2.1154 -0.0242
  471MOL0     H62111  10.999   0.576  11.464  0.8528  0.4934  2.7778
  471MOL0     H62112  11.119   0.475  11.519 -0.2098  1.6862  1.4938
  471MOL0     H62113  10.827   0.412  11.565  0.1129  0.0971  0.0357
  471MOL0     H62114  10.925   0.492  11.682 -2.3781  1.3304 -1.0542
  471MOL0     H62115  10.982   0.206  11.601 -0.2264 -0.8165  0.1884
  471MOL0     H62116  11.077   0.298  11.718 -1.3706  0.7268  1.1230
  471MOL0     H62117  10.861   0.336  11.841  1.8364  0.9294  0.6629
  471MOL0     H62118  10.918   0.164  11.834  0.5087 -0.7007 -0.5973
  471MOL0     H62119  10.766   0.137  11.649 -0.3995  0.5860 -0.4295
  471MOL0     H62120  10.694   0.298  11.690 -1.5927 -0.3531 -0.0413
  471MOL0     H62121  10.683   0.042  11.848  1.8815  0.8658  1.0151
  471MOL0     H62122  10.663   0.188  11.936  0.3082  1.6366 -0.9082
  471MOL0     H62123  10.490   0.119  11.690 -1.6663  0.4169  0.4192
  471MOL0     H62124  10.463   0.249  11.808  1.0333  1.1665 -0.4243
  471MOL0     H62125  10.446  -0.120  11.720 -1.5537  0.1110 -0.8080
  471MOL0     H62126  10.336  -0.342  11.824  2.7414  0.4992 -0.3711
  471MOL0     H62127  10.244  -0.320  11.975  0.6961 -0.3410  1.0791
  471MOL0     H62128  10.438  -0.326  12.117 -3.4617 -1.3465  1.0624
  471MOL0     H62129  10.547  -0.356  11.984  1.1767 -1.1079  1.5326
  471MOL0     H62130  10.300  -0.523  12.073 -0.4227 -3.7327 -0.2918
  471MOL0     H62131  10.421  -0.568  11.947 -0.6371  0.1821 -0.4564
  471MOL0     H62132  10.595  -0.592  12.126  1.0897 -0.6508  3.0491
  471MOL0     H62133  10.465  -0.704  12.148  3.4312 -0.3726  0.1800
  471MOL0     H62134  10.707  -0.689  12.267 -0.3417 -0.0229 -0.3289
  471MOL0     H62135  10.854  -0.721  12.461  0.3281  1.2411  0.9195
  471MOL0     H62136  10.972  -0.892  12.570 -0.8160 -1.5619  0.0305
  471MOL0     H62137  11.065  -1.093  12.672  0.5308  1.4152 -2.4033
  471MOL0     H62138  11.277  -1.175  12.738  0.4162 -0.8249 -0.5875
  471MOL0     H62139  11.152  -1.269  12.794  0.2326 -0.7933  1.7506
  471MOL0     H62140  11.385  -1.364  12.849 -1.4044 -1.1695  1.6532
  471MOL0     H62141  11.292  -1.326  13.003  1.1288  0.0418  2.1217
  471MOL0     H62142  11.415  -1.126  13.028 -0.5464 -0.4098 -1.0782
  471MOL0     H62143  11.477  -1.130  12.867  2.2964 -1.5205 -1.4797
  471MOL0     H62144  11.545  -1.327  13.106 -0.1864 -1.2978 -0.9905
  471MOL0     H62145  11.614  -1.349  12.958  1.6564 -0.4299  2.2288
  471MOL0     H62146  11.638  -1.115  13.146 -2.0474 -0.3725 -2.0720
  471MOL0     H62147  11.699  -1.090  12.983 -2.5231  1.6631  0.2730
  471MOL0     H62148  11.817  -1.265  13.209  0.1760 -0.7485  0.1962
  471MOL0     H62149  11.865  -1.123  13.103 -4.7363  2.1625  0.5404
  471MOL0     H62150  11.964  -1.356  13.033  0.0168 -0.0166  1.2701
  471MOL0     H62151  11.798  -1.398  12.982 -1.7332  1.7423  2.0579
  471MOL0     H62152  11.798  -1.241  12.803 -1.3412 -3.1394  0.7657
  471MOL0     H62153  11.950  -1.330  12.809  0.1599 -0.5032  0.9395
  471MOL0     H62154  11.124  -0.890  13.031 -2.8853 -0.2038 -0.1770
  471MOL0     H62155  11.091  -0.663  12.910 -0.2376  0.2085 -0.4439
  471MOL0     H62156  10.620  -0.460  12.699  0.4679  1.2251 -1.2915
  471MOL0     H62157  10.462  -0.431  12.516  1.2326  0.9142  1.6492
  471MOL0     H62158  11.140   0.168  11.188 -1.0190  0.0393  0.0462
  471MOL0     H62159  11.053   0.039  10.967 -0.7011 -1.9934 -0.3683
  471MOL0     H62160  10.790   0.104  10.554 -1.6791  2.2329  1.3412
  471MOL0     H62161  10.671  -0.010  10.389 -1.3562  0.0218  0.0530
  471MOL0     H62162  10.446  -0.377  10.490 -0.5415 -3.0412 -0.7717
  471MOL0     H62163  10.622  -0.375  10.448 -1.8413 -4.4771 -1.6695
  471MOL0     H62164  10.393  -0.429  10.271 -0.1926 -1.6695  3.1894
  471MOL0     H62165  10.499  -0.316  10.202 -0.5525  1.0110  1.6430
  471MOL0     H62166  10.585  -0.590  10.303 -2.9393 -0.2344 -0.4027
  471MOL0     H62167  10.696  -0.497  10.224  1.2225 -4.3039 -0.1734
  471MOL0     H62168  10.507  -0.671  10.108 -5.3164  1.6370 -1.2376
  471MOL0     H62169  10.470  -0.507  10.056 -0.0480  0.9670  2.3833
  471MOL0     H62170  10.799  -0.583   9.816 -1.3235 -1.1611  0.1286
  471MOL0     H62171  10.492  -0.264  10.674 -1.0421 -0.1767 -0.5011
  471MOL0     H62172  10.623  -0.149  10.856  1.3247 -2.9081 -0.8318
  472MOL0     O62173   3.036   6.120  10.501 -0.2941 -0.6771  0.2814
  472MOL0     C62174   3.096   6.133  10.394  0.4792  0.2822 -0.2465
  472MOL0     O62175   3.092   6.050  10.289 -0.0966 -0.2105  0.5437
  472MOL0     C62176   3.058   5.920  10.317  0.0924 -0.7035 -0.6442
  472MOL0     C62177   3.125   5.822  10.385 -0.5316 -0.7451 -0.7463
  472MOL0     C62178   3.077   5.689  10.388  0.4015  0.7811  0.6619
  472MOL0     C62179   2.954   5.646  10.321  0.1727  0.0684  0.0697
  472MOL0     O62180   2.911   5.519  10.311  0.6362 -0.0935  0.3727
  472MOL0     C62181   2.986   5.407  10.363 -0.5848 -0.2332 -0.2199
  472MOL0     C62182   2.891   5.288  10.365  0.6667  0.4893 -0.2849
  472MOL0     C62183   2.962   5.157  10.415 -0.0670 -0.3907  0.5031
  472MOL0     C62184   2.851   5.066  10.453  1.0006 -0.3182  0.1711
  472MOL0     C62185   2.922   4.939  10.517  0.6165 -0.0829  0.6412
  472MOL0     C62186   2.828   4.825  10.548 -0.1239 -0.5985 -0.0640
  472MOL0     C62187   2.903   4.679  10.568  0.2781 -0.3299 -0.0474
  472MOL0     C62188   2.966   4.682  10.720 -0.4850 -0.0107  0.4711
  472MOL0     N62189   3.034   4.550  10.762 -0.6648 -0.2155  0.7247
  472MOL0     C62190   3.122   4.476  10.682 -0.4461 -0.2214  0.9268
  472MOL0     C62191   3.155   4.368  10.751 -0.0706  0.7167  0.3824
  472MOL0     C62192   3.251   4.256  10.722  0.1961 -0.4625  0.2022
  472MOL0     C62193   3.245   4.217  10.572  0.2398 -0.6075 -0.6210
  472MOL0     C62194   3.104   4.169  10.536  0.1095 -0.7044  0.0011
  472MOL0     C62195   3.109   4.120  10.389  0.7284 -0.3136 -0.0767
  472MOL0     O62196   3.169   4.210  10.296 -0.4243 -0.2964 -0.3819
  472MOL0     C62197   3.112   4.332  10.274  0.6377  1.3524 -0.1283
  472MOL0     C62198   3.194   4.408  10.190  0.0482 -0.4570  0.1896
  472MOL0     C62199   3.149   4.528  10.130 -0.1787 -0.2054 -0.9788
  472MOL0     C62200   3.028   4.587  10.166  0.0753 -0.2939 -0.7281
  472MOL0     C62201   2.981   4.726  10.121 -0.2760 -0.3283  0.0660
  472MOL0     O62202   3.069   4.786  10.040 -0.4757 -0.8462  0.3284
  472MOL0     C62203   3.008   4.896   9.986 -0.3509  0.0281 -0.0702
  472MOL0     C62204   3.026   5.019  10.040 -0.8217  1.0304 -0.0954
  472MOL0     C62205   2.995   5.135   9.974 -0.8582  0.4453  0.3447
  472MOL0     C62206   2.921   5.127   9.851 -0.4236 -0.8857 -0.5534
  472MOL0     O62207   2.872   5.238   9.791 -0.0747 -0.4323  1.0731
  472MOL0     C62208   2.971   5.320   9.722  0.5624 -0.9151 -1.0969
  472MOL0     C62209   2.942   5.468   9.746 -1.0788 -0.1523 -0.9881
  472MOL0     C62210   2.944   5.504   9.891 -0.8544 -0.5682 -0.0820
  472MOL0     C62211   2.877   5.637   9.917  0.0409  0.1418 -0.3998
  472MOL0     C62212   2.754   5.675   9.844  0.6522  0.3300 -0.3309
  472MOL0     C62213   2.680   5.800   9.879  0.9103 -0.5015 -0.0393
  472MOL0     C62214   2.550   5.815   9.801 -0.2490  0.3219 -0.0085
  472MOL0     C62215   2.489   5.942   9.850 -0.1923 -0.6759 -0.3781
  472MOL0    Cl62216   2.435   5.912  10.017  0.4493  0.5334  0.1740
  472MOL0     C62217   2.903   5.002   9.794  0.3451 -1.3675  0.4807
  472MOL0     C62218   2.946   4.888   9.863  0.5205  0.8438 -0.0859
  472MOL0     O62219   2.892   4.774  10.191  0.0091  0.4904  0.2698
  472MOL0     C62220   2.947   4.512  10.258  0.4102 -0.5871 -0.2175
  472MOL0     C62221   2.992   4.387  10.304  0.0159 -0.0654 -0.4601
  472MOL0     N62222   3.094   4.378  10.877 -0.0929  0.5163 -0.1890
  472MOL0     N62223   3.034   4.493  10.879 -0.5113  0.7462 -0.7149
  472MOL0     C62224   2.885   5.752  10.265  0.2959 -0.4026 -0.7048
  472MOL0     C62225   2.929   5.890  10.278  0.3055  0.3657  0.4672
  472MOL0     C62226   3.175   6.262  10.375 -0.3830 -0.0647  0.4017
  472MOL0     C62227   3.159   6.369  10.462  0.2063 -0.1130 -0.0014
  472MOL0     C62228   3.230   6.492  10.441 -0.1321 -0.0764  0.5704
  472MOL0     C62229   3.321   6.511  10.337 -0.4266  0.4620 -0.2032
  472MOL0     O62230   3.384   6.632  10.318 -0.5686  0.1888  0.1561
  472MOL0     C62231   3.437   6.664  10.190 -0.8984 -0.6284 -1.0557
  472MOL0     C62232   3.519   6.799  10.204  0.1577  0.3090  0.2785
  472MOL0     C62233   3.442   6.917  10.150  0.0592 -0.9280  0.4642
  472MOL0     C62234   3.301   6.932  10.198 -0.9253 -0.2976 -0.2652
  472MOL0     C62235   3.209   6.926  10.077 -0.0048  0.1994 -0.6528
  472MOL0     C62236   3.126   6.942   9.991 -0.8077  0.0586 -0.1623
  472MOL0     C62237   3.331   6.399  10.248 -0.1426 -0.0178  0.2934
  472MOL0     C62238   3.263   6.277  10.263  1.0040  0.6205 -0.5095
  472MOL0     H62239   3.222   5.855  10.421 -1.5420  1.4087  0.2266
  472MOL0     H62240   3.130   5.605  10.432 -2.1074 -1.7997 -0.8902
  472MOL0     H62241   3.028   5.416  10.463  0.9510 -0.0853 -0.8551
  472MOL0     H62242   3.073   5.379  10.303  0.1556 -1.6766  1.4676
  472MOL0     H62243   2.855   5.271  10.263 -1.8700 -1.5080  0.8584
  472MOL0     H62244   2.801   5.304  10.425  0.3315 -2.1025 -0.0053
  472MOL0     H62245   3.026   5.186  10.499 -1.0563  0.5329  0.9696
  472MOL0     H62246   3.032   5.121  10.339 -1.1706  0.4368 -0.9412
  472MOL0     H62247   2.780   5.115  10.520  1.4442  2.1682 -1.0357
  472MOL0     H62248   2.803   5.035  10.360  1.7317 -2.1851  0.3773
  472MOL0     H62249   2.981   4.967  10.605 -0.7501  1.4696  1.1316
  472MOL0     H62250   2.995   4.917  10.439  1.4979  2.1719  0.7704
  472MOL0     H62251   2.753   4.816  10.468 -0.9417 -2.0891  0.8249
  472MOL0     H62252   2.754   4.850  10.624 -0.4665 -1.2547 -0.1721
  472MOL0     H62253   2.828   4.601  10.558 -0.0264  0.0081 -0.4307
  472MOL0     H62254   2.989   4.659  10.503  0.7732 -0.5793  0.6698
  472MOL0     H62255   2.882   4.701  10.787  0.8831 -0.2304  2.3099
  472MOL0     H62256   3.040   4.762  10.728  0.4414 -0.9930  2.1946
  472MOL0     H62257   3.153   4.489  10.579 -5.1086 -0.1914 -0.7340
  472MOL0     H62258   3.227   4.166  10.779  0.7783 -1.5248 -1.1602
  472MOL0     H62259   3.350   4.297  10.743  0.8873 -1.3979 -1.1005
  472MOL0     H62260   3.310   4.133  10.546 -1.1241 -2.5431  1.7458
  472MOL0     H62261   3.270   4.294  10.500 -0.7287  0.8688  0.5566
  472MOL0     H62262   3.088   4.077  10.594  0.2811 -0.8818 -0.2280
  472MOL0     H62263   3.027   4.245  10.548 -1.9531 -2.2921 -2.3337
  472MOL0     H62264   3.010   4.099  10.346  0.6612 -0.5693  0.1988
  472MOL0     H62265   3.150   4.019  10.381  2.8804  0.2351  2.8561
  472MOL0     H62266   3.296   4.374  10.173  0.7518  0.9549  1.3601
  472MOL0     H62267   3.205   4.567  10.046 -0.4408  3.7674  0.4883
  472MOL0     H62268   3.075   5.016  10.137  2.5744  2.9965 -1.5786
  472MOL0     H62269   2.991   5.230  10.027 -2.2151  0.8686 -0.4533
  472MOL0     H62270   2.963   5.289   9.617 -1.6967 -2.1644 -0.6259
  472MOL0     H62271   3.074   5.305   9.754  0.9379  1.6411 -0.9640
  472MOL0     H62272   2.840   5.487   9.712 -1.4685  0.2909  0.3520
  472MOL0     H62273   3.013   5.530   9.691 -1.1636 -1.1543 -2.2687
  472MOL0     H62274   3.046   5.497   9.929 -0.1480  1.9675 -1.3149
  472MOL0     H62275   2.891   5.428   9.950  0.1263  0.2172  1.8945
  472MOL0     H62276   2.852   5.647  10.024 -3.7913 -0.6471 -1.0551
  472MOL0     H62277   2.952   5.712   9.891  0.6259 -0.7037 -1.1819
  472MOL0     H62278   2.691   5.586   9.850  0.1303  0.5782 -1.6457
  472MOL0     H62279   2.775   5.692   9.737 -1.8990  0.8174 -0.8142
  472MOL0     H62280   2.746   5.886   9.866 -1.4258  1.3037 -0.6257
  472MOL0     H62281   2.652   5.791   9.984 -0.0024  0.4772 -0.1833
  472MOL0     H62282   2.578   5.822   9.696 -2.2090  1.5176 -0.5120
  472MOL0     H62283   2.488   5.728   9.825  1.6553 -0.2130  3.6426
  472MOL0     H62284   2.404   5.968   9.786  1.6772  2.0811 -1.9384
  472MOL0     H62285   2.549   6.033   9.847  2.3602 -2.0356  2.7217
  472MOL0     H62286   2.856   5.004   9.696 -1.3863  3.3938  1.1289
  472MOL0     H62287   2.943   4.791   9.815 -1.6110  0.0307  1.5041
  472MOL0     H62288   2.850   4.539  10.298  1.2632 -2.5594  3.7271
  472MOL0     H62289   2.918   4.337  10.366 -0.4994  2.3018  0.9579
  472MOL0     H62290   2.791   5.739  10.212  1.2749  1.1473 -2.9524
  472MOL0     H62291   2.873   5.967  10.227  0.8821  0.4496 -0.0586
  472MOL0     H62292   3.101   6.372  10.554  1.2596  3.2437  0.7075
  472MOL0     H62293   3.219   6.579  10.506  1.1486 -0.9391  1.9801
  472MOL0     H62294   3.367   6.674  10.107 -0.5381  1.5402 -1.1780
  472MOL0     H62295   3.508   6.589  10.154 -1.6288  0.2437 -4.6933
  472MOL0     H62296   3.548   6.816  10.308 -0.1475  2.5434  0.0676
  472MOL0     H62297   3.614   6.785  10.151  0.4043  0.3088  0.7108
  472MOL0     H62298   3.448   6.928  10.042 -1.5825 -0.8195  0.3564
  472MOL0     H62299   3.497   7.008  10.177 -0.0936 -0.2615 -1.3285
  472MOL0     H62300   3.262   6.867  10.278 -0.3094 -0.7866 -0.3560
  472MOL0     H62301   3.288   7.033  10.238 -1.8502 -0.1884 -0.8010
  472MOL0     H62302   3.038   6.961   9.931 -0.1502 -1.3217 -1.6355
  472MOL0     H62303   3.401   6.399  10.165  0.2895  1.8200  0.6279
  472MOL0     H62304   3.269   6.198  10.188  0.5765 -1.8003  1.8436
  473MOL0     O62305  10.774   5.015   1.738 -0.0197 -0.6242 -0.2571
  473MOL0     C62306  10.866   5.038   1.663  0.2494 -0.5258  0.0042
  473MOL0     O62307  10.855   5.071   1.527  1.0164 -0.2188  0.1474
  473MOL0     C62308  10.739   5.037   1.459 -0.0977 -0.2669 -0.3631
  473MOL0     C62309  10.609   5.085   1.485 -0.2496  0.5156 -1.0971
  473MOL0     C62310  10.488   5.033   1.437 -0.9877  1.2123 -0.0904
  473MOL0     C62311  10.490   4.917   1.357 -0.6705  0.2679  0.1629
  473MOL0     O62312  10.382   4.853   1.300 -0.6624 -0.1627  0.4028
  473MOL0     C62313  10.255   4.875   1.357  0.6232  0.0009 -0.1717
  473MOL0     C62314  10.165   4.982   1.296  0.5734  0.0004  0.1388
  473MOL0     C62315  10.153   4.974   1.148 -0.0326  0.5165  0.5003
  473MOL0     C62316  10.040   5.062   1.100 -0.7911 -1.2095 -0.4931
  473MOL0     C62317   9.953   4.997   0.987  0.0790  0.0185  0.4219
  473MOL0     C62318   9.867   5.084   0.910 -0.0453 -1.1670  1.1299
  473MOL0     C62319   9.794   5.021   0.790  0.0933  0.1059  0.3734
  473MOL0     C62320   9.660   4.948   0.832  0.2209 -0.2897 -0.3080
  473MOL0     N62321   9.593   4.877   0.724 -0.1239  0.8157 -0.9712
  473MOL0     C62322   9.502   4.931   0.632 -0.5271 -0.5197 -0.2586
  473MOL0     C62323   9.440   4.833   0.567  0.1122  1.3202 -0.3938
  473MOL0     C62324   9.355   4.826   0.442 -0.2019 -0.2749 -0.3883
  473MOL0     C62325   9.214   4.759   0.463 -0.1382  0.2207 -0.0551
  473MOL0     C62326   9.219   4.606   0.449  0.9816 -0.8459 -0.9597
  473MOL0     C62327   9.069   4.553   0.450  0.3872 -0.0721  0.3380
  473MOL0     O62328   9.017   4.582   0.314 -0.5791  0.2916 -0.4751
  473MOL0     C62329   8.937   4.480   0.271 -0.4073 -0.6206  0.8503
  473MOL0     C62330   8.853   4.401   0.341 -0.3607  0.5176 -0.2782
  473MOL0     C62331   8.791   4.290   0.291  0.5955  0.0212  0.8797
  473MOL0     C62332   8.817   4.247   0.158 -0.1177  0.0399  0.6645
  473MOL0     C62333   8.773   4.117   0.106  0.6216 -1.9061 -0.3745
  473MOL0     O62334   8.816   4.079  -0.013  0.2504 -0.7102 -0.4812
  473MOL0     C62335   8.783   3.963  -0.062  0.5282  0.6621  0.4504
  473MOL0     C62336   8.861   3.852  -0.041  0.1368 -0.4028  0.7668
  473MOL0     C62337   8.848   3.718  -0.092 -0.7936 -0.5642 -0.1903
  473MOL0     C62338   8.735   3.692  -0.175  0.3941 -0.3785  0.5159
  473MOL0     O62339   8.711   3.562  -0.222 -0.1756  0.1653 -0.4775
  473MOL0     C62340   8.827   3.472  -0.232 -0.8606 -0.0687  0.2053
  473MOL0     C62341   8.779   3.339  -0.272  0.4340 -0.6422  0.3837
  473MOL0     C62342   8.745   3.314  -0.424 -0.0674 -0.6186 -0.7153
  473MOL0     C62343   8.744   3.166  -0.463  0.1893  0.7506 -0.6696
  473MOL0     C62344   8.620   3.107  -0.403 -0.5372  0.3023  0.3855
  473MOL0     C62345   8.599   2.968  -0.454 -1.2990  0.4558 -0.1581
  473MOL0     C62346   8.464   2.921  -0.403 -0.2320 -0.6507 -0.3929
  473MOL0     C62347   8.408   2.784  -0.445  0.4828  0.5267 -0.4855
  473MOL0    Cl62348   8.499   2.664  -0.356 -0.3824  0.5006 -0.0762
  473MOL0     C62349   8.644   3.801  -0.195 -0.9717  0.3224 -0.6131
  473MOL0     C62350   8.672   3.929  -0.147  0.5440  0.3205 -0.0993
  473MOL0     O62351   8.697   4.058   0.179  0.2677  0.6455  0.0403
  473MOL0     C62352   8.902   4.334   0.075  0.0874 -0.0443 -0.9518
  473MOL0     C62353   8.972   4.441   0.139  1.0216 -0.7353  0.8765
  473MOL0     N62354   9.488   4.719   0.613 -0.5443  0.1034 -0.3255
  473MOL0     N62355   9.573   4.745   0.708 -0.3190 -0.4067  0.2619
  473MOL0     C62356  10.619   4.878   1.311 -0.3661  1.5370  0.3008
  473MOL0     C62357  10.739   4.928   1.369 -0.2586  1.4323  1.5529
  473MOL0     C62358  11.001   5.019   1.719 -0.4203 -0.5017 -0.0957
  473MOL0     C62359  11.121   5.043   1.632 -0.1783 -0.7824 -1.0627
  473MOL0     C62360  11.249   5.005   1.681 -0.2325  0.2666 -0.4592
  473MOL0     C62361  11.272   4.966   1.814  0.2527 -0.8334 -0.9180
  473MOL0     O62362  11.381   4.932   1.882 -0.1342  0.8494 -0.5684
  473MOL0     C62363  11.506   4.963   1.824  0.5354  1.1064 -0.6855
  473MOL0     C62364  11.562   4.812   1.820 -0.4720  0.2551 -0.0911
  473MOL0     C62365  11.719   4.820   1.809  0.4060 -0.8545  0.8675
  473MOL0     C62366  11.776   4.875   1.668 -0.1975  0.0533  0.0244
  473MOL0     C62367  11.755   4.764   1.574  0.8157 -0.1312  0.4013
  473MOL0     C62368  11.738   4.694   1.475 -0.0878  0.0425  0.7764
  473MOL0     C62369  11.159   4.953   1.894 -0.0154 -0.5397 -0.0367
  473MOL0     C62370  11.026   4.972   1.849  0.3150 -0.2944  0.3039
  473MOL0     H62371  10.588   5.156   1.564 -2.6998 -0.9175 -0.3712
  473MOL0     H62372  10.411   5.109   1.432 -0.0266  2.1849 -0.4264
  473MOL0     H62373  10.241   4.870   1.465 -2.0681 -0.2068 -0.4703
  473MOL0     H62374  10.199   4.788   1.320  1.4877  0.1264 -1.8928
  473MOL0     H62375  10.194   5.083   1.328 -3.6091  1.5100 -0.2375
  473MOL0     H62376  10.066   4.975   1.341 -0.2712 -1.4834 -1.8080
  473MOL0     H62377  10.128   4.872   1.117 -2.8950  0.9167  1.2033
  473MOL0     H62378  10.244   4.994   1.090 -0.3171 -2.5500 -1.2255
  473MOL0     H62379   9.977   5.088   1.185 -0.7493 -1.3409 -0.4235
  473MOL0     H62380  10.079   5.157   1.060 -1.3203 -2.1214 -3.4466
  473MOL0     H62381   9.900   4.908   1.021 -4.3163  1.4788 -1.9291
  473MOL0     H62382  10.022   4.949   0.917 -0.0820  2.4783 -1.5613
  473MOL0     H62383   9.933   5.151   0.854 -0.9790  0.6893  2.1545
  473MOL0     H62384   9.797   5.129   0.982  1.2865  2.4498  0.4057
  473MOL0     H62385   9.756   5.103   0.729 -0.3294 -0.5407 -0.2442
  473MOL0     H62386   9.866   4.959   0.735  1.6100 -0.3847  2.7326
  473MOL0     H62387   9.595   5.030   0.864  2.4340  1.5153 -0.1083
  473MOL0     H62388   9.671   4.875   0.913 -2.1943 -2.8579 -2.1088
  473MOL0     H62389   9.490   5.037   0.612 -0.8292 -0.6716 -0.9112
  473MOL0     H62390   9.402   4.777   0.356 -1.8003 -1.6441 -0.5064
  473MOL0     H62391   9.341   4.927   0.402  2.5264 -0.1713 -1.3162
  473MOL0     H62392   9.146   4.803   0.389 -1.8485  0.0613  1.3567
  473MOL0     H62393   9.185   4.794   0.562  0.8044  0.6936  0.0581
  473MOL0     H62394   9.262   4.579   0.352 -3.2651 -5.4963 -1.9626
  473MOL0     H62395   9.279   4.563   0.529  1.2480  0.4366 -0.4358
  473MOL0     H62396   9.014   4.610   0.527  0.9844 -0.6651  1.2197
  473MOL0     H62397   9.076   4.449   0.481 -1.2150 -0.7236 -1.3366
  473MOL0     H62398   8.840   4.437   0.442  3.2191  3.1049 -0.5304
  473MOL0     H62399   8.726   4.222   0.345 -0.4778 -1.3526 -1.9777
  473MOL0     H62400   8.942   3.863   0.031  0.3914  0.3499  0.3757
  473MOL0     H62401   8.921   3.648  -0.055 -0.5719 -0.1837  0.1046
  473MOL0     H62402   8.873   3.459  -0.134 -2.2409 -2.5426  0.5834
  473MOL0     H62403   8.891   3.507  -0.314 -0.9024 -0.0365  0.1861
  473MOL0     H62404   8.688   3.313  -0.217 -0.9013 -0.6022 -1.6973
  473MOL0     H62405   8.865   3.280  -0.237  2.9661  0.9141 -2.7271
  473MOL0     H62406   8.813   3.363  -0.494  1.5355 -1.3525  0.2557
  473MOL0     H62407   8.646   3.357  -0.438 -0.6354 -0.4295  2.8494
  473MOL0     H62408   8.737   3.169  -0.572  0.7962  2.0642 -0.6926
  473MOL0     H62409   8.826   3.100  -0.434 -1.7016 -2.5802 -2.3213
  473MOL0     H62410   8.532   3.170  -0.422 -1.4608 -1.6177 -2.4491
  473MOL0     H62411   8.621   3.103  -0.294 -0.7342  0.1754  0.3850
  473MOL0     H62412   8.675   2.908  -0.403 -1.7253  2.6327  3.3207
  473MOL0     H62413   8.598   2.968  -0.564 -1.9910 -1.0321 -0.1879
  473MOL0     H62414   8.480   2.904  -0.296  1.0671 -0.0235 -0.4702
  473MOL0     H62415   8.383   2.988  -0.433 -0.3225 -0.0213  1.1286
  473MOL0     H62416   8.420   2.761  -0.551  0.2039  0.8251 -0.5808
  473MOL0     H62417   8.302   2.773  -0.424  0.9930 -0.7500  1.7167
  473MOL0     H62418   8.559   3.769  -0.255 -2.1011 -2.1919  2.0931
  473MOL0     H62419   8.601   4.009  -0.163  3.6655  4.1805  3.0145
  473MOL0     H62420   8.929   4.315  -0.028 -0.4062 -0.3243 -1.0273
  473MOL0     H62421   9.044   4.496   0.079  1.7937 -1.7759  0.8143
  473MOL0     H62422  10.627   4.799   1.237  0.9230  1.6361  0.3203
  473MOL0     H62423  10.828   4.882   1.326 -2.2386  0.9690 -2.6081
  473MOL0     H62424  11.110   5.081   1.531 -2.2585  4.2512  0.7344
  473MOL0     H62425  11.333   5.020   1.614 -1.4576  4.3117 -1.3766
  473MOL0     H62426  11.563   5.018   1.899  1.8171 -0.5349 -0.3832
  473MOL0     H62427  11.513   5.004   1.723  1.4794 -0.8864 -1.5002
  473MOL0     H62428  11.527   4.756   1.907 -0.5778 -0.2322 -0.4446
  473MOL0     H62429  11.523   4.763   1.731  2.0314 -0.4179 -0.9074
  473MOL0     H62430  11.773   4.728   1.833  0.9995 -0.7953 -0.1968
  473MOL0     H62431  11.752   4.891   1.886  1.4564  2.6472 -2.4963
  473MOL0     H62432  11.725   4.962   1.625  2.7312  1.2712 -1.3034
  473MOL0     H62433  11.883   4.890   1.686 -0.5401  0.0340  2.4475
  473MOL0     H62434  11.744   4.638   1.384  0.3916  1.6135 -0.2160
  473MOL0     H62435  11.171   4.926   1.998 -0.1350 -1.2187 -0.1930
  473MOL0     H62436  10.952   4.964   1.927 -2.3551  2.0609 -1.7685
  474MOL0     O62437   6.494  11.028   5.658  0.3509  0.8203 -0.3752
  474MOL0     C62438   6.390  11.019   5.726  1.0076  0.9586 -0.4765
  474MOL0     O62439   6.336  10.896   5.761  0.0289  0.1039  0.0720
  474MOL0     C62440   6.382  10.779   5.707  0.2922  0.4217 -0.1893
  474MOL0     C62441   6.504  10.724   5.728  0.0714 -0.3548  0.0035
  474MOL0     C62442   6.527  10.600   5.662 -0.5917 -0.3893  0.4760
  474MOL0     C62443   6.433  10.531   5.585  0.0372 -0.2357  1.3930
  474MOL0     O62444   6.480  10.424   5.523 -0.4281 -0.0223 -0.4043
  474MOL0     C62445   6.397  10.351   5.441  0.1301 -0.3384  0.0285
  474MOL0     C62446   6.472  10.226   5.377  0.4132  0.1533 -0.0828
  474MOL0     C62447   6.591  10.241   5.282 -0.6899  1.3288 -0.1716
  474MOL0     C62448   6.557  10.348   5.179 -0.4776 -0.1481 -0.4124
  474MOL0     C62449   6.641  10.345   5.046  0.1868 -1.0625  0.7425
  474MOL0     C62450   6.777  10.415   5.049  0.1075 -1.4863 -0.3615
  474MOL0     C62451   6.850  10.438   4.914 -0.0457 -1.1961 -0.8476
  474MOL0     C62452   6.916  10.315   4.860 -0.0976 -0.7995 -0.5772
  474MOL0     N62453   6.942  10.315   4.718 -0.0442 -0.5527  0.6875
  474MOL0     C62454   7.029  10.388   4.657 -0.8435 -0.1178  0.7216
  474MOL0     C62455   7.015  10.379   4.526  0.5870 -0.0088 -0.1127
  474MOL0     C62456   7.103  10.427   4.409 -0.2199 -0.3451 -0.4955
  474MOL0     C62457   7.145  10.574   4.404 -0.5545 -0.5503 -0.2450
  474MOL0     C62458   7.040  10.672   4.389 -0.3168 -1.2397 -0.4876
  474MOL0     C62459   7.078  10.806   4.308 -0.0141 -0.1317 -0.2510
  474MOL0     O62460   6.999  10.907   4.354 -0.0927 -0.6495 -0.1427
  474MOL0     C62461   7.012  11.026   4.285  0.7381 -0.3453  0.2484
  474MOL0     C62462   6.906  11.085   4.218 -0.2621 -0.1193 -0.0332
  474MOL0     C62463   6.916  11.204   4.140 -0.2156  0.2539  0.0027
  474MOL0     C62464   7.043  11.262   4.133  0.0239  0.3982  0.3351
  474MOL0     C62465   7.077  11.391   4.070 -0.3663  0.2508  0.7527
  474MOL0     O62466   7.213  11.414   4.040  0.0237 -0.3229 -0.7568
  474MOL0     C62467   7.253  11.523   3.967  0.2120  0.5852  0.9885
  474MOL0     C62468   7.205  11.650   3.989  0.4606 -0.3425 -0.7207
  474MOL0     C62469   7.230  11.749   3.898 -0.8274 -0.2821 -0.1482
  474MOL0     C62470   7.302  11.730   3.773 -0.0536  0.2477 -0.4685
  474MOL0     O62471   7.333  11.826   3.689 -0.0843  0.3827 -0.8898
  474MOL0     C62472   7.219  11.906   3.646 -0.1595 -0.7302  0.4058
  474MOL0     C62473   7.199  11.900   3.491 -1.1033  0.1385 -1.0639
  474MOL0     C62474   7.176  11.758   3.447  0.0761 -0.6789 -1.0879
  474MOL0     C62475   7.027  11.725   3.439 -0.1361 -0.2672 -0.4058
  474MOL0     C62476   7.014  11.631   3.322  0.0207 -1.2799 -0.3475
  474MOL0     C62477   7.087  11.498   3.354 -0.1817  0.3381 -0.1733
  474MOL0     C62478   7.150  11.429   3.227 -0.0193 -0.0915 -0.0790
  474MOL0     C62479   7.255  11.513   3.152 -0.0518 -0.0135 -1.1812
  474MOL0    Cl62480   7.388  11.525   3.266 -0.3794 -0.3840 -0.1693
  474MOL0     C62481   7.358  11.609   3.757  0.3641  0.3545 -0.0936
  474MOL0     C62482   7.339  11.504   3.847 -0.3071  0.5453 -0.1092
  474MOL0     O62483   6.982  11.464   4.025  0.1712  0.2134 -0.1207
  474MOL0     C62484   7.146  11.207   4.213 -0.1016 -0.1988 -0.1625
  474MOL0     C62485   7.131  11.092   4.296 -0.6226 -0.1210 -0.6992
  474MOL0     N62486   6.907  10.307   4.508  0.1869  0.3779  0.0521
  474MOL0     N62487   6.860  10.271   4.628  0.4552 -0.1189  0.2250
  474MOL0     C62488   6.301  10.585   5.578  0.4071 -0.4495  0.0746
  474MOL0     C62489   6.278  10.707   5.636  0.9600 -0.7733 -0.2967
  474MOL0     C62490   6.338  11.143   5.792 -0.1864  0.2492  0.7517
  474MOL0     C62491   6.209  11.146   5.853 -0.7936  0.0002  0.2782
  474MOL0     C62492   6.154  11.264   5.893  0.2774 -0.7809  0.2642
  474MOL0     C62493   6.222  11.382   5.881  0.1479 -0.7209 -0.6239
  474MOL0     O62494   6.173  11.499   5.931  0.2182  0.3587 -0.0847
  474MOL0     C62495   6.086  11.504   6.038 -0.9222 -0.4037 -0.5555
  474MOL0     C62496   6.071  11.648   6.082  0.3466  0.4281 -0.2885
  474MOL0     C62497   6.194  11.708   6.154 -0.1583  0.2213  0.1237
  474MOL0     C62498   6.150  11.830   6.236 -0.1729 -0.0199  0.9232
  474MOL0     C62499   6.112  11.942   6.153 -0.1179  0.0417 -0.4494
  474MOL0     C62500   6.096  12.043   6.091 -0.5257 -0.4520  0.6639
  474MOL0     C62501   6.345  11.381   5.817 -0.0053 -0.1194 -0.5060
  474MOL0     C62502   6.403  11.262   5.775 -0.1689  0.0786  0.2859
  474MOL0     H62503   6.570  10.774   5.797  0.7966 -1.2927  0.0205
  474MOL0     H62504   6.630  10.566   5.666 -1.2066 -2.2272  2.9902
  474MOL0     H62505   6.351  10.416   5.366  1.6258  1.1423  0.3267
  474MOL0     H62506   6.310  10.308   5.491 -0.5877 -0.5468 -1.3433
  474MOL0     H62507   6.396  10.166   5.326 -0.6897  0.9025  0.6306
  474MOL0     H62508   6.502  10.171   5.466 -1.2663 -0.3740  0.2033
  474MOL0     H62509   6.626  10.153   5.226  1.0566  2.7173 -1.3740
  474MOL0     H62510   6.675  10.265   5.348 -1.4843 -1.3643  2.0303
  474MOL0     H62511   6.450  10.340   5.159 -0.7219  0.1525  0.7089
  474MOL0     H62512   6.577  10.440   5.235  0.3917 -2.2673  2.9953
  474MOL0     H62513   6.583  10.403   4.973 -0.2274 -0.6229  1.4077
  474MOL0     H62514   6.651  10.246   5.003  0.2648 -0.3816 -0.8659
  474MOL0     H62515   6.845  10.369   5.120  0.6286 -2.3436 -1.3952
  474MOL0     H62516   6.748  10.510   5.097 -0.8443 -3.3589  3.1250
  474MOL0     H62517   6.776  10.472   4.841 -1.3824 -2.8594 -0.3583
  474MOL0     H62518   6.929  10.513   4.920  1.4027 -2.7125 -0.1653
  474MOL0     H62519   6.856  10.228   4.887  1.2637 -1.7726 -0.5592
  474MOL0     H62520   7.008  10.305   4.919 -1.1806  2.3347  1.9202
  474MOL0     H62521   7.099  10.453   4.708 -0.6559  0.9178 -0.7644
  474MOL0     H62522   7.055  10.408   4.313  0.8472  1.6135 -1.4821
  474MOL0     H62523   7.190  10.361   4.416 -0.4561 -1.0527 -3.1955
  474MOL0     H62524   7.220  10.587   4.326  4.5389  0.5842  4.2676
  474MOL0     H62525   7.200  10.611   4.491  0.4963 -1.9402 -0.2865
  474MOL0     H62526   6.955  10.620   4.344  0.1352 -0.9420 -1.7304
  474MOL0     H62527   7.011  10.703   4.490  4.9676 -3.0234  1.9182
  474MOL0     H62528   7.050  10.794   4.203 -0.3240 -0.4713 -0.1306
  474MOL0     H62529   7.183  10.832   4.328 -0.0926  0.6977 -0.8703
  474MOL0     H62530   6.802  11.058   4.233  0.1623 -4.1621 -2.8023
  474MOL0     H62531   6.839  11.254   4.082  0.7667  2.0468  0.1698
  474MOL0     H62532   7.150  11.680   4.077  0.2035  2.1226 -1.6237
  474MOL0     H62533   7.208  11.853   3.920  1.0815  1.2106 -4.2767
  474MOL0     H62534   7.226  12.014   3.662 -2.8521 -0.1721 -1.6016
  474MOL0     H62535   7.131  11.870   3.701 -1.0981  0.3718 -0.3259
  474MOL0     H62536   7.300  11.918   3.453 -0.9978  0.1069 -0.7957
  474MOL0     H62537   7.133  11.980   3.455  1.6813  1.2615 -4.2842
  474MOL0     H62538   7.209  11.687   3.524 -1.3500  0.5793  0.7507
  474MOL0     H62539   7.236  11.765   3.355 -1.2643  1.0641 -1.8737
  474MOL0     H62540   6.988  11.685   3.533 -0.5883  0.1420 -0.4132
  474MOL0     H62541   6.969  11.816   3.419  0.1729  0.2478  0.9473
  474MOL0     H62542   7.064  11.677   3.236 -1.5981  1.5125  0.0558
  474MOL0     H62543   6.909  11.620   3.295 -0.0594  0.3439 -0.8021
  474MOL0     H62544   7.018  11.426   3.399  1.2952 -0.0904  1.5408
  474MOL0     H62545   7.163  11.514   3.431 -0.3545 -3.7985  1.0962
  474MOL0     H62546   7.201  11.340   3.266  2.2988 -0.0937 -2.8280
  474MOL0     H62547   7.060  11.393   3.176 -2.0377  2.0863  1.6929
  474MOL0     H62548   7.223  11.612   3.120  5.1521  1.7634 -1.7929
  474MOL0     H62549   7.289  11.457   3.064  0.0749 -1.0768 -0.4871
  474MOL0     H62550   7.413  11.599   3.663 -3.1691  0.7158 -2.4036
  474MOL0     H62551   7.382  11.404   3.842  0.4252  0.6144  2.8508
  474MOL0     H62552   7.235  11.267   4.228 -1.5145  1.1920  3.9440
  474MOL0     H62553   7.213  11.044   4.350 -0.0671  0.5474 -0.9401
  474MOL0     H62554   6.221  10.542   5.518 -0.0412  0.2839  0.1352
  474MOL0     H62555   6.179  10.752   5.631  0.0860 -2.4651  0.8869
  474MOL0     H62556   6.151  11.054   5.856 -0.4508 -0.2094  0.6057
  474MOL0     H62557   6.052  11.258   5.931 -0.1874 -0.8285 -0.9295
  474MOL0     H62558   6.131  11.456   6.125  0.4873  1.8620  0.0535
  474MOL0     H62559   5.988  11.462   6.011 -1.0234 -1.3565  1.1794
  474MOL0     H62560   6.048  11.705   5.991  2.6889  0.3818 -0.9674
  474MOL0     H62561   5.982  11.647   6.146 -1.4469 -1.1201 -2.6377
  474MOL0     H62562   6.267  11.726   6.074 -3.6027 -0.0066 -3.4117
  474MOL0     H62563   6.227  11.640   6.233  0.4773  0.3237 -0.0486
  474MOL0     H62564   6.069  11.813   6.306 -0.0338  1.1461  1.3930
  474MOL0     H62565   6.239  11.866   6.290  0.7243 -0.4164 -0.2406
  474MOL0     H62566   6.060  12.123   6.029  0.3454  0.5936  1.4714
  474MOL0     H62567   6.399  11.472   5.794 -0.9554  1.0285  1.5287
  474MOL0     H62568   6.499  11.281   5.728 -1.3588  1.6288 -1.7248
  475MOL0     O62569   1.676   6.498  10.656 -0.8491  1.0261  0.0074
  475MOL0     C62570   1.760   6.591  10.665 -1.1346  0.2208  0.2078
  475MOL0     O62571   1.830   6.651  10.567  0.2334  0.3726 -0.8162
  475MOL0     C62572   1.780   6.643  10.435  0.1980 -0.0145 -0.2725
  475MOL0     C62573   1.643   6.676  10.402  0.1272  0.4710  0.1837
  475MOL0     C62574   1.610   6.680  10.265 -0.8227 -0.0326 -0.1739
  475MOL0     C62575   1.701   6.629  10.173 -0.1630 -1.0073 -0.9928
  475MOL0     O62576   1.685   6.639  10.037  0.6851 -0.1604  0.2480
  475MOL0     C62577   1.563   6.608   9.968 -0.2700  0.3431 -0.0050
  475MOL0     C62578   1.491   6.477   9.995  0.2158  0.1419 -0.6530
  475MOL0     C62579   1.562   6.365   9.916  0.4366 -0.0104  0.4227
  475MOL0     C62580   1.706   6.329   9.963  0.3046  0.5618 -0.1208
  475MOL0     C62581   1.765   6.198   9.885 -0.2288 -0.6322 -0.1097
  475MOL0     C62582   1.915   6.192   9.909 -0.1974 -0.0024 -0.1736
  475MOL0     C62583   1.985   6.052   9.872  0.8916 -0.6763  0.1634
  475MOL0     C62584   1.969   6.036   9.709 -0.6952 -0.0497  0.6683
  475MOL0     N62585   2.066   5.934   9.666  0.7344  0.6055 -0.2696
  475MOL0     C62586   2.023   5.812   9.626  0.5899  0.7032  0.3730
  475MOL0     C62587   2.136   5.752   9.573  0.5729  0.0623  0.8080
  475MOL0     C62588   2.139   5.611   9.522 -0.1231  0.3767  0.1114
  475MOL0     C62589   2.137   5.497   9.617  1.0568  0.1298  0.0695
  475MOL0     C62590   2.253   5.496   9.705 -0.0112  0.2638  0.1512
  475MOL0     C62591   2.236   5.551   9.844 -0.3206 -0.0417  0.3743
  475MOL0     O62592   2.154   5.470   9.924 -0.0616  0.1277 -0.1976
  475MOL0     C62593   2.132   5.499  10.046  0.8360 -0.1716 -0.6553
  475MOL0     C62594   2.033   5.422  10.120  0.4685 -0.6052  0.5571
  475MOL0     C62595   2.019   5.432  10.259 -0.4541  0.1034  0.5288
  475MOL0     C62596   2.088   5.541  10.326  0.4141 -0.1403  0.3261
  475MOL0     C62597   2.078   5.572  10.471  1.4081  0.0413 -0.2003
  475MOL0     O62598   2.133   5.687  10.514  0.1336  0.8343 -0.4325
  475MOL0     C62599   2.136   5.710  10.652 -0.4718 -0.7935 -0.4323
  475MOL0     C62600   2.219   5.624  10.733 -0.4567 -0.6630  0.5507
  475MOL0     C62601   2.229   5.646  10.875  0.6717 -0.2443 -0.5359
  475MOL0     C62602   2.158   5.757  10.936  0.0171  0.0091 -0.0184
  475MOL0     O62603   2.158   5.775  11.069  0.1063  0.0490  0.2205
  475MOL0     C62604   2.279   5.755  11.136 -0.6860 -1.1349  0.5769
  475MOL0     C62605   2.302   5.806  11.283  0.8354 -0.3316 -0.2103
  475MOL0     C62606   2.450   5.789  11.307  0.3534 -0.3155 -0.1598
  475MOL0     C62607   2.482   5.862  11.438 -0.1165  0.7123 -0.2926
  475MOL0     C62608   2.624   5.843  11.480  1.3638  0.4983 -0.2482
  475MOL0     C62609   2.688   5.928  11.581 -0.5925 -0.1936  0.0473
  475MOL0     C62610   2.828   5.885  11.644 -0.7898  0.4378 -0.8039
  475MOL0     C62611   2.947   5.869  11.546  0.6602  0.2363 -0.7233
  475MOL0    Cl62612   2.996   6.024  11.485 -0.2382  0.2940 -0.2117
  475MOL0     C62613   2.076   5.833  10.855  0.5346 -0.7967 -0.1753
  475MOL0     C62614   2.065   5.813  10.722 -0.7044 -0.4283  0.2443
  475MOL0     O62615   2.030   5.485  10.547 -0.1694  0.4351  0.2183
  475MOL0     C62616   2.181   5.618  10.248 -1.5891  0.3880  0.4997
  475MOL0     C62617   2.205   5.594  10.114 -0.4036 -0.2397 -0.8923
  475MOL0     N62618   2.237   5.850   9.558 -0.4368 -0.1878  0.1296
  475MOL0     N62619   2.200   5.958   9.627 -0.2882  0.5364  0.8367
  475MOL0     C62620   1.825   6.585  10.213 -0.8910  0.1811 -0.1567
  475MOL0     C62621   1.866   6.594  10.342 -0.2640  1.4204  0.3439
  475MOL0     C62622   1.797   6.642  10.806 -0.6560 -0.7600  0.5778
  475MOL0     C62623   1.901   6.735  10.834 -0.0368 -1.0317 -0.4336
  475MOL0     C62624   1.918   6.798  10.950 -0.1335 -0.1083  0.2254
  475MOL0     C62625   1.837   6.772  11.060  0.8279  0.4584  0.3466
  475MOL0     O62626   1.848   6.812  11.188 -0.0238  0.2027 -0.2812
  475MOL0     C62627   1.931   6.919  11.231 -0.1967 -0.9799 -0.0040
  475MOL0     C62628   1.939   6.917  11.377  0.5964 -0.0965 -0.4844
  475MOL0     C62629   2.045   7.017  11.416 -0.6553  0.9454  0.4487
  475MOL0     C62630   2.105   7.001  11.556  1.5419  0.0199  0.0554
  475MOL0     C62631   2.227   7.074  11.581 -0.1079  0.5608 -0.4778
  475MOL0     C62632   2.337   7.110  11.622 -1.1607 -1.8117 -0.2221
  475MOL0     C62633   1.732   6.686  11.041  0.5194 -0.8783  0.3329
  475MOL0     C62634   1.718   6.617  10.916  0.1513  0.6751  0.7991
  475MOL0     H62635   1.584   6.712  10.486  0.8941  1.1504  0.4430
  475MOL0     H62636   1.518   6.727  10.232 -1.9391 -0.9430  1.4835
  475MOL0     H62637   1.584   6.605   9.861  0.0607 -3.0460  0.0324
  475MOL0     H62638   1.497   6.685  10.010  1.5463  2.6372 -1.1904
  475MOL0     H62639   1.385   6.482   9.968 -0.4788 -1.2124  1.6279
  475MOL0     H62640   1.490   6.452  10.101 -2.2008  0.2101 -0.6111
  475MOL0     H62641   1.548   6.379   9.809  3.1343  4.0396  0.3715
  475MOL0     H62642   1.500   6.277   9.933 -0.5044  0.7181  0.8490
  475MOL0     H62643   1.772   6.415   9.949 -0.0878  0.8808 -0.0140
  475MOL0     H62644   1.715   6.304  10.069 -0.3640 -0.2228 -0.2419
  475MOL0     H62645   1.739   6.205   9.779  0.2436 -0.4718 -0.2203
  475MOL0     H62646   1.711   6.112   9.926  0.3700 -0.3113  1.4263
  475MOL0     H62647   1.938   6.215  10.014 -1.8695 -0.4233  0.3040
  475MOL0     H62648   1.957   6.268   9.842  0.7302  0.7067  1.1595
  475MOL0     H62649   2.092   6.063   9.891  0.4895  3.0651  1.0301
  475MOL0     H62650   1.939   5.973   9.933 -1.2001 -0.3430 -0.8726
  475MOL0     H62651   2.014   6.129   9.672 -1.9752  0.5369  0.5328
  475MOL0     H62652   1.872   6.027   9.658 -1.1375  1.8118  1.1100
  475MOL0     H62653   1.922   5.773   9.632  0.8240 -0.1915 -1.0058
  475MOL0     H62654   2.234   5.593   9.470 -1.1350 -2.2201 -1.0051
  475MOL0     H62655   2.063   5.606   9.444  2.7116  1.5314 -2.9837
  475MOL0     H62656   2.136   5.407   9.555  0.5795  0.6195 -0.6565
  475MOL0     H62657   2.042   5.505   9.670  1.5706  1.3892  0.8661
  475MOL0     H62658   2.274   5.390   9.721  1.2602  0.5912  0.7235
  475MOL0     H62659   2.348   5.525   9.660 -0.9268 -1.0096 -2.9536
  475MOL0     H62660   2.206   5.656   9.837 -0.5912 -0.2007 -1.0469
  475MOL0     H62661   2.337   5.550   9.886 -0.1994  0.6965  0.1258
  475MOL0     H62662   1.972   5.357  10.058 -2.3647  2.1312  0.2253
  475MOL0     H62663   1.944   5.374  10.311  0.8962  0.2162  2.7115
  475MOL0     H62664   2.278   5.540  10.697 -0.5842 -0.6473  0.3020
  475MOL0     H62665   2.291   5.587  10.941  1.3222  3.3647  2.3828
  475MOL0     H62666   2.353   5.814  11.080  0.6118  0.4132  3.6590
  475MOL0     H62667   2.295   5.647  11.128 -0.2679 -0.9338 -4.3181
  475MOL0     H62668   2.233   5.747  11.344  2.3530 -1.0646  0.8611
  475MOL0     H62669   2.271   5.911  11.285  2.5744  0.2627 -1.5431
  475MOL0     H62670   2.509   5.834  11.226  1.3193 -0.5166  0.4273
  475MOL0     H62671   2.480   5.684  11.304  1.1062 -0.1400  0.9471
  475MOL0     H62672   2.467   5.969  11.425  1.4477  0.7355 -2.4130
  475MOL0     H62673   2.408   5.818  11.505 -0.3218 -0.2816 -1.1390
  475MOL0     H62674   2.677   5.860  11.386  0.2865  2.7935 -0.4992
  475MOL0     H62675   2.628   5.741  11.520  0.6762  0.3260 -0.6163
  475MOL0     H62676   2.605   5.952  11.649 -0.2446  5.0422 -0.9198
  475MOL0     H62677   2.711   6.021  11.528  1.9965 -0.1003  1.2087
  475MOL0     H62678   2.856   5.970  11.707  0.9193  0.6067 -1.7378
  475MOL0     H62679   2.815   5.795  11.705  0.0204  1.8432  1.6099
  475MOL0     H62680   2.923   5.816  11.453  0.0253  1.1414 -1.0819
  475MOL0     H62681   3.026   5.811  11.595 -0.3938  1.9437  3.3708
  475MOL0     H62682   2.033   5.915  10.912 -1.0003 -0.0867 -2.2496
  475MOL0     H62683   2.015   5.887  10.659 -0.6098 -0.4635  0.1281
  475MOL0     H62684   2.247   5.682  10.305 -1.9639 -0.1654  1.5711
  475MOL0     H62685   2.278   5.655  10.062  0.5417 -1.8053 -1.4877
  475MOL0     H62686   1.884   6.553  10.128  1.3960  0.8834  1.0851
  475MOL0     H62687   1.966   6.567  10.374  0.5720 -0.1555 -3.0972
  475MOL0     H62688   1.984   6.760  10.768 -0.0750 -1.3660 -0.6103
  475MOL0     H62689   1.999   6.868  10.966 -0.3184 -0.5018  3.5944
  475MOL0     H62690   1.900   7.017  11.193  2.2799 -0.7773 -1.8136
  475MOL0     H62691   2.027   6.889  11.188 -0.5806  0.3685 -1.9488
  475MOL0     H62692   1.844   6.941  11.426  3.6519  2.1883  5.3944
  475MOL0     H62693   1.970   6.819  11.415  0.4689  1.0364  2.9121
  475MOL0     H62694   2.012   7.121  11.418  0.8431  1.4426 -0.2703
  475MOL0     H62695   2.126   6.999  11.345  1.5315  4.0972  1.9129
  475MOL0     H62696   2.027   7.045  11.618  2.5130  3.7040 -1.0778
  475MOL0     H62697   2.110   6.894  11.580  0.3664  0.1828  1.1172
  475MOL0     H62698   2.428   7.144  11.668 -1.7184 -1.9252  1.0281
  475MOL0     H62699   1.679   6.641  11.124 -1.4922  0.9595  0.1218
  475MOL0     H62700   1.638   6.544  10.908  0.7680  0.1726 -2.0631
  476MOL0     O62701   4.966   6.428   2.361  0.7148  0.1883 -0.1786
  476MOL0     C62702   4.989   6.425   2.479 -0.1918 -0.5213  0.6966
  476MOL0     O62703   4.903   6.478   2.580 -0.0572 -0.4132  0.7044
  476MOL0     C62704   4.764   6.495   2.556 -0.0165 -1.0604  0.4280
  476MOL0     C62705   4.693   6.453   2.438  0.4817  0.0922 -0.2452
  476MOL0     C62706   4.556   6.479   2.437 -0.7896  1.0436  0.6326
  476MOL0     C62707   4.489   6.558   2.534 -0.6317  0.3399  0.1020
  476MOL0     O62708   4.356   6.582   2.510 -0.5103  0.0367 -0.3820
  476MOL0     C62709   4.268   6.564   2.629 -0.9596  0.7979 -0.9918
  476MOL0     C62710   4.203   6.695   2.671  0.0959 -0.4439  0.0668
  476MOL0     C62711   4.078   6.684   2.758  0.2398 -0.4653 -0.1637
  476MOL0     C62712   4.013   6.819   2.800 -0.7698 -0.6179  0.3253
  476MOL0     C62713   3.924   6.795   2.919  0.5361  0.6453 -0.1263
  476MOL0     C62714   3.858   6.925   2.967  0.1041  0.4740  0.7964
  476MOL0     C62715   3.784   6.894   3.091  1.1512  0.6545  0.6616
  476MOL0     C62716   3.697   7.013   3.154 -0.4813 -0.2431 -0.2544
  476MOL0     N62717   3.662   6.976   3.292  0.5735  0.9508 -0.4985
  476MOL0     C62718   3.541   6.899   3.312  0.1967  0.1362 -0.4868
  476MOL0     C62719   3.524   6.892   3.445  0.1079 -0.6200 -0.2370
  476MOL0     C62720   3.425   6.798   3.513  0.4739  0.6492 -0.8154
  476MOL0     C62721   3.297   6.860   3.555  1.0604  0.2070 -0.4614
  476MOL0     C62722   3.212   6.778   3.651 -0.0689 -0.1249  0.2089
  476MOL0     C62723   3.131   6.677   3.563  0.3960  0.4679  0.1260
  476MOL0     O62724   3.205   6.569   3.490 -0.3022 -0.5785 -0.1969
  476MOL0     C62725   3.238   6.457   3.558 -0.7334  0.1541 -0.6671
  476MOL0     C62726   3.301   6.352   3.491  0.5884 -0.0485  1.0761
  476MOL0     C62727   3.311   6.222   3.549  0.0006  0.7823 -1.6033
  476MOL0     C62728   3.266   6.201   3.678  0.1181 -0.5223 -0.4299
  476MOL0     C62729   3.270   6.059   3.732 -0.5837 -0.5629 -0.6925
  476MOL0     O62730   3.325   5.958   3.657 -0.6467 -0.0641  0.6450
  476MOL0     C62731   3.307   5.824   3.696 -0.0238  0.4947  0.6268
  476MOL0     C62732   3.184   5.766   3.732 -0.2113  0.1748  0.1789
  476MOL0     C62733   3.180   5.629   3.763  0.3777  0.0019 -0.8532
  476MOL0     C62734   3.300   5.553   3.770  1.2498  0.3822 -0.9050
  476MOL0     O62735   3.273   5.417   3.792 -0.0065  0.4682 -0.4524
  476MOL0     C62736   3.345   5.345   3.896  0.4853 -0.2246  0.9754
  476MOL0     C62737   3.253   5.303   4.010  0.8545  1.1922  0.6109
  476MOL0     C62738   3.310   5.195   4.105  0.4606  0.4368 -0.2720
  476MOL0     C62739   3.451   5.233   4.165 -0.1429  0.4773 -0.2530
  476MOL0     C62740   3.434   5.355   4.263  0.8189  0.8542 -0.6883
  476MOL0     C62741   3.573   5.382   4.316  0.3415 -0.1028  0.0904
  476MOL0     C62742   3.583   5.500   4.415 -0.1205  0.5874  0.0563
  476MOL0     C62743   3.732   5.545   4.441 -0.2461 -0.5790  0.3986
  476MOL0    Cl62744   3.757   5.531   4.623 -0.3424 -0.2247  0.1129
  476MOL0     C62745   3.424   5.610   3.738  0.0284  0.2542 -0.6281
  476MOL0     C62746   3.424   5.747   3.698 -0.2830 -0.1023 -0.6219
  476MOL0     O62747   3.201   6.037   3.832  0.2767  0.3108 -0.6130
  476MOL0     C62748   3.209   6.301   3.750  1.1488 -1.2224 -0.0904
  476MOL0     C62749   3.210   6.432   3.695 -0.2218  0.6620 -0.6268
  476MOL0     N62750   3.605   7.001   3.495 -0.4160  0.5480 -0.2851
  476MOL0     N62751   3.694   7.036   3.405  0.9870 -0.0310 -0.0248
  476MOL0     C62752   4.563   6.607   2.643  0.2127 -0.5448 -0.4423
  476MOL0     C62753   4.697   6.577   2.658 -1.2111  0.3275 -0.1466
  476MOL0     C62754   5.129   6.386   2.514 -0.3174 -0.4486 -0.4167
  476MOL0     C62755   5.185   6.417   2.639  0.7054  0.1659 -0.0295
  476MOL0     C62756   5.320   6.389   2.678 -0.0991 -0.0702 -0.6085
  476MOL0     C62757   5.400   6.321   2.586 -0.2536 -1.2248  0.2586
  476MOL0     O62758   5.537   6.307   2.621  0.5848  0.5275  0.0977
  476MOL0     C62759   5.549   6.165   2.654  0.2283 -0.7094 -0.1948
  476MOL0     C62760   5.660   6.158   2.746  0.4183  0.1372 -0.2238
  476MOL0     C62761   5.683   6.012   2.800  0.6475 -0.2003  0.3971
  476MOL0     C62762   5.756   5.933   2.687 -0.5509 -0.1635  0.3750
  476MOL0     C62763   5.795   5.797   2.736  0.3124 -0.6028 -0.4432
  476MOL0     C62764   5.836   5.690   2.780 -0.1494 -0.2983 -0.4476
  476MOL0     C62765   5.355   6.309   2.454 -0.6369 -0.2572 -0.1897
  476MOL0     C62766   5.218   6.333   2.419  0.3279 -0.1843 -0.6094
  476MOL0     H62767   4.734   6.382   2.368  0.0499 -2.5623  2.0139
  476MOL0     H62768   4.513   6.448   2.342  2.6685 -1.6749 -0.2385
  476MOL0     H62769   4.312   6.505   2.709 -2.8698 -2.2129 -1.9624
  476MOL0     H62770   4.182   6.501   2.601 -0.7500 -1.8560  3.3563
  476MOL0     H62771   4.187   6.747   2.576  0.2818  0.2053  0.3849
  476MOL0     H62772   4.278   6.747   2.731 -1.5597 -0.5408  2.3525
  476MOL0     H62773   4.100   6.644   2.857 -4.4051 -2.1292  0.4331
  476MOL0     H62774   4.014   6.619   2.697  2.4538  0.5033 -3.8015
  476MOL0     H62775   4.092   6.881   2.843  1.7174 -0.9512 -3.3211
  476MOL0     H62776   3.968   6.872   2.715 -0.6683  0.3687  0.8768
  476MOL0     H62777   3.983   6.741   2.994  1.1798 -1.2921 -1.9398
  476MOL0     H62778   3.844   6.729   2.886  1.1370 -0.3128  0.2905
  476MOL0     H62779   3.797   6.977   2.893  0.5453  0.6400  0.5519
  476MOL0     H62780   3.944   6.988   2.992  0.1220 -0.2754  2.8099
  476MOL0     H62781   3.712   6.818   3.061  2.5053  0.3480 -2.0231
  476MOL0     H62782   3.857   6.851   3.160  2.3672 -0.6512 -1.3349
  476MOL0     H62783   3.618   7.051   3.090 -0.4822 -1.4794 -1.0193
  476MOL0     H62784   3.762   7.102   3.157 -3.7767  2.3246  1.0130
  476MOL0     H62785   3.480   6.852   3.236  0.4774 -0.7533 -0.1773
  476MOL0     H62786   3.492   6.745   3.582  2.7534  3.4928 -0.6240
  476MOL0     H62787   3.403   6.721   3.439 -0.0902  0.8006 -0.8057
  476MOL0     H62788   3.230   6.889   3.474 -0.6598  1.0761  1.2114
  476MOL0     H62789   3.319   6.948   3.615 -1.0940 -0.8534  2.0933
  476MOL0     H62790   3.277   6.751   3.735  2.2606  1.6132 -0.9109
  476MOL0     H62791   3.127   6.838   3.684  0.1909  0.4906 -0.2167
  476MOL0     H62792   3.075   6.722   3.481  0.0154  0.5228  0.4136
  476MOL0     H62793   3.055   6.632   3.627 -1.0779  2.3705 -0.2151
  476MOL0     H62794   3.342   6.370   3.392  2.7568 -3.3194  1.2076
  476MOL0     H62795   3.355   6.141   3.492  2.7497  1.2856 -0.3997
  476MOL0     H62796   3.104   5.838   3.721  1.6646  2.8477  2.6263
  476MOL0     H62797   3.081   5.587   3.778  0.7710 -0.0195  2.5564
  476MOL0     H62798   3.425   5.405   3.942  0.7893 -0.9501  1.4222
  476MOL0     H62799   3.389   5.251   3.861 -1.2808  0.0203 -2.2349
  476MOL0     H62800   3.157   5.269   3.970  0.7798 -2.1559  3.1565
  476MOL0     H62801   3.230   5.394   4.066  6.9915  2.5049  1.6886
  476MOL0     H62802   3.316   5.096   4.058 -0.7091  0.5085 -0.5970
  476MOL0     H62803   3.247   5.177   4.192  1.2189  3.0719  0.9139
  476MOL0     H62804   3.494   5.146   4.214  2.7538  2.1741  0.4563
  476MOL0     H62805   3.526   5.256   4.089  0.9260  0.9216  0.9097
  476MOL0     H62806   3.371   5.312   4.340 -1.2601  1.1477 -2.1270
  476MOL0     H62807   3.387   5.443   4.216 -0.0500 -0.0202 -1.4969
  476MOL0     H62808   3.638   5.418   4.236  0.6749  2.9311  1.5783
  476MOL0     H62809   3.627   5.296   4.356  2.5514  0.9025 -0.5748
  476MOL0     H62810   3.528   5.588   4.380  1.5032  3.6358  4.2229
  476MOL0     H62811   3.531   5.475   4.508 -2.5224 -1.4271 -1.6843
  476MOL0     H62812   3.744   5.648   4.407 -1.7810  0.0497  1.6666
  476MOL0     H62813   3.801   5.483   4.384 -0.9341 -0.7948 -0.2186
  476MOL0     H62814   3.513   5.549   3.742 -0.1735  0.0048  1.0616
  476MOL0     H62815   3.521   5.785   3.668 -1.2757 -0.1750 -4.4587
  476MOL0     H62816   3.174   6.290   3.852  0.8209 -0.8146 -0.1541
  476MOL0     H62817   3.169   6.510   3.759 -0.0893  3.6429 -3.8607
  476MOL0     H62818   4.524   6.671   2.722 -0.5234 -1.4153 -0.0727
  476MOL0     H62819   4.757   6.614   2.741  1.5286 -1.4261 -1.2203
  476MOL0     H62820   5.125   6.460   2.719 -1.4200 -3.8532  0.8059
  476MOL0     H62821   5.359   6.438   2.766  0.8296  0.0186 -1.0601
  476MOL0     H62822   5.580   6.111   2.563  1.0035 -1.1133  0.2987
  476MOL0     H62823   5.462   6.116   2.697  1.3188 -3.2894 -0.7219
  476MOL0     H62824   5.759   6.194   2.720  1.3880 -2.4405 -0.4104
  476MOL0     H62825   5.621   6.219   2.828 -0.0241  0.2763 -0.5360
  476MOL0     H62826   5.585   5.964   2.810 -0.3268  1.8963  1.5068
  476MOL0     H62827   5.743   6.006   2.892  1.2745 -1.3455 -0.0669
  476MOL0     H62828   5.688   5.927   2.601  1.0194 -0.5463 -0.8704
  476MOL0     H62829   5.850   5.984   2.663 -0.1004 -0.8625  0.6329
  476MOL0     H62830   5.868   5.608   2.841 -0.0960  1.2329  1.7111
  476MOL0     H62831   5.416   6.261   2.378 -0.0775  3.5551 -2.3874
  476MOL0     H62832   5.191   6.321   2.315 -2.8996  0.5634  0.0303
  477MOL0     O62833   2.994   7.074   0.878 -0.6753 -1.2857 -0.2738
  477MOL0     C62834   2.973   6.982   0.953  0.3813 -0.7622  0.8139
  477MOL0     O62835   2.915   6.996   1.073 -1.1323 -0.1360  0.0438
  477MOL0     C62836   2.877   7.111   1.133  0.3160 -0.0278  1.5248
  477MOL0     C62837   2.881   7.126   1.271 -0.3605  0.5969 -0.0797
  477MOL0     C62838   2.852   7.249   1.333 -0.5172 -0.0724 -0.6666
  477MOL0     C62839   2.787   7.351   1.258 -0.2498  0.6248 -0.2909
  477MOL0     O62840   2.750   7.465   1.329 -0.8225 -0.2384  0.1627
  477MOL0     C62841   2.624   7.523   1.304  0.6759  0.5550 -0.6023
  477MOL0     C62842   2.662   7.671   1.280 -0.2015  0.3188  0.6320
  477MOL0     C62843   2.630   7.705   1.135  0.0038  0.1304  0.8668
  477MOL0     C62844   2.674   7.843   1.094 -0.4016 -0.7417 -0.0233
  477MOL0     C62845   2.576   7.947   1.148 -0.0539 -0.0140 -0.3677
  477MOL0     C62846   2.644   8.082   1.135  1.8284 -0.4421 -0.0355
  477MOL0     C62847   2.644   8.129   0.989 -0.4313 -0.6525  1.2164
  477MOL0     C62848   2.508   8.168   0.922 -0.1031 -0.5215 -0.5890
  477MOL0     N62849   2.454   8.275   1.009 -0.9907 -0.0802  0.1708
  477MOL0     C62850   2.509   8.389   1.046  0.8455  0.4536  0.3868
  477MOL0     C62851   2.447   8.425   1.158 -0.1580 -0.5115 -0.4895
  477MOL0     C62852   2.468   8.540   1.252 -0.4446  0.2811  0.3949
  477MOL0     C62853   2.395   8.667   1.192  1.1509 -0.1737 -0.8359
  477MOL0     C62854   2.455   8.724   1.059  0.7174 -0.2647  0.8993
  477MOL0     C62855   2.594   8.784   1.071 -0.0441 -0.6989 -0.3684
  477MOL0     O62856   2.595   8.892   1.156  0.1899 -0.5119 -0.5184
  477MOL0     C62857   2.716   8.922   1.213  0.9394  0.1332 -0.9483
  477MOL0     C62858   2.847   8.877   1.173 -0.6565 -0.3615 -0.2680
  477MOL0     C62859   2.962   8.905   1.253  1.1607 -0.6962  0.3690
  477MOL0     C62860   2.944   8.999   1.368  0.6865  0.7086 -0.1794
  477MOL0     C62861   3.057   9.036   1.467  0.2242  0.0327 -0.3092
  477MOL0     O62862   3.176   9.002   1.411 -0.7730 -0.6200 -0.0821
  477MOL0     C62863   3.286   9.052   1.485 -0.0244  0.2976 -0.0333
  477MOL0     C62864   3.320   9.182   1.506 -1.0433  0.1145 -0.3251
  477MOL0     C62865   3.423   9.211   1.597  0.9164 -0.0045 -0.3202
  477MOL0     C62866   3.494   9.116   1.666  1.3171  1.3183 -0.7070
  477MOL0     O62867   3.580   9.165   1.755 -0.0251 -0.6978  0.1934
  477MOL0     C62868   3.660   9.075   1.826  0.0264 -0.0924 -0.2418
  477MOL0     C62869   3.772   9.153   1.904  0.4092  0.3874 -0.0608
  477MOL0     C62870   3.872   9.064   1.976  0.8468  0.1078  0.4760
  477MOL0     C62871   3.948   9.132   2.089  0.3498  0.0712  0.5262
  477MOL0     C62872   4.031   9.250   2.047 -0.3674  0.1508  0.3554
  477MOL0     C62873   4.137   9.290   2.145 -0.7413 -0.2280  0.5673
  477MOL0     C62874   4.231   9.396   2.091 -0.7729  0.2878  0.1869
  477MOL0     C62875   4.342   9.433   2.180  0.2453 -0.0460 -0.0910
  477MOL0    Cl62876   4.471   9.304   2.193  0.5650  0.3969 -0.6084
  477MOL0     C62877   3.460   8.982   1.644 -0.3759 -0.5144  0.0485
  477MOL0     C62878   3.356   8.950   1.552 -0.0062  1.4604 -0.7878
  477MOL0     O62879   3.043   9.109   1.566  1.3594 -0.2727 -0.4314
  477MOL0     C62880   2.818   9.037   1.403 -0.4211  0.2892 -0.2849
  477MOL0     C62881   2.709   9.000   1.330  0.5905 -0.4676  0.4720
  477MOL0     N62882   2.340   8.343   1.186 -0.2147  0.1719 -0.7132
  477MOL0     N62883   2.341   8.259   1.093 -1.0162  0.1950  0.3076
  477MOL0     C62884   2.766   7.333   1.121  0.5797  0.7713 -0.8746
  477MOL0     C62885   2.799   7.209   1.059 -0.7168 -0.5637  0.1061
  477MOL0     C62886   3.030   6.848   0.918  0.3989 -0.0857 -0.1408
  477MOL0     C62887   3.042   6.751   1.021  0.4748 -0.4456  1.6364
  477MOL0     C62888   3.107   6.629   1.003 -0.5421 -0.1663 -0.0828
  477MOL0     C62889   3.141   6.593   0.875 -1.1461 -1.4604 -0.0597
  477MOL0     O62890   3.208   6.479   0.859  1.1781 -0.2359  0.7829
  477MOL0     C62891   3.138   6.354   0.891  0.0609 -0.2418 -0.0258
  477MOL0     C62892   3.238   6.262   0.957 -0.4150  0.7886  0.2101
  477MOL0     C62893   3.384   6.320   0.969  0.4950 -0.1134 -0.6997
  477MOL0     C62894   3.476   6.197   1.004  0.1263 -0.0031  0.0622
  477MOL0     C62895   3.624   6.236   1.017  0.2654 -0.3005  0.3614
  477MOL0     C62896   3.744   6.265   1.033 -0.0049  0.5190  0.0004
  477MOL0     C62897   3.128   6.691   0.775  0.4174  0.9782  0.7069
  477MOL0     C62898   3.072   6.814   0.791 -0.7796  0.1728  0.3350
  477MOL0     H62899   2.917   7.039   1.324  0.9003  1.1223 -0.0426
  477MOL0     H62900   2.854   7.263   1.440  1.0495  3.0888 -0.9864
  477MOL0     H62901   2.566   7.534   1.396 -1.8891 -2.6129 -1.6629
  477MOL0     H62902   2.566   7.476   1.225 -0.1465  4.0507 -2.2487
  477MOL0     H62903   2.767   7.690   1.302  0.4449 -0.1297 -1.7390
  477MOL0     H62904   2.608   7.727   1.357  1.6203  1.5801  1.0441
  477MOL0     H62905   2.528   7.671   1.116  0.5867 -0.8956 -0.6149
  477MOL0     H62906   2.706   7.643   1.086  0.6522  1.4899  0.1136
  477MOL0     H62907   2.772   7.873   1.130 -0.5331  3.1983 -2.3667
  477MOL0     H62908   2.664   7.839   0.985  3.5814 -0.9668 -0.5189
  477MOL0     H62909   2.559   7.910   1.249  0.5366 -3.3596 -1.3563
  477MOL0     H62910   2.482   7.948   1.092 -0.9992  1.7469  1.1627
  477MOL0     H62911   2.747   8.080   1.173  0.9663  0.9555  2.6018
  477MOL0     H62912   2.602   8.158   1.201  1.4393  0.1011 -0.8814
  477MOL0     H62913   2.715   8.212   0.981 -0.1284 -1.0533 -1.5761
  477MOL0     H62914   2.694   8.064   0.917 -1.7529 -0.1310 -0.2392
  477MOL0     H62915   2.444   8.080   0.916 -1.8185  0.5046  1.3485
  477MOL0     H62916   2.537   8.210   0.826 -0.0910 -0.1323 -0.4176
  477MOL0     H62917   2.600   8.433   1.006  1.2783  0.1119  0.9741
  477MOL0     H62918   2.575   8.562   1.265  0.4041 -2.8968 -0.3843
  477MOL0     H62919   2.422   8.510   1.347 -3.1568 -2.6304 -1.6700
  477MOL0     H62920   2.393   8.743   1.270 -4.1447 -1.2897  0.4842
  477MOL0     H62921   2.289   8.644   1.183  0.2257  2.8704  0.9894
  477MOL0     H62922   2.443   8.654   0.976 -3.4394  3.2082 -1.8275
  477MOL0     H62923   2.395   8.811   1.032  1.5987 -0.0500 -0.4329
  477MOL0     H62924   2.618   8.812   0.968  0.4858  0.5272  0.0642
  477MOL0     H62925   2.667   8.706   1.095 -0.7487 -0.9059  1.2505
  477MOL0     H62926   2.862   8.810   1.089  0.1204 -0.5545  0.0156
  477MOL0     H62927   3.054   8.853   1.232  0.6478 -0.9064 -1.6362
  477MOL0     H62928   3.268   9.263   1.455  1.0049  1.7377  0.0220
  477MOL0     H62929   3.439   9.319   1.592 -2.9125  0.6330 -3.4683
  477MOL0     H62930   3.710   9.005   1.759  0.4104 -2.1760  2.0698
  477MOL0     H62931   3.601   9.022   1.901  0.6350 -0.0562  0.2711
  477MOL0     H62932   3.725   9.217   1.979  1.3322 -3.3667  4.1211
  477MOL0     H62933   3.836   9.204   1.831  1.1464  0.2980  0.5112
  477MOL0     H62934   3.943   9.014   1.909 -3.0291 -1.9042 -2.6425
  477MOL0     H62935   3.821   8.981   2.025 -0.8187 -0.5587 -2.1824
  477MOL0     H62936   3.877   9.164   2.165  0.8914 -0.9822  1.4975
  477MOL0     H62937   4.009   9.063   2.148 -1.1433 -0.0534  1.9814
  477MOL0     H62938   3.971   9.341   2.034 -2.8685 -1.4776 -0.3523
  477MOL0     H62939   4.078   9.226   1.951  0.0258  2.5653 -0.1052
  477MOL0     H62940   4.188   9.201   2.182  0.0741 -0.9697 -2.1601
  477MOL0     H62941   4.080   9.317   2.235 -0.8612  2.9893 -0.3452
  477MOL0     H62942   4.273   9.365   1.995 -0.6004 -0.4556  0.4989
  477MOL0     H62943   4.163   9.482   2.085 -2.0883 -0.3438  3.7337
  477MOL0     H62944   4.296   9.457   2.277 -0.1645 -1.2461  0.0197
  477MOL0     H62945   4.386   9.524   2.137 -2.3706  1.0633 -0.6468
  477MOL0     H62946   3.497   8.889   1.686 -2.3919 -1.8670 -1.0255
  477MOL0     H62947   3.334   8.846   1.532  2.0544  0.8971 -0.2896
  477MOL0     H62948   2.793   9.108   1.481  1.5855  0.4898  0.2134
  477MOL0     H62949   2.610   9.026   1.366  0.8356  0.9888  0.1542
  477MOL0     H62950   2.709   7.418   1.084  1.8566  1.8902 -0.3253
  477MOL0     H62951   2.788   7.189   0.953  0.1794  3.3105 -0.8763
  477MOL0     H62952   3.016   6.759   1.126 -0.4330 -1.3835  1.5017
  477MOL0     H62953   3.128   6.565   1.089 -0.9615 -1.1198 -0.6640
  477MOL0     H62954   3.102   6.299   0.804  1.3515  0.6589 -1.1716
  477MOL0     H62955   3.056   6.362   0.963  0.3844  0.5145  0.2724
  477MOL0     H62956   3.205   6.233   1.057  1.7998  1.4956  1.2061
  477MOL0     H62957   3.248   6.165   0.908 -0.9171  0.6587  0.3601
  477MOL0     H62958   3.381   6.378   1.062 -3.1937  0.3550 -0.9820
  477MOL0     H62959   3.416   6.378   0.882 -3.1779  1.8568 -0.9494
  477MOL0     H62960   3.448   6.161   1.103 -0.7863  0.9652  0.1729
  477MOL0     H62961   3.477   6.120   0.926  1.3711  0.8060 -0.7735
  477MOL0     H62962   3.841   6.291   1.071  0.8366 -1.7736 -0.3826
  477MOL0     H62963   3.142   6.667   0.670 -0.4640  2.2386  0.2820
  477MOL0     H62964   3.070   6.894   0.718 -0.6460  0.4236  0.6003
  478MOL0     O62965   1.738   4.770   2.359  0.2417 -0.1540  0.9814
  478MOL0     C62966   1.663   4.701   2.288 -0.0728 -0.8537  0.2048
  478MOL0     O62967   1.703   4.600   2.205 -0.2960 -0.1330  0.1363
  478MOL0     C62968   1.836   4.551   2.209  0.7884  0.2266  0.2511
  478MOL0     C62969   1.861   4.458   2.108  1.2124  0.5232  0.2103
  478MOL0     C62970   1.974   4.381   2.108  1.0547  0.3614 -1.2376
  478MOL0     C62971   2.071   4.396   2.209  0.5074 -0.0483  0.7949
  478MOL0     O62972   2.167   4.304   2.214 -0.2646  0.2433  0.2645
  478MOL0     C62973   2.279   4.359   2.136  0.3560  0.2623 -1.0903
  478MOL0     C62974   2.371   4.436   2.233  0.2456  0.8733 -0.7732
  478MOL0     C62975   2.444   4.347   2.330 -0.1219  0.4252 -0.7281
  478MOL0     C62976   2.585   4.387   2.355 -0.7271  0.5931  0.4232
  478MOL0     C62977   2.643   4.297   2.456 -0.4722 -0.6028 -0.1210
  478MOL0     C62978   2.789   4.353   2.478 -0.5023  0.0507 -0.0109
  478MOL0     C62979   2.867   4.303   2.610  0.4037  0.7106 -0.5032
  478MOL0     C62980   2.821   4.165   2.641  0.0262 -0.0290 -0.2310
  478MOL0     N62981   2.883   4.106   2.763 -0.0825 -0.2276  0.6713
  478MOL0     C62982   2.818   4.072   2.885 -0.3740 -0.5644 -0.3292
  478MOL0     C62983   2.915   4.007   2.954  0.0054  0.5266 -0.1844
  478MOL0     C62984   2.908   3.949   3.096  0.2898  0.7556 -0.6168
  478MOL0     C62985   2.975   3.812   3.111 -0.1290  0.5417 -0.0262
  478MOL0     C62986   2.912   3.738   3.235 -0.4424  0.0570  0.3146
  478MOL0     C62987   2.959   3.595   3.227  0.5693 -0.1010 -0.3784
  478MOL0     O62988   2.910   3.530   3.351 -0.6430  0.3643 -0.1637
  478MOL0     C62989   2.803   3.445   3.355  0.0575  0.6380  0.6562
  478MOL0     C62990   2.760   3.413   3.486  1.7213  0.3597 -0.7886
  478MOL0     C62991   2.649   3.334   3.517  0.6222 -0.3763 -0.4415
  478MOL0     C62992   2.556   3.297   3.418 -0.4191  0.3143 -0.4034
  478MOL0     C62993   2.446   3.222   3.455  0.1737  1.7140  0.2484
  478MOL0     O62994   2.436   3.177   3.584 -0.6325 -0.2790 -0.4318
  478MOL0     C62995   2.354   3.079   3.611 -0.0774  0.5067 -0.6078
  478MOL0     C62996   2.326   2.967   3.532  0.3163  0.0618  0.1545
  478MOL0     C62997   2.248   2.860   3.577  1.0534  0.7812 -0.4931
  478MOL0     C62998   2.186   2.861   3.696 -0.2524 -0.0761 -0.0430
  478MOL0     O62999   2.112   2.750   3.721 -0.2925 -0.5868  0.7892
  478MOL0     C63000   2.007   2.759   3.824 -0.4496 -0.2307 -0.0387
  478MOL0     C63001   1.915   2.634   3.818  0.5040 -0.2654  0.3642
  478MOL0     C63002   1.868   2.601   3.672  0.3644  0.6672  0.1125
  478MOL0     C63003   1.732   2.518   3.683  0.1684 -0.0387  0.7451
  478MOL0     C63004   1.749   2.403   3.581 -1.1967 -0.5225  0.1185
  478MOL0     C63005   1.754   2.451   3.440 -0.2366  0.5065  0.5396
  478MOL0     C63006   1.737   2.325   3.355  0.1496  0.1113  0.2330
  478MOL0     C63007   1.618   2.332   3.259  0.3347 -0.3901 -0.0946
  478MOL0    Cl63008   1.602   2.183   3.158 -0.0264  0.3438  0.1509
  478MOL0     C63009   2.213   2.972   3.780  0.0290  0.3978 -0.0862
  478MOL0     C63010   2.299   3.075   3.736 -0.2300 -1.0114  0.2295
  478MOL0     O63011   2.366   3.195   3.363 -0.0302  0.4263  0.3918
  478MOL0     C63012   2.591   3.333   3.283 -0.0939 -0.3737 -0.9404
  478MOL0     C63013   2.715   3.395   3.248  0.6528 -0.3487 -0.0604
  478MOL0     N63014   3.030   3.992   2.873 -0.0549  0.2219 -0.0084
  478MOL0     N63015   3.007   4.055   2.755 -0.5782  0.6670 -0.8211
  478MOL0     C63016   2.050   4.494   2.309  0.5129 -0.0072  0.4891
  478MOL0     C63017   1.937   4.572   2.304  0.6383 -0.4524 -0.0581
  478MOL0     C63018   1.520   4.732   2.299 -0.1431  0.1292 -0.0848
  478MOL0     C63019   1.469   4.823   2.400 -0.5467  0.0790  0.3113
  478MOL0     C63020   1.329   4.843   2.423  0.1597  0.0583  0.0439
  478MOL0     C63021   1.239   4.777   2.345  0.3296 -0.4472  0.6847
  478MOL0     O63022   1.109   4.810   2.379  0.0318 -1.0431  0.2708
  478MOL0     C63023   1.008   4.756   2.287  0.5787 -0.0521 -0.2991
  478MOL0     C63024   0.870   4.803   2.331 -0.3270 -0.2971 -0.3623
  478MOL0     C63025   0.869   4.949   2.366  0.0905  0.1265 -1.0588
  478MOL0     C63026   0.900   5.050   2.252 -0.1999  0.3064 -0.4292
  478MOL0     C63027   0.830   5.019   2.127  0.4500  0.3596 -0.1109
  478MOL0     C63028   0.774   4.988   2.020  0.7965 -1.0901 -0.1832
  478MOL0     C63029   1.280   4.697   2.231 -1.1682  0.0207 -0.3508
  478MOL0     C63030   1.423   4.665   2.222  0.9254  0.4901  0.2886
  478MOL0     H63031   1.790   4.448   2.026  0.0307 -0.2585  1.2847
  478MOL0     H63032   1.990   4.322   2.018  0.4938 -1.4023 -0.2246
  478MOL0     H63033   2.251   4.431   2.059  0.5728  1.0689 -0.4309
  478MOL0     H63034   2.326   4.274   2.086 -2.1223 -3.2414  1.9188
  478MOL0     H63035   2.329   4.522   2.286 -0.2660 -0.8948  1.8570
  478MOL0     H63036   2.450   4.475   2.168  0.0628 -3.2553 -3.9318
  478MOL0     H63037   2.452   4.243   2.298  0.9425 -0.4374  2.0316
  478MOL0     H63038   2.388   4.356   2.424  0.7046  1.7421 -0.3263
  478MOL0     H63039   2.645   4.383   2.264 -0.8949 -1.9728  0.3466
  478MOL0     H63040   2.597   4.492   2.384 -2.2546  1.3924 -1.5504
  478MOL0     H63041   2.651   4.195   2.419 -3.2329 -0.8382 -0.2084
  478MOL0     H63042   2.578   4.288   2.543 -2.4577  0.1408 -1.4683
  478MOL0     H63043   2.789   4.463   2.474  0.1842  0.0235 -1.5158
  478MOL0     H63044   2.853   4.328   2.393 -0.4893 -0.1064  0.0452
  478MOL0     H63045   2.974   4.310   2.590  0.8155  1.9832  1.7859
  478MOL0     H63046   2.828   4.355   2.698 -1.5501  0.1430 -0.9721
  478MOL0     H63047   2.865   4.109   2.558 -3.4660  1.8831 -3.7144
  478MOL0     H63048   2.713   4.149   2.643  0.0083  0.0403 -0.5426
  478MOL0     H63049   2.716   4.076   2.922 -0.5712  1.1692 -0.9905
  478MOL0     H63050   2.801   3.931   3.106 -0.0614  1.6098 -2.4238
  478MOL0     H63051   2.938   4.021   3.173 -0.2245  0.2800  0.0324
  478MOL0     H63052   3.084   3.822   3.114 -0.3223  3.5459 -0.0355
  478MOL0     H63053   2.951   3.748   3.026  0.4747 -1.3870  1.1938
  478MOL0     H63054   2.951   3.776   3.329 -1.3879 -1.1245  1.2250
  478MOL0     H63055   2.803   3.748   3.236 -0.3911  0.8064  2.3394
  478MOL0     H63056   3.068   3.584   3.225  0.2958 -4.1802 -1.9838
  478MOL0     H63057   2.907   3.560   3.137  1.0223 -0.8942 -0.3452
  478MOL0     H63058   2.822   3.456   3.564 -0.6404 -0.6124  1.7893
  478MOL0     H63059   2.640   3.302   3.620 -0.7316 -2.7692 -1.2195
  478MOL0     H63060   2.364   2.946   3.433  0.0380 -0.1288  0.0839
  478MOL0     H63061   2.234   2.770   3.517  1.8324 -0.1462  0.6712
  478MOL0     H63062   1.954   2.854   3.810  2.5056  1.3447 -1.6124
  478MOL0     H63063   2.046   2.754   3.926  3.9931 -0.5105 -1.5476
  478MOL0     H63064   1.832   2.654   3.887 -1.3589 -1.4701 -1.4256
  478MOL0     H63065   1.971   2.552   3.863 -0.1449 -0.1129  1.4981
  478MOL0     H63066   1.950   2.548   3.623  0.8735 -1.2548  2.7786
  478MOL0     H63067   1.837   2.694   3.624 -0.5975  0.1160 -0.3519
  478MOL0     H63068   1.736   2.475   3.784  1.2516  0.8459  1.0929
  478MOL0     H63069   1.632   2.561   3.673 -0.6684 -1.0069  3.8345
  478MOL0     H63070   1.664   2.335   3.591 -1.2237 -0.5026  0.0337
  478MOL0     H63071   1.829   2.335   3.608 -3.1197 -1.8516  2.9429
  478MOL0     H63072   1.853   2.497   3.429  1.5770 -2.4469  2.8316
  478MOL0     H63073   1.679   2.529   3.424  0.4505  0.6868 -2.2256
  478MOL0     H63074   1.817   2.328   3.281  0.7019  1.8302  0.8543
  478MOL0     H63075   1.727   2.236   3.419 -1.9570  1.2851  1.6638
  478MOL0     H63076   1.634   2.417   3.191  4.4803 -0.6000  0.3723
  478MOL0     H63077   1.528   2.337   3.321  3.2585  0.7433  4.5847
  478MOL0     H63078   2.173   2.971   3.881 -0.8516  1.3057 -0.4150
  478MOL0     H63079   2.327   3.156   3.803 -0.1392 -2.8685  2.5576
  478MOL0     H63080   2.518   3.313   3.206  0.7146  0.0695 -1.8420
  478MOL0     H63081   2.738   3.408   3.143  4.1997 -0.3631  0.5911
  478MOL0     H63082   2.125   4.508   2.386  0.9745  0.5432 -0.0517
  478MOL0     H63083   1.934   4.641   2.388 -0.3156 -3.1391  2.2512
  478MOL0     H63084   1.540   4.879   2.460 -1.4605  3.0218 -1.1627
  478MOL0     H63085   1.292   4.897   2.510  2.9982 -1.4695  2.3828
  478MOL0     H63086   1.012   4.647   2.276  0.7032  0.2197 -5.2728
  478MOL0     H63087   1.024   4.785   2.183 -0.8848  0.1093 -0.4933
  478MOL0     H63088   0.806   4.783   2.244  3.8359  0.5122 -3.9328
  478MOL0     H63089   0.849   4.742   2.420 -0.2116 -1.7277 -1.2826
  478MOL0     H63090   0.942   4.976   2.442 -0.6233  1.5555 -0.8410
  478MOL0     H63091   0.767   4.971   2.400  0.5788  0.7958  0.0186
  478MOL0     H63092   0.887   5.148   2.299  2.3420 -0.1848  1.5628
  478MOL0     H63093   1.009   5.044   2.240 -0.1188 -1.2543  0.6463
  478MOL0     H63094   0.716   4.955   1.936 -0.9869  0.9617  0.1629
  478MOL0     H63095   1.207   4.660   2.160  0.5386  0.3994 -2.3890
  478MOL0     H63096   1.447   4.584   2.154  1.5180  0.8006  0.1289
  479MOL0     O63097   9.150   6.774   3.256  0.3350  0.0634 -0.6438
  479MOL0     C63098   9.030   6.744   3.282 -0.1584  0.6941  0.7670
  479MOL0     O63099   8.915   6.811   3.250  0.4779 -0.7018  0.4036
  479MOL0     C63100   8.934   6.931   3.183 -0.3612  0.6089  0.6351
  479MOL0     C63101   8.884   7.051   3.236  0.1098  0.7204 -0.2110
  479MOL0     C63102   8.906   7.174   3.174 -0.0140  0.1299  0.4870
  479MOL0     C63103   8.971   7.176   3.048  0.2624 -0.7904 -0.3174
  479MOL0     O63104   8.972   7.300   2.980  1.1214  0.4210  0.4979
  479MOL0     C63105   9.013   7.297   2.838  0.4456 -0.2775 -0.4654
  479MOL0     C63106   8.907   7.232   2.746  0.0650 -0.4017  0.1862
  479MOL0     C63107   8.785   7.318   2.743 -0.1026 -0.4600  0.2654
  479MOL0     C63108   8.712   7.278   2.613 -1.2686 -0.6036 -0.3512
  479MOL0     C63109   8.565   7.297   2.617 -0.1937  0.4995 -0.1518
  479MOL0     C63110   8.512   7.442   2.656  0.1783  0.2182  0.6063
  479MOL0     C63111   8.518   7.519   2.528  0.3992  1.3794  0.7479
  479MOL0     C63112   8.483   7.669   2.528 -0.3015  0.9097  0.4251
  479MOL0     N63113   8.376   7.708   2.427  0.1850 -0.4227  0.5937
  479MOL0     C63114   8.239   7.708   2.442  0.3009 -0.0057  1.0365
  479MOL0     C63115   8.193   7.726   2.322 -0.4853 -0.1433  0.3237
  479MOL0     C63116   8.053   7.732   2.295  0.1617 -0.4632  0.4277
  479MOL0     C63117   7.988   7.857   2.352 -0.9419 -0.1904  0.2189
  479MOL0     C63118   7.840   7.845   2.321  0.1759 -0.3318  0.3436
  479MOL0     C63119   7.760   7.747   2.414 -0.4926 -0.9553 -0.1427
  479MOL0     O63120   7.734   7.611   2.365 -0.7403  0.4269  0.0346
  479MOL0     C63121   7.662   7.593   2.249  0.1372 -0.4818 -0.0899
  479MOL0     C63122   7.721   7.582   2.119 -0.1709  1.0778  0.2783
  479MOL0     C63123   7.649   7.536   2.010  0.2789 -0.1102  0.0049
  479MOL0     C63124   7.509   7.511   2.018 -0.6856 -0.2931 -0.1858
  479MOL0     C63125   7.422   7.462   1.907 -1.6646  1.2296 -0.4274
  479MOL0     O63126   7.283   7.447   1.932  0.2326  0.8729 -0.1064
  479MOL0     C63127   7.207   7.420   1.817  0.1544  0.8434 -0.0870
  479MOL0     C63128   7.128   7.304   1.802  0.2575  0.6938  0.5580
  479MOL0     C63129   7.063   7.272   1.686  0.6373 -0.2650  0.5008
  479MOL0     C63130   7.070   7.356   1.569 -0.4276  0.0880 -0.7309
  479MOL0     O63131   7.007   7.304   1.458  0.0016 -1.0542 -0.0267
  479MOL0     C63132   7.004   7.405   1.355  0.1443 -0.5032  0.8801
  479MOL0     C63133   6.923   7.334   1.246 -1.3196 -0.9208  0.4934
  479MOL0     C63134   6.772   7.340   1.269 -0.8736  0.1398 -0.2242
  479MOL0     C63135   6.696   7.242   1.173  0.1780  0.1405 -0.6143
  479MOL0     C63136   6.542   7.247   1.176  0.0733  0.4163 -1.0272
  479MOL0     C63137   6.471   7.262   1.312 -0.8213  0.1107  0.0492
  479MOL0     C63138   6.323   7.241   1.307 -0.4788  0.0824 -0.6623
  479MOL0     C63139   6.273   7.107   1.247 -0.2334 -0.3871  0.5089
  479MOL0    Cl63140   6.105   7.093   1.308  0.2032  0.2322 -0.0223
  479MOL0     C63141   7.144   7.478   1.584 -0.1690 -1.1199  0.7360
  479MOL0     C63142   7.210   7.505   1.706  0.5970 -0.8952 -0.1587
  479MOL0     O63143   7.468   7.435   1.796 -0.1842 -0.2253  1.4370
  479MOL0     C63144   7.455   7.517   2.142  0.8113  0.4936 -0.0829
  479MOL0     C63145   7.521   7.564   2.252  0.4120 -0.0112  0.3293
  479MOL0     N63146   8.297   7.763   2.242 -0.0332 -0.0858  0.2651
  479MOL0     N63147   8.413   7.740   2.300  0.2571  0.1247  0.5703
  479MOL0     C63148   9.030   7.052   2.999 -0.0551  0.1712  0.1134
  479MOL0     C63149   9.010   6.932   3.063 -0.6686  0.2625 -0.4052
  479MOL0     C63150   9.011   6.617   3.364 -0.2231 -0.5377 -1.1606
  479MOL0     C63151   8.877   6.572   3.376  0.9140  0.2417 -0.3217
  479MOL0     C63152   8.845   6.464   3.449  0.5304 -0.2678 -0.0219
  479MOL0     C63153   8.947   6.400   3.516  0.1366 -0.2729  0.3258
  479MOL0     O63154   8.937   6.289   3.599  0.7265  0.0475  0.2484
  479MOL0     C63155   8.850   6.306   3.710 -0.3445  0.5964  0.0927
  479MOL0     C63156   8.857   6.183   3.810 -0.5392 -0.8606 -0.6764
  479MOL0     C63157   8.991   6.112   3.807 -0.0943 -0.6726 -0.4958
  479MOL0     C63158   8.997   6.014   3.934  0.2069  0.2164  0.2087
  479MOL0     C63159   8.911   5.901   3.900  0.8372  0.5448 -0.2509
  479MOL0     C63160   8.842   5.802   3.875  0.6864  0.3873  0.7690
  479MOL0     C63161   9.083   6.442   3.492 -1.4942 -0.2403  0.2074
  479MOL0     C63162   9.120   6.558   3.425 -0.4259  0.2464 -0.7058
  479MOL0     H63163   8.826   7.064   3.327  0.4418  2.0127 -0.1682
  479MOL0     H63164   8.851   7.255   3.220 -0.3229 -0.5483  1.3471
  479MOL0     H63165   9.107   7.242   2.843 -0.4432 -1.7927  3.3870
  479MOL0     H63166   9.032   7.399   2.805 -0.7892 -0.0528 -0.5247
  479MOL0     H63167   8.879   7.131   2.779 -0.0805 -0.7042 -0.8228
  479MOL0     H63168   8.941   7.230   2.642  1.3737 -1.0875  0.6102
  479MOL0     H63169   8.795   7.427   2.742 -0.9730 -0.3723 -0.2944
  479MOL0     H63170   8.721   7.292   2.828  0.1619 -3.1536 -0.2885
  479MOL0     H63171   8.753   7.326   2.524  0.3061 -1.7922 -0.3092
  479MOL0     H63172   8.718   7.169   2.604  0.0254 -0.5099 -0.8085
  479MOL0     H63173   8.516   7.238   2.695 -2.0822  1.3907 -0.5786
  479MOL0     H63174   8.521   7.260   2.524  2.9928 -2.9390 -0.5284
  479MOL0     H63175   8.571   7.483   2.738  1.4048 -1.8492  0.8296
  479MOL0     H63176   8.409   7.430   2.690 -0.0855  2.0967  0.5991
  479MOL0     H63177   8.623   7.529   2.498  0.0968 -0.6621 -1.3253
  479MOL0     H63178   8.465   7.476   2.442  0.2778  2.6387  0.1764
  479MOL0     H63179   8.574   7.722   2.498  0.2506  0.7423  1.7299
  479MOL0     H63180   8.441   7.690   2.627 -0.1213 -1.4697  1.0607
  479MOL0     H63181   8.184   7.686   2.533 -1.4259  1.2478  0.3722
  479MOL0     H63182   8.016   7.639   2.338  1.3126 -0.6347  1.1034
  479MOL0     H63183   8.035   7.725   2.188 -1.2000 -0.8099  0.6618
  479MOL0     H63184   8.037   7.937   2.297  0.5374 -0.6778  0.7792
  479MOL0     H63185   8.010   7.867   2.459  1.0243  0.1755 -0.1945
  479MOL0     H63186   7.790   7.940   2.341 -0.3172 -0.5999  0.4114
  479MOL0     H63187   7.834   7.822   2.214 -1.1085 -0.9236  0.5194
  479MOL0     H63188   7.661   7.786   2.440 -0.2310  2.6361 -3.5950
  479MOL0     H63189   7.817   7.737   2.507 -0.4123 -0.8866 -0.1843
  479MOL0     H63190   7.826   7.593   2.098  0.6231 -1.4566  2.3857
  479MOL0     H63191   7.680   7.511   1.909  0.1232  1.5335 -0.4910
  479MOL0     H63192   7.132   7.231   1.882  0.7624  0.5577  0.4133
  479MOL0     H63193   7.006   7.180   1.673  1.4194 -0.3261 -4.5770
  479MOL0     H63194   7.102   7.440   1.323 -0.2878  1.4006  1.5433
  479MOL0     H63195   6.941   7.489   1.384 -2.4339 -2.6304  1.9127
  479MOL0     H63196   6.965   7.233   1.247  0.1872 -0.3234  0.0811
  479MOL0     H63197   6.944   7.377   1.148 -2.6979  1.5761  1.2162
  479MOL0     H63198   6.726   7.439   1.258 -0.1671  0.5045  0.0607
  479MOL0     H63199   6.743   7.315   1.372 -1.0994 -3.7929 -1.0801
  479MOL0     H63200   6.720   7.259   1.068 -3.0826  5.5660 -0.8877
  479MOL0     H63201   6.722   7.141   1.205 -0.0845  0.4346  0.6038
  479MOL0     H63202   6.491   7.173   1.115 -0.7288  1.6107 -1.8575
  479MOL0     H63203   6.511   7.347   1.144 -3.5017  0.3971  1.7351
  479MOL0     H63204   6.483   7.363   1.351 -1.1530  1.1554 -2.3534
  479MOL0     H63205   6.520   7.190   1.378  1.4457  1.0902 -0.4818
  479MOL0     H63206   6.285   7.239   1.410 -1.9618 -3.0330 -1.1475
  479MOL0     H63207   6.273   7.325   1.257 -2.4203  0.6906  2.0127
  479MOL0     H63208   6.344   7.027   1.272 -2.2385 -2.4446 -0.0089
  479MOL0     H63209   6.274   7.118   1.138 -2.2546  3.4310  0.6931
  479MOL0     H63210   7.158   7.554   1.508  1.7532 -2.6445 -0.5416
  479MOL0     H63211   7.263   7.598   1.723  0.0575 -0.8961  1.7511
  479MOL0     H63212   7.349   7.499   2.151  0.9902 -0.6552 -0.0032
  479MOL0     H63213   7.468   7.572   2.347 -2.0446 -0.5823 -0.9112
  479MOL0     H63214   9.102   7.051   2.918  0.9953 -1.1229  1.0039
  479MOL0     H63215   9.051   6.839   3.025  1.7472 -0.2908  3.0629
  479MOL0     H63216   8.815   6.616   3.299  3.1859 -1.0034 -3.0639
  479MOL0     H63217   8.740   6.438   3.460  0.5089 -0.4011 -0.4977
  479MOL0     H63218   8.753   6.351   3.685 -0.8117  0.7497  2.0536
  479MOL0     H63219   8.881   6.398   3.760 -2.3449  0.3054  1.9786
  479MOL0     H63220   8.841   6.221   3.911 -3.3090 -2.9196 -0.2256
  479MOL0     H63221   8.768   6.123   3.793 -1.2181 -0.5098  1.3516
  479MOL0     H63222   9.075   6.182   3.803  1.8947 -2.8594  0.5692
  479MOL0     H63223   9.001   6.055   3.714  3.8044 -1.2748  0.1150
  479MOL0     H63224   9.100   5.980   3.929 -0.2150 -1.1447  0.4687
  479MOL0     H63225   8.983   6.069   4.028  1.5509 -0.3171  0.7376
  479MOL0     H63226   8.808   5.709   3.834  1.2414  0.7086 -0.4932
  479MOL0     H63227   9.166   6.395   3.543  0.1896  1.3184 -0.9846
  479MOL0     H63228   9.216   6.608   3.424 -0.0465 -0.3567  1.0572
  480MOL0     O63229   2.508   2.363   4.601  0.1340 -0.5759  1.1841
  480MOL0     C63230   2.423   2.443   4.549 -0.4092 -0.0529  0.0238
  480MOL0     O63231   2.442   2.565   4.502  0.4598 -0.7336  0.8879
  480MOL0     C63232   2.563   2.583   4.437 -0.2694 -0.4411 -0.7374
  480MOL0     C63233   2.653   2.673   4.492  0.6415 -0.7430 -0.7393
  480MOL0     C63234   2.772   2.705   4.426  0.2626 -0.5849  0.1656
  480MOL0     C63235   2.801   2.629   4.305 -0.6519 -0.2143  0.4437
  480MOL0     O63236   2.938   2.619   4.261  0.8563 -1.4337 -0.6218
  480MOL0     C63237   3.041   2.588   4.359  0.5051  0.4819  0.9444
  480MOL0     C63238   3.109   2.709   4.440  0.0215  0.6992  0.7401
  480MOL0     C63239   3.181   2.809   4.344  0.6876  0.3135 -0.5138
  480MOL0     C63240   3.305   2.749   4.288  0.5836  0.4915  0.5233
  480MOL0     C63241   3.401   2.861   4.257  0.9684 -0.8352  0.3760
  480MOL0     C63242   3.368   2.946   4.133 -1.0261  0.1061  0.3657
  480MOL0     C63243   3.487   3.028   4.083  0.5713 -0.0824 -0.0180
  480MOL0     C63244   3.467   3.131   3.972  1.0658  0.2166  0.2641
  480MOL0     N63245   3.597   3.175   3.923  0.0731  0.1810 -0.2563
  480MOL0     C63246   3.663   3.299   3.961 -0.3300  0.7567  0.4516
  480MOL0     C63247   3.774   3.299   3.892  1.3860  0.4389 -1.3522
  480MOL0     C63248   3.874   3.409   3.888  0.0088 -0.7122  0.0196
  480MOL0     C63249   3.796   3.546   3.853 -0.1273  0.4910  0.1047
  480MOL0     C63250   3.705   3.549   3.734 -0.7915  0.8072  1.0293
  480MOL0     C63251   3.740   3.656   3.630  0.2595  1.2311 -0.7475
  480MOL0     O63252   3.718   3.775   3.707  0.6653 -0.4170 -0.6835
  480MOL0     C63253   3.714   3.905   3.649 -0.4551  1.1925  0.2553
  480MOL0     C63254   3.691   4.025   3.725  0.1429 -0.7436  0.8395
  480MOL0     C63255   3.687   4.147   3.657 -0.4912 -0.2946 -0.1431
  480MOL0     C63256   3.719   4.154   3.523  0.7365  0.8096  0.6397
  480MOL0     C63257   3.713   4.283   3.446 -0.1217  0.1073  0.0244
  480MOL0     O63258   3.736   4.281   3.310 -0.6548  0.1245  0.1169
  480MOL0     C63259   3.720   4.397   3.246  0.3593  0.3219  0.4763
  480MOL0     C63260   3.595   4.417   3.190  0.5699 -0.5542  0.4785
  480MOL0     C63261   3.571   4.529   3.103 -0.1749  0.4194  0.4135
  480MOL0     C63262   3.657   4.641   3.113  0.6188  0.6616  0.7165
  480MOL0     O63263   3.627   4.762   3.063  0.9916  0.2087 -0.5869
  480MOL0     C63264   3.491   4.796   3.050 -0.2427  0.0085 -0.2690
  480MOL0     C63265   3.473   4.943   3.006 -0.3554 -0.3529  0.2258
  480MOL0     C63266   3.525   5.035   3.124 -0.4694  0.4703 -0.0997
  480MOL0     C63267   3.517   5.180   3.088 -0.0181  0.2685  0.2411
  480MOL0     C63268   3.523   5.272   3.213 -0.6707 -0.0459 -0.9874
  480MOL0     C63269   3.662   5.266   3.278 -0.2723  0.5730  0.0159
  480MOL0     C63270   3.701   5.382   3.378  0.1027  0.5829 -0.9247
  480MOL0     C63271   3.811   5.331   3.480 -1.2604 -0.2920  0.0432
  480MOL0    Cl63272   3.852   5.490   3.566  0.3564 -0.0282 -0.1123
  480MOL0     C63273   3.783   4.610   3.163 -0.4898 -0.4032 -0.4617
  480MOL0     C63274   3.814   4.494   3.225  0.2572  0.0063  0.7292
  480MOL0     O63275   3.692   4.386   3.512  0.1019 -0.1306 -0.3508
  480MOL0     C63276   3.738   4.043   3.447  0.5892  0.3337  0.9060
  480MOL0     C63277   3.743   3.920   3.513  0.5055  0.2587  0.2537
  480MOL0     N63278   3.782   3.175   3.819 -0.0599 -0.2803  0.6835
  480MOL0     N63279   3.670   3.104   3.833 -0.8470 -0.0458  0.8276
  480MOL0     C63280   2.712   2.544   4.257  0.1862  0.2883  0.2487
  480MOL0     C63281   2.588   2.522   4.317 -0.6994  1.0090 -0.3070
  480MOL0     C63282   2.281   2.400   4.565  0.5787  0.5235  0.3438
  480MOL0     C63283   2.245   2.262   4.611  0.5394 -0.0696  0.5619
  480MOL0     C63284   2.112   2.217   4.611 -1.0305 -0.8616 -0.3205
  480MOL0     C63285   2.017   2.311   4.555  0.4577 -0.3101  1.3867
  480MOL0     O63286   1.884   2.298   4.573  0.6399 -0.3480 -0.3317
  480MOL0     C63287   1.846   2.175   4.633 -0.3412  0.2309  0.2117
  480MOL0     C63288   1.699   2.181   4.680  0.6623 -0.5079 -0.2634
  480MOL0     C63289   1.594   2.193   4.560  0.7069 -0.0777 -0.9950
  480MOL0     C63290   1.450   2.180   4.611 -0.5151 -0.0224  0.8851
  480MOL0     C63291   1.414   2.272   4.715  0.6402 -0.7031 -0.8778
  480MOL0     C63292   1.376   2.347   4.800  0.2451 -0.5908  0.6726
  480MOL0     C63293   2.053   2.431   4.493  0.3283 -0.1800  0.0645
  480MOL0     C63294   2.185   2.476   4.504  0.6886  0.7916 -0.2393
  480MOL0     H63295   2.623   2.722   4.584  4.7244  0.1498  0.3134
  480MOL0     H63296   2.834   2.782   4.470 -0.1853 -1.8181  3.2038
  480MOL0     H63297   3.120   2.529   4.311  0.5396 -0.1798  1.8012
  480MOL0     H63298   2.997   2.525   4.436  2.6336  1.2291  2.9063
  480MOL0     H63299   3.176   2.666   4.515  0.4136  1.2573  0.7121
  480MOL0     H63300   3.027   2.754   4.497 -0.5223 -1.4008  1.6859
  480MOL0     H63301   3.199   2.899   4.403  2.9614 -0.3673 -0.0943
  480MOL0     H63302   3.102   2.831   4.271 -2.5978 -1.3286  2.2646
  480MOL0     H63303   3.339   2.674   4.360  2.5604 -0.9974 -1.8021
  480MOL0     H63304   3.285   2.698   4.193  0.4208 -0.7639  1.2058
  480MOL0     H63305   3.498   2.822   4.225  1.2639  1.6683 -2.1698
  480MOL0     H63306   3.414   2.908   4.355  0.5626 -1.8719  0.9455
  480MOL0     H63307   3.304   3.021   4.180  2.5674  4.7834 -1.3845
  480MOL0     H63308   3.315   2.898   4.050 -0.2367 -1.6435  0.8197
  480MOL0     H63309   3.530   3.086   4.165 -0.5085  4.5887 -2.3682
  480MOL0     H63310   3.551   2.945   4.051  0.0184 -0.3969 -0.3237
  480MOL0     H63311   3.404   3.212   4.008 -1.4362 -0.8399 -1.4939
  480MOL0     H63312   3.401   3.085   3.898  0.9946  0.0014  0.4593
  480MOL0     H63313   3.613   3.380   4.013 -2.5147  0.7070 -1.4181
  480MOL0     H63314   3.945   3.388   3.807  0.5507  0.7339  0.0870
  480MOL0     H63315   3.924   3.425   3.983  0.2949 -2.4111  0.1758
  480MOL0     H63316   3.875   3.621   3.842 -1.2057  1.9527  1.8024
  480MOL0     H63317   3.732   3.584   3.933  1.3142 -0.1017  1.5953
  480MOL0     H63318   3.718   3.458   3.674  1.3994  1.0713  0.9989
  480MOL0     H63319   3.603   3.559   3.772 -1.4855  0.2782 -0.6098
  480MOL0     H63320   3.664   3.643   3.553 -0.7088  1.0895  0.2001
  480MOL0     H63321   3.843   3.642   3.598  0.5563  3.2832 -0.8202
  480MOL0     H63322   3.655   4.021   3.827 -1.1387  3.9293  0.7836
  480MOL0     H63323   3.640   4.226   3.715 -1.6799 -0.2033 -1.1850
  480MOL0     H63324   3.540   4.327   3.165  2.6030 -1.0082 -3.0410
  480MOL0     H63325   3.469   4.541   3.067  0.1014 -1.5232 -1.1864
  480MOL0     H63326   3.433   4.775   3.141 -0.5784 -2.3742 -0.9646
  480MOL0     H63327   3.443   4.744   2.966  1.0508  1.2028 -1.8212
  480MOL0     H63328   3.368   4.969   2.992 -0.2824  0.8743  1.6298
  480MOL0     H63329   3.539   4.971   2.924 -0.2263  3.6409  1.4693
  480MOL0     H63330   3.627   5.009   3.155 -1.2085 -0.0634  2.0176
  480MOL0     H63331   3.470   5.004   3.213  0.9456  0.4546  0.7979
  480MOL0     H63332   3.599   5.216   3.024 -1.2135  3.9693  0.5463
  480MOL0     H63333   3.425   5.207   3.036 -1.4154  2.6231  3.6004
  480MOL0     H63334   3.442   5.253   3.284  0.2154 -1.8115 -0.3846
  480MOL0     H63335   3.506   5.376   3.184  3.5891 -0.1387 -5.0548
  480MOL0     H63336   3.748   5.250   3.212 -1.6058 -2.5592 -1.1277
  480MOL0     H63337   3.643   5.181   3.344 -2.6731  0.8583 -0.2335
  480MOL0     H63338   3.742   5.463   3.317  0.1512 -0.4702 -2.3423
  480MOL0     H63339   3.616   5.413   3.439  0.9263 -0.9918  1.1713
  480MOL0     H63340   3.898   5.299   3.422 -1.0065 -1.6567  1.1448
  480MOL0     H63341   3.794   5.240   3.537  4.2290 -1.5940  0.1855
  480MOL0     H63342   3.846   4.697   3.151  0.2220 -0.9466 -0.7372
  480MOL0     H63343   3.916   4.472   3.254  0.0619 -3.7904 -0.8715
  480MOL0     H63344   3.750   4.036   3.339  2.5504 -2.0874  1.2214
  480MOL0     H63345   3.762   3.827   3.461  0.5309  1.3014 -1.7045
  480MOL0     H63346   2.741   2.502   4.162 -1.2925 -0.7764  0.2290
  480MOL0     H63347   2.509   2.458   4.278 -0.3615 -1.0976  2.2032
  480MOL0     H63348   2.322   2.192   4.644  2.4408  1.3842 -0.5618
  480MOL0     H63349   2.094   2.118   4.654  0.5528 -2.0757 -2.2679
  480MOL0     H63350   1.893   2.160   4.731  1.7792  1.2645 -0.6086
  480MOL0     H63351   1.858   2.097   4.557  0.8389  2.1152 -1.6106
  480MOL0     H63352   1.671   2.091   4.735  0.9805 -0.9365 -0.7874
  480MOL0     H63353   1.674   2.256   4.756 -3.6196 -2.2178  0.2848
  480MOL0     H63354   1.621   2.111   4.494  3.6642  1.8038 -2.3417
  480MOL0     H63355   1.608   2.291   4.513 -0.8826 -0.5275 -2.5143
  480MOL0     H63356   1.385   2.185   4.524  1.7405 -0.2208 -0.9158
  480MOL0     H63357   1.442   2.073   4.636  0.7931 -0.7430 -1.4828
  480MOL0     H63358   1.336   2.409   4.878 -0.3127 -1.5017  1.1322
  480MOL0     H63359   1.977   2.498   4.453 -2.1104 -1.5276  2.1896
  480MOL0     H63360   2.220   2.565   4.453 -1.5966  0.0420 -3.3864
  481MOL0     O63361   8.916   3.127   9.094 -0.6442 -0.1867  0.9426
  481MOL0     C63362   8.900   3.195   8.992 -0.3560 -0.0101  0.2055
  481MOL0     O63363   8.793   3.285   8.964  0.5613 -0.0746 -0.7450
  481MOL0     C63364   8.706   3.308   9.069 -0.7440 -0.5663  0.8205
  481MOL0     C63365   8.582   3.236   9.097  0.8233 -0.5355  0.1665
  481MOL0     C63366   8.485   3.290   9.186  0.3596  0.7123 -0.4844
  481MOL0     C63367   8.509   3.408   9.257 -0.2124 -0.5631  0.2622
  481MOL0     O63368   8.424   3.469   9.347  0.3835  0.1803  0.1988
  481MOL0     C63369   8.290   3.471   9.301  0.0047 -0.0406 -0.6819
  481MOL0     C63370   8.207   3.358   9.373 -0.4584 -0.8538 -0.3038
  481MOL0     C63371   8.069   3.410   9.400 -0.9817  0.1814  0.1960
  481MOL0     C63372   7.994   3.296   9.475 -0.0016  0.7145  0.0612
  481MOL0     C63373   7.865   3.332   9.547  0.7555  0.3002  0.4675
  481MOL0     C63374   7.776   3.403   9.439 -0.4221 -0.0788  0.9773
  481MOL0     C63375   7.636   3.452   9.510  0.3395 -0.5001 -0.9235
  481MOL0     C63376   7.555   3.537   9.413 -0.1318  0.2636  0.3084
  481MOL0     N63377   7.449   3.613   9.481  0.6652 -0.0067  0.4164
  481MOL0     C63378   7.378   3.717   9.420 -0.2276 -0.2749 -0.9416
  481MOL0     C63379   7.273   3.739   9.505 -0.3324 -0.4015 -0.5851
  481MOL0     C63380   7.165   3.834   9.479  0.6600  0.0840 -0.4173
  481MOL0     C63381   7.204   3.972   9.521 -0.7069 -0.1404  0.1386
  481MOL0     C63382   7.090   4.077   9.487 -0.1390  0.9683  1.1663
  481MOL0     C63383   7.135   4.220   9.446  0.2189  0.1656  0.1648
  481MOL0     O63384   7.033   4.315   9.408  0.2934 -0.3458  0.4596
  481MOL0     C63385   7.051   4.423   9.323 -0.3608 -0.7784  0.1228
  481MOL0     C63386   7.170   4.460   9.255  1.1601  0.3873  0.0822
  481MOL0     C63387   7.179   4.581   9.197  0.5036 -0.4716  1.0437
  481MOL0     C63388   7.084   4.676   9.211  0.1348 -0.7258 -0.7307
  481MOL0     C63389   7.111   4.811   9.146 -0.5768 -0.6831 -0.7950
  481MOL0     O63390   7.214   4.838   9.062  0.3946 -0.1558 -0.3596
  481MOL0     C63391   7.249   4.961   9.017 -0.3160  0.5199 -0.9523
  481MOL0     C63392   7.277   4.993   8.887  0.7100  0.0977  0.6729
  481MOL0     C63393   7.306   5.115   8.839  0.0010 -0.6794  0.1738
  481MOL0     C63394   7.299   5.228   8.917  0.6509 -0.6647 -1.0311
  481MOL0     O63395   7.322   5.358   8.862 -0.2408 -0.3643  1.1302
  481MOL0     C63396   7.310   5.482   8.937  0.3169 -0.0450 -0.1567
  481MOL0     C63397   7.172   5.533   8.949 -0.4714  0.2099 -0.1193
  481MOL0     C63398   7.154   5.661   9.030  1.1962  0.3570 -0.7301
  481MOL0     C63399   7.169   5.794   8.950 -0.2250  0.6054  0.5458
  481MOL0     C63400   7.252   5.813   8.824 -0.1733 -0.0359 -0.4615
  481MOL0     C63401   7.403   5.849   8.853 -0.4127 -1.3154 -0.3451
  481MOL0     C63402   7.513   5.857   8.733  0.5355 -0.4784  0.1495
  481MOL0     C63403   7.640   5.802   8.774 -0.1715 -0.9479  0.1969
  481MOL0    Cl63404   7.738   5.914   8.877 -0.0564  0.5214 -0.0763
  481MOL0     C63405   7.280   5.198   9.058  0.4096  0.0618  0.0599
  481MOL0     C63406   7.249   5.074   9.106 -0.2621 -0.3435 -0.2323
  481MOL0     O63407   7.025   4.888   9.171 -0.3214 -0.6727  0.0281
  481MOL0     C63408   6.967   4.647   9.281 -0.0240  0.0680 -0.4901
  481MOL0     C63409   6.955   4.518   9.335 -1.1167  0.2555 -0.5759
  481MOL0     N63410   7.286   3.655   9.616  0.9708 -0.4521  0.0934
  481MOL0     N63411   7.395   3.593   9.606 -0.0373 -0.1469  0.3401
  481MOL0     C63412   8.636   3.472   9.244  0.0049  0.9715 -1.1350
  481MOL0     C63413   8.735   3.423   9.149 -0.4441  0.8322 -0.6529
  481MOL0     C63414   9.003   3.199   8.892 -0.8975  0.3529 -0.0874
  481MOL0     C63415   9.128   3.132   8.915 -0.8149 -0.4454 -0.0930
  481MOL0     C63416   9.228   3.134   8.826  0.1929  0.6343 -0.3078
  481MOL0     C63417   9.204   3.193   8.703  0.1115 -0.2201 -0.5379
  481MOL0     O63418   9.298   3.177   8.613  0.5648 -0.1584  0.5213
  481MOL0     C63419   9.249   3.104   8.495 -0.1361 -0.9625 -0.2320
  481MOL0     C63420   9.375   3.047   8.437  0.0914  0.2967 -0.0960
  481MOL0     C63421   9.412   2.914   8.517 -0.4532 -0.1188  0.6152
  481MOL0     C63422   9.555   2.874   8.497  0.1093 -0.1410 -1.1568
  481MOL0     C63423   9.576   2.822   8.363 -0.6528  0.2497 -0.3108
  481MOL0     C63424   9.587   2.773   8.254  0.1130  0.7615  0.7859
  481MOL0     C63425   9.083   3.257   8.672  1.4112  1.3416 -0.9775
  481MOL0     C63426   8.984   3.258   8.766  1.3831  0.1686  0.7047
  481MOL0     H63427   8.572   3.136   9.058 -0.3143 -0.6271  0.6616
  481MOL0     H63428   8.398   3.227   9.202  1.1365 -0.5707 -1.0444
  481MOL0     H63429   8.284   3.471   9.192  0.0340  0.3898 -0.6822
  481MOL0     H63430   8.248   3.567   9.330 -1.6128 -0.3381 -1.9040
  481MOL0     H63431   8.253   3.341   9.471  1.3998  0.6758 -0.8562
  481MOL0     H63432   8.192   3.260   9.326 -0.0321 -1.6075  1.0941
  481MOL0     H63433   8.018   3.443   9.309  3.1340  3.3433 -1.2419
  481MOL0     H63434   8.085   3.499   9.460  0.7023  1.3265 -1.8323
  481MOL0     H63435   7.967   3.209   9.414 -0.3350  0.1519  0.9900
  481MOL0     H63436   8.061   3.264   9.556  1.6674 -1.9411 -2.1924
  481MOL0     H63437   7.887   3.400   9.630  0.5132  0.0120  0.7749
  481MOL0     H63438   7.826   3.236   9.582 -0.7125  1.0630  1.0256
  481MOL0     H63439   7.763   3.338   9.352  0.7881  0.8556  0.0560
  481MOL0     H63440   7.821   3.493   9.397  2.0182 -0.1505  3.2195
  481MOL0     H63441   7.571   3.375   9.551 -1.9923  1.2395 -1.1639
  481MOL0     H63442   7.663   3.511   9.598  0.2983 -0.5941 -0.8480
  481MOL0     H63443   7.509   3.465   9.345 -1.6532 -0.2919  1.8323
  481MOL0     H63444   7.620   3.605   9.357  2.0531 -1.8217  0.1929
  481MOL0     H63445   7.418   3.762   9.330  4.5371  0.1958  1.1359
  481MOL0     H63446   7.082   3.800   9.542  1.2913  1.3738  1.2029
  481MOL0     H63447   7.150   3.834   9.371 -2.3515  2.0897 -0.1081
  481MOL0     H63448   7.292   4.005   9.465  1.3188  0.9168  3.5887
  481MOL0     H63449   7.239   3.981   9.624  0.6218  1.6301 -0.4080
  481MOL0     H63450   7.030   4.041   9.403 -0.5443  0.3659  1.6982
  481MOL0     H63451   7.017   4.078   9.569 -2.8331 -0.6545 -1.0100
  481MOL0     H63452   7.192   4.209   9.354  1.3574 -0.6492  0.9281
  481MOL0     H63453   7.198   4.273   9.518  2.5685  0.6816 -2.1477
  481MOL0     H63454   7.248   4.384   9.246 -1.7227 -2.7526 -0.6935
  481MOL0     H63455   7.263   4.605   9.133  0.6590 -0.1218  1.3767
  481MOL0     H63456   7.275   4.909   8.818  0.2520 -1.5359  2.5776
  481MOL0     H63457   7.323   5.124   8.732 -0.3879  0.8411  0.2079
  481MOL0     H63458   7.364   5.559   8.880  1.3824  0.4423  1.4441
  481MOL0     H63459   7.365   5.479   9.031 -1.9348 -2.8533  1.2320
  481MOL0     H63460   7.105   5.465   9.004 -0.3150  0.5749  0.5359
  481MOL0     H63461   7.127   5.544   8.850  1.7199  1.4095 -1.0493
  481MOL0     H63462   7.217   5.652   9.119 -0.7704 -2.4541  0.5260
  481MOL0     H63463   7.054   5.664   9.076  0.9695  0.1066 -1.1998
  481MOL0     H63464   7.067   5.807   8.913  0.4793  3.0581 -0.7605
  481MOL0     H63465   7.201   5.878   9.012  0.4630  1.6126 -1.1122
  481MOL0     H63466   7.210   5.892   8.760  3.9092  1.9587 -1.0400
  481MOL0     H63467   7.251   5.720   8.767 -0.4458 -0.7954  0.7590
  481MOL0     H63468   7.434   5.779   8.932  0.7772  0.0675  0.4622
  481MOL0     H63469   7.416   5.947   8.898  1.3019 -2.0161  0.8056
  481MOL0     H63470   7.479   5.795   8.650  2.9756 -0.1811 -1.1449
  481MOL0     H63471   7.532   5.961   8.704  2.9536 -1.0282 -0.3992
  481MOL0     H63472   7.697   5.779   8.683  4.0993  2.7492  1.5232
  481MOL0     H63473   7.620   5.712   8.832 -2.0438  1.1089  2.9658
  481MOL0     H63474   7.293   5.280   9.128  0.3027 -1.6206  2.1412
  481MOL0     H63475   7.227   5.045   9.208 -3.3636 -1.1197 -1.0078
  481MOL0     H63476   6.892   4.725   9.288  1.3377  1.4547 -0.7955
  481MOL0     H63477   6.866   4.500   9.393  0.0225 -1.2194  0.8096
  481MOL0     H63478   8.650   3.556   9.312  1.7628  1.0311 -1.5162
  481MOL0     H63479   8.821   3.488   9.132 -2.0993  2.7147 -2.3957
  481MOL0     H63480   9.143   3.071   9.004  1.1423 -1.9330 -1.3671
  481MOL0     H63481   9.330   3.103   8.850  0.1644 -1.2600 -2.3408
  481MOL0     H63482   9.198   3.167   8.422  1.0779  3.2441  2.2126
  481MOL0     H63483   9.179   3.022   8.515  0.6895 -1.8056 -0.6845
  481MOL0     H63484   9.347   3.010   8.338 -2.9458 -1.2768  1.2161
  481MOL0     H63485   9.456   3.120   8.426  0.4611 -0.2513 -1.1257
  481MOL0     H63486   9.352   2.824   8.502  2.5141 -2.1593 -0.0600
  481MOL0     H63487   9.422   2.927   8.625 -1.9596  0.8722  0.6573
  481MOL0     H63488   9.629   2.954   8.507  0.3900 -0.4683 -0.5145
  481MOL0     H63489   9.581   2.799   8.573  0.3100  0.3019 -0.7859
  481MOL0     H63490   9.598   2.728   8.158 -3.2603  2.3084 -0.4836
  481MOL0     H63491   9.079   3.297   8.571  1.9690  0.3836 -1.3903
  481MOL0     H63492   8.895   3.311   8.734  0.4899  0.4402  3.3585
  482MOL0     O63493   5.845   9.436   8.750 -0.0547 -0.0240 -0.1217
  482MOL0     C63494   5.882   9.489   8.647 -0.6416 -0.7278  0.0610
  482MOL0     O63495   5.837   9.459   8.526 -0.5195  0.3524  0.2141
  482MOL0     C63496   5.761   9.352   8.482 -0.5244  0.5346  1.2514
  482MOL0     C63497   5.731   9.346   8.346 -0.5674 -0.0507 -0.4223
  482MOL0     C63498   5.644   9.249   8.291 -0.6135  0.6923 -0.6473
  482MOL0     C63499   5.610   9.137   8.363  0.8755  0.3644  0.3659
  482MOL0     O63500   5.519   9.050   8.310 -0.2783  0.2553  0.4425
  482MOL0     C63501   5.396   9.114   8.273  0.2321  0.4508  0.0618
  482MOL0     C63502   5.287   9.007   8.315 -0.3264  0.2758  0.2325
  482MOL0     C63503   5.145   9.062   8.287  0.2923  0.1077 -0.2122
  482MOL0     C63504   5.036   8.944   8.311 -0.3213  0.7013  0.2408
  482MOL0     C63505   4.940   8.925   8.191 -0.5590  0.6308  0.0564
  482MOL0     C63506   5.024   8.871   8.073  0.1447 -0.6660 -0.4014
  482MOL0     C63507   5.064   8.724   8.076  0.5910  0.6027  0.4705
  482MOL0     C63508   4.937   8.637   8.083  0.0978  0.7656  1.4958
  482MOL0     N63509   4.954   8.501   8.015  0.3137 -0.7045  0.5636
  482MOL0     C63510   5.019   8.399   8.082 -0.8201 -0.2034  0.4582
  482MOL0     C63511   5.023   8.301   7.991  0.6367 -0.0444  0.7567
  482MOL0     C63512   5.076   8.160   8.017 -1.7747  0.1325  0.0336
  482MOL0     C63513   5.039   8.042   7.925 -0.9171  0.0389 -0.1441
  482MOL0     C63514   5.085   8.061   7.775  0.9350 -0.4916  0.6800
  482MOL0     C63515   5.233   8.020   7.740  0.6187  0.5309  0.0998
  482MOL0     O63516   5.315   8.139   7.740 -0.2228  0.1398  0.3855
  482MOL0     C63517   5.450   8.129   7.691  0.1013  0.3144  0.6213
  482MOL0     C63518   5.518   8.013   7.686 -1.1814  0.0395  0.5870
  482MOL0     C63519   5.643   8.019   7.621 -0.4780 -0.2451 -0.1301
  482MOL0     C63520   5.699   8.135   7.561 -0.2183  0.4748 -0.6162
  482MOL0     C63521   5.833   8.129   7.501 -0.1979  0.7157  0.3082
  482MOL0     O63522   5.871   8.249   7.453  0.1229 -0.1882  0.2792
  482MOL0     C63523   5.972   8.261   7.363 -0.1603  0.4364 -1.0060
  482MOL0     C63524   6.020   8.172   7.270  0.2387 -0.1462 -0.2755
  482MOL0     C63525   6.125   8.193   7.189  0.6483 -0.1625  0.2585
  482MOL0     C63526   6.191   8.310   7.197  0.0529 -0.1104  0.0551
  482MOL0     O63527   6.302   8.308   7.122 -0.6937 -0.3790  1.2381
  482MOL0     C63528   6.408   8.403   7.148  0.9194  0.1422 -0.1090
  482MOL0     C63529   6.416   8.496   7.020 -0.2425 -0.3263 -0.8839
  482MOL0     C63530   6.427   8.435   6.882  0.5142  0.1620  0.1648
  482MOL0     C63531   6.535   8.316   6.881  1.0006 -0.1393  0.0747
  482MOL0     C63532   6.573   8.290   6.735  0.0601  0.6579 -0.2003
  482MOL0     C63533   6.705   8.209   6.723 -0.1155 -0.2224 -0.4814
  482MOL0     C63534   6.723   8.105   6.615  0.2206 -0.6218  0.6314
  482MOL0     C63535   6.811   8.137   6.495  0.1374 -0.2506  0.0940
  482MOL0    Cl63536   6.982   8.184   6.510  0.2533 -0.3578  0.2375
  482MOL0     C63537   6.153   8.408   7.287 -0.5667  0.5362 -0.0783
  482MOL0     C63538   6.048   8.376   7.372 -0.7484  0.9252 -1.1688
  482MOL0     O63539   5.896   8.023   7.500  0.9380 -0.7505  0.0608
  482MOL0     C63540   5.628   8.252   7.569  0.3546  0.3158  0.0561
  482MOL0     C63541   5.505   8.243   7.634  0.3552  0.8100  0.4805
  482MOL0     N63542   4.959   8.346   7.875  0.3762 -0.4786 -0.2811
  482MOL0     N63543   4.905   8.463   7.897 -0.4625  1.4144  0.8501
  482MOL0     C63544   5.635   9.141   8.497  1.2104  0.0318  0.5738
  482MOL0     C63545   5.707   9.245   8.555 -0.8494  0.3064  0.7347
  482MOL0     C63546   5.979   9.609   8.651 -0.0332 -0.1004 -0.7403
  482MOL0     C63547   5.961   9.721   8.570  0.1731  0.9303  0.3888
  482MOL0     C63548   6.044   9.826   8.576  0.5262  0.0641  0.4308
  482MOL0     C63549   6.132   9.833   8.678  0.3741 -0.3779 -0.7173
  482MOL0     O63550   6.206   9.952   8.712  0.3654  0.2919  0.6643
  482MOL0     C63551   6.184  10.077   8.653 -1.0537 -0.7622 -0.4712
  482MOL0     C63552   6.251  10.189   8.735 -0.4081  0.1623  0.6343
  482MOL0     C63553   6.404  10.191   8.707 -0.4366 -0.0195 -0.0249
  482MOL0     C63554   6.475  10.292   8.796 -0.5636 -0.6697  0.2851
  482MOL0     C63555   6.616  10.279   8.828 -1.1319 -0.6091  0.2947
  482MOL0     C63556   6.730  10.246   8.842 -0.1092  0.0269  0.5266
  482MOL0     C63557   6.173   9.722   8.747  1.0267  0.7103  0.4305
  482MOL0     C63558   6.092   9.606   8.742  0.5820 -0.4255  0.4570
  482MOL0     H63559   5.770   9.430   8.290 -0.5992  0.3457  0.1321
  482MOL0     H63560   5.613   9.257   8.187  3.4942  1.3240 -2.0452
  482MOL0     H63561   5.396   9.140   8.166  3.6604 -2.8682 -0.9789
  482MOL0     H63562   5.391   9.210   8.324  1.5469  1.3701 -1.4411
  482MOL0     H63563   5.294   8.981   8.421 -1.0067  2.3387  0.8433
  482MOL0     H63564   5.315   8.917   8.259 -1.1177 -0.1674  0.5437
  482MOL0     H63565   5.140   9.098   8.184  3.0876 -1.5442 -1.0602
  482MOL0     H63566   5.126   9.150   8.350  4.7650 -0.1404  1.8730
  482MOL0     H63567   5.090   8.852   8.334 -4.3104 -1.7894  0.6489
  482MOL0     H63568   4.984   8.971   8.404  1.7162  3.0455  0.8138
  482MOL0     H63569   4.889   9.019   8.169 -1.9022 -0.5432 -2.1423
  482MOL0     H63570   4.867   8.846   8.212  0.6988 -0.2631  1.2824
  482MOL0     H63571   5.111   8.936   8.060 -0.2124 -0.5568 -2.6210
  482MOL0     H63572   4.965   8.883   7.982 -1.9520 -3.1749  0.5012
  482MOL0     H63573   5.112   8.714   7.978  1.2200  1.1036  0.7262
  482MOL0     H63574   5.115   8.701   8.170 -2.3354 -1.5162  1.6838
  482MOL0     H63575   4.854   8.685   8.031 -2.2408 -1.7229  2.7108
  482MOL0     H63576   4.905   8.609   8.184 -0.0912 -2.8457  0.5727
  482MOL0     H63577   5.060   8.407   8.182  1.5088  1.2316 -0.5446
  482MOL0     H63578   5.039   8.129   8.115 -1.2784 -0.9477 -0.1082
  482MOL0     H63579   5.184   8.174   8.027 -1.7958 -0.7348  1.7994
  482MOL0     H63580   4.931   8.027   7.914 -1.1388  0.6566  1.0135
  482MOL0     H63581   5.083   7.957   7.977 -2.8182  0.8982  3.2058
  482MOL0     H63582   5.010   7.999   7.725 -0.4463 -0.1151  2.1919
  482MOL0     H63583   5.072   8.166   7.747  4.0607  0.0566  0.8982
  482MOL0     H63584   5.234   7.963   7.647 -1.8289  0.7790 -0.1480
  482MOL0     H63585   5.269   7.954   7.820  0.6649  1.9301  1.2886
  482MOL0     H63586   5.465   7.927   7.726 -2.6070  0.9711  0.7502
  482MOL0     H63587   5.690   7.921   7.614 -0.7848 -0.3160 -1.5620
  482MOL0     H63588   5.965   8.079   7.257 -1.5523  1.0965 -2.2421
  482MOL0     H63589   6.163   8.116   7.123  1.5000 -0.1526  0.7131
  482MOL0     H63590   6.501   8.349   7.169 -1.4767 -3.1054  3.5861
  482MOL0     H63591   6.396   8.457   7.242  1.6187 -1.3231  0.8503
  482MOL0     H63592   6.505   8.558   7.030  1.2235 -2.7022  2.4803
  482MOL0     H63593   6.334   8.568   7.028  1.2446  1.2950  0.4305
  482MOL0     H63594   6.442   8.512   6.806 -0.1740  2.8667  2.5826
  482MOL0     H63595   6.326   8.395   6.873 -1.7760  4.7694  2.0914
  482MOL0     H63596   6.625   8.344   6.937  0.2369  0.4752  1.0280
  482MOL0     H63597   6.489   8.220   6.906 -0.6489 -0.0521 -2.3189
  482MOL0     H63598   6.585   8.378   6.672  0.5268 -0.9556 -2.4683
  482MOL0     H63599   6.490   8.234   6.693 -2.4047  2.6531  1.6609
  482MOL0     H63600   6.717   8.160   6.820 -0.0986  3.6867  1.6925
  482MOL0     H63601   6.787   8.281   6.716 -0.5719  0.4996  1.1271
  482MOL0     H63602   6.775   8.022   6.663  1.8896  0.6652  1.1671
  482MOL0     H63603   6.627   8.074   6.573 -0.3136  2.1583 -0.4220
  482MOL0     H63604   6.763   8.224   6.450  0.9557 -0.6635 -1.7055
  482MOL0     H63605   6.810   8.057   6.419  0.6292  1.4628 -1.8179
  482MOL0     H63606   6.189   8.510   7.284 -3.8667  1.7920 -1.5375
  482MOL0     H63607   6.000   8.447   7.439  1.0882  0.5104  0.7025
  482MOL0     H63608   5.658   8.350   7.532  0.1549  1.6562  3.1088
  482MOL0     H63609   5.437   8.325   7.657 -1.8757 -1.2093  1.5439
  482MOL0     H63610   5.593   9.057   8.552 -0.9167  0.1985 -0.6818
  482MOL0     H63611   5.726   9.244   8.662 -1.7633  0.9049  0.9123
  482MOL0     H63612   5.883   9.721   8.494 -1.3551  0.8776  1.9075
  482MOL0     H63613   6.016   9.911   8.514  1.3624  0.0506  0.0228
  482MOL0     H63614   6.076  10.091   8.649 -1.0353 -0.2648  0.5014
  482MOL0     H63615   6.216  10.082   8.548 -2.6570 -0.4161 -0.9783
  482MOL0     H63616   6.223  10.288   8.698  1.6973  0.4351 -0.3349
  482MOL0     H63617   6.234  10.177   8.843 -0.6011  0.5949  0.6529
  482MOL0     H63618   6.421  10.218   8.603 -2.2091 -1.4048 -0.7170
  482MOL0     H63619   6.441  10.089   8.716 -2.4750 -0.7554  0.5505
  482MOL0     H63620   6.482  10.388   8.745  0.2078 -0.7392  0.2540
  482MOL0     H63621   6.416  10.298   8.888  0.5037 -1.9015  1.0917
  482MOL0     H63622   6.827  10.208   8.863 -0.7030 -3.1353 -1.7738
  482MOL0     H63623   6.253   9.727   8.821 -0.2655  2.0761  1.7946
  482MOL0     H63624   6.105   9.513   8.797  0.0477  1.5286  4.1709
  483MOL0     O63625   5.922   0.741   3.971 -0.5033 -0.6835  0.6736
  483MOL0     C63626   5.834   0.729   3.889 -1.0079  0.4837  0.6994
  483MOL0     O63627   5.726   0.651   3.908 -0.8137  0.0193  0.3552
  483MOL0     C63628   5.699   0.601   4.033  0.2011  0.5463 -0.7971
  483MOL0     C63629   5.637   0.470   4.025  0.2325  0.3073  0.8039
  483MOL0     C63630   5.590   0.405   4.139  1.2535  0.2531  0.0664
  483MOL0     C63631   5.608   0.463   4.266 -0.7135  0.2135 -0.0599
  483MOL0     O63632   5.556   0.398   4.378  0.2972  0.9224 -1.3047
  483MOL0     C63633   5.649   0.349   4.473  0.3184  0.4475 -0.3452
  483MOL0     C63634   5.701   0.208   4.431  1.1929 -0.2752  1.0358
  483MOL0     C63635   5.582   0.105   4.413  0.4255 -1.4548 -1.2895
  483MOL0     C63636   5.533   0.055   4.551  0.0101  0.1366  0.0266
  483MOL0     C63637   5.436  -0.071   4.536  0.2850 -0.5144 -1.2463
  483MOL0     C63638   5.487  -0.201   4.480 -0.4019 -0.8462 -0.4869
  483MOL0     C63639   5.627  -0.241   4.535  0.1635  0.1186  0.6646
  483MOL0     C63640   5.670  -0.373   4.486  0.2348 -0.1580  0.4650
  483MOL0     N63641   5.573  -0.479   4.515  0.6656  0.0386 -0.6453
  483MOL0     C63642   5.533  -0.546   4.633 -0.5190  0.0082 -0.2270
  483MOL0     C63643   5.463  -0.654   4.597  0.6529  0.6087 -0.1353
  483MOL0     C63644   5.399  -0.755   4.688  0.0065  0.2861  0.6569
  483MOL0     C63645   5.373  -0.726   4.833  0.4675  0.4869 -0.1039
  483MOL0     C63646   5.225  -0.697   4.851  0.6013  0.6087 -0.2308
  483MOL0     C63647   5.202  -0.634   4.988  1.1403  0.4437  0.2682
  483MOL0     O63648   5.214  -0.500   4.990 -0.1648 -0.4165  0.4528
  483MOL0     C63649   5.158  -0.423   5.090  0.3109  0.1604 -0.0758
  483MOL0     C63650   5.107  -0.483   5.208 -0.9222  0.1287 -0.9619
  483MOL0     C63651   5.042  -0.405   5.302 -0.7595  0.1952  0.6445
  483MOL0     C63652   5.039  -0.263   5.292  0.4352 -0.9530 -0.3422
  483MOL0     C63653   5.007  -0.172   5.412  0.4236  0.7767 -0.4976
  483MOL0     O63654   4.989  -0.246   5.525 -0.0258 -0.2757  0.5205
  483MOL0     C63655   4.923  -0.194   5.638 -0.3921 -0.2772 -0.0629
  483MOL0     C63656   4.947  -0.267   5.749  0.7374  0.2070  1.2068
  483MOL0     C63657   4.887  -0.235   5.877  0.0029  0.7260 -0.2114
  483MOL0     C63658   4.796  -0.129   5.880  0.8645 -0.4816 -0.9457
  483MOL0     O63659   4.747  -0.092   6.003 -0.1949  0.7698 -0.1521
  483MOL0     C63660   4.641   0.003   6.026 -0.2257 -0.7989  0.3789
  483MOL0     C63661   4.506  -0.071   6.030  0.7932  0.8572  0.1353
  483MOL0     C63662   4.497  -0.182   6.136  0.3124  0.9899 -0.6173
  483MOL0     C63663   4.492  -0.121   6.279 -1.2385 -0.2437  0.2582
  483MOL0     C63664   4.465  -0.209   6.397  0.2092 -0.1548  0.5157
  483MOL0     C63665   4.335  -0.196   6.478 -0.5599 -0.6478  0.6144
  483MOL0     C63666   4.339  -0.266   6.615 -0.7441  1.3528  0.0619
  483MOL0     C63667   4.329  -0.417   6.627 -0.0294 -1.2341 -0.3401
  483MOL0    Cl63668   4.186  -0.497   6.538  0.2167  0.0154  0.0890
  483MOL0     C63669   4.757  -0.065   5.761  0.3801  0.3019 -0.3273
  483MOL0     C63670   4.822  -0.101   5.644 -0.1642 -0.0829 -0.7800
  483MOL0     O63671   5.026  -0.054   5.404 -0.1509  0.1650 -0.1226
  483MOL0     C63672   5.095  -0.210   5.180 -0.1881 -0.8238  0.0748
  483MOL0     C63673   5.147  -0.287   5.081  0.1836 -1.1442  0.8469
  483MOL0     N63674   5.467  -0.655   4.457  0.3608 -0.1564  0.3671
  483MOL0     N63675   5.532  -0.558   4.416  0.4278  0.0178  0.5177
  483MOL0     C63676   5.679   0.590   4.278  0.1937  0.2500  0.0678
  483MOL0     C63677   5.718   0.658   4.160 -0.2917  0.0560  0.3058
  483MOL0     C63678   5.855   0.783   3.753  0.0823 -1.8576  0.9267
  483MOL0     C63679   5.973   0.848   3.716 -0.6741  0.6281  0.7113
  483MOL0     C63680   5.990   0.898   3.581  0.1962 -0.4975 -0.2385
  483MOL0     C63681   5.886   0.898   3.491  0.1842  0.1477  0.9448
  483MOL0     O63682   5.910   0.931   3.359 -0.3555  0.3424  0.0089
  483MOL0     C63683   5.813   1.006   3.290  0.2202  0.3669 -0.3202
  483MOL0     C63684   5.864   1.155   3.275 -0.3858  0.2439  1.1317
  483MOL0     C63685   5.956   1.185   3.165 -0.7280 -0.5318  0.1098
  483MOL0     C63686   6.031   1.312   3.190  1.2117  0.1295 -0.4429
  483MOL0     C63687   6.127   1.333   3.082  0.6764  0.6436  0.4174
  483MOL0     C63688   6.189   1.358   2.976  0.3525 -0.2528 -0.5557
  483MOL0     C63689   5.766   0.840   3.537  0.0767 -0.5029 -0.0070
  483MOL0     C63690   5.746   0.795   3.661 -0.2988  0.7487 -0.1802
  483MOL0     H63691   5.624   0.436   3.923  0.6937  3.6466 -0.5081
  483MOL0     H63692   5.538   0.311   4.126  0.2167  0.9175 -0.7415
  483MOL0     H63693   5.598   0.329   4.568 -3.0166 -4.9299 -2.8635
  483MOL0     H63694   5.732   0.420   4.487 -0.0923  0.8014  0.3687
  483MOL0     H63695   5.768   0.174   4.511  2.2798  0.7606  0.5959
  483MOL0     H63696   5.758   0.210   4.338  3.8317 -1.7596  2.4920
  483MOL0     H63697   5.608   0.017   4.353  3.2003 -1.1889 -0.6335
  483MOL0     H63698   5.502   0.151   4.354 -1.4590 -1.6626  0.9449
  483MOL0     H63699   5.614   0.024   4.616  0.8052 -0.4361 -1.2015
  483MOL0     H63700   5.480   0.137   4.600 -2.7303 -1.2817 -0.3607
  483MOL0     H63701   5.345  -0.050   4.480  0.4655  2.4428 -0.5772
  483MOL0     H63702   5.401  -0.088   4.639 -2.4111  2.0435 -1.6028
  483MOL0     H63703   5.490  -0.184   4.372  0.9979 -3.2416 -0.8856
  483MOL0     H63704   5.406  -0.270   4.505 -1.2739  0.0435 -0.7931
  483MOL0     H63705   5.697  -0.166   4.496 -1.5265  2.1772  1.4081
  483MOL0     H63706   5.632  -0.236   4.645 -0.8606 -2.6713  0.9104
  483MOL0     H63707   5.770  -0.392   4.526  0.0913 -0.4397  0.6915
  483MOL0     H63708   5.681  -0.375   4.377 -3.6206 -0.6733 -0.0584
  483MOL0     H63709   5.550  -0.524   4.737 -0.9825  2.9368 -0.6779
  483MOL0     H63710   5.465  -0.842   4.672  1.0691  1.1102  0.4598
  483MOL0     H63711   5.306  -0.778   4.635 -0.5228 -0.1991  1.7591
  483MOL0     H63712   5.438  -0.646   4.867  0.7718  0.2783 -0.1889
  483MOL0     H63713   5.409  -0.815   4.886  0.9339  0.8664  0.2149
  483MOL0     H63714   5.207  -0.627   4.769 -0.0372 -0.4416 -0.9912
  483MOL0     H63715   5.163  -0.785   4.836  0.8700  0.6781 -1.8661
  483MOL0     H63716   5.270  -0.683   5.059  0.4600 -0.4777  0.3036
  483MOL0     H63717   5.108  -0.670   5.032  2.5769 -1.9934  1.5390
  483MOL0     H63718   5.117  -0.589   5.229 -1.8213  0.0931 -0.6615
  483MOL0     H63719   5.003  -0.465   5.384 -2.5819  2.4734  1.5612
  483MOL0     H63720   5.019  -0.347   5.763 -1.2041 -1.7659  0.4011
  483MOL0     H63721   4.904  -0.284   5.973 -2.0875 -1.7888 -1.0112
  483MOL0     H63722   4.652   0.085   5.955  2.9887 -1.4316 -0.0329
  483MOL0     H63723   4.637   0.050   6.125  0.1170 -0.5960  0.3002
  483MOL0     H63724   4.485  -0.123   5.936  0.0125  2.5251 -0.6536
  483MOL0     H63725   4.430   0.006   6.044 -0.4637 -0.5165  1.1700
  483MOL0     H63726   4.588  -0.243   6.130  0.0646  0.0676  2.8106
  483MOL0     H63727   4.412  -0.247   6.114  2.0560 -1.0914 -1.5761
  483MOL0     H63728   4.580  -0.065   6.309 -2.1004  0.5909  1.3328
  483MOL0     H63729   4.409  -0.051   6.290 -1.8512 -0.9971  0.5864
  483MOL0     H63730   4.550  -0.208   6.466 -0.1011  1.5334  0.9255
  483MOL0     H63731   4.466  -0.307   6.348 -0.9025  2.0666 -4.6549
  483MOL0     H63732   4.261  -0.238   6.410 -0.5007 -3.3489  2.0850
  483MOL0     H63733   4.311  -0.091   6.500 -1.0608  0.1309 -2.9950
  483MOL0     H63734   4.436  -0.242   6.662  0.6447 -1.1253 -1.3041
  483MOL0     H63735   4.256  -0.227   6.674 -2.4642 -1.5917 -0.2232
  483MOL0     H63736   4.334  -0.458   6.728  2.4865 -2.2044 -0.7819
  483MOL0     H63737   4.417  -0.451   6.572  0.3525  1.3073 -1.4346
  483MOL0     H63738   4.690   0.020   5.760  0.8432  0.6954  0.6759
  483MOL0     H63739   4.791  -0.040   5.560  0.6098  2.3285  0.5803
  483MOL0     H63740   5.111  -0.105   5.160 -0.4529 -0.8120 -0.0842
  483MOL0     H63741   5.173  -0.239   4.987  0.2713  0.2830  1.5651
  483MOL0     H63742   5.692   0.616   4.383 -0.6189 -0.0369  0.2462
  483MOL0     H63743   5.748   0.762   4.165  1.2176 -0.3762  0.9553
  483MOL0     H63744   6.060   0.854   3.780  0.3602  1.6041 -0.7415
  483MOL0     H63745   6.085   0.934   3.543 -1.5011  1.2655 -3.2568
  483MOL0     H63746   5.716   1.019   3.340 -1.3271  1.4145 -3.3242
  483MOL0     H63747   5.798   0.956   3.194  0.5375  1.8397 -1.1824
  483MOL0     H63748   5.780   1.224   3.268 -3.3735 -3.2191 -1.2706
  483MOL0     H63749   5.920   1.187   3.364  1.8942 -2.0615  0.6543
  483MOL0     H63750   5.895   1.201   3.076  0.3867 -2.3968 -1.0756
  483MOL0     H63751   6.029   1.104   3.156  2.3054  2.2280 -2.6933
  483MOL0     H63752   5.965   1.399   3.192 -0.9502 -1.3538  2.9669
  483MOL0     H63753   6.082   1.314   3.286  1.2541  0.8260 -0.4779
  483MOL0     H63754   6.241   1.400   2.891  0.2786 -2.1961 -1.6080
  483MOL0     H63755   5.685   0.832   3.465 -1.0419 -0.8427  1.2533
  483MOL0     H63756   5.652   0.742   3.673  0.5273 -1.3652 -2.2569
  484MOL0     O63757   2.586   4.989  10.730  0.5986  0.1813  0.2064
  484MOL0     C63758   2.598   5.097  10.792 -0.4951  1.2502 -0.3216
  484MOL0     O63759   2.621   5.099  10.925  0.4577  0.4053  0.5342
  484MOL0     C63760   2.648   4.980  10.993  0.0086  0.0601  0.7959
  484MOL0     C63761   2.773   4.925  10.995 -0.3809  1.0879 -0.4265
  484MOL0     C63762   2.793   4.802  11.060 -1.2371  0.2893 -0.0629
  484MOL0     C63763   2.675   4.730  11.125  0.8509  0.3461  0.3633
  484MOL0     O63764   2.682   4.594  11.157 -0.3729  0.3768  0.1947
  484MOL0     C63765   2.813   4.547  11.178  0.0531 -1.0604  0.4652
  484MOL0     C63766   2.823   4.411  11.226  0.5978  0.6771 -0.5791
  484MOL0     C63767   2.968   4.368  11.230 -0.8127  0.6580 -0.2854
  484MOL0     C63768   2.985   4.215  11.252  0.7401 -0.2268  0.0657
  484MOL0     C63769   2.961   4.176  11.401 -0.3689 -0.8840  0.0589
  484MOL0     C63770   3.065   4.233  11.495 -0.4307 -0.2669 -0.6629
  484MOL0     C63771   3.042   4.189  11.643  0.4102  0.1594  0.3766
  484MOL0     C63772   3.113   4.280  11.752  0.4166  0.2591 -0.1547
  484MOL0     N63773   3.019   4.392  11.791 -0.5414 -0.0864 -0.3751
  484MOL0     C63774   3.005   4.497  11.700  0.4709 -0.9487 -0.7522
  484MOL0     C63775   2.895   4.566  11.744  0.3120 -0.1737  0.2189
  484MOL0     C63776   2.832   4.692  11.683 -0.6453  0.5549 -0.0822
  484MOL0     C63777   2.782   4.676  11.536  0.2386 -0.0371 -0.0202
  484MOL0     C63778   2.654   4.605  11.499  0.5654 -0.9272  0.2040
  484MOL0     C63779   2.539   4.604  11.604  0.0854  0.4455  0.1207
  484MOL0     O63780   2.457   4.485  11.577  0.5517 -0.0871  0.7303
  484MOL0     C63781   2.354   4.462  11.669 -0.7500  0.1913 -0.5738
  484MOL0     C63782   2.385   4.440  11.805 -0.2042 -0.1802  0.7091
  484MOL0     C63783   2.274   4.394  11.878  0.4345  0.9231  0.1078
  484MOL0     C63784   2.144   4.373  11.821 -1.2361  0.6677  0.0427
  484MOL0     C63785   2.034   4.327  11.904 -0.5707 -0.4404  0.2485
  484MOL0     O63786   2.053   4.337  12.034 -0.1837 -0.0609 -0.2087
  484MOL0     C63787   1.957   4.364  12.120 -0.0663 -0.2003  0.2631
  484MOL0     C63788   1.858   4.469  12.096  0.7954  0.5517 -0.3125
  484MOL0     C63789   1.779   4.499  12.205 -0.4112 -0.3379 -0.1067
  484MOL0     C63790   1.803   4.445  12.334 -0.1651  0.1701 -0.1173
  484MOL0     O63791   1.750   4.523  12.432 -0.6097  0.3064 -1.3440
  484MOL0     C63792   1.791   4.500  12.570  0.2153 -0.0471  1.0280
  484MOL0     C63793   1.686   4.557  12.653 -0.8523 -0.1559  0.2658
  484MOL0     C63794   1.676   4.498  12.794  0.3860 -0.6270 -0.3271
  484MOL0     C63795   1.666   4.349  12.803 -0.2318  1.3280  1.0735
  484MOL0     C63796   1.562   4.282  12.699 -1.2065 -0.1254 -0.4451
  484MOL0     C63797   1.531   4.138  12.729 -0.1716 -0.0248  0.0779
  484MOL0     C63798   1.415   4.131  12.812 -0.0125  0.3798 -0.2293
  484MOL0     C63799   1.398   3.992  12.872 -0.8117  0.1865 -0.3658
  484MOL0    Cl63800   1.526   3.956  13.001  0.2685 -0.3757  0.1037
  484MOL0     C63801   1.889   4.341  12.352 -0.1998  0.2321 -0.5784
  484MOL0     C63802   1.958   4.289  12.243 -0.4450  0.5208  0.5388
  484MOL0     O63803   1.924   4.309  11.846  0.6264 -0.2642 -1.2129
  484MOL0     C63804   2.121   4.413  11.685  0.3609  0.0785 -0.1652
  484MOL0     C63805   2.227   4.462  11.616 -0.5094  0.2353  0.0978
  484MOL0     N63806   2.854   4.502  11.852  0.1456  0.4621 -0.5752
  484MOL0     N63807   2.929   4.394  11.882  0.6442 -0.5817 -0.3191
  484MOL0     C63808   2.556   4.804  11.135  0.9537 -0.2406 -1.2592
  484MOL0     C63809   2.545   4.922  11.065 -0.0481 -0.3379  0.0132
  484MOL0     C63810   2.568   5.223  10.717  0.9556  2.2884 -0.3180
  484MOL0     C63811   2.596   5.347  10.772  0.5520 -0.3021 -0.0494
  484MOL0     C63812   2.553   5.465  10.702  0.6899  1.0394 -0.9603
  484MOL0     C63813   2.511   5.453  10.564  0.4590  0.4242  0.0158
  484MOL0     O63814   2.472   5.560  10.487  0.0402 -0.6397 -0.1320
  484MOL0     C63815   2.550   5.675  10.512  0.1787 -0.6604  0.0337
  484MOL0     C63816   2.503   5.784  10.410  0.7181  0.7834 -0.1310
  484MOL0     C63817   2.552   5.928  10.438 -0.9867 -1.5935 -0.2070
  484MOL0     C63818   2.477   6.021  10.542  0.3605  0.8911  0.5360
  484MOL0     C63819   2.453   5.952  10.675  1.0682  0.0618  0.6598
  484MOL0     C63820   2.439   5.905  10.780  0.2478 -0.1718 -0.0743
  484MOL0     C63821   2.497   5.328  10.509 -1.1243 -0.1915 -0.1205
  484MOL0     C63822   2.524   5.211  10.584 -0.0733 -1.0004 -0.0759
  484MOL0     H63823   2.857   4.969  10.943  0.6496  2.0172  1.8893
  484MOL0     H63824   2.895   4.765  11.054 -0.3460  2.7623 -1.5992
  484MOL0     H63825   2.849   4.618  11.253 -2.5684  1.7392 -0.7111
  484MOL0     H63826   2.875   4.550  11.088  2.2149 -0.2848  1.8836
  484MOL0     H63827   2.757   4.350  11.163 -0.4574 -0.5599  1.5777
  484MOL0     H63828   2.775   4.399  11.324  0.7919 -0.5003 -0.6099
  484MOL0     H63829   3.010   4.435  11.306 -1.9349  0.5098  0.4914
  484MOL0     H63830   3.015   4.392  11.134  0.3019 -1.6478 -0.3874
  484MOL0     H63831   2.917   4.159  11.187  0.0586  2.2392 -1.4714
  484MOL0     H63832   3.083   4.179  11.222  0.5720 -2.4980  1.9382
  484MOL0     H63833   2.979   4.068  11.409 -0.0043 -0.7387  1.7797
  484MOL0     H63834   2.864   4.211  11.437  0.9644  1.2158  1.9279
  484MOL0     H63835   3.082   4.341  11.488  6.3762 -0.8463  0.0105
  484MOL0     H63836   3.161   4.203  11.451  0.0783  0.1776  0.1104
  484MOL0     H63837   2.934   4.191  11.657 -0.3864 -0.7077 -4.2785
  484MOL0     H63838   3.063   4.083  11.656 -2.7376 -1.6585 -5.8740
  484MOL0     H63839   3.211   4.315  11.719  0.2516 -0.0617 -1.0091
  484MOL0     H63840   3.141   4.232  11.847 -1.7698  1.1350  0.9957
  484MOL0     H63841   3.073   4.533  11.624  0.7072 -0.0090 -0.1194
  484MOL0     H63842   2.912   4.767  11.679  3.7984 -3.7744 -0.7539
  484MOL0     H63843   2.753   4.723  11.752  1.3168  0.5566  2.2890
  484MOL0     H63844   2.859   4.620  11.482 -1.4612 -0.1955 -2.4374
  484MOL0     H63845   2.772   4.781  11.506 -2.6991  0.9823  3.7975
  484MOL0     H63846   2.616   4.641  11.403 -3.3447  1.3533  2.3490
  484MOL0     H63847   2.681   4.499  11.488  0.9967 -0.8127  0.1439
  484MOL0     H63848   2.479   4.695  11.593 -1.1265 -0.2677  0.6746
  484MOL0     H63849   2.586   4.604  11.703  3.5332 -0.0669 -1.3632
  484MOL0     H63850   2.488   4.446  11.840 -0.3983  1.1873  1.0858
  484MOL0     H63851   2.284   4.362  11.981  0.9767  1.2493  0.1595
  484MOL0     H63852   1.854   4.520  12.000  1.7051 -0.2011 -0.7793
  484MOL0     H63853   1.722   4.591  12.204  1.6769  1.0912 -3.0495
  484MOL0     H63854   1.893   4.535  12.585  0.7751  0.3511 -2.7400
  484MOL0     H63855   1.795   4.392  12.588  2.6232 -0.0784  0.6173
  484MOL0     H63856   1.593   4.523  12.606 -2.1102 -3.2140  4.3802
  484MOL0     H63857   1.682   4.666  12.651 -2.3787 -0.1774  0.9629
  484MOL0     H63858   1.585   4.544  12.834  1.5213  1.4875 -0.0281
  484MOL0     H63859   1.764   4.521  12.855  0.0266 -0.9603  0.3179
  484MOL0     H63860   1.768   4.309  12.793 -0.3302  0.8084  2.1045
  484MOL0     H63861   1.643   4.324  12.907  0.1395  2.8931  1.5560
  484MOL0     H63862   1.615   4.279  12.603  2.6124 -2.9952  1.4526
  484MOL0     H63863   1.470   4.341  12.698 -2.0062 -0.9771  3.7737
  484MOL0     H63864   1.617   4.081  12.764 -0.2803 -0.2219  0.0313
  484MOL0     H63865   1.504   4.093  12.633  3.1675 -0.8011 -0.6247
  484MOL0     H63866   1.405   4.206  12.891 -3.4495 -0.8164  0.6647
  484MOL0     H63867   1.323   4.155  12.759 -0.4928 -3.2265 -1.2589
  484MOL0     H63868   1.409   3.932  12.781 -0.7427  2.1500 -1.7058
  484MOL0     H63869   1.293   3.978  12.900 -1.8119  3.2615 -2.1114
  484MOL0     H63870   1.891   4.282  12.443 -0.3363 -0.4159 -0.9847
  484MOL0     H63871   2.030   4.208  12.249  0.7983  1.3391 -2.0703
  484MOL0     H63872   2.024   4.422  11.637  0.9610 -0.4413 -1.5222
  484MOL0     H63873   2.206   4.493  11.515  0.0846  1.2021  0.2597
  484MOL0     H63874   2.474   4.756  11.189  2.0839 -1.0297 -0.1919
  484MOL0     H63875   2.454   4.980  11.062 -0.0033 -0.2850 -0.3995
  484MOL0     H63876   2.636   5.356  10.872  2.5804 -1.3360 -0.7119
  484MOL0     H63877   2.556   5.553  10.766  2.4246 -0.2078  0.7864
  484MOL0     H63878   2.652   5.644  10.488  0.8561 -1.0439  3.0138
  484MOL0     H63879   2.542   5.712  10.615 -0.3296  0.4135 -0.3712
  484MOL0     H63880   2.518   5.754  10.306 -0.5764 -0.1329 -0.0837
  484MOL0     H63881   2.394   5.784  10.419  0.5924  1.7543 -1.3371
  484MOL0     H63882   2.525   5.988  10.351 -2.1954  0.6888  1.6327
  484MOL0     H63883   2.661   5.932  10.445 -1.0047  0.2827 -0.5852
  484MOL0     H63884   2.543   6.108  10.550  1.6360 -0.1684  2.1315
  484MOL0     H63885   2.378   6.056  10.512  0.0009  1.7567  2.5710
  484MOL0     H63886   2.428   5.876  10.882  0.6701 -1.9145 -0.4986
  484MOL0     H63887   2.455   5.304  10.412  1.9968  1.3431 -2.0195
  484MOL0     H63888   2.490   5.114  10.546  1.1221 -1.0939 -0.9661
  485MOL0     O63889   9.906  11.036  11.193  0.7205 -0.1364 -0.7821
  485MOL0     C63890   9.913  11.075  11.306  0.2943  0.6813 -0.7105
  485MOL0     O63891   9.820  11.150  11.377  0.5127 -0.4049 -0.5459
  485MOL0     C63892   9.691  11.164  11.318  0.5918 -0.5653 -0.2963
  485MOL0     C63893   9.615  11.068  11.248 -1.0905 -0.0607 -0.2893
  485MOL0     C63894   9.476  11.102  11.223 -0.5611 -0.0692 -0.2661
  485MOL0     C63895   9.434  11.230  11.265  0.1295  0.1120  0.2198
  485MOL0     O63896   9.303  11.277  11.257 -0.4481  0.7622  0.7175
  485MOL0     C63897   9.206  11.237  11.164 -0.0626  0.4729 -0.9002
  485MOL0     C63898   9.235  11.286  11.020 -0.2979 -0.9162  0.3081
  485MOL0     C63899   9.233  11.434  10.994  0.3065  0.2262 -0.1882
  485MOL0     C63900   9.208  11.466  10.842  1.0854  0.7345  0.3799
  485MOL0     C63901   9.060  11.471  10.796 -0.6172 -1.1392 -0.2588
  485MOL0     C63902   8.984  11.583  10.864  0.5213 -0.1999 -0.2436
  485MOL0     C63903   8.851  11.606  10.790  0.3509  1.0467 -0.8241
  485MOL0     C63904   8.864  11.699  10.672 -0.6992  0.4173 -0.3787
  485MOL0     N63905   8.735  11.742  10.617  0.7170 -0.8378  0.3617
  485MOL0     C63906   8.711  11.801  10.493  0.1421  0.1527  0.1706
  485MOL0     C63907   8.578  11.807  10.490 -0.0111 -0.4622  1.0025
  485MOL0     C63908   8.488  11.859  10.391 -0.4412 -0.7300  1.1602
  485MOL0     C63909   8.532  11.995  10.324  0.5016  0.1923 -0.0144
  485MOL0     C63910   8.563  12.096  10.432  0.2483  0.3460 -0.0442
  485MOL0     C63911   8.577  12.237  10.373 -0.3977  1.1563  0.2391
  485MOL0     O63912   8.620  12.338  10.463  0.2832  0.3092 -0.2381
  485MOL0     C63913   8.608  12.472  10.437 -0.1829  0.2926  0.6349
  485MOL0     C63914   8.583  12.522  10.306  1.1029  0.1443 -0.3471
  485MOL0     C63915   8.564  12.658  10.287  0.2208 -0.3017  0.7403
  485MOL0     C63916   8.578  12.752  10.398  1.0566  0.0457  1.8062
  485MOL0     C63917   8.557  12.896  10.379 -0.5887  0.0797  0.1480
  485MOL0     O63918   8.604  12.982  10.486  0.4383  0.1342  0.0001
  485MOL0     C63919   8.595  13.115  10.443  1.0638 -0.1364 -0.6876
  485MOL0     C63920   8.698  13.195  10.396 -0.4595 -0.5890 -0.2012
  485MOL0     C63921   8.680  13.333  10.368  0.6970 -0.4247  0.1393
  485MOL0     C63922   8.544  13.392  10.363 -0.5961 -0.1800  0.3286
  485MOL0     O63923   8.511  13.518  10.320 -0.1371  0.2044  0.4472
  485MOL0     C63924   8.611  13.600  10.278  0.5626 -0.5961  0.9325
  485MOL0     C63925   8.696  13.656  10.379 -0.7477 -0.1605 -1.8566
  485MOL0     C63926   8.643  13.778  10.446 -0.2852 -0.2475 -0.2415
  485MOL0     C63927   8.512  13.752  10.513 -0.7151  0.8574 -0.1639
  485MOL0     C63928   8.456  13.857  10.606  0.1743  0.2379  1.6878
  485MOL0     C63929   8.433  13.988  10.520 -0.6305  0.4199 -0.2410
  485MOL0     C63930   8.355  14.088  10.616  0.9909  0.3209 -0.1576
  485MOL0     C63931   8.271  14.196  10.538 -0.6551  0.0334  1.2521
  485MOL0    Cl63932   8.140  14.241  10.640 -0.0644  0.1129 -0.5855
  485MOL0     C63933   8.438  13.317  10.407 -0.4860 -0.5700 -0.1405
  485MOL0     C63934   8.464  13.185  10.449  0.3481  0.0067  0.1425
  485MOL0     O63935   8.559  12.934  10.263  0.7244  0.0909 -0.1080
  485MOL0     C63936   8.618  12.700  10.528  0.6328 -0.5296 -0.1034
  485MOL0     C63937   8.618  12.562  10.545 -1.0671  0.8007 -0.2152
  485MOL0     N63938   8.521  11.759  10.605 -0.0362  0.4369 -0.3886
  485MOL0     N63939   8.612  11.719  10.675  0.1613  0.5325 -0.0164
  485MOL0     C63940   9.517  11.318  11.335  0.4128  0.1468 -0.3082
  485MOL0     C63941   9.648  11.288  11.349 -0.1865  0.5102  0.0211
  485MOL0     C63942  10.042  11.053  11.378 -0.0828 -0.2646  0.3854
  485MOL0     C63943  10.160  11.018  11.300  0.5174 -0.2656  0.0569
  485MOL0     C63944  10.284  10.998  11.362  0.0911 -0.0620  0.9062
  485MOL0     C63945  10.285  11.002  11.505 -0.5331 -0.1273  0.3758
  485MOL0     O63946  10.394  10.977  11.587 -0.3747  0.1082 -0.0344
  485MOL0     C63947  10.524  10.960  11.544  0.0854  0.6739 -0.2110
  485MOL0     C63948  10.610  11.059  11.621  0.3796  0.2162  0.2531
  485MOL0     C63949  10.597  11.193  11.545  0.0277  0.4407  0.9195
  485MOL0     C63950  10.673  11.306  11.621 -0.3651 -0.0549  0.0054
  485MOL0     C63951  10.802  11.327  11.558 -0.1207  0.4006  0.2556
  485MOL0     C63952  10.917  11.347  11.518  1.2357  1.2163  0.3224
  485MOL0     C63953  10.169  11.021  11.578 -0.3590  0.1085  0.1804
  485MOL0     C63954  10.046  11.054  11.515 -0.0759  0.3356 -0.5568
  485MOL0     H63955   9.653  10.971  11.218 -0.0502 -0.6793  2.7194
  485MOL0     H63956   9.410  11.033  11.170  1.4861  1.0367 -4.7399
  485MOL0     H63957   9.111  11.263  11.210  1.2942 -0.8795  3.1370
  485MOL0     H63958   9.199  11.127  11.162 -1.7441  0.4470  1.6862
  485MOL0     H63959   9.168  11.242  10.945 -0.1746 -1.3883  0.4691
  485MOL0     H63960   9.337  11.251  10.999  1.2422  1.8430  2.5050
  485MOL0     H63961   9.334  11.471  11.014 -0.5783  1.8037  1.7414
  485MOL0     H63962   9.176  11.485  11.072  1.9343  0.3253  0.9765
  485MOL0     H63963   9.251  11.565  10.830 -1.1546  1.7204  0.0163
  485MOL0     H63964   9.263  11.396  10.778  4.4544  1.5021  2.1850
  485MOL0     H63965   9.011  11.375  10.815 -1.5965 -0.7459 -0.6887
  485MOL0     H63966   9.051  11.492  10.689  0.0371  0.1275 -0.0821
  485MOL0     H63967   9.045  11.672  10.883 -0.3887 -0.0163  2.2089
  485MOL0     H63968   8.960  11.545  10.964 -0.2581 -1.3905 -0.8668
  485MOL0     H63969   8.806  11.508  10.770 -2.1830  1.7660  0.8782
  485MOL0     H63970   8.790  11.664  10.859 -0.6824  1.1372 -1.7668
  485MOL0     H63971   8.923  11.646  10.596  2.1740  1.7244  0.7632
  485MOL0     H63972   8.926  11.779  10.714  0.0552 -1.6719  2.8965
  485MOL0     H63973   8.786  11.839  10.425  1.8797 -2.6873  0.3346
  485MOL0     H63974   8.390  11.876  10.437 -1.1719 -0.1543 -0.5145
  485MOL0     H63975   8.476  11.781  10.314  0.6718 -2.1853  2.4119
  485MOL0     H63976   8.456  12.027  10.252 -0.0865  0.4092  0.6897
  485MOL0     H63977   8.623  11.967  10.270  0.3592  0.1148 -0.2168
  485MOL0     H63978   8.482  12.109  10.505  0.1665  1.6349 -0.3346
  485MOL0     H63979   8.648  12.065  10.494 -0.4441  0.8817  1.2139
  485MOL0     H63980   8.482  12.261  10.324 -0.3094  1.7796  0.3568
  485MOL0     H63981   8.638  12.237  10.282  0.5638  0.5215  0.8711
  485MOL0     H63982   8.573  12.465  10.214 -0.1835  0.5110 -0.4507
  485MOL0     H63983   8.533  12.702  10.193  0.8660  0.7749  1.0110
  485MOL0     H63984   8.800  13.162  10.410 -0.1733 -0.7279 -2.3376
  485MOL0     H63985   8.770  13.386  10.338  1.5633 -0.8197  1.8694
  485MOL0     H63986   8.567  13.688  10.230 -2.0653 -0.4520  3.3283
  485MOL0     H63987   8.674  13.549  10.206 -1.2325 -0.4478 -0.8395
  485MOL0     H63988   8.793  13.670  10.331  0.1372 -2.2304 -0.7873
  485MOL0     H63989   8.722  13.593  10.465 -0.0844  0.1571 -1.8139
  485MOL0     H63990   8.622  13.863  10.381 -2.2455  1.8618  2.8780
  485MOL0     H63991   8.709  13.810  10.526 -0.2118 -3.0016  0.9121
  485MOL0     H63992   8.432  13.744  10.439 -0.9096 -1.1882  0.2200
  485MOL0     H63993   8.530  13.660  10.569 -2.1444 -0.7920 -2.2528
  485MOL0     H63994   8.514  13.868  10.698  0.3175  0.0041  1.6279
  485MOL0     H63995   8.362  13.824  10.652  0.3913  0.7095  2.4857
  485MOL0     H63996   8.372  13.970  10.430 -0.6783  1.4781 -0.4341
  485MOL0     H63997   8.529  14.026  10.484 -0.8632 -2.1135 -4.1818
  485MOL0     H63998   8.288  14.020  10.670 -0.5527  2.3239  0.6102
  485MOL0     H63999   8.411  14.148  10.689 -1.0301  1.6674  0.3868
  485MOL0     H64000   8.217  14.145  10.457 -1.0449 -0.4707  1.8212
  485MOL0     H64001   8.320  14.282  10.491  0.6297 -1.5280 -0.4410
  485MOL0     H64002   8.337  13.356  10.407  0.1124  1.0747 -0.9462
  485MOL0     H64003   8.391  13.114  10.487  2.8689 -0.6627  4.5062
  485MOL0     H64004   8.651  12.767  10.607 -0.6661  3.0636 -2.3687
  485MOL0     H64005   8.664  12.518  10.633  1.0227  1.0249 -1.1214
  485MOL0     H64006   9.474  11.410  11.373 -2.7722 -1.7082  1.0030
  485MOL0     H64007   9.713  11.361  11.398  1.8035  1.2512 -3.3818
  485MOL0     H64008  10.145  11.018  11.192 -1.5376 -1.8065  0.2910
  485MOL0     H64009  10.375  10.969  11.311  1.1753 -1.7360  3.6134
  485MOL0     H64010  10.538  10.973  11.436  2.0855  0.6655  0.0137
  485MOL0     H64011  10.554  10.861  11.579  0.9924  2.0907  3.3801
  485MOL0     H64012  10.577  11.061  11.725  1.1277  1.3361  0.4814
  485MOL0     H64013  10.716  11.033  11.624 -0.1019 -2.3877 -1.6404
  485MOL0     H64014  10.491  11.219  11.544 -0.3849 -0.6634  4.1880
  485MOL0     H64015  10.634  11.179  11.443 -1.8490  3.2862 -0.2769
  485MOL0     H64016  10.609  11.392  11.597 -0.4731 -0.9562 -3.4570
  485MOL0     H64017  10.681  11.286  11.728 -1.3326 -3.1381 -0.3873
  485MOL0     H64018  11.004  11.338  11.457  2.0416  0.5980  1.5211
  485MOL0     H64019  10.169  11.015  11.686 -1.8241 -5.0688  0.1644
  485MOL0     H64020   9.959  11.080  11.574  1.1304  2.8964  0.2744
  486MOL0     O64021   3.518   6.033   4.991 -0.8769 -0.0489 -0.9720
  486MOL0     C64022   3.598   5.982   4.917 -1.0321 -0.2895 -1.7042
  486MOL0     O64023   3.605   5.997   4.778 -0.3729 -0.0640 -0.2265
  486MOL0     C64024   3.524   6.078   4.713  0.3874 -0.3400  0.2433
  486MOL0     C64025   3.555   6.068   4.576 -0.0269  0.8182 -0.1400
  486MOL0     C64026   3.484   6.121   4.476  0.7693 -0.1806  0.1691
  486MOL0     C64027   3.369   6.183   4.506  0.9944 -0.0832  0.3600
  486MOL0     O64028   3.281   6.226   4.410  0.1320  0.4367 -0.2202
  486MOL0     C64029   3.320   6.269   4.273  0.6447 -0.3858  0.1992
  486MOL0     C64030   3.239   6.383   4.205  0.5436 -1.7656  0.5172
  486MOL0     C64031   3.266   6.516   4.281  0.2775 -0.3383 -0.1287
  486MOL0     C64032   3.169   6.628   4.221  0.7577 -0.5930  0.0757
  486MOL0     C64033   3.178   6.756   4.301  0.7032  0.1707 -0.6818
  486MOL0     C64034   3.084   6.853   4.232 -0.6989 -0.4792  0.7997
  486MOL0     C64035   3.143   6.947   4.122  0.3563  0.1115  0.4372
  486MOL0     C64036   3.026   7.007   4.033 -1.4246 -0.6510 -0.4910
  486MOL0     N64037   3.080   7.080   3.914 -0.6016 -0.2856  0.0263
  486MOL0     C64038   3.207   7.141   3.892 -0.3492 -0.5166  0.0508
  486MOL0     C64039   3.197   7.233   3.791  0.2553 -0.5908 -0.0148
  486MOL0     C64040   3.304   7.332   3.746  0.9633  0.2535 -0.4824
  486MOL0     C64041   3.260   7.402   3.615  0.0314 -0.2445 -0.1398
  486MOL0     C64042   3.239   7.310   3.493  0.3262 -0.0335  0.5369
  486MOL0     C64043   3.369   7.267   3.436 -1.1321  0.1278 -0.3091
  486MOL0     O64044   3.443   7.371   3.387 -0.5974 -0.7952 -0.4003
  486MOL0     C64045   3.469   7.378   3.254  0.8760  0.4903  0.1140
  486MOL0     C64046   3.372   7.341   3.159 -0.4053 -0.6450  0.3038
  486MOL0     C64047   3.404   7.348   3.018 -0.2831 -1.0622 -0.7457
  486MOL0     C64048   3.534   7.397   2.972  0.3220 -0.0580  0.3612
  486MOL0     C64049   3.562   7.435   2.835  0.0277  0.4015  0.5202
  486MOL0     O64050   3.453   7.415   2.753 -0.1907  0.7551  0.6874
  486MOL0     C64051   3.447   7.420   2.616 -0.9849 -0.5293 -0.7071
  486MOL0     C64052   3.548   7.466   2.531  0.3115  0.8930 -0.3538
  486MOL0     C64053   3.533   7.476   2.389  0.4636 -0.7453 -0.7437
  486MOL0     C64054   3.403   7.452   2.343  1.3180 -0.5269  0.4784
  486MOL0     O64055   3.396   7.427   2.208  0.4583  1.0865  0.0787
  486MOL0     C64056   3.281   7.373   2.138 -0.7601 -0.4966 -0.0431
  486MOL0     C64057   3.325   7.344   2.001  0.8705 -0.0553 -0.4911
  486MOL0     C64058   3.345   7.471   1.900 -1.0095 -0.1387  0.2619
  486MOL0     C64059   3.218   7.517   1.850  0.3893 -0.3127  0.1562
  486MOL0     C64060   3.243   7.611   1.732 -0.0091  0.8063 -0.2194
  486MOL0     C64061   3.119   7.659   1.660 -0.3722  0.5502  0.0277
  486MOL0     C64062   3.169   7.734   1.545  0.0667 -0.1495  0.6185
  486MOL0     C64063   3.085   7.866   1.513 -0.6120 -0.2934 -0.0371
  486MOL0    Cl64064   2.931   7.811   1.457  0.2051 -0.4331  0.1791
  486MOL0     C64065   3.303   7.419   2.431  0.8520  0.0673  0.1789
  486MOL0     C64066   3.327   7.404   2.567  1.1958 -0.5894  0.1312
  486MOL0     O64067   3.664   7.488   2.793 -0.0099 -0.1171 -0.2176
  486MOL0     C64068   3.626   7.429   3.074  0.5189 -0.2449  1.2796
  486MOL0     C64069   3.590   7.422   3.211  0.2893  0.3583 -0.4776
  486MOL0     N64070   3.069   7.214   3.741  0.6750  0.1810 -0.0814
  486MOL0     N64071   3.001   7.128   3.814 -1.3989 -0.1594  0.2187
  486MOL0     C64072   3.325   6.200   4.641 -0.5604 -0.4519  0.4656
  486MOL0     C64073   3.401   6.146   4.752 -0.7084 -0.3684  0.6698
  486MOL0     C64074   3.701   5.880   4.961  0.3258 -0.1780  1.3056
  486MOL0     C64075   3.705   5.849   5.098 -0.1779  1.0641  0.0907
  486MOL0     C64076   3.806   5.755   5.152 -0.5598 -0.3481 -0.0602
  486MOL0     C64077   3.902   5.713   5.063  0.5591 -0.7953  0.2236
  486MOL0     O64078   4.008   5.646   5.125 -0.3358 -0.0223  0.4846
  486MOL0     C64079   4.132   5.692   5.079  0.1386  0.2573 -0.6517
  486MOL0     C64080   4.192   5.800   5.165  0.1377 -0.4159  1.1111
  486MOL0     C64081   4.339   5.833   5.129 -0.6111 -0.0742 -0.2445
  486MOL0     C64082   4.428   5.736   5.198 -0.2252  0.4605 -0.4895
  486MOL0     C64083   4.454   5.725   5.343  0.4183  0.9655  0.0346
  486MOL0     C64084   4.475   5.721   5.460 -0.6081  0.2688 -0.2922
  486MOL0     C64085   3.897   5.742   4.926  0.5588 -0.0689  0.1420
  486MOL0     C64086   3.789   5.821   4.875 -0.3134  0.7442  0.1736
  486MOL0     H64087   3.647   6.016   4.553  2.0658  4.1984 -0.0338
  486MOL0     H64088   3.507   6.117   4.370 -1.1939 -0.0949 -0.3049
  486MOL0     H64089   3.303   6.180   4.211 -3.0982 -2.1903  3.3680
  486MOL0     H64090   3.425   6.300   4.271  0.2230  1.0547 -1.9587
  486MOL0     H64091   3.133   6.363   4.190  0.1600  0.8599 -0.9565
  486MOL0     H64092   3.269   6.400   4.101 -0.7614  1.0879  0.5257
  486MOL0     H64093   3.370   6.547   4.264 -0.7272  3.7182  0.1281
  486MOL0     H64094   3.228   6.506   4.382 -5.2558 -3.9462 -2.1370
  486MOL0     H64095   3.195   6.652   4.118  0.7253 -0.5263  0.0824
  486MOL0     H64096   3.068   6.585   4.216  0.0325 -0.0930  5.0518
  486MOL0     H64097   3.275   6.805   4.310 -0.7764  3.4442 -1.2044
  486MOL0     H64098   3.132   6.745   4.400 -0.1102  1.4380 -0.9026
  486MOL0     H64099   3.052   6.933   4.299  0.4087 -0.1197  0.9202
  486MOL0     H64100   2.990   6.806   4.199 -1.1071  1.2307 -0.6410
  486MOL0     H64101   3.204   7.024   4.168  1.6265 -0.1898 -0.6778
  486MOL0     H64102   3.214   6.891   4.060 -2.1685 -1.4084 -1.3301
  486MOL0     H64103   2.965   7.080   4.087  0.5119  1.2028 -0.6863
  486MOL0     H64104   2.960   6.934   3.985 -1.9009  0.5703 -1.7676
  486MOL0     H64105   3.294   7.129   3.956  2.4771 -1.5968 -3.6723
  486MOL0     H64106   3.393   7.274   3.719 -1.1339 -2.0881 -2.9958
  486MOL0     H64107   3.334   7.402   3.824 -0.4821  0.2042  0.1423
  486MOL0     H64108   3.334   7.478   3.588  0.7020  0.2097  2.6235
  486MOL0     H64109   3.160   7.442   3.633  0.8438  1.0294  1.9666
  486MOL0     H64110   3.164   7.235   3.520 -2.8757  1.7476 -2.5333
  486MOL0     H64111   3.193   7.356   3.405 -0.0717  0.5922  1.0631
  486MOL0     H64112   3.357   7.189   3.360 -0.8806 -0.6069  0.3849
  486MOL0     H64113   3.428   7.215   3.512 -0.1581  0.0214 -1.1232
  486MOL0     H64114   3.280   7.306   3.206 -0.6179  0.6829  0.9051
  486MOL0     H64115   3.331   7.333   2.939 -1.5591 -0.3219  0.2376
  486MOL0     H64116   3.652   7.478   2.560  1.9296  0.5478 -5.0352
  486MOL0     H64117   3.606   7.507   2.314  1.6978 -0.8385  0.3823
  486MOL0     H64118   3.200   7.446   2.144  0.4021  0.9792 -1.3119
  486MOL0     H64119   3.243   7.280   2.181  1.1982 -1.2093  0.2421
  486MOL0     H64120   3.261   7.269   1.955  2.5746 -0.7550 -1.8523
  486MOL0     H64121   3.426   7.301   2.005  0.6621 -0.5049  0.2882
  486MOL0     H64122   3.414   7.438   1.821 -0.4565 -4.1295  2.1227
  486MOL0     H64123   3.395   7.550   1.956  3.2460 -1.0869 -1.7421
  486MOL0     H64124   3.164   7.427   1.818 -1.6164  1.4651 -1.8006
  486MOL0     H64125   3.161   7.577   1.922  0.0837  1.5118 -1.5272
  486MOL0     H64126   3.322   7.582   1.663  2.4253  3.6863  1.1363
  486MOL0     H64127   3.290   7.703   1.767  1.1562  0.4464 -0.7955
  486MOL0     H64128   3.057   7.721   1.724  0.5305  0.1835  1.2948
  486MOL0     H64129   3.065   7.569   1.629  1.7430 -1.3998  1.6196
  486MOL0     H64130   3.272   7.770   1.544 -0.2506  0.8490 -1.5160
  486MOL0     H64131   3.161   7.660   1.465  1.7150  0.4377 -0.1456
  486MOL0     H64132   3.139   7.934   1.448  0.5673 -0.6713  0.5239
  486MOL0     H64133   3.070   7.915   1.610 -2.4605 -1.5083  0.3444
  486MOL0     H64134   3.208   7.390   2.386  1.1459  0.2069 -0.5515
  486MOL0     H64135   3.245   7.378   2.634 -1.8619  3.5878 -1.4633
  486MOL0     H64136   3.721   7.467   3.038  1.3679 -0.5464  3.1267
  486MOL0     H64137   3.654   7.448   3.295  3.0775 -1.5482 -1.8725
  486MOL0     H64138   3.234   6.254   4.663  0.4776  2.9704 -2.6314
  486MOL0     H64139   3.380   6.166   4.857  1.7891  1.0585  0.9644
  486MOL0     H64140   3.628   5.867   5.172 -0.3636 -2.7559  1.0536
  486MOL0     H64141   3.792   5.724   5.255 -0.7010  1.4248  0.5014
  486MOL0     H64142   4.135   5.711   4.972 -1.2346  0.5167 -0.6615
  486MOL0     H64143   4.200   5.608   5.096  0.8407  1.3760  2.9809
  486MOL0     H64144   4.130   5.890   5.167 -1.6288 -1.5982  2.6283
  486MOL0     H64145   4.178   5.763   5.267  0.1671 -1.5718  0.7106
  486MOL0     H64146   4.366   5.934   5.164 -2.9969  0.7565 -0.5940
  486MOL0     H64147   4.368   5.831   5.023 -1.8698 -0.6899 -0.5931
  486MOL0     H64148   4.405   5.635   5.163 -0.3413 -0.1040  1.1603
  486MOL0     H64149   4.525   5.757   5.151  0.3254 -0.1044  0.3679
  486MOL0     H64150   4.468   5.739   5.565  1.2152  2.4328 -0.4718
  486MOL0     H64151   3.970   5.698   4.858 -2.3863  2.4209 -5.3110
  486MOL0     H64152   3.793   5.827   4.767  2.8260 -2.3381 -0.0642
  487MOL0     O64153   7.824   9.419   7.845 -0.0656  0.0692  0.3347
  487MOL0     C64154   7.734   9.329   7.832  0.3319  0.3030 -0.2996
  487MOL0     O64155   7.664   9.262   7.924  0.8814  0.5358  0.4767
  487MOL0     C64156   7.680   9.269   8.061 -0.6382  0.1152  0.1892
  487MOL0     C64157   7.604   9.189   8.145  0.9240 -0.1317 -0.0670
  487MOL0     C64158   7.591   9.215   8.284 -0.1794  0.2289 -0.0974
  487MOL0     C64159   7.660   9.322   8.341  0.0415  0.3897 -0.0922
  487MOL0     O64160   7.635   9.344   8.474 -0.0567 -0.0787 -0.0078
  487MOL0     C64161   7.724   9.428   8.548 -0.9938 -0.3492  0.8674
  487MOL0     C64162   7.692   9.405   8.702  0.1579  1.1465 -0.3397
  487MOL0     C64163   7.536   9.396   8.729  0.5266  1.0816 -0.2215
  487MOL0     C64164   7.454   9.510   8.677 -1.2094  0.5005 -0.5713
  487MOL0     C64165   7.322   9.522   8.756  0.5159 -0.2608 -0.1769
  487MOL0     C64166   7.246   9.639   8.711 -0.2279  0.0290  0.2259
  487MOL0     C64167   7.096   9.633   8.742 -0.5035  0.0471  0.0247
  487MOL0     C64168   7.047   9.774   8.727 -0.1032  0.7424  0.7230
  487MOL0     N64169   6.913   9.793   8.783  0.3917  0.7206 -0.2740
  487MOL0     C64170   6.858   9.743   8.897  0.3648  1.0228  0.2680
  487MOL0     C64171   6.723   9.777   8.909 -0.4036 -0.7856 -0.1246
  487MOL0     C64172   6.637   9.719   9.011  0.1061  0.3258 -1.2623
  487MOL0     C64173   6.570   9.596   8.956 -0.4633 -1.0241 -0.0365
  487MOL0     C64174   6.512   9.500   9.053  0.0802 -0.6823 -0.3499
  487MOL0     C64175   6.365   9.537   9.076 -0.1509  0.0705  0.9002
  487MOL0     O64176   6.309   9.499   9.203 -0.5792  0.0095  0.1421
  487MOL0     C64177   6.268   9.367   9.237  0.6406 -0.8015  0.5114
  487MOL0     C64178   6.222   9.271   9.153  0.7106 -0.4111  0.5398
  487MOL0     C64179   6.154   9.150   9.176  0.0691  0.5811  0.3964
  487MOL0     C64180   6.152   9.106   9.313  0.1340 -0.2106 -0.0121
  487MOL0     C64181   6.115   8.968   9.341 -0.6450 -0.3425 -0.2960
  487MOL0     O64182   6.035   8.913   9.253 -0.0267 -0.3614  0.7033
  487MOL0     C64183   6.022   8.778   9.243 -0.4013 -0.5573 -0.4441
  487MOL0     C64184   6.124   8.689   9.252 -0.3442  0.0082 -0.0011
  487MOL0     C64185   6.105   8.556   9.216  1.2152  0.6690 -0.7644
  487MOL0     C64186   5.977   8.514   9.168 -0.7889 -0.3421 -0.6399
  487MOL0     O64187   5.966   8.380   9.161  0.2544  0.2249  0.2865
  487MOL0     C64188   5.848   8.314   9.115  0.5784  0.9578  0.2696
  487MOL0     C64189   5.843   8.161   9.146 -0.4736  0.3560  0.4628
  487MOL0     C64190   5.922   8.063   9.048 -0.6983 -0.3028 -0.1660
  487MOL0     C64191   5.931   7.916   9.096 -0.2541  1.1285 -0.9068
  487MOL0     C64192   6.020   7.816   9.022 -0.2808 -0.2493  0.3506
  487MOL0     C64193   5.979   7.670   9.062  0.0215 -0.7972  0.7473
  487MOL0     C64194   6.036   7.571   8.967 -0.7680 -0.2926 -1.0768
  487MOL0     C64195   6.187   7.564   8.974  0.2983 -0.3754  0.1348
  487MOL0    Cl64196   6.251   7.434   8.868 -0.0302  0.0772  0.3928
  487MOL0     C64197   5.867   8.614   9.155  0.9560  0.6403  0.4186
  487MOL0     C64198   5.893   8.742   9.201 -0.0228  0.4133 -0.2390
  487MOL0     O64199   6.164   8.913   9.437 -0.1179  0.2964 -0.1147
  487MOL0     C64200   6.218   9.193   9.403 -0.2388 -0.3172  0.2442
  487MOL0     C64201   6.259   9.325   9.365 -0.4496 -0.4098 -0.8063
  487MOL0     N64202   6.706   9.856   8.796 -0.4434  0.4983 -0.4581
  487MOL0     N64203   6.812   9.861   8.724  0.0892 -0.6884 -0.0628
  487MOL0     C64204   7.748   9.396   8.259 -0.1095  0.0794 -0.8768
  487MOL0     C64205   7.760   9.359   8.123  0.1154 -0.7587 -0.8434
  487MOL0     C64206   7.698   9.308   7.693  0.1503  0.2194  0.1189
  487MOL0     C64207   7.592   9.217   7.665 -1.0428 -0.1583  0.4705
  487MOL0     C64208   7.567   9.175   7.534  0.0941 -0.3306  0.2928
  487MOL0     C64209   7.634   9.236   7.429 -0.5659  0.2505  0.3533
  487MOL0     O64210   7.598   9.190   7.302 -0.6231 -0.1266 -0.2679
  487MOL0     C64211   7.564   9.307   7.232  0.8117  0.9709  0.7879
  487MOL0     C64212   7.473   9.275   7.119  0.7688 -0.8939 -0.0042
  487MOL0     C64213   7.455   9.400   7.021  0.4833 -0.2562 -0.6997
  487MOL0     C64214   7.359   9.349   6.914 -0.4132  0.8202  0.2047
  487MOL0     C64215   7.296   9.464   6.855 -0.2158 -0.8314 -0.0577
  487MOL0     C64216   7.223   9.558   6.824  0.7929  0.7431 -0.2709
  487MOL0     C64217   7.728   9.336   7.450  0.4516  0.1958  0.3997
  487MOL0     C64218   7.769   9.367   7.585 -0.1230 -0.0393  0.5639
  487MOL0     H64219   7.547   9.105   8.105  1.7057  0.1714 -1.9396
  487MOL0     H64220   7.534   9.146   8.346 -1.3736 -1.1412 -2.5557
  487MOL0     H64221   7.708   9.531   8.513 -0.3390 -0.2247  0.9259
  487MOL0     H64222   7.829   9.398   8.539 -1.5221 -1.7029 -2.9907
  487MOL0     H64223   7.745   9.482   8.758 -0.7833  0.7580  1.1402
  487MOL0     H64224   7.728   9.305   8.729 -2.6099  0.0542 -0.3612
  487MOL0     H64225   7.518   9.376   8.835 -4.2108 -0.8226 -1.1551
  487MOL0     H64226   7.504   9.306   8.675 -1.9183  2.5119 -1.3093
  487MOL0     H64227   7.506   9.605   8.698  1.3593 -0.2422 -3.0726
  487MOL0     H64228   7.421   9.496   8.574 -3.6049 -1.6952  0.3760
  487MOL0     H64229   7.329   9.528   8.865 -4.8672 -0.3376  0.4385
  487MOL0     H64230   7.263   9.433   8.733 -1.0028  0.0435  2.1912
  487MOL0     H64231   7.256   9.640   8.602  1.6093 -0.5667  0.3528
  487MOL0     H64232   7.289   9.728   8.757  1.2119 -2.1019  3.3028
  487MOL0     H64233   7.044   9.564   8.675  0.2016  1.5443 -2.1569
  487MOL0     H64234   7.078   9.602   8.845  1.7044 -1.8301 -0.0536
  487MOL0     H64235   7.023   9.798   8.623 -1.4724  1.6568  1.2193
  487MOL0     H64236   7.116   9.850   8.766 -0.2185  1.0461  0.3435
  487MOL0     H64237   6.908   9.661   8.947 -3.5766 -2.4771 -0.9413
  487MOL0     H64238   6.551   9.784   9.027  0.2444 -0.1822  2.2147
  487MOL0     H64239   6.683   9.697   9.108  0.2490  0.4273 -1.3062
  487MOL0     H64240   6.635   9.530   8.899  0.8174  0.2016 -0.0576
  487MOL0     H64241   6.499   9.624   8.877 -0.1097 -0.1186 -0.0446
  487MOL0     H64242   6.517   9.401   9.007  0.7888 -0.7889 -0.0547
  487MOL0     H64243   6.569   9.491   9.146 -0.4016  0.2556  0.0607
  487MOL0     H64244   6.310   9.491   8.993  0.4810  0.4882  0.2403
  487MOL0     H64245   6.355   9.642   9.047  0.7716  0.1718  0.9385
  487MOL0     H64246   6.228   9.298   9.048  0.9549  1.0738  0.9191
  487MOL0     H64247   6.098   9.110   9.091 -2.3186  1.8833  1.2619
  487MOL0     H64248   6.223   8.723   9.284 -0.4078  1.4440 -1.2146
  487MOL0     H64249   6.182   8.480   9.211 -0.5071 -1.4990  2.3862
  487MOL0     H64250   5.845   8.322   9.006  0.9189  1.3710  0.2892
  487MOL0     H64251   5.764   8.371   9.155 -0.1325  1.8263 -2.2414
  487MOL0     H64252   5.741   8.127   9.166  0.4342 -2.5535  0.7023
  487MOL0     H64253   5.900   8.144   9.238 -3.0725 -3.1606  1.6313
  487MOL0     H64254   6.016   8.111   9.018  1.7611 -3.4269  1.9285
  487MOL0     H64255   5.857   8.064   8.960 -2.9627  0.6039  1.4390
  487MOL0     H64256   5.995   7.935   9.183  2.0436  4.3426 -3.0659
  487MOL0     H64257   5.838   7.864   9.118  0.7309 -0.1119  0.5083
  487MOL0     H64258   6.128   7.828   9.036 -0.1913  1.2194 -1.2702
  487MOL0     H64259   6.009   7.831   8.914 -0.2814 -1.1897  0.2184
  487MOL0     H64260   5.870   7.658   9.056 -0.1137  1.0200 -2.1383
  487MOL0     H64261   6.008   7.645   9.164  0.0527 -1.7112  0.5274
  487MOL0     H64262   6.017   7.465   8.986  1.2902 -0.6669 -0.9152
  487MOL0     H64263   5.998   7.610   8.872  3.3858  1.3740 -2.2787
  487MOL0     H64264   6.220   7.540   9.076 -0.0166  0.7305  0.5174
  487MOL0     H64265   6.239   7.658   8.950  1.6455 -1.4972 -1.5382
  487MOL0     H64266   5.769   8.576   9.124  0.4418 -0.7113  3.3913
  487MOL0     H64267   5.818   8.821   9.202  0.8088  1.2185  0.0125
  487MOL0     H64268   6.238   9.170   9.507  3.4771  1.7769  0.1824
  487MOL0     H64269   6.274   9.402   9.440  2.2673  1.9534 -3.4639
  487MOL0     H64270   7.816   9.466   8.306 -2.5069  0.8001  1.8622
  487MOL0     H64271   7.830   9.420   8.067 -0.8625 -1.9891 -3.5710
  487MOL0     H64272   7.536   9.163   7.740 -0.3910 -2.3312 -0.5418
  487MOL0     H64273   7.504   9.093   7.499  1.1475 -0.0612 -2.5362
  487MOL0     H64274   7.656   9.343   7.185  0.8489  2.6034  2.0294
  487MOL0     H64275   7.526   9.386   7.296  3.7163  0.9417  2.7240
  487MOL0     H64276   7.511   9.198   7.052  0.4250  0.4976 -1.8952
  487MOL0     H64277   7.374   9.244   7.154 -1.4651  3.8516 -1.2831
  487MOL0     H64278   7.546   9.442   6.977  0.4291 -0.8444 -1.3871
  487MOL0     H64279   7.407   9.484   7.071  0.6353  1.4936 -3.3082
  487MOL0     H64280   7.407   9.303   6.827 -1.0264 -0.9578  0.7753
  487MOL0     H64281   7.286   9.275   6.947 -0.8052  0.5560 -1.1728
  487MOL0     H64282   7.152   9.633   6.794  1.7938  1.6108 -0.5356
  487MOL0     H64283   7.765   9.385   7.360 -2.6740  1.3817 -0.3406
  487MOL0     H64284   7.844   9.444   7.596 -1.7769  1.9596 -1.1894
  488MOL0     O64285   6.938   4.176   9.882 -0.6080 -0.7877  0.0257
  488MOL0     C64286   6.888   4.080   9.825  0.5128 -0.7262  0.5457
  488MOL0     O64287   6.786   4.095   9.738  0.1738 -0.1512 -0.2283
  488MOL0     C64288   6.729   4.219   9.723  0.5337 -0.5678 -0.3638
  488MOL0     C64289   6.666   4.267   9.834 -0.1714 -0.7402 -0.9431
  488MOL0     C64290   6.567   4.364   9.831 -0.1329 -0.5015  0.7653
  488MOL0     C64291   6.535   4.426   9.714 -0.3514 -1.0095  0.3646
  488MOL0     O64292   6.449   4.527   9.694 -0.1617 -0.0406 -0.3334
  488MOL0     C64293   6.327   4.513   9.756 -1.0552  0.1959  0.2748
  488MOL0     C64294   6.249   4.645   9.752 -0.3141  0.1328  0.3675
  488MOL0     C64295   6.101   4.618   9.803 -0.4833 -1.4892  0.1207
  488MOL0     C64296   6.018   4.756   9.790  0.2515  0.2112  0.1286
  488MOL0     C64297   5.880   4.735   9.859  0.7387  0.6241 -0.3302
  488MOL0     C64298   5.802   4.603   9.840  0.1010  1.0718 -0.4469
  488MOL0     C64299   5.647   4.625   9.830  0.3207  0.0975 -0.0695
  488MOL0     C64300   5.592   4.677   9.959  0.4425 -0.1278 -0.1096
  488MOL0     N64301   5.584   4.587  10.075  0.6716 -0.4961 -0.3303
  488MOL0     C64302   5.510   4.464  10.059  0.3886  0.1410  0.1515
  488MOL0     C64303   5.562   4.389  10.156  0.6310 -1.6176 -0.5796
  488MOL0     C64304   5.534   4.234  10.161  0.0623  0.6855  0.9973
  488MOL0     C64305   5.405   4.200  10.240  0.0764 -0.0659  0.8478
  488MOL0     C64306   5.435   4.239  10.384 -0.0820 -0.1693  0.3960
  488MOL0     C64307   5.328   4.207  10.486 -0.2582  0.7106  1.2841
  488MOL0     O64308   5.225   4.296  10.463 -0.0602 -0.5614  0.1246
  488MOL0     C64309   5.198   4.411  10.528 -0.3001 -0.1395 -0.5903
  488MOL0     C64310   5.282   4.473  10.623 -0.3778  0.0742  0.1974
  488MOL0     C64311   5.242   4.597  10.675  0.3903 -0.5734  0.7223
  488MOL0     C64312   5.117   4.656  10.625 -0.4427 -1.1254  1.1564
  488MOL0     C64313   5.077   4.791  10.657 -0.6804  0.3237  0.0234
  488MOL0     O64314   5.156   4.844  10.760 -0.1184  0.4457  0.0752
  488MOL0     C64315   5.126   4.980  10.783 -0.2303 -0.8127 -0.4558
  488MOL0     C64316   5.209   5.080  10.727  0.3542 -0.0455 -0.6991
  488MOL0     C64317   5.174   5.213  10.736 -0.0435 -0.4296  0.7050
  488MOL0     C64318   5.060   5.262  10.797 -1.2935  0.6053 -0.0935
  488MOL0     O64319   5.044   5.399  10.804 -0.2409  0.5622 -0.6425
  488MOL0     C64320   4.980   5.454  10.922 -1.0413  0.9468  0.5247
  488MOL0     C64321   4.974   5.609  10.889  0.9300  0.7620  0.8279
  488MOL0     C64322   4.914   5.692  11.001  0.4630  0.2070  0.6309
  488MOL0     C64323   4.940   5.850  10.995  0.0242  0.5093 -0.6006
  488MOL0     C64324   4.886   5.911  11.129 -1.1257  0.3865 -0.6263
  488MOL0     C64325   4.887   6.071  11.132  0.4704  0.0344 -0.8016
  488MOL0     C64326   4.845   6.139  11.266  0.7469  0.3005 -0.0840
  488MOL0     C64327   4.926   6.092  11.380  0.0931  0.2584  0.6377
  488MOL0    Cl64328   4.878   6.196  11.519 -0.3203  0.0882  0.3596
  488MOL0     C64329   4.984   5.168  10.863 -0.5251 -0.5740 -0.4945
  488MOL0     C64330   5.013   5.025  10.848  1.2215 -0.6552  0.5479
  488MOL0     O64331   4.978   4.844  10.607  0.2860  0.5324 -0.3414
  488MOL0     C64332   5.036   4.587  10.529 -0.8108 -0.9517 -0.4260
  488MOL0     C64333   5.075   4.467  10.485  0.3789 -0.7107 -1.3668
  488MOL0     N64334   5.657   4.448  10.221  0.1647  0.4285 -0.1103
  488MOL0     N64335   5.684   4.565  10.161  0.2902 -0.2284 -0.0637
  488MOL0     C64336   6.618   4.398   9.599  0.5331  0.0235  0.4493
  488MOL0     C64337   6.713   4.291   9.608 -0.1138  0.6137  0.6534
  488MOL0     C64338   6.953   3.953   9.845 -0.8887  0.7079  0.4013
  488MOL0     C64339   6.920   3.836   9.773  0.4374  0.4099 -0.3716
  488MOL0     C64340   6.964   3.712   9.807 -0.1011  1.0680 -0.0474
  488MOL0     C64341   7.039   3.685   9.925 -0.2804 -1.3221  0.0109
  488MOL0     O64342   7.090   3.562   9.957 -0.1680  0.2252 -0.2213
  488MOL0     C64343   7.035   3.439   9.906 -0.0867 -0.1259  0.1564
  488MOL0     C64344   6.910   3.416   9.985  0.0690  0.8296 -0.8781
  488MOL0     C64345   6.948   3.384  10.126  0.4827 -0.3072 -0.0900
  488MOL0     C64346   6.822   3.325  10.194  0.2530 -0.1607 -1.1409
  488MOL0     C64347   6.835   3.314  10.342 -0.6507 -0.3505  0.1013
  488MOL0     C64348   6.870   3.309  10.455 -0.1592  0.9807  0.1349
  488MOL0     C64349   7.090   3.800   9.992 -0.1202  0.1735  0.2460
  488MOL0     C64350   7.045   3.930   9.958  0.8517 -0.1798  0.1046
  488MOL0     H64351   6.698   4.234   9.933 -1.0326 -1.7214 -0.9677
  488MOL0     H64352   6.513   4.373   9.925 -2.3094  1.2312 -0.5636
  488MOL0     H64353   6.342   4.487   9.862  0.7532 -0.0970 -0.0320
  488MOL0     H64354   6.278   4.436   9.696 -1.6157  1.1837 -0.5653
  488MOL0     H64355   6.261   4.665   9.645  0.1313 -4.9529 -0.7795
  488MOL0     H64356   6.306   4.713   9.817  1.5009 -2.1776  1.3408
  488MOL0     H64357   6.128   4.590   9.905  2.0346 -5.2446 -1.3857
  488MOL0     H64358   6.058   4.530   9.754  0.0803 -1.4088 -0.5413
  488MOL0     H64359   6.072   4.830   9.849  0.1824  1.1845 -1.0012
  488MOL0     H64360   6.011   4.799   9.690 -2.6141  0.4513  0.3562
  488MOL0     H64361   5.810   4.819   9.846 -0.2410 -0.5552 -3.9539
  488MOL0     H64362   5.908   4.732   9.964 -2.2832 -1.6438  0.5549
  488MOL0     H64363   5.822   4.549   9.933 -2.2916  1.6867  0.5040
  488MOL0     H64364   5.832   4.545   9.752 -1.0311 -0.2406 -0.0013
  488MOL0     H64365   5.610   4.694   9.753  1.2352 -0.4437 -1.0136
  488MOL0     H64366   5.607   4.526   9.806 -1.9735  0.9087  0.1798
  488MOL0     H64367   5.490   4.712   9.944  0.0952 -0.7913  0.6457
  488MOL0     H64368   5.658   4.757   9.997  1.3358 -2.3668  3.6046
  488MOL0     H64369   5.437   4.429   9.988  0.9669 -1.7974  0.4410
  488MOL0     H64370   5.621   4.199  10.218  0.0030  2.0170  1.9488
  488MOL0     H64371   5.524   4.198  10.058 -0.7359  0.2020  1.2316
  488MOL0     H64372   5.397   4.091  10.230  2.7994 -0.1522 -2.3406
  488MOL0     H64373   5.318   4.256  10.207 -2.8097 -2.1981  4.1221
  488MOL0     H64374   5.530   4.201  10.425 -0.4019 -1.3126  0.0999
  488MOL0     H64375   5.445   4.347  10.399 -0.0853 -0.3470  1.8919
  488MOL0     H64376   5.363   4.210  10.589 -0.0052 -1.0637  1.2748
  488MOL0     H64377   5.282   4.111  10.460  1.4189  0.9230 -3.6473
  488MOL0     H64378   5.373   4.426  10.660 -1.0288 -0.8555  0.6778
  488MOL0     H64379   5.299   4.634  10.760  2.2460 -0.0659 -0.6830
  488MOL0     H64380   5.299   5.057  10.670  1.9406  1.6619  0.9856
  488MOL0     H64381   5.253   5.277  10.698 -0.0832 -0.2110  0.9870
  488MOL0     H64382   5.036   5.429  11.012 -1.8299  2.4731  1.4900
  488MOL0     H64383   4.881   5.411  10.942 -0.7975 -1.0823 -2.1248
  488MOL0     H64384   4.911   5.627  10.801  0.0656 -1.8799  0.8382
  488MOL0     H64385   5.070   5.655  10.864  0.7655  0.9913  0.6037
  488MOL0     H64386   4.930   5.653  11.102 -0.4805  0.7963  1.0231
  488MOL0     H64387   4.806   5.696  10.981  0.4568  0.8493  0.7872
  488MOL0     H64388   5.043   5.884  10.984 -0.1316  0.7297 -1.5271
  488MOL0     H64389   4.882   5.900  10.916 -0.7115 -1.0702 -1.0913
  488MOL0     H64390   4.962   5.881  11.201 -0.3466 -3.2328 -2.7216
  488MOL0     H64391   4.800   5.853  11.162  0.0397  0.5016  2.9889
  488MOL0     H64392   4.812   6.090  11.055 -0.4833 -2.4669 -0.5795
  488MOL0     H64393   4.981   6.120  11.108  1.0880  1.6523  3.8430
  488MOL0     H64394   4.856   6.247  11.252  0.5977  0.0866 -2.2233
  488MOL0     H64395   4.738   6.117  11.275  0.6875 -0.2440 -1.7435
  488MOL0     H64396   5.033   6.097  11.360  0.8475  1.6568  4.2165
  488MOL0     H64397   4.904   5.989  11.408  0.5442 -0.2843 -0.9094
  488MOL0     H64398   4.892   5.202  10.910 -0.7973 -2.4269  0.4369
  488MOL0     H64399   4.942   4.952  10.886 -0.9035 -0.0956 -2.0066
  488MOL0     H64400   4.956   4.641  10.479  0.1607  0.8859 -0.0723
  488MOL0     H64401   5.018   4.413  10.409  0.2347 -1.4440 -0.7532
  488MOL0     H64402   6.609   4.449   9.504 -0.2370  2.1601  1.5736
  488MOL0     H64403   6.775   4.269   9.521  1.9812  0.0639  2.2292
  488MOL0     H64404   6.861   3.858   9.685  1.2191  3.9662 -0.1905
  488MOL0     H64405   6.948   3.640   9.728  2.1386  0.5562 -0.0919
  488MOL0     H64406   7.106   3.356   9.912  1.0394  0.9102  2.3684
  488MOL0     H64407   7.002   3.459   9.803  0.9460  2.6891  0.2818
  488MOL0     H64408   6.835   3.496   9.973 -0.7034  0.2153 -0.2157
  488MOL0     H64409   6.868   3.321   9.953 -0.2569 -1.1063  4.3515
  488MOL0     H64410   6.988   3.474  10.174  1.2439 -0.7462  0.1092
  488MOL0     H64411   7.033   3.316  10.134  1.5987  1.1065  0.3518
  488MOL0     H64412   6.742   3.387  10.151  0.5164 -0.5499 -2.2236
  488MOL0     H64413   6.794   3.230  10.148 -3.0971 -0.2827  0.8177
  488MOL0     H64414   6.912   3.312  10.553  3.9206 -2.6642 -1.1885
  488MOL0     H64415   7.156   3.784  10.077 -1.0145 -3.3485  0.4502
  488MOL0     H64416   7.071   4.014  10.022 -0.9161 -1.1383  2.2071
  489MOL0     O64417   3.532  10.400   8.934  0.0872  0.7678 -0.3824
  489MOL0     C64418   3.438  10.343   8.995  0.8368 -0.7032  0.3464
  489MOL0     O64419   3.387  10.380   9.113 -0.5790 -0.5666  0.8329
  489MOL0     C64420   3.444  10.476   9.192  0.1786  0.8727  0.9158
  489MOL0     C64421   3.440  10.611   9.153 -0.5492  0.2513 -0.0099
  489MOL0     C64422   3.521  10.713   9.220  0.1005  0.0864 -0.1203
  489MOL0     C64423   3.590  10.673   9.334  0.1620  0.3358  0.0218
  489MOL0     O64424   3.643  10.766   9.407 -0.2566 -0.0461  0.2689
  489MOL0     C64425   3.588  10.904   9.396 -0.3100 -0.2664  0.0047
  489MOL0     C64426   3.634  10.999   9.506 -0.0483 -0.1944 -0.1483
  489MOL0     C64427   3.785  11.003   9.509 -0.3778  0.0491 -1.0353
  489MOL0     C64428   3.830  11.058   9.649 -1.7208 -0.0818 -1.4455
  489MOL0     C64429   3.997  11.066   9.654  0.0195  0.4288 -0.2678
  489MOL0     C64430   4.047  10.927   9.682 -0.3444  0.1438 -0.0699
  489MOL0     C64431   4.201  10.933   9.668  0.3680 -0.6511 -0.2605
  489MOL0     C64432   4.275  11.021   9.776  0.7790  0.3644 -0.2745
  489MOL0     N64433   4.415  11.014   9.764 -0.1739  0.2579 -0.0387
  489MOL0     C64434   4.500  11.078   9.672 -0.2718 -0.3054 -0.9767
  489MOL0     C64435   4.626  11.049   9.716  0.3478 -0.2101  0.1169
  489MOL0     C64436   4.760  11.088   9.658  0.4056 -0.2045 -1.1629
  489MOL0     C64437   4.822  11.196   9.755 -0.4734  0.8473  0.1635
  489MOL0     C64438   4.973  11.230   9.718 -0.0319  0.1810 -0.3565
  489MOL0     C64439   4.995  11.313   9.592 -0.7974 -0.5302  0.4535
  489MOL0     O64440   5.125  11.362   9.558  0.2951 -0.4399  0.0511
  489MOL0     C64441   5.222  11.269   9.552  0.4468 -0.2321  0.9928
  489MOL0     C64442   5.352  11.309   9.582  0.0732 -0.5978 -0.1717
  489MOL0     C64443   5.456  11.216   9.580  0.4456 -0.1610  0.2870
  489MOL0     C64444   5.430  11.077   9.585  0.0794 -0.1507 -0.6085
  489MOL0     C64445   5.529  10.982   9.609 -0.4898  0.1990  0.4180
  489MOL0     O64446   5.658  11.004   9.545 -0.4189  0.0006 -0.1383
  489MOL0     C64447   5.746  10.898   9.533 -0.2776  0.2456  0.9654
  489MOL0     C64448   5.817  10.886   9.421  0.0473 -1.0717 -0.0418
  489MOL0     C64449   5.931  10.807   9.423 -1.0037  0.1302  0.1150
  489MOL0     C64450   5.969  10.729   9.533  0.4410 -1.3277  0.5925
  489MOL0     O64451   6.072  10.644   9.528 -0.1536  0.0020 -1.4823
  489MOL0     C64452   6.092  10.553   9.640  0.5484  0.0501  0.1372
  489MOL0     C64453   6.194  10.454   9.587  0.2194 -0.5130 -1.9073
  489MOL0     C64454   6.257  10.376   9.700 -0.5588 -0.8665 -0.1934
  489MOL0     C64455   6.387  10.297   9.650 -0.0429 -0.2916 -0.0575
  489MOL0     C64456   6.438  10.204   9.760 -0.3758  0.0846 -0.5207
  489MOL0     C64457   6.543  10.121   9.707 -0.0032 -0.4003 -0.1447
  489MOL0     C64458   6.609  10.047   9.812 -0.4858 -0.3987  0.1622
  489MOL0     C64459   6.716   9.946   9.771  0.7305  0.5884 -0.3250
  489MOL0    Cl64460   6.764   9.873   9.938  0.3687 -0.0515  0.0862
  489MOL0     C64461   5.902  10.748   9.651  0.5384 -0.9091 -0.5726
  489MOL0     C64462   5.789  10.828   9.649 -1.4415 -0.6562 -0.2664
  489MOL0     O64463   5.504  10.885   9.682  0.4119 -0.2038 -0.3628
  489MOL0     C64464   5.298  11.035   9.555 -0.5339  1.6220  0.3114
  489MOL0     C64465   5.198  11.127   9.537  0.4351  0.0086  0.5864
  489MOL0     N64466   4.612  10.971   9.832 -0.5380 -0.5655  0.3111
  489MOL0     N64467   4.493  10.934   9.843  0.9017 -0.2225 -0.1216
  489MOL0     C64468   3.596  10.538   9.373 -0.3093  0.2702 -0.1736
  489MOL0     C64469   3.528  10.439   9.300 -0.1211 -0.4810 -0.1371
  489MOL0     C64470   3.350  10.252   8.915  0.4303  0.0217 -0.8231
  489MOL0     C64471   3.350  10.252   8.770  0.6521  0.5516  0.2964
  489MOL0     C64472   3.263  10.166   8.696 -0.9916 -0.7867 -0.4835
  489MOL0     C64473   3.197  10.062   8.766 -0.1357 -1.1359  0.6252
  489MOL0     O64474   3.119   9.963   8.710  0.0402  0.3299 -0.7019
  489MOL0     C64475   3.105   9.960   8.576  0.6311  0.6830  0.0716
  489MOL0     C64476   3.201   9.861   8.506  0.6485  0.6337  0.1189
  489MOL0     C64477   3.186   9.712   8.568  0.3913  0.6140 -0.3254
  489MOL0     C64478   3.275   9.630   8.471  0.5225 -0.6849 -0.2237
  489MOL0     C64479   3.417   9.653   8.515 -0.4605 -0.7552 -0.2545
  489MOL0     C64480   3.534   9.689   8.536  0.0601 -0.2324  0.2180
  489MOL0     C64481   3.205  10.062   8.901  0.5058 -0.6314 -1.1433
  489MOL0     C64482   3.279  10.149   8.979  0.1014  0.3455  0.6639
  489MOL0     H64483   3.379  10.631   9.065 -0.3377 -0.2114 -0.2674
  489MOL0     H64484   3.523  10.815   9.183  1.6561  0.2374  0.2904
  489MOL0     H64485   3.479  10.899   9.404 -0.1579 -2.0544  1.5686
  489MOL0     H64486   3.627  10.938   9.300 -0.0317 -2.5041 -0.7179
  489MOL0     H64487   3.598  10.955   9.600  0.4444  1.2776  0.7696
  489MOL0     H64488   3.591  11.100   9.500 -1.1109 -0.6698 -1.0031
  489MOL0     H64489   3.821  11.075   9.436  0.4174  0.7042 -0.0293
  489MOL0     H64490   3.828  10.904   9.492  0.0665  0.3046 -1.4012
  489MOL0     H64491   3.797  11.161   9.666  3.5714  1.3759  2.6249
  489MOL0     H64492   3.794  10.997   9.732  0.5347  3.2688  2.3391
  489MOL0     H64493   4.031  11.131   9.734  2.4957 -1.6500  0.5073
  489MOL0     H64494   4.037  11.110   9.562 -0.6319  4.0693  1.0279
  489MOL0     H64495   4.011  10.859   9.604 -0.0030  0.8160 -0.8345
  489MOL0     H64496   4.026  10.900   9.786  2.6887  0.6556  0.7687
  489MOL0     H64497   4.224  10.827   9.682 -1.8086 -1.6264 -3.0383
  489MOL0     H64498   4.222  10.953   9.563 -1.1271 -1.5639 -0.7656
  489MOL0     H64499   4.239  10.981   9.870  1.2506  0.2689 -0.1333
  489MOL0     H64500   4.262  11.130   9.771  1.3211  0.4582  0.3091
  489MOL0     H64501   4.474  11.143   9.588 -0.8136  0.3447 -0.3248
  489MOL0     H64502   4.753  11.136   9.560  0.2618  0.5459 -0.7906
  489MOL0     H64503   4.819  10.997   9.644 -1.3517 -1.5628 -0.1883
  489MOL0     H64504   4.829  11.144   9.852  1.9396  1.5024  0.3992
  489MOL0     H64505   4.752  11.279   9.755 -4.2975 -2.0599  1.3746
  489MOL0     H64506   5.018  11.290   9.797  2.5138 -0.2005 -1.4049
  489MOL0     H64507   5.026  11.135   9.707  0.6119  0.5639 -0.6144
  489MOL0     H64508   4.930  11.401   9.606  1.0322  0.6009  2.6253
  489MOL0     H64509   4.939  11.272   9.508 -0.9028  2.7848 -1.2917
  489MOL0     H64510   5.373  11.415   9.591 -1.9333 -0.2380  1.0975
  489MOL0     H64511   5.548  11.271   9.593 -1.7912  3.6553  1.5606
  489MOL0     H64512   5.801  10.961   9.345  0.1466  0.8259  1.7317
  489MOL0     H64513   6.000  10.804   9.339  0.7853  1.2771  1.4656
  489MOL0     H64514   6.006  10.491   9.667  1.0163 -1.0712 -0.8418
  489MOL0     H64515   6.125  10.602   9.732  2.3805  2.1135 -1.5211
  489MOL0     H64516   6.267  10.507   9.525 -0.9733  3.5872 -0.1217
  489MOL0     H64517   6.132  10.389   9.524 -2.7368  0.5269 -0.2808
  489MOL0     H64518   6.186  10.311   9.751 -1.9327 -0.4007 -1.4460
  489MOL0     H64519   6.301  10.448   9.770  2.3184  0.8188 -3.4158
  489MOL0     H64520   6.360  10.241   9.560 -0.6633  0.2620 -0.2294
  489MOL0     H64521   6.463  10.368   9.614 -1.0000  0.4544 -0.6580
  489MOL0     H64522   6.353  10.141   9.789  0.8597 -0.8945  1.1862
  489MOL0     H64523   6.475  10.258   9.848 -0.4477 -0.1010 -0.3750
  489MOL0     H64524   6.614  10.183   9.652  1.2201 -2.4383 -0.9942
  489MOL0     H64525   6.494  10.044   9.646  0.1232 -2.4860  2.2115
  489MOL0     H64526   6.661  10.129   9.863  0.6503 -1.1384  0.2328
  489MOL0     H64527   6.542   9.994   9.880  0.0805 -0.3603  0.7573
  489MOL0     H64528   6.801   9.991   9.719  0.7711 -2.3637 -3.0701
  489MOL0     H64529   6.677   9.858   9.720  1.7970  0.4673 -0.9454
  489MOL0     H64530   5.919  10.701   9.747 -1.5861 -1.2687 -0.3141
  489MOL0     H64531   5.749  10.841   9.749  0.3886 -0.2250  0.4483
  489MOL0     H64532   5.281  10.928   9.567  2.2596  1.1416  0.6568
  489MOL0     H64533   5.100  11.092   9.504  2.2695 -2.5995 -2.6906
  489MOL0     H64534   3.661  10.510   9.455  0.2192  0.8191 -0.3951
  489MOL0     H64535   3.542  10.340   9.344 -0.9167 -1.1541 -1.3645
  489MOL0     H64536   3.400  10.331   8.716 -1.7145  1.2946 -0.9292
  489MOL0     H64537   3.247  10.193   8.593  3.4665  3.8161 -0.3442
  489MOL0     H64538   3.114  10.050   8.516  2.0312 -0.0237 -0.8048
  489MOL0     H64539   3.001   9.927   8.567  0.0983  2.5569 -1.0973
  489MOL0     H64540   3.178   9.874   8.400 -0.1700  2.1209  0.4512
  489MOL0     H64541   3.306   9.892   8.504  0.4750  1.2584  0.3914
  489MOL0     H64542   3.086   9.668   8.569  1.4169 -2.0493  2.9644
  489MOL0     H64543   3.214   9.710   8.673 -2.5683 -0.9199  0.5352
  489MOL0     H64544   3.251   9.524   8.486 -1.4618 -0.3096 -0.4677
  489MOL0     H64545   3.264   9.652   8.364 -3.0327  1.2144  0.3668
  489MOL0     H64546   3.637   9.699   8.562  0.3271 -2.5013  0.1701
  489MOL0     H64547   3.149   9.981   8.945  2.4372 -1.6695 -0.5102
  489MOL0     H64548   3.278  10.144   9.087  0.4132 -1.6148  0.6147
  490MOL0     O64549   5.588   8.897   4.827  0.0687 -0.4192  0.2094
  490MOL0     C64550   5.534   8.791   4.815 -0.3751  0.7102  0.4557
  490MOL0     O64551   5.395   8.764   4.813  0.5431  0.4420 -0.5545
  490MOL0     C64552   5.306   8.862   4.822 -1.7086  0.0825 -0.3080
  490MOL0     C64553   5.314   8.971   4.735 -0.4206 -0.4055  0.3507
  490MOL0     C64554   5.215   9.079   4.745  1.3004 -0.8305 -0.2949
  490MOL0     C64555   5.118   9.078   4.850  0.1355  0.0461 -0.9140
  490MOL0     O64556   5.039   9.189   4.875 -0.4607 -0.9611  0.6990
  490MOL0     C64557   5.067   9.319   4.818 -0.0624  0.3056  0.2198
  490MOL0     C64558   4.972   9.423   4.866  0.0802 -0.9949  0.1148
  490MOL0     C64559   5.004   9.559   4.792 -0.9256  0.6440  0.1779
  490MOL0     C64560   4.910   9.580   4.666 -0.2733  0.3116 -0.4407
  490MOL0     C64561   4.992   9.643   4.543  0.3914  0.7411  0.3327
  490MOL0     C64562   5.048   9.778   4.569 -1.7589  0.1380  0.7800
  490MOL0     C64563   4.948   9.882   4.609 -1.0550  0.1939 -0.0038
  490MOL0     C64564   4.824   9.896   4.522 -0.1757  0.2481 -0.7415
  490MOL0     N64565   4.755  10.008   4.585  0.5957  0.5068 -0.3690
  490MOL0     C64566   4.629  10.022   4.624 -0.1876  0.5787 -0.5558
  490MOL0     C64567   4.610  10.151   4.656  0.5261  0.9458  0.1764
  490MOL0     C64568   4.481  10.220   4.690 -0.0037  0.7002  0.1694
  490MOL0     C64569   4.453  10.212   4.842 -1.3624 -1.1475  0.1766
  490MOL0     C64570   4.542  10.295   4.938 -0.6867  0.2067 -1.0380
  490MOL0     C64571   4.495  10.447   4.941 -0.3782  0.8491 -0.4650
  490MOL0     O64572   4.597  10.520   5.005 -0.4364 -0.3281  0.4480
  490MOL0     C64573   4.678  10.602   4.930 -0.2970  0.2045 -0.2943
  490MOL0     C64574   4.729  10.722   4.985  0.2685  0.8766  0.8927
  490MOL0     C64575   4.817  10.805   4.912 -0.4136  0.1551  0.5157
  490MOL0     C64576   4.848  10.773   4.775  0.4899  0.1974 -0.0944
  490MOL0     C64577   4.914  10.866   4.689  0.1483 -0.3993 -0.3061
  490MOL0     O64578   4.969  10.984   4.749  0.0034  0.5469  0.1742
  490MOL0     C64579   5.018  11.094   4.690  0.2522 -0.5216  0.4140
  490MOL0     C64580   5.061  11.110   4.557 -0.1280 -0.7491  0.4418
  490MOL0     C64581   5.076  11.238   4.501 -0.8180  0.0515 -0.9734
  490MOL0     C64582   5.060  11.355   4.587  0.3214  0.9056 -0.7026
  490MOL0     O64583   5.089  11.476   4.528  0.5032  0.2741 -0.3964
  490MOL0     C64584   5.129  11.587   4.614 -0.2450  0.4662  0.0087
  490MOL0     C64585   5.166  11.709   4.525  0.6497 -0.2525 -0.1460
  490MOL0     C64586   5.179  11.834   4.609  0.2435  0.2972 -0.4050
  490MOL0     C64587   5.261  11.941   4.534  0.1756 -0.7956  0.7539
  490MOL0     C64588   5.178  12.001   4.414 -0.3553  0.0272 -0.8175
  490MOL0     C64589   5.263  12.115   4.340 -0.1931 -0.1624  0.4241
  490MOL0     C64590   5.241  12.252   4.424 -0.1099  0.5028  0.7591
  490MOL0     C64591   5.268  12.389   4.352  0.1783  0.1961 -0.1697
  490MOL0    Cl64592   5.229  12.539   4.439  0.0426  0.1217  0.1721
  490MOL0     C64593   5.031  11.336   4.722 -0.3474 -0.1536  0.4577
  490MOL0     C64594   5.005  11.209   4.769 -0.2669  0.1122  0.0026
  490MOL0     O64595   4.912  10.854   4.570  0.9260  0.3699  0.5558
  490MOL0     C64596   4.799  10.651   4.720  1.0274 -0.2781  0.8032
  490MOL0     C64597   4.726  10.560   4.793  0.4775  0.3923  0.5711
  490MOL0     N64598   4.728  10.213   4.633 -0.2642 -0.7753 -0.3226
  490MOL0     N64599   4.801  10.137   4.578 -0.6677  0.8101  0.8706
  490MOL0     C64600   5.117   8.970   4.938 -0.0860  0.6432 -0.9006
  490MOL0     C64601   5.213   8.860   4.930  0.6760  0.4770 -0.8666
  490MOL0     C64602   5.610   8.675   4.771  0.4031 -0.1599  0.5357
  490MOL0     C64603   5.751   8.676   4.763 -0.8799  0.2145 -0.1654
  490MOL0     C64604   5.829   8.564   4.716  0.5784 -0.1886 -0.0620
  490MOL0     C64605   5.760   8.448   4.680 -0.0181  0.2843 -0.9916
  490MOL0     O64606   5.834   8.341   4.634  0.2933  0.2827 -0.7603
  490MOL0     C64607   5.815   8.220   4.703 -0.9465  0.4147 -0.3791
  490MOL0     C64608   5.941   8.135   4.684  0.4620 -0.7657 -0.9415
  490MOL0     C64609   5.973   8.059   4.815 -0.0812  0.7395  0.1612
  490MOL0     C64610   6.118   7.999   4.809 -0.1633  0.4204 -0.5346
  490MOL0     C64611   6.119   7.872   4.733  0.2074 -0.2538 -1.1618
  490MOL0     C64612   6.125   7.771   4.661 -0.0217 -0.8191 -0.2282
  490MOL0     C64613   5.625   8.449   4.680 -0.0117  0.5300  0.6573
  490MOL0     C64614   5.545   8.555   4.728 -0.1437 -0.4791 -0.1408
  490MOL0     H64615   5.384   8.963   4.652 -0.5208  0.8667  0.1140
  490MOL0     H64616   5.202   9.149   4.663 -2.1479  2.4345  2.6844
  490MOL0     H64617   5.074   9.315   4.709  0.3613  1.2073  0.2068
  490MOL0     H64618   5.171   9.346   4.843  0.5186 -1.4785 -0.1445
  490MOL0     H64619   5.003   9.434   4.970  2.9957 -0.3727 -0.7274
  490MOL0     H64620   4.866   9.400   4.849 -0.0577 -0.1831 -0.1716
  490MOL0     H64621   5.111   9.562   4.768  0.1408  2.8492  4.2647
  490MOL0     H64622   4.996   9.635   4.870  1.4998 -0.3928  1.5429
  490MOL0     H64623   4.886   9.479   4.630  0.5146  0.1649 -0.5778
  490MOL0     H64624   4.817   9.631   4.692  0.1650 -0.5299  3.3717
  490MOL0     H64625   4.932   9.655   4.453  1.3031 -1.8260 -0.7133
  490MOL0     H64626   5.076   9.577   4.517  2.1636  2.2492  1.9203
  490MOL0     H64627   5.098   9.809   4.477 -2.7719 -0.3946  0.0308
  490MOL0     H64628   5.132   9.753   4.635 -0.0873 -2.5033 -2.0566
  490MOL0     H64629   4.919   9.869   4.714 -3.9674 -0.7609 -0.8215
  490MOL0     H64630   5.000   9.978   4.606 -0.3195 -0.1274  1.4292
  490MOL0     H64631   4.750   9.815   4.524 -2.6110  2.3156 -1.8093
  490MOL0     H64632   4.853   9.928   4.421  0.9342  2.8474  0.3271
  490MOL0     H64633   4.553   9.945   4.629 -0.1623  0.6373  2.0762
  490MOL0     H64634   4.398  10.174   4.636  0.8156  1.2982 -1.6696
  490MOL0     H64635   4.499  10.325   4.667  0.6138  0.0364 -2.9325
  490MOL0     H64636   4.491  10.114   4.871  0.9326 -0.3909 -0.0369
  490MOL0     H64637   4.347  10.223   4.866 -1.3908  1.3987 -0.7776
  490MOL0     H64638   4.534  10.244   5.034  2.5905 -1.8992 -1.7240
  490MOL0     H64639   4.643  10.284   4.898 -0.1969 -2.1080  0.5759
  490MOL0     H64640   4.401  10.464   4.994  0.9561  0.3877  2.2291
  490MOL0     H64641   4.489  10.482   4.837  1.6952  3.0478  0.0616
  490MOL0     H64642   4.713  10.747   5.090  2.2373  0.8138  1.2442
  490MOL0     H64643   4.859  10.892   4.961  1.1172 -0.5611  0.5231
  490MOL0     H64644   5.077  11.020   4.497 -3.8629 -1.5619  0.3851
  490MOL0     H64645   5.100  11.255   4.396 -0.5616 -0.2269 -0.9594
  490MOL0     H64646   5.208  11.549   4.679 -1.9906 -4.5928 -0.3385
  490MOL0     H64647   5.040  11.613   4.672 -0.6369 -0.7969  0.0104
  490MOL0     H64648   5.083  11.712   4.453  1.4557  0.4538 -1.0636
  490MOL0     H64649   5.250  11.701   4.456 -1.6366  1.4114 -3.4043
  490MOL0     H64650   5.232  11.797   4.697  0.5527 -0.8432 -1.0432
  490MOL0     H64651   5.090  11.877   4.657 -1.8255 -0.5117 -3.2416
  490MOL0     H64652   5.276  12.030   4.596 -1.6286  0.4385 -0.4610
  490MOL0     H64653   5.349  11.890   4.493 -1.4246 -2.9895 -0.1503
  490MOL0     H64654   5.087  12.049   4.451 -0.2241  0.7494 -1.4100
  490MOL0     H64655   5.140  11.916   4.356 -3.5048  2.0878 -2.0885
  490MOL0     H64656   5.227  12.135   4.239  0.1289  1.0137  0.5286
  490MOL0     H64657   5.367  12.083   4.325  0.2103  1.8788 -1.6101
  490MOL0     H64658   5.139  12.252   4.462 -0.3077  2.1887  0.2795
  490MOL0     H64659   5.308  12.260   4.511 -1.3925 -1.3374  1.9933
  490MOL0     H64660   5.202  12.390   4.265 -0.2132  1.7646  0.1096
  490MOL0     H64661   5.368  12.407   4.311  1.1449  2.2450  2.7022
  490MOL0     H64662   5.014  11.411   4.799  0.5842 -0.5650  1.0839
  490MOL0     H64663   4.973  11.191   4.870 -1.0606 -3.3605 -0.7579
  490MOL0     H64664   4.810  10.638   4.612 -1.8817 -0.7959  0.5044
  490MOL0     H64665   4.705  10.462   4.751  4.9214 -0.9493  1.0505
  490MOL0     H64666   5.049   8.978   5.022  0.7610  0.1324 -0.1538
  490MOL0     H64667   5.224   8.773   4.995  1.2205 -1.1203 -2.9780
  490MOL0     H64668   5.791   8.775   4.782 -1.6739  0.3092  1.1283
  490MOL0     H64669   5.935   8.579   4.699  0.4623 -0.9194 -1.6242
  490MOL0     H64670   5.738   8.154   4.662  0.9161 -1.0908 -1.6650
  490MOL0     H64671   5.798   8.250   4.807  2.3440  1.2438  0.0223
  490MOL0     H64672   5.941   8.068   4.598 -1.9978  0.0128 -1.6339
  490MOL0     H64673   6.029   8.200   4.673  0.2851 -0.4958 -0.7636
  490MOL0     H64674   5.890   7.988   4.813 -0.9374  1.7019 -2.4108
  490MOL0     H64675   5.961   8.128   4.898 -3.1927 -0.2709  0.6837
  490MOL0     H64676   6.183   8.076   4.768 -2.1524  3.0445  0.9352
  490MOL0     H64677   6.135   7.979   4.915  4.2604 -1.9316 -1.4352
  490MOL0     H64678   6.129   7.689   4.592 -1.1230 -1.5251  0.5068
  490MOL0     H64679   5.575   8.357   4.653  2.2483 -0.9319  1.2107
  490MOL0     H64680   5.438   8.541   4.736 -0.7727  0.4684 -4.5638
  491MOL0     O64681  11.128  11.424   1.944 -0.0029  0.0338  0.0714
  491MOL0     C64682  11.094  11.421   2.057  0.2981  0.0328  0.4803
  491MOL0     O64683  10.960  11.424   2.093 -0.1472 -0.4962  0.5449
  491MOL0     C64684  10.854  11.425   2.006  0.6325  0.4320 -0.3685
  491MOL0     C64685  10.740  11.385   2.071 -0.5456 -0.3875 -0.3693
  491MOL0     C64686  10.622  11.360   2.001  0.2843  0.9413  0.0431
  491MOL0     C64687  10.630  11.367   1.855 -0.1492  0.0913  1.0093
  491MOL0     O64688  10.526  11.334   1.776 -0.4636 -0.1165  0.1289
  491MOL0     C64689  10.386  11.371   1.811 -0.3769 -0.0347 -0.1382
  491MOL0     C64690  10.285  11.295   1.721 -0.3712 -0.0531 -0.1012
  491MOL0     C64691  10.261  11.386   1.603  0.4899  0.1565 -0.8381
  491MOL0     C64692  10.214  11.332   1.470  0.2881 -0.1719 -0.2120
  491MOL0     C64693  10.182  11.437   1.352  0.4470  0.0990  0.5938
  491MOL0     C64694  10.042  11.485   1.344  0.3256  0.4381 -0.5753
  491MOL0     C64695   9.931  11.399   1.303 -0.4305 -0.3530 -0.1866
  491MOL0     C64696   9.942  11.317   1.158  0.5332  0.8184 -1.1559
  491MOL0     N64697   9.809  11.307   1.089 -0.3921  0.7818  0.6176
  491MOL0     C64698   9.767  11.393   0.985  0.0796 -0.5694  0.1637
  491MOL0     C64699   9.635  11.354   0.972  0.3311 -0.3091  0.0605
  491MOL0     C64700   9.559  11.389   0.852  0.3572  0.5114 -0.2590
  491MOL0     C64701   9.415  11.351   0.855  1.1580  0.0836  0.3847
  491MOL0     C64702   9.377  11.331   0.704 -0.3074  0.7008 -0.5266
  491MOL0     C64703   9.342  11.462   0.634 -0.1068 -0.5785 -0.0388
  491MOL0     O64704   9.227  11.516   0.701  0.0896 -0.0331 -0.4922
  491MOL0     C64705   9.108  11.494   0.633 -0.0656 -0.0866  0.1134
  491MOL0     C64706   9.008  11.427   0.709 -0.4674  0.1762  0.6012
  491MOL0     C64707   8.893  11.390   0.651  0.9059 -0.1284 -0.7888
  491MOL0     C64708   8.856  11.438   0.520 -1.7004  0.3854  0.1247
  491MOL0     C64709   8.732  11.407   0.448 -0.3210 -0.1649 -0.4381
  491MOL0     O64710   8.689  11.475   0.329  0.2010 -0.2842  0.6224
  491MOL0     C64711   8.562  11.502   0.301  0.6163 -0.6112  0.5317
  491MOL0     C64712   8.487  11.403   0.228 -0.2250  0.1800  0.3347
  491MOL0     C64713   8.349  11.424   0.205  0.6158  0.3370 -0.7256
  491MOL0     C64714   8.284  11.538   0.258 -0.3407 -0.9875  0.3074
  491MOL0     O64715   8.142  11.542   0.244  0.3386  0.3523  0.5940
  491MOL0     C64716   8.065  11.657   0.295  0.4573  0.2053  0.3013
  491MOL0     C64717   7.915  11.644   0.291 -0.3594  0.6525  0.5844
  491MOL0     C64718   7.858  11.678   0.428 -0.3738  0.4730 -0.9309
  491MOL0     C64719   7.699  11.665   0.422 -0.6889 -0.5052  0.0854
  491MOL0     C64720   7.661  11.515   0.436 -1.3310  1.6772  0.9415
  491MOL0     C64721   7.530  11.508   0.491  0.1986 -0.1843  0.2563
  491MOL0     C64722   7.484  11.357   0.503 -0.9718 -0.7917  1.0369
  491MOL0     C64723   7.360  11.329   0.579  0.9617 -0.3905  0.0710
  491MOL0    Cl64724   7.310  11.158   0.561  0.1680 -0.6189  0.0151
  491MOL0     C64725   8.365  11.630   0.324  0.9341  0.2924 -0.4079
  491MOL0     C64726   8.496  11.619   0.343 -0.5221  0.9627 -1.1159
  491MOL0     O64727   8.666  11.312   0.502  0.3124 -0.9775  0.3088
  491MOL0     C64728   8.951  11.524   0.456 -0.3637 -0.3729  1.5760
  491MOL0     C64729   9.082  11.558   0.509 -0.0653  0.8085 -0.7457
  491MOL0     N64730   9.598  11.268   1.069  0.4618 -0.7009  0.1862
  491MOL0     N64731   9.702  11.241   1.130  0.4760  0.5704 -1.3995
  491MOL0     C64732  10.746  11.405   1.797 -1.1092  0.2027  0.1638
  491MOL0     C64733  10.862  11.434   1.870  0.4333  0.6441  0.5814
  491MOL0     C64734  11.198  11.398   2.162 -0.4404  0.1633 -0.2714
  491MOL0     C64735  11.326  11.379   2.133 -0.2654  0.2502  0.4463
  491MOL0     C64736  11.420  11.368   2.231  0.0566 -1.0970  0.1505
  491MOL0     C64737  11.383  11.384   2.367  0.7275 -0.6998 -0.0561
  491MOL0     O64738  11.493  11.411   2.441  0.3354 -0.1084 -0.3772
  491MOL0     C64739  11.482  11.529   2.522 -0.1316  0.5432  0.2039
  491MOL0     C64740  11.627  11.577   2.572  0.3446  0.7912  0.6725
  491MOL0     C64741  11.613  11.634   2.722 -0.4905 -0.4741 -0.1568
  491MOL0     C64742  11.573  11.527   2.822  0.2591  0.3441 -0.0958
  491MOL0     C64743  11.611  11.567   2.957  0.2252 -0.0644  0.0078
  491MOL0     C64744  11.666  11.573   3.070 -0.8736 -1.2540 -0.1926
  491MOL0     C64745  11.255  11.406   2.403 -0.0367 -0.7443  1.2514
  491MOL0     C64746  11.154  11.399   2.298  0.3636  0.4913  0.3592
  491MOL0     H64747  10.731  11.392   2.179  2.6257  0.9091 -0.0816
  491MOL0     H64748  10.532  11.336   2.057  1.0353 -1.7038  0.2433
  491MOL0     H64749  10.364  11.478   1.807 -2.5713 -0.4551 -1.3554
  491MOL0     H64750  10.371  11.342   1.915  2.9588  0.1935  0.5236
  491MOL0     H64751  10.193  11.264   1.772 -1.8717  1.3902 -1.7567
  491MOL0     H64752  10.324  11.202   1.681 -0.7873  0.4398 -1.7452
  491MOL0     H64753  10.362  11.426   1.584  1.5931 -1.4005  1.2846
  491MOL0     H64754  10.186  11.458   1.637 -1.5247 -2.1619 -0.1410
  491MOL0     H64755  10.287  11.263   1.427  0.2386 -1.5170  1.7227
  491MOL0     H64756  10.122  11.276   1.491 -1.1943  2.1990 -0.0469
  491MOL0     H64757  10.193  11.386   1.256  1.8374 -0.1517  0.8611
  491MOL0     H64758  10.247  11.523   1.367  0.2150  0.5793 -0.9989
  491MOL0     H64759  10.029  11.558   1.264  2.0027  1.6265  0.1717
  491MOL0     H64760  10.007  11.539   1.433 -2.3852 -0.7581 -0.8299
  491MOL0     H64761   9.920  11.320   1.378 -2.0627  0.6393  0.6734
  491MOL0     H64762   9.837  11.455   1.300  0.0783  0.5175 -0.2524
  491MOL0     H64763   9.995  11.224   1.178  0.4239  1.3594  2.4605
  491MOL0     H64764  10.005  11.378   1.092  0.4736  1.0029 -1.0456
  491MOL0     H64765   9.829  11.450   0.917 -0.4343  0.9269  0.9121
  491MOL0     H64766   9.617  11.327   0.783  0.1229 -0.2810  0.2436
  491MOL0     H64767   9.573  11.492   0.817 -1.4293 -0.1863 -3.3486
  491MOL0     H64768   9.359  11.438   0.892  3.1011  1.3573  0.4310
  491MOL0     H64769   9.395  11.257   0.909  2.0731 -1.3856 -1.7225
  491MOL0     H64770   9.464  11.294   0.649  2.2687  1.6302  2.5661
  491MOL0     H64771   9.285  11.272   0.705 -1.0029  1.6282  2.5041
  491MOL0     H64772   9.319  11.455   0.527 -1.1170  0.5895  0.0868
  491MOL0     H64773   9.427  11.529   0.640 -0.2492 -0.4686  0.8660
  491MOL0     H64774   9.029  11.399   0.811  0.1659  0.9388  0.6917
  491MOL0     H64775   8.820  11.340   0.714  0.5922 -0.5403 -1.4764
  491MOL0     H64776   8.540  11.315   0.193  0.5991  1.8752 -3.0910
  491MOL0     H64777   8.288  11.338   0.178  0.9984 -1.2047  2.7288
  491MOL0     H64778   8.088  11.747   0.236 -0.7445  1.8976  2.2928
  491MOL0     H64779   8.105  11.683   0.393  0.8194 -0.1138  0.2404
  491MOL0     H64780   7.888  11.540   0.270  0.1493  0.5468  0.4488
  491MOL0     H64781   7.870  11.708   0.214 -1.5514 -1.6680 -0.7604
  491MOL0     H64782   7.889  11.780   0.453 -0.4531 -0.4907  4.2949
  491MOL0     H64783   7.901  11.620   0.511 -0.9439  0.0782 -0.9065
  491MOL0     H64784   7.646  11.721   0.500 -0.0262  0.6792 -0.2895
  491MOL0     H64785   7.662  11.688   0.322 -2.1437  1.6389  1.0219
  491MOL0     H64786   7.733  11.467   0.503 -1.2267  1.8870  0.9788
  491MOL0     H64787   7.667  11.458   0.342 -1.2759 -2.0340  3.0030
  491MOL0     H64788   7.461  11.557   0.422 -1.6684 -2.1662  0.5957
  491MOL0     H64789   7.533  11.550   0.591 -0.8704  1.4483 -0.3570
  491MOL0     H64790   7.468  11.310   0.405 -0.6378  2.6826 -0.8359
  491MOL0     H64791   7.563  11.298   0.550 -0.9342 -0.4489  1.4028
  491MOL0     H64792   7.290  11.406   0.543  0.1084 -1.1315  0.1187
  491MOL0     H64793   7.368  11.350   0.686 -0.1758 -3.2250  0.8059
  491MOL0     H64794   8.308  11.716   0.360  1.1966  1.9404 -3.5501
  491MOL0     H64795   8.548  11.690   0.407  0.7018 -0.9991  0.1789
  491MOL0     H64796   8.925  11.536   0.352  0.4830 -2.2397  1.1041
  491MOL0     H64797   9.158  11.616   0.457  1.8357 -0.4328  0.5468
  491MOL0     H64798  10.760  11.406   1.689  0.0767  0.0342  0.2990
  491MOL0     H64799  10.953  11.460   1.815  0.3349  0.8386  0.5066
  491MOL0     H64800  11.362  11.369   2.031  2.4605  0.7783  1.2810
  491MOL0     H64801  11.516  11.341   2.189  0.0076  0.7113 -1.2319
  491MOL0     H64802  11.417  11.502   2.606  1.4642 -1.4855  0.8655
  491MOL0     H64803  11.444  11.605   2.454  2.9046  0.0427 -2.2570
  491MOL0     H64804  11.696  11.493   2.575 -0.5054 -0.2129 -3.1039
  491MOL0     H64805  11.666  11.661   2.514  0.3679 -0.0109 -0.4959
  491MOL0     H64806  11.532  11.707   2.716  0.4231  0.6118  0.2842
  491MOL0     H64807  11.713  11.667   2.749 -0.2956 -0.6510 -0.6400
  491MOL0     H64808  11.473  11.486   2.809  0.5691 -0.7928  1.0074
  491MOL0     H64809  11.635  11.439   2.801 -2.7656 -1.4392 -2.3430
  491MOL0     H64810  11.705  11.596   3.167 -1.3234 -2.1004  0.2003
  491MOL0     H64811  11.229  11.426   2.506 -0.5823  0.4148  0.9064
  491MOL0     H64812  11.048  11.411   2.319  0.5062  1.7274  0.4427
  492MOL0     O64813  11.169   8.939   2.497 -0.8268  0.6137 -1.5733
  492MOL0     C64814  11.256   8.852   2.520 -0.4750 -0.0010 -0.2825
  492MOL0     O64815  11.391   8.866   2.526  0.2435  0.0883  0.4209
  492MOL0     C64816  11.444   8.991   2.529 -0.3747  0.0260  0.1152
  492MOL0     C64817  11.543   9.012   2.432  0.2362  0.3525  0.6131
  492MOL0     C64818  11.599   9.143   2.406 -0.6440  0.1079 -0.0281
  492MOL0     C64819  11.551   9.251   2.485 -0.3863 -0.8744  1.6143
  492MOL0     O64820  11.592   9.380   2.449  0.8018  0.2125  0.1657
  492MOL0     C64821  11.710   9.413   2.379  0.3102  0.1680 -0.0145
  492MOL0     C64822  11.844   9.369   2.456  0.5846  0.5626  0.3108
  492MOL0     C64823  11.829   9.424   2.598 -0.5294  0.2326 -0.9915
  492MOL0     C64824  11.956   9.461   2.666  0.3552  1.0485  1.4194
  492MOL0     C64825  11.946   9.477   2.813  1.4696  0.2164 -1.7569
  492MOL0     C64826  12.068   9.457   2.884 -0.2229 -0.2877 -0.5050
  492MOL0     C64827  12.114   9.311   2.903  0.9261  0.7632 -0.6614
  492MOL0     C64828  12.250   9.309   2.980 -0.5380  0.5215 -0.6576
  492MOL0     N64829  12.287   9.175   3.007  0.4238 -0.7301 -0.0289
  492MOL0     C64830  12.417   9.132   3.009 -0.0507 -0.9071  0.4712
  492MOL0     C64831  12.410   9.011   3.057 -0.0079  0.4098 -0.3640
  492MOL0     C64832  12.526   8.908   3.071  0.1969 -0.4945 -0.8638
  492MOL0     C64833  12.665   8.971   3.094  0.2363  0.1331  0.8726
  492MOL0     C64834  12.786   8.875   3.088  1.1056  0.1092 -0.0351
  492MOL0     C64835  12.813   8.804   3.225 -0.0754  0.1851 -0.6055
  492MOL0     O64836  12.927   8.713   3.199  0.1564  0.2195 -0.0650
  492MOL0     C64837  12.967   8.643   3.312 -0.0062 -0.1006 -0.1568
  492MOL0     C64838  12.897   8.621   3.433 -0.5483  0.1496 -0.1422
  492MOL0     C64839  12.952   8.543   3.538 -0.0914 -0.1279 -0.0960
  492MOL0     C64840  13.083   8.487   3.534  0.5662 -0.5301 -0.0261
  492MOL0     C64841  13.138   8.412   3.643  0.3845  0.1451 -0.3899
  492MOL0     O64842  13.276   8.411   3.662  0.4245 -0.2840  0.1351
  492MOL0     C64843  13.339   8.391   3.779  1.0209 -0.4557 -0.4030
  492MOL0     C64844  13.299   8.427   3.916  0.9145  0.8693  1.3064
  492MOL0     C64845  13.390   8.408   4.027  0.1890 -0.8625 -0.1796
  492MOL0     C64846  13.523   8.361   4.004  0.1674 -0.3331  0.5406
  492MOL0     O64847  13.610   8.313   4.096  0.4741 -0.5969 -0.2132
  492MOL0     C64848  13.569   8.329   4.238  0.2337 -0.3232  0.3929
  492MOL0     C64849  13.640   8.228   4.319 -0.0431 -0.4412  0.1857
  492MOL0     C64850  13.791   8.275   4.340  0.4872  0.3145 -0.9323
  492MOL0     C64851  13.882   8.270   4.222  0.5843  0.0939  0.1770
  492MOL0     C64852  14.019   8.339   4.244  0.1027  0.1733  0.5767
  492MOL0     C64853  14.007   8.490   4.256  0.5662 -0.0453  0.0560
  492MOL0     C64854  14.143   8.564   4.285  0.5961 -0.3219 -0.2434
  492MOL0     C64855  14.134   8.702   4.227 -0.0899  0.2638 -0.2594
  492MOL0    Cl64856  14.006   8.807   4.313  0.2154 -0.3308  0.4218
  492MOL0     C64857  13.560   8.326   3.874  0.4405 -0.2719  0.5962
  492MOL0     C64858  13.472   8.346   3.770  0.1390  0.3762  0.5004
  492MOL0     O64859  13.055   8.370   3.731  0.1741 -0.1273  0.4788
  492MOL0     C64860  13.155   8.508   3.414  0.6288  0.0521  0.2769
  492MOL0     C64861  13.094   8.587   3.308  0.1273  0.2874 -0.4930
  492MOL0     N64862  12.282   8.986   3.089 -0.4075  0.1276  0.4142
  492MOL0     N64863  12.209   9.080   3.054  0.6584 -0.6901 -0.0082
  492MOL0     C64864  11.451   9.224   2.578  0.5739  0.0715  0.5939
  492MOL0     C64865  11.399   9.098   2.595  0.4757  1.0552 -0.3589
  492MOL0     C64866  11.213   8.710   2.540  0.1871 -0.2621  1.4754
  492MOL0     C64867  11.310   8.607   2.544  0.2436  1.0753 -0.0021
  492MOL0     C64868  11.264   8.474   2.564  0.3578 -0.1407  0.2851
  492MOL0     C64869  11.126   8.447   2.571  0.6750  1.4907  0.1494
  492MOL0     O64870  11.070   8.321   2.580  0.3790  0.2142 -0.3523
  492MOL0     C64871  11.157   8.224   2.641 -0.8945  0.2722  0.3489
  492MOL0     C64872  11.080   8.109   2.710  0.0943  0.1473  0.3861
  492MOL0     C64873  11.033   8.110   2.857 -0.3001 -0.7799 -0.7410
  492MOL0     C64874  10.948   7.986   2.888  0.0318  0.9984  0.4489
  492MOL0     C64875  10.913   7.969   3.032 -1.1947 -0.2936  0.0936
  492MOL0     C64876  10.879   7.951   3.149 -1.0397 -0.7976 -0.3383
  492MOL0     C64877  11.033   8.547   2.568 -0.3342 -0.7067 -0.5136
  492MOL0     C64878  11.076   8.679   2.549 -0.3112  0.4101  1.0033
  492MOL0     H64879  11.580   8.934   2.367  2.4247  1.9453 -0.1773
  492MOL0     H64880  11.669   9.149   2.324 -4.1206  0.0064 -3.2396
  492MOL0     H64881  11.710   9.518   2.349 -1.5137 -0.2105 -1.5468
  492MOL0     H64882  11.712   9.358   2.285  4.9682  0.0962 -0.1200
  492MOL0     H64883  11.933   9.415   2.412  1.6677 -0.5555  1.2587
  492MOL0     H64884  11.856   9.262   2.443 -2.5512  0.0939  0.5821
  492MOL0     H64885  11.769   9.360   2.664  5.4772 -0.1338  5.1913
  492MOL0     H64886  11.772   9.517   2.591  1.0619  1.3084 -0.2483
  492MOL0     H64887  12.007   9.367   2.642  1.4993  2.6401 -3.7789
  492MOL0     H64888  12.013   9.535   2.609 -0.6918  0.2704 -0.7616
  492MOL0     H64889  11.867   9.420   2.864  1.0905 -0.0553 -2.6354
  492MOL0     H64890  11.912   9.579   2.832 -0.2725 -0.8757  2.1035
  492MOL0     H64891  12.059   9.508   2.980  0.1531  1.7455 -1.4955
  492MOL0     H64892  12.147   9.512   2.833  1.0136  1.3375  2.8152
  492MOL0     H64893  12.033   9.256   2.951  0.2649  1.4014 -1.0226
  492MOL0     H64894  12.136   9.273   2.803  0.3187 -1.2441 -0.0700
  492MOL0     H64895  12.237   9.369   3.071 -0.8741 -0.3358 -0.1206
  492MOL0     H64896  12.335   9.360   2.934  2.3667  0.1647  3.7278
  492MOL0     H64897  12.504   9.183   2.970 -1.0444  1.8765  1.6467
  492MOL0     H64898  12.529   8.854   2.976  1.2477  0.0125 -1.1386
  492MOL0     H64899  12.503   8.844   3.156  1.0381 -1.7911 -1.5776
  492MOL0     H64900  12.659   9.022   3.191 -0.0451  0.7190  0.5520
  492MOL0     H64901  12.675   9.044   3.013  0.5245 -1.2040 -0.3281
  492MOL0     H64902  12.759   8.789   3.027  2.1721 -4.1786  4.8454
  492MOL0     H64903  12.875   8.918   3.040 -0.0449  4.1289  1.0407
  492MOL0     H64904  12.730   8.745   3.264  0.5240 -0.9980 -1.0810
  492MOL0     H64905  12.839   8.882   3.298 -0.1442 -0.4648  0.1283
  492MOL0     H64906  12.795   8.656   3.444 -0.8650 -0.7586 -0.1055
  492MOL0     H64907  12.908   8.556   3.637  5.5942 -1.1390  3.0504
  492MOL0     H64908  13.201   8.472   3.934  1.5868  3.7927 -1.4360
  492MOL0     H64909  13.366   8.455   4.122  2.8440  2.8723 -1.1183
  492MOL0     H64910  13.461   8.318   4.248  0.2005  1.9738  4.9809
  492MOL0     H64911  13.600   8.427   4.275 -1.5546  0.4087  0.0560
  492MOL0     H64912  13.633   8.138   4.257 -2.0718  1.4738 -2.6504
  492MOL0     H64913  13.596   8.211   4.417  1.0799  2.0982  1.2258
  492MOL0     H64914  13.828   8.206   4.416  1.0750  2.3562  0.7602
  492MOL0     H64915  13.791   8.373   4.389  1.7667  0.1236 -0.5052
  492MOL0     H64916  13.894   8.165   4.195  2.2390  0.6688 -1.5660
  492MOL0     H64917  13.825   8.325   4.146 -0.3631 -0.0619  0.7632
  492MOL0     H64918  14.087   8.315   4.162 -2.4388  0.0440 -1.6592
  492MOL0     H64919  14.061   8.304   4.338 -2.6421  2.8539  2.9985
  492MOL0     H64920  13.930   8.521   4.328 -2.1272  1.1389 -3.0446
  492MOL0     H64921  13.961   8.528   4.164 -0.7196  0.9138  1.0513
  492MOL0     H64922  14.154   8.581   4.393 -3.8213 -1.1155  0.5042
  492MOL0     H64923  14.228   8.504   4.250  0.6803  1.8748 -4.4208
  492MOL0     H64924  14.116   8.699   4.119 -3.2993 -0.9873  0.2208
  492MOL0     H64925  14.232   8.751   4.235  0.1382 -0.2092 -0.1358
  492MOL0     H64926  13.650   8.271   3.849 -0.0561 -0.4498 -0.9129
  492MOL0     H64927  13.501   8.303   3.674  0.0908 -3.6514  2.1024
  492MOL0     H64928  13.255   8.481   3.384  0.6082  0.6354 -0.3319
  492MOL0     H64929  13.156   8.601   3.220  1.6240 -1.3544  0.2278
  492MOL0     H64930  11.412   9.307   2.636  2.5908  1.6151 -0.1316
  492MOL0     H64931  11.322   9.078   2.669  1.6857 -2.5148  0.1288
  492MOL0     H64932  11.414   8.634   2.524  1.0316 -2.0427 -0.5464
  492MOL0     H64933  11.341   8.400   2.585  2.5788  0.9074 -3.3332
  492MOL0     H64934  11.212   8.273   2.722 -2.5509 -0.2756  1.8717
  492MOL0     H64935  11.222   8.181   2.565 -0.8616  1.4528 -0.3228
  492MOL0     H64936  10.995   8.084   2.647  0.0502  2.0524 -0.3772
  492MOL0     H64937  11.143   8.020   2.707 -0.8941 -0.5419 -2.5229
  492MOL0     H64938  10.966   8.191   2.887  0.6999  0.9751 -2.9420
  492MOL0     H64939  11.126   8.116   2.914 -0.6578 -1.3793 -0.0721
  492MOL0     H64940  10.855   8.000   2.832  0.6483  2.9102 -0.1453
  492MOL0     H64941  10.994   7.892   2.855  1.8282  1.2165  2.1147
  492MOL0     H64942  10.846   7.931   3.248 -2.3470  4.2265  0.5090
  492MOL0     H64943  10.928   8.532   2.591 -0.2670  0.8222  1.0321
  492MOL0     H64944  11.008   8.763   2.541 -0.9751 -0.0956  1.2725
  493MOL0     O64945   3.698   9.501  11.159 -0.1272  0.4395 -0.6661
  493MOL0     C64946   3.693   9.618  11.198  0.4324  0.2535 -0.7986
  493MOL0     O64947   3.637   9.713  11.125 -0.9847 -0.3859 -0.3432
  493MOL0     C64948   3.629   9.725  10.983  0.1476  0.1603  0.8807
  493MOL0     C64949   3.719   9.655  10.893  0.2117  0.7070  0.0818
  493MOL0     C64950   3.716   9.687  10.756  0.1570 -0.4478  0.2885
  493MOL0     C64951   3.621   9.769  10.696 -0.2912 -0.3596 -0.6529
  493MOL0     O64952   3.634   9.804  10.562  0.0559  0.0389  0.4236
  493MOL0     C64953   3.524   9.815  10.470  0.4103 -0.5090  0.5057
  493MOL0     C64954   3.573   9.746  10.340  0.9377 -0.2614 -0.1855
  493MOL0     C64955   3.689   9.817  10.281 -0.0793 -0.0038 -1.0753
  493MOL0     C64956   3.700   9.781  10.141  1.6837  0.0511  1.3193
  493MOL0     C64957   3.816   9.851  10.080  0.0280  0.5293  0.1755
  493MOL0     C64958   3.836   9.800   9.935 -0.7264 -0.9125  0.1528
  493MOL0     C64959   3.977   9.851   9.900  1.1052  0.3149 -0.4738
  493MOL0     C64960   3.999   9.828   9.753 -0.0889 -0.1947  0.1075
  493MOL0     N64961   4.129   9.877   9.698 -0.8261  0.6840  0.3265
  493MOL0     C64962   4.239   9.797   9.680 -0.6514 -0.2948  0.6262
  493MOL0     C64963   4.322   9.854   9.586 -0.2535 -0.5500  0.2639
  493MOL0     C64964   4.446   9.801   9.516  1.1187  0.3375 -0.9169
  493MOL0     C64965   4.523   9.917   9.455 -0.0017  0.8135  0.6809
  493MOL0     C64966   4.637   9.874   9.367  0.6535  0.7608 -0.3637
  493MOL0     C64967   4.718   9.983   9.304 -0.1078  0.3325 -1.0834
  493MOL0     O64968   4.813  10.041   9.395 -0.6746 -0.5768  0.3477
  493MOL0     C64969   4.933  10.102   9.341  0.4889  0.7224 -0.0627
  493MOL0     C64970   4.979  10.102   9.203  0.3796  0.4873 -0.6316
  493MOL0     C64971   5.094  10.156   9.173 -0.1243  0.6383  0.7427
  493MOL0     C64972   5.183  10.197   9.267 -0.0349 -0.8889  0.8691
  493MOL0     C64973   5.326  10.236   9.239 -0.0900  0.5973  0.3524
  493MOL0     O64974   5.391  10.315   9.341 -1.0549  0.3821 -0.3633
  493MOL0     C64975   5.525  10.314   9.334 -1.4235  0.1388 -0.0696
  493MOL0     C64976   5.597  10.439   9.334  0.5323  0.0824 -0.5579
  493MOL0     C64977   5.738  10.451   9.320  0.1147  0.0092  0.2626
  493MOL0     C64978   5.822  10.336   9.312 -1.1285 -0.0482  0.4670
  493MOL0     O64979   5.962  10.355   9.313  0.2249  0.4057 -0.2199
  493MOL0     C64980   6.060  10.266   9.268  0.2743 -0.1255 -0.1047
  493MOL0     C64981   6.157  10.347   9.166 -0.7098  0.6333  0.8819
  493MOL0     C64982   6.237  10.469   9.223  0.1367 -0.0512  0.4219
  493MOL0     C64983   6.296  10.538   9.103 -1.5753  0.6015  0.1899
  493MOL0     C64984   6.363  10.675   9.136 -0.2920 -0.0710 -0.3408
  493MOL0     C64985   6.454  10.731   9.021  0.5122  0.4504 -0.7986
  493MOL0     C64986   6.362  10.812   8.927  0.1418 -0.3287 -0.0329
  493MOL0     C64987   6.320  10.731   8.811 -0.1718 -0.5311  1.0458
  493MOL0    Cl64988   6.459  10.709   8.699  0.5991 -0.8821  0.2510
  493MOL0     C64989   5.758  10.219   9.336 -0.0833  0.6594 -0.1937
  493MOL0     C64990   5.616  10.203   9.334  0.2846 -0.0905  0.5760
  493MOL0     O64991   5.369  10.203   9.130  0.7238 -0.2380  0.0026
  493MOL0     C64992   5.130  10.212   9.393 -0.3425 -0.6043 -0.2068
  493MOL0     C64993   5.011  10.166   9.435  0.4648 -0.2232 -0.4408
  493MOL0     N64994   4.264   9.982   9.567  0.6257 -1.1169 -0.4483
  493MOL0     N64995   4.147   9.995   9.628 -0.1526  0.1050  0.2361
  493MOL0     C64996   3.516   9.825  10.779 -0.8556  0.3769  0.4062
  493MOL0     C64997   3.534   9.809  10.920  0.1942 -0.5488 -0.1879
  493MOL0     C64998   3.748   9.660  11.330  0.0787  0.9974 -0.1647
  493MOL0     C64999   3.793   9.551  11.409 -0.4129  0.0818 -0.4985
  493MOL0     C65000   3.851   9.584  11.530 -0.5529 -0.5140  0.5988
  493MOL0     C65001   3.869   9.713  11.575  0.3626 -0.2921  0.9104
  493MOL0     O65002   3.914   9.741  11.702  0.0576  0.1116 -0.2702
  493MOL0     C65003   4.042   9.689  11.744  0.2400 -0.0347 -0.0353
  493MOL0     C65004   4.155   9.786  11.691 -0.7809  0.6744  0.2913
  493MOL0     C65005   4.301   9.749  11.737  0.7574 -0.5085 -0.3343
  493MOL0     C65006   4.384   9.663  11.634  0.6966  0.4773 -0.1073
  493MOL0     C65007   4.315   9.536  11.613 -0.1106  0.3073 -0.3557
  493MOL0     C65008   4.261   9.429  11.613 -0.7172  0.1437 -0.4019
  493MOL0     C65009   3.816   9.821  11.494 -0.4653 -0.1118 -0.3681
  493MOL0     C65010   3.761   9.791  11.372 -0.1967  0.3974 -0.7684
  493MOL0     H65011   3.798   9.587  10.925 -1.2874 -1.1401  0.0889
  493MOL0     H65012   3.807   9.645  10.713  0.3189 -1.3676  1.4749
  493MOL0     H65013   3.490   9.916  10.446  0.3589 -0.8785 -1.0921
  493MOL0     H65014   3.445   9.753  10.512 -0.9269  1.3291  0.8043
  493MOL0     H65015   3.490   9.740  10.269 -0.0771  1.4353  0.7997
  493MOL0     H65016   3.613   9.645  10.357 -0.6999 -0.7659  0.9352
  493MOL0     H65017   3.779   9.801  10.341 -2.6019  3.0984  4.1729
  493MOL0     H65018   3.669   9.925  10.280  0.7383  0.2501  1.7224
  493MOL0     H65019   3.705   9.672  10.125  2.3793  0.1510  0.8078
  493MOL0     H65020   3.610   9.811  10.085  1.7605 -4.0013 -1.4684
  493MOL0     H65021   3.896   9.816  10.146  0.8929 -2.0689 -2.0015
  493MOL0     H65022   3.801   9.959  10.082  2.4692  0.9761 -0.8712
  493MOL0     H65023   3.764   9.834   9.861 -1.3782  3.7748  2.5705
  493MOL0     H65024   3.835   9.691   9.929  3.0333 -1.0182 -0.6141
  493MOL0     H65025   3.998   9.954   9.929  1.6946 -0.1200  0.6989
  493MOL0     H65026   4.046   9.793   9.962 -1.9899 -3.2161 -0.0270
  493MOL0     H65027   3.918   9.882   9.703  0.8606 -1.1491 -2.6883
  493MOL0     H65028   3.986   9.722   9.729 -2.9498 -0.1306  0.9384
  493MOL0     H65029   4.252   9.698   9.721 -1.1813  0.9421  4.2076
  493MOL0     H65030   4.416   9.728   9.441  0.2835  2.3547 -2.6383
  493MOL0     H65031   4.503   9.764   9.602  3.3634  3.2080 -0.9884
  493MOL0     H65032   4.556   9.993   9.526 -0.9554  0.9755  0.9546
  493MOL0     H65033   4.456   9.958   9.379  2.9964 -3.1842 -4.9439
  493MOL0     H65034   4.691   9.812   9.439 -3.5117  0.0324  2.5366
  493MOL0     H65035   4.597   9.821   9.280 -0.6710  0.8671  0.1536
  493MOL0     H65036   4.651  10.058   9.262  1.4274  2.7703  0.6117
  493MOL0     H65037   4.777   9.927   9.231  1.6725  0.8251 -0.0887
  493MOL0     H65038   4.911  10.067   9.126 -0.9563  1.9766 -0.1661
  493MOL0     H65039   5.124  10.140   9.070 -1.8839  0.8853  0.1609
  493MOL0     H65040   5.533  10.525   9.351  0.8579  0.0389  1.0639
  493MOL0     H65041   5.774  10.554   9.319 -0.6885  0.2930 -0.4616
  493MOL0     H65042   6.010  10.180   9.221 -2.5714  0.0060  2.3307
  493MOL0     H65043   6.113  10.223   9.354 -1.1942  1.3637  1.6109
  493MOL0     H65044   6.104  10.376   9.075 -1.6970 -0.1336  1.1975
  493MOL0     H65045   6.240  10.282   9.137 -0.5439  0.9251  0.7011
  493MOL0     H65046   6.311  10.429   9.292  0.4660 -0.6387 -0.2553
  493MOL0     H65047   6.169  10.531   9.282  0.5192  2.2688 -1.4448
  493MOL0     H65048   6.372  10.475   9.055  0.9979  3.3621  0.4159
  493MOL0     H65049   6.222  10.550   9.023 -1.5979 -4.0925 -0.8140
  493MOL0     H65050   6.423  10.664   9.227 -2.1952  0.0784  0.9859
  493MOL0     H65051   6.285  10.747   9.161 -0.3357  0.0934 -0.9472
  493MOL0     H65052   6.503  10.653   8.963  0.1671 -0.4070  0.0403
  493MOL0     H65053   6.536  10.775   9.079  2.0302 -0.5729 -2.0755
  493MOL0     H65054   6.275  10.844   8.984  0.0974 -1.8236  0.7954
  493MOL0     H65055   6.416  10.896   8.883  1.3664 -0.5651  0.9588
  493MOL0     H65056   6.248  10.797   8.762 -1.8983 -3.4447 -0.6662
  493MOL0     H65057   6.274  10.635   8.836 -2.2860  0.2537  0.4250
  493MOL0     H65058   5.812  10.125   9.348 -0.5106  0.4346  0.0003
  493MOL0     H65059   5.573  10.104   9.348 -1.5898  0.6351  0.1955
  493MOL0     H65060   5.193  10.262   9.466 -2.8179  0.9727  0.9744
  493MOL0     H65061   4.972  10.177   9.535 -2.1393  2.5001 -1.5942
  493MOL0     H65062   3.442   9.898  10.746 -2.5388 -0.8125  1.4035
  493MOL0     H65063   3.460   9.859  10.982 -1.7768 -0.4404 -2.4762
  493MOL0     H65064   3.770   9.446  11.391  0.1366  0.1054 -1.3991
  493MOL0     H65065   3.891   9.504  11.593 -1.9815  0.6133  3.0713
  493MOL0     H65066   4.060   9.588  11.706  1.1352  1.3657 -3.7861
  493MOL0     H65067   4.033   9.703  11.852 -2.1075 -1.1986 -0.0181
  493MOL0     H65068   4.162   9.788  11.581 -0.2233  0.9305  0.3301
  493MOL0     H65069   4.134   9.885  11.732 -0.6462 -0.1818  2.5806
  493MOL0     H65070   4.294   9.703  11.836 -0.7244 -0.6607 -0.4892
  493MOL0     H65071   4.353   9.845  11.746  1.9588 -1.2956  1.8562
  493MOL0     H65072   4.385   9.706  11.534  2.3596 -3.6057 -2.0624
  493MOL0     H65073   4.489   9.662  11.664  1.0896  2.8878 -1.2103
  493MOL0     H65074   4.203   9.339  11.608  1.5408 -1.3084 -1.6207
  493MOL0     H65075   3.826   9.927  11.513  0.8148 -0.8105  4.0309
  493MOL0     H65076   3.738   9.875  11.307 -1.4566  1.8929  1.4964
  494MOL0     O65077   5.527  10.893   2.820 -0.1834  0.4781  0.1596
  494MOL0     C65078   5.593  10.942   2.905 -0.4072 -0.2316 -0.0265
  494MOL0     O65079   5.550  11.027   2.990 -0.1184 -0.0308 -0.0871
  494MOL0     C65080   5.431  11.083   2.982  0.0557  1.0324 -0.0194
  494MOL0     C65081   5.360  11.097   3.096  0.6310  0.0744  0.7015
  494MOL0     C65082   5.240  11.167   3.100 -0.0924  0.0984 -0.2599
  494MOL0     C65083   5.183  11.213   2.970 -0.5564  0.2113 -0.3945
  494MOL0     O65084   5.055  11.264   2.954 -0.1996  0.1552 -0.9023
  494MOL0     C65085   4.965  11.305   3.061  0.2158 -0.3479 -0.6506
  494MOL0     C65086   4.984  11.458   3.073 -0.2604 -0.6394  0.4596
  494MOL0     C65087   4.903  11.522   3.184  0.1190  0.3463  0.9349
  494MOL0     C65088   4.928  11.672   3.189 -0.3716  0.1763  0.9942
  494MOL0     C65089   4.858  11.719   3.315 -0.5161 -1.2692  0.2544
  494MOL0     C65090   4.916  11.843   3.383 -0.1568 -0.8088  0.7873
  494MOL0     C65091   4.832  11.883   3.510 -0.0042 -0.7053 -0.2916
  494MOL0     C65092   4.845  11.793   3.630  0.2866  0.1998  0.1789
  494MOL0     N65093   4.952  11.821   3.723 -0.2656 -0.5426  0.2347
  494MOL0     C65094   5.089  11.814   3.701 -0.2216  0.1706  0.2040
  494MOL0     C65095   5.138  11.832   3.824 -0.4083 -2.3358 -0.6320
  494MOL0     C65096   5.286  11.849   3.840 -0.3007  0.3677 -0.3613
  494MOL0     C65097   5.346  11.988   3.807 -0.3117  0.2807 -0.6892
  494MOL0     C65098   5.295  12.102   3.897 -0.5368 -0.9496  0.0287
  494MOL0     C65099   5.360  12.243   3.878  0.0107 -0.0110  0.3984
  494MOL0     O65100   5.354  12.264   3.730 -0.0343 -1.1287 -0.0685
  494MOL0     C65101   5.413  12.380   3.687 -0.6516  0.5225  0.3179
  494MOL0     C65102   5.381  12.399   3.555  0.2860 -1.1152  0.8332
  494MOL0     C65103   5.450  12.508   3.500  0.0339 -0.4771  0.9983
  494MOL0     C65104   5.522  12.604   3.573 -1.1041  0.7425 -0.1517
  494MOL0     C65105   5.586  12.733   3.506  1.9721  0.6267 -0.3360
  494MOL0     O65106   5.641  12.829   3.582 -0.1619  0.2158 -0.6324
  494MOL0     C65107   5.728  12.916   3.524  0.5470  0.9272  0.0902
  494MOL0     C65108   5.867  12.893   3.541  0.5370 -0.3568 -0.5887
  494MOL0     C65109   5.964  12.979   3.487 -0.9120 -0.4591  0.3867
  494MOL0     C65110   5.926  13.101   3.425  0.0679  0.3605  0.5535
  494MOL0     O65111   6.037  13.175   3.377  0.6039 -0.1279 -0.5660
  494MOL0     C65112   6.013  13.308   3.332  0.2264 -0.5487 -0.3580
  494MOL0     C65113   6.139  13.396   3.327  0.1160  0.9218  0.2905
  494MOL0     C65114   6.101  13.539   3.302 -0.9298  0.0085 -0.5083
  494MOL0     C65115   6.233  13.609   3.276  0.2723 -0.0473 -0.9405
  494MOL0     C65116   6.228  13.758   3.228 -0.3816 -0.3203  0.0770
  494MOL0     C65117   6.112  13.781   3.127 -0.6558  0.5471 -0.7037
  494MOL0     C65118   6.136  13.916   3.063  0.7744 -0.2567  0.0712
  494MOL0     C65119   6.038  13.929   2.951 -0.3700 -0.3443  0.8395
  494MOL0    Cl65120   5.863  13.883   2.997  0.0651  0.1320  0.0705
  494MOL0     C65121   5.785  13.116   3.402 -0.1207  0.3399 -0.1053
  494MOL0     C65122   5.690  13.020   3.445  0.1349  0.1278  0.0996
  494MOL0     O65123   5.553  12.742   3.396  0.0444 -0.6085  0.1304
  494MOL0     C65124   5.534  12.591   3.712 -0.0205 -0.2746  0.4235
  494MOL0     C65125   5.478  12.473   3.767 -0.7089  0.4455 -0.0960
  494MOL0     N65126   5.044  11.868   3.913  0.0753 -0.1296 -0.2791
  494MOL0     N65127   4.934  11.855   3.853  1.0625  0.0074  0.2228
  494MOL0     C65128   5.263  11.203   2.859  0.4224  0.2531  0.1033
  494MOL0     C65129   5.382  11.132   2.864  0.4807  0.1632  0.1534
  494MOL0     C65130   5.729  10.888   2.919 -1.4909 -0.7290 -0.6399
  494MOL0     C65131   5.772  10.753   2.888  0.0823 -0.7674  0.3753
  494MOL0     C65132   5.903  10.710   2.908 -0.4294  0.0832  0.2491
  494MOL0     C65133   5.997  10.796   2.971  0.3375 -0.1190 -0.0579
  494MOL0     O65134   6.123  10.768   3.007  0.3547  0.0767  0.1266
  494MOL0     C65135   6.181  10.641   2.967  1.3378  0.6905  0.6769
  494MOL0     C65136   6.327  10.670   2.932  0.0017 -0.5689 -0.2201
  494MOL0     C65137   6.352  10.744   2.806 -0.0525  0.1888  0.4266
  494MOL0     C65138   6.397  10.889   2.838 -0.3393  0.5293 -1.0354
  494MOL0     C65139   6.535  10.909   2.884  0.0579 -0.4478 -0.7173
  494MOL0     C65140   6.652  10.938   2.919  0.7233  0.8354  0.1104
  494MOL0     C65141   5.957  10.922   3.014  0.3148  0.0522 -0.1834
  494MOL0     C65142   5.824  10.967   2.995  0.0795  0.8047 -0.3453
  494MOL0     H65143   5.396  11.080   3.197  0.9709  0.0691  0.5794
  494MOL0     H65144   5.192  11.181   3.196  1.4536 -1.1701  0.7528
  494MOL0     H65145   4.977  11.248   3.153  0.2181 -0.4530 -0.7161
  494MOL0     H65146   4.865  11.289   3.019 -0.0955 -0.5900  0.1731
  494MOL0     H65147   4.964  11.501   2.974  2.4830  0.4451  0.2905
  494MOL0     H65148   5.089  11.463   3.101  0.5177 -0.0728 -2.2287
  494MOL0     H65149   4.946  11.482   3.276  3.5819 -1.0828 -1.0912
  494MOL0     H65150   4.796  11.503   3.168 -0.3940  3.2049  0.5180
  494MOL0     H65151   5.032  11.708   3.185  0.0529 -1.0268  0.8164
  494MOL0     H65152   4.875  11.713   3.103 -3.1272 -2.9535  1.0037
  494MOL0     H65153   4.840  11.636   3.384 -1.5668 -4.1466 -3.1650
  494MOL0     H65154   4.767  11.760   3.270  1.5726  0.5978 -2.6394
  494MOL0     H65155   4.913  11.930   3.318  0.6509 -0.9380  0.5694
  494MOL0     H65156   5.019  11.827   3.416 -0.0977  1.0191  1.6300
  494MOL0     H65157   4.857  11.983   3.548  0.3951 -0.0826 -2.0985
  494MOL0     H65158   4.726  11.893   3.484  0.5434  1.5808 -1.9672
  494MOL0     H65159   4.865  11.693   3.589 -1.1993  0.4697 -1.2957
  494MOL0     H65160   4.756  11.787   3.694 -0.3333  1.1651 -0.5686
  494MOL0     H65161   5.124  11.793   3.601 -2.6241  0.3534 -0.7491
  494MOL0     H65162   5.334  11.777   3.773  0.9865  0.6993  0.1622
  494MOL0     H65163   5.312  11.831   3.945 -0.7341  2.3784  0.1362
  494MOL0     H65164   5.312  12.019   3.708 -2.0182  0.1049 -0.2064
  494MOL0     H65165   5.455  11.983   3.812 -0.2901  0.8659 -0.3680
  494MOL0     H65166   5.189  12.111   3.873 -0.6106 -3.1175 -0.6722
  494MOL0     H65167   5.303  12.063   3.999  3.0567 -1.7762 -0.4320
  494MOL0     H65168   5.465  12.218   3.897 -0.2726 -3.2059 -1.4677
  494MOL0     H65169   5.319  12.318   3.946 -1.1379 -2.6914  2.8683
  494MOL0     H65170   5.313  12.340   3.494 -0.3548 -1.0356  1.4599
  494MOL0     H65171   5.433  12.533   3.396 -1.2099  2.2405  1.7622
  494MOL0     H65172   5.898  12.806   3.598  1.2493 -1.3766 -2.4376
  494MOL0     H65173   6.070  12.969   3.508 -0.0592  3.1362 -1.4877
  494MOL0     H65174   5.952  13.350   3.413  1.6295  1.2677 -0.1782
  494MOL0     H65175   5.949  13.314   3.245  2.8548 -2.5690 -2.6044
  494MOL0     H65176   6.207  13.358   3.251 -2.3414  0.4708 -1.8357
  494MOL0     H65177   6.189  13.385   3.424  0.2583 -0.5023  0.0826
  494MOL0     H65178   6.064  13.586   3.394 -0.6023 -1.5671  0.4540
  494MOL0     H65179   6.025  13.528   3.224 -1.9113  0.2790  0.3768
  494MOL0     H65180   6.295  13.608   3.366 -2.5953  1.4860  1.2131
  494MOL0     H65181   6.290  13.559   3.197 -0.1369  1.0019 -1.9246
  494MOL0     H65182   6.332  13.780   3.204  0.1822 -2.1308  0.6699
  494MOL0     H65183   6.211  13.833   3.306  1.6576  1.9571 -1.5553
  494MOL0     H65184   6.021  13.776   3.187 -0.2418 -1.5837 -0.1623
  494MOL0     H65185   6.123  13.702   3.052  3.9820  1.0030 -0.7950
  494MOL0     H65186   6.110  13.991   3.139  0.4700 -1.9978  1.7598
  494MOL0     H65187   6.239  13.916   3.027  0.9301 -1.6160  0.4743
  494MOL0     H65188   6.068  13.864   2.867  0.6047  0.5633  0.4568
  494MOL0     H65189   6.046  14.033   2.920 -3.4435 -0.5361 -1.0024
  494MOL0     H65190   5.756  13.209   3.354 -1.7689 -1.3424 -2.6220
  494MOL0     H65191   5.583  13.036   3.440  0.3284  1.3447 -0.7342
  494MOL0     H65192   5.590  12.664   3.770 -1.2851  1.7565 -0.7925
  494MOL0     H65193   5.481  12.459   3.875 -1.1129 -0.0905 -0.1553
  494MOL0     H65194   5.236  11.250   2.765  1.3242  1.5688  0.4773
  494MOL0     H65195   5.449  11.157   2.782  2.3417  1.0831  1.8746
  494MOL0     H65196   5.698  10.688   2.841 -0.4175  1.4661 -2.1720
  494MOL0     H65197   5.936  10.610   2.882 -0.0155 -0.1630  1.6200
  494MOL0     H65198   6.131  10.603   2.878  0.2818 -0.1757  1.6131
  494MOL0     H65199   6.173  10.567   3.047  0.3762  0.4556  0.3746
  494MOL0     H65200   6.379  10.715   3.017  1.9368  1.3208 -2.2673
  494MOL0     H65201   6.371  10.570   2.926  1.7341  0.1172  0.3371
  494MOL0     H65202   6.263  10.741   2.743  0.5213  2.9536 -0.6507
  494MOL0     H65203   6.448  10.700   2.776 -0.1524  0.4721 -0.3431
  494MOL0     H65204   6.386  10.944   2.744  0.9301 -1.3989 -2.3897
  494MOL0     H65205   6.320  10.937   2.899 -1.9480 -1.2031 -1.5865
  494MOL0     H65206   6.755  10.952   2.943  0.8645  2.3399 -1.2404
  494MOL0     H65207   6.032  10.985   3.060  1.3463  0.6164 -2.5124
  494MOL0     H65208   5.785  11.060   3.035  0.0977  0.2775  0.9301
  495MOL0     O65209   1.350   1.220   3.405  0.1757 -1.4669  1.1263
  495MOL0     C65210   1.415   1.120   3.430 -0.3806 -0.0847  0.0762
  495MOL0     O65211   1.472   1.101   3.552 -0.6719  0.1640 -0.2639
  495MOL0     C65212   1.487   1.204   3.640 -0.1734 -0.5504  0.4795
  495MOL0     C65213   1.552   1.323   3.603  1.0396  0.7073 -0.3758
  495MOL0     C65214   1.571   1.422   3.707 -1.0569  0.1263 -0.5457
  495MOL0     C65215   1.510   1.412   3.824 -1.1092 -0.2066 -0.1007
  495MOL0     O65216   1.550   1.483   3.938  0.6110  0.0390  0.1579
  495MOL0     C65217   1.631   1.603   3.934  0.9941  0.0859 -0.3920
  495MOL0     C65218   1.770   1.564   3.982 -0.2914 -0.8344 -0.3631
  495MOL0     C65219   1.796   1.477   4.107 -0.0116  0.4720 -0.5042
  495MOL0     C65220   1.754   1.325   4.093  0.5998 -0.1426 -0.1239
  495MOL0     C65221   1.837   1.253   3.987  1.2060 -0.6071 -0.1789
  495MOL0     C65222   1.778   1.113   3.970  0.8008  0.9368 -0.5273
  495MOL0     C65223   1.850   1.034   3.868  0.7342  0.1799 -0.3793
  495MOL0     C65224   1.802   1.079   3.727 -0.5405 -0.4195 -0.8860
  495MOL0     N65225   1.898   1.055   3.623 -0.0559  0.1633 -0.6047
  495MOL0     C65226   1.844   1.071   3.492  0.4278  1.0033  0.7614
  495MOL0     C65227   1.937   1.007   3.416 -0.2825  0.7206 -0.1911
  495MOL0     C65228   1.928   0.962   3.275 -0.3361 -0.6683  0.4069
  495MOL0     C65229   1.930   1.083   3.184  0.5696 -0.7150  0.3919
  495MOL0     C65230   2.050   1.175   3.191 -0.2358  0.2448 -0.3050
  495MOL0     C65231   2.044   1.276   3.069  0.3172  0.4748 -0.4760
  495MOL0     O65232   1.943   1.366   3.098  0.0456  0.1872  0.4868
  495MOL0     C65233   1.919   1.470   3.010 -0.3985  0.5193 -0.0796
  495MOL0     C65234   1.812   1.552   3.032 -2.0287  0.1994 -1.1796
  495MOL0     C65235   1.765   1.642   2.931 -0.6035  0.9400  0.1478
  495MOL0     C65236   1.833   1.649   2.811  0.7257  0.1518  0.2322
  495MOL0     C65237   1.788   1.759   2.713  1.5261 -0.2207 -0.2969
  495MOL0     O65238   1.708   1.864   2.764 -0.2496  0.8609  0.0322
  495MOL0     C65239   1.661   1.964   2.679 -0.4466  0.0867  0.5072
  495MOL0     C65240   1.629   2.085   2.749 -0.7228 -0.3151  0.0694
  495MOL0     C65241   1.538   2.168   2.684 -0.1517 -0.1179 -1.0026
  495MOL0     C65242   1.482   2.141   2.559  0.0351 -0.1372  0.0431
  495MOL0     O65243   1.395   2.220   2.487 -0.4171 -0.6678  0.5230
  495MOL0     C65244   1.338   2.331   2.553 -0.8419  0.0269  0.4238
  495MOL0     C65245   1.219   2.382   2.459 -0.7402  0.0319 -0.2684
  495MOL0     C65246   1.116   2.278   2.450  0.4507 -0.3248  1.5050
  495MOL0     C65247   1.017   2.267   2.564  0.5978  0.4093 -0.1363
  495MOL0     C65248   0.918   2.151   2.549 -1.4115  0.3653  0.2679
  495MOL0     C65249   0.852   2.128   2.415  0.3354  0.0299  0.2950
  495MOL0     C65250   0.772   2.255   2.365  0.1870  0.5837 -0.8872
  495MOL0     C65251   0.723   2.250   2.214  0.7336  0.4815 -0.4077
  495MOL0    Cl65252   0.864   2.210   2.121  0.3595 -0.8272 -0.2563
  495MOL0     C65253   1.513   2.020   2.496  0.1941  0.6992 -0.5902
  495MOL0     C65254   1.605   1.937   2.551 -0.5527 -0.0209 -0.1774
  495MOL0     O65255   1.844   1.756   2.607  0.4006  0.6719  0.0477
  495MOL0     C65256   1.933   1.563   2.785  1.3825  0.3525  0.1035
  495MOL0     C65257   1.986   1.485   2.889 -0.0785  0.8354 -0.0137
  495MOL0     N65258   2.049   0.972   3.500 -0.1409 -0.1628 -0.3262
  495MOL0     N65259   2.026   1.016   3.619  0.5057  0.0718 -0.4914
  495MOL0     C65260   1.451   1.294   3.856 -0.4410  0.1911 -0.2956
  495MOL0     C65261   1.435   1.193   3.766  0.4217 -0.2752  1.2420
  495MOL0     C65262   1.425   1.002   3.337 -0.0310  0.1639  0.3280
  495MOL0     C65263   1.358   1.013   3.213 -0.5246  0.8014 -0.8219
  495MOL0     C65264   1.363   0.906   3.122  0.2904  1.1377 -0.6716
  495MOL0     C65265   1.427   0.794   3.158  0.3977 -0.3600  1.0048
  495MOL0     O65266   1.451   0.704   3.058  0.4511  0.6679  0.0111
  495MOL0     C65267   1.467   0.747   2.919  0.5514  0.1753 -0.6577
  495MOL0     C65268   1.362   0.700   2.828  0.7148  0.3942 -0.0857
  495MOL0     C65269   1.382   0.557   2.779  0.2240  0.2748 -0.8174
  495MOL0     C65270   1.244   0.527   2.713 -1.0480 -0.1664 -0.4966
  495MOL0     C65271   1.193   0.612   2.608 -0.4345  1.1705  0.3153
  495MOL0     C65272   1.150   0.683   2.517 -0.0336  0.8441 -0.6950
  495MOL0     C65273   1.478   0.784   3.281 -0.2050 -0.3421  0.7818
  495MOL0     C65274   1.476   0.882   3.379  0.1271 -0.5579  1.0136
  495MOL0     H65275   1.587   1.331   3.501 -1.7748  0.3761 -1.4637
  495MOL0     H65276   1.622   1.516   3.686 -0.4251  0.1612  0.9829
  495MOL0     H65277   1.582   1.672   4.003 -0.7084 -1.8901  0.4848
  495MOL0     H65278   1.639   1.644   3.833 -0.9446 -2.5414 -1.7359
  495MOL0     H65279   1.813   1.661   4.009  0.5276 -1.8700  2.3367
  495MOL0     H65280   1.817   1.531   3.889 -3.3499 -0.6543 -2.1110
  495MOL0     H65281   1.748   1.519   4.195 -2.6948 -3.7422  0.3273
  495MOL0     H65282   1.904   1.480   4.124 -0.0156  4.5154 -0.2985
  495MOL0     H65283   1.765   1.281   4.193 -0.8247 -2.1247 -0.7933
  495MOL0     H65284   1.647   1.324   4.070  0.4090 -1.5274  0.7335
  495MOL0     H65285   1.945   1.257   4.005  1.5461  0.8175 -2.1054
  495MOL0     H65286   1.813   1.305   3.893  1.6412  1.6507  0.9029
  495MOL0     H65287   1.673   1.121   3.941  0.4255 -0.4541  0.3433
  495MOL0     H65288   1.777   1.061   4.066 -0.7031  0.5652 -0.7275
  495MOL0     H65289   1.955   1.061   3.883  0.3013  0.6438  2.3953
  495MOL0     H65290   1.835   0.926   3.881 -1.6588  0.4757 -0.3419
  495MOL0     H65291   1.775   1.185   3.731 -0.3203 -0.3903 -0.1416
  495MOL0     H65292   1.716   1.017   3.697 -0.9268 -0.4975  0.3316
  495MOL0     H65293   1.749   1.097   3.447 -0.2839 -1.5977  0.5864
  495MOL0     H65294   1.833   0.908   3.268  0.2859 -1.5819 -2.9570
  495MOL0     H65295   2.005   0.887   3.255  0.0737  0.0934 -0.9975
  495MOL0     H65296   1.840   1.142   3.201  2.3072  1.8743  1.1933
  495MOL0     H65297   1.934   1.039   3.084 -0.9260  0.0719 -0.0532
  495MOL0     H65298   2.052   1.222   3.289  3.6019  0.7303 -0.4772
  495MOL0     H65299   2.142   1.116   3.180 -2.0356 -2.9686  0.5882
  495MOL0     H65300   2.021   1.215   2.981  0.6431  0.0141 -0.2439
  495MOL0     H65301   2.138   1.331   3.058  0.2410  0.8671  0.6824
  495MOL0     H65302   1.761   1.551   3.128  0.0172  3.9992  0.1511
  495MOL0     H65303   1.689   1.715   2.955  2.6522  3.9271  2.6097
  495MOL0     H65304   1.658   2.111   2.850 -2.7062 -3.1981  1.5203
  495MOL0     H65305   1.508   2.255   2.741  2.3980  0.4261 -0.3712
  495MOL0     H65306   1.413   2.410   2.562 -0.7980  0.0360 -0.0115
  495MOL0     H65307   1.308   2.310   2.656 -0.2580 -2.7081  0.0963
  495MOL0     H65308   1.260   2.403   2.360  0.9740  0.1109  0.4105
  495MOL0     H65309   1.176   2.475   2.497  1.4816  0.0283  2.6869
  495MOL0     H65310   1.161   2.179   2.440  1.2675  0.1350  0.3659
  495MOL0     H65311   1.062   2.300   2.357  3.9799 -0.7355 -0.8724
  495MOL0     H65312   1.074   2.252   2.657  1.1155 -5.3353 -0.9983
  495MOL0     H65313   0.953   2.355   2.576 -0.1269 -0.4324  3.5723
  495MOL0     H65314   0.837   2.156   2.622 -3.3459 -1.2716 -1.6394
  495MOL0     H65315   0.985   2.070   2.577  1.7839  3.7959  3.7779
  495MOL0     H65316   0.785   2.042   2.426 -1.3494  0.9708 -1.8732
  495MOL0     H65317   0.927   2.101   2.340 -0.1145 -2.2347  0.5880
  495MOL0     H65318   0.692   2.262   2.439 -0.9883  1.9706 -2.2130
  495MOL0     H65319   0.843   2.336   2.377  2.7865 -1.4841 -1.3350
  495MOL0     H65320   0.695   2.349   2.177 -4.2342 -0.1096  1.1024
  495MOL0     H65321   0.652   2.173   2.186 -0.8528  0.9403  2.0253
  495MOL0     H65322   1.467   2.001   2.399 -0.5216 -2.2476  0.2203
  495MOL0     H65323   1.624   1.842   2.501 -1.2355 -0.0763 -0.3552
  495MOL0     H65324   1.980   1.558   2.687  0.0544  2.0704 -0.6674
  495MOL0     H65325   2.072   1.424   2.865  0.1678  0.2628  2.1097
  495MOL0     H65326   1.420   1.268   3.957 -3.7312  2.3406 -0.5924
  495MOL0     H65327   1.377   1.110   3.803  0.1259 -0.5282  0.2325
  495MOL0     H65328   1.297   1.103   3.201  0.0112  1.1353 -1.0927
  495MOL0     H65329   1.322   0.926   3.024  0.6219 -2.5722 -1.7086
  495MOL0     H65330   1.558   0.702   2.879 -0.0279 -1.1214 -0.5579
  495MOL0     H65331   1.482   0.856   2.914  2.1768 -0.0865 -3.6786
  495MOL0     H65332   1.267   0.702   2.881  1.3126 -0.9781  1.1173
  495MOL0     H65333   1.352   0.769   2.743  1.2764  1.6733  0.8639
  495MOL0     H65334   1.405   0.503   2.872  1.7285  1.8705 -0.2054
  495MOL0     H65335   1.469   0.554   2.713  0.2097 -2.1329 -0.8154
  495MOL0     H65336   1.255   0.425   2.674  2.6096  1.3735 -4.2603
  495MOL0     H65337   1.163   0.528   2.787 -0.1906  1.5518  0.4834
  495MOL0     H65338   1.137   0.749   2.434  4.2138 -0.3349 -2.5812
  495MOL0     H65339   1.522   0.690   3.315  0.1101 -0.2112  0.7338
  495MOL0     H65340   1.528   0.860   3.472  2.3553 -0.1523 -0.0517
  496MOL0     O65341  11.312   2.610  11.122  0.5742 -0.8013 -0.4273
  496MOL0     C65342  11.355   2.494  11.126 -0.3231  0.4057  0.2719
  496MOL0     O65343  11.288   2.382  11.094  0.1948 -0.4383 -0.5184
  496MOL0     C65344  11.169   2.382  11.042  1.1108  0.3042 -0.2088
  496MOL0     C65345  11.051   2.343  11.109 -0.2991 -0.3451 -0.4876
  496MOL0     C65346  10.933   2.327  11.038  0.3964  0.8234  0.0831
  496MOL0     C65347  10.934   2.353  10.901 -0.1011  0.3394  0.2761
  496MOL0     O65348  10.812   2.348  10.842 -0.0574  0.2938 -0.3685
  496MOL0     C65349  10.793   2.339  10.699  0.0015 -0.6846  0.1324
  496MOL0     C65350  10.655   2.316  10.651 -0.2595  0.5411 -0.5271
  496MOL0     C65351  10.606   2.345  10.509  0.2854 -0.1046  0.2291
  496MOL0     C65352  10.462   2.299  10.483  0.3351 -0.5879 -0.7192
  496MOL0     C65353  10.439   2.141  10.475  0.1878  0.9505 -0.9771
  496MOL0     C65354  10.283   2.122  10.451 -0.1724 -0.6805 -0.2158
  496MOL0     C65355  10.249   1.985  10.385  0.7766  0.1520 -0.7356
  496MOL0     C65356  10.097   1.981  10.352  0.2019  0.3838 -1.0759
  496MOL0     N65357  10.036   1.849  10.318  0.9089  0.0345  0.3156
  496MOL0     C65358   9.898   1.839  10.292 -1.0387 -0.0144 -0.2873
  496MOL0     C65359   9.886   1.719  10.235 -0.4601 -0.1653  0.0815
  496MOL0     C65360   9.758   1.671  10.182  0.5061  0.3280  0.4004
  496MOL0     C65361   9.699   1.568  10.278  0.0985  0.2225  1.0237
  496MOL0     C65362   9.555   1.515  10.253  0.5340  0.3809  0.5003
  496MOL0     C65363   9.539   1.457  10.113 -0.1522  0.4464 -0.7261
  496MOL0     O65364   9.629   1.339  10.116  0.1947  0.5585 -0.6146
  496MOL0     C65365   9.582   1.214  10.077  0.9631  0.2381 -0.6606
  496MOL0     C65366   9.547   1.189   9.944 -0.4881  0.2898  0.4713
  496MOL0     C65367   9.483   1.065   9.917  0.8091 -0.0709 -0.5692
  496MOL0     C65368   9.444   0.974  10.019  0.1311 -0.9967 -0.9172
  496MOL0     C65369   9.353   0.866   9.993 -0.2078  0.0217  0.2041
  496MOL0     O65370   9.337   0.833   9.861  0.9435  0.4105  0.2219
  496MOL0     C65371   9.260   0.730   9.818  1.2330 -0.5948  0.4559
  496MOL0     C65372   9.200   0.627   9.877  0.3873 -0.5881 -0.2667
  496MOL0     C65373   9.089   0.560   9.830 -0.2713 -0.4877 -0.9395
  496MOL0     C65374   9.041   0.588   9.699  1.1896 -0.1118 -0.2197
  496MOL0     O65375   8.936   0.525   9.635  0.1360  0.9506  0.5917
  496MOL0     C65376   8.800   0.553   9.679  0.1031 -0.9734  0.9051
  496MOL0     C65377   8.763   0.703   9.668 -0.5285 -0.2133  0.2599
  496MOL0     C65378   8.742   0.742   9.526 -0.5659 -0.6701 -0.2990
  496MOL0     C65379   8.700   0.890   9.523 -0.5716 -0.1188  0.6417
  496MOL0     C65380   8.605   0.931   9.402  0.1237  0.0831  0.3999
  496MOL0     C65381   8.578   1.082   9.390  0.1582  1.5752 -0.4221
  496MOL0     C65382   8.471   1.126   9.490  0.5950  0.5773  0.6551
  496MOL0     C65383   8.382   1.238   9.437  0.4702  0.8595  0.9576
  496MOL0    Cl65384   8.287   1.304   9.567  0.4795 -0.1574 -0.7539
  496MOL0     C65385   9.118   0.682   9.627  0.1691 -0.0063  0.3006
  496MOL0     C65386   9.228   0.752   9.682  0.7400 -0.4805  0.5089
  496MOL0     O65387   9.313   0.801  10.086 -0.4292 -0.0202 -0.4511
  496MOL0     C65388   9.480   1.006  10.150  0.6532 -0.4301 -0.7721
  496MOL0     C65389   9.548   1.122  10.179 -0.1227  0.2870 -0.5079
  496MOL0     N65390  10.004   1.658  10.249 -0.9965  0.7707 -0.1035
  496MOL0     N65391  10.101   1.733  10.293  0.1061  0.2669 -0.7652
  496MOL0     C65392  11.048   2.393  10.828 -0.0806 -0.2618  0.0754
  496MOL0     C65393  11.160   2.413  10.905 -0.4395 -0.7386 -0.4976
  496MOL0     C65394  11.495   2.480  11.149  0.0636  0.3527 -0.2229
  496MOL0     C65395  11.551   2.358  11.129 -1.3074 -1.2018 -0.1115
  496MOL0     C65396  11.689   2.338  11.152  0.3584  0.1734 -0.2346
  496MOL0     C65397  11.759   2.440  11.212 -0.1263  0.0227  0.0388
  496MOL0     O65398  11.893   2.449  11.256 -1.0006 -0.7061 -0.3311
  496MOL0     C65399  11.963   2.328  11.261  0.1897 -0.6028 -0.3108
  496MOL0     C65400  12.095   2.339  11.324  0.1573  0.0963  0.8246
  496MOL0     C65401  12.202   2.274  11.229 -0.0610  0.4473  0.4298
  496MOL0     C65402  12.240   2.353  11.094 -0.8608 -0.3247  0.3920
  496MOL0     C65403  12.349   2.285  11.026  0.4654  0.6797 -0.3271
  496MOL0     C65404  12.439   2.233  10.965 -0.1645  1.1674  1.0023
  496MOL0     C65405  11.706   2.563  11.227  0.9353 -0.8769  0.1524
  496MOL0     C65406  11.570   2.588  11.195 -0.1966  1.5483  0.8900
  496MOL0     H65407  11.045   2.317  11.214 -0.4699 -0.8844 -0.6288
  496MOL0     H65408  10.836   2.305  11.080  0.3303  1.4129  0.2431
  496MOL0     H65409  10.857   2.258  10.665  0.5858  0.0943 -0.6887
  496MOL0     H65410  10.823   2.432  10.648  0.2414 -1.9238 -2.1148
  496MOL0     H65411  10.580   2.368  10.711 -1.4627  2.1811 -3.2405
  496MOL0     H65412  10.632   2.215  10.687 -0.6420  0.3124 -1.3960
  496MOL0     H65413  10.680   2.294  10.446  0.9514 -1.6130  2.1483
  496MOL0     H65414  10.611   2.451  10.479  3.3499 -0.4219 -0.8391
  496MOL0     H65415  10.398   2.353  10.553 -3.0746 -3.9674 -0.9012
  496MOL0     H65416  10.443   2.351  10.388 -1.2920 -0.1777 -0.1985
  496MOL0     H65417  10.472   2.100  10.571  1.0730 -0.8311 -1.9918
  496MOL0     H65418  10.492   2.093  10.393 -0.5273 -1.2707 -0.2221
  496MOL0     H65419  10.252   2.192  10.372  0.2777 -2.6071 -2.1842
  496MOL0     H65420  10.229   2.147  10.543 -0.6699 -1.4617 -0.2944
  496MOL0     H65421  10.306   1.978  10.292 -0.4788  3.0472 -1.8622
  496MOL0     H65422  10.283   1.907  10.454 -0.1303  0.9497  0.6637
  496MOL0     H65423  10.101   2.036  10.257 -0.5554 -0.0633 -1.3750
  496MOL0     H65424  10.040   2.029  10.432  0.0015 -0.5745 -0.6320
  496MOL0     H65425   9.816   1.902  10.323 -0.7974 -0.8132  2.1550
  496MOL0     H65426   9.774   1.620  10.087 -2.7342 -2.5524  1.1957
  496MOL0     H65427   9.687   1.750  10.155  1.3242  0.4127 -1.6799
  496MOL0     H65428   9.700   1.616  10.376 -1.2110 -0.9047  1.6246
  496MOL0     H65429   9.765   1.482  10.292 -1.4454 -0.9405  1.3564
  496MOL0     H65430   9.522   1.441  10.326  0.3715 -2.1813 -1.9719
  496MOL0     H65431   9.485   1.599  10.263  0.5558  0.3443  0.9897
  496MOL0     H65432   9.579   1.529  10.041 -2.7822  3.2588  0.3861
  496MOL0     H65433   9.435   1.430  10.090 -1.7204  3.7034  1.7134
  496MOL0     H65434   9.573   1.256   9.863  5.7400 -1.9848  0.0279
  496MOL0     H65435   9.450   1.047   9.814 -2.1918 -1.3731  0.4953
  496MOL0     H65436   9.226   0.609   9.981 -1.9150  0.5386  0.5759
  496MOL0     H65437   9.055   0.477   9.892  0.3536 -1.7491 -2.2342
  496MOL0     H65438   8.808   0.508   9.778  0.1727 -1.2322  0.7844
  496MOL0     H65439   8.727   0.492   9.625 -0.2098 -0.1208  0.3499
  496MOL0     H65440   8.835   0.771   9.715  0.3457 -1.1054  0.2465
  496MOL0     H65441   8.672   0.719   9.727 -1.1668  0.4422 -0.8689
  496MOL0     H65442   8.666   0.672   9.490 -1.7775  0.6674 -0.4802
  496MOL0     H65443   8.835   0.721   9.473  0.6031 -1.7339  2.0682
  496MOL0     H65444   8.645   0.906   9.616  1.8804  0.5418  2.0812
  496MOL0     H65445   8.794   0.945   9.531 -0.2047 -0.7618  0.8491
  496MOL0     H65446   8.507   0.881   9.404 -0.8187  1.7983 -0.5834
  496MOL0     H65447   8.650   0.890   9.311  3.1089 -3.0126  3.0064
  496MOL0     H65448   8.551   1.084   9.284 -1.1973 -0.0641 -0.1585
  496MOL0     H65449   8.677   1.122   9.413  2.8429 -5.1217  2.3184
  496MOL0     H65450   8.405   1.050   9.535  1.6741 -2.0635 -1.8909
  496MOL0     H65451   8.535   1.165   9.570  1.6669 -0.8596  0.5501
  496MOL0     H65452   8.309   1.192   9.370  1.9187  0.2795 -0.2695
  496MOL0     H65453   8.433   1.318   9.382  1.1402  1.3192  2.2114
  496MOL0     H65454   9.106   0.707   9.523  0.8129 -0.4175  0.1223
  496MOL0     H65455   9.292   0.821   9.628  0.6128 -2.3796 -2.3299
  496MOL0     H65456   9.450   0.940  10.231 -3.0397  1.8374 -0.0766
  496MOL0     H65457   9.578   1.141  10.282  2.6955  1.0532 -1.3997
  496MOL0     H65458  11.049   2.404  10.720 -0.9669 -3.9416 -0.4375
  496MOL0     H65459  11.249   2.455  10.857 -1.7492  2.7201 -0.1978
  496MOL0     H65460  11.493   2.278  11.085  0.2718 -2.6829  0.4319
  496MOL0     H65461  11.737   2.241  11.148 -0.1236 -0.1045  0.4810
  496MOL0     H65462  11.969   2.287  11.160  0.6961  0.8878 -0.9057
  496MOL0     H65463  11.893   2.264  11.316 -1.3045 -1.3780 -2.9377
  496MOL0     H65464  12.116   2.446  11.337 -0.8504  0.2414  1.4336
  496MOL0     H65465  12.092   2.291  11.422  2.0788  0.7053  1.2112
  496MOL0     H65466  12.162   2.176  11.204 -1.7059  1.3605 -0.7445
  496MOL0     H65467  12.299   2.264  11.278  1.5375  3.1243 -1.8671
  496MOL0     H65468  12.159   2.357  11.021 -0.2275  0.0193 -0.2940
  496MOL0     H65469  12.270   2.457  11.108 -0.1911 -0.4367 -0.1454
  496MOL0     H65470  12.516   2.189  10.904 -2.3151 -0.2811 -0.8284
  496MOL0     H65471  11.764   2.640  11.277 -1.5931  1.7146 -0.6303
  496MOL0     H65472  11.527   2.683  11.224 -2.3799 -0.0641  3.3785
  497MOL0     O65473   7.527   4.785   7.928  0.7350 -0.4292  0.2597
  497MOL0     C65474   7.536   4.686   7.992  0.2501 -0.3149 -0.9074
  497MOL0     O65475   7.481   4.562   7.963  0.3376 -0.3392  0.0793
  497MOL0     C65476   7.372   4.564   7.879 -0.7982 -0.4038  1.3265
  497MOL0     C65477   7.260   4.621   7.912  1.4105 -0.0303 -0.0545
  497MOL0     C65478   7.143   4.634   7.822  0.1130  0.7540 -0.4652
  497MOL0     C65479   7.144   4.556   7.703 -0.0321  0.0383 -0.8171
  497MOL0     O65480   7.039   4.564   7.617  0.8298  0.3901  0.0938
  497MOL0     C65481   6.953   4.443   7.615  0.2922  0.2493  1.0239
  497MOL0     C65482   6.808   4.484   7.624 -0.6285 -0.3630  0.4242
  497MOL0     C65483   6.774   4.585   7.514  0.2921 -0.0197  0.9964
  497MOL0     C65484   6.625   4.577   7.495  0.9696 -0.4143  0.5424
  497MOL0     C65485   6.566   4.672   7.392  0.6552 -0.2478  0.0031
  497MOL0     C65486   6.419   4.644   7.408 -0.8103 -0.0361 -0.4094
  497MOL0     C65487   6.362   4.719   7.289 -0.0224  0.0654 -0.1633
  497MOL0     C65488   6.213   4.721   7.283 -0.2049  0.1129  0.1609
  497MOL0     N65489   6.162   4.597   7.236  0.2978 -0.3258  0.5438
  497MOL0     C65490   6.130   4.571   7.108 -0.5455  1.1585 -0.9087
  497MOL0     C65491   6.091   4.446   7.100 -0.4730  0.2105 -0.3900
  497MOL0     C65492   6.020   4.378   6.989  0.2531  1.2419 -0.1303
  497MOL0     C65493   6.020   4.443   6.855 -0.9865 -0.6660  0.6098
  497MOL0     C65494   5.926   4.366   6.755  0.4519 -0.3903 -0.3334
  497MOL0     C65495   5.978   4.388   6.623  0.5267 -0.4874  0.3713
  497MOL0     O65496   5.875   4.341   6.528  0.2982 -0.6367 -0.7319
  497MOL0     C65497   5.909   4.348   6.395 -0.4682  0.0748 -0.6283
  497MOL0     C65498   6.029   4.384   6.341 -0.8096  0.1419 -0.1601
  497MOL0     C65499   6.053   4.392   6.209 -0.7335  0.7047  0.0475
  497MOL0     C65500   5.951   4.362   6.119  0.3355  0.5127  0.4751
  497MOL0     C65501   5.964   4.379   5.975  0.0661 -1.0922  0.6347
  497MOL0     O65502   6.076   4.423   5.921 -1.0127 -0.3846  0.5946
  497MOL0     C65503   6.083   4.431   5.781  0.3984  0.0900  1.0121
  497MOL0     C65504   6.075   4.556   5.712 -1.1065  0.6087 -0.7943
  497MOL0     C65505   6.088   4.562   5.573  0.6198 -0.2235 -0.4734
  497MOL0     C65506   6.093   4.448   5.496  0.9531  0.3863 -0.2475
  497MOL0     O65507   6.109   4.446   5.366 -0.2025  0.4401 -0.2718
  497MOL0     C65508   6.001   4.489   5.290 -0.1565 -0.8244 -0.7623
  497MOL0     C65509   6.045   4.538   5.155 -0.4878 -0.1309  0.9680
  497MOL0     C65510   5.915   4.578   5.076  0.8039 -0.8830 -0.3587
  497MOL0     C65511   5.949   4.691   4.974 -1.1993 -0.8483  1.1792
  497MOL0     C65512   5.839   4.734   4.869  1.2881  0.1274 -0.4988
  497MOL0     C65513   5.707   4.765   4.944 -0.1457 -0.9863 -0.0852
  497MOL0     C65514   5.602   4.809   4.838 -1.2265  1.1836 -0.5089
  497MOL0     C65515   5.464   4.838   4.894 -0.5119 -0.4246 -0.5883
  497MOL0    Cl65516   5.382   4.688   4.972  0.0805  0.6177 -0.0740
  497MOL0     C65517   6.094   4.320   5.563 -0.4228  0.0175 -0.4020
  497MOL0     C65518   6.101   4.316   5.701  0.2654 -0.6059 -0.6911
  497MOL0     O65519   5.862   4.361   5.908  0.3811  0.1402  0.5398
  497MOL0     C65520   5.825   4.321   6.174 -0.9633 -0.5790  0.0436
  497MOL0     C65521   5.819   4.304   6.309 -0.1041 -0.1857 -0.8939
  497MOL0     N65522   6.099   4.389   7.231  0.8308 -0.4098 -0.2978
  497MOL0     N65523   6.144   4.480   7.309  0.2743 -0.2138 -0.6204
  497MOL0     C65524   7.258   4.479   7.670 -0.0843 -0.1423 -0.3924
  497MOL0     C65525   7.371   4.486   7.762  0.3971  0.3577  0.9604
  497MOL0     C65526   7.614   4.706   8.124  0.5558 -0.1558 -0.1603
  497MOL0     C65527   7.649   4.829   8.183  0.5544 -0.9760 -0.3591
  497MOL0     C65528   7.723   4.840   8.298 -0.5316 -0.5026 -0.7821
  497MOL0     C65529   7.771   4.733   8.371 -0.2894 -0.6016  0.1621
  497MOL0     O65530   7.852   4.754   8.480 -0.3729 -0.3771 -0.5838
  497MOL0     C65531   7.875   4.885   8.543 -0.9929  0.2059  0.4618
  497MOL0     C65532   7.754   4.939   8.625 -0.3371 -0.7409 -0.2903
  497MOL0     C65533   7.728   4.846   8.751  1.0449 -0.6076  0.6587
  497MOL0     C65534   7.624   4.911   8.845  0.1593 -0.0459 -0.7520
  497MOL0     C65535   7.609   4.838   8.967 -0.2328  0.2579 -0.4904
  497MOL0     C65536   7.589   4.779   9.071  0.6750 -0.3050 -0.1486
  497MOL0     C65537   7.732   4.609   8.319 -0.0798 -0.4131 -0.1776
  497MOL0     C65538   7.648   4.596   8.207 -1.0346 -0.4981  0.3037
  497MOL0     H65539   7.266   4.662   8.012  3.6802  3.8875 -1.5677
  497MOL0     H65540   7.062   4.704   7.839 -1.1592 -0.7220 -0.1775
  497MOL0     H65541   6.982   4.367   7.688 -1.1538 -2.0444 -0.6426
  497MOL0     H65542   6.963   4.395   7.517  1.0747  1.5975  0.4162
  497MOL0     H65543   6.783   4.514   7.726  1.3411  2.1369  0.2632
  497MOL0     H65544   6.746   4.395   7.604 -2.2360  0.7519  0.2267
  497MOL0     H65545   6.800   4.547   7.415 -2.1963  1.4022 -0.2981
  497MOL0     H65546   6.820   4.685   7.521  0.2637  0.0568  0.1490
  497MOL0     H65547   6.599   4.472   7.478 -1.4516 -0.6859  4.5561
  497MOL0     H65548   6.581   4.607   7.591 -2.3700 -0.8974 -0.7018
  497MOL0     H65549   6.607   4.624   7.303  0.3949 -1.5967  0.5839
  497MOL0     H65550   6.599   4.776   7.398 -0.6870  0.2825 -1.1128
  497MOL0     H65551   6.358   4.675   7.494  1.1191 -1.3048  1.5077
  497MOL0     H65552   6.402   4.536   7.405  0.4297 -0.2334 -1.9840
  497MOL0     H65553   6.408   4.819   7.285  0.6357 -0.1956 -4.6701
  497MOL0     H65554   6.386   4.656   7.203 -1.8209 -3.3540  1.6641
  497MOL0     H65555   6.181   4.806   7.222  1.8261  0.4916 -0.4665
  497MOL0     H65556   6.172   4.741   7.383  2.9217  0.8746  1.4151
  497MOL0     H65557   6.137   4.652   7.036 -0.0417  0.9151 -1.1460
  497MOL0     H65558   5.920   4.360   7.028  0.5411  1.4061  0.7092
  497MOL0     H65559   6.082   4.288   6.980  0.5637  1.5037 -0.7071
  497MOL0     H65560   6.123   4.462   6.821 -1.2127  1.0876  0.7956
  497MOL0     H65561   5.983   4.545   6.870  0.2559 -0.3537  1.8162
  497MOL0     H65562   5.911   4.258   6.766  1.6674 -0.5309  0.1076
  497MOL0     H65563   5.828   4.414   6.760  1.5892  2.0739  0.1094
  497MOL0     H65564   6.066   4.325   6.606 -0.2898 -1.5395 -0.0829
  497MOL0     H65565   6.011   4.491   6.609  1.0433 -0.8683 -1.5854
  497MOL0     H65566   6.118   4.427   6.387 -0.0797  0.0151 -1.4076
  497MOL0     H65567   6.147   4.425   6.166 -1.8026  0.8911 -2.3230
  497MOL0     H65568   6.055   4.649   5.765 -2.9215 -0.9030  1.3316
  497MOL0     H65569   6.088   4.663   5.530 -0.5858 -1.7373 -4.5412
  497MOL0     H65570   5.964   4.574   5.348 -1.0194 -1.9798  0.4374
  497MOL0     H65571   5.917   4.419   5.283 -2.0307  1.3825 -1.6037
  497MOL0     H65572   6.099   4.457   5.105 -0.8744  0.3666 -0.3008
  497MOL0     H65573   6.120   4.617   5.170  2.6749 -3.3428  3.6598
  497MOL0     H65574   5.835   4.618   5.139  1.0921 -0.3692 -0.3108
  497MOL0     H65575   5.877   4.485   5.033 -0.0333 -0.5036 -0.4503
  497MOL0     H65576   5.981   4.780   5.029  3.3834  0.7080 -3.2075
  497MOL0     H65577   6.044   4.660   4.928  1.0198  1.0496  4.0993
  497MOL0     H65578   5.807   4.662   4.793  1.8344  1.1214 -1.6933
  497MOL0     H65579   5.870   4.822   4.812 -0.1027  1.4733  0.7478
  497MOL0     H65580   5.714   4.843   5.020  0.4419 -0.5794 -0.5509
  497MOL0     H65581   5.666   4.677   4.994  3.3380 -1.4642  2.2553
  497MOL0     H65582   5.645   4.894   4.784  0.2250  0.1301 -1.0812
  497MOL0     H65583   5.596   4.723   4.770 -0.9675  2.0010 -1.5881
  497MOL0     H65584   5.403   4.878   4.813 -0.7819 -1.0821 -0.7151
  497MOL0     H65585   5.473   4.915   4.971 -0.1655 -1.2665  0.2358
  497MOL0     H65586   6.099   4.236   5.495  1.7592 -1.3270  1.2902
  497MOL0     H65587   6.111   4.217   5.746 -0.5774  0.0014  0.9336
  497MOL0     H65588   5.765   4.262   6.105  1.0975 -1.2416 -1.2752
  497MOL0     H65589   5.721   4.271   6.343  0.3758 -2.2481 -1.3615
  497MOL0     H65590   7.267   4.424   7.577  2.1196 -0.2778 -0.1588
  497MOL0     H65591   7.463   4.432   7.744 -0.2781 -1.5657  2.7636
  497MOL0     H65592   7.634   4.922   8.128  3.4976 -1.4795 -2.1971
  497MOL0     H65593   7.755   4.943   8.313  1.8985 -1.4878  1.3254
  497MOL0     H65594   7.918   4.963   8.481  0.9369 -0.0300  1.4175
  497MOL0     H65595   7.954   4.856   8.613  0.7452  0.0354 -1.4902
  497MOL0     H65596   7.764   5.042   8.662 -2.6519  0.1851 -1.9766
  497MOL0     H65597   7.669   4.926   8.557  1.2232 -0.0537 -2.4651
  497MOL0     H65598   7.825   4.823   8.795  0.5660 -2.7533  0.6726
  497MOL0     H65599   7.684   4.752   8.717  0.9459  0.1036 -1.3452
  497MOL0     H65600   7.660   5.012   8.867  1.9066 -0.8059  0.1062
  497MOL0     H65601   7.530   4.911   8.789  0.2462 -3.1738 -1.0519
  497MOL0     H65602   7.584   4.713   9.156  0.8743 -1.6719 -1.1565
  497MOL0     H65603   7.772   4.525   8.374 -0.4212 -2.1617 -2.4225
  497MOL0     H65604   7.635   4.492   8.179  1.3062 -1.5019  2.5512
  498MOL0     O65605   9.491   8.857   2.710  0.0008  0.2888 -0.6261
  498MOL0     C65606   9.551   8.966   2.714 -0.2769  0.9477  0.6229
  498MOL0     O65607   9.689   8.982   2.706 -0.3509  0.3294 -0.0042
  498MOL0     C65608   9.779   8.886   2.744  0.0992 -0.8648 -0.5251
  498MOL0     C65609   9.915   8.907   2.708  1.2307 -0.7182  0.0789
  498MOL0     C65610  10.017   8.827   2.736 -0.4023 -0.6447  0.2801
  498MOL0     C65611   9.992   8.707   2.806  1.4749 -0.5944  0.3363
  498MOL0     O65612  10.109   8.643   2.843  0.7759 -0.3748  0.1220
  498MOL0     C65613  10.118   8.533   2.933  0.2607  0.0735 -0.9526
  498MOL0     C65614  10.111   8.581   3.081  0.3716 -0.0804  0.5358
  498MOL0     C65615   9.958   8.571   3.130  0.0455 -0.3359 -1.3081
  498MOL0     C65616   9.933   8.501   3.263  0.0349 -0.5131  0.5243
  498MOL0     C65617   9.934   8.601   3.381 -0.1113  0.2068 -0.1032
  498MOL0     C65618  10.072   8.661   3.408  0.1645  1.1996  0.5877
  498MOL0     C65619  10.077   8.759   3.537 -0.3378  0.1477  0.3317
  498MOL0     C65620   9.981   8.877   3.530  0.3360 -0.1218 -0.2166
  498MOL0     N65621  10.004   8.957   3.660  0.1444 -0.6748 -1.1820
  498MOL0     C65622   9.972   8.923   3.790  0.7898 -1.2944 -0.0901
  498MOL0     C65623   9.994   9.038   3.858  0.0348  0.8505 -0.2692
  498MOL0     C65624   9.980   9.031   4.009  0.6086 -0.1195  0.3311
  498MOL0     C65625   9.930   9.179   4.047  0.1717  0.3613 -0.2937
  498MOL0     C65626   9.918   9.202   4.205  0.3271  0.4569  0.3544
  498MOL0     C65627   9.818   9.102   4.261 -0.9007 -0.2219 -0.0970
  498MOL0     O65628   9.763   9.156   4.378 -0.3432  0.6653 -0.3601
  498MOL0     C65629   9.647   9.223   4.360 -0.2083 -0.8197 -0.2252
  498MOL0     C65630   9.567   9.233   4.474  0.1692  0.4861  0.2292
  498MOL0     C65631   9.439   9.294   4.472 -0.0666 -0.3000  0.5235
  498MOL0     C65632   9.398   9.371   4.359 -0.4572  0.0034 -1.3306
  498MOL0     C65633   9.269   9.446   4.358  0.8439  0.5600 -0.0131
  498MOL0     O65634   9.269   9.552   4.275  0.5705 -0.8671  0.4454
  498MOL0     C65635   9.184   9.655   4.315  0.4194 -0.4556 -0.4156
  498MOL0     C65636   9.235   9.777   4.360 -0.1282  0.1035 -0.1744
  498MOL0     C65637   9.153   9.879   4.402 -0.0711 -0.2099 -0.9636
  498MOL0     C65638   9.019   9.867   4.393 -0.0816  0.0299  0.4057
  498MOL0     O65639   8.937   9.969   4.420 -0.4790  0.0194  0.8206
  498MOL0     C65640   8.866   9.949   4.542 -0.2758  0.2311  0.3772
  498MOL0     C65641   8.781  10.073   4.567  0.7042  0.8016 -0.3353
  498MOL0     C65642   8.635  10.060   4.502  0.9986 -0.8182 -0.3203
  498MOL0     C65643   8.540  10.189   4.520  0.4369  0.2768  1.1791
  498MOL0     C65644   8.390  10.152   4.489  0.0169 -0.7043  1.1219
  498MOL0     C65645   8.298  10.277   4.477 -0.1174  0.1355  0.5795
  498MOL0     C65646   8.147  10.240   4.450 -0.6709 -0.3636 -0.1374
  498MOL0     C65647   8.063  10.365   4.454  0.0073 -0.3133 -1.3231
  498MOL0    Cl65648   8.079  10.481   4.337  0.6154  0.0475  0.3219
  498MOL0     C65649   8.965   9.755   4.324 -0.4391 -0.7968 -0.4302
  498MOL0     C65650   9.048   9.650   4.288  0.4106 -0.3367 -0.6753
  498MOL0     O65651   9.176   9.408   4.438  0.8568 -0.4360  0.8552
  498MOL0     C65652   9.474   9.360   4.237 -0.6869  0.4899 -0.1306
  498MOL0     C65653   9.593   9.293   4.239  0.3885 -0.2311 -0.7069
  498MOL0     N65654  10.056   9.128   3.780  1.0646 -0.5987 -0.5756
  498MOL0     N65655  10.074   9.076   3.659  0.0946 -0.0869 -0.0302
  498MOL0     C65656   9.853   8.675   2.836  0.2534  0.6074 -0.5055
  498MOL0     C65657   9.749   8.769   2.815  0.0341 -0.6112 -0.3261
  498MOL0     C65658   9.478   9.081   2.692 -0.6235 -0.4159 -0.2086
  498MOL0     C65659   9.540   9.210   2.667  0.3440  0.4579  0.2062
  498MOL0     C65660   9.452   9.321   2.649 -0.2428  0.2886  0.0868
  498MOL0     C65661   9.321   9.312   2.653  0.8380  0.1448 -0.1840
  498MOL0     O65662   9.254   9.434   2.631  0.9239  0.6042 -0.3146
  498MOL0     C65663   9.113   9.439   2.610 -0.3311 -0.6707  0.7279
  498MOL0     C65664   9.084   9.576   2.562 -0.1114  0.7553  0.5482
  498MOL0     C65665   8.930   9.584   2.571 -0.0772 -0.2376 -0.2226
  498MOL0     C65666   8.878   9.722   2.533 -0.0633 -0.0353 -1.2995
  498MOL0     C65667   8.855   9.721   2.385  0.0357  0.8408  0.4389
  498MOL0     C65668   8.856   9.723   2.259 -0.6040 -0.0174 -0.0867
  498MOL0     C65669   9.266   9.182   2.666 -0.5917 -0.5697  0.1583
  498MOL0     C65670   9.339   9.069   2.690  0.0196  0.5324  0.8989
  498MOL0     H65671   9.942   8.995   2.651 -1.9202 -1.3356 -2.6698
  498MOL0     H65672  10.113   8.853   2.694 -1.5681  1.5881 -1.2124
  498MOL0     H65673  10.209   8.476   2.910  1.2828  1.0341  0.5137
  498MOL0     H65674  10.040   8.460   2.910 -2.9544  2.6941  0.7249
  498MOL0     H65675  10.160   8.679   3.089  0.8144 -0.0601 -1.8035
  498MOL0     H65676  10.172   8.509   3.137 -0.6861 -1.4750 -0.0527
  498MOL0     H65677   9.910   8.500   3.061  1.4179 -4.4539  1.5712
  498MOL0     H65678   9.918   8.672   3.136 -5.0900 -2.1252 -0.4224
  498MOL0     H65679   9.833   8.457   3.265 -0.0279 -0.3348  1.9364
  498MOL0     H65680  10.018   8.432   3.268  1.4024  1.0728  0.1266
  498MOL0     H65681   9.889   8.560   3.472 -0.6349 -0.3872 -0.6239
  498MOL0     H65682   9.883   8.693   3.352  0.9424  1.0490  0.6228
  498MOL0     H65683  10.112   8.708   3.318 -0.2423  1.4598  0.5377
  498MOL0     H65684  10.140   8.578   3.428 -0.6842  0.0837 -0.9251
  498MOL0     H65685  10.059   8.697   3.626  2.1978 -0.6989  0.3441
  498MOL0     H65686  10.178   8.800   3.545 -1.5329  2.9823  2.1764
  498MOL0     H65687   9.881   8.843   3.505 -0.0430  2.0993 -1.9991
  498MOL0     H65688  10.003   8.943   3.446 -0.0921 -0.0072 -0.2387
  498MOL0     H65689   9.925   8.839   3.840 -0.1084 -1.1271 -0.6225
  498MOL0     H65690  10.081   9.007   4.045  0.6712 -0.9282 -0.3617
  498MOL0     H65691   9.914   8.953   4.049  2.0044 -2.1638 -1.2049
  498MOL0     H65692   9.832   9.191   3.999  0.4589  1.8624 -0.5663
  498MOL0     H65693   9.998   9.253   4.003 -0.9352  1.2417 -0.5800
  498MOL0     H65694  10.010   9.194   4.264  0.0266 -5.1864  0.6248
  498MOL0     H65695   9.881   9.304   4.217  2.3044  1.1398  1.0173
  498MOL0     H65696   9.876   9.011   4.279 -0.8378  0.1485  1.8297
  498MOL0     H65697   9.745   9.075   4.184 -1.1504 -0.5485  0.2516
  498MOL0     H65698   9.598   9.185   4.566  1.5211  0.8551 -0.0104
  498MOL0     H65699   9.383   9.306   4.565 -0.3332  0.4692  0.2736
  498MOL0     H65700   9.341   9.777   4.379  0.0282 -0.7900 -0.9543
  498MOL0     H65701   9.200   9.971   4.434  2.6408 -1.7986 -0.0434
  498MOL0     H65702   8.947   9.946   4.615 -1.8185  5.0356  2.7058
  498MOL0     H65703   8.815   9.853   4.527  0.8629 -0.2326 -0.7663
  498MOL0     H65704   8.818  10.174   4.545 -1.0347  1.8256  1.1171
  498MOL0     H65705   8.773  10.083   4.676  0.8792  1.9590 -0.4070
  498MOL0     H65706   8.595   9.967   4.543 -3.0124  0.9527  0.2846
  498MOL0     H65707   8.654  10.048   4.395  4.0257  2.1591 -0.2864
  498MOL0     H65708   8.538  10.230   4.622  0.0865  1.8657  0.5686
  498MOL0     H65709   8.578  10.259   4.445 -1.3405 -2.0674 -2.2105
  498MOL0     H65710   8.363  10.094   4.578 -3.5382 -0.1487  0.5616
  498MOL0     H65711   8.378  10.090   4.400 -0.3641  0.2485  0.4887
  498MOL0     H65712   8.332  10.335   4.391 -0.1052  0.7095  0.9677
  498MOL0     H65713   8.317  10.342   4.563  2.4980  2.2682 -1.4487
  498MOL0     H65714   8.127  10.190   4.355 -1.8118  1.4824 -0.9271
  498MOL0     H65715   8.115  10.171   4.528  2.4328  0.9263  2.5499
  498MOL0     H65716   8.086  10.421   4.545 -1.2597 -2.3416  0.3493
  498MOL0     H65717   7.958  10.336   4.452 -0.7415  1.5379  2.0398
  498MOL0     H65718   8.859   9.746   4.304 -0.4211  1.2321 -1.6914
  498MOL0     H65719   9.000   9.559   4.253 -2.7351  0.5024  1.0826
  498MOL0     H65720   9.443   9.412   4.147  2.2247  2.0011 -0.3964
  498MOL0     H65721   9.658   9.290   4.152 -0.8958  0.8999 -1.7584
  498MOL0     H65722   9.847   8.586   2.899  0.7212  0.8266 -0.1476
  498MOL0     H65723   9.651   8.745   2.853  0.5295 -1.8124  0.2375
  498MOL0     H65724   9.647   9.230   2.666  0.5040 -0.3632 -0.1234
  498MOL0     H65725   9.493   9.420   2.628  3.8056 -1.0613  0.6052
  498MOL0     H65726   9.054   9.407   2.696 -0.1156 -0.2384  1.0479
  498MOL0     H65727   9.101   9.370   2.527  0.7707  1.2877 -1.1668
  498MOL0     H65728   9.132   9.653   2.622 -0.8668  1.1600  0.6470
  498MOL0     H65729   9.112   9.575   2.456 -0.1150 -1.5218  0.5193
  498MOL0     H65730   8.903   9.583   2.677 -1.9806 -4.5238 -0.5129
  498MOL0     H65731   8.879   9.501   2.521 -0.6401 -0.8309  1.2853
  498MOL0     H65732   8.790   9.743   2.593  2.0166 -0.0673  2.0130
  498MOL0     H65733   8.950   9.798   2.566 -0.1887 -0.7347  0.6659
  498MOL0     H65734   8.863   9.728   2.152  2.6962 -3.4313 -0.2202
  498MOL0     H65735   9.159   9.168   2.671 -0.4365 -1.5746  1.1493
  498MOL0     H65736   9.290   8.973   2.699 -0.1173  0.5734  0.6140
  499MOL0     O65737   2.029   7.843   0.344  0.5859 -0.3234 -0.0295
  499MOL0     C65738   1.996   7.781   0.446 -0.0900  0.3097 -0.5049
  499MOL0     O65739   1.915   7.670   0.433 -0.1729  0.0980  0.4742
  499MOL0     C65740   1.904   7.606   0.309  0.2817  0.2103  0.2056
  499MOL0     C65741   2.023   7.575   0.236 -0.4043  0.7435  0.6733
  499MOL0     C65742   2.020   7.498   0.114  0.2913  0.2136 -1.0599
  499MOL0     C65743   1.907   7.438   0.078  0.2598  0.5392  0.8413
  499MOL0     O65744   1.905   7.349  -0.032 -0.2741 -0.7821  0.0510
  499MOL0     C65745   1.833   7.388  -0.153 -0.2040 -0.8548 -0.7134
  499MOL0     C65746   1.888   7.523  -0.216  0.8826  0.8079 -0.5403
  499MOL0     C65747   1.865   7.531  -0.369 -0.3023  0.1180 -0.1376
  499MOL0     C65748   1.729   7.473  -0.418 -0.0073 -0.3934  0.1779
  499MOL0     C65749   1.687   7.533  -0.552  0.8682 -0.0325  0.1619
  499MOL0     C65750   1.787   7.535  -0.668 -0.4706  0.7697 -0.4910
  499MOL0     C65751   1.821   7.385  -0.715  0.3397 -0.2597  0.4095
  499MOL0     C65752   1.877   7.391  -0.854  0.9194 -0.5956  0.3381
  499MOL0     N65753   1.768   7.411  -0.953  0.4894  0.4715 -0.2802
  499MOL0     C65754   1.699   7.312  -1.007  0.7184  0.7172 -1.2885
  499MOL0     C65755   1.620   7.366  -1.111  0.1919  0.6358 -0.6081
  499MOL0     C65756   1.529   7.298  -1.204 -0.4775 -0.3157 -0.8879
  499MOL0     C65757   1.567   7.158  -1.228  0.1414 -0.1874 -0.1255
  499MOL0     C65758   1.711   7.135  -1.279 -0.3435 -0.1264 -0.3696
  499MOL0     C65759   1.764   6.996  -1.256 -0.8700 -0.0511  0.6404
  499MOL0     O65760   1.760   6.957  -1.115  0.4544 -0.2659 -0.3331
  499MOL0     C65761   1.864   7.002  -1.034  0.4273 -0.3748  0.4926
  499MOL0     C65762   1.985   7.055  -1.071 -0.6024 -0.1085 -0.4408
  499MOL0     C65763   2.077   7.095  -0.978 -0.7601 -0.4082 -0.4360
  499MOL0     C65764   2.044   7.091  -0.843 -0.4345 -0.3976 -0.9253
  499MOL0     C65765   2.134   7.145  -0.740 -0.3719  0.2162  0.6003
  499MOL0     O65766   2.108   7.120  -0.607  1.0281 -0.1930  0.5564
  499MOL0     C65767   2.187   7.182  -0.509 -1.0645 -0.7360  0.6899
  499MOL0     C65768   2.124   7.252  -0.409 -0.4328  1.2205 -0.5097
  499MOL0     C65769   2.195   7.306  -0.304 -0.4209  0.0908 -0.8290
  499MOL0     C65770   2.336   7.298  -0.294 -0.1188 -0.4382  0.8513
  499MOL0     O65771   2.408   7.341  -0.187  0.0441  0.4195 -0.0219
  499MOL0     C65772   2.344   7.396  -0.072  0.4483  0.0618 -0.0265
  499MOL0     C65773   2.438   7.404   0.044  0.3461  0.3599  0.0383
  499MOL0     C65774   2.371   7.438   0.183  0.2368  1.6829  0.4997
  499MOL0     C65775   2.469   7.485   0.300 -0.0687  0.6682  0.0872
  499MOL0     C65776   2.397   7.539   0.423  0.1844 -0.5249  0.0717
  499MOL0     C65777   2.493   7.556   0.537  0.4064  0.0113  0.1743
  499MOL0     C65778   2.419   7.637   0.643  0.0520  0.3653 -0.3652
  499MOL0     C65779   2.501   7.662   0.773  1.0053 -0.8616  0.5915
  499MOL0    Cl65780   2.514   7.516   0.872  0.3910 -0.0190 -0.5454
  499MOL0     C65781   2.401   7.234  -0.404  1.0003 -1.3725  0.0184
  499MOL0     C65782   2.332   7.183  -0.517  0.2534  0.4101 -0.4576
  499MOL0     O65783   2.227   7.217  -0.783  0.4001  0.7400  0.8065
  499MOL0     C65784   1.922   7.035  -0.807 -0.0075 -1.3582  0.5797
  499MOL0     C65785   1.835   6.993  -0.899  0.0553  0.3891  0.5634
  499MOL0     N65786   1.665   7.502  -1.128  0.7213 -0.1951 -0.6272
  499MOL0     N65787   1.752   7.526  -1.029 -0.5471  0.1313  0.5885
  499MOL0     C65788   1.786   7.462   0.156 -0.0040 -0.0412  0.5540
  499MOL0     C65789   1.784   7.545   0.267 -1.0788  0.7945  0.1807
  499MOL0     C65790   2.048   7.821   0.582 -0.4739 -0.4215  0.5120
  499MOL0     C65791   2.017   7.747   0.701  0.3448  0.3479  0.2075
  499MOL0     C65792   2.062   7.789   0.822 -0.2456  0.2056  0.1249
  499MOL0     C65793   2.120   7.913   0.831 -0.6719  0.1005 -0.4935
  499MOL0     O65794   2.159   7.970   0.949  0.8684  0.1526  0.1245
  499MOL0     C65795   2.144   7.902   1.078 -0.0938  0.9328 -0.3250
  499MOL0     C65796   2.137   7.984   1.206 -0.4224  0.6777 -0.5880
  499MOL0     C65797   2.078   7.892   1.311 -0.2523 -0.5370 -0.5435
  499MOL0     C65798   2.066   7.960   1.450  0.2401 -0.4051  0.0932
  499MOL0     C65799   2.054   7.869   1.556  1.0938 -0.9851 -0.8237
  499MOL0     C65800   2.039   7.778   1.630 -0.1720 -0.6089  0.3485
  499MOL0     C65801   2.159   7.988   0.718 -0.7651  0.4116 -0.0377
  499MOL0     C65802   2.129   7.946   0.588  0.0889  0.0872 -0.9539
  499MOL0     H65803   2.119   7.612   0.269 -0.8199  0.6681  2.0076
  499MOL0     H65804   2.117   7.485   0.066  0.5692  0.4214 -0.5595
  499MOL0     H65805   1.730   7.410  -0.125  0.2502  0.8876 -0.2913
  499MOL0     H65806   1.848   7.311  -0.229 -0.6061 -0.5035 -1.1508
  499MOL0     H65807   1.992   7.538  -0.186 -0.1876  0.5651  3.9777
  499MOL0     H65808   1.834   7.606  -0.169  0.4001  4.4072 -6.4550
  499MOL0     H65809   1.940   7.471  -0.421 -0.9995 -0.9706  0.0699
  499MOL0     H65810   1.879   7.633  -0.407 -0.3927 -0.6155 -2.2582
  499MOL0     H65811   1.725   7.363  -0.421 -1.6072 -0.3603  0.3771
  499MOL0     H65812   1.664   7.505  -0.337  2.1118 -0.6913  2.1085
  499MOL0     H65813   1.657   7.635  -0.527 -0.6697 -0.3999 -0.0789
  499MOL0     H65814   1.604   7.480  -0.600  3.0690 -1.9769 -1.7695
  499MOL0     H65815   1.879   7.582  -0.633  0.0180  2.5581 -3.7693
  499MOL0     H65816   1.754   7.590  -0.756  0.9624 -1.2324 -2.3929
  499MOL0     H65817   1.902   7.339  -0.657 -0.0592 -4.0192 -1.6700
  499MOL0     H65818   1.741   7.311  -0.701 -2.5923  2.1044 -2.2853
  499MOL0     H65819   1.929   7.299  -0.881  0.8591 -0.2270 -1.1403
  499MOL0     H65820   1.943   7.479  -0.861  1.1622 -0.8904 -1.7478
  499MOL0     H65821   1.708   7.208  -0.978  0.4583  1.3218  1.2576
  499MOL0     H65822   1.515   7.345  -1.302 -2.5446  0.0370 -0.4829
  499MOL0     H65823   1.429   7.299  -1.158 -0.4712  1.8452 -0.7960
  499MOL0     H65824   1.491   7.119  -1.296 -2.3357  2.3598  1.0012
  499MOL0     H65825   1.554   7.103  -1.134  1.7709  3.0448  2.1595
  499MOL0     H65826   1.745   7.164  -1.379  0.7020  0.1281  0.0491
  499MOL0     H65827   1.778   7.201  -1.224 -0.6565  1.0350 -1.3377
  499MOL0     H65828   1.860   6.973  -1.302 -0.0332  0.2985  2.1456
  499MOL0     H65829   1.698   6.927  -1.310  0.7138 -0.1944 -1.2234
  499MOL0     H65830   2.026   7.066  -1.171  0.4695  1.2846  0.1213
  499MOL0     H65831   2.173   7.126  -1.016 -0.0250 -3.9631 -1.9212
  499MOL0     H65832   2.017   7.262  -0.396 -0.1596  1.8416  1.8584
  499MOL0     H65833   2.143   7.356  -0.223  0.7202 -0.0252  0.0038
  499MOL0     H65834   2.259   7.337  -0.036 -0.6918  1.4537 -0.3477
  499MOL0     H65835   2.309   7.498  -0.087 -1.3694 -0.5910 -0.5879
  499MOL0     H65836   2.513   7.478   0.013  0.1129  1.7749  2.5995
  499MOL0     H65837   2.487   7.307   0.054  0.8125  0.6722  0.9274
  499MOL0     H65838   2.314   7.349   0.211  1.2083 -0.6477 -3.9108
  499MOL0     H65839   2.310   7.527   0.167  0.0994  1.6724  0.9449
  499MOL0     H65840   2.525   7.398   0.334 -0.3285  0.9212  1.1805
  499MOL0     H65841   2.546   7.554   0.263  2.1691 -0.8309  1.7383
  499MOL0     H65842   2.326   7.470   0.469  0.6513 -0.1284  1.4504
  499MOL0     H65843   2.344   7.633   0.403 -2.7298 -1.4609  2.5427
  499MOL0     H65844   2.583   7.605   0.497  1.4526  0.2847  2.6572
  499MOL0     H65845   2.537   7.466   0.582  4.8360  1.1750 -1.2733
  499MOL0     H65846   2.384   7.725   0.588  3.2535  0.3885 -2.6305
  499MOL0     H65847   2.330   7.585   0.680 -0.2878  1.3748  0.2870
  499MOL0     H65848   2.463   7.749   0.827  1.6834 -0.1748 -0.0011
  499MOL0     H65849   2.599   7.701   0.742 -0.4361  0.8060 -2.2350
  499MOL0     H65850   2.510   7.235  -0.403  1.0622 -0.1474  2.5561
  499MOL0     H65851   2.399   7.143  -0.592  1.9489  1.5332  0.3811
  499MOL0     H65852   1.884   7.030  -0.706 -3.8136 -3.0829 -0.7269
  499MOL0     H65853   1.730   6.973  -0.878  0.0540 -1.2310 -0.7163
  499MOL0     H65854   1.692   7.415   0.128  0.6242 -1.9049  1.4118
  499MOL0     H65855   1.703   7.545   0.340 -1.4663 -0.4594 -0.2278
  499MOL0     H65856   1.954   7.660   0.684 -0.7801  1.5895 -2.8970
  499MOL0     H65857   2.066   7.725   0.910  3.4081  4.6838  3.7345
  499MOL0     H65858   2.231   7.837   1.086 -1.7048 -1.7501 -2.8077
  499MOL0     H65859   2.052   7.843   1.078  0.4672  0.0469  0.0521
  499MOL0     H65860   2.241   8.005   1.230 -0.0776 -1.0701 -0.4320
  499MOL0     H65861   2.074   8.071   1.184 -4.4371 -1.4336  1.4015
  499MOL0     H65862   2.139   7.801   1.323 -0.2361 -0.6214 -1.2453
  499MOL0     H65863   1.980   7.854   1.281  0.4878 -1.4732 -1.8689
  499MOL0     H65864   2.157   8.013   1.480 -0.0865  1.2534 -1.6609
  499MOL0     H65865   1.983   8.032   1.447  2.3174  2.1409 -2.8775
  499MOL0     H65866   2.021   7.684   1.679 -4.0541 -1.4342 -2.2237
  499MOL0     H65867   2.211   8.082   0.730  1.1033 -0.3199 -1.8257
  499MOL0     H65868   2.148   8.009   0.501 -2.4953 -0.5640 -2.0872
  500MOL0     O65869   8.195   5.295   6.608  0.2280  0.6370  0.5586
  500MOL0     C65870   8.136   5.398   6.586  0.3013 -0.4290 -0.2689
  500MOL0     O65871   7.996   5.408   6.567 -0.8843  0.2812  0.0459
  500MOL0     C65872   7.907   5.300   6.556 -0.5819  0.1264  0.0909
  500MOL0     C65873   7.770   5.327   6.565  0.1931  0.2849  0.4674
  500MOL0     C65874   7.672   5.236   6.545  0.7834 -0.1145  0.6200
  500MOL0     C65875   7.709   5.099   6.526  0.4540 -0.3275 -0.2552
  500MOL0     O65876   7.621   5.000   6.505 -0.2180 -0.1911 -0.4973
  500MOL0     C65877   7.483   5.003   6.546  0.3038 -0.4289  0.7874
  500MOL0     C65878   7.423   4.867   6.509 -0.6668 -0.1242  0.4943
  500MOL0     C65879   7.279   4.845   6.534 -0.6998  0.0564  0.2621
  500MOL0     C65880   7.227   4.698   6.565  0.0255  0.5892 -0.3234
  500MOL0     C65881   7.072   4.677   6.571 -0.0792  0.6300  0.6799
  500MOL0     C65882   6.993   4.749   6.458  0.2320 -0.3817 -0.3493
  500MOL0     C65883   6.868   4.663   6.416  0.0349  0.4660  0.6530
  500MOL0     C65884   6.760   4.651   6.529 -0.5141  0.6764 -0.1743
  500MOL0     N65885   6.652   4.550   6.514 -0.1929 -0.0304  0.3430
  500MOL0     C65886   6.657   4.421   6.506 -0.5971  1.2259  0.2243
  500MOL0     C65887   6.541   4.372   6.480 -1.1215 -0.3668  0.3952
  500MOL0     C65888   6.480   4.230   6.472 -0.0865  0.1922  0.0980
  500MOL0     C65889   6.585   4.117   6.444  0.1047 -0.1049  0.1285
  500MOL0     C65890   6.589   4.112   6.291  0.2492 -0.3898  0.2085
  500MOL0     C65891   6.696   4.017   6.248  0.8628  0.0387  0.9500
  500MOL0     O65892   6.669   3.884   6.307  0.7800 -0.7803 -0.2840
  500MOL0     C65893   6.549   3.816   6.284 -0.3296 -0.0929  0.5096
  500MOL0     C65894   6.474   3.762   6.394 -1.1621 -0.3428  0.8224
  500MOL0     C65895   6.358   3.689   6.357  0.4508  0.2262  0.6074
  500MOL0     C65896   6.304   3.673   6.231  0.1497 -0.0995 -0.1901
  500MOL0     C65897   6.172   3.610   6.218  0.7189 -0.3535  0.0898
  500MOL0     O65898   6.132   3.572   6.087  0.1582  0.6115  0.1712
  500MOL0     C65899   6.015   3.496   6.077  0.7367 -0.3823  0.3531
  500MOL0     C65900   5.911   3.541   6.003 -0.2714  0.1954  0.2234
  500MOL0     C65901   5.787   3.476   5.987 -0.3424  0.5285 -0.2714
  500MOL0     C65902   5.773   3.347   6.043  0.2070 -0.4160  1.2348
  500MOL0     O65903   5.652   3.277   6.012 -0.7584 -0.0456  0.4855
  500MOL0     C65904   5.538   3.358   6.047  0.7762 -0.4664  1.0575
  500MOL0     C65905   5.445   3.280   6.141  0.2631 -0.7282  0.3902
  500MOL0     C65906   5.320   3.361   6.178 -1.1683  0.4051  0.1293
  500MOL0     C65907   5.225   3.269   6.243  0.9417  0.0677 -0.4239
  500MOL0     C65908   5.102   3.343   6.294 -0.2406  0.0346 -0.2879
  500MOL0     C65909   5.121   3.436   6.415  0.3108  0.4388 -0.0426
  500MOL0     C65910   4.991   3.447   6.495  0.9448 -0.2466  0.9972
  500MOL0     C65911   4.902   3.572   6.457 -0.2969 -0.8283 -0.3428
  500MOL0    Cl65912   4.987   3.710   6.554  0.2808 -0.6883  0.0387
  500MOL0     C65913   5.880   3.307   6.136 -0.5452 -0.1355 -0.4013
  500MOL0     C65914   6.005   3.373   6.149  0.7508  0.4108  0.9758
  500MOL0     O65915   6.102   3.604   6.318  0.2243 -0.1844  0.7786
  500MOL0     C65916   6.377   3.731   6.129 -0.1025  0.5793 -0.3211
  500MOL0     C65917   6.503   3.794   6.153  0.3168 -0.2807  0.6617
  500MOL0     N65918   6.460   4.484   6.466  0.0682 -0.1813 -0.5480
  500MOL0     N65919   6.527   4.593   6.488 -0.6053  1.0056  0.8791
  500MOL0     C65920   7.841   5.061   6.525  0.0077  0.2266  0.2235
  500MOL0     C65921   7.937   5.160   6.543 -0.6061  0.4771 -0.0510
  500MOL0     C65922   8.217   5.527   6.591 -0.4966 -0.2208  0.4114
  500MOL0     C65923   8.356   5.520   6.599 -0.2158 -0.2082  0.4008
  500MOL0     C65924   8.435   5.639   6.606 -0.3473  0.5900  0.1909
  500MOL0     C65925   8.381   5.762   6.602  0.5588 -0.4027  0.5974
  500MOL0     O65926   8.472   5.869   6.596 -0.0010 -0.3428  0.5601
  500MOL0     C65927   8.423   6.002   6.622  1.0597  1.4030 -0.1607
  500MOL0     C65928   8.545   6.087   6.668 -0.5971  0.2858  0.0872
  500MOL0     C65929   8.646   6.019   6.769  0.5513 -0.6508  1.0778
  500MOL0     C65930   8.604   5.989   6.911 -0.3159 -0.2105 -0.1485
  500MOL0     C65931   8.724   5.969   6.991  0.0368  0.2975 -1.2144
  500MOL0     C65932   8.822   5.944   7.055 -0.4133  0.2368  0.3048
  500MOL0     C65933   8.242   5.780   6.597  0.5182 -0.7253 -0.2733
  500MOL0     C65934   8.160   5.660   6.591  0.5849  1.0381  0.4515
  500MOL0     H65935   7.747   5.432   6.580  0.5499  0.2494  1.3260
  500MOL0     H65936   7.570   5.273   6.540  0.4119 -1.2998 -1.9710
  500MOL0     H65937   7.423   5.081   6.499 -1.5061 -1.7066  0.8498
  500MOL0     H65938   7.489   5.029   6.653 -3.3687  2.3239  0.5345
  500MOL0     H65939   7.474   4.784   6.558  0.0515  0.7468  1.2530
  500MOL0     H65940   7.452   4.856   6.404  0.1166 -2.0002  0.8581
  500MOL0     H65941   7.211   4.901   6.469  0.3481  2.2910  0.9981
  500MOL0     H65942   7.251   4.894   6.627  0.2647 -0.2236  0.7155
  500MOL0     H65943   7.267   4.633   6.487  1.5724 -2.1707  2.5185
  500MOL0     H65944   7.269   4.667   6.661  0.0831  0.2225 -0.4643
  500MOL0     H65945   7.031   4.699   6.670 -1.0257  2.8792 -0.1264
  500MOL0     H65946   7.066   4.569   6.558  0.8730  0.4813  1.3734
  500MOL0     H65947   7.056   4.756   6.369  2.3290  2.2062  1.1541
  500MOL0     H65948   6.961   4.847   6.493 -0.8571 -0.0981 -2.0558
  500MOL0     H65949   6.827   4.710   6.326 -0.7794 -1.3074  0.0489
  500MOL0     H65950   6.903   4.563   6.390 -2.3291 -0.6149  1.2824
  500MOL0     H65951   6.713   4.750   6.538  3.3178  2.5382  1.5965
  500MOL0     H65952   6.807   4.629   6.625  0.6478 -2.0620 -1.2822
  500MOL0     H65953   6.745   4.364   6.535  0.6754  2.0291 -1.8229
  500MOL0     H65954   6.399   4.217   6.399  1.0756 -3.1796 -0.7433
  500MOL0     H65955   6.442   4.205   6.572 -1.8153 -1.6463 -0.9471
  500MOL0     H65956   6.548   4.024   6.487 -3.5918  0.8581 -0.6682
  500MOL0     H65957   6.685   4.122   6.490 -0.5810  2.1861  1.5730
  500MOL0     H65958   6.497   4.080   6.240  0.6550 -4.6745  1.7883
  500MOL0     H65959   6.635   4.202   6.248  1.3052 -1.6488 -1.4290
  500MOL0     H65960   6.796   4.042   6.284  0.5118  2.8781  0.1651
  500MOL0     H65961   6.691   4.011   6.138 -0.6158 -2.0336  1.0816
  500MOL0     H65962   6.497   3.789   6.496 -2.7090  0.2253  1.0464
  500MOL0     H65963   6.302   3.657   6.444  1.0174 -0.1897  0.8217
  500MOL0     H65964   5.926   3.635   5.950 -0.4031 -0.1292 -0.4070
  500MOL0     H65965   5.711   3.529   5.931  1.1015  1.2370 -1.6436
  500MOL0     H65966   5.484   3.380   5.955  3.2050  1.1649 -0.1000
  500MOL0     H65967   5.562   3.454   6.094 -0.6287  0.3305  0.2073
  500MOL0     H65968   5.502   3.251   6.229  0.5907 -2.0724 -0.2389
  500MOL0     H65969   5.430   3.183   6.093 -2.6759  0.4745 -1.3885
  500MOL0     H65970   5.280   3.422   6.096  1.4937  1.4402 -0.5055
  500MOL0     H65971   5.352   3.429   6.258 -0.3776 -0.3343  0.4596
  500MOL0     H65972   5.189   3.195   6.170  1.3616 -0.7218  0.1573
  500MOL0     H65973   5.262   3.213   6.329  0.1246 -0.3860 -0.3543
  500MOL0     H65974   5.029   3.264   6.311 -0.1965  0.0344 -0.0899
  500MOL0     H65975   5.051   3.392   6.211  0.0503 -3.1989 -2.5641
  500MOL0     H65976   5.158   3.533   6.382  0.4080  0.4351  0.0535
  500MOL0     H65977   5.208   3.399   6.472  0.6973 -0.5882 -1.2444
  500MOL0     H65978   4.921   3.367   6.473 -0.2000  1.3134 -1.5044
  500MOL0     H65979   5.026   3.437   6.598  2.2381  1.3084  0.7639
  500MOL0     H65980   4.797   3.564   6.487 -0.5060  0.6889 -0.5516
  500MOL0     H65981   4.906   3.612   6.355  1.7712  0.2412  0.0810
  500MOL0     H65982   5.865   3.210   6.181  3.0329 -0.9241 -0.6185
  500MOL0     H65983   6.086   3.333   6.209  2.6023  3.2398  0.5633
  500MOL0     H65984   6.347   3.715   6.026 -0.9446  3.0008 -0.5104
  500MOL0     H65985   6.552   3.843   6.070  0.9111 -3.7791 -1.2029
  500MOL0     H65986   7.857   4.955   6.514  0.8362  0.2293  1.2993
  500MOL0     H65987   8.039   5.123   6.538  0.8055  4.0711 -2.4190
  500MOL0     H65988   8.394   5.419   6.586 -0.2267 -0.1995  0.2993
  500MOL0     H65989   8.541   5.615   6.605 -0.9457 -2.5204 -1.8205
  500MOL0     H65990   8.343   5.995   6.696 -0.1750  0.3272 -1.5239
  500MOL0     H65991   8.381   6.049   6.532  0.4165 -1.2964 -1.3620
  500MOL0     H65992   8.605   6.120   6.582  0.5455 -2.3528 -0.2303
  500MOL0     H65993   8.506   6.184   6.699 -0.0224  0.9423 -1.1438
  500MOL0     H65994   8.731   6.089   6.771  0.2999 -0.2289 -0.8477
  500MOL0     H65995   8.686   5.922   6.740  1.1073 -0.6627  1.8441
  500MOL0     H65996   8.548   6.076   6.948  1.7133 -0.0756  3.0175
  500MOL0     H65997   8.546   5.896   6.905  0.7052 -0.9669  1.2014
  500MOL0     H65998   8.901   5.942   7.127 -0.2171  0.3726  0.0950
  500MOL0     H65999   8.197   5.878   6.607  0.2316 -0.9597  0.9076
  500MOL0     H66000   8.052   5.656   6.593  0.4657 -0.1399 -2.6152
  501MOL0     O66001   5.555   2.583   8.895 -0.5414 -0.2843 -0.1802
  501MOL0     C66002   5.663   2.601   8.962 -0.3681 -0.7001  1.3103
  501MOL0     O66003   5.759   2.693   8.928 -0.0093  0.5155  0.2949
  501MOL0     C66004   5.725   2.769   8.824  0.5830 -0.2782  0.2446
  501MOL0     C66005   5.656   2.894   8.840 -1.5202  0.2530  0.3048
  501MOL0     C66006   5.623   2.967   8.728 -0.1143 -0.6357 -0.2677
  501MOL0     C66007   5.666   2.930   8.605  0.0256  0.7543 -0.0147
  501MOL0     O66008   5.662   3.022   8.494  0.0756  0.2771 -0.4311
  501MOL0     C66009   5.626   3.160   8.510 -0.2680 -0.2995  0.9277
  501MOL0     C66010   5.581   3.204   8.375 -0.5977  0.7250 -0.1628
  501MOL0     C66011   5.542   3.356   8.378  0.6679 -1.0371 -1.6873
  501MOL0     C66012   5.577   3.423   8.243 -0.0285 -0.9267 -0.0013
  501MOL0     C66013   5.529   3.570   8.239  0.1771  0.6478  0.5481
  501MOL0     C66014   5.608   3.683   8.307  0.0805  0.9838  0.3384
  501MOL0     C66015   5.583   3.818   8.235  0.5048 -0.4165 -1.2678
  501MOL0     C66016   5.653   3.928   8.304 -0.3318  0.4660 -0.3162
  501MOL0     N66017   5.582   3.978   8.417 -0.3431 -0.1652  0.1102
  501MOL0     C66018   5.522   4.101   8.418  0.2316 -0.7070  1.0711
  501MOL0     C66019   5.477   4.107   8.549 -0.1375  0.4440 -0.7015
  501MOL0     C66020   5.394   4.212   8.613 -0.5626  0.3301 -0.9542
  501MOL0     C66021   5.442   4.242   8.752  1.1728 -0.5119 -0.4242
  501MOL0     C66022   5.357   4.353   8.822 -0.2292  0.5788 -0.8213
  501MOL0     C66023   5.381   4.369   8.972  0.1345 -0.4036  0.3257
  501MOL0     O66024   5.332   4.498   9.003  0.6711 -0.0216 -0.5582
  501MOL0     C66025   5.197   4.525   9.023 -0.4164  0.1268 -1.3376
  501MOL0     C66026   5.099   4.432   9.046  0.4837 -0.0290  1.4586
  501MOL0     C66027   4.974   4.474   9.078 -0.4365  0.0203 -0.4518
  501MOL0     C66028   4.932   4.605   9.078 -0.1731 -0.2160  0.3323
  501MOL0     C66029   4.798   4.648   9.100 -0.6801 -0.5732 -0.9557
  501MOL0     O66030   4.761   4.780   9.092 -0.2563  0.0310  0.0874
  501MOL0     C66031   4.656   4.830   9.164  0.0786  0.0605  0.8787
  501MOL0     C66032   4.618   4.960   9.133  0.1074  1.0270 -1.1327
  501MOL0     C66033   4.519   5.029   9.209  0.4274  0.2571 -0.2366
  501MOL0     C66034   4.453   4.968   9.312  0.1556  0.1278 -0.2506
  501MOL0     O66035   4.359   5.025   9.397  0.0276  0.2601 -0.1486
  501MOL0     C66036   4.358   5.176   9.404  0.8342  0.6627 -0.1492
  501MOL0     C66037   4.244   5.220   9.306 -0.7648 -0.4007  0.1969
  501MOL0     C66038   4.113   5.230   9.390 -0.0897  0.2634  0.0905
  501MOL0     C66039   3.989   5.252   9.303 -0.3404 -0.5644 -0.2305
  501MOL0     C66040   3.931   5.123   9.246 -0.1078 -0.6578  0.4467
  501MOL0     C66041   3.816   5.144   9.142 -0.0624 -0.3087  1.1471
  501MOL0     C66042   3.856   5.240   9.024  0.0442  0.3807  0.5608
  501MOL0     C66043   3.717   5.273   8.957 -0.0703 -0.5601  0.2491
  501MOL0    Cl66044   3.635   5.140   8.862 -0.6784 -0.4400 -0.0986
  501MOL0     C66045   4.488   4.838   9.339  0.6198  0.5020 -1.1850
  501MOL0     C66046   4.592   4.773   9.274  0.5272  0.0616 -0.4043
  501MOL0     O66047   4.720   4.559   9.126 -1.0010  0.1572 -0.3795
  501MOL0     C66048   5.029   4.702   9.055  0.2123  0.8869  1.4677
  501MOL0     C66049   5.166   4.660   9.033  0.2380  0.0793 -0.1763
  501MOL0     N66050   5.527   3.999   8.620  0.1729  0.1507 -0.0871
  501MOL0     N66051   5.574   3.920   8.535 -0.1572  0.3468 -0.0341
  501MOL0     C66052   5.724   2.809   8.582  0.2497 -0.5541  0.3580
  501MOL0     C66053   5.754   2.722   8.692 -0.9401  0.4397  0.6704
  501MOL0     C66054   5.680   2.522   9.088 -1.0027 -0.3214  0.1031
  501MOL0     C66055   5.579   2.441   9.136 -0.6318  0.5721  0.0721
  501MOL0     C66056   5.589   2.359   9.244 -0.7487  0.1729 -0.4291
  501MOL0     C66057   5.710   2.356   9.309 -0.6811  0.0328 -0.0398
  501MOL0     O66058   5.718   2.269   9.416  0.8558  0.7512  0.3179
  501MOL0     C66059   5.835   2.234   9.484  0.2727 -0.5967 -0.0045
  501MOL0     C66060   5.837   2.091   9.529  0.5509 -0.5678  0.6798
  501MOL0     C66061   5.955   2.050   9.605 -0.2445 -0.2475  0.1259
  501MOL0     C66062   5.932   1.918   9.688  0.2353  0.4277 -1.0033
  501MOL0     C66063   5.872   1.929   9.818  0.0505 -0.2968  0.1350
  501MOL0     C66064   5.830   1.923   9.936 -0.4119 -0.1914  0.4155
  501MOL0     C66065   5.815   2.442   9.264  0.0927 -0.0651  0.8193
  501MOL0     C66066   5.800   2.525   9.160 -0.7426 -0.7956  0.0821
  501MOL0     H66067   5.625   2.929   8.939 -2.3394 -0.4723  0.3169
  501MOL0     H66068   5.580   3.061   8.762 -0.5043 -2.1654  4.2730
  501MOL0     H66069   5.712   3.221   8.540  0.4389  0.2181 -1.8539
  501MOL0     H66070   5.542   3.174   8.579 -1.2265  2.8720 -0.6742
  501MOL0     H66071   5.505   3.134   8.341 -2.2407 -0.4970  5.0265
  501MOL0     H66072   5.672   3.189   8.317 -1.2352  3.7240 -2.1532
  501MOL0     H66073   5.606   3.404   8.452 -0.3883 -0.7558 -0.9372
  501MOL0     H66074   5.437   3.363   8.408  1.7467 -0.9505  2.8694
  501MOL0     H66075   5.685   3.416   8.230 -0.1923 -2.2983 -0.7864
  501MOL0     H66076   5.537   3.357   8.165  2.9939 -3.5647  0.4666
  501MOL0     H66077   5.428   3.574   8.281 -0.7240 -1.2838 -1.2825
  501MOL0     H66078   5.520   3.589   8.132  1.2973 -0.4786  0.2335
  501MOL0     H66079   5.715   3.660   8.304  0.6754  3.4994 -2.7741
  501MOL0     H66080   5.581   3.688   8.413 -0.6270 -0.4213  0.2432
  501MOL0     H66081   5.605   3.812   8.128  1.2367 -0.4700 -1.1165
  501MOL0     H66082   5.478   3.845   8.253  0.3389 -2.8945  2.4305
  501MOL0     H66083   5.678   4.010   8.236  0.5998 -0.0948 -0.6685
  501MOL0     H66084   5.756   3.893   8.317 -0.3260  0.8617  0.8123
  501MOL0     H66085   5.506   4.161   8.329  2.6500 -1.0800  0.3202
  501MOL0     H66086   5.290   4.184   8.630 -0.0866  0.1085  2.1381
  501MOL0     H66087   5.406   4.300   8.548  3.1736  0.9130  0.2514
  501MOL0     H66088   5.546   4.276   8.742  1.4575 -0.6145  1.6426
  501MOL0     H66089   5.445   4.154   8.817 -1.0758 -1.0176 -0.9253
  501MOL0     H66090   5.375   4.451   8.776 -2.0728  0.1852 -2.5447
  501MOL0     H66091   5.249   4.340   8.812 -0.2401 -0.3208  0.3517
  501MOL0     H66092   5.489   4.356   8.987  0.8282  1.9142 -1.8796
  501MOL0     H66093   5.325   4.292   9.025 -1.3902 -0.5002 -1.3346
  501MOL0     H66094   5.129   4.328   9.036 -0.8187 -0.6889  3.7004
  501MOL0     H66095   4.895   4.401   9.090 -2.5590  2.2907  0.3566
  501MOL0     H66096   4.663   4.994   9.039  1.7705  1.1881 -0.3167
  501MOL0     H66097   4.489   5.126   9.170 -2.8566 -1.5491 -2.7748
  501MOL0     H66098   4.459   5.213   9.379  0.7993 -1.4292 -4.2456
  501MOL0     H66099   4.335   5.211   9.505 -0.5907  0.1174 -0.2656
  501MOL0     H66100   4.243   5.145   9.227  3.1437 -2.1701  1.5513
  501MOL0     H66101   4.279   5.311   9.258 -4.1534  0.6116 -0.5636
  501MOL0     H66102   4.107   5.313   9.461  2.2132  1.1919 -0.6746
  501MOL0     H66103   4.111   5.133   9.440  1.8736  0.4949  0.7187
  501MOL0     H66104   3.912   5.308   9.357 -1.0320  1.1285 -2.7910
  501MOL0     H66105   4.030   5.316   9.224 -1.0150 -1.3885 -1.2734
  501MOL0     H66106   3.898   5.059   9.328  3.3837 -1.5276  1.3591
  501MOL0     H66107   4.012   5.059   9.208  1.0259  0.4239  0.9527
  501MOL0     H66108   3.735   5.187   9.202  1.8096  0.9545  2.9460
  501MOL0     H66109   3.794   5.047   9.097 -0.4336 -0.6499  2.0317
  501MOL0     H66110   3.893   5.336   9.062  1.0195 -0.6292  2.2354
  501MOL0     H66111   3.928   5.198   8.953 -1.2027 -0.9673  0.0432
  501MOL0     H66112   3.745   5.356   8.891 -0.3935 -3.4399 -3.8886
  501MOL0     H66113   3.641   5.309   9.028 -1.3330  0.8815 -1.7190
  501MOL0     H66114   4.450   4.789   9.428  2.8010  1.1312  0.1669
  501MOL0     H66115   4.636   4.683   9.314  0.1835  0.1352  0.1393
  501MOL0     H66116   4.995   4.805   9.055 -1.4405  0.3668  0.5504
  501MOL0     H66117   5.234   4.744   9.024  1.1551 -0.7538 -1.3067
  501MOL0     H66118   5.737   2.784   8.477 -3.2093 -2.5302  0.2395
  501MOL0     H66119   5.800   2.627   8.667 -1.0906  0.1354  1.5295
  501MOL0     H66120   5.502   2.424   9.061  0.5476 -0.6217 -0.9156
  501MOL0     H66121   5.520   2.279   9.270 -1.8517  1.2740  0.1581
  501MOL0     H66122   5.839   2.297   9.574  0.0343  0.6833 -0.8644
  501MOL0     H66123   5.923   2.261   9.425  1.6961  1.4980  2.8060
  501MOL0     H66124   5.743   2.074   9.582 -0.8142  1.8340 -0.7478
  501MOL0     H66125   5.825   2.041   9.432 -3.4470  1.8216 -0.3047
  501MOL0     H66126   5.980   2.135   9.670 -3.1903  2.0365 -1.4841
  501MOL0     H66127   6.043   2.042   9.540 -0.3394 -1.1408  0.1045
  501MOL0     H66128   5.873   1.842   9.636 -2.7335  1.4044  0.7441
  501MOL0     H66129   6.030   1.879   9.717 -1.2768 -1.2201  2.4663
  501MOL0     H66130   5.801   1.934  10.038 -1.7594 -1.0490  0.1486
  501MOL0     H66131   5.898   2.468   9.328  3.0747 -0.7133 -2.4826
  501MOL0     H66132   5.887   2.585   9.135  0.8858 -1.0902  4.1599
  502MOL0     O66133   3.191   1.406   4.580  0.4637  0.2530  1.2268
  502MOL0     C66134   3.096   1.365   4.506  0.2009  0.4578  0.0455
  502MOL0     O66135   3.093   1.375   4.370 -0.6065 -0.0711  0.0664
  502MOL0     C66136   3.188   1.454   4.310 -0.2930  0.3056  0.4976
  502MOL0     C66137   3.256   1.572   4.358  0.5162  0.5256 -0.1834
  502MOL0     C66138   3.346   1.636   4.293 -1.0934 -0.5825  0.9738
  502MOL0     C66139   3.363   1.606   4.154  0.5336  0.1268 -0.2326
  502MOL0     O66140   3.431   1.691   4.070 -0.5951  0.1347  0.2457
  502MOL0     C66141   3.497   1.805   4.113 -0.1338 -0.5665  0.7248
  502MOL0     C66142   3.507   1.909   3.999 -0.2373 -0.6923  0.2931
  502MOL0     C66143   3.380   1.975   3.992 -0.5457  0.1081  0.8477
  502MOL0     C66144   3.371   2.086   3.884  0.7846 -0.4663 -0.7232
  502MOL0     C66145   3.261   2.184   3.922 -0.0148 -0.0728 -0.3852
  502MOL0     C66146   3.253   2.321   3.851  0.4453  0.4879  0.5394
  502MOL0     C66147   3.368   2.414   3.870 -0.2779 -0.1912  0.2413
  502MOL0     C66148   3.319   2.562   3.914 -0.7566 -0.0412 -0.1917
  502MOL0     N66149   3.444   2.648   3.927  0.1991 -0.4121  0.1932
  502MOL0     C66150   3.494   2.704   3.811  0.4714 -1.0762  0.2866
  502MOL0     C66151   3.626   2.715   3.832  0.3285  0.2645  0.6298
  502MOL0     C66152   3.718   2.784   3.733 -0.2223 -0.7243 -0.2757
  502MOL0     C66153   3.812   2.674   3.678 -0.5707 -0.0519  0.2319
  502MOL0     C66154   3.939   2.651   3.767 -0.2924  0.7145 -0.0348
  502MOL0     C66155   4.069   2.677   3.694  1.1859  0.6323 -0.0332
  502MOL0     O66156   4.183   2.646   3.775 -0.3104  0.2328 -0.4152
  502MOL0     C66157   4.308   2.662   3.716 -0.0711  0.2062 -0.5365
  502MOL0     C66158   4.330   2.711   3.589 -0.0546  0.4850 -0.6285
  502MOL0     C66159   4.457   2.726   3.538  0.4072  0.3424  0.1582
  502MOL0     C66160   4.568   2.698   3.613 -0.8050  0.2670 -0.1536
  502MOL0     C66161   4.706   2.693   3.554  0.1570 -0.1648  0.6225
  502MOL0     O66162   4.709   2.708   3.416  0.5399 -0.4039 -0.7148
  502MOL0     C66163   4.831   2.720   3.366  0.2700  0.1065  0.0095
  502MOL0     C66164   4.918   2.832   3.383  0.9531  0.1255  0.4271
  502MOL0     C66165   5.038   2.848   3.308  1.5759  0.0467  1.2435
  502MOL0     C66166   5.070   2.749   3.221 -0.7510  0.6770 -0.3558
  502MOL0     O66167   5.189   2.735   3.164 -0.4716 -0.5921 -1.0043
  502MOL0     C66168   5.313   2.781   3.230 -0.2703  0.7885  0.0033
  502MOL0     C66169   5.438   2.706   3.175  1.0986  0.7629 -0.4727
  502MOL0     C66170   5.449   2.732   3.022 -0.1052  0.6882 -1.1903
  502MOL0     C66171   5.456   2.884   2.983  0.5866  0.5326  0.0307
  502MOL0     C66172   5.494   2.904   2.842  0.9024 -0.4939  0.2935
  502MOL0     C66173   5.378   2.862   2.747 -0.1135 -0.9071 -0.0564
  502MOL0     C66174   5.407   2.890   2.590  0.5226 -0.2878  0.6402
  502MOL0     C66175   5.296   2.852   2.497  1.1916  0.1239 -0.0138
  502MOL0    Cl66176   5.358   2.870   2.321  0.4871 -0.0449 -0.2924
  502MOL0     C66177   4.981   2.641   3.203  0.9143 -0.0394 -0.5164
  502MOL0     C66178   4.863   2.617   3.277 -0.1379 -0.1850 -0.6861
  502MOL0     O66179   4.804   2.714   3.627 -0.8409  0.7363  0.4370
  502MOL0     C66180   4.554   2.645   3.743  0.1473 -0.2246  0.1274
  502MOL0     C66181   4.425   2.635   3.800  0.8626 -0.3576 -0.0993
  502MOL0     N66182   3.641   2.695   3.970 -0.1733  0.5607 -0.3366
  502MOL0     N66183   3.542   2.642   4.019  0.0303  0.7978 -0.6580
  502MOL0     C66184   3.302   1.487   4.103  0.8367  0.2585 -0.5163
  502MOL0     C66185   3.212   1.409   4.178 -0.3654 -1.2523 -0.0094
  502MOL0     C66186   2.996   1.281   4.571  0.0796  0.0988  0.2419
  502MOL0     C66187   2.920   1.179   4.515  0.2153 -1.2627  0.9964
  502MOL0     C66188   2.824   1.118   4.587  0.0255 -0.4661  0.1489
  502MOL0     C66189   2.794   1.152   4.714  0.2761  0.4792 -0.5279
  502MOL0     O66190   2.700   1.093   4.794  0.3138  0.7200  0.0477
  502MOL0     C66191   2.567   1.072   4.737 -0.4769  0.4108  0.0039
  502MOL0     C66192   2.468   1.034   4.855 -0.9075  0.2167  0.5333
  502MOL0     C66193   2.319   1.028   4.800  0.4655  0.0334 -0.1302
  502MOL0     C66194   2.218   0.995   4.925 -0.0135 -0.0670  0.1502
  502MOL0     C66195   2.088   0.975   4.865 -0.2460 -0.7428 -0.1926
  502MOL0     C66196   1.976   0.975   4.815  1.1574 -0.0652 -0.8528
  502MOL0     C66197   2.864   1.249   4.781  0.2716 -0.0721  0.9226
  502MOL0     C66198   2.962   1.314   4.708  0.3515  0.0465  0.2214
  502MOL0     H66199   3.232   1.619   4.453  3.3184 -1.4091  1.6440
  502MOL0     H66200   3.407   1.712   4.341 -0.3639  0.7164 -1.8343
  502MOL0     H66201   3.601   1.779   4.132  0.1558  1.1796  1.7562
  502MOL0     H66202   3.457   1.859   4.200 -1.6476 -1.5950  0.7148
  502MOL0     H66203   3.527   1.869   3.899 -0.1304  4.0624 -1.8771
  502MOL0     H66204   3.587   1.979   4.025 -0.1371 -0.6933 -0.0039
  502MOL0     H66205   3.372   2.017   4.093  2.3141 -0.0825  1.2294
  502MOL0     H66206   3.299   1.905   3.972  0.3624 -0.5174 -0.8592
  502MOL0     H66207   3.469   2.136   3.878  0.5478 -0.1470 -2.7796
  502MOL0     H66208   3.349   2.043   3.786  2.3675 -0.1881 -1.2364
  502MOL0     H66209   3.256   2.202   4.030 -3.6684 -2.1043 -0.0435
  502MOL0     H66210   3.166   2.129   3.920  1.3247 -2.5327 -0.4935
  502MOL0     H66211   3.162   2.371   3.886  0.4569  1.0371 -0.1841
  502MOL0     H66212   3.236   2.303   3.744 -0.1338 -2.7041  1.0708
  502MOL0     H66213   3.440   2.374   3.942 -1.8433 -3.2945  0.2659
  502MOL0     H66214   3.411   2.429   3.771 -1.1343 -0.5023 -0.1896
  502MOL0     H66215   3.272   2.542   4.011  0.5956 -0.2069  0.4531
  502MOL0     H66216   3.240   2.599   3.848  0.1943  0.4639 -1.0647
  502MOL0     H66217   3.448   2.699   3.712 -0.1827  0.9793  0.4380
  502MOL0     H66218   3.775   2.864   3.782  0.7249 -1.3196 -0.3862
  502MOL0     H66219   3.662   2.836   3.654 -1.7527 -0.6292  0.8157
  502MOL0     H66220   3.843   2.711   3.580 -2.6453  2.6523  0.4617
  502MOL0     H66221   3.756   2.581   3.669 -0.4890 -0.0132 -0.8591
  502MOL0     H66222   3.930   2.716   3.855 -1.5552 -0.0420  0.4319
  502MOL0     H66223   3.949   2.551   3.810  2.2241  2.2486  3.4055
  502MOL0     H66224   4.065   2.777   3.649 -0.2523  0.2990 -0.6886
  502MOL0     H66225   4.064   2.599   3.617 -0.3543 -1.3502  1.9361
  502MOL0     H66226   4.245   2.734   3.525  1.2648 -0.6784 -2.9652
  502MOL0     H66227   4.468   2.763   3.437 -0.3999  1.4419  0.4639
  502MOL0     H66228   4.881   2.911   3.447  0.2669  1.4339 -1.5005
  502MOL0     H66229   5.093   2.941   3.310  1.2517  0.3621 -1.5258
  502MOL0     H66230   5.313   2.759   3.337  3.8024  0.3351  0.0601
  502MOL0     H66231   5.320   2.890   3.224  2.7642  0.6973  0.1958
  502MOL0     H66232   5.419   2.599   3.188 -0.1405  0.9053 -0.9528
  502MOL0     H66233   5.531   2.730   3.226  1.5161  0.7417 -1.2031
  502MOL0     H66234   5.359   2.684   2.982 -1.5802  4.0467 -2.3268
  502MOL0     H66235   5.534   2.679   2.979 -1.6818 -1.4004 -1.8719
  502MOL0     H66236   5.369   2.935   3.028 -1.3655 -2.0743 -0.5347
  502MOL0     H66237   5.549   2.909   3.035  0.8603  3.9557 -1.7941
  502MOL0     H66238   5.593   2.857   2.835  2.0835  1.8418  0.2791
  502MOL0     H66239   5.513   3.010   2.823  1.6881 -0.0083  3.2713
  502MOL0     H66240   5.287   2.917   2.771  1.2820  0.9265  1.3192
  502MOL0     H66241   5.357   2.755   2.754 -3.0161 -0.5677 -1.9780
  502MOL0     H66242   5.420   2.998   2.574  0.3557  0.1173  2.9406
  502MOL0     H66243   5.498   2.837   2.562  1.3347  1.1374  0.4602
  502MOL0     H66244   5.213   2.922   2.507 -0.7399 -1.8125 -1.4221
  502MOL0     H66245   5.260   2.752   2.522  1.5296  0.1252  0.4918
  502MOL0     H66246   5.001   2.568   3.126  1.2164  0.5956 -1.0516
  502MOL0     H66247   4.805   2.526   3.265  0.1037 -0.5968  0.9858
  502MOL0     H66248   4.639   2.609   3.801 -1.5280 -1.0104  2.2341
  502MOL0     H66249   4.415   2.614   3.906  0.1033  1.5822  0.2422
  502MOL0     H66250   3.334   1.464   4.002  2.9543 -0.4923  0.2819
  502MOL0     H66251   3.171   1.314   4.144  1.0434 -1.0957 -2.4065
  502MOL0     H66252   2.944   1.146   4.414  0.1486 -0.8981  0.8585
  502MOL0     H66253   2.774   1.027   4.554 -1.7866 -0.1294  1.7840
  502MOL0     H66254   2.554   0.993   4.662 -1.8567  1.0980 -0.5179
  502MOL0     H66255   2.542   1.164   4.683  2.7650 -0.2697 -3.0194
  502MOL0     H66256   2.502   0.948   4.912  0.8235  1.5056  1.5257
  502MOL0     H66257   2.475   1.116   4.927  3.8018  1.7872 -1.3676
  502MOL0     H66258   2.326   0.936   4.741 -2.1844 -2.5567  3.1171
  502MOL0     H66259   2.284   1.117   4.748 -1.1952  0.5646  1.7485
  502MOL0     H66260   2.248   0.914   4.993 -2.3057  0.4919  1.9334
  502MOL0     H66261   2.206   1.085   4.985  2.6250  1.2289 -1.1112
  502MOL0     H66262   1.882   0.966   4.765 -0.5660 -2.1698  2.3653
  502MOL0     H66263   2.828   1.280   4.879 -0.0142  3.0583 -0.0448
  502MOL0     H66264   3.014   1.400   4.747 -0.2580  0.6883 -0.3558
  503MOL0     O66265   9.612   8.297  11.463 -0.3169  0.0773 -0.1178
  503MOL0     C66266   9.516   8.307  11.539  0.4787 -0.2277 -0.4199
  503MOL0     O66267   9.512   8.377  11.652  0.1259 -0.1825 -0.2476
  503MOL0     C66268   9.621   8.439  11.703  0.2337 -0.7475 -0.8141
  503MOL0     C66269   9.742   8.373  11.740 -0.0771 -0.7489 -0.5723
  503MOL0     C66270   9.848   8.443  11.789 -0.2370 -0.1633 -0.2317
  503MOL0     C66271   9.850   8.583  11.794  0.4204  0.3213 -0.8485
  503MOL0     O66272   9.969   8.630  11.845  0.2427  0.0188  0.1587
  503MOL0     C66273  10.013   8.769  11.842 -0.2550  0.7578 -0.1360
  503MOL0     C66274  10.158   8.789  11.900  0.9515 -0.2118  0.4585
  503MOL0     C66275  10.267   8.733  11.808 -0.3417 -0.2613 -0.7777
  503MOL0     C66276  10.331   8.830  11.714  0.4578  0.0349  0.3325
  503MOL0     C66277  10.437   8.750  11.628  0.7720 -0.1935 -0.4113
  503MOL0     C66278  10.477   8.835  11.509 -0.5151  0.1928  0.0620
  503MOL0     C66279  10.560   8.961  11.548 -0.2779  0.5122  0.5975
  503MOL0     C66280  10.709   8.934  11.599  0.5251 -0.2152 -0.1118
  503MOL0     N66281  10.782   9.051  11.633 -0.0963 -1.0379  0.3631
  503MOL0     C66282  10.754   9.137  11.738  0.2100 -0.0142  0.1827
  503MOL0     C66283  10.867   9.222  11.738  0.3762  0.8198 -0.1678
  503MOL0     C66284  10.883   9.342  11.830 -1.0309  0.4472  0.9230
  503MOL0     C66285  11.009   9.330  11.918  0.7891 -0.2983  0.1391
  503MOL0     C66286  11.008   9.224  12.033 -0.2315 -0.0115  0.3025
  503MOL0     C66287  11.120   9.215  12.134 -0.6281 -0.0904 -0.4566
  503MOL0     O66288  11.118   9.330  12.220  0.1909 -0.5209  0.2169
  503MOL0     C66289  11.226   9.362  12.304  1.5447 -0.3542  0.5306
  503MOL0     C66290  11.311   9.265  12.369  0.4702  0.6294 -0.0938
  503MOL0     C66291  11.418   9.306  12.452 -1.4192  0.1946  0.1408
  503MOL0     C66292  11.433   9.441  12.478 -0.4343  0.7661  0.0002
  503MOL0     C66293  11.554   9.484  12.560 -0.3828 -0.5131  0.3793
  503MOL0     O66294  11.544   9.604  12.627 -0.0253  0.9188  0.4471
  503MOL0     C66295  11.645   9.658  12.703 -0.4590 -0.2408  0.1707
  503MOL0     C66296  11.740   9.752  12.658 -0.1374 -0.4311  0.0312
  503MOL0     C66297  11.832   9.818  12.745 -0.6147  0.4020 -0.3460
  503MOL0     C66298  11.834   9.784  12.883  0.4254 -0.0321 -0.5382
  503MOL0     O66299  11.918   9.841  12.981 -0.5448  0.2625  0.0916
  503MOL0     C66300  12.052   9.848  12.930 -0.2629  0.3588  0.5478
  503MOL0     C66301  12.105   9.702  12.896  0.8660  0.0719 -0.4586
  503MOL0     C66302  12.241   9.680  12.829  0.3290  0.3921  0.5314
  503MOL0     C66303  12.349   9.765  12.896  0.1840  0.2193 -0.0566
  503MOL0     C66304  12.493   9.726  12.834  0.2352  0.9026 -1.0801
  503MOL0     C66305  12.515   9.733  12.686  0.5145  0.4451  0.3296
  503MOL0     C66306  12.657   9.686  12.651  0.2382  0.1864 -0.7742
  503MOL0     C66307  12.701   9.715  12.508 -0.2118 -0.6788  0.4267
  503MOL0    Cl66308  12.585   9.663  12.385  0.0021  0.1657 -0.0953
  503MOL0     C66309  11.725   9.698  12.924  0.2064  0.3245  0.0137
  503MOL0     C66310  11.630   9.643  12.834 -1.4745  0.5519 -0.3812
  503MOL0     O66311  11.662   9.425  12.545 -0.4898  0.1840 -0.2058
  503MOL0     C66312  11.334   9.534  12.433  0.1229  0.2428  0.0545
  503MOL0     C66313  11.238   9.497  12.343  0.1908  0.9730  0.1649
  503MOL0     N66314  10.957   9.179  11.646  0.3048 -0.8109 -0.1362
  503MOL0     N66315  10.904   9.074  11.582  0.2597 -0.6781 -0.7933
  503MOL0     C66316   9.731   8.646  11.763  0.6913 -0.2058  0.0085
  503MOL0     C66317   9.620   8.576  11.715  0.4236 -0.5955 -0.0269
  503MOL0     C66318   9.394   8.253  11.480  0.7020 -0.0158  0.7215
  503MOL0     C66319   9.380   8.222  11.343  0.6358 -0.1898 -0.1238
  503MOL0     C66320   9.260   8.164  11.286 -0.3024  0.2278 -0.0464
  503MOL0     C66321   9.152   8.135  11.370 -0.4163 -0.9370  0.0509
  503MOL0     O66322   9.028   8.080  11.337 -0.3738 -0.2105 -0.0954
  503MOL0     C66323   8.984   8.111  11.207 -0.1782  0.3190  0.1640
  503MOL0     C66324   8.847   8.046  11.179  0.2743 -0.3626 -0.0517
  503MOL0     C66325   8.730   8.123  11.264 -0.3704 -0.8644  0.1422
  503MOL0     C66326   8.660   8.237  11.179 -0.4758  0.1214 -1.1123
  503MOL0     C66327   8.581   8.320  11.276  0.3490 -0.1731  0.6149
  503MOL0     C66328   8.507   8.393  11.337 -0.2346 -0.4611  0.7795
  503MOL0     C66329   9.163   8.176  11.503  0.0530 -0.2105  0.4070
  503MOL0     C66330   9.279   8.240  11.559 -0.5580 -0.9189 -0.5245
  503MOL0     H66331   9.749   8.265  11.746 -1.4987 -0.8063  0.5700
  503MOL0     H66332   9.937   8.390  11.819  0.8599  0.0475 -2.8327
  503MOL0     H66333   9.944   8.825  11.906  3.2933  0.1042  4.8038
  503MOL0     H66334  10.015   8.809  11.740 -1.0950  0.2056 -0.3766
  503MOL0     H66335  10.164   8.755  12.004 -0.7995  4.6363  2.4478
  503MOL0     H66336  10.163   8.898  11.910 -0.0295 -0.0369 -0.6873
  503MOL0     H66337  10.216   8.657  11.748  0.9515 -2.2341  0.4716
  503MOL0     H66338  10.342   8.679  11.867 -1.1179 -0.5716 -0.0451
  503MOL0     H66339  10.249   8.854  11.645  0.4420  0.6945  0.5715
  503MOL0     H66340  10.365   8.923  11.760 -0.5799  0.7427 -0.2917
  503MOL0     H66341  10.387   8.661  11.591  0.9274 -0.0878 -0.8749
  503MOL0     H66342  10.515   8.726  11.700 -0.5971 -0.2771  1.1139
  503MOL0     H66343  10.382   8.867  11.464 -2.8703 -4.3450  1.1321
  503MOL0     H66344  10.524   8.777  11.428 -0.0287  0.9612 -0.2107
  503MOL0     H66345  10.566   9.036  11.469  0.9779 -0.3730 -0.2018
  503MOL0     H66346  10.507   9.011  11.630  1.3446 -1.1024  2.7696
  503MOL0     H66347  10.765   8.874  11.527 -1.7662 -1.9788 -0.5603
  503MOL0     H66348  10.698   8.872  11.689 -1.5872 -0.3836 -0.4422
  503MOL0     H66349  10.665   9.152  11.800  0.2879 -0.4398  0.4000
  503MOL0     H66350  10.791   9.352  11.888 -1.4611  2.3827  0.0216
  503MOL0     H66351  10.899   9.427  11.762 -4.1822  1.4912  1.3155
  503MOL0     H66352  11.018   9.434  11.951 -0.7052  1.0214 -3.2370
  503MOL0     H66353  11.093   9.317  11.850  0.9510  0.2804  0.2218
  503MOL0     H66354  10.910   9.209  12.077 -1.8086 -1.9664 -3.4642
  503MOL0     H66355  11.028   9.135  11.973  1.2658  1.4016 -1.4128
  503MOL0     H66356  11.210   9.237  12.076 -1.9451  3.4321 -1.4385
  503MOL0     H66357  11.127   9.123  12.192 -3.6368  1.7064  3.2085
  503MOL0     H66358  11.306   9.159  12.345 -1.1124  0.5203  0.5740
  503MOL0     H66359  11.485   9.229  12.488  0.0566  1.5128  0.3041
  503MOL0     H66360  11.730   9.761  12.550 -0.7040  1.3272  0.1918
  503MOL0     H66361  11.899   9.896  12.710 -0.2457 -0.0023 -0.5616
  503MOL0     H66362  12.092   9.891  13.022 -2.0582  4.1834 -0.2225
  503MOL0     H66363  12.062   9.927  12.854 -2.3912 -0.1910 -0.3912
  503MOL0     H66364  12.029   9.643  12.845  2.0565  1.8313 -4.7236
  503MOL0     H66365  12.113   9.663  12.998 -1.1327 -1.9169 -0.9835
  503MOL0     H66366  12.233   9.694  12.721 -0.7436  1.4557  0.7280
  503MOL0     H66367  12.265   9.573  12.836 -0.3988  0.1985  0.1854
  503MOL0     H66368  12.333   9.872  12.880  0.7498  0.2892 -0.1782
  503MOL0     H66369  12.347   9.748  13.004 -0.8033 -0.3804 -0.1501
  503MOL0     H66370  12.504   9.623  12.870 -0.5831  1.4240  0.8041
  503MOL0     H66371  12.559   9.793  12.889  1.8622 -1.4198 -0.0051
  503MOL0     H66372  12.493   9.837  12.663 -2.5388  0.3924  2.3821
  503MOL0     H66373  12.451   9.679  12.616 -0.3725  0.0999  1.3771
  503MOL0     H66374  12.717   9.739  12.725 -2.0528  1.6196  0.1505
  503MOL0     H66375  12.681   9.582  12.674  0.3113  1.1185  4.5496
  503MOL0     H66376  12.792   9.658  12.489 -0.7717 -1.5049  0.1694
  503MOL0     H66377  12.737   9.818  12.502  1.0058 -1.0960  0.4610
  503MOL0     H66378  11.736   9.655  13.023 -0.9410 -1.5887 -0.6199
  503MOL0     H66379  11.552   9.574  12.866  0.5899 -1.9957 -0.5428
  503MOL0     H66380  11.363   9.637  12.447  1.4991  0.7737 -4.8449
  503MOL0     H66381  11.180   9.575  12.295  1.4433  0.4839 -2.2792
  503MOL0     H66382   9.721   8.754  11.770  1.9531  0.0090 -1.1141
  503MOL0     H66383   9.536   8.640  11.693 -1.0767 -1.4352  2.7146
  503MOL0     H66384   9.464   8.243  11.278 -0.2931  0.0995 -1.2435
  503MOL0     H66385   9.277   8.131  11.184  1.6889 -3.0046  1.1828
  503MOL0     H66386   9.054   8.057  11.142  0.5032 -1.0600  1.9732
  503MOL0     H66387   8.975   8.216  11.177 -0.2171  0.9961  2.4257
  503MOL0     H66388   8.826   8.061  11.073 -3.2310  0.5933  0.6424
  503MOL0     H66389   8.844   7.939  11.203  2.8503 -0.1292  1.6720
  503MOL0     H66390   8.774   8.169  11.353 -0.7977  0.4120 -0.2794
  503MOL0     H66391   8.653   8.051  11.292  2.1855 -4.0155 -0.4461
  503MOL0     H66392   8.736   8.305  11.139 -0.1617 -1.2233 -2.9180
  503MOL0     H66393   8.606   8.188  11.098 -0.0713  0.8064 -1.8107
  503MOL0     H66394   8.445   8.454  11.401  1.9697  0.6495  2.0003
  503MOL0     H66395   9.074   8.175  11.566  1.3031  0.6105  2.3032
  503MOL0     H66396   9.283   8.275  11.662 -0.3479  4.7855 -2.1235
  504MOL0     O66397   4.902   0.751  11.038 -0.1915 -0.3515  0.2499
  504MOL0     C66398   4.893   0.640  10.990  0.3515 -0.0287  0.3811
  504MOL0     O66399   4.773   0.572  10.980 -0.1532  0.4262  0.3659
  504MOL0     C66400   4.660   0.632  11.019 -0.1982  0.0878 -0.5693
  504MOL0     C66401   4.646   0.661  11.154  0.4830  0.0515 -0.9063
  504MOL0     C66402   4.521   0.685  11.204  0.2354 -0.1914 -0.6644
  504MOL0     C66403   4.410   0.696  11.118  0.9015 -0.2942  0.3178
  504MOL0     O66404   4.281   0.722  11.155 -0.5903 -0.2519  0.0197
  504MOL0     C66405   4.253   0.809  11.263 -0.5085 -0.8428  0.3795
  504MOL0     C66406   4.127   0.888  11.234  0.3435  0.3538  0.4205
  504MOL0     C66407   4.156   1.034  11.176 -0.0350  0.2021 -0.4058
  504MOL0     C66408   4.020   1.093  11.123 -0.0483  0.2090 -0.6720
  504MOL0     C66409   4.036   1.239  11.097 -0.5005 -0.2203  0.1243
  504MOL0     C66410   3.923   1.308  11.021 -0.2550 -1.3394 -0.3141
  504MOL0     C66411   3.952   1.468  10.993  0.2537  0.9594 -0.1734
  504MOL0     C66412   3.849   1.530  10.906 -0.9258 -0.0943  0.5123
  504MOL0     N66413   3.853   1.456  10.775 -0.4919  0.1904 -0.4021
  504MOL0     C66414   3.958   1.444  10.688 -0.2834 -0.1253  1.0656
  504MOL0     C66415   3.903   1.373  10.579 -1.2173 -0.4499 -0.3495
  504MOL0     C66416   3.970   1.358  10.445 -0.3507 -0.1454  0.2371
  504MOL0     C66417   4.026   1.214  10.409 -0.0743  0.6681 -0.1742
  504MOL0     C66418   4.140   1.167  10.495  0.5454  0.6409 -0.8148
  504MOL0     C66419   4.082   1.075  10.609  0.5488  1.1636  0.6123
  504MOL0     O66420   4.190   1.044  10.702  0.2187 -0.1603  0.3935
  504MOL0     C66421   4.276   0.950  10.652  0.0645 -0.4493  0.1114
  504MOL0     C66422   4.406   0.982  10.624 -1.3068  0.6776 -0.1722
  504MOL0     C66423   4.492   0.875  10.595 -0.5052  0.6736  0.7506
  504MOL0     C66424   4.444   0.740  10.583 -1.0517 -0.6467  1.6938
  504MOL0     C66425   4.545   0.637  10.540 -1.3234  0.0019  0.3081
  504MOL0     O66426   4.661   0.679  10.476 -0.0543 -0.0083 -0.4339
  504MOL0     C66427   4.771   0.592  10.465  1.2435  0.4126  1.3259
  504MOL0     C66428   4.837   0.553  10.577  0.4826  0.2186  0.0654
  504MOL0     C66429   4.926   0.449  10.581  0.6261 -0.1017 -0.2087
  504MOL0     C66430   4.959   0.384  10.466 -0.5438 -0.3333 -0.0459
  504MOL0     O66431   5.047   0.278  10.454 -0.8189  0.4303  0.3481
  504MOL0     C66432   5.180   0.303  10.518  0.3047 -0.4157 -0.3581
  504MOL0     C66433   5.274   0.187  10.504  0.1640 -0.0302  0.2887
  504MOL0     C66434   5.223   0.067  10.574  0.0274  1.2926 -0.2215
  504MOL0     C66435   5.307  -0.063  10.550 -0.1176 -1.2711 -0.5157
  504MOL0     C66436   5.259  -0.186  10.622 -0.2094 -0.0490  0.0424
  504MOL0     C66437   5.356  -0.304  10.596  0.6508  0.7996 -0.1029
  504MOL0     C66438   5.343  -0.413  10.703  0.1530 -0.7976  0.1484
  504MOL0     C66439   5.449  -0.513  10.698  1.5094 -0.6935  0.7370
  504MOL0    Cl66440   5.417  -0.607  10.556  0.6680  0.2073 -0.1758
  504MOL0     C66441   4.897   0.434  10.345 -0.1527  0.2336 -0.6443
  504MOL0     C66442   4.799   0.534  10.342  0.9047  0.7759 -0.1417
  504MOL0     O66443   4.534   0.531  10.591 -0.2654 -0.3653  1.2111
  504MOL0     C66444   4.316   0.716  10.604 -0.1668  0.5551  0.4622
  504MOL0     C66445   4.232   0.824  10.640  0.4777 -1.0407 -0.0535
  504MOL0     N66446   3.770   1.347  10.608 -0.0912  0.3867  0.2736
  504MOL0     N66447   3.747   1.389  10.726 -0.1951  0.0178  0.4160
  504MOL0     C66448   4.429   0.669  10.978  0.6665 -0.3562  0.8692
  504MOL0     C66449   4.557   0.636  10.928  0.1978 -0.2926  0.3867
  504MOL0     C66450   5.018   0.562  10.954  0.6815  1.2512 -0.6298
  504MOL0     C66451   5.012   0.417  10.963  0.4076  0.0012  0.6952
  504MOL0     C66452   5.129   0.350  10.939  0.1748 -0.0567 -0.0746
  504MOL0     C66453   5.247   0.415  10.907  0.0604  0.6720 -0.0756
  504MOL0     O66454   5.356   0.354  10.845 -0.1899 -0.2619 -0.0177
  504MOL0     C66455   5.456   0.305  10.939  0.5256 -0.5604  0.3584
  504MOL0     C66456   5.543   0.414  11.020  0.3531  0.4730  0.0759
  504MOL0     C66457   5.685   0.366  11.059 -0.5054 -0.1037 -0.3783
  504MOL0     C66458   5.691   0.290  11.191 -0.4174 -0.6521  0.2794
  504MOL0     C66459   5.826   0.247  11.215  0.4384  0.9356  0.3294
  504MOL0     C66460   5.931   0.201  11.253 -0.9221 -0.3261 -0.3444
  504MOL0     C66461   5.249   0.548  10.905  0.3551 -0.5072 -0.0183
  504MOL0     C66462   5.141   0.636  10.935  0.0761  0.2517  0.3988
  504MOL0     H66463   4.739   0.660  11.209 -0.9393 -0.5382  1.6801
  504MOL0     H66464   4.510   0.713  11.309  1.8082  1.0750 -0.8024
  504MOL0     H66465   4.340   0.872  11.286 -1.1158 -0.2792  1.1769
  504MOL0     H66466   4.241   0.746  11.352  1.2563 -2.1973 -0.2885
  504MOL0     H66467   4.076   0.907  11.329 -0.0269  0.6645  0.1644
  504MOL0     H66468   4.057   0.838  11.167  0.4601  3.3386 -2.1616
  504MOL0     H66469   4.225   1.034  11.091  0.7112 -4.0357 -0.0339
  504MOL0     H66470   4.195   1.100  11.254 -0.4243 -0.5660  0.4678
  504MOL0     H66471   3.980   1.050  11.031  1.2520 -3.6270  0.3603
  504MOL0     H66472   3.945   1.090  11.203 -0.2157  0.9685 -0.7914
  504MOL0     H66473   4.130   1.240  11.041 -1.1473 -0.8857 -1.0214
  504MOL0     H66474   4.079   1.288  11.185  0.7219 -1.5855  0.3283
  504MOL0     H66475   3.837   1.310  11.089 -0.8710  2.0543 -0.9979
  504MOL0     H66476   3.915   1.249  10.929 -0.7660 -2.0735  0.1891
  504MOL0     H66477   3.946   1.531  11.082 -0.7948 -1.9403  1.9739
  504MOL0     H66478   4.049   1.476  10.944 -1.4539 -0.5042 -4.2487
  504MOL0     H66479   3.863   1.636  10.884 -2.8722 -0.4954 -3.8456
  504MOL0     H66480   3.747   1.530  10.946 -1.2824 -1.0828 -0.3416
  504MOL0     H66481   4.057   1.486  10.701 -0.2289  0.4008 -0.7288
  504MOL0     H66482   4.052   1.430  10.432 -0.9444  0.6793  0.9884
  504MOL0     H66483   3.883   1.381  10.383 -2.7156 -4.6482  1.4539
  504MOL0     H66484   4.070   1.190  10.312  2.5296  0.2691  1.0224
  504MOL0     H66485   3.941   1.146  10.421  1.2367 -0.8634  0.8855
  504MOL0     H66486   4.214   1.112  10.437 -1.2333 -0.7528 -1.8773
  504MOL0     H66487   4.193   1.247  10.549 -1.0449  0.1025  1.7476
  504MOL0     H66488   4.027   0.991  10.567 -2.1321  2.7752  0.6499
  504MOL0     H66489   3.994   1.123  10.654 -0.4117  2.3755 -2.2661
  504MOL0     H66490   4.445   1.083  10.629  0.3613  0.2857 -3.0317
  504MOL0     H66491   4.597   0.898  10.585 -0.0372 -0.9148  1.6091
  504MOL0     H66492   4.815   0.600  10.673 -0.8927 -1.0297  0.3972
  504MOL0     H66493   4.968   0.429  10.679 -1.5430  1.0111  1.0459
  504MOL0     H66494   5.153   0.315  10.623 -1.9381 -1.1780 -0.7700
  504MOL0     H66495   5.226   0.393  10.476 -0.4986 -0.2968 -1.0198
  504MOL0     H66496   5.380   0.202  10.524  0.5042 -1.4116 -0.3694
  504MOL0     H66497   5.273   0.158  10.399 -0.4470  1.3404 -0.1001
  504MOL0     H66498   5.116   0.054  10.554 -0.4737  0.6403  2.4858
  504MOL0     H66499   5.229   0.089  10.680 -0.3017  0.2709  0.0193
  504MOL0     H66500   5.320  -0.088  10.445 -2.5326 -1.3102 -0.8551
  504MOL0     H66501   5.397  -0.038  10.606 -1.1778 -0.0862  0.7412
  504MOL0     H66502   5.163  -0.224  10.585 -0.8604  0.3545  1.2647
  504MOL0     H66503   5.249  -0.175  10.730  2.6004 -0.1628  0.3896
  504MOL0     H66504   5.458  -0.266  10.608  1.3886 -1.1722  0.3273
  504MOL0     H66505   5.344  -0.347  10.496 -0.0863 -1.5117  0.9147
  504MOL0     H66506   5.349  -0.368  10.803  3.8616  1.4751 -0.8830
  504MOL0     H66507   5.248  -0.466  10.694  0.9458 -1.8973 -2.8884
  504MOL0     H66508   5.442  -0.575  10.787 -1.4345  1.3803  2.1419
  504MOL0     H66509   5.548  -0.470  10.683  0.5798  2.4840  2.7558
  504MOL0     H66510   4.913   0.384  10.250 -2.2354  0.7607 -1.3384
  504MOL0     H66511   4.727   0.564  10.267 -0.9645 -0.4799  1.0486
  504MOL0     H66512   4.275   0.616  10.600 -0.4271  0.5861  1.9108
  504MOL0     H66513   4.126   0.814  10.665  0.1780 -2.5023 -1.6943
  504MOL0     H66514   4.347   0.679  10.907  0.8201  1.4183  0.8899
  504MOL0     H66515   4.561   0.592  10.828 -2.0966 -0.3538  0.2699
  504MOL0     H66516   4.919   0.362  10.969  2.4723 -3.7384  1.6272
  504MOL0     H66517   5.119   0.244  10.920 -3.6778  0.6042 -2.8279
  504MOL0     H66518   5.529   0.247  10.882  0.0699 -1.7903  0.9867
  504MOL0     H66519   5.407   0.250  11.020 -0.3134 -0.9750 -0.4066
  504MOL0     H66520   5.544   0.517  10.982  0.8778  0.4854  0.1157
  504MOL0     H66521   5.495   0.414  11.118  0.6307 -1.1870  0.2379
  504MOL0     H66522   5.750   0.454  11.064 -3.2152  1.9547  3.4974
  504MOL0     H66523   5.717   0.308  10.972  0.6641  1.2532 -0.8812
  504MOL0     H66524   5.682   0.356  11.278  1.4405 -0.6665  0.5123
  504MOL0     H66525   5.616   0.212  11.205  2.3588 -3.3873  0.8671
  504MOL0     H66526   6.030   0.170  11.278 -0.6471 -0.0879 -1.1154
  504MOL0     H66527   5.332   0.606  10.865  0.1007  0.8099  1.2657
  504MOL0     H66528   5.139   0.744  10.940 -1.0351  0.2167  1.2866
  505MOL0     O66529   7.569   9.157   2.619 -0.5498 -0.4283  0.1847
  505MOL0     C66530   7.499   9.125   2.525 -0.9640  0.6328  0.2295
  505MOL0     O66531   7.364   9.135   2.521  0.5443 -0.9694  0.1984
  505MOL0     C66532   7.293   9.229   2.595  0.1535 -0.0592 -0.2971
  505MOL0     C66533   7.160   9.204   2.632 -1.0305  0.0478  0.5681
  505MOL0     C66534   7.072   9.289   2.700 -0.2833 -0.8570 -0.0212
  505MOL0     C66535   7.120   9.416   2.724  0.2329  0.4193  0.1928
  505MOL0     O66536   7.038   9.525   2.752  0.7121  0.2731  0.3954
  505MOL0     C66537   6.900   9.521   2.707  0.1201  1.5018  0.0071
  505MOL0     C66538   6.825   9.643   2.757  0.3987 -0.2098 -0.2897
  505MOL0     C66539   6.881   9.769   2.692  0.4961 -0.2928 -0.1054
  505MOL0     C66540   6.792   9.889   2.719  0.0336 -0.3427 -0.0582
  505MOL0     C66541   6.867  10.012   2.772 -0.6383  0.2994  0.0308
  505MOL0     C66542   6.903  10.013   2.915  0.4134 -0.1865  0.6666
  505MOL0     C66543   7.016  10.103   2.955 -0.5991  0.0965 -0.9686
  505MOL0     C66544   7.070  10.082   3.100 -0.4311  0.2133 -0.6638
  505MOL0     N66545   7.016  10.199   3.181 -0.9845  0.0381 -0.4918
  505MOL0     C66546   6.895  10.221   3.229  0.8554 -0.0041  0.1576
  505MOL0     C66547   6.900  10.338   3.299  0.0879  0.3460  0.1693
  505MOL0     C66548   6.789  10.382   3.396  0.5111  0.7150 -0.2305
  505MOL0     C66549   6.797  10.304   3.535 -0.1256 -1.1836 -0.0742
  505MOL0     C66550   6.698  10.378   3.628 -0.6322  1.1288 -0.0761
  505MOL0     C66551   6.550  10.346   3.607  0.3072 -0.4082 -0.4051
  505MOL0     O66552   6.465  10.404   3.707 -0.1241  0.3449  0.4384
  505MOL0     C66553   6.327  10.412   3.690 -0.2663  0.7748 -0.3509
  505MOL0     C66554   6.257  10.526   3.754 -0.8063 -0.2137  0.6820
  505MOL0     C66555   6.123  10.554   3.726  0.5327 -0.1313 -1.1657
  505MOL0     C66556   6.051  10.454   3.653 -0.7476  1.4091 -0.4858
  505MOL0     C66557   5.905  10.482   3.621 -0.6567  0.3160  0.2713
  505MOL0     O66558   5.850  10.570   3.706  0.4318  0.8880  0.0668
  505MOL0     C66559   5.717  10.607   3.677 -1.0921  0.7620 -0.3041
  505MOL0     C66560   5.606  10.541   3.733 -0.1543 -0.8794  0.5149
  505MOL0     C66561   5.473  10.592   3.713  0.4999  0.9060  1.1716
  505MOL0     C66562   5.455  10.715   3.639 -0.0811  0.1488  0.4924
  505MOL0     O66563   5.331  10.762   3.590 -0.5115  0.1949 -0.2671
  505MOL0     C66564   5.220  10.737   3.673  0.8511  0.4162 -0.3391
  505MOL0     C66565   5.114  10.828   3.633  0.4999 -0.2030 -0.1750
  505MOL0     C66566   4.986  10.809   3.717  0.7918 -0.2147 -0.5764
  505MOL0     C66567   4.894  10.917   3.691  0.0893  0.7777 -0.0499
  505MOL0     C66568   4.757  10.881   3.741 -0.0404 -0.8345  1.5980
  505MOL0     C66569   4.646  10.969   3.683  0.3066 -0.4854  0.4636
  505MOL0     C66570   4.514  10.918   3.720 -0.7222 -0.0710 -0.4476
  505MOL0     C66571   4.405  10.945   3.620  0.2233  0.4818 -0.3157
  505MOL0    Cl66572   4.400  11.117   3.574  0.5654 -0.1028  0.2630
  505MOL0     C66573   5.572  10.779   3.581  0.7356 -0.9159 -0.6332
  505MOL0     C66574   5.693  10.722   3.596  0.4843  0.0245 -0.4353
  505MOL0     O66575   5.846  10.410   3.532  0.4708  0.5233  0.3015
  505MOL0     C66576   6.116  10.347   3.597 -0.7356  0.2327  0.5709
  505MOL0     C66577   6.257  10.323   3.603 -0.1184 -0.6791 -0.7007
  505MOL0     N66578   7.025  10.398   3.272  0.2891  1.1049 -0.6782
  505MOL0     N66579   7.090  10.311   3.200 -0.3125  0.3777  0.3196
  505MOL0     C66580   7.257   9.450   2.702 -0.7201  0.1241  0.5363
  505MOL0     C66581   7.342   9.359   2.629  0.4474 -0.0717  0.7801
  505MOL0     C66582   7.562   9.053   2.417 -0.2516  0.1934  0.6416
  505MOL0     C66583   7.688   9.004   2.427 -0.8135 -0.6683 -0.5757
  505MOL0     C66584   7.751   8.932   2.316 -0.0474 -0.7266 -0.0154
  505MOL0     C66585   7.687   8.922   2.190 -0.7382  0.0273 -0.4549
  505MOL0     O66586   7.746   8.858   2.087  0.3855  0.4276 -0.4923
  505MOL0     C66587   7.831   8.937   2.006 -0.6646 -0.0136  0.6366
  505MOL0     C66588   7.865   8.875   1.867 -0.9610 -0.7320  0.3161
  505MOL0     C66589   7.739   8.868   1.776 -0.3568 -0.7582 -0.0832
  505MOL0     C66590   7.761   8.796   1.643 -0.0628 -0.6261 -0.9797
  505MOL0     C66591   7.643   8.800   1.566 -0.2348  0.2168  0.1303
  505MOL0     C66592   7.531   8.785   1.514 -0.6337 -0.5954  0.1092
  505MOL0     C66593   7.551   8.967   2.189 -0.3039 -0.1131  0.6748
  505MOL0     C66594   7.494   9.034   2.293 -0.7843 -0.0059 -0.3063
  505MOL0     H66595   7.131   9.103   2.604  1.3131  0.0745 -2.4569
  505MOL0     H66596   6.974   9.257   2.734 -1.8819  1.2614 -2.2811
  505MOL0     H66597   6.848   9.433   2.746  1.4676  1.4090  1.7168
  505MOL0     H66598   6.894   9.515   2.597 -0.6210 -1.9527  0.1105
  505MOL0     H66599   6.804   9.650   2.864  0.4291  2.0878 -0.3735
  505MOL0     H66600   6.722   9.630   2.721  0.4023 -2.6049  0.4268
  505MOL0     H66601   6.887   9.761   2.584 -3.6901  3.1692 -0.8688
  505MOL0     H66602   6.984   9.781   2.726  2.2148 -3.3029 -3.5926
  505MOL0     H66603   6.731   9.909   2.630 -0.7062  1.3888  0.7900
  505MOL0     H66604   6.717   9.861   2.794  1.1931 -0.9979  0.8987
  505MOL0     H66605   6.819  10.105   2.740 -0.2313  1.2673  2.0790
  505MOL0     H66606   6.961  10.008   2.716 -0.4649  1.9649  0.1556
  505MOL0     H66607   6.940   9.914   2.943  5.2872  0.8904 -1.0503
  505MOL0     H66608   6.813  10.048   2.967 -0.9174 -0.6560 -1.1877
  505MOL0     H66609   7.101  10.104   2.886  0.4188  0.7762  0.2374
  505MOL0     H66610   6.981  10.207   2.949  2.0620  1.4813  3.0888
  505MOL0     H66611   7.179  10.085   3.102 -0.4128  0.4080  1.7078
  505MOL0     H66612   7.046   9.986   3.147 -2.4564  1.5454  1.2818
  505MOL0     H66613   6.814  10.150   3.241  1.4277 -0.1602  5.0459
  505MOL0     H66614   6.694  10.365   3.346  0.0247  2.4111  0.0526
  505MOL0     H66615   6.792  10.491   3.403 -0.5144  0.7703 -0.6133
  505MOL0     H66616   6.895  10.312   3.582 -0.8476  1.4251  1.1641
  505MOL0     H66617   6.767  10.199   3.530  1.2242 -1.5750 -0.2574
  505MOL0     H66618   6.718  10.346   3.731  0.1906  2.0488  0.0634
  505MOL0     H66619   6.718  10.486   3.631  0.2437  0.9766  3.2217
  505MOL0     H66620   6.533  10.239   3.619 -4.3814  0.1672  0.1722
  505MOL0     H66621   6.511  10.390   3.515  3.3425 -1.3210 -2.2638
  505MOL0     H66622   6.314  10.597   3.813  0.0257  0.3179 -0.7194
  505MOL0     H66623   6.091  10.643   3.781  0.3064 -1.0504  0.2488
  505MOL0     H66624   5.625  10.462   3.805 -0.8044  1.2611  3.2038
  505MOL0     H66625   5.384  10.535   3.735  0.4944 -1.1946 -3.2615
  505MOL0     H66626   5.252  10.754   3.776  2.6614 -0.0340 -0.7956
  505MOL0     H66627   5.189  10.632   3.667 -3.0243  1.3213  1.0520
  505MOL0     H66628   5.085  10.807   3.530 -1.7105  1.6833 -0.0247
  505MOL0     H66629   5.144  10.933   3.638 -1.7637  0.5048 -0.1628
  505MOL0     H66630   5.004  10.804   3.825 -2.7749 -1.7335  0.0895
  505MOL0     H66631   4.956  10.707   3.695 -3.6868 -0.0674  3.3392
  505MOL0     H66632   4.916  11.010   3.744 -2.9125  0.9285  1.1234
  505MOL0     H66633   4.886  10.930   3.582  0.5620 -2.1591 -0.5228
  505MOL0     H66634   4.769  10.884   3.849  1.7892  2.6689  1.4290
  505MOL0     H66635   4.744  10.777   3.708 -1.3741 -0.1521 -0.1714
  505MOL0     H66636   4.643  10.978   3.574  1.1846  2.7037  0.6065
  505MOL0     H66637   4.647  11.071   3.723 -2.3059  0.3870 -1.3648
  505MOL0     H66638   4.520  10.809   3.711  1.4710  0.1268 -1.9915
  505MOL0     H66639   4.496  10.955   3.822  3.7853  0.0617  0.4915
  505MOL0     H66640   4.306  10.913   3.655 -0.2595  2.5733  0.3989
  505MOL0     H66641   4.436  10.889   3.532  2.4665  1.3615 -0.1506
  505MOL0     H66642   5.565  10.872   3.526  2.7120 -0.6066 -0.4150
  505MOL0     H66643   5.766  10.779   3.539 -0.9979  1.4547 -0.9823
  505MOL0     H66644   6.063  10.277   3.533  0.2370 -0.9230  0.9701
  505MOL0     H66645   6.315  10.250   3.548  2.2175  0.6410 -0.1021
  505MOL0     H66646   7.290   9.553   2.716 -1.6841  0.6419 -0.8130
  505MOL0     H66647   7.447   9.385   2.619  0.7523 -1.2599  0.7011
  505MOL0     H66648   7.747   9.020   2.517 -2.6533  0.0336  0.5695
  505MOL0     H66649   7.857   8.911   2.324  0.3250  0.0498 -2.1643
  505MOL0     H66650   7.930   8.947   2.052  1.0241 -1.3390 -2.3518
  505MOL0     H66651   7.799   9.041   2.001  1.0862  0.7076  2.9739
  505MOL0     H66652   7.930   8.937   1.805 -2.5049 -3.2268 -4.3572
  505MOL0     H66653   7.905   8.779   1.901 -0.8716  0.6239  4.5117
  505MOL0     H66654   7.697   8.965   1.751  1.3738  0.1214  0.2275
  505MOL0     H66655   7.666   8.812   1.835 -0.5860  0.7421  1.1271
  505MOL0     H66656   7.850   8.845   1.601 -1.5000  2.9067 -0.2597
  505MOL0     H66657   7.795   8.692   1.650 -1.3018 -0.9796  0.1364
  505MOL0     H66658   7.439   8.768   1.460 -0.9884 -2.6477  1.2263
  505MOL0     H66659   7.476   8.952   2.112  0.9200 -1.5206 -0.3117
  505MOL0     H66660   7.391   9.068   2.295 -1.6959 -2.4269  3.4563
  506MOL0     O66661   1.999   1.545   8.704  0.1264  0.1228 -0.7240
  506MOL0     C66662   2.054   1.467   8.778  0.5656 -0.6423 -0.0462
  506MOL0     O66663   1.998   1.369   8.853  0.3881 -0.3829  0.4141
  506MOL0     C66664   1.872   1.376   8.897  0.5237 -0.0116  0.9510
  506MOL0     C66665   1.789   1.266   8.876 -0.2001 -0.0293 -0.3461
  506MOL0     C66666   1.650   1.281   8.884  0.7867  0.4041  0.7040
  506MOL0     C66667   1.586   1.410   8.915 -0.7857  0.6995  0.8083
  506MOL0     O66668   1.458   1.450   8.910  0.1168 -0.3280  0.6861
  506MOL0     C66669   1.388   1.393   8.797 -0.9887 -0.1915  0.5131
  506MOL0     C66670   1.249   1.454   8.793  0.1669  0.2569  0.2800
  506MOL0     C66671   1.170   1.402   8.672  0.3141 -0.0757  0.1216
  506MOL0     C66672   1.030   1.473   8.663 -0.5301  0.9143  0.2973
  506MOL0     C66673   0.969   1.460   8.529 -0.8363  0.5445 -0.3340
  506MOL0     C66674   1.028   1.549   8.420 -1.2775 -0.2134 -0.0749
  506MOL0     C66675   0.972   1.518   8.282 -0.1086  0.1438 -0.0270
  506MOL0     C66676   1.061   1.559   8.163  0.0648 -0.4846 -0.2501
  506MOL0     N66677   1.010   1.692   8.105  0.1824  0.4624 -0.0094
  506MOL0     C66678   0.969   1.710   7.977  0.7475 -0.2301 -1.1816
  506MOL0     C66679   0.935   1.843   7.977  0.1716  0.4943 -0.3206
  506MOL0     C66680   0.888   1.918   7.852  0.7153 -0.3120 -0.1391
  506MOL0     C66681   0.738   1.896   7.814 -0.0707  0.0641  0.5007
  506MOL0     C66682   0.667   1.764   7.774  0.7329  0.6353 -0.1693
  506MOL0     C66683   0.743   1.691   7.649  0.8406 -0.7855 -0.4341
  506MOL0     O66684   0.751   1.794   7.548 -0.5085 -0.3364 -0.2035
  506MOL0     C66685   0.838   1.768   7.444  0.6759 -0.5537  0.4046
  506MOL0     C66686   0.914   1.652   7.432  0.2181 -0.4674 -0.6026
  506MOL0     C66687   1.015   1.645   7.335  0.2100 -0.4290 -0.1920
  506MOL0     C66688   1.031   1.754   7.250  0.7201 -0.0477  0.2030
  506MOL0     C66689   1.140   1.742   7.145 -0.5687  0.2603 -0.7762
  506MOL0     O66690   1.233   1.643   7.158  0.0489 -0.0325  0.5089
  506MOL0     C66691   1.328   1.613   7.068  0.3045  0.8245  0.1657
  506MOL0     C66692   1.363   1.478   7.047  0.0028 -1.6722  0.6687
  506MOL0     C66693   1.466   1.443   6.970 -0.2333  0.0009 -0.3846
  506MOL0     C66694   1.544   1.529   6.893 -0.7947  0.1592 -0.6109
  506MOL0     O66695   1.653   1.495   6.814  1.0930 -0.8149 -0.4024
  506MOL0     C66696   1.700   1.361   6.804 -0.3611 -0.4492  0.1279
  506MOL0     C66697   1.844   1.363   6.756  0.3136  0.3249  0.1986
  506MOL0     C66698   1.869   1.424   6.619  0.0002 -0.0532  0.5182
  506MOL0     C66699   1.784   1.375   6.498 -0.2256 -0.2751 -0.6368
  506MOL0     C66700   1.851   1.434   6.367  0.6187  0.3667 -0.4271
  506MOL0     C66701   1.747   1.460   6.248  0.3396  0.1124 -0.1512
  506MOL0     C66702   1.836   1.502   6.132  0.7003 -0.2886  0.6821
  506MOL0     C66703   1.769   1.544   6.004  0.0086  1.0622 -0.1744
  506MOL0    Cl66704   1.681   1.399   5.947  0.2034  0.1987 -0.4327
  506MOL0     C66705   1.501   1.664   6.894 -0.2149  0.1401 -0.1221
  506MOL0     C66706   1.399   1.707   6.990 -0.0228  0.3453  0.3076
  506MOL0     O66707   1.142   1.826   7.058  0.3561  0.7039  0.1477
  506MOL0     C66708   0.950   1.869   7.258 -0.3020  1.1593  0.4688
  506MOL0     C66709   0.860   1.877   7.352  0.6985 -0.3983 -0.2775
  506MOL0     N66710   0.945   1.905   8.097  0.3250 -0.2868 -0.1940
  506MOL0     N66711   1.009   1.813   8.172  1.1082  0.5690  0.0610
  506MOL0     C66712   1.670   1.511   8.946  0.3680 -0.2176 -0.7340
  506MOL0     C66713   1.804   1.497   8.930 -0.4342 -0.1500 -0.1587
  506MOL0     C66714   2.201   1.444   8.781  0.6449 -0.4657  1.1921
  506MOL0     C66715   2.268   1.398   8.896 -0.5238 -0.5147 -0.7278
  506MOL0     C66716   2.413   1.390   8.887 -0.0323 -0.4224  0.9919
  506MOL0     C66717   2.488   1.436   8.773 -0.6003  0.0246 -0.5747
  506MOL0     O66718   2.620   1.403   8.788  0.2708 -0.9319  0.5312
  506MOL0     C66719   2.713   1.467   8.688  0.9533 -0.5556 -0.1602
  506MOL0     C66720   2.858   1.440   8.740 -0.8791  0.1555 -0.1736
  506MOL0     C66721   2.887   1.459   8.895  0.3361 -1.2197 -0.2684
  506MOL0     C66722   2.886   1.315   8.957  0.4437  0.1844  0.9045
  506MOL0     C66723   3.002   1.235   8.907 -0.3795 -0.2607 -0.9494
  506MOL0     C66724   3.089   1.169   8.847  0.3811 -0.4598 -0.1546
  506MOL0     C66725   2.415   1.490   8.662 -0.6301 -0.1567  0.7421
  506MOL0     C66726   2.280   1.495   8.667  0.5246  0.3652 -0.3151
  506MOL0     H66727   1.829   1.169   8.847 -2.5228 -2.0737  2.5578
  506MOL0     H66728   1.585   1.198   8.858 -0.9138  1.9956 -0.4284
  506MOL0     H66729   1.383   1.285   8.815 -3.3436 -0.3738 -0.8927
  506MOL0     H66730   1.443   1.423   8.707 -2.8119  0.9182 -0.2692
  506MOL0     H66731   1.260   1.563   8.781 -1.4134  0.5345  1.1195
  506MOL0     H66732   1.188   1.426   8.879  1.2717 -0.7344  0.7722
  506MOL0     H66733   1.161   1.293   8.673  0.0795 -0.1458 -2.5611
  506MOL0     H66734   1.218   1.426   8.577 -0.9820 -3.5736 -1.5683
  506MOL0     H66735   0.964   1.421   8.733  2.1053 -4.0426 -0.4216
  506MOL0     H66736   1.042   1.580   8.676  1.4890  1.0270 -1.7449
  506MOL0     H66737   0.863   1.485   8.543 -1.3034 -0.2901 -2.1652
  506MOL0     H66738   0.971   1.356   8.497 -1.8955  0.9021 -1.6742
  506MOL0     H66739   1.137   1.536   8.422 -1.3997 -1.7521 -1.5272
  506MOL0     H66740   1.008   1.655   8.438  1.8781  1.2149 -3.6931
  506MOL0     H66741   0.973   1.409   8.272 -0.2869  0.0864  0.5426
  506MOL0     H66742   0.871   1.558   8.274 -1.6923 -2.9578  2.1854
  506MOL0     H66743   1.051   1.488   8.081  0.4366 -2.5325  1.3880
  506MOL0     H66744   1.167   1.558   8.190 -0.2336 -1.8554  1.0156
  506MOL0     H66745   0.967   1.641   7.894  2.2722 -3.5080  1.2628
  506MOL0     H66746   0.942   1.882   7.763 -2.3237  1.1969 -2.7904
  506MOL0     H66747   0.896   2.027   7.856 -2.0254 -0.0469  0.1134
  506MOL0     H66748   0.701   1.977   7.752  1.1578 -0.2042 -0.6069
  506MOL0     H66749   0.692   1.925   7.909  2.1002  2.7252  0.8435
  506MOL0     H66750   0.682   1.679   7.841  0.6464 -1.3015 -2.4804
  506MOL0     H66751   0.563   1.777   7.743  1.1913  0.0272 -2.0913
  506MOL0     H66752   0.683   1.605   7.619 -1.0186  0.2562  0.1151
  506MOL0     H66753   0.846   1.659   7.671  1.2533 -0.4273 -1.7572
  506MOL0     H66754   0.891   1.564   7.492 -2.1456  0.8705  0.5931
  506MOL0     H66755   1.087   1.564   7.343 -1.6644 -1.9702  3.9724
  506MOL0     H66756   1.303   1.405   7.101 -0.0991 -1.9148  0.2229
  506MOL0     H66757   1.490   1.337   6.968  1.0143  0.2302  0.7673
  506MOL0     H66758   1.639   1.304   6.733 -1.0693  1.6995 -1.0758
  506MOL0     H66759   1.699   1.304   6.897  1.8353  3.6366  2.9655
  506MOL0     H66760   1.884   1.261   6.762  2.9528  1.1638 -1.2510
  506MOL0     H66761   1.910   1.397   6.837 -1.4493 -0.3886  2.0015
  506MOL0     H66762   1.974   1.410   6.590 -0.7451 -4.4414 -0.7977
  506MOL0     H66763   1.846   1.531   6.617 -2.7300 -0.5675 -0.9310
  506MOL0     H66764   1.796   1.267   6.503  0.1220 -0.3233 -2.0988
  506MOL0     H66765   1.678   1.394   6.515 -0.2274 -0.7656 -0.0789
  506MOL0     H66766   1.922   1.352   6.351 -1.9260 -1.5591 -3.0244
  506MOL0     H66767   1.904   1.522   6.406 -0.9402 -0.2913  3.6135
  506MOL0     H66768   1.672   1.534   6.277  2.0957  1.7454  0.4035
  506MOL0     H66769   1.689   1.371   6.221 -0.5613  0.0439  1.8379
  506MOL0     H66770   1.902   1.588   6.145 -0.3156  0.6008  0.0902
  506MOL0     H66771   1.898   1.413   6.118  1.9672  0.8552 -1.4255
  506MOL0     H66772   1.845   1.564   5.927  0.9470 -2.2490 -0.2522
  506MOL0     H66773   1.699   1.626   6.024 -1.2532  0.4130 -1.6283
  506MOL0     H66774   1.546   1.737   6.827  0.1949 -0.7095 -0.8064
  506MOL0     H66775   1.372   1.812   7.001  1.3452  0.5602  1.9671
  506MOL0     H66776   0.959   1.947   7.183 -0.2032  1.2063  0.5289
  506MOL0     H66777   0.793   1.959   7.371  0.3688 -1.0032  1.3781
  506MOL0     H66778   1.625   1.607   8.970 -1.0677 -1.2690  1.0527
  506MOL0     H66779   1.865   1.585   8.951 -2.7116  1.9077 -1.6512
  506MOL0     H66780   2.224   1.367   8.990  4.2221  2.6414  3.0550
  506MOL0     H66781   2.476   1.351   8.966  0.4343 -1.5648  0.0749
  506MOL0     H66782   2.715   1.577   8.692  2.7883 -0.3619 -3.0889
  506MOL0     H66783   2.698   1.427   8.587 -1.8786 -0.1210 -0.0074
  506MOL0     H66784   2.892   1.343   8.703  2.5592  1.7934 -1.7291
  506MOL0     H66785   2.912   1.520   8.688  0.3013 -0.9267 -0.6606
  506MOL0     H66786   2.811   1.527   8.935  0.8108  0.1670 -1.6412
  506MOL0     H66787   2.986   1.505   8.898  0.6414 -1.8013 -1.0798
  506MOL0     H66788   2.874   1.318   9.066  0.5434 -0.8050  0.9460
  506MOL0     H66789   2.800   1.258   8.920 -0.7890  2.0810  0.6559
  506MOL0     H66790   3.174   1.134   8.794  2.4774  0.2999  2.4756
  506MOL0     H66791   2.455   1.521   8.566 -2.5073  4.7288  1.2437
  506MOL0     H66792   2.234   1.533   8.577 -0.5339 -1.6469 -0.6728
  507MOL0     O66793   9.654   7.785  10.482 -0.7483 -0.2669  0.6515
  507MOL0     C66794   9.764   7.822  10.437 -0.6864 -0.5044 -0.5921
  507MOL0     O66795   9.828   7.797  10.322  0.1958  0.0987  0.5982
  507MOL0     C66796   9.811   7.672  10.273  0.1408 -0.1405 -0.5698
  507MOL0     C66797   9.730   7.643  10.167  0.6403 -0.5508 -0.6258
  507MOL0     C66798   9.719   7.511  10.109 -0.0968  0.6365  0.6758
  507MOL0     C66799   9.794   7.410  10.164 -1.0843 -0.1974 -1.1091
  507MOL0     O66800   9.790   7.277  10.125  0.0741 -0.4860 -0.5199
  507MOL0     C66801   9.671   7.232  10.055 -0.4819 -0.7953  0.8308
  507MOL0     C66802   9.662   7.086  10.048 -0.7699 -0.0496 -0.3532
  507MOL0     C66803   9.586   7.058   9.917  0.4396 -0.1793  0.6781
  507MOL0     C66804   9.446   7.110   9.930 -0.1787  0.7418 -0.4728
  507MOL0     C66805   9.358   7.068   9.806  0.7622  0.9051 -0.0720
  507MOL0     C66806   9.218   7.140   9.794  0.7974  0.1667  0.0733
  507MOL0     C66807   9.169   7.147   9.643 -0.3681 -0.1536  0.0577
  507MOL0     C66808   9.147   7.018   9.559  0.4940 -0.1017  0.3642
  507MOL0     N66809   9.018   7.034   9.495 -0.5902 -0.5214  0.0630
  507MOL0     C66810   8.901   7.014   9.553  0.1931  1.1957 -0.3982
  507MOL0     C66811   8.802   7.061   9.469  0.1215  0.1784 -0.2265
  507MOL0     C66812   8.656   7.035   9.482  0.2490 -0.6599  0.2250
  507MOL0     C66813   8.626   6.884   9.485  0.7340 -0.2754  0.2420
  507MOL0     C66814   8.625   6.822   9.348 -0.4972  0.2371  1.4151
  507MOL0     C66815   8.492   6.838   9.278  0.7808 -0.6710 -0.6414
  507MOL0     O66816   8.394   6.759   9.341  0.5861 -0.2098 -0.5099
  507MOL0     C66817   8.397   6.620   9.333  0.7630 -0.9579  0.4580
  507MOL0     C66818   8.328   6.556   9.432  0.6697  0.8717 -0.0480
  507MOL0     C66819   8.327   6.408   9.443 -0.6524 -0.9476  0.1988
  507MOL0     C66820   8.398   6.332   9.342 -0.0219 -1.0923  0.7372
  507MOL0     C66821   8.408   6.182   9.352 -0.6416 -0.4409  0.0825
  507MOL0     O66822   8.409   6.123   9.482  0.2892 -0.5067 -0.0516
  507MOL0     C66823   8.387   5.990   9.487 -0.3277 -0.3079  0.9565
  507MOL0     C66824   8.496   5.914   9.538 -0.2140 -0.9239  0.2416
  507MOL0     C66825   8.490   5.775   9.562 -0.3910 -0.2837  0.7307
  507MOL0     C66826   8.370   5.708   9.543 -0.4218 -0.7745  0.1739
  507MOL0     O66827   8.360   5.571   9.554 -0.4098  0.1926  0.0171
  507MOL0     C66828   8.447   5.492   9.474  0.3050 -0.4888  0.6634
  507MOL0     C66829   8.366   5.381   9.410 -0.4379  0.0994  0.0487
  507MOL0     C66830   8.450   5.257   9.359  0.2615 -0.4788  0.1214
  507MOL0     C66831   8.356   5.151   9.312  0.2321  0.8700  0.5723
  507MOL0     C66832   8.430   5.026   9.250 -0.8409  0.0124 -0.2783
  507MOL0     C66833   8.497   4.928   9.348 -0.3292  0.0208 -0.8950
  507MOL0     C66834   8.393   4.855   9.425  0.2198  0.2245 -0.5121
  507MOL0     C66835   8.392   4.873   9.573 -0.3184 -1.5438  0.4047
  507MOL0    Cl66836   8.246   4.780   9.628 -0.0102 -0.1253 -0.1415
  507MOL0     C66837   8.259   5.782   9.496 -0.7692 -0.5985 -0.2517
  507MOL0     C66838   8.268   5.925   9.468  0.1752  0.3269  0.4196
  507MOL0     O66839   8.441   6.125   9.246 -0.4813 -0.0462 -0.7817
  507MOL0     C66840   8.467   6.406   9.239 -0.8630  1.1700 -0.0227
  507MOL0     C66841   8.451   6.549   9.222  0.0335  0.5929 -0.0204
  507MOL0     N66842   8.868   7.130   9.362 -0.4167 -0.0194  0.3817
  507MOL0     N66843   8.996   7.112   9.375  0.5191  0.0357 -0.1734
  507MOL0     C66844   9.876   7.431  10.279  1.1310 -0.0692 -0.1667
  507MOL0     C66845   9.881   7.563  10.328 -0.5705 -0.8457 -0.0909
  507MOL0     C66846   9.840   7.907  10.535  0.4412 -0.0230  0.1302
  507MOL0     C66847   9.864   7.867  10.672  0.5745 -0.3622 -1.6585
  507MOL0     C66848   9.925   7.962  10.765  1.2944  0.1137 -0.0422
  507MOL0     C66849   9.973   8.088  10.717 -0.3538  0.5814 -0.3127
  507MOL0     O66850  10.029   8.171  10.809 -0.1832  0.1412  0.3403
  507MOL0     C66851  10.110   8.284  10.773  0.3724 -1.3598  0.1776
  507MOL0     C66852  10.216   8.304  10.887  0.0640  0.5246 -0.0633
  507MOL0     C66853  10.202   8.433  10.972  0.3519  1.0543  0.3077
  507MOL0     C66854  10.285   8.423  11.104  0.3390 -0.1486  0.4081
  507MOL0     C66855  10.294   8.561  11.148  0.0106  1.2110  0.2198
  507MOL0     C66856  10.296   8.682  11.161  0.3372 -0.4223  0.3487
  507MOL0     C66857   9.977   8.102  10.579 -0.3813 -0.2921 -0.1509
  507MOL0     C66858   9.902   8.025  10.494  0.4719 -0.5065  0.0631
  507MOL0     H66859   9.667   7.724  10.134  0.4243  0.5502  2.2221
  507MOL0     H66860   9.644   7.506  10.031  0.6170 -2.3778  0.0879
  507MOL0     H66861   9.677   7.274   9.954  2.6597 -3.2411 -0.1483
  507MOL0     H66862   9.583   7.273  10.105  0.3911  3.4120 -0.6843
  507MOL0     H66863   9.598   7.053  10.130 -1.5425  3.3283  0.5509
  507MOL0     H66864   9.763   7.045  10.057  0.1607  2.0461 -0.6841
  507MOL0     H66865   9.591   6.950   9.900  0.5355 -0.3001  1.4346
  507MOL0     H66866   9.631   7.102   9.828 -1.9355 -0.2401 -0.6357
  507MOL0     H66867   9.405   7.061  10.019 -0.2050 -1.2567 -1.5125
  507MOL0     H66868   9.439   7.216   9.953  1.5334  0.5372  1.1961
  507MOL0     H66869   9.346   6.959   9.798 -1.0959  1.0020  0.8596
  507MOL0     H66870   9.410   7.100   9.716  1.6470  4.9472  1.6602
  507MOL0     H66871   9.224   7.242   9.834  1.0348  0.1649  0.0424
  507MOL0     H66872   9.138   7.086   9.847 -0.4999  1.1303 -0.8248
  507MOL0     H66873   9.071   7.194   9.640 -2.0307 -3.3129 -3.2978
  507MOL0     H66874   9.238   7.218   9.597 -2.3802  0.1019 -2.8319
  507MOL0     H66875   9.157   6.919   9.606 -0.0660 -0.9933 -1.3127
  507MOL0     H66876   9.225   7.023   9.484 -3.1103 -1.9487 -3.9694
  507MOL0     H66877   8.884   6.959   9.646 -1.2698  3.8329  1.0060
  507MOL0     H66878   8.600   7.076   9.398 -0.2724  2.0368  1.7804
  507MOL0     H66879   8.635   7.089   9.575  2.3247  1.1679 -0.2853
  507MOL0     H66880   8.532   6.867   9.538  1.0943 -2.9156  0.1794
  507MOL0     H66881   8.705   6.840   9.546 -0.1914 -3.2414 -0.5638
  507MOL0     H66882   8.700   6.863   9.279  0.3060 -2.0117  0.8710
  507MOL0     H66883   8.639   6.714   9.354 -2.6746 -0.1320  0.9032
  507MOL0     H66884   8.489   6.811   9.172 -1.7137  1.2370 -1.1467
  507MOL0     H66885   8.469   6.945   9.286 -1.5559 -1.0549 -1.6064
  507MOL0     H66886   8.270   6.615   9.502 -0.7243 -0.0261 -0.4032
  507MOL0     H66887   8.267   6.360   9.520  0.1362  0.8155  2.0164
  507MOL0     H66888   8.590   5.967   9.553  0.4507 -1.9828 -0.0637
  507MOL0     H66889   8.579   5.726   9.601 -0.6454 -1.6658 -0.3396
  507MOL0     H66890   8.528   5.444   9.530  0.5308 -2.4346 -1.1701
  507MOL0     H66891   8.499   5.558   9.404 -2.2013  0.1413 -0.7206
  507MOL0     H66892   8.309   5.427   9.329  1.2671  0.3633 -1.0530
  507MOL0     H66893   8.311   5.336   9.493  1.9732 -2.2976  0.4764
  507MOL0     H66894   8.501   5.219   9.448 -2.4144  0.8657  2.4175
  507MOL0     H66895   8.519   5.271   9.276  0.7259 -1.6809  0.2843
  507MOL0     H66896   8.292   5.107   9.388 -0.2191  1.0199  0.2818
  507MOL0     H66897   8.298   5.191   9.229  0.8142 -0.0923 -0.3109
  507MOL0     H66898   8.509   5.074   9.192 -1.0609 -1.1195 -1.5814
  507MOL0     H66899   8.356   4.968   9.194 -2.0208 -0.5170  1.7002
  507MOL0     H66900   8.578   4.966   9.410  0.9573 -1.7040 -1.4236
  507MOL0     H66901   8.548   4.852   9.287 -0.6064  1.0973 -2.5162
  507MOL0     H66902   8.297   4.882   9.380  0.4132 -2.3281 -2.6947
  507MOL0     H66903   8.410   4.750   9.400 -0.1236  0.3418 -1.2648
  507MOL0     H66904   8.367   4.978   9.589  0.2399 -0.9652 -2.1583
  507MOL0     H66905   8.480   4.832   9.624 -1.5568 -4.6110  0.2797
  507MOL0     H66906   8.170   5.721   9.480  0.5062 -2.8989  0.7955
  507MOL0     H66907   8.183   5.980   9.429  0.5572  0.8665  0.3334
  507MOL0     H66908   8.517   6.346   9.164 -1.8792  0.6854 -0.3299
  507MOL0     H66909   8.490   6.598   9.133 -0.3736 -2.9219 -2.3410
  507MOL0     H66910   9.931   7.355  10.335 -0.5956 -1.9382 -0.8806
  507MOL0     H66911   9.949   7.592  10.407 -0.6320  0.7868 -0.5953
  507MOL0     H66912   9.821   7.775  10.710 -1.0902  1.7163  2.0073
  507MOL0     H66913   9.932   7.938  10.871  0.9363  0.3780  0.0430
  507MOL0     H66914  10.047   8.372  10.791 -3.1084 -3.5601 -0.2056
  507MOL0     H66915  10.145   8.267  10.671 -4.1963 -0.0408 -1.8856
  507MOL0     H66916  10.221   8.214  10.949  3.5030  0.9468  0.4585
  507MOL0     H66917  10.315   8.307  10.840 -0.0477 -0.3845 -0.3849
  507MOL0     H66918  10.099   8.460  10.995  1.0067  1.7565  2.7366
  507MOL0     H66919  10.244   8.516  10.915 -1.1282  1.9473  0.4650
  507MOL0     H66920  10.235   8.367  11.184  3.0198 -0.5976  1.9080
  507MOL0     H66921  10.381   8.373  11.087  1.3097  0.3846  3.5799
  507MOL0     H66922  10.293   8.788  11.177  0.0095  0.7138 -5.1485
  507MOL0     H66923  10.014   8.199  10.547 -1.4646 -0.2518 -1.4032
  507MOL0     H66924   9.873   8.055  10.394  5.4086  1.5128 -1.0830
  508MOL0     O66925  11.105   1.448   2.403 -0.0985  0.0294  0.0531
  508MOL0     C66926  10.987   1.475   2.360  0.3442  0.8458 -0.1882
  508MOL0     O66927  10.871   1.415   2.399  0.7939 -0.6334  0.1661
  508MOL0     C66928  10.872   1.339   2.510 -0.3276  0.4198 -0.0275
  508MOL0     C66929  10.813   1.216   2.492  0.1810 -0.2472  0.2639
  508MOL0     C66930  10.804   1.125   2.597 -1.2262 -0.1855  0.6932
  508MOL0     C66931  10.831   1.160   2.732  0.2642 -0.7534  0.2821
  508MOL0     O66932  10.807   1.064   2.827 -0.2394 -0.4570 -0.4094
  508MOL0     C66933  10.816   1.107   2.964 -0.0825 -1.0265  0.2374
  508MOL0     C66934  10.756   0.990   3.040  0.2476  0.4984  0.0564
  508MOL0     C66935  10.761   1.030   3.188 -0.5641 -0.1916 -0.9542
  508MOL0     C66936  10.861   0.938   3.271  0.5157 -0.3856  0.5548
  508MOL0     C66937  10.853   0.964   3.425  0.4974  0.0533  0.2010
  508MOL0     C66938  10.953   0.887   3.513 -0.1897 -0.6873  1.3566
  508MOL0     C66939  10.923   0.735   3.499 -0.7134 -0.1447 -0.0115
  508MOL0     C66940  10.803   0.689   3.582 -0.0750  0.8340  0.9178
  508MOL0     N66941  10.803   0.540   3.597  0.3796  0.7725 -0.1302
  508MOL0     C66942  10.880   0.481   3.689  0.0484 -0.2324 -0.0715
  508MOL0     C66943  10.846   0.354   3.696  0.4226  0.2786  0.1220
  508MOL0     C66944  10.888   0.242   3.786  0.4329 -0.9467 -0.6713
  508MOL0     C66945  10.819   0.275   3.921 -0.3162  0.4230  0.1022
  508MOL0     C66946  10.876   0.176   4.035  0.4163 -0.4072 -0.4112
  508MOL0     C66947  10.803   0.216   4.170 -0.0091  0.5641  0.2844
  508MOL0     O66948  10.838   0.120   4.258 -0.1435  0.5730 -0.2944
  508MOL0     C66949  10.801   0.148   4.388  0.7409  0.2907 -0.1551
  508MOL0     C66950  10.894   0.125   4.493 -0.7174  0.9495 -0.0135
  508MOL0     C66951  10.871   0.163   4.616 -0.4641 -0.8878  0.3589
  508MOL0     C66952  10.752   0.227   4.652 -0.3500 -0.4054 -0.2138
  508MOL0     C66953  10.730   0.258   4.802 -0.1741 -0.5723 -0.1358
  508MOL0     O66954  10.593   0.291   4.831 -0.5201  0.3252 -0.3172
  508MOL0     C66955  10.550   0.299   4.966 -0.3088 -0.5136  0.1769
  508MOL0     C66956  10.609   0.386   5.059  0.3368  0.3785  0.0071
  508MOL0     C66957  10.562   0.399   5.187 -0.0697  0.4816  0.6102
  508MOL0     C66958  10.451   0.335   5.232  1.1277 -0.4738  0.1999
  508MOL0     O66959  10.417   0.353   5.365  0.6394  0.0764 -1.0218
  508MOL0     C66960  10.308   0.278   5.420  0.1994  0.1928 -0.6005
  508MOL0     C66961  10.301   0.310   5.572 -0.4060  0.7999 -0.6689
  508MOL0     C66962  10.400   0.212   5.652 -0.4508 -0.1613  0.3608
  508MOL0     C66963  10.356   0.063   5.664  0.0652  0.5326 -0.6503
  508MOL0     C66964  10.463  -0.040   5.699 -0.1064  0.0462  1.1317
  508MOL0     C66965  10.571  -0.067   5.589 -0.5772 -0.2363  0.5319
  508MOL0     C66966  10.687  -0.154   5.639  0.1624 -0.2417 -0.7835
  508MOL0     C66967  10.789  -0.175   5.520 -0.6368  0.6172  0.4079
  508MOL0    Cl66968  10.705  -0.247   5.384  0.2672 -0.0808 -0.0643
  508MOL0     C66969  10.378   0.256   5.135  0.7195  0.7828 -0.0721
  508MOL0     C66970  10.429   0.237   5.004 -0.9012  0.4362 -0.3424
  508MOL0     O66971  10.822   0.257   4.883  0.0053 -1.2182 -0.7552
  508MOL0     C66972  10.658   0.264   4.553  0.5195  0.0560  0.2364
  508MOL0     C66973  10.687   0.231   4.422  0.0446 -0.3285  0.7347
  508MOL0     N66974  10.740   0.331   3.594 -0.4991  0.3859 -0.7061
  508MOL0     N66975  10.719   0.450   3.552  0.3731 -0.0578  0.4554
  508MOL0     C66976  10.893   1.290   2.745 -0.6036 -0.2240 -0.7015
  508MOL0     C66977  10.909   1.379   2.637 -0.6375 -0.3484 -0.3796
  508MOL0     C66978  10.978   1.604   2.286 -0.2165 -0.2528 -0.3123
  508MOL0     C66979  10.853   1.646   2.245 -0.0604  0.5466 -0.1711
  508MOL0     C66980  10.831   1.770   2.176 -0.5473  0.1605 -0.0732
  508MOL0     C66981  10.939   1.852   2.145  0.7058  0.5202 -0.0199
  508MOL0     O66982  10.942   1.981   2.075  0.8712  0.0182  0.0229
  508MOL0     C66983  10.812   2.036   2.029 -0.2940  0.2247 -0.2019
  508MOL0     C66984  10.861   2.105   1.902 -0.4740  0.6744 -0.7863
  508MOL0     C66985  10.742   2.186   1.835 -0.3082 -0.2273  0.0256
  508MOL0     C66986  10.774   2.263   1.707  0.4084  0.4410 -0.1954
  508MOL0     C66987  10.881   2.358   1.730  0.3648  1.1359  0.2773
  508MOL0     C66988  10.970   2.437   1.750  0.4814 -0.1612  0.1761
  508MOL0     C66989  11.073   1.794   2.171  0.3474 -0.9249  0.8279
  508MOL0     C66990  11.094   1.673   2.248  1.0957 -0.1263  0.6407
  508MOL0     H66991  10.792   1.176   2.393  1.6733 -2.8357  0.9197
  508MOL0     H66992  10.751   1.031   2.587  1.2994 -1.6341  0.1394
  508MOL0     H66993  10.773   1.205   2.988  0.1550 -1.1718  1.3325
  508MOL0     H66994  10.923   1.118   2.981 -0.4128  4.6810  0.7234
  508MOL0     H66995  10.820   0.905   3.016 -2.0689 -1.8282  1.4950
  508MOL0     H66996  10.652   0.964   3.015  0.5189 -1.1468  0.5295
  508MOL0     H66997  10.663   1.023   3.235  0.5405  0.3761  1.6432
  508MOL0     H66998  10.793   1.133   3.208  1.9168 -0.6525 -2.1379
  508MOL0     H66999  10.838   0.833   3.252  0.6155 -0.1755 -0.8684
  508MOL0     H67000  10.964   0.941   3.233  1.0230 -2.7205  1.5950
  508MOL0     H67001  10.747   0.939   3.438 -0.0320  0.8719 -2.0734
  508MOL0     H67002  10.869   1.072   3.432  1.3845 -0.0560 -0.0622
  508MOL0     H67003  10.951   0.910   3.620 -1.8152  1.7036  0.8929
  508MOL0     H67004  11.054   0.905   3.474 -1.1766 -1.4375 -1.8472
  508MOL0     H67005  10.916   0.699   3.396  0.6077  0.3666 -0.2984
  508MOL0     H67006  11.019   0.695   3.536  1.5331  2.4726 -2.5191
  508MOL0     H67007  10.710   0.715   3.530 -0.4028 -3.0851 -0.8408
  508MOL0     H67008  10.800   0.739   3.679 -0.9002  2.2318  0.2108
  508MOL0     H67009  10.947   0.524   3.764 -0.0488 -2.4422  1.3933
  508MOL0     H67010  10.996   0.252   3.799  0.5208 -1.4384 -0.9896
  508MOL0     H67011  10.847   0.148   3.749 -2.3566  0.0231 -0.3342
  508MOL0     H67012  10.712   0.263   3.904 -0.5149 -2.1350  2.4042
  508MOL0     H67013  10.842   0.373   3.963  1.1953 -0.6190  1.8888
  508MOL0     H67014  10.856   0.072   4.009  2.4393 -1.8382  3.1638
  508MOL0     H67015  10.983   0.194   4.048  1.6579 -3.5343 -4.2883
  508MOL0     H67016  10.695   0.221   4.152  0.1920  1.0080 -0.9321
  508MOL0     H67017  10.834   0.318   4.195 -1.4607  1.6945 -2.0654
  508MOL0     H67018  10.989   0.083   4.463 -1.5522  1.2229 -3.4244
  508MOL0     H67019  10.938   0.138   4.697 -1.2026 -0.0622  1.2476
  508MOL0     H67020  10.695   0.449   5.037  0.2538  2.9696  5.4420
  508MOL0     H67021  10.608   0.455   5.268 -1.8707  0.2933  1.8090
  508MOL0     H67022  10.311   0.168   5.415  0.8567  0.0474  1.6354
  508MOL0     H67023  10.214   0.315   5.379  0.0964 -0.0430 -0.5823
  508MOL0     H67024  10.201   0.280   5.606  0.7594 -1.5441  0.9667
  508MOL0     H67025  10.315   0.413   5.604 -3.7458  0.2255  3.4930
  508MOL0     H67026  10.400   0.255   5.753 -1.3476  1.3778 -0.2597
  508MOL0     H67027  10.500   0.223   5.608 -1.5811 -0.1437 -2.4301
  508MOL0     H67028  10.277   0.054   5.740 -1.2797  0.2864 -2.0370
  508MOL0     H67029  10.299   0.046   5.572 -2.9958 -0.2932  1.2457
  508MOL0     H67030  10.421  -0.136   5.730  0.1190  0.1898  1.9018
  508MOL0     H67031  10.530  -0.009   5.779  2.2886 -2.0019  0.0866
  508MOL0     H67032  10.615   0.025   5.551 -1.3012 -0.4307 -0.8642
  508MOL0     H67033  10.515  -0.110   5.505 -0.5987 -0.3961  0.6284
  508MOL0     H67034  10.736  -0.106   5.724  0.2899 -0.5721 -0.6724
  508MOL0     H67035  10.646  -0.247   5.679  2.0759 -0.1994  1.4349
  508MOL0     H67036  10.869  -0.243   5.550 -2.0751 -0.8033  1.2189
  508MOL0     H67037  10.838  -0.081   5.495  2.2266 -1.3811 -2.2208
  508MOL0     H67038  10.300   0.191   5.174  1.0871  0.4458  0.1096
  508MOL0     H67039  10.387   0.170   4.929  0.0786  1.4525 -1.8492
  508MOL0     H67040  10.569   0.317   4.585  1.1789  0.1919  1.9478
  508MOL0     H67041  10.629   0.264   4.336  4.7281  1.5807 -2.0471
  508MOL0     H67042  10.926   1.326   2.842 -1.8143  1.7528 -0.9750
  508MOL0     H67043  10.944   1.479   2.660 -3.4707 -0.0921  3.9217
  508MOL0     H67044  10.767   1.587   2.274  2.0447 -1.7828  1.7285
  508MOL0     H67045  10.731   1.809   2.157  0.7359  2.6987 -2.4000
  508MOL0     H67046  10.758   2.096   2.103  0.8985 -2.1839  2.8504
  508MOL0     H67047  10.751   1.952   1.994  5.4392 -3.3873 -3.0908
  508MOL0     H67048  10.950   2.164   1.927 -1.1324  0.1341  3.6546
  508MOL0     H67049  10.887   2.028   1.829  3.5984  1.0021  0.0946
  508MOL0     H67050  10.699   2.261   1.901 -0.4662 -1.4857  1.4231
  508MOL0     H67051  10.658   2.119   1.814  0.3581 -0.4449 -2.1459
  508MOL0     H67052  10.811   2.197   1.628  1.6712  2.4362 -1.3635
  508MOL0     H67053  10.686   2.323   1.680  1.0784 -0.0448 -4.0532
  508MOL0     H67054  11.049   2.503   1.778  0.9445 -0.5181 -0.2658
  508MOL0     H67055  11.153   1.859   2.136  1.3049 -2.6432 -0.3334
  508MOL0     H67056  11.197   1.642   2.262  0.6658 -1.5473  0.9238
  509MOL0     O67057   0.267   9.150   0.854  1.1619 -0.0956 -0.0611
  509MOL0     C67058   0.332   9.219   0.776 -0.4003  0.0834  0.8086
  509MOL0     O67059   0.461   9.197   0.740  0.5048  0.7615  0.5546
  509MOL0     C67060   0.528   9.085   0.769  0.2732 -0.3655 -0.9733
  509MOL0     C67061   0.664   9.095   0.812 -0.5123  0.6539  0.1643
  509MOL0     C67062   0.727   8.976   0.866  0.0702  0.1720 -0.0174
  509MOL0     C67063   0.669   8.847   0.874 -0.9743  0.2636  0.6608
  509MOL0     O67064   0.738   8.732   0.908 -0.3740  0.7575 -0.8393
  509MOL0     C67065   0.709   8.670   1.034 -0.6340 -0.7716  0.4595
  509MOL0     C67066   0.833   8.706   1.131 -0.0398  0.0666  0.5201
  509MOL0     C67067   0.795   8.676   1.273 -0.1684 -0.3136 -0.2035
  509MOL0     C67068   0.801   8.533   1.305 -0.0190  0.5060 -0.8196
  509MOL0     C67069   0.766   8.485   1.445  0.7985  0.9935  0.7208
  509MOL0     C67070   0.847   8.549   1.548  0.2810 -0.7679 -0.0484
  509MOL0     C67071   0.824   8.472   1.679  0.8599 -0.4492  0.0054
  509MOL0     C67072   0.889   8.538   1.805  0.6819 -0.4064  0.6944
  509MOL0     N67073   1.039   8.555   1.798  0.2390 -0.6772  0.2783
  509MOL0     C67074   1.138   8.456   1.826  0.5497 -0.3435  0.0036
  509MOL0     C67075   1.260   8.520   1.841  0.6890 -0.3134  0.6769
  509MOL0     C67076   1.376   8.440   1.869  0.8645 -0.8024 -0.4305
  509MOL0     C67077   1.429   8.371   1.738 -0.2234  0.1871 -0.7565
  509MOL0     C67078   1.573   8.316   1.771 -0.0208 -0.4067  0.9612
  509MOL0     C67079   1.651   8.276   1.646 -1.0700  0.3267 -0.0930
  509MOL0     O67080   1.573   8.182   1.569 -0.1404  0.7925 -0.9049
  509MOL0     C67081   1.589   8.043   1.577 -0.0159  0.3173  0.0160
  509MOL0     C67082   1.676   7.967   1.666  0.1835 -1.0543  0.6367
  509MOL0     C67083   1.670   7.827   1.666 -0.7754  0.9257 -0.3556
  509MOL0     C67084   1.577   7.758   1.596  0.4602 -0.6736 -0.1804
  509MOL0     C67085   1.567   7.613   1.588  0.2367  0.1474  0.4483
  509MOL0     O67086   1.671   7.544   1.650 -0.0571 -0.1497 -0.0727
  509MOL0     C67087   1.677   7.408   1.619  0.2894  0.1747 -0.0104
  509MOL0     C67088   1.749   7.359   1.518 -0.6640  0.4803 -0.4045
  509MOL0     C67089   1.740   7.224   1.476 -0.5093  0.5252 -0.4999
  509MOL0     C67090   1.676   7.126   1.562 -0.3439  0.2362 -0.5594
  509MOL0     O67091   1.701   6.995   1.531 -0.4057  0.1822  0.1257
  509MOL0     C67092   1.640   6.890   1.592  0.5160  0.0243 -0.0226
  509MOL0     C67093   1.721   6.817   1.691  0.0414 -0.3237  0.1450
  509MOL0     C67094   1.685   6.673   1.694 -0.6328  0.4701  0.2543
  509MOL0     C67095   1.738   6.596   1.819 -0.4374  0.3513  0.0359
  509MOL0     C67096   1.882   6.627   1.858 -0.7355  0.0364 -0.7119
  509MOL0     C67097   1.945   6.532   1.967  0.9990 -0.0039  0.1561
  509MOL0     C67098   1.972   6.389   1.908 -0.4193 -0.3110  0.6647
  509MOL0     C67099   2.020   6.292   2.018  0.1750  0.1235 -1.3628
  509MOL0    Cl67100   1.892   6.267   2.148  0.2601 -0.3880  0.0666
  509MOL0     C67101   1.610   7.168   1.682 -0.4253 -0.5905 -0.9474
  509MOL0     C67102   1.616   7.310   1.702  0.2484 -0.0580 -0.9389
  509MOL0     O67103   1.470   7.565   1.522 -0.9361  0.3472 -0.2191
  509MOL0     C67104   1.492   7.829   1.513  0.4404  0.2381 -0.2118
  509MOL0     C67105   1.499   7.968   1.492  0.1906 -0.3609 -0.0497
  509MOL0     N67106   1.246   8.657   1.825  0.4633  0.5840 -0.0327
  509MOL0     N67107   1.118   8.676   1.793 -0.3734 -0.2568 -0.4269
  509MOL0     C67108   0.534   8.843   0.837 -0.5229  0.7023 -0.1923
  509MOL0     C67109   0.470   8.957   0.793 -0.1741 -0.6387 -0.6595
  509MOL0     C67110   0.254   9.330   0.710  0.2847  0.3331 -0.3430
  509MOL0     C67111   0.158   9.316   0.605 -0.5763 -0.1406 -0.5888
  509MOL0     C67112   0.115   9.425   0.531 -1.0587 -0.9159 -0.3341
  509MOL0     C67113   0.159   9.562   0.559 -0.5653  0.5549 -0.5026
  509MOL0     O67114   0.123   9.662   0.480 -0.2967 -0.5929 -0.4128
  509MOL0     C67115   0.013   9.743   0.533  0.9340  0.4530 -0.9806
  509MOL0     C67116   0.038   9.821   0.656  0.8200  0.1451  0.4723
  509MOL0     C67117   0.157   9.917   0.643  1.4469  0.2160 -0.0154
  509MOL0     C67118   0.146  10.055   0.580  0.3377  0.7345 -0.4129
  509MOL0     C67119   0.093  10.054   0.443  0.9274 -0.8012  0.4546
  509MOL0     C67120   0.041  10.060   0.333 -0.0153 -0.2175  0.1094
  509MOL0     C67121   0.246   9.585   0.669 -0.2755  0.1476  0.0533
  509MOL0     C67122   0.299   9.466   0.735  0.4491 -0.5925  1.5134
  509MOL0     H67123   0.706   9.195   0.813  0.9711  0.0739 -0.9628
  509MOL0     H67124   0.833   8.985   0.890 -0.2842 -0.5914  2.0952
  509MOL0     H67125   0.699   8.561   1.030 -1.2727 -0.8718  3.0273
  509MOL0     H67126   0.615   8.705   1.078 -1.3088  0.8306 -2.0556
  509MOL0     H67127   0.839   8.816   1.128 -2.7289  0.3821 -4.0723
  509MOL0     H67128   0.922   8.655   1.094 -1.1797 -1.3612 -0.3858
  509MOL0     H67129   0.695   8.711   1.296  0.1002  0.2876  0.0725
  509MOL0     H67130   0.859   8.733   1.342 -0.6309 -1.7948  1.5152
  509MOL0     H67131   0.725   8.478   1.248 -1.7813  1.8467  0.1585
  509MOL0     H67132   0.895   8.483   1.279 -2.0542 -3.3901 -1.5121
  509MOL0     H67133   0.772   8.376   1.442 -3.0021  0.6396  0.5836
  509MOL0     H67134   0.660   8.511   1.459  0.8504  0.1987  3.0173
  509MOL0     H67135   0.833   8.657   1.561  0.4850 -0.8162  0.5870
  509MOL0     H67136   0.953   8.534   1.524 -0.0083 -0.4781 -1.5974
  509MOL0     H67137   0.716   8.463   1.695  0.9153 -0.0187  0.6554
  509MOL0     H67138   0.847   8.365   1.677  0.9725 -0.5642  2.8065
  509MOL0     H67139   0.862   8.489   1.898  0.1901  0.9566  1.3020
  509MOL0     H67140   0.842   8.636   1.817  0.8104 -0.3025  0.3723
  509MOL0     H67141   1.122   8.349   1.835  1.4036 -0.3485  2.0414
  509MOL0     H67142   1.352   8.364   1.944  1.6092  1.0394  1.7633
  509MOL0     H67143   1.445   8.511   1.915 -0.3338  1.0164 -1.2789
  509MOL0     H67144   1.440   8.440   1.654 -2.9907  2.7441  0.7897
  509MOL0     H67145   1.369   8.287   1.702  0.0277  0.5082 -1.9612
  509MOL0     H67146   1.628   8.389   1.831 -0.0110  0.6244 -0.2485
  509MOL0     H67147   1.572   8.222   1.826  0.8003 -0.4065  0.9782
  509MOL0     H67148   1.751   8.238   1.671 -2.1338 -2.8923 -0.2536
  509MOL0     H67149   1.663   8.368   1.589 -2.5771  0.6418  0.0656
  509MOL0     H67150   1.721   8.042   1.729 -0.8947  1.3853 -1.3550
  509MOL0     H67151   1.723   7.774   1.745  1.1273 -2.0232 -3.3545
  509MOL0     H67152   1.810   7.431   1.465  2.1408 -1.6532 -0.2913
  509MOL0     H67153   1.793   7.177   1.394  0.4940 -0.8545  0.8784
  509MOL0     H67154   1.619   6.819   1.512 -0.7196 -0.1979  0.4784
  509MOL0     H67155   1.543   6.920   1.633  1.1038  0.2134  1.3070
  509MOL0     H67156   1.715   6.874   1.784  2.2492  0.1069  0.0671
  509MOL0     H67157   1.829   6.826   1.678 -0.1382  0.3589 -0.9676
  509MOL0     H67158   1.724   6.626   1.603  0.0346 -0.3724  0.9613
  509MOL0     H67159   1.579   6.649   1.681 -0.5270  0.5391 -0.8489
  509MOL0     H67160   1.680   6.629   1.906  0.4924  1.4266  0.2531
  509MOL0     H67161   1.728   6.487   1.814  1.1290  0.1417  0.8848
  509MOL0     H67162   1.877   6.731   1.891  2.1193  0.2931 -0.8788
  509MOL0     H67163   1.956   6.627   1.778 -1.3067  1.7657 -1.2727
  509MOL0     H67164   1.884   6.520   2.057  2.7394  1.5347  1.6121
  509MOL0     H67165   2.040   6.582   1.986  2.0097 -1.0981 -1.7359
  509MOL0     H67166   1.879   6.363   1.857 -1.1089  3.2557 -0.1986
  509MOL0     H67167   2.052   6.391   1.833 -1.3851 -2.1060 -0.4822
  509MOL0     H67168   2.116   6.310   2.067 -0.8282 -0.9297  1.1613
  509MOL0     H67169   2.030   6.199   1.961  3.8437  0.2982 -1.2588
  509MOL0     H67170   1.559   7.113   1.761  0.0271  1.9721  1.2494
  509MOL0     H67171   1.559   7.339   1.790  0.0000 -1.7626 -0.4980
  509MOL0     H67172   1.404   7.789   1.464  0.7446  0.1977 -0.7391
  509MOL0     H67173   1.430   8.017   1.424  0.9709  2.0525  0.8014
  509MOL0     H67174   0.494   8.742   0.846  1.4186 -0.0865 -0.0338
  509MOL0     H67175   0.365   8.940   0.772 -0.8230 -0.3620  1.9961
  509MOL0     H67176   0.117   9.218   0.584  0.1452  0.0002 -2.9845
  509MOL0     H67177   0.047   9.399   0.450 -1.5170  1.9555 -0.9764
  509MOL0     H67178  -0.070   9.677   0.560 -0.1316  0.0325 -4.6570
  509MOL0     H67179  -0.023   9.812   0.455 -2.0467  1.6687  1.2763
  509MOL0     H67180  -0.051   9.881   0.676 -0.3266 -1.4522  0.3338
  509MOL0     H67181   0.053   9.762   0.748  0.3949 -0.3126  0.2513
  509MOL0     H67182   0.226   9.855   0.586 -2.8841 -4.6230 -0.7184
  509MOL0     H67183   0.189   9.935   0.746 -1.3901  1.2351  0.7954
  509MOL0     H67184   0.091  10.115   0.653  1.2684 -1.0029  1.8373
  509MOL0     H67185   0.246  10.099   0.567  0.3416  0.2075 -2.4508
  509MOL0     H67186   0.014  10.060   0.230 -0.6103 -0.4239  0.2608
  509MOL0     H67187   0.300   9.678   0.685  1.9856 -1.2375  0.9900
  509MOL0     H67188   0.373   9.488   0.811  1.6666  2.2672 -0.3297
  510MOL0     O67189   7.465   4.978   7.031  0.0976  1.6413 -1.3575
  510MOL0     C67190   7.510   4.871   7.006 -0.7159  1.0604  0.6673
  510MOL0     O67191   7.643   4.830   7.001 -0.1036 -0.1915  0.4401
  510MOL0     C67192   7.728   4.929   7.003 -0.6047  0.1880  0.9233
  510MOL0     C67193   7.762   4.990   7.122  0.6949  0.0954  0.2467
  510MOL0     C67194   7.849   5.095   7.141 -0.2833  0.2696 -0.1820
  510MOL0     C67195   7.919   5.143   7.024  0.0120  0.3943  0.1012
  510MOL0     O67196   8.012   5.240   7.047  0.3625  0.3360  0.0220
  510MOL0     C67197   8.104   5.274   6.944 -0.4578  0.7119  0.9828
  510MOL0     C67198   8.208   5.385   6.998 -0.5345  0.3575  0.3737
  510MOL0     C67199   8.138   5.521   7.052  0.2524  0.0555 -0.0540
  510MOL0     C67200   8.244   5.631   7.078  1.2359 -0.1580  0.7661
  510MOL0     C67201   8.194   5.775   7.125  0.5497 -0.0256  1.0502
  510MOL0     C67202   8.299   5.890   7.121  1.3826  0.2907 -0.6261
  510MOL0     C67203   8.422   5.861   7.208 -0.6468  0.2109  0.1064
  510MOL0     C67204   8.408   5.829   7.363  0.0187 -0.0876 -0.1209
  510MOL0     N67205   8.531   5.788   7.440  0.3635  0.1945  0.0413
  510MOL0     C67206   8.656   5.845   7.414 -0.6490  0.5130 -0.1728
  510MOL0     C67207   8.738   5.745   7.452  0.1828 -0.9035 -0.7387
  510MOL0     C67208   8.885   5.768   7.436 -0.4403  0.1998  0.7038
  510MOL0     C67209   8.945   5.676   7.336  0.8109 -0.1731  0.5520
  510MOL0     C67210   8.997   5.540   7.391  0.3872 -0.0740  0.6287
  510MOL0     C67211   9.081   5.475   7.286 -1.2013  1.5958  0.6690
  510MOL0     O67212   8.999   5.423   7.181  0.6817  0.6707 -0.1072
  510MOL0     C67213   9.062   5.355   7.082 -0.2268  0.0325  0.5303
  510MOL0     C67214   9.198   5.316   7.083  0.6438  0.4145 -0.3068
  510MOL0     C67215   9.238   5.223   6.982  0.2035 -1.1200 -0.9898
  510MOL0     C67216   9.146   5.189   6.878  0.1771 -0.1828 -0.4797
  510MOL0     C67217   9.197   5.085   6.782 -0.3930 -0.9346  0.9096
  510MOL0     O67218   9.101   5.005   6.717 -0.5749 -0.0016 -0.2634
  510MOL0     C67219   9.130   4.920   6.617  0.0280 -0.3081 -0.0546
  510MOL0     C67220   9.027   4.878   6.523 -0.9004  0.8850 -0.0088
  510MOL0     C67221   9.037   4.759   6.451 -0.8447  0.0532  0.1024
  510MOL0     C67222   9.144   4.672   6.458  0.0881 -1.1325  0.2877
  510MOL0     O67223   9.135   4.555   6.377 -0.7622  0.0827 -0.1908
  510MOL0     C67224   9.238   4.454   6.397  0.5408  0.4425 -0.6353
  510MOL0     C67225   9.199   4.323   6.324 -0.4659 -0.0985 -0.2900
  510MOL0     C67226   9.273   4.199   6.387 -0.1039  0.2469  0.0110
  510MOL0     C67227   9.425   4.192   6.371  0.5262  1.4518 -0.0326
  510MOL0     C67228   9.497   4.056   6.413 -0.0104  0.2692 -0.4628
  510MOL0     C67229   9.660   4.071   6.418  0.5280 -0.1694  0.7474
  510MOL0     C67230   9.704   4.132   6.283 -0.2973  0.3926  0.2378
  510MOL0     C67231   9.686   4.033   6.175  0.1688  0.2878  1.2819
  510MOL0    Cl67232   9.740   4.106   6.020 -0.3242 -0.0156  0.2421
  510MOL0     C67233   9.254   4.720   6.536  0.3942  0.2271 -0.1804
  510MOL0     C67234   9.240   4.842   6.616 -0.4801  0.0535  0.2202
  510MOL0     O67235   9.315   5.084   6.764  0.0744  0.5254 -0.1043
  510MOL0     C67236   9.013   5.230   6.879  0.6579  0.1064 -0.3586
  510MOL0     C67237   8.973   5.315   6.988 -0.1667  0.3656  0.2125
  510MOL0     N67238   8.666   5.633   7.489 -1.0116  0.4398  0.0687
  510MOL0     N67239   8.540   5.663   7.499  0.3234  0.1153  0.2193
  510MOL0     C67240   7.876   5.091   6.901 -0.6657 -0.5427  1.2161
  510MOL0     C67241   7.798   4.981   6.886  0.2661  0.3893 -0.5848
  510MOL0     C67242   7.414   4.753   6.978  0.9244  0.1052  1.0131
  510MOL0     C67243   7.272   4.765   6.980  1.0254  0.0989 -0.3992
  510MOL0     C67244   7.182   4.664   6.975  0.4782 -1.1973 -0.5878
  510MOL0     C67245   7.229   4.534   6.960 -1.0106  0.7931 -1.2590
  510MOL0     O67246   7.147   4.418   6.954  0.4790  0.2256  0.2817
  510MOL0     C67247   7.011   4.443   6.911  0.5748 -0.6685  0.2949
  510MOL0     C67248   6.939   4.314   6.884  0.2140  0.0441 -0.5782
  510MOL0     C67249   6.975   4.233   6.766 -0.5533  0.7960 -0.4467
  510MOL0     C67250   6.905   4.099   6.759  0.2955  0.3699  0.2412
  510MOL0     C67251   6.763   4.105   6.790  0.1584  0.1537 -0.5330
  510MOL0     C67252   6.640   4.100   6.805  0.1995 -0.0873  0.6092
  510MOL0     C67253   7.370   4.510   6.953 -0.9697 -0.3423  0.1908
  510MOL0     C67254   7.465   4.626   6.964 -0.0549  0.0130  0.7636
  510MOL0     H67255   7.717   4.950   7.212  1.5991  2.0086  1.6214
  510MOL0     H67256   7.863   5.122   7.245 -0.6757 -4.5662  1.3725
  510MOL0     H67257   8.047   5.336   6.873  0.8599 -0.6009 -1.3609
  510MOL0     H67258   8.144   5.185   6.894  1.3802  1.0637  1.7479
  510MOL0     H67259   8.271   5.407   6.911 -3.5772 -0.3611 -2.2265
  510MOL0     H67260   8.276   5.342   7.072 -0.2153  1.6514  0.8634
  510MOL0     H67261   8.093   5.494   7.148 -0.0819 -0.6401 -0.4012
  510MOL0     H67262   8.052   5.547   6.989  0.8301  1.5505 -0.2475
  510MOL0     H67263   8.314   5.590   7.152  1.1639 -0.6275  0.5803
  510MOL0     H67264   8.302   5.642   6.986 -0.2991  0.9426 -0.1094
  510MOL0     H67265   8.146   5.768   7.223  1.2248  0.6859  1.4471
  510MOL0     H67266   8.126   5.799   7.043  1.8575 -0.7457 -0.2952
  510MOL0     H67267   8.251   5.985   7.145  0.6999 -0.3590  0.6465
  510MOL0     H67268   8.325   5.897   7.015 -0.6571 -0.9625 -1.2608
  510MOL0     H67269   8.488   5.783   7.168 -2.3606 -0.6095 -1.2451
  510MOL0     H67270   8.485   5.950   7.200  1.4454 -1.3486 -2.6491
  510MOL0     H67271   8.342   5.743   7.371  3.1498 -2.5753  0.9484
  510MOL0     H67272   8.360   5.914   7.414 -1.1523  0.5589 -2.1827
  510MOL0     H67273   8.680   5.937   7.361  0.0121  1.1144  1.1445
  510MOL0     H67274   8.930   5.764   7.536 -1.1215  0.6974  1.0409
  510MOL0     H67275   8.906   5.870   7.403 -3.2512  0.2214 -1.3957
  510MOL0     H67276   9.034   5.726   7.297  2.5517 -2.3319  1.5211
  510MOL0     H67277   8.865   5.662   7.263  0.5036  1.4600  0.5354
  510MOL0     H67278   9.060   5.548   7.480  1.7180 -0.5214 -0.2306
  510MOL0     H67279   8.910   5.477   7.413 -0.0108  1.2148  3.1585
  510MOL0     H67280   9.143   5.391   7.319  1.1953  1.7357 -2.9467
  510MOL0     H67281   9.152   5.548   7.246  2.4478 -2.0767 -0.2050
  510MOL0     H67282   9.274   5.341   7.157  2.7188 -3.6333 -0.7703
  510MOL0     H67283   9.338   5.183   6.990 -0.4812 -2.5387  2.4642
  510MOL0     H67284   8.936   4.937   6.534 -0.3114  1.4410  2.5020
  510MOL0     H67285   8.954   4.721   6.393 -1.5797  0.0258  1.1469
  510MOL0     H67286   9.262   4.438   6.503 -1.0133 -2.1969 -0.5738
  510MOL0     H67287   9.327   4.491   6.345  0.1542  4.0709  0.9682
  510MOL0     H67288   9.246   4.316   6.225  0.0280 -2.7474  0.0605
  510MOL0     H67289   9.091   4.309   6.312 -0.4763 -0.7443  0.4655
  510MOL0     H67290   9.225   4.113   6.338 -2.6510  0.0843  2.5984
  510MOL0     H67291   9.250   4.187   6.493  0.7538  1.7883  0.3931
  510MOL0     H67292   9.455   4.198   6.267 -2.6702  0.0815 -1.1776
  510MOL0     H67293   9.457   4.277   6.432 -0.7367  0.3646  2.3325
  510MOL0     H67294   9.461   3.983   6.340 -1.8182  2.0682 -1.4944
  510MOL0     H67295   9.453   4.028   6.509 -3.6300  4.9950 -0.3453
  510MOL0     H67296   9.703   3.971   6.432  1.0924 -0.8867 -4.0595
  510MOL0     H67297   9.682   4.144   6.496 -2.2923  1.2770  0.3385
  510MOL0     H67298   9.650   4.225   6.262 -1.0152 -0.0463  0.1053
  510MOL0     H67299   9.810   4.159   6.278 -0.4599  0.8860 -0.6733
  510MOL0     H67300   9.579   4.009   6.174 -0.0836  1.2296 -0.7730
  510MOL0     H67301   9.742   3.943   6.199 -0.9410 -0.5101  0.9957
  510MOL0     H67302   9.348   4.666   6.544  1.1345  0.7366 -3.6915
  510MOL0     H67303   9.315   4.853   6.694  0.6086 -0.2362 -0.7615
  510MOL0     H67304   8.943   5.193   6.805  0.5970  2.7482 -1.7464
  510MOL0     H67305   8.869   5.341   7.005 -0.4061  0.1026 -0.7376
  510MOL0     H67306   7.918   5.130   6.809  1.3901 -2.3079  1.3212
  510MOL0     H67307   7.788   4.951   6.782  2.1281  2.0624 -1.3070
  510MOL0     H67308   7.233   4.866   6.990  0.5872 -0.1015 -0.0653
  510MOL0     H67309   7.077   4.690   6.983  1.0047  0.6692  1.3315
  510MOL0     H67310   6.998   4.499   6.818  1.7448 -0.2156  0.3871
  510MOL0     H67311   6.950   4.481   6.994  1.4628  0.2028  0.5769
  510MOL0     H67312   6.940   4.255   6.976 -3.1384  0.5038 -0.1218
  510MOL0     H67313   6.836   4.342   6.862 -0.4320 -1.1095  0.8236
  510MOL0     H67314   7.083   4.216   6.772 -0.3961  2.1102  2.7499
  510MOL0     H67315   6.940   4.274   6.671 -2.7945 -1.9696 -0.9383
  510MOL0     H67316   6.926   4.053   6.662  3.3647  3.8063 -1.0040
  510MOL0     H67317   6.953   4.035   6.833  0.1881 -1.4011 -1.1564
  510MOL0     H67318   6.533   4.094   6.807  0.0779 -0.0149 -1.8818
  510MOL0     H67319   7.394   4.405   6.942 -0.4688 -0.7898  4.0486
  510MOL0     H67320   7.573   4.612   6.962 -0.0005  0.3469 -2.0908
  511MOL0     O67321   7.990   1.073   1.817 -0.0700 -0.9680  0.5917
  511MOL0     C67322   8.069   0.989   1.774  0.3072  0.2159 -0.3341
  511MOL0     O67323   8.206   1.010   1.753 -0.0084 -0.0900  0.4582
  511MOL0     C67324   8.270   1.122   1.758  0.6575 -0.1556  0.1700
  511MOL0     C67325   8.378   1.123   1.670 -1.1484 -0.0009  0.0375
  511MOL0     C67326   8.456   1.241   1.650 -0.1873  0.4884  0.1701
  511MOL0     C67327   8.418   1.361   1.705 -0.1217 -0.1753  0.6587
  511MOL0     O67328   8.474   1.479   1.664  0.6781 -0.1500 -0.5890
  511MOL0     C67329   8.549   1.472   1.542 -0.1846  0.1441 -0.4425
  511MOL0     C67330   8.581   1.621   1.505  0.4772  0.9149  0.6915
  511MOL0     C67331   8.704   1.671   1.593  0.9349  0.8853  0.3647
  511MOL0     C67332   8.774   1.794   1.546 -1.3750 -0.2790 -0.7632
  511MOL0     C67333   8.916   1.795   1.613 -0.1321 -0.1829 -0.6291
  511MOL0     C67334   8.992   1.925   1.585 -0.2542  0.5446 -0.2660
  511MOL0     C67335   9.145   1.910   1.604  1.0832  1.0647  0.1898
  511MOL0     C67336   9.186   1.924   1.753  0.3938 -0.3405  1.1917
  511MOL0     N67337   9.331   1.943   1.778 -0.5952  0.0236  0.5019
  511MOL0     C67338   9.416   1.852   1.724 -0.8471 -0.4384 -0.0442
  511MOL0     C67339   9.532   1.858   1.805 -0.0987  0.0932  0.2433
  511MOL0     C67340   9.660   1.789   1.783  0.3951  0.1540  0.0903
  511MOL0     C67341   9.725   1.833   1.656  0.5053 -0.3602  0.5480
  511MOL0     C67342   9.863   1.772   1.624 -0.0395 -0.2061  0.3691
  511MOL0     C67343   9.941   1.837   1.500  0.4254  0.9474  0.0228
  511MOL0     O67344  10.019   1.948   1.543  0.2373  0.7961 -0.3705
  511MOL0     C67345  10.151   1.928   1.556  0.0647 -0.6092  0.1055
  511MOL0     C67346  10.237   2.029   1.516 -0.3378  0.2438  0.0194
  511MOL0     C67347  10.372   2.028   1.532  1.0712  0.3729  0.7353
  511MOL0     C67348  10.431   1.917   1.600  0.4860 -0.1333  0.2578
  511MOL0     C67349  10.580   1.905   1.621 -1.4507  0.8448  0.6209
  511MOL0     O67350  10.620   1.787   1.673 -0.5210  0.2761  0.3727
  511MOL0     C67351  10.746   1.763   1.703 -0.1013  0.9520 -0.5061
  511MOL0     C67352  10.861   1.790   1.630 -0.3476 -0.1726  0.1844
  511MOL0     C67353  10.993   1.756   1.675 -0.0382 -0.7033  0.4734
  511MOL0     C67354  11.001   1.684   1.797 -0.7136 -0.0585 -0.5230
  511MOL0     O67355  11.108   1.645   1.863 -0.2423 -0.3127 -0.2417
  511MOL0     C67356  11.232   1.712   1.854  0.2491  0.2410  0.7208
  511MOL0     C67357  11.337   1.658   1.946  0.0417  0.5946  0.0376
  511MOL0     C67358  11.468   1.739   1.952 -0.5977  0.7027  0.6254
  511MOL0     C67359  11.558   1.689   2.070 -0.3918 -0.3473 -0.1620
  511MOL0     C67360  11.692   1.772   2.074  0.8254  0.4045 -0.8370
  511MOL0     C67361  11.789   1.707   2.171 -0.5263 -1.0010  0.1836
  511MOL0     C67362  11.916   1.792   2.170  0.6931 -0.7313  0.1793
  511MOL0     C67363  12.013   1.763   2.292  0.3329 -0.3407  0.2104
  511MOL0    Cl67364  12.171   1.846   2.249  0.2005  0.4602 -0.1590
  511MOL0     C67365  10.882   1.654   1.867 -0.5026  0.7186 -0.1885
  511MOL0     C67366  10.759   1.695   1.823  0.7093 -0.2384 -0.4025
  511MOL0     O67367  10.655   1.996   1.578  0.1698 -0.3823  0.0450
  511MOL0     C67368  10.346   1.811   1.631  0.2653 -0.0214 -0.2245
  511MOL0     C67369  10.205   1.812   1.613 -0.4975 -0.3477  0.3417
  511MOL0     N67370   9.506   1.949   1.903 -1.0988 -0.1767  0.5291
  511MOL0     N67371   9.394   2.006   1.877 -0.6073 -0.1930 -0.6216
  511MOL0     C67372   8.303   1.359   1.786  0.9613 -1.8468  0.0897
  511MOL0     C67373   8.233   1.244   1.815  0.2639 -0.7540 -1.0348
  511MOL0     C67374   8.013   0.861   1.729  0.2965  0.2294 -0.5657
  511MOL0     C67375   7.872   0.841   1.751 -0.4095 -0.6588 -1.1241
  511MOL0     C67376   7.805   0.739   1.687 -0.5519 -0.5527 -0.1735
  511MOL0     C67377   7.879   0.648   1.617 -0.5196 -0.1347  0.5034
  511MOL0     O67378   7.797   0.560   1.545  0.5463  1.0471 -0.2745
  511MOL0     C67379   7.859   0.492   1.435  0.1064  0.2049  0.0983
  511MOL0     C67380   7.884   0.586   1.318 -0.1566  0.0389  0.5113
  511MOL0     C67381   7.927   0.513   1.187 -0.1289  0.5984  0.0051
  511MOL0     C67382   7.923   0.627   1.080  0.8851 -0.1800 -0.1365
  511MOL0     C67383   7.953   0.581   0.943  0.1022  0.3147  0.9648
  511MOL0     C67384   7.974   0.535   0.835 -0.3477 -0.4969  0.7361
  511MOL0     C67385   8.014   0.657   1.604 -0.3837  0.2177 -0.4143
  511MOL0     C67386   8.083   0.758   1.663  0.1341  0.9033 -0.4911
  511MOL0     H67387   8.396   1.023   1.630  1.5211  0.5347 -0.3062
  511MOL0     H67388   8.550   1.233   1.596  0.3021  2.7718  0.5533
  511MOL0     H67389   8.491   1.426   1.460 -0.6981 -1.0861  0.5830
  511MOL0     H67390   8.650   1.433   1.551 -0.1992 -0.2007 -1.5738
  511MOL0     H67391   8.494   1.686   1.517  0.7523  1.3184  0.5491
  511MOL0     H67392   8.613   1.624   1.400 -0.0625  1.4214  0.5353
  511MOL0     H67393   8.782   1.595   1.586 -1.4388 -1.9163  1.8088
  511MOL0     H67394   8.664   1.671   1.694  0.6899 -3.0648  0.4318
  511MOL0     H67395   8.791   1.806   1.439  1.2350  1.8981 -0.2129
  511MOL0     H67396   8.729   1.892   1.566  5.4453  3.2334  0.3361
  511MOL0     H67397   8.974   1.707   1.583  3.7963  1.7600  0.4925
  511MOL0     H67398   8.908   1.789   1.722  1.3846  0.3173 -0.4599
  511MOL0     H67399   8.953   2.013   1.637 -0.4600  1.3829 -1.7704
  511MOL0     H67400   8.991   1.945   1.477  0.7344  5.5340  0.4189
  511MOL0     H67401   9.181   1.816   1.560 -2.3079  0.2798 -1.1810
  511MOL0     H67402   9.199   1.993   1.558  0.6076  2.5932  2.2479
  511MOL0     H67403   9.153   1.840   1.815  1.4636 -2.4817 -0.9795
  511MOL0     H67404   9.147   2.015   1.799  1.0848 -0.7057  2.5403
  511MOL0     H67405   9.395   1.789   1.638 -3.5154  1.7040 -1.1386
  511MOL0     H67406   9.640   1.681   1.783  1.2683 -0.0617  2.0876
  511MOL0     H67407   9.728   1.802   1.868 -0.2998  1.8316  0.4325
  511MOL0     H67408   9.717   1.941   1.645 -0.7523 -0.5017 -0.1073
  511MOL0     H67409   9.665   1.791   1.575  2.3570  0.7436 -1.5164
  511MOL0     H67410   9.918   1.794   1.716 -0.0707 -3.5247  1.2925
  511MOL0     H67411   9.846   1.666   1.606  0.3415 -0.6046  2.1812
  511MOL0     H67412   9.874   1.890   1.431  0.4414  1.3120  0.2841
  511MOL0     H67413  10.007   1.768   1.448 -0.9107 -2.0645  2.0254
  511MOL0     H67414  10.204   2.123   1.472  4.0957  1.3578 -1.4002
  511MOL0     H67415  10.436   2.111   1.503  0.4290  0.6112 -0.0099
  511MOL0     H67416  10.850   1.845   1.536  1.6503 -0.3247 -0.1787
  511MOL0     H67417  11.083   1.774   1.619  0.8799 -2.2573  1.3784
  511MOL0     H67418  11.217   1.820   1.864  1.3285  0.3072  1.8944
  511MOL0     H67419  11.269   1.696   1.752  2.5530 -0.4554  1.6111
  511MOL0     H67420  11.374   1.558   1.923  2.8749  1.4874  0.2532
  511MOL0     H67421  11.298   1.657   2.048  0.7012 -1.5085  0.3100
  511MOL0     H67422  11.440   1.845   1.958  0.5444  1.1601 -1.2017
  511MOL0     H67423  11.527   1.717   1.863  1.1580  2.0866  1.3829
  511MOL0     H67424  11.506   1.702   2.165 -0.0252 -0.2899  0.0326
  511MOL0     H67425  11.575   1.581   2.062 -5.0136 -1.4972  2.2901
  511MOL0     H67426  11.657   1.868   2.112 -2.4341 -0.3640 -1.5675
  511MOL0     H67427  11.736   1.781   1.975  1.7676  0.4424 -0.4217
  511MOL0     H67428  11.821   1.612   2.126  0.9832 -0.2992 -0.3003
  511MOL0     H67429  11.751   1.686   2.271 -0.4055  1.0569  0.6955
  511MOL0     H67430  11.967   1.758   2.079  0.7908 -2.1318  0.7349
  511MOL0     H67431  11.903   1.900   2.163 -0.7152 -0.7326  2.0398
  511MOL0     H67432  12.034   1.656   2.302 -0.4343 -0.8318 -2.4608
  511MOL0     H67433  11.978   1.795   2.390 -1.0893 -3.5163  0.8620
  511MOL0     H67434  10.896   1.602   1.962  2.7020 -1.4035 -1.6326
  511MOL0     H67435  10.676   1.665   1.885  0.9415  1.1187  0.6166
  511MOL0     H67436  10.392   1.729   1.686  1.3283  0.9293  0.3430
  511MOL0     H67437  10.132   1.742   1.654 -2.2822  2.5576  2.5027
  511MOL0     H67438   8.269   1.456   1.821 -0.3102 -1.6607 -1.5420
  511MOL0     H67439   8.145   1.250   1.879  1.1561  2.7255  0.0642
  511MOL0     H67440   7.816   0.917   1.804 -2.9141 -0.6927 -3.5129
  511MOL0     H67441   7.698   0.724   1.695 -0.7839  0.8197 -0.4598
  511MOL0     H67442   7.778   0.429   1.398 -1.3484  1.9708  0.1498
  511MOL0     H67443   7.939   0.426   1.469 -0.4412 -0.2919  0.4238
  511MOL0     H67444   7.795   0.645   1.294 -2.2930 -2.5532  1.5441
  511MOL0     H67445   7.963   0.658   1.343 -1.5255  1.3881  1.1239
  511MOL0     H67446   7.850   0.440   1.163  2.1565 -1.9876  0.0727
  511MOL0     H67447   8.025   0.464   1.189 -1.0158 -1.4092 -1.8034
  511MOL0     H67448   7.823   0.671   1.076 -0.1554 -2.1789  1.9416
  511MOL0     H67449   7.992   0.704   1.114  1.5647 -1.0705  0.5387
  511MOL0     H67450   7.997   0.492   0.740  0.6483 -1.3353  1.3320
  511MOL0     H67451   8.069   0.591   1.538  1.5319  0.1310  1.1794
  511MOL0     H67452   8.186   0.785   1.641 -0.8621  4.0967 -1.7955
  512MOL0     O67453   4.795   0.371   5.575  0.9153  1.3360 -0.9305
  512MOL0     C67454   4.812   0.308   5.467  0.0805  0.1471 -0.6215
  512MOL0     O67455   4.930   0.316   5.390 -0.3174  0.5893  0.8029
  512MOL0     C67456   5.017   0.408   5.425  1.0531 -0.7803 -0.7973
  512MOL0     C67457   4.990   0.545   5.397  0.5403  0.1029  1.2562
  512MOL0     C67458   5.078   0.642   5.441 -0.2030 -0.0493  0.1754
  512MOL0     C67459   5.194   0.603   5.510  0.0822  0.5127  0.0759
  512MOL0     O67460   5.293   0.688   5.561 -0.0593  0.2336  0.7285
  512MOL0     C67461   5.292   0.821   5.516 -0.3602  0.2508 -0.4794
  512MOL0     C67462   5.202   0.913   5.586  0.3224  0.0475 -0.4918
  512MOL0     C67463   5.265   0.977   5.712 -0.5723  1.0532  0.2935
  512MOL0     C67464   5.164   1.058   5.795  0.1359  0.5843 -0.2800
  512MOL0     C67465   5.228   1.118   5.925 -0.6846 -0.1396  0.0272
  512MOL0     C67466   5.123   1.184   6.008  0.0790 -0.4895  0.0202
  512MOL0     C67467   5.176   1.241   6.130  0.8311  0.6520  0.7553
  512MOL0     C67468   5.074   1.324   6.214 -0.2018  0.9358 -0.3657
  512MOL0     N67469   5.115   1.335   6.352  0.3601 -0.4499  0.3348
  512MOL0     C67470   5.198   1.433   6.383 -0.6927  0.2710 -0.1578
  512MOL0     C67471   5.208   1.436   6.524 -0.6628 -0.1021  0.9078
  512MOL0     C67472   5.296   1.517   6.609 -0.0645 -0.7840 -0.6332
  512MOL0     C67473   5.258   1.671   6.601 -0.1614 -1.3264  0.2656
  512MOL0     C67474   5.137   1.709   6.694 -0.1374  0.0647  0.8877
  512MOL0     C67475   5.185   1.795   6.816 -0.7358  2.0350 -0.0829
  512MOL0     O67476   5.070   1.849   6.886  0.5486  1.2281  0.0104
  512MOL0     C67477   5.085   1.944   6.984  1.0735 -0.0389 -0.0685
  512MOL0     C67478   5.196   2.009   7.028 -0.3601  0.1271  0.1601
  512MOL0     C67479   5.188   2.111   7.125  0.0853 -0.1838  0.0036
  512MOL0     C67480   5.072   2.125   7.202 -0.6931  0.1079  0.4615
  512MOL0     C67481   5.045   2.233   7.297  0.8270  0.0979 -0.4624
  512MOL0     O67482   5.155   2.293   7.345 -0.5424  0.5517 -0.9886
  512MOL0     C67483   5.170   2.378   7.457  0.4797 -0.4839  0.2773
  512MOL0     C67484   5.064   2.415   7.538  1.0544 -0.1122  1.0457
  512MOL0     C67485   5.092   2.500   7.646 -0.4832  0.6853  0.6673
  512MOL0     C67486   5.220   2.526   7.697  0.5362  0.1535 -0.1512
  512MOL0     O67487   5.244   2.597   7.814 -0.3434  0.2068  0.0114
  512MOL0     C67488   5.383   2.607   7.871  0.1324 -0.6218  0.2186
  512MOL0     C67489   5.419   2.481   7.952  0.3481  0.8603 -0.7482
  512MOL0     C67490   5.557   2.475   8.012  0.9481  0.8600 -0.3448
  512MOL0     C67491   5.589   2.331   8.074 -0.2030 -0.2513  0.5115
  512MOL0     C67492   5.702   2.309   8.183  1.1410 -0.7122 -0.0643
  512MOL0     C67493   5.848   2.353   8.130  0.8320 -0.1416 -0.2794
  512MOL0     C67494   5.893   2.245   8.034 -1.4713  0.0513 -0.1746
  512MOL0     C67495   5.904   2.098   8.086  0.5486 -0.1730 -0.5142
  512MOL0    Cl67496   5.938   2.100   8.258 -0.2037  0.2634  0.0839
  512MOL0     C67497   5.323   2.478   7.619  0.5353 -0.0622  0.1194
  512MOL0     C67498   5.303   2.409   7.503  0.0942  1.4825  0.0194
  512MOL0     O67499   4.928   2.248   7.345  0.5853 -0.1358 -0.2864
  512MOL0     C67500   4.963   2.040   7.164  0.7290  0.2369 -0.5267
  512MOL0     C67501   4.965   1.951   7.055 -0.6188  0.5784 -0.2544
  512MOL0     N67502   5.123   1.331   6.563 -0.0901  0.8704  0.6918
  512MOL0     N67503   5.078   1.266   6.462  0.1822 -0.2179  1.2487
  512MOL0     C67504   5.230   0.466   5.524 -0.0408  0.0903 -0.8457
  512MOL0     C67505   5.135   0.369   5.490  0.4000  0.0667 -0.3552
  512MOL0     C67506   4.725   0.196   5.428  0.4404 -0.2302  0.0590
  512MOL0     C67507   4.599   0.176   5.487  1.2896  0.1536 -0.1280
  512MOL0     C67508   4.517   0.063   5.464  0.6754 -0.3318 -0.4938
  512MOL0     C67509   4.566  -0.037   5.390  0.4486  0.8339 -0.1715
  512MOL0     O67510   4.481  -0.146   5.378 -0.5218  0.0884  0.0537
  512MOL0     C67511   4.547  -0.275   5.362  0.9932 -0.1736  0.2144
  512MOL0     C67512   4.455  -0.400   5.327  0.1970 -0.5994 -0.1193
  512MOL0     C67513   4.536  -0.514   5.280  0.3424 -0.2438 -0.6248
  512MOL0     C67514   4.480  -0.656   5.274 -0.0900  0.5383  0.8474
  512MOL0     C67515   4.464  -0.707   5.408  0.5059 -0.6530 -0.5142
  512MOL0     C67516   4.465  -0.767   5.516  0.8462 -0.1794 -0.3258
  512MOL0     C67517   4.694  -0.019   5.329  0.0864  0.2251  0.3837
  512MOL0     C67518   4.769   0.095   5.349 -0.0813  0.8617  0.9718
  512MOL0     H67519   4.892   0.572   5.359  1.0275  1.7990  1.1080
  512MOL0     H67520   5.049   0.746   5.428 -0.8686  0.1342  2.7268
  512MOL0     H67521   5.263   0.819   5.411  0.2130 -2.1403 -0.6410
  512MOL0     H67522   5.400   0.840   5.516 -0.3039 -0.0617 -0.3743
  512MOL0     H67523   5.115   0.854   5.616  2.3151 -1.1950  3.6242
  512MOL0     H67524   5.169   0.990   5.516 -1.4541  0.8720  1.1434
  512MOL0     H67525   5.344   1.037   5.667  1.5667 -0.2470  2.0778
  512MOL0     H67526   5.299   0.890   5.769 -0.2971  0.6914 -0.4117
  512MOL0     H67527   5.131   1.145   5.738  2.9368  1.2616 -1.0480
  512MOL0     H67528   5.078   0.998   5.826  0.0965  0.9407  0.3216
  512MOL0     H67529   5.299   1.196   5.898 -0.3700 -0.4109  0.0695
  512MOL0     H67530   5.288   1.049   5.984 -0.0737  1.5279  1.4367
  512MOL0     H67531   5.035   1.122   6.025 -2.2326  2.1518 -1.4403
  512MOL0     H67532   5.081   1.259   5.940  2.6069  0.8380 -0.1843
  512MOL0     H67533   5.191   1.150   6.188 -0.2655  0.8481  1.3648
  512MOL0     H67534   5.273   1.288   6.108  0.2413  2.0294  1.0327
  512MOL0     H67535   4.977   1.273   6.221  1.1788 -1.7678  0.5064
  512MOL0     H67536   5.069   1.416   6.155  1.9568  0.6879 -1.0089
  512MOL0     H67537   5.275   1.489   6.330  0.5143  0.9383  2.1424
  512MOL0     H67538   5.403   1.501   6.597 -0.2295 -3.0057  0.4085
  512MOL0     H67539   5.263   1.481   6.707 -1.0093  1.6482  0.0187
  512MOL0     H67540   5.228   1.692   6.498  2.0188  1.7093  0.1352
  512MOL0     H67541   5.344   1.731   6.629  0.5163 -1.4724 -1.3637
  512MOL0     H67542   5.063   1.769   6.641 -3.3977 -0.4020  4.4629
  512MOL0     H67543   5.080   1.621   6.726  1.8668 -1.6617  0.0138
  512MOL0     H67544   5.255   1.873   6.784  2.1395  0.0016  0.9448
  512MOL0     H67545   5.246   1.733   6.881 -2.5406  1.7347  1.4061
  512MOL0     H67546   5.294   1.986   6.987 -0.3155 -1.3652  1.0225
  512MOL0     H67547   5.277   2.171   7.141  0.5683 -0.7303 -0.6289
  512MOL0     H67548   4.958   2.400   7.517  0.7814  0.7098  1.7656
  512MOL0     H67549   5.019   2.530   7.721  0.8742  2.1191  1.4847
  512MOL0     H67550   5.378   2.687   7.945 -0.0783 -1.7607  1.4615
  512MOL0     H67551   5.453   2.632   7.790 -1.9831  0.2569 -1.4562
  512MOL0     H67552   5.418   2.394   7.885  1.0115 -0.3897  0.8093
  512MOL0     H67553   5.343   2.458   8.028  2.4078 -3.5819  0.3278
  512MOL0     H67554   5.568   2.558   8.083  0.5752  0.1124  0.6012
  512MOL0     H67555   5.631   2.487   7.932 -1.4014 -0.0346 -2.8174
  512MOL0     H67556   5.493   2.292   8.111 -0.1833 -0.7007  0.0999
  512MOL0     H67557   5.612   2.260   7.994  0.2518 -1.2696  1.5121
  512MOL0     H67558   5.693   2.207   8.223 -2.7072 -0.0026  1.3300
  512MOL0     H67559   5.677   2.377   8.265  1.3387  0.8743 -1.2597
  512MOL0     H67560   5.917   2.354   8.215  0.2279  0.8487  0.2333
  512MOL0     H67561   5.844   2.454   8.088  0.7338  1.2219  2.7002
  512MOL0     H67562   5.851   2.259   7.934  0.0530 -1.3808 -1.0710
  512MOL0     H67563   5.997   2.277   8.019 -3.1118  5.9936 -1.7536
  512MOL0     H67564   5.986   2.049   8.033 -0.5207 -2.1376 -0.4479
  512MOL0     H67565   5.808   2.050   8.067  1.5114 -1.1931 -3.2930
  512MOL0     H67566   5.425   2.489   7.655 -0.1237  0.1264  2.0303
  512MOL0     H67567   5.391   2.388   7.442 -1.1831  1.2284 -1.8171
  512MOL0     H67568   4.869   2.058   7.215  1.1357 -1.0925  0.7602
  512MOL0     H67569   4.882   1.887   7.028 -1.2178  1.5045 -0.6140
  512MOL0     H67570   5.325   0.434   5.567 -1.5152 -0.8980  1.9212
  512MOL0     H67571   5.146   0.261   5.497  3.1078 -0.2618 -5.1729
  512MOL0     H67572   4.562   0.254   5.552 -1.2261 -0.6372 -0.5102
  512MOL0     H67573   4.412   0.059   5.491 -0.3646 -0.8135 -4.0955
  512MOL0     H67574   4.598  -0.299   5.456  1.3219  0.5336  0.2220
  512MOL0     H67575   4.627  -0.269   5.288  1.0684  2.9771  0.4431
  512MOL0     H67576   4.378  -0.423   5.401 -0.6304 -0.3698 -0.8833
  512MOL0     H67577   4.389  -0.370   5.245  0.2702  0.6863  0.2672
  512MOL0     H67578   4.619  -0.514   5.350 -1.6243 -0.7719  1.8266
  512MOL0     H67579   4.577  -0.479   5.184 -3.3196  0.9757 -1.9350
  512MOL0     H67580   4.380  -0.653   5.230 -0.0282  2.6314  0.7511
  512MOL0     H67581   4.547  -0.726   5.225 -1.2126  1.8456 -2.9297
  512MOL0     H67582   4.458  -0.821   5.608 -2.8592  3.5788  1.9765
  512MOL0     H67583   4.737  -0.103   5.277 -1.8366  0.9827 -2.6926
  512MOL0     H67584   4.859   0.112   5.291 -1.8674  0.9105 -2.0247
  513MOL0     O67585   5.095   6.601   9.447  0.3912  0.3978  0.4132
  513MOL0     C67586   5.009   6.514   9.449  0.9193 -0.1775  0.1419
  513MOL0     O67587   4.932   6.469   9.555  0.2870 -0.2249 -0.1103
  513MOL0     C67588   4.947   6.542   9.665  0.4449 -0.2382  0.1968
  513MOL0     C67589   5.000   6.485   9.790  0.2277  0.1292 -0.3336
  513MOL0     C67590   4.972   6.550   9.906 -1.3317 -0.0784  0.3191
  513MOL0     C67591   4.915   6.682   9.913 -0.1846  0.4062  0.7910
  513MOL0     O67592   4.863   6.742  10.023  0.7363 -0.7081 -0.4426
  513MOL0     C67593   4.892   6.686  10.148  0.1525  0.7459  0.2623
  513MOL0     C67594   4.871   6.789  10.265 -0.5886 -0.6599  0.0900
  513MOL0     C67595   4.967   6.915  10.252  0.4780  0.2712  0.1221
  513MOL0     C67596   4.958   7.005  10.376  0.1609  1.6660  0.5876
  513MOL0     C67597   5.066   7.108  10.377  0.3469 -0.4883  0.7145
  513MOL0     C67598   5.063   7.182  10.509 -1.1218 -0.4878  1.7116
  513MOL0     C67599   5.187   7.268  10.542  0.5846 -0.1441 -0.6856
  513MOL0     C67600   5.179   7.418  10.541  0.5585 -0.0738 -0.6167
  513MOL0     N67601   5.127   7.456  10.411  0.4397  0.7687  0.2878
  513MOL0     C67602   5.202   7.455  10.287  0.2635 -0.0697  0.1207
  513MOL0     C67603   5.094   7.459  10.202 -1.1308  0.0545  0.4614
  513MOL0     C67604   5.099   7.418  10.058 -0.1718  0.1832  0.1406
  513MOL0     C67605   5.081   7.266  10.039  0.1436  0.3664  0.9214
  513MOL0     C67606   5.113   7.229   9.894 -0.3195 -0.6691 -0.6813
  513MOL0     C67607   5.105   7.075   9.900 -0.4379 -0.3577  0.5695
  513MOL0     O67608   5.180   7.027   9.785 -0.7695 -0.1731  0.6084
  513MOL0     C67609   5.108   7.003   9.673  0.2865 -0.7897 -0.3652
  513MOL0     C67610   4.985   7.059   9.642  0.0751 -0.1185 -0.4325
  513MOL0     C67611   4.918   7.035   9.518  0.0526 -0.2322 -0.7978
  513MOL0     C67612   4.979   6.954   9.422 -0.7824 -0.0353 -0.9074
  513MOL0     C67613   4.917   6.925   9.301 -1.3326 -1.0847 -0.1004
  513MOL0     O67614   4.810   7.015   9.275 -0.6258  0.4297  0.0323
  513MOL0     C67615   4.755   7.013   9.144  0.3994 -0.1401 -0.3391
  513MOL0     C67616   4.838   7.027   9.034  0.5491  0.0123 -0.0602
  513MOL0     C67617   4.786   7.015   8.904  0.5484  0.5704 -1.0042
  513MOL0     C67618   4.645   6.987   8.884  0.1614 -0.1873 -0.3038
  513MOL0     O67619   4.587   6.970   8.761  0.2424 -0.2658  0.9951
  513MOL0     C67620   4.612   6.838   8.713 -0.5513 -0.3175  0.5055
  513MOL0     C67621   4.548   6.836   8.570  0.0615 -1.0814 -0.6338
  513MOL0     C67622   4.549   6.700   8.494 -0.3280 -0.2884 -0.1446
  513MOL0     C67623   4.479   6.697   8.359  0.2055  0.9993 -0.6012
  513MOL0     C67624   4.537   6.782   8.254  0.1450 -0.7512  0.8047
  513MOL0     C67625   4.488   6.744   8.105  0.6789 -0.3426 -0.4365
  513MOL0     C67626   4.548   6.834   8.001 -0.0138 -0.4848  0.0384
  513MOL0     C67627   4.528   6.983   8.024  0.6626 -0.0189 -0.0505
  513MOL0    Cl67628   4.599   7.079   7.892  0.4434  0.0778  0.1360
  513MOL0     C67629   4.560   6.987   8.997  0.2570 -0.1842  0.3631
  513MOL0     C67630   4.614   6.995   9.118  1.0006 -0.3158  0.4657
  513MOL0     O67631   4.954   6.826   9.235  0.9649  0.2182 -0.1912
  513MOL0     C67632   5.116   6.913   9.446  0.3232  0.2298  0.1063
  513MOL0     C67633   5.175   6.928   9.572  0.1382  0.3123 -0.1764
  513MOL0     N67634   4.972   7.479  10.261 -0.6801  0.5610 -0.3902
  513MOL0     N67635   4.999   7.481  10.383 -0.2572 -0.0840 -0.3740
  513MOL0     C67636   4.883   6.737   9.788  0.7681 -0.2099  0.1133
  513MOL0     C67637   4.898   6.673   9.664 -0.5091 -0.6538  0.5855
  513MOL0     C67638   5.000   6.430   9.329 -0.9474  0.6326 -0.1881
  513MOL0     C67639   4.955   6.304   9.335  0.2770  0.0153 -0.9090
  513MOL0     C67640   4.948   6.220   9.228 -0.4927  0.6799 -0.4048
  513MOL0     C67641   4.971   6.265   9.098 -0.7138 -1.2109  0.0395
  513MOL0     O67642   4.965   6.205   8.977 -0.1138  0.6921  0.0038
  513MOL0     C67643   4.936   6.062   8.971 -0.5198  0.2791 -0.1307
  513MOL0     C67644   5.057   5.970   8.999 -0.6589 -1.1079 -0.0523
  513MOL0     C67645   5.161   5.991   8.875  0.4165  0.1847 -0.2571
  513MOL0     C67646   5.291   5.926   8.915  0.2425  0.5508  1.1841
  513MOL0     C67647   5.296   5.777   8.928 -0.5381 -0.7076  1.0226
  513MOL0     C67648   5.277   5.661   8.947 -0.2737 -0.2637 -0.8901
  513MOL0     C67649   4.999   6.397   9.088 -0.0892 -0.1657 -0.1449
  513MOL0     C67650   5.020   6.485   9.198  0.6780  0.0779  0.3515
  513MOL0     H67651   5.053   6.391   9.795  1.3653  0.8258  2.0506
  513MOL0     H67652   5.009   6.498   9.994 -0.0689  0.8362  0.3486
  513MOL0     H67653   4.997   6.655  10.150 -0.0241  0.1660  0.8685
  513MOL0     H67654   4.832   6.598  10.174  2.7790 -0.4209  3.0437
  513MOL0     H67655   4.890   6.727  10.353  1.3106 -0.2624  0.0229
  513MOL0     H67656   4.769   6.827  10.267  0.5958  2.9236  0.7019
  513MOL0     H67657   4.936   6.967  10.160 -1.5074 -4.3728 -2.1498
  513MOL0     H67658   5.073   6.889  10.247  0.6628  1.0472 -0.3136
  513MOL0     H67659   4.864   7.061  10.381 -1.5451 -0.7681 -1.6298
  513MOL0     H67660   4.961   6.936  10.460 -3.2957 -1.0376 -1.2432
  513MOL0     H67661   5.037   7.186  10.306 -2.1382 -0.0329  2.0858
  513MOL0     H67662   5.165   7.069  10.354  1.3138  1.7107  0.9768
  513MOL0     H67663   5.062   7.105  10.588  1.6115 -0.0642  2.2552
  513MOL0     H67664   4.976   7.246  10.525  1.3701  3.9733 -0.8277
  513MOL0     H67665   5.214   7.243  10.645 -0.1844 -2.6393 -1.0179
  513MOL0     H67666   5.274   7.238  10.481 -0.8785 -2.9244 -1.6033
  513MOL0     H67667   5.281   7.456  10.552  1.8352 -2.9636 -1.5067
  513MOL0     H67668   5.108   7.446  10.619  0.5717 -0.6517 -0.3930
  513MOL0     H67669   5.302   7.421  10.261 -1.6592 -4.1267 -2.9970
  513MOL0     H67670   5.195   7.454  10.018 -1.0868  0.9321 -1.4980
  513MOL0     H67671   5.019   7.477  10.011  1.2075 -0.9636 -4.0708
  513MOL0     H67672   4.981   7.240  10.076 -0.2982  0.7437  0.0238
  513MOL0     H67673   5.153   7.224  10.110 -2.1868  1.2797  4.0463
  513MOL0     H67674   5.035   7.264   9.826 -0.6325 -2.3965 -1.2542
  513MOL0     H67675   5.212   7.274   9.881  1.2010 -3.1560  1.4646
  513MOL0     H67676   5.006   7.029   9.892  0.5884 -2.3148 -3.0341
  513MOL0     H67677   5.158   7.044   9.991 -0.2472  2.9149  1.7003
  513MOL0     H67678   4.927   7.112   9.717  1.1150 -1.6770  1.5867
  513MOL0     H67679   4.818   7.068   9.494 -0.6130 -1.1847  0.5591
  513MOL0     H67680   4.945   7.042   9.040  0.4839  1.2874 -1.5217
  513MOL0     H67681   4.850   6.992   8.820 -0.6918 -3.6302 -1.0129
  513MOL0     H67682   4.574   6.761   8.781  1.3172 -0.8648  0.9901
  513MOL0     H67683   4.721   6.823   8.710 -0.3945  0.6649  0.8521
  513MOL0     H67684   4.584   6.920   8.511  0.0144 -2.0677 -2.1395
  513MOL0     H67685   4.441   6.856   8.585  0.3579  0.8083 -0.8209
  513MOL0     H67686   4.499   6.635   8.566  0.9491 -0.1851  0.8767
  513MOL0     H67687   4.654   6.671   8.485 -0.2024  0.6627 -3.1182
  513MOL0     H67688   4.486   6.593   8.325  2.8914  1.3952 -1.4988
  513MOL0     H67689   4.376   6.732   8.373  0.3939  1.5822 -0.6542
  513MOL0     H67690   4.646   6.778   8.244  0.3517  3.6907 -0.7925
  513MOL0     H67691   4.512   6.887   8.268  3.6888  0.5867 -1.5727
  513MOL0     H67692   4.379   6.753   8.096  0.8664  1.0377 -1.6180
  513MOL0     H67693   4.512   6.637   8.098 -0.1371 -0.7227  1.7382
  513MOL0     H67694   4.656   6.819   8.005 -0.1135 -1.4995 -0.5851
  513MOL0     H67695   4.510   6.810   7.901 -1.5287  0.1475  0.4437
  513MOL0     H67696   4.578   7.025   8.112 -0.0220  0.7142  0.0052
  513MOL0     H67697   4.420   7.000   8.029  0.7231  1.3973 -2.4221
  513MOL0     H67698   4.454   6.965   8.985  0.5405 -0.3205 -2.6301
  513MOL0     H67699   4.565   6.993   9.215  0.5152 -1.8448  0.2166
  513MOL0     H67700   5.182   6.856   9.382 -2.2473 -0.5518 -2.0277
  513MOL0     H67701   5.270   6.887   9.603  1.4831  2.5579 -1.0842
  513MOL0     H67702   4.832   6.832   9.792 -4.1257 -2.4239 -1.3238
  513MOL0     H67703   4.866   6.724   9.574  3.3440 -0.7409 -1.0604
  513MOL0     H67704   4.933   6.263   9.433 -0.8530  2.6530  0.0331
  513MOL0     H67705   4.919   6.116   9.241  1.7582  0.1558  0.8367
  513MOL0     H67706   4.887   6.055   8.873  1.1801  0.8660 -1.0633
  513MOL0     H67707   4.854   6.029   9.036  0.6876 -0.7745  0.8877
  513MOL0     H67708   5.105   5.993   9.094 -3.2087 -0.2195  1.1132
  513MOL0     H67709   5.019   5.867   9.004 -3.5363 -0.1388 -0.1877
  513MOL0     H67710   5.172   6.099   8.858  2.3034 -0.0779 -0.9675
  513MOL0     H67711   5.125   5.940   8.785  1.8972  2.9073 -2.5335
  513MOL0     H67712   5.365   5.956   8.841 -3.3047 -0.0388 -2.9431
  513MOL0     H67713   5.332   5.963   9.010  1.8438  0.0296  0.7228
  513MOL0     H67714   5.262   5.558   8.973  1.8620 -0.6837 -1.1849
  513MOL0     H67715   5.015   6.442   8.990  1.0431  0.7021  0.4072
  513MOL0     H67716   5.036   6.591   9.181 -0.5794  0.0179 -1.5365
  514MOL0     O67717   2.671  11.384   9.623 -0.5295 -0.2545  0.6835
  514MOL0     C67718   2.689  11.317   9.526  1.0888 -0.4906  0.3634
  514MOL0     O67719   2.729  11.363   9.402 -0.6395  0.9570 -0.5265
  514MOL0     C67720   2.716  11.495   9.353  0.0134 -0.3805  0.5127
  514MOL0     C67721   2.767  11.530   9.230 -0.1820 -0.5923  0.0614
  514MOL0     C67722   2.739  11.656   9.169  1.0277 -0.4462 -0.3364
  514MOL0     C67723   2.661  11.757   9.235 -0.8044  0.1889  0.8240
  514MOL0     O67724   2.617  11.875   9.183  0.5066 -0.0380  0.7134
  514MOL0     C67725   2.635  11.910   9.045  0.4291 -0.7427  1.1634
  514MOL0     C67726   2.541  12.018   8.995 -0.0073 -0.2898  0.1620
  514MOL0     C67727   2.390  11.992   9.013  0.8523 -0.5736 -0.2059
  514MOL0     C67728   2.316  12.132   9.011  0.0109  0.3094 -0.6844
  514MOL0     C67729   2.155  12.116   8.996 -0.2072  0.8233 -0.4868
  514MOL0     C67730   2.112  12.108   8.848  1.0919 -0.1070 -0.9520
  514MOL0     C67731   1.969  12.087   8.830 -0.0760  0.0543  0.1225
  514MOL0     C67732   1.938  12.047   8.684 -0.7073  0.6259 -0.1802
  514MOL0     N67733   1.793  12.029   8.666 -0.4071  0.2021  0.3392
  514MOL0     C67734   1.720  12.093   8.570 -0.1560  0.7743  0.2690
  514MOL0     C67735   1.604  12.015   8.565 -0.8569 -0.1719 -0.3907
  514MOL0     C67736   1.498  12.055   8.461  1.0969  0.3388 -0.3096
  514MOL0     C67737   1.474  11.928   8.376  0.6539  0.1458  0.0354
  514MOL0     C67738   1.329  11.916   8.322 -0.5513  0.1855 -0.2707
  514MOL0     C67739   1.286  11.780   8.248 -0.8729 -0.4098 -0.1149
  514MOL0     O67740   1.295  11.667   8.332 -0.3866 -1.2451  0.9549
  514MOL0     C67741   1.177  11.665   8.405  0.1814  0.5618 -0.3291
  514MOL0     C67742   1.057  11.613   8.343 -0.9232 -0.6480  0.0841
  514MOL0     C67743   0.941  11.613   8.419 -0.3012  0.4356  0.1517
  514MOL0     C67744   0.939  11.659   8.561  0.5339  0.9264  1.0489
  514MOL0     C67745   0.809  11.674   8.632  0.1567  0.5896  0.5851
  514MOL0     O67746   0.716  11.595   8.572  0.6193 -0.6225  0.1219
  514MOL0     C67747   0.614  11.520   8.634  0.9383  0.0277 -0.1892
  514MOL0     C67748   0.540  11.440   8.544  0.6543 -0.6550 -0.6437
  514MOL0     C67749   0.445  11.365   8.608  0.7973  0.3889  0.6820
  514MOL0     C67750   0.420  11.363   8.745 -0.2627 -0.2625 -0.7636
  514MOL0     O67751   0.331  11.269   8.799  0.7009 -0.8701  0.1016
  514MOL0     C67752   0.260  11.298   8.931 -0.8033 -0.3868  0.2492
  514MOL0     C67753   0.143  11.202   8.959 -0.3690 -0.2955  0.5242
  514MOL0     C67754   0.063  11.221   9.087  0.6500 -0.0258 -0.4509
  514MOL0     C67755   0.157  11.172   9.197 -0.6402  0.1638  0.0818
  514MOL0     C67756   0.089  11.167   9.340 -0.0192 -0.2998 -0.7736
  514MOL0     C67757  -0.023  11.073   9.349  0.7880 -0.4656  0.2696
  514MOL0     C67758  -0.015  10.991   9.478  0.9439 -0.1361 -0.9251
  514MOL0     C67759  -0.045  11.086   9.593 -1.1922 -0.1328  0.3072
  514MOL0    Cl67760  -0.032  10.999   9.741  0.1689  0.0977 -0.5194
  514MOL0     C67761   0.478  11.452   8.827 -0.3988 -0.1024  0.5787
  514MOL0     C67762   0.583  11.533   8.771  0.3876 -0.5004  0.4877
  514MOL0     O67763   0.805  11.716   8.747 -0.2276  0.2364  0.3352
  514MOL0     C67764   1.060  11.708   8.617  0.7532 -0.0061  1.0103
  514MOL0     C67765   1.177  11.705   8.542 -0.0667  0.5695  0.2795
  514MOL0     N67766   1.604  11.908   8.653  0.2816  0.5765 -0.0497
  514MOL0     N67767   1.722  11.920   8.696  0.6815  0.1461  0.5062
  514MOL0     C67768   2.626  11.729   9.369 -0.4359  0.6053 -0.2284
  514MOL0     C67769   2.651  11.599   9.423  0.1331 -0.2967  0.0479
  514MOL0     C67770   2.673  11.178   9.531 -0.9560  0.0920 -1.1460
  514MOL0     C67771   2.596  11.116   9.630 -0.4735 -0.3916 -0.5249
  514MOL0     C67772   2.565  10.978   9.628 -0.9509  0.2901  0.1521
  514MOL0     C67773   2.597  10.902   9.516 -1.5734  0.6958 -0.1513
  514MOL0     O67774   2.564  10.771   9.492 -0.5020 -0.7608  0.1636
  514MOL0     C67775   2.427  10.732   9.490 -1.1493  0.0263 -0.3265
  514MOL0     C67776   2.341  10.754   9.617 -0.4105  0.2665  0.8134
  514MOL0     C67777   2.193  10.705   9.602  0.6011  0.0591 -0.2556
  514MOL0     C67778   2.179  10.557   9.572  0.9983 -0.4296  0.1899
  514MOL0     C67779   2.237  10.474   9.676  0.1952  0.2537 -0.8954
  514MOL0     C67780   2.301  10.396   9.752 -0.1931 -1.0913 -0.5982
  514MOL0     C67781   2.674  10.959   9.414 -0.0360  0.8195  0.0899
  514MOL0     C67782   2.713  11.094   9.415 -0.3600 -0.0378 -0.0545
  514MOL0     H67783   2.840  11.459   9.193 -0.6810 -1.2404  0.2872
  514MOL0     H67784   2.760  11.666   9.063  0.3217 -0.3615 -0.4687
  514MOL0     H67785   2.605  11.815   9.000  1.3761 -1.6141  2.3140
  514MOL0     H67786   2.737  11.944   9.024  0.0537  1.3282  2.3741
  514MOL0     H67787   2.576  12.038   8.893  2.8501 -1.4256  0.8214
  514MOL0     H67788   2.568  12.103   9.058 -2.5778 -0.1156  1.1476
  514MOL0     H67789   2.360  11.952   9.111 -4.3106  2.0649 -0.3965
  514MOL0     H67790   2.351  11.920   8.940  0.8347 -0.0151 -0.7550
  514MOL0     H67791   2.334  12.188   9.103  1.6895  3.8542 -2.9425
  514MOL0     H67792   2.355  12.195   8.931  1.4536 -0.7320 -0.8384
  514MOL0     H67793   2.110  12.209   9.030  0.3236  0.4068  1.5180
  514MOL0     H67794   2.121  12.025   9.047 -0.8155  0.8242 -0.8847
  514MOL0     H67795   2.165  12.026   8.799  1.5438  0.3981 -1.3130
  514MOL0     H67796   2.133  12.197   8.788 -0.4752  1.2425  0.4055
  514MOL0     H67797   1.940  12.015   8.907 -1.0455  3.6689  3.5189
  514MOL0     H67798   1.909  12.177   8.848 -1.8542 -0.9767 -0.4678
  514MOL0     H67799   1.982  11.948   8.671 -0.7691  0.8701 -2.7131
  514MOL0     H67800   1.982  12.113   8.609 -0.1804  1.6542  0.9976
  514MOL0     H67801   1.741  12.171   8.498 -1.0238  1.4434  0.7211
  514MOL0     H67802   1.524  12.138   8.395 -2.3223  1.6800 -0.1293
  514MOL0     H67803   1.399  12.078   8.502 -0.1628 -0.4385 -2.7713
  514MOL0     H67804   1.493  11.840   8.438 -0.3402 -0.1493 -0.0517
  514MOL0     H67805   1.536  11.933   8.286 -1.2392 -1.0200 -1.4356
  514MOL0     H67806   1.253  11.943   8.397 -0.3672  1.1713 -0.4268
  514MOL0     H67807   1.311  11.993   8.246  2.3860  1.6637  0.3966
  514MOL0     H67808   1.355  11.770   8.164  2.5465  3.4945  1.8807
  514MOL0     H67809   1.183  11.792   8.213 -1.4691  0.7475  1.8838
  514MOL0     H67810   1.045  11.585   8.239 -1.6892  3.2674 -1.0498
  514MOL0     H67811   0.854  11.570   8.371 -1.0270  0.6965  1.1918
  514MOL0     H67812   0.567  11.434   8.439  0.3776 -2.0899 -0.6534
  514MOL0     H67813   0.376  11.310   8.545  0.5267  0.3963  0.9698
  514MOL0     H67814   0.224  11.401   8.922  0.7568  0.0245 -2.7639
  514MOL0     H67815   0.327  11.298   9.018 -2.5497  1.5915  1.7078
  514MOL0     H67816   0.178  11.099   8.946  2.5657  0.7545 -0.8317
  514MOL0     H67817   0.075  11.223   8.876  1.2474  0.7664 -0.6011
  514MOL0     H67818  -0.030  11.165   9.072 -0.6894  1.8883  0.3158
  514MOL0     H67819   0.030  11.324   9.098  0.3005 -0.1780 -0.0314
  514MOL0     H67820   0.197  11.075   9.165  0.1728  1.1845 -2.2205
  514MOL0     H67821   0.240  11.242   9.211 -0.9985  0.8309 -0.9509
  514MOL0     H67822   0.068  11.269   9.374 -0.5509 -1.1291  1.5632
  514MOL0     H67823   0.160  11.121   9.410 -2.6121 -0.8804  1.6635
  514MOL0     H67824  -0.045  11.012   9.261  1.6199 -0.1055 -0.1980
  514MOL0     H67825  -0.106  11.144   9.348  0.4886 -0.7369  2.0715
  514MOL0     H67826  -0.097  10.919   9.476  0.7967 -0.3224  3.1505
  514MOL0     H67827   0.083  10.945   9.493  0.1874 -2.3340 -2.2421
  514MOL0     H67828  -0.150  11.116   9.585 -1.2437 -0.1114  0.9880
  514MOL0     H67829   0.012  11.179   9.597  0.5579 -1.1627  0.2056
  514MOL0     H67830   0.458  11.463   8.933 -2.4373  3.4084 -0.0168
  514MOL0     H67831   0.604  11.614   8.840  0.6484  1.5600 -1.8552
  514MOL0     H67832   1.047  11.749   8.716 -0.1842 -2.2601  1.8821
  514MOL0     H67833   1.267  11.740   8.591  0.1914 -0.4002  0.5218
  514MOL0     H67834   2.575  11.804   9.428 -2.7544 -0.4073 -0.8269
  514MOL0     H67835   2.605  11.579   9.519 -2.5697 -0.5801 -1.2043
  514MOL0     H67836   2.571  11.171   9.720  3.1927  0.9423 -0.1630
  514MOL0     H67837   2.508  10.937   9.710 -1.8222  1.3081  0.0820
  514MOL0     H67838   2.428  10.629   9.453 -0.9707 -0.1791  0.2223
  514MOL0     H67839   2.379  10.798   9.418 -0.4107  4.8566  3.0716
  514MOL0     H67840   2.382  10.719   9.712 -1.0395 -1.8503  0.3375
  514MOL0     H67841   2.328  10.861   9.638  3.0213  0.5603  2.0635
  514MOL0     H67842   2.156  10.762   9.517  2.1827  0.7017 -0.5502
  514MOL0     H67843   2.145  10.717   9.700 -1.7677 -3.9944 -0.7015
  514MOL0     H67844   2.071  10.538   9.567  0.4360  2.0706  1.5118
  514MOL0     H67845   2.212  10.537   9.470  0.3366 -1.9776  0.2509
  514MOL0     H67846   2.353  10.335   9.823 -1.5443  2.2044  3.6276
  514MOL0     H67847   2.708  10.888   9.339  0.5819 -0.1402  1.2515
  514MOL0     H67848   2.762  11.136   9.328  1.9071 -0.2675  1.0506
  515MOL0     O67849   6.034   1.547   0.011 -0.3000  0.4589  0.0400
  515MOL0     C67850   5.977   1.651   0.036 -0.3105  0.8589  0.1183
  515MOL0     O67851   5.844   1.675   0.021 -0.0865  1.2304  0.3508
  515MOL0     C67852   5.768   1.591  -0.055 -1.6667  0.0201 -0.3667
  515MOL0     C67853   5.638   1.558  -0.020 -0.1681  0.6466  0.5312
  515MOL0     C67854   5.551   1.471  -0.090 -0.6676 -0.0541  1.3688
  515MOL0     C67855   5.601   1.411  -0.194 -0.2988  2.2939  0.2346
  515MOL0     O67856   5.545   1.314  -0.275 -0.7124  0.6950 -0.1000
  515MOL0     C67857   5.432   1.241  -0.230 -0.3004 -0.1889 -0.3437
  515MOL0     C67858   5.394   1.111  -0.305 -0.1566 -0.1694 -0.3103
  515MOL0     C67859   5.355   1.149  -0.443 -0.0599 -0.4842 -0.1852
  515MOL0     C67860   5.346   1.031  -0.534 -0.1603  0.0224 -0.1539
  515MOL0     C67861   5.323   1.080  -0.691  0.0962  0.9180 -0.0175
  515MOL0     C67862   5.451   1.107  -0.768  0.7054  0.6566  1.3170
  515MOL0     C67863   5.435   1.208  -0.886 -0.9383 -0.2288 -0.5921
  515MOL0     C67864   5.333   1.157  -0.974  0.2510  0.5100 -0.2167
  515MOL0     N67865   5.289   1.255  -1.064 -0.5516 -0.0632 -0.9122
  515MOL0     C67866   5.323   1.259  -1.197 -0.6760  0.2947 -0.0180
  515MOL0     C67867   5.288   1.384  -1.232 -0.7013  1.1875  0.2407
  515MOL0     C67868   5.286   1.419  -1.384  0.1570  0.2420 -0.3338
  515MOL0     C67869   5.156   1.392  -1.449  0.4891  0.6509  0.1349
  515MOL0     C67870   5.116   1.249  -1.478  0.3065  0.2597 -0.2685
  515MOL0     C67871   5.168   1.188  -1.606 -1.0129  0.1653  0.1056
  515MOL0     O67872   5.170   1.278  -1.706 -0.9514  0.9073  0.6238
  515MOL0     C67873   5.187   1.227  -1.835  0.6658 -1.0879  0.5071
  515MOL0     C67874   5.131   1.106  -1.881  0.3365 -0.8962 -0.0830
  515MOL0     C67875   5.139   1.083  -2.016  0.9059 -0.8188 -0.2473
  515MOL0     C67876   5.185   1.184  -2.103  1.1773 -0.8921  0.4590
  515MOL0     C67877   5.184   1.174  -2.251  0.3747 -0.1120  0.7784
  515MOL0     O67878   5.173   1.282  -2.337 -0.4941 -0.3277 -0.7822
  515MOL0     C67879   5.161   1.272  -2.470  0.2223 -0.0460  0.9483
  515MOL0     C67880   5.088   1.176  -2.542 -0.7019  0.2175  0.3475
  515MOL0     C67881   5.066   1.189  -2.680 -0.5134  1.1197  0.3495
  515MOL0     C67882   5.105   1.305  -2.751 -0.6134 -0.2311  0.3610
  515MOL0     O67883   5.052   1.318  -2.880 -0.5756  0.2747 -0.5008
  515MOL0     C67884   5.061   1.450  -2.935 -0.7284  0.5760 -1.2574
  515MOL0     C67885   4.998   1.446  -3.072 -0.2977  0.0212  0.9294
  515MOL0     C67886   5.025   1.567  -3.156 -0.0825  0.4595 -0.1939
  515MOL0     C67887   5.171   1.600  -3.174 -0.0426 -0.1651  0.2947
  515MOL0     C67888   5.200   1.736  -3.234 -1.0042  0.0726  0.3010
  515MOL0     C67889   5.354   1.756  -3.276  0.0950 -0.9661 -0.1962
  515MOL0     C67890   5.367   1.880  -3.364 -0.3826  1.0193  1.2758
  515MOL0     C67891   5.324   2.009  -3.293  0.3014  0.7364 -0.2060
  515MOL0    Cl67892   5.426   2.026  -3.145  0.0905 -0.0709 -0.1534
  515MOL0     C67893   5.198   1.393  -2.679  1.5508 -0.3026 -0.0486
  515MOL0     C67894   5.216   1.385  -2.538  0.0065 -0.0181  0.1222
  515MOL0     O67895   5.174   1.056  -2.284  1.0952 -1.0402  0.0615
  515MOL0     C67896   5.239   1.299  -2.049  0.2890 -0.5643  0.5550
  515MOL0     C67897   5.254   1.312  -1.919  0.2147 -0.5926  0.4125
  515MOL0     N67898   5.219   1.444  -1.127  1.1020 -0.0815 -0.3786
  515MOL0     N67899   5.232   1.367  -1.030 -0.7004 -0.2238 -0.3607
  515MOL0     C67900   5.725   1.450  -0.241 -0.2496 -0.0118  0.4447
  515MOL0     C67901   5.814   1.533  -0.170 -0.1469 -0.8094  0.8527
  515MOL0     C67902   6.053   1.769   0.078 -0.0369  0.3217  0.0412
  515MOL0     C67903   6.014   1.893   0.032  0.2548 -0.3691 -0.7468
  515MOL0     C67904   6.091   2.005   0.061 -0.2036 -0.1499 -0.3486
  515MOL0     C67905   6.221   2.007   0.122  0.3658 -0.2562  0.0204
  515MOL0     O67906   6.280   2.113   0.160 -0.4809  0.3547 -0.3931
  515MOL0     C67907   6.384   2.110   0.264 -0.4499  0.6328  0.3794
  515MOL0     C67908   6.473   2.232   0.263  0.3797 -0.6598  0.0010
  515MOL0     C67909   6.579   2.215   0.368 -0.1023  0.1159  0.7008
  515MOL0     C67910   6.648   2.349   0.433  0.1387  0.2510  0.2951
  515MOL0     C67911   6.788   2.381   0.396 -0.1763 -0.7169  0.2530
  515MOL0     C67912   6.910   2.408   0.389  0.8073 -0.0545  1.0307
  515MOL0     C67913   6.258   1.874   0.157  0.5661 -0.5348 -0.2351
  515MOL0     C67914   6.175   1.755   0.146  0.1804 -0.9609 -0.1939
  515MOL0     H67915   5.590   1.598   0.069  2.6275  0.7874  2.0982
  515MOL0     H67916   5.450   1.446  -0.059  0.0858 -0.9555  3.2216
  515MOL0     H67917   5.344   1.307  -0.229 -0.5662 -0.5033  1.7356
  515MOL0     H67918   5.447   1.200  -0.130  1.6544  0.8981 -0.1461
  515MOL0     H67919   5.301   1.068  -0.266 -0.0467 -1.5594 -1.4951
  515MOL0     H67920   5.464   1.027  -0.302 -0.1197 -0.1264  0.0808
  515MOL0     H67921   5.424   1.221  -0.487 -1.6843  0.8352 -0.6674
  515MOL0     H67922   5.259   1.195  -0.421 -0.1480 -1.2176  1.0700
  515MOL0     H67923   5.434   0.966  -0.532  2.0296  2.8096  0.8249
  515MOL0     H67924   5.259   0.973  -0.503  1.3263 -1.9820  0.5028
  515MOL0     H67925   5.241   1.151  -0.702 -3.3070 -2.8512 -1.2634
  515MOL0     H67926   5.273   0.991  -0.730  1.6562 -0.3811  0.8097
  515MOL0     H67927   5.484   1.011  -0.810 -1.3616  1.0110 -1.4060
  515MOL0     H67928   5.530   1.140  -0.700  3.5368 -0.4230 -1.2235
  515MOL0     H67929   5.411   1.310  -0.853 -1.1643 -0.3077 -0.5069
  515MOL0     H67930   5.528   1.221  -0.941  0.3668 -0.9896  1.3075
  515MOL0     H67931   5.247   1.105  -0.930 -0.3958  1.8875  0.1960
  515MOL0     H67932   5.372   1.076  -1.037  4.7359  3.2761 -1.4775
  515MOL0     H67933   5.362   1.185  -1.266  0.2809 -0.2807  1.1039
  515MOL0     H67934   5.362   1.361  -1.437  2.2382  3.6100 -1.3406
  515MOL0     H67935   5.302   1.527  -1.393 -3.2435  0.7845 -1.5903
  515MOL0     H67936   5.156   1.450  -1.541  0.7818 -0.0328 -0.3064
  515MOL0     H67937   5.071   1.426  -1.390 -1.9205 -5.5438  0.9612
  515MOL0     H67938   5.124   1.183  -1.391 -2.5480  2.7587  2.0902
  515MOL0     H67939   5.007   1.244  -1.486  0.1551  0.5061  1.2986
  515MOL0     H67940   5.117   1.094  -1.626 -0.6509  0.2590 -1.3058
  515MOL0     H67941   5.269   1.149  -1.590 -1.0123 -0.8379 -2.0495
  515MOL0     H67942   5.090   1.031  -1.814 -0.1019  0.2664  0.9942
  515MOL0     H67943   5.106   0.983  -2.038  3.5370 -2.8786  3.9519
  515MOL0     H67944   5.040   1.094  -2.489  0.2352 -0.6024 -0.0434
  515MOL0     H67945   5.008   1.117  -2.738 -2.5356  3.2432 -0.4038
  515MOL0     H67946   5.163   1.487  -2.921 -2.0574  4.0600  0.3654
  515MOL0     H67947   4.999   1.509  -2.867  1.6212 -1.9393  3.6218
  515MOL0     H67948   4.892   1.419  -3.060 -0.6833 -0.9609 -3.0990
  515MOL0     H67949   5.045   1.365  -3.129  1.4076 -0.5500  3.0335
  515MOL0     H67950   4.967   1.650  -3.116 -0.4012 -1.9660  5.2158
  515MOL0     H67951   5.016   1.544  -3.262  4.6618  1.5239 -1.0660
  515MOL0     H67952   5.217   1.612  -3.076 -4.0871  0.1168  2.3488
  515MOL0     H67953   5.225   1.518  -3.222 -0.0449 -0.7509  1.2752
  515MOL0     H67954   5.174   1.801  -3.150 -3.9460  0.9374 -1.1462
  515MOL0     H67955   5.139   1.762  -3.321  0.2882  1.4565 -0.2359
  515MOL0     H67956   5.401   1.670  -3.324  1.6525  0.0952 -0.6698
  515MOL0     H67957   5.408   1.763  -3.182  1.5810  0.8933 -1.1092
  515MOL0     H67958   5.472   1.890  -3.391 -1.0511  0.0030 -2.3014
  515MOL0     H67959   5.308   1.846  -3.450  1.9997 -0.6672  0.2246
  515MOL0     H67960   5.221   2.023  -3.257  1.0740  2.2150  1.6074
  515MOL0     H67961   5.344   2.093  -3.360  0.1151  0.0941 -1.0962
  515MOL0     H67962   5.245   1.477  -2.730 -4.2544  1.1186 -4.0803
  515MOL0     H67963   5.273   1.470  -2.500 -1.7449  1.5731 -0.6734
  515MOL0     H67964   5.281   1.369  -2.120  0.8279 -0.5427  0.8875
  515MOL0     H67965   5.294   1.402  -1.873 -2.3360 -0.1257  1.9268
  515MOL0     H67966   5.761   1.415  -0.337  1.1011  2.7109 -0.1381
  515MOL0     H67967   5.910   1.558  -0.214 -0.1609 -2.7227 -0.3894
  515MOL0     H67968   5.929   1.906  -0.034  1.2681 -0.9231 -2.2239
  515MOL0     H67969   6.062   2.092   0.003  1.6585 -0.4628 -1.8354
  515MOL0     H67970   6.454   2.030   0.238  0.5060  1.6859 -0.3918
  515MOL0     H67971   6.333   2.104   0.361  1.6818  3.1903  1.7934
  515MOL0     H67972   6.521   2.235   0.166  2.9950  2.7020  1.1815
  515MOL0     H67973   6.411   2.323   0.267  2.4820  0.9741 -2.1241
  515MOL0     H67974   6.666   2.158   0.334 -0.2805 -0.7166  1.5946
  515MOL0     H67975   6.537   2.159   0.451 -3.7254  0.7758 -0.5046
  515MOL0     H67976   6.582   2.433   0.412 -1.0851  0.3026  3.7944
  515MOL0     H67977   6.646   2.320   0.538  1.2851 -2.5438 -0.3646
  515MOL0     H67978   7.004   2.455   0.369 -0.2546  1.7436 -0.0714
  515MOL0     H67979   6.354   1.867   0.207 -0.8158  1.6902  3.0899
  515MOL0     H67980   6.212   1.658   0.178 -1.0185 -0.9859  1.2010
  516MOL0     O67981  10.220   2.308   7.386 -0.5473 -0.7993 -0.3694
  516MOL0     C67982  10.123   2.344   7.318  0.0412  0.4807 -0.5072
  516MOL0     O67983   9.991   2.315   7.353  0.1188  0.4632  0.1824
  516MOL0     C67984   9.954   2.218   7.449 -0.0388 -0.2232 -0.3740
  516MOL0     C67985  10.030   2.105   7.472  0.1541  0.1123  0.1429
  516MOL0     C67986   9.975   1.989   7.539 -0.1409 -0.1750 -0.5008
  516MOL0     C67987   9.849   2.000   7.600 -0.3724  1.3530 -0.8868
  516MOL0     O67988   9.820   1.905   7.685 -0.4072 -0.3947  0.4393
  516MOL0     C67989   9.694   1.906   7.748  0.3319  0.7662 -0.3696
  516MOL0     C67990   9.676   1.776   7.843 -0.2294 -0.3471  0.9769
  516MOL0     C67991   9.546   1.779   7.927 -1.3382  0.2605 -0.5373
  516MOL0     C67992   9.528   1.640   7.992 -0.4291  0.3920  0.0509
  516MOL0     C67993   9.404   1.643   8.081 -0.4384  0.2618 -0.0134
  516MOL0     C67994   9.384   1.515   8.170  0.5794  0.5426  0.0097
  516MOL0     C67995   9.438   1.377   8.123  0.5914  0.7007  0.0202
  516MOL0     C67996   9.416   1.263   8.232  0.6415  0.0210 -0.2608
  516MOL0     N67997   9.280   1.268   8.291 -0.1193  1.3763 -0.0752
  516MOL0     C67998   9.160   1.282   8.210 -0.5869 -0.5762 -0.9085
  516MOL0     C67999   9.060   1.298   8.299  0.2061  0.4856 -0.7192
  516MOL0     C68000   8.906   1.307   8.260  0.3598 -0.1957 -0.2927
  516MOL0     C68001   8.862   1.211   8.145 -0.2048  0.2765  0.6367
  516MOL0     C68002   8.710   1.236   8.117  0.4089  0.4122 -0.9837
  516MOL0     C68003   8.673   1.131   8.011 -0.8768 -1.1871 -1.0436
  516MOL0     O68004   8.526   1.140   7.992 -0.2804  0.0270 -0.2464
  516MOL0     C68005   8.462   1.025   7.949  0.1150 -0.5828  0.5064
  516MOL0     C68006   8.320   1.034   7.945 -0.1660 -0.4040  0.1803
  516MOL0     C68007   8.241   0.917   7.918  0.1180 -0.3320 -0.7550
  516MOL0     C68008   8.300   0.789   7.896  0.3222  0.6392  0.1081
  516MOL0     C68009   8.220   0.676   7.880 -0.1337  0.2402  0.4565
  516MOL0     O68010   8.092   0.690   7.841 -0.6636  0.0133  0.2715
  516MOL0     C68011   8.027   0.578   7.800 -0.5394 -0.0598  0.6661
  516MOL0     C68012   7.889   0.575   7.821  0.1336  1.0058 -0.8876
  516MOL0     C68013   7.807   0.459   7.797 -0.4910  0.4628 -0.4487
  516MOL0     C68014   7.855   0.348   7.722 -0.7244  0.4803 -0.1310
  516MOL0     O68015   7.786   0.231   7.695  0.2510  0.1426  0.3090
  516MOL0     C68016   7.827   0.134   7.793  1.9953  0.2618  0.5114
  516MOL0     C68017   7.718   0.023   7.798  0.2919  0.7620 -0.0461
  516MOL0     C68018   7.698  -0.070   7.678  0.2931 -1.2212  1.0382
  516MOL0     C68019   7.808  -0.167   7.667  0.6973  1.0255 -0.1260
  516MOL0     C68020   7.815  -0.296   7.752 -0.4100 -0.0660  0.4177
  516MOL0     C68021   7.957  -0.358   7.751  1.0496 -0.1773 -0.6078
  516MOL0     C68022   7.969  -0.500   7.822  0.9479  0.8910  0.8036
  516MOL0     C68023   7.879  -0.599   7.755  0.3706 -0.2525  0.1567
  516MOL0    Cl68024   7.921  -0.748   7.827  0.4005 -0.1799  0.0945
  516MOL0     C68025   7.990   0.358   7.684  0.6872 -0.6334  1.3558
  516MOL0     C68026   8.069   0.464   7.716 -0.4427 -1.1916  0.3748
  516MOL0     O68027   8.280   0.571   7.896  0.6204  0.1439 -0.1166
  516MOL0     C68028   8.440   0.789   7.886 -0.9765  0.6670 -0.3751
  516MOL0     C68029   8.523   0.901   7.911 -0.7215 -1.0783 -0.2786
  516MOL0     N68030   9.119   1.307   8.427  0.4501  0.1063 -0.4515
  516MOL0     N68031   9.246   1.286   8.424  0.1990  0.0981  0.1422
  516MOL0     C68032   9.772   2.116   7.580 -0.3727 -0.5406 -0.0535
  516MOL0     C68033   9.817   2.213   7.496 -0.0902  0.5005  0.2554
  516MOL0     C68034  10.142   2.419   7.192  0.3900  0.3733 -0.7403
  516MOL0     C68035  10.268   2.478   7.158  0.0106 -0.9685  0.7910
  516MOL0     C68036  10.287   2.555   7.051  1.0379 -0.1414  0.0473
  516MOL0     C68037  10.178   2.591   6.970 -0.9344 -0.4464  0.8838
  516MOL0     O68038  10.202   2.665   6.856 -0.1838 -0.2116  0.3232
  516MOL0     C68039  10.193   2.809   6.878 -0.2687 -0.1819  0.2269
  516MOL0     C68040  10.191   2.877   6.747  0.3223 -0.7721 -0.3044
  516MOL0     C68041  10.050   2.867   6.677 -0.2274  1.0547 -0.3550
  516MOL0     C68042  10.054   2.908   6.526  0.6208 -0.5052  1.1169
  516MOL0     C68043  10.027   3.054   6.520 -0.3181 -0.2588  1.2900
  516MOL0     C68044   9.990   3.161   6.484 -0.9334  0.0827  0.4015
  516MOL0     C68045  10.062   2.529   6.995 -0.4372 -0.9491 -0.6028
  516MOL0     C68046  10.036   2.441   7.103  0.6039  0.4777  0.2538
  516MOL0     H68047  10.128   2.096   7.426  0.8470 -1.3397  1.7829
  516MOL0     H68048  10.029   1.895   7.538 -0.9668 -0.6606 -0.2469
  516MOL0     H68049   9.608   1.904   7.680  0.2483 -0.8989 -0.2652
  516MOL0     H68050   9.689   1.980   7.828  2.9329 -1.4454  2.0785
  516MOL0     H68051   9.766   1.768   7.906  1.9137 -3.5061 -2.0989
  516MOL0     H68052   9.683   1.682   7.788  0.3750 -0.9823  2.0900
  516MOL0     H68053   9.461   1.793   7.859 -1.9561  0.7831  0.3248
  516MOL0     H68054   9.546   1.858   8.002  1.0009 -0.3732  0.2057
  516MOL0     H68055   9.522   1.565   7.912  2.5313  1.6811 -1.5215
  516MOL0     H68056   9.620   1.616   8.045  0.4496  3.1298 -0.0841
  516MOL0     H68057   9.315   1.653   8.017 -1.0348 -1.8771  0.4254
  516MOL0     H68058   9.407   1.734   8.142  1.5788  1.9758 -2.4364
  516MOL0     H68059   9.277   1.508   8.192  0.5731  0.4955 -0.0385
  516MOL0     H68060   9.419   1.530   8.273 -1.2551 -2.9663  1.3322
  516MOL0     H68061   9.386   1.349   8.031 -0.3653  2.9668 -0.1902
  516MOL0     H68062   9.544   1.381   8.097 -0.2128 -0.6016 -4.3106
  516MOL0     H68063   9.491   1.279   8.309  0.4473 -3.4887  0.8235
  516MOL0     H68064   9.433   1.163   8.191  0.2517 -0.8873  1.7145
  516MOL0     H68065   9.155   1.268   8.102 -2.0962 -0.3735 -0.8942
  516MOL0     H68066   8.879   1.410   8.238  0.3317 -0.6627 -2.6996
  516MOL0     H68067   8.844   1.284   8.347 -0.4436  1.9734 -0.2386
  516MOL0     H68068   8.896   1.111   8.175 -0.4875 -0.7674 -2.2133
  516MOL0     H68069   8.918   1.233   8.055 -0.6794 -1.7778 -0.2259
  516MOL0     H68070   8.652   1.214   8.207  0.2121  2.9546 -0.4088
  516MOL0     H68071   8.686   1.340   8.095  0.6935  1.0135  1.3267
  516MOL0     H68072   8.689   1.035   8.061 -0.8873 -0.9353 -0.5455
  516MOL0     H68073   8.723   1.147   7.915  0.0392  1.3651 -0.2221
  516MOL0     H68074   8.278   1.133   7.959  3.1270  0.8951  2.0891
  516MOL0     H68075   8.135   0.932   7.907  0.0580  0.1544  0.3950
  516MOL0     H68076   7.840   0.652   7.880 -0.4957  0.8136 -1.1572
  516MOL0     H68077   7.703   0.461   7.830 -0.0156  1.6570  1.1279
  516MOL0     H68078   7.839   0.188   7.887  1.3523 -1.0406  1.3674
  516MOL0     H68079   7.924   0.091   7.764  2.1581  1.2878 -0.5429
  516MOL0     H68080   7.620   0.069   7.812 -1.0105 -1.5652 -1.0559
  516MOL0     H68081   7.730  -0.033   7.891 -2.1293  0.0862 -0.0697
  516MOL0     H68082   7.699  -0.011   7.586  1.8569 -1.6678  0.7419
  516MOL0     H68083   7.601  -0.121   7.684 -0.2773 -0.6085 -1.6602
  516MOL0     H68084   7.820  -0.206   7.565 -0.3589 -1.9170  0.7526
  516MOL0     H68085   7.897  -0.106   7.683  0.8245  1.6606 -2.8475
  516MOL0     H68086   7.749  -0.370   7.707  2.5692 -3.2554  0.8265
  516MOL0     H68087   7.792  -0.268   7.855  1.1305  1.7200  0.3431
  516MOL0     H68088   8.017  -0.287   7.809 -0.5680  1.1856 -0.5212
  516MOL0     H68089   7.989  -0.354   7.647 -3.4233 -0.2681 -2.2352
  516MOL0     H68090   8.071  -0.539   7.817  0.8330  0.6193  0.5653
  516MOL0     H68091   7.935  -0.490   7.926 -4.0436  2.6713 -0.7078
  516MOL0     H68092   7.898  -0.605   7.647  3.9598  1.5918  0.5403
  516MOL0     H68093   7.776  -0.570   7.776  0.7816  2.1682 -0.8537
  516MOL0     H68094   8.038   0.280   7.626  0.0217  1.1904 -1.9067
  516MOL0     H68095   8.175   0.456   7.691 -1.0597 -0.4110 -2.9589
  516MOL0     H68096   8.494   0.698   7.861  0.0768  1.0648  0.3301
  516MOL0     H68097   8.630   0.892   7.899 -0.6885 -3.7377  1.2146
  516MOL0     H68098   9.670   2.122   7.617  0.2930 -0.2619  1.8659
  516MOL0     H68099   9.745   2.292   7.475 -0.8067  0.2373  1.6460
  516MOL0     H68100  10.343   2.469   7.237 -1.0806  4.4847  2.8489
  516MOL0     H68101  10.381   2.608   7.041  1.4552  0.0440  3.5522
  516MOL0     H68102  10.270   2.853   6.942  0.4172  0.3649 -0.9502
  516MOL0     H68103  10.103   2.837   6.934  0.6096  2.5255  0.4491
  516MOL0     H68104  10.222   2.982   6.753 -1.7860 -0.1571  0.6949
  516MOL0     H68105  10.274   2.829   6.695  1.2591  2.5634 -2.2007
  516MOL0     H68106   9.970   2.923   6.725 -1.5881  0.2541 -1.5868
  516MOL0     H68107  10.024   2.761   6.682  3.6365 -0.1837 -2.0841
  516MOL0     H68108  10.153   2.888   6.482  0.6329  2.1359 -0.3108
  516MOL0     H68109   9.979   2.851   6.471  2.4070 -0.8010 -1.1678
  516MOL0     H68110   9.941   3.252   6.454 -0.9147 -0.0514 -0.0335
  516MOL0     H68111   9.980   2.559   6.931 -1.4034  0.7711  1.3267
  516MOL0     H68112   9.937   2.398   7.101  1.9473 -3.0501 -3.2053
  517MOL0     O68113   0.082   3.324   5.947  0.2912  0.0149 -0.1720
  517MOL0     C68114   0.040   3.375   5.843  0.5963  0.3865 -0.3069
  517MOL0     O68115  -0.065   3.342   5.767  0.1779 -0.0969 -0.4738
  517MOL0     C68116  -0.129   3.220   5.780  0.1420  0.6453  0.6717
  517MOL0     C68117  -0.263   3.228   5.734 -0.6506 -0.3048  0.3119
  517MOL0     C68118  -0.343   3.110   5.730 -0.4377  0.7077  0.3897
  517MOL0     C68119  -0.298   2.992   5.787  1.0366 -0.5528  0.2587
  517MOL0     O68120  -0.377   2.879   5.809 -0.6451  0.2342  0.2678
  517MOL0     C68121  -0.408   2.804   5.687  1.2392 -1.2206  0.2774
  517MOL0     C68122  -0.563   2.791   5.663 -0.5462 -0.0150 -0.4543
  517MOL0     C68123  -0.636   2.915   5.621 -0.8415  0.4612  0.1049
  517MOL0     C68124  -0.783   2.857   5.595  0.5178 -0.2510 -0.4528
  517MOL0     C68125  -0.881   2.967   5.562 -0.1194  0.2727  0.7218
  517MOL0     C68126  -1.025   2.920   5.555  0.7982 -0.5588 -0.6720
  517MOL0     C68127  -1.106   3.039   5.506 -0.2427  0.9616 -0.2592
  517MOL0     C68128  -1.253   3.053   5.557 -0.6836 -0.8681 -0.7363
  517MOL0     N68129  -1.343   2.939   5.532 -0.7601  0.2558  0.2683
  517MOL0     C68130  -1.425   2.899   5.630  0.1740 -0.8897  0.0569
  517MOL0     C68131  -1.461   2.781   5.589  0.8540  0.6349  0.9337
  517MOL0     C68132  -1.554   2.687   5.656  0.2149 -0.0210  0.0170
  517MOL0     C68133  -1.480   2.590   5.741  0.2466  0.1708 -0.2589
  517MOL0     C68134  -1.430   2.644   5.877 -0.1911 -0.2674  0.0146
  517MOL0     C68135  -1.325   2.548   5.943 -1.3043  0.0758 -0.5668
  517MOL0     O68136  -1.289   2.627   6.059  0.7294 -0.4612 -0.2947
  517MOL0     C68137  -1.193   2.726   6.069  0.8179 -0.2416  0.8121
  517MOL0     C68138  -1.209   2.829   6.159 -0.6594  0.2084  0.1151
  517MOL0     C68139  -1.120   2.938   6.148 -0.0634  0.4401 -0.4077
  517MOL0     C68140  -1.016   2.942   6.053 -0.2519 -0.2577  0.0364
  517MOL0     C68141  -0.907   3.050   6.052 -0.2353  0.9218 -0.5566
  517MOL0     O68142  -0.812   3.051   5.950 -0.1081 -1.3771 -0.4365
  517MOL0     C68143  -0.720   3.154   5.942 -0.9501  0.3373  0.0066
  517MOL0     C68144  -0.617   3.177   6.036 -0.6704 -0.0464 -0.8393
  517MOL0     C68145  -0.527   3.282   6.005 -0.7611 -0.3622 -0.5517
  517MOL0     C68146  -0.547   3.373   5.909 -0.2833 -0.5069  0.2397
  517MOL0     O68147  -0.476   3.487   5.874  0.1642  0.7341 -0.0516
  517MOL0     C68148  -0.355   3.509   5.948 -0.2473  0.1616  0.3246
  517MOL0     C68149  -0.281   3.625   5.890  1.3173 -0.3661  0.4121
  517MOL0     C68150  -0.163   3.675   5.978  0.5758  0.8932 -0.2036
  517MOL0     C68151  -0.118   3.813   5.931 -0.0661 -0.9299  1.0993
  517MOL0     C68152  -0.207   3.924   5.980 -0.6369  0.1233 -0.5134
  517MOL0     C68153  -0.162   4.065   5.935  0.0473 -0.0921  0.4621
  517MOL0     C68154  -0.239   4.162   6.013 -0.0225  1.2472 -0.0265
  517MOL0     C68155  -0.161   4.299   6.035  0.4984 -0.1559 -0.0198
  517MOL0    Cl68156  -0.104   4.368   5.883 -0.7508 -0.1175 -0.3867
  517MOL0     C68157  -0.662   3.352   5.822 -0.2077 -0.0480 -1.4881
  517MOL0     C68158  -0.741   3.239   5.835  0.1560  0.1205  0.4462
  517MOL0     O68159  -0.921   3.131   6.140 -0.3814 -0.6131  0.4755
  517MOL0     C68160  -1.005   2.841   5.959 -0.0913  0.6311  0.0715
  517MOL0     C68161  -1.109   2.744   5.955 -0.8277  0.2582  0.3712
  517MOL0     N68162  -1.408   2.752   5.471 -0.3873  0.9073  0.6787
  517MOL0     N68163  -1.327   2.841   5.437 -0.0237  0.5405  0.7635
  517MOL0     C68164  -0.169   2.984   5.828 -0.7165  0.8457 -0.3018
  517MOL0     C68165  -0.083   3.090   5.813 -0.0509 -0.1011 -1.2287
  517MOL0     C68166   0.109   3.503   5.800  0.4054  0.0980 -0.1029
  517MOL0     C68167   0.222   3.550   5.874 -0.4389  0.3326 -0.7814
  517MOL0     C68168   0.289   3.664   5.838 -0.0294 -0.5481  0.2808
  517MOL0     C68169   0.236   3.746   5.740 -0.8377  0.8420  0.8241
  517MOL0     O68170   0.307   3.856   5.729  0.0226 -0.2719 -0.6799
  517MOL0     C68171   0.254   3.953   5.639 -0.2248 -0.5436  0.8866
  517MOL0     C68172   0.343   4.075   5.623 -0.8958 -1.2796 -0.3219
  517MOL0     C68173   0.282   4.195   5.555 -0.7678 -0.3779  0.1131
  517MOL0     C68174   0.306   4.212   5.401  0.3919  0.2081  1.0086
  517MOL0     C68175   0.235   4.326   5.347  0.3252 -0.1191 -1.1652
  517MOL0     C68176   0.196   4.427   5.290 -0.7514  0.2584  0.1961
  517MOL0     C68177   0.136   3.692   5.654  0.7192 -0.7090  0.3479
  517MOL0     C68178   0.061   3.577   5.689  0.1354  0.5809 -0.3786
  517MOL0     H68179  -0.310   3.318   5.696 -3.4410 -2.9872 -3.4680
  517MOL0     H68180  -0.441   3.113   5.683 -1.6798 -2.2458  2.4336
  517MOL0     H68181  -0.369   2.702   5.697  0.2881 -1.5188  1.0670
  517MOL0     H68182  -0.373   2.844   5.591 -0.3637 -0.6680 -0.1049
  517MOL0     H68183  -0.608   2.751   5.755  0.3967  3.5401  1.7516
  517MOL0     H68184  -0.579   2.717   5.584 -1.2099  0.9317 -1.2282
  517MOL0     H68185  -0.582   2.952   5.534  0.3039 -1.1654  0.0837
  517MOL0     H68186  -0.641   2.993   5.698 -1.7835 -0.4347  0.9779
  517MOL0     H68187  -0.793   2.779   5.518 -0.9724  2.0690 -2.7727
  517MOL0     H68188  -0.810   2.811   5.690 -1.6616  0.7808 -0.5131
  517MOL0     H68189  -0.860   3.023   5.471 -1.3601  0.9204  0.8080
  517MOL0     H68190  -0.870   3.045   5.637 -2.5855  2.6004 -1.1544
  517MOL0     H68191  -1.061   2.888   5.653 -3.6788 -1.2853 -2.2744
  517MOL0     H68192  -1.032   2.839   5.482 -0.3495  0.9512 -2.3701
  517MOL0     H68193  -1.053   3.133   5.524 -2.7012  2.2097  1.0374
  517MOL0     H68194  -1.093   3.032   5.398  1.9126 -2.1466  0.0726
  517MOL0     H68195  -1.298   3.147   5.524 -0.2186  0.8318  2.9206
  517MOL0     H68196  -1.248   3.072   5.665 -3.9938 -0.5388 -0.5274
  517MOL0     H68197  -1.448   2.950   5.723  0.0380  1.7262 -1.3265
  517MOL0     H68198  -1.608   2.622   5.587  0.4647  0.3677 -0.5609
  517MOL0     H68199  -1.633   2.730   5.718 -0.4173 -3.3394  1.6981
  517MOL0     H68200  -1.393   2.550   5.689  0.6376  2.6451 -1.6137
  517MOL0     H68201  -1.554   2.514   5.771  1.1924 -0.3606  0.8124
  517MOL0     H68202  -1.417   2.753   5.869  0.3877 -0.3720 -0.5385
  517MOL0     H68203  -1.509   2.645   5.953 -0.7185  3.6258 -0.3689
  517MOL0     H68204  -1.251   2.517   5.869 -2.5335  1.5522 -2.5374
  517MOL0     H68205  -1.377   2.461   5.985  1.3086 -1.4281 -0.2513
  517MOL0     H68206  -1.288   2.835   6.233 -1.7520 -0.9808 -0.9096
  517MOL0     H68207  -1.123   3.021   6.217 -0.0690 -0.7259  1.0423
  517MOL0     H68208  -0.583   3.102   6.106 -2.0511  0.2094  0.1363
  517MOL0     H68209  -0.436   3.280   6.065 -2.3650  2.0860  2.2110
  517MOL0     H68210  -0.289   3.422   5.950  1.0132  0.9865 -1.8397
  517MOL0     H68211  -0.390   3.533   6.049 -1.6629 -0.0547 -0.1069
  517MOL0     H68212  -0.351   3.700   5.852  0.5024 -1.0848  0.4619
  517MOL0     H68213  -0.236   3.591   5.796  0.1910  0.9328 -0.6417
  517MOL0     H68214  -0.086   3.598   5.985 -0.8473 -0.7172 -1.4919
  517MOL0     H68215  -0.203   3.674   6.080 -0.6858 -0.6550 -0.6810
  517MOL0     H68216  -0.013   3.842   5.936 -0.1240  1.5446 -4.4848
  517MOL0     H68217  -0.131   3.807   5.822 -1.5940 -0.4190  1.2240
  517MOL0     H68218  -0.206   3.921   6.089 -0.3011 -1.3838 -0.5399
  517MOL0     H68219  -0.312   3.913   5.954 -0.2393 -2.2361 -1.4157
  517MOL0     H68220  -0.173   4.068   5.826  3.3513 -0.6567  0.0153
  517MOL0     H68221  -0.054   4.074   5.953 -0.1148 -1.5852  2.5633
  517MOL0     H68222  -0.323   4.172   5.943 -1.3857 -3.0871  0.7363
  517MOL0     H68223  -0.271   4.121   6.109  0.9572 -3.7312 -1.5511
  517MOL0     H68224  -0.069   4.288   6.094 -0.3326 -1.2261  1.1310
  517MOL0     H68225  -0.228   4.360   6.096  0.3759 -1.4001  1.1099
  517MOL0     H68226  -0.688   3.422   5.743 -1.3277 -0.5457 -1.5835
  517MOL0     H68227  -0.815   3.216   5.758  0.1705  1.5847 -0.0397
  517MOL0     H68228  -0.928   2.833   5.884 -0.9539  0.2938 -0.7958
  517MOL0     H68229  -1.109   2.684   5.864 -3.7994 -0.0265  0.4848
  517MOL0     H68230  -0.125   2.891   5.862 -1.1851  1.1301  1.1579
  517MOL0     H68231   0.024   3.090   5.833  0.0337  0.8301 -1.6421
  517MOL0     H68232   0.258   3.500   5.963 -1.9253 -1.6857 -1.2439
  517MOL0     H68233   0.361   3.690   5.915  0.1530 -0.5953  0.1295
  517MOL0     H68234   0.153   3.991   5.656  0.3209  0.5984  1.7301
  517MOL0     H68235   0.266   3.917   5.536  1.2332  0.5522  0.6366
  517MOL0     H68236   0.355   4.114   5.724  1.2944 -0.0439 -0.9947
  517MOL0     H68237   0.441   4.036   5.593 -1.3073 -5.5972  2.9483
  517MOL0     H68238   0.330   4.287   5.589 -0.1637  0.0024 -1.6208
  517MOL0     H68239   0.175   4.201   5.572 -0.9004 -1.1972 -0.3596
  517MOL0     H68240   0.407   4.232   5.365 -0.2854 -0.4423 -1.3707
  517MOL0     H68241   0.282   4.114   5.359  3.5306  1.2593 -4.1446
  517MOL0     H68242   0.190   4.518   5.234 -0.2305 -0.2355 -0.6850
  517MOL0     H68243   0.100   3.750   5.571  1.8145  0.3927  0.6086
  517MOL0     H68244  -0.031   3.555   5.636  0.9622  3.8597 -3.5858
  518MOL0     O68245   7.398   5.317   4.131 -1.3738 -0.6156 -0.4327
  518MOL0     C68246   7.405   5.326   4.256 -0.2398  0.3724  0.2091
  518MOL0     O68247   7.455   5.435   4.321 -0.5869 -0.0276  0.3840
  518MOL0     C68248   7.460   5.550   4.244 -0.7970 -0.3166 -0.5878
  518MOL0     C68249   7.581   5.597   4.191  0.3918 -0.8215  0.0814
  518MOL0     C68250   7.595   5.727   4.129  0.0623  0.1548 -0.0879
  518MOL0     C68251   7.484   5.811   4.113  0.2108 -0.4931 -0.0200
  518MOL0     O68252   7.511   5.935   4.072 -0.4154 -0.8878  0.2213
  518MOL0     C68253   7.420   6.041   4.105 -0.3662  0.6628  0.7837
  518MOL0     C68254   7.499   6.168   4.143 -0.2694  0.1311  0.8043
  518MOL0     C68255   7.393   6.273   4.161 -0.4094 -0.5413 -1.5319
  518MOL0     C68256   7.452   6.411   4.205  0.0624 -0.0625 -1.3336
  518MOL0     C68257   7.357   6.528   4.177  0.3672  0.4073  0.2436
  518MOL0     C68258   7.412   6.657   4.211 -0.6011  0.5916 -0.3814
  518MOL0     C68259   7.311   6.766   4.206  0.8069 -1.3894 -0.8509
  518MOL0     C68260   7.374   6.903   4.241  0.9212 -0.3676 -0.4564
  518MOL0     N68261   7.265   7.003   4.244 -0.6607 -0.4521  0.0432
  518MOL0     C68262   7.220   7.060   4.128  0.5244  0.7125  0.9185
  518MOL0     C68263   7.158   7.168   4.170 -0.2842  0.2694  0.0885
  518MOL0     C68264   7.092   7.273   4.094  0.5648 -0.5748 -0.4594
  518MOL0     C68265   7.189   7.335   3.993 -0.6860  0.8734  0.0417
  518MOL0     C68266   7.121   7.384   3.864  0.2478 -0.2759  0.5750
  518MOL0     C68267   7.096   7.273   3.763  0.5707  0.4090  0.0001
  518MOL0     O68268   7.037   7.329   3.650 -0.9840  0.6012  0.3905
  518MOL0     C68269   7.064   7.271   3.531 -0.8853  0.2075 -1.2718
  518MOL0     C68270   6.978   7.183   3.463  0.1079 -0.8187 -1.0828
  518MOL0     C68271   7.002   7.142   3.335 -0.1658  0.0557 -0.1790
  518MOL0     C68272   7.110   7.198   3.270 -0.7594 -0.3417 -0.6044
  518MOL0     C68273   7.146   7.162   3.128  0.3014 -0.3325  0.0230
  518MOL0     O68274   7.065   7.067   3.076 -0.0361 -0.1700 -0.1469
  518MOL0     C68275   7.095   7.022   2.955  0.3234  0.2766 -0.9262
  518MOL0     C68276   6.997   7.024   2.857 -0.1412  0.4896 -0.8859
  518MOL0     C68277   7.021   6.963   2.730  0.1177 -0.0567 -0.1946
  518MOL0     C68278   7.144   6.902   2.715 -0.0287  0.1640 -0.5473
  518MOL0     O68279   7.195   6.864   2.600 -0.8183  0.4257 -0.7588
  518MOL0     C68280   7.129   6.883   2.472 -0.3320 -0.5809  0.3108
  518MOL0     C68281   7.226   6.826   2.371 -0.5343  0.2827 -0.3169
  518MOL0     C68282   7.231   6.678   2.362  0.2842 -0.4873 -0.3259
  518MOL0     C68283   7.281   6.621   2.492 -0.4328 -0.3303  0.2097
  518MOL0     C68284   7.323   6.475   2.457 -0.2142  0.8307  0.4016
  518MOL0     C68285   7.347   6.389   2.584 -0.0944 -0.8553  0.1601
  518MOL0     C68286   7.477   6.426   2.661 -0.0275 -0.3453 -0.3468
  518MOL0     C68287   7.505   6.335   2.784 -0.2452  0.0042 -0.6927
  518MOL0    Cl68288   7.368   6.356   2.885 -0.0501  0.1036 -0.0736
  518MOL0     C68289   7.225   6.877   2.824  0.2523 -0.5426  1.9611
  518MOL0     C68290   7.206   6.944   2.944  0.4959  0.6725 -0.5490
  518MOL0     O68291   7.250   7.203   3.073 -0.1511  0.6175  0.9496
  518MOL0     C68292   7.204   7.277   3.330 -0.0841  0.1932  0.6080
  518MOL0     C68293   7.185   7.308   3.466 -0.7012  0.9806 -1.0946
  518MOL0     N68294   7.159   7.178   4.306  0.5591 -0.5763  0.3502
  518MOL0     N68295   7.225   7.077   4.351  0.2719 -0.3705  0.7444
  518MOL0     C68296   7.360   5.758   4.149  0.0559 -0.9721 -0.6043
  518MOL0     C68297   7.349   5.626   4.210  0.3691 -0.2551 -0.8201
  518MOL0     C68298   7.369   5.208   4.338  0.3047 -0.6436  0.8110
  518MOL0     C68299   7.330   5.092   4.278  0.8693  0.6170  0.4945
  518MOL0     C68300   7.288   4.986   4.357  0.4906 -0.3199  0.2622
  518MOL0     C68301   7.285   4.993   4.496 -0.4615 -0.9401 -0.5110
  518MOL0     O68302   7.233   4.893   4.568 -0.0143 -0.3352 -0.3125
  518MOL0     C68303   7.330   4.796   4.608 -0.1532 -0.0907 -0.3745
  518MOL0     C68304   7.271   4.659   4.589 -0.8085 -0.0322  0.3074
  518MOL0     C68305   7.169   4.621   4.699 -0.0003  0.3734 -0.5479
  518MOL0     C68306   7.105   4.486   4.685  0.7800  0.4842  0.8036
  518MOL0     C68307   7.028   4.456   4.814 -0.8874 -0.1222  0.3787
  518MOL0     C68308   6.966   4.407   4.909  0.4079  1.0445  0.1960
  518MOL0     C68309   7.326   5.109   4.557 -0.4906 -1.0962  0.6095
  518MOL0     C68310   7.363   5.216   4.480 -0.6915  0.8695  0.9752
  518MOL0     H68311   7.664   5.531   4.216  2.1454  1.0895 -0.3482
  518MOL0     H68312   7.699   5.756   4.114  0.9301 -1.7985  1.5832
  518MOL0     H68313   7.357   6.010   4.189 -2.7361 -1.0571 -1.4529
  518MOL0     H68314   7.357   6.063   4.018  0.3681  0.7237  0.2628
  518MOL0     H68315   7.569   6.189   4.062 -0.0918 -3.1024 -0.0052
  518MOL0     H68316   7.554   6.161   4.237 -2.4927  0.5913  2.2365
  518MOL0     H68317   7.321   6.242   4.237  0.7337 -1.0378 -0.6048
  518MOL0     H68318   7.343   6.278   4.064 -2.2189 -1.9128 -0.7184
  518MOL0     H68319   7.482   6.408   4.311  1.1258  3.0222 -1.4527
  518MOL0     H68320   7.539   6.420   4.140  0.0659  0.4546 -1.2617
  518MOL0     H68321   7.265   6.517   4.235 -2.3543  3.8493 -2.8940
  518MOL0     H68322   7.321   6.523   4.073  2.1096  0.8880 -0.4075
  518MOL0     H68323   7.497   6.686   4.148 -1.4438  2.1059 -0.8617
  518MOL0     H68324   7.447   6.649   4.314  2.8935  0.9075 -1.4156
  518MOL0     H68325   7.239   6.769   4.123 -1.8433  1.9198  1.2729
  518MOL0     H68326   7.237   6.756   4.287  3.2840  2.4333  2.2910
  518MOL0     H68327   7.450   6.931   4.167  0.6173  3.3508  0.4787
  518MOL0     H68328   7.415   6.892   4.342  4.3638  0.4362 -1.6119
  518MOL0     H68329   7.224   7.026   4.025 -2.2889  3.2754 -0.1876
  518MOL0     H68330   7.058   7.353   4.161 -2.8655 -0.3816 -2.2156
  518MOL0     H68331   6.993   7.256   4.051 -1.3005  3.1569  1.8176
  518MOL0     H68332   7.273   7.266   3.982 -1.8662 -0.6694  0.3399
  518MOL0     H68333   7.220   7.421   4.052  0.8460 -0.0647  0.6628
  518MOL0     H68334   7.033   7.447   3.881 -0.7363 -1.1437 -1.0834
  518MOL0     H68335   7.198   7.441   3.811 -0.0247 -0.3622  0.0836
  518MOL0     H68336   7.024   7.200   3.801 -0.5599  1.5088  0.0134
  518MOL0     H68337   7.186   7.220   3.730  0.4505 -1.1702  1.9955
  518MOL0     H68338   6.889   7.150   3.516 -0.2482  1.7040  0.0745
  518MOL0     H68339   6.933   7.079   3.280  1.6263 -0.5769 -1.8383
  518MOL0     H68340   6.905   7.081   2.860 -0.5439 -0.0949 -1.8015
  518MOL0     H68341   6.950   6.970   2.649 -1.9127  1.7154  1.6269
  518MOL0     H68342   7.117   6.990   2.457  0.6901 -0.3583  1.0198
  518MOL0     H68343   7.026   6.846   2.474 -1.0764  1.4131  2.2777
  518MOL0     H68344   7.326   6.868   2.381  0.2404 -1.7029  0.8323
  518MOL0     H68345   7.176   6.851   2.277 -3.0661 -1.0371  0.5749
  518MOL0     H68346   7.302   6.654   2.282  0.1735  0.5825 -0.7657
  518MOL0     H68347   7.132   6.648   2.328 -1.8704  1.5962  3.4448
  518MOL0     H68348   7.364   6.665   2.548  0.8475 -3.1422  0.7055
  518MOL0     H68349   7.200   6.626   2.565  0.1258  1.5472  0.7769
  518MOL0     H68350   7.415   6.472   2.398 -0.5155 -1.1124 -0.0252
  518MOL0     H68351   7.246   6.424   2.397 -0.3249  0.6462  0.6962
  518MOL0     H68352   7.371   6.286   2.555  0.1939 -1.6152  2.8037
  518MOL0     H68353   7.264   6.389   2.656 -0.5746  2.4923 -0.2606
  518MOL0     H68354   7.564   6.415   2.595 -0.0130 -1.3420 -0.1852
  518MOL0     H68355   7.473   6.529   2.698  0.0149 -0.6411  0.5097
  518MOL0     H68356   7.592   6.387   2.826 -0.0115  1.3202 -2.6759
  518MOL0     H68357   7.533   6.231   2.767 -0.4963 -0.2886  0.5974
  518MOL0     H68358   7.310   6.810   2.809 -0.6187 -2.0296  3.3096
  518MOL0     H68359   7.267   6.934   3.033 -0.4280 -2.5842 -0.1492
  518MOL0     H68360   7.294   7.300   3.273  0.7431 -2.9782  0.4264
  518MOL0     H68361   7.252   7.378   3.515  1.8678 -1.5459 -0.7429
  518MOL0     H68362   7.272   5.822   4.152  0.1166 -0.8684  2.7758
  518MOL0     H68363   7.249   5.589   4.233  0.6388 -0.1201  0.6467
  518MOL0     H68364   7.342   5.070   4.173 -0.4932  1.8386  0.0437
  518MOL0     H68365   7.271   4.897   4.296  0.0748 -1.0409  1.3867
  518MOL0     H68366   7.360   4.805   4.713 -0.6504  0.0440 -0.2401
  518MOL0     H68367   7.413   4.805   4.537 -1.8136 -0.4666 -2.4859
  518MOL0     H68368   7.213   4.652   4.497  0.5391 -1.3059 -0.4810
  518MOL0     H68369   7.353   4.588   4.577  0.5771  1.8720 -2.9113
  518MOL0     H68370   7.087   4.691   4.714 -2.2811 -2.3941  0.8916
  518MOL0     H68371   7.216   4.626   4.798 -1.6812 -1.5171  0.4292
  518MOL0     H68372   7.036   4.483   4.601  0.2726  1.8164  1.1408
  518MOL0     H68373   7.179   4.409   4.662  0.6925  1.2052 -2.2473
  518MOL0     H68374   6.911   4.362   4.990  1.6406  0.3624  0.6795
  518MOL0     H68375   7.338   5.121   4.664 -2.5869 -0.6817  0.8429
  518MOL0     H68376   7.397   5.306   4.531 -3.8478  3.4260 -1.0542
  519MOL0     O68377   8.704   4.619   9.535 -0.0785 -0.0392 -0.1102
  519MOL0     C68378   8.689   4.668   9.646 -0.6506 -0.2803 -0.1340
  519MOL0     O68379   8.627   4.605   9.749 -0.1771 -0.8684 -0.1863
  519MOL0     C68380   8.586   4.477   9.741 -0.7100  0.1850 -0.6606
  519MOL0     C68381   8.493   4.424   9.659 -0.2350 -0.1249 -0.0734
  519MOL0     C68382   8.456   4.291   9.655  0.8646  0.5990 -0.1029
  519MOL0     C68383   8.511   4.203   9.751 -0.0365 -0.0426  0.6119
  519MOL0     O68384   8.479   4.068   9.753  0.1879  0.0045 -0.4310
  519MOL0     C68385   8.474   3.999   9.626 -0.5559 -0.9564 -0.6441
  519MOL0     C68386   8.333   3.981   9.579 -0.2414  0.1420  0.5278
  519MOL0     C68387   8.240   3.878   9.655 -0.2896  0.6886 -0.4138
  519MOL0     C68388   8.102   3.876   9.588  0.0835  0.2757 -0.1492
  519MOL0     C68389   8.009   3.770   9.648 -0.2776 -0.2774  0.2475
  519MOL0     C68390   7.872   3.764   9.569 -0.3481  0.4370  0.3804
  519MOL0     C68391   7.827   3.907   9.531 -0.8649  0.3426 -0.5622
  519MOL0     C68392   7.679   3.905   9.492  0.5627  0.4673 -0.0641
  519MOL0     N68393   7.616   4.031   9.451 -0.2823  0.1776 -0.4582
  519MOL0     C68394   7.613   4.140   9.535  0.8998  0.0175  0.0847
  519MOL0     C68395   7.534   4.230   9.469  0.5903  0.2174 -0.2422
  519MOL0     C68396   7.523   4.368   9.497  0.4097  0.3231  0.2179
  519MOL0     C68397   7.587   4.458   9.396  0.7575 -0.9890  0.0893
  519MOL0     C68398   7.596   4.606   9.430  0.0446  0.4186 -0.0322
  519MOL0     C68399   7.458   4.676   9.450 -0.0475  0.0872  1.4672
  519MOL0     O68400   7.479   4.813   9.479 -0.5984 -0.5784  0.0787
  519MOL0     C68401   7.372   4.903   9.483  0.0879  0.3915  0.9496
  519MOL0     C68402   7.235   4.864   9.487  0.6058 -0.3492 -0.9632
  519MOL0     C68403   7.128   4.958   9.480 -0.3745 -0.6665  0.3216
  519MOL0     C68404   7.159   5.092   9.455 -0.1909 -0.4370 -0.0103
  519MOL0     C68405   7.056   5.195   9.446 -0.0144 -0.4818  0.0355
  519MOL0     O68406   7.066   5.297   9.357  0.2487 -0.3933 -0.0012
  519MOL0     C68407   7.001   5.410   9.381  0.3624 -0.3682 -0.9850
  519MOL0     C68408   6.928   5.461   9.270 -0.3635 -0.4539 -0.1490
  519MOL0     C68409   6.861   5.591   9.281  0.4303 -0.4346 -0.2759
  519MOL0     C68410   6.882   5.667   9.406  0.1913  0.0959  0.0746
  519MOL0     O68411   6.842   5.796   9.423 -0.4575  0.4710  0.0790
  519MOL0     C68412   6.890   5.880   9.310  0.5332  0.5236 -0.6142
  519MOL0     C68413   6.864   6.034   9.335  0.3973  1.2611  0.3559
  519MOL0     C68414   6.900   6.114   9.213 -0.1617 -0.1969  0.8938
  519MOL0     C68415   6.829   6.259   9.234  0.6058  0.8642  1.6295
  519MOL0     C68416   6.855   6.364   9.119  0.3606  0.4354  0.1677
  519MOL0     C68417   6.766   6.490   9.143  0.3978 -0.5704  0.2167
  519MOL0     C68418   6.802   6.579   9.263 -1.1729 -0.9052  0.3499
  519MOL0     C68419   6.723   6.712   9.265  0.4365  0.0158  0.3137
  519MOL0    Cl68420   6.836   6.847   9.204  0.3433  0.1735 -0.0167
  519MOL0     C68421   6.960   5.611   9.504  0.2428 -0.2076  0.4673
  519MOL0     C68422   7.012   5.485   9.503  0.9701  0.0245  0.5851
  519MOL0     O68423   6.972   5.194   9.538 -0.3658  0.0279 -0.2788
  519MOL0     C68424   7.298   5.140   9.458  0.3047  0.0687 -0.3962
  519MOL0     C68425   7.405   5.040   9.469 -0.6025 -0.6661 -0.1315
  519MOL0     N68426   7.495   4.163   9.349  0.2921  0.4970  0.1341
  519MOL0     N68427   7.549   4.049   9.334  0.2608  0.1742 -0.0803
  519MOL0     C68428   8.609   4.259   9.832  0.3345  0.9603 -1.0752
  519MOL0     C68429   8.646   4.388   9.830 -0.2187 -0.3202 -0.4943
  519MOL0     C68430   8.743   4.808   9.646 -0.3059 -0.3306 -1.1047
  519MOL0     C68431   8.738   4.880   9.762 -0.4522  0.0720  0.0760
  519MOL0     C68432   8.773   5.013   9.769  0.3033  0.1756  0.4508
  519MOL0     C68433   8.810   5.083   9.647  0.6919  0.5849  0.6534
  519MOL0     O68434   8.839   5.218   9.621  0.7271 -0.4897 -0.4218
  519MOL0     C68435   8.762   5.309   9.701  0.2836 -0.4520 -0.5013
  519MOL0     C68436   8.800   5.449   9.657 -0.5474 -0.6005 -0.1963
  519MOL0     C68437   8.922   5.494   9.739  0.5151  0.0277 -0.7321
  519MOL0     C68438   8.984   5.622   9.675  0.9316  0.3335  0.0173
  519MOL0     C68439   9.127   5.615   9.688 -0.0663  0.2064 -0.0653
  519MOL0     C68440   9.252   5.599   9.706  0.1290  0.3449  0.4220
  519MOL0     C68441   8.841   5.001   9.532  0.1141  1.1047 -0.0357
  519MOL0     C68442   8.808   4.868   9.536 -0.4529  0.0899 -0.3868
  519MOL0     H68443   8.449   4.494   9.588  2.6407  0.3902 -1.4995
  519MOL0     H68444   8.374   4.254   9.595  1.1111  2.3766 -1.6075
  519MOL0     H68445   8.531   3.906   9.629  0.2789 -0.4539 -0.3738
  519MOL0     H68446   8.524   4.050   9.542 -0.7060 -2.6573 -1.8116
  519MOL0     H68447   8.342   3.951   9.474  2.2834  0.2195  0.6498
  519MOL0     H68448   8.286   4.080   9.573 -0.3880 -0.0207 -1.8896
  519MOL0     H68449   8.228   3.881   9.764  2.1596 -1.7541  0.0378
  519MOL0     H68450   8.287   3.781   9.636  2.6893  2.0680 -0.5897
  519MOL0     H68451   8.069   3.979   9.608  2.7862  0.9811  1.0414
  519MOL0     H68452   8.104   3.858   9.480 -0.7109 -0.2125 -0.0963
  519MOL0     H68453   7.976   3.813   9.743  1.1416  2.2386 -0.3001
  519MOL0     H68454   8.070   3.680   9.643  2.4339  1.5097 -1.8729
  519MOL0     H68455   7.798   3.714   9.631  0.8775  0.7223  2.1578
  519MOL0     H68456   7.880   3.709   9.475 -0.6005  2.4325 -0.8705
  519MOL0     H68457   7.825   3.966   9.624 -2.3544 -2.3763  1.2743
  519MOL0     H68458   7.891   3.942   9.450 -1.2726  1.1577 -0.5527
  519MOL0     H68459   7.619   3.866   9.575 -0.9338  2.0569 -0.3411
  519MOL0     H68460   7.683   3.837   9.406  1.8545  1.3431 -0.7233
  519MOL0     H68461   7.658   4.166   9.631  1.0927  0.9846 -0.2571
  519MOL0     H68462   7.575   4.382   9.592 -0.1582  2.0288  0.3154
  519MOL0     H68463   7.419   4.399   9.511 -1.7275 -5.3857 -0.2127
  519MOL0     H68464   7.526   4.446   9.306  0.8845 -0.0367 -0.1343
  519MOL0     H68465   7.682   4.410   9.369 -0.5150 -3.9662  0.5354
  519MOL0     H68466   7.645   4.622   9.526 -1.7297 -1.4988  1.2836
  519MOL0     H68467   7.638   4.661   9.345  0.4354 -1.4683 -1.1178
  519MOL0     H68468   7.395   4.622   9.521 -0.7769  0.3675  1.0448
  519MOL0     H68469   7.404   4.684   9.355  1.9171  0.5841  0.3430
  519MOL0     H68470   7.189   4.766   9.497 -0.7353  0.2321 -1.2833
  519MOL0     H68471   7.024   4.929   9.491 -0.2039 -0.9238  1.3741
  519MOL0     H68472   6.920   5.402   9.179  0.2591  1.9764 -1.8827
  519MOL0     H68473   6.809   5.640   9.199  1.4754  2.7921  0.8444
  519MOL0     H68474   6.857   5.853   9.209  4.0685  1.7910 -2.2677
  519MOL0     H68475   6.997   5.862   9.297  0.2886 -2.1180  0.2802
  519MOL0     H68476   6.912   6.061   9.430  1.1038 -4.0134  1.8219
  519MOL0     H68477   6.757   6.044   9.356 -0.1523 -0.0373 -1.5549
  519MOL0     H68478   6.871   6.058   9.124 -0.3419 -0.2615  0.9925
  519MOL0     H68479   7.009   6.117   9.221 -0.2032 -1.8236  6.1952
  519MOL0     H68480   6.722   6.238   9.241  0.6932  0.0740  0.7889
  519MOL0     H68481   6.859   6.305   9.328 -0.9250  1.7951  1.6799
  519MOL0     H68482   6.827   6.326   9.020  0.7262 -0.2703  0.3289
  519MOL0     H68483   6.959   6.394   9.108 -0.0759  1.0482 -3.9818
  519MOL0     H68484   6.657   6.483   9.152  0.0956  3.4005  1.5757
  519MOL0     H68485   6.777   6.546   9.050 -1.1965 -1.1723 -0.3839
  519MOL0     H68486   6.781   6.521   9.353 -0.1155  0.3079  1.4331
  519MOL0     H68487   6.908   6.607   9.260 -2.1453  3.2456 -0.8468
  519MOL0     H68488   6.694   6.730   9.369 -1.1477  0.9057 -0.2419
  519MOL0     H68489   6.634   6.721   9.202  1.0573  0.4687 -0.5129
  519MOL0     H68490   6.972   5.667   9.596  0.6486  1.0905 -0.3650
  519MOL0     H68491   7.083   5.445   9.575  3.3046 -1.4584 -2.3203
  519MOL0     H68492   7.331   5.243   9.457  2.4219 -0.4780  1.6919
  519MOL0     H68493   7.511   5.063   9.471 -0.5455 -0.9838  0.6525
  519MOL0     H68494   8.641   4.192   9.911 -2.2508 -0.7792 -1.3891
  519MOL0     H68495   8.733   4.415   9.887 -0.1771 -3.4300  1.1043
  519MOL0     H68496   8.716   4.835   9.858  1.0609  1.3418  1.0588
  519MOL0     H68497   8.768   5.070   9.861  1.4282  0.2373  0.4884
  519MOL0     H68498   8.774   5.290   9.808 -3.6021  0.3598  0.2289
  519MOL0     H68499   8.658   5.288   9.676 -0.0767  0.9680 -0.2899
  519MOL0     H68500   8.812   5.456   9.549  0.8291  2.1606  0.0545
  519MOL0     H68501   8.718   5.519   9.676 -1.6175 -2.3594  2.2881
  519MOL0     H68502   8.991   5.409   9.751  2.1023  0.9224 -2.8832
  519MOL0     H68503   8.889   5.514   9.841 -1.6657 -1.5179 -1.0610
  519MOL0     H68504   8.972   5.616   9.566 -1.7947  2.2039  0.1043
  519MOL0     H68505   8.937   5.719   9.693  2.4428  1.7943 -3.0457
  519MOL0     H68506   9.358   5.598   9.721 -0.0474  0.9656  1.9166
  519MOL0     H68507   8.891   5.042   9.445  0.2064  1.9037  0.3806
  519MOL0     H68508   8.824   4.813   9.444  4.4237  1.5047 -0.6628
  520MOL0     O68509   3.269   1.396   5.556 -0.2298 -0.4168 -0.1101
  520MOL0     C68510   3.273   1.298   5.481  0.5178  0.0622  0.1992
  520MOL0     O68511   3.288   1.293   5.347 -0.0343  0.7528 -0.1221
  520MOL0     C68512   3.347   1.398   5.273 -0.4444 -0.4774 -1.1808
  520MOL0     C68513   3.415   1.502   5.329 -0.3735 -0.1564  0.1794
  520MOL0     C68514   3.482   1.586   5.253 -0.1052 -0.2115 -0.7733
  520MOL0     C68515   3.490   1.556   5.117  0.3212  0.4152 -1.1086
  520MOL0     O68516   3.577   1.629   5.047  0.0911 -0.1052  0.1253
  520MOL0     C68517   3.717   1.617   5.078 -0.1428  1.1062 -0.5228
  520MOL0     C68518   3.803   1.671   4.974  0.1845  0.7103  0.5984
  520MOL0     C68519   3.887   1.561   4.911 -0.4082  0.9678  0.9217
  520MOL0     C68520   3.972   1.615   4.796  0.1967  0.0512  0.2214
  520MOL0     C68521   4.035   1.493   4.728 -0.3380  0.4740  0.0473
  520MOL0     C68522   4.102   1.527   4.593 -0.4328  0.0264 -0.0520
  520MOL0     C68523   4.186   1.397   4.543 -0.0692  0.2985  0.7194
  520MOL0     C68524   4.082   1.305   4.460  0.3478 -0.3360 -0.0927
  520MOL0     N68525   4.042   1.187   4.546 -1.3317 -0.3375 -0.2962
  520MOL0     C68526   3.912   1.172   4.567 -0.2717  0.1993  0.5913
  520MOL0     C68527   3.895   1.053   4.618  0.4498  0.5065  0.6839
  520MOL0     C68528   3.768   0.986   4.648 -0.1299 -0.4661  1.1172
  520MOL0     C68529   3.788   0.831   4.642  0.9672  0.8046  0.6006
  520MOL0     C68530   3.806   0.771   4.497  0.1192 -0.7160 -0.6420
  520MOL0     C68531   3.704   0.657   4.477  0.7383  0.1827  0.4533
  520MOL0     O68532   3.573   0.698   4.438  0.2876 -0.1238 -0.6624
  520MOL0     C68533   3.465   0.649   4.503 -0.0874  0.2427 -0.0703
  520MOL0     C68534   3.343   0.713   4.484  0.5934 -0.3867  0.0995
  520MOL0     C68535   3.227   0.663   4.552 -0.2049 -1.8339  0.3267
  520MOL0     C68536   3.235   0.559   4.643 -2.0786  0.1294 -0.3473
  520MOL0     C68537   3.109   0.517   4.707  0.7823 -0.6818  0.5736
  520MOL0     O68538   3.008   0.612   4.685 -0.0560  0.0337 -1.0677
  520MOL0     C68539   2.885   0.606   4.749 -0.1085 -0.5366 -0.4836
  520MOL0     C68540   2.861   0.536   4.877  0.9382  0.5485 -0.7516
  520MOL0     C68541   2.734   0.536   4.932  0.0874  0.2123 -0.4890
  520MOL0     C68542   2.626   0.616   4.883  0.2384  0.0326 -0.1366
  520MOL0     O68543   2.503   0.598   4.937 -0.7407  0.3259 -0.6992
  520MOL0     C68544   2.385   0.615   4.863 -0.1420  0.2577  1.3469
  520MOL0     C68545   2.266   0.539   4.917 -0.2388 -0.5181  0.0413
  520MOL0     C68546   2.137   0.590   4.871 -0.1520 -0.1458  0.5074
  520MOL0     C68547   2.026   0.506   4.939  0.5941  0.5037  0.7568
  520MOL0     C68548   1.893   0.534   4.887  0.0661 -0.6205  0.0412
  520MOL0     C68549   1.862   0.464   4.755  0.1929 -0.3058  0.8659
  520MOL0     C68550   1.724   0.505   4.713  0.3079  0.3572 -0.1330
  520MOL0     C68551   1.679   0.407   4.613 -0.6631  0.5970 -0.1573
  520MOL0    Cl68552   1.770   0.415   4.454 -0.2420  0.8632 -0.0032
  520MOL0     C68553   2.653   0.685   4.761  0.0726  0.8910 -0.5411
  520MOL0     C68554   2.780   0.685   4.700  0.0882 -0.6603 -0.0637
  520MOL0     O68555   3.105   0.410   4.773 -0.0302  0.5099  0.9291
  520MOL0     C68556   3.356   0.492   4.659 -0.0345  0.1790  0.1504
  520MOL0     C68557   3.469   0.528   4.585 -0.4931 -0.3323 -0.4179
  520MOL0     N68558   4.020   0.999   4.643 -1.0620  0.0596 -0.4073
  520MOL0     N68559   4.112   1.086   4.601  1.3074 -0.3588  0.2665
  520MOL0     C68560   3.416   1.456   5.056 -0.5529 -0.3116  0.7503
  520MOL0     C68561   3.336   1.379   5.138 -1.1850 -0.1694 -0.7165
  520MOL0     C68562   3.242   1.172   5.545  0.2889 -0.3142 -1.0023
  520MOL0     C68563   3.257   1.052   5.473 -0.5379 -1.3960  0.9791
  520MOL0     C68564   3.232   0.930   5.520  0.0802  0.6973 -0.2305
  520MOL0     C68565   3.183   0.910   5.649  0.2249  0.3847 -0.2170
  520MOL0     O68566   3.145   0.779   5.675 -0.5099 -0.0091 -0.7172
  520MOL0     C68567   3.079   0.745   5.798 -0.0711 -1.1700  0.7116
  520MOL0     C68568   3.123   0.605   5.824  0.8415 -0.5088  0.0894
  520MOL0     C68569   3.063   0.527   5.941 -0.6438 -0.3355  1.1592
  520MOL0     C68570   3.132   0.388   5.943 -0.6272  0.3074 -0.3933
  520MOL0     C68571   3.045   0.270   5.978  0.1068 -0.3207 -0.1694
  520MOL0     C68572   2.948   0.203   5.986 -0.7858  0.9666  0.1030
  520MOL0     C68573   3.166   1.025   5.730 -0.0720  0.5427  0.1431
  520MOL0     C68574   3.202   1.149   5.677  0.1883  0.0525  0.1051
  520MOL0     H68575   3.407   1.534   5.432  2.0932 -1.1357  0.7378
  520MOL0     H68576   3.519   1.677   5.298  0.9325 -0.5143 -0.9777
  520MOL0     H68577   3.726   1.511   5.104 -1.9328  1.5397  2.4382
  520MOL0     H68578   3.732   1.686   5.162  0.0199  0.7517 -0.2582
  520MOL0     H68579   3.866   1.750   5.017  1.0336 -0.6632  1.9658
  520MOL0     H68580   3.751   1.712   4.887  3.6138  1.3300 -1.3151
  520MOL0     H68581   3.820   1.479   4.883  0.1629  0.6324  0.5110
  520MOL0     H68582   3.963   1.530   4.984  1.5871  1.8559 -0.6767
  520MOL0     H68583   3.898   1.659   4.729 -2.1870 -2.2453  1.1743
  520MOL0     H68584   4.051   1.688   4.817 -1.3174  2.3210 -1.5959
  520MOL0     H68585   3.961   1.413   4.716 -0.0763  0.5695 -2.7390
  520MOL0     H68586   4.121   1.462   4.788  1.5627  2.2385 -1.6280
  520MOL0     H68587   4.161   1.619   4.599  1.0792 -0.8539 -0.7887
  520MOL0     H68588   4.029   1.551   4.515 -1.3941  0.5980  0.9929
  520MOL0     H68589   4.248   1.445   4.467  3.1386 -4.5178 -0.1481
  520MOL0     H68590   4.245   1.345   4.619 -1.7643 -1.7212  0.7703
  520MOL0     H68591   4.138   1.271   4.372  0.9599 -0.1419  0.2188
  520MOL0     H68592   3.993   1.364   4.437 -0.6482 -1.2545  1.3094
  520MOL0     H68593   3.838   1.247   4.542  0.3125  0.9087  0.9799
  520MOL0     H68594   3.690   1.019   4.580 -1.1668  1.1116  2.9667
  520MOL0     H68595   3.727   1.013   4.746 -1.7521  0.3044  0.2588
  520MOL0     H68596   3.710   0.782   4.701  0.1829 -1.7561 -2.2920
  520MOL0     H68597   3.875   0.803   4.702  2.8502 -0.3426 -2.4472
  520MOL0     H68598   3.785   0.851   4.425  3.4342 -1.6897 -2.9019
  520MOL0     H68599   3.908   0.739   4.476  0.6314 -0.4195  1.2147
  520MOL0     H68600   3.716   0.600   4.570  0.1253  1.7036  1.4967
  520MOL0     H68601   3.731   0.585   4.400  0.4513  0.5238  0.0311
  520MOL0     H68602   3.328   0.796   4.417  0.6277 -1.9239 -1.9066
  520MOL0     H68603   3.132   0.715   4.539  0.7262  1.1882  3.8559
  520MOL0     H68604   2.946   0.490   4.926 -0.7531 -2.3462 -0.3068
  520MOL0     H68605   2.726   0.474   5.021  3.8112  0.3612  0.0753
  520MOL0     H68606   2.400   0.583   4.759 -0.4835  1.2558  0.9842
  520MOL0     H68607   2.371   0.723   4.873  0.7838  0.3152  2.1957
  520MOL0     H68608   2.280   0.518   5.023  1.2372 -2.0644 -0.4038
  520MOL0     H68609   2.273   0.435   4.882  1.8179 -1.5901  3.2003
  520MOL0     H68610   2.141   0.596   4.762  0.4494 -2.5895  0.3505
  520MOL0     H68611   2.140   0.689   4.917 -0.7245 -1.1485  2.8671
  520MOL0     H68612   2.043   0.400   4.921 -1.5045 -0.0037  1.4359
  520MOL0     H68613   2.015   0.523   5.046  1.4563  0.1854  0.9010
  520MOL0     H68614   1.882   0.642   4.872 -1.3327 -0.9371 -1.4676
  520MOL0     H68615   1.816   0.503   4.958 -1.4478  0.9552 -0.8214
  520MOL0     H68616   1.863   0.355   4.765  2.5304 -1.1077 -4.4747
  520MOL0     H68617   1.938   0.481   4.678 -0.2722 -2.7257 -0.2195
  520MOL0     H68618   1.665   0.502   4.805  1.9118  1.9987  1.0307
  520MOL0     H68619   1.716   0.598   4.656  1.6093 -0.3763 -1.5786
  520MOL0     H68620   1.571   0.394   4.603 -0.4926  0.1636 -1.8166
  520MOL0     H68621   1.704   0.307   4.648 -2.8615  0.2191  0.4757
  520MOL0     H68622   2.582   0.753   4.715  1.1663  2.5142  0.0837
  520MOL0     H68623   2.808   0.749   4.617  2.7658  0.5302  1.6038
  520MOL0     H68624   3.361   0.412   4.732 -1.6356 -0.7904 -0.7180
  520MOL0     H68625   3.561   0.472   4.599 -0.1038  0.5729  0.8592
  520MOL0     H68626   3.435   1.429   4.953 -2.7368  1.7631 -0.2964
  520MOL0     H68627   3.284   1.290   5.103  1.4901 -2.3142  0.3829
  520MOL0     H68628   3.283   1.060   5.368  0.2747  1.3079  1.3128
  520MOL0     H68629   3.256   0.840   5.466 -0.6947 -1.8748  3.3562
  520MOL0     H68630   2.970   0.747   5.790 -0.0429  1.5345 -0.2056
  520MOL0     H68631   3.098   0.819   5.877 -2.3453 -0.8080  0.9940
  520MOL0     H68632   3.105   0.546   5.733 -2.4923 -2.4986  1.8326
  520MOL0     H68633   3.229   0.608   5.847  0.3758  0.5853  2.3454
  520MOL0     H68634   2.954   0.528   5.942 -0.7212  2.2077 -0.1062
  520MOL0     H68635   3.094   0.595   6.022  0.3426  0.1670  0.3783
  520MOL0     H68636   3.174   0.373   5.843 -3.1033 -4.1389 -1.0466
  520MOL0     H68637   3.225   0.378   6.000  0.5164 -2.3898 -2.5165
  520MOL0     H68638   2.859   0.144   5.995 -1.7345  1.9124 -2.1682
  520MOL0     H68639   3.136   1.017   5.834 -0.3175  0.4126  0.0637
  520MOL0     H68640   3.178   1.237   5.735 -3.4254 -1.3828  1.0784
  521MOL0     O68641   1.535   8.763   2.451  0.0442 -0.5674 -0.3395
  521MOL0     C68642   1.410   8.780   2.445 -0.9185  0.1306  0.8781
  521MOL0     O68643   1.322   8.686   2.396 -0.9749  0.5687 -0.3507
  521MOL0     C68644   1.369   8.561   2.391 -0.0034  0.4142  0.5845
  521MOL0     C68645   1.352   8.467   2.493 -0.1631 -0.0691  0.2418
  521MOL0     C68646   1.398   8.339   2.491  0.2374 -0.3728  0.6098
  521MOL0     C68647   1.480   8.303   2.385  0.1865  0.0496 -1.5167
  521MOL0     O68648   1.529   8.178   2.362  0.0114  0.5528  0.8711
  521MOL0     C68649   1.638   8.121   2.442  0.2799  0.1434  0.7630
  521MOL0     C68650   1.583   8.066   2.579  0.9984 -0.5026  0.7630
  521MOL0     C68651   1.689   7.965   2.651 -1.1501 -0.6633  0.6736
  521MOL0     C68652   1.635   7.920   2.788  0.4618  0.2006  0.5577
  521MOL0     C68653   1.747   7.867   2.881 -0.1157 -0.4660 -0.5782
  521MOL0     C68654   1.857   7.969   2.924 -0.0822  0.5272  0.4071
  521MOL0     C68655   1.804   8.071   3.028  0.6310  0.4387  1.1122
  521MOL0     C68656   1.901   8.155   3.104 -0.6828  0.0078 -0.2918
  521MOL0     N68657   1.899   8.299   3.063  1.0465  0.0652  0.2384
  521MOL0     C68658   1.978   8.360   2.974  0.6573  1.8356  0.8180
  521MOL0     C68659   1.954   8.493   2.989 -0.3416  0.1280 -0.0151
  521MOL0     C68660   2.034   8.598   2.915 -1.2974  0.0710 -0.3163
  521MOL0     C68661   1.961   8.713   2.844  0.7285  0.4066  0.0080
  521MOL0     C68662   2.060   8.815   2.806 -0.2879  0.5101 -0.1290
  521MOL0     C68663   1.996   8.937   2.741  1.0779  0.2199  0.4849
  521MOL0     O68664   1.871   8.891   2.673 -0.2058  0.1280 -0.1156
  521MOL0     C68665   1.824   8.975   2.575  0.5038 -0.7042  0.0715
  521MOL0     C68666   1.793   8.914   2.456 -0.1084 -0.7507 -1.2888
  521MOL0     C68667   1.756   8.983   2.341 -0.3423  0.7788 -0.3900
  521MOL0     C68668   1.773   9.120   2.342  0.0412 -0.5260 -0.7364
  521MOL0     C68669   1.725   9.202   2.230 -0.2851  0.3263  0.4748
  521MOL0     O68670   1.770   9.329   2.210 -0.4838 -0.2620  0.0348
  521MOL0     C68671   1.679   9.410   2.153  0.2200 -0.7247  0.1136
  521MOL0     C68672   1.720   9.498   2.040 -0.7428 -0.3564 -0.2792
  521MOL0     C68673   1.625   9.583   1.979 -0.4386  0.6679 -0.9377
  521MOL0     C68674   1.496   9.575   2.028  0.5927 -0.3640  0.2517
  521MOL0     O68675   1.404   9.661   1.968 -0.4845 -0.2158  0.1843
  521MOL0     C68676   1.276   9.688   2.026 -0.1571 -0.3981  0.3524
  521MOL0     C68677   1.212   9.804   1.937 -0.3953  0.7198  0.2768
  521MOL0     C68678   1.058   9.828   1.972 -0.0069  0.0300 -0.1756
  521MOL0     C68679   0.994   9.923   1.865  1.1095 -0.0124  0.6422
  521MOL0     C68680   0.845   9.940   1.895  1.0274 -0.0102  0.0396
  521MOL0     C68681   0.767   9.839   1.823  0.4839  0.2857  0.8729
  521MOL0     C68682   0.618   9.844   1.852  0.0738  0.5830 -0.2884
  521MOL0     C68683   0.553   9.978   1.849 -0.8183  0.9902 -0.0936
  521MOL0    Cl68684   0.379   9.986   1.875  0.2915  0.0962 -0.5368
  521MOL0     C68685   1.459   9.482   2.119 -0.4576  0.0454 -0.6795
  521MOL0     C68686   1.545   9.412   2.189  0.0213  1.3606  0.1458
  521MOL0     O68687   1.637   9.147   2.170  0.1168  0.9048  0.2879
  521MOL0     C68688   1.835   9.178   2.449  0.2780 -0.7723 -0.6019
  521MOL0     C68689   1.863   9.115   2.570 -0.6299  0.4068  0.3552
  521MOL0     N68690   1.862   8.507   3.089  0.7392  0.4944 -0.3321
  521MOL0     N68691   1.826   8.392   3.138 -0.5701  0.2744 -0.3207
  521MOL0     C68692   1.509   8.394   2.284  0.6475 -0.0693 -1.5569
  521MOL0     C68693   1.458   8.525   2.290  0.5516  0.2107  0.4062
  521MOL0     C68694   1.360   8.921   2.472 -0.4660 -0.0967  0.4457
  521MOL0     C68695   1.441   9.016   2.544 -0.2165 -0.1657  0.1973
  521MOL0     C68696   1.378   9.147   2.580 -0.2040 -0.0089 -0.1324
  521MOL0     C68697   1.248   9.183   2.541 -0.2127 -1.8842  0.0067
  521MOL0     O68698   1.199   9.315   2.580 -1.1158  0.3413 -0.0701
  521MOL0     C68699   1.056   9.347   2.561 -0.0656  0.4090  0.3614
  521MOL0     C68700   1.018   9.430   2.679 -0.2512  0.3444  0.6324
  521MOL0     C68701   1.130   9.516   2.747  0.5772 -0.4267 -0.5858
  521MOL0     C68702   1.060   9.630   2.814  0.3417 -0.7067 -0.8543
  521MOL0     C68703   1.157   9.729   2.861 -0.0156  0.0574  0.5459
  521MOL0     C68704   1.224   9.835   2.888  0.6149  0.3197 -0.2336
  521MOL0     C68705   1.183   9.101   2.451  0.1682  0.7309 -0.1353
  521MOL0     C68706   1.235   8.966   2.419 -0.4208  0.2956 -0.3100
  521MOL0     H68707   1.273   8.491   2.563 -0.7194 -3.9369  1.1415
  521MOL0     H68708   1.374   8.262   2.564  2.4893 -2.3606 -0.6083
  521MOL0     H68709   1.714   8.197   2.463  0.2609 -0.5209  3.5783
  521MOL0     H68710   1.684   8.048   2.375  2.2433  3.5725 -2.0006
  521MOL0     H68711   1.492   8.011   2.554  1.2118 -0.5218  0.0035
  521MOL0     H68712   1.557   8.148   2.646 -0.1376 -0.7703  0.6684
  521MOL0     H68713   1.771   8.034   2.672 -2.1199  0.1910  1.7770
  521MOL0     H68714   1.728   7.880   2.594 -2.2142 -0.6453 -0.1262
  521MOL0     H68715   1.586   8.007   2.833 -0.6462  0.5874 -1.3128
  521MOL0     H68716   1.555   7.846   2.785 -0.8413  1.5714  0.0952
  521MOL0     H68717   1.800   7.786   2.829  0.2130  0.3604 -1.5765
  521MOL0     H68718   1.695   7.835   2.972 -0.9471 -1.5025 -1.3960
  521MOL0     H68719   1.896   8.020   2.835  1.7309  3.6736  2.8013
  521MOL0     H68720   1.937   7.916   2.975  0.9809  4.3917  3.1972
  521MOL0     H68721   1.727   8.132   2.980  1.2168 -2.1411 -3.8314
  521MOL0     H68722   1.766   8.004   3.105 -0.0672 -0.0896  0.3198
  521MOL0     H68723   2.007   8.132   3.096 -0.2271  1.0381  1.9803
  521MOL0     H68724   1.881   8.159   3.212 -1.4196  2.2373 -0.4507
  521MOL0     H68725   2.056   8.308   2.918  1.0222  0.6246  2.3922
  521MOL0     H68726   2.078   8.546   2.829 -1.0463  0.1370 -0.2300
  521MOL0     H68727   2.112   8.642   2.978 -1.3020  2.4663 -1.8319
  521MOL0     H68728   1.884   8.763   2.903  0.0732 -1.4040  0.7316
  521MOL0     H68729   1.911   8.678   2.753 -2.1166  1.7045  0.9555
  521MOL0     H68730   2.099   8.860   2.899 -2.5703  0.0966  1.1034
  521MOL0     H68731   2.143   8.783   2.743  1.6854  0.9700  2.0871
  521MOL0     H68732   2.064   8.981   2.668  2.9870 -2.9959  0.1491
  521MOL0     H68733   1.970   9.007   2.822 -2.2281  0.7090 -0.8488
  521MOL0     H68734   1.780   8.807   2.443  0.3746 -1.3227  1.9882
  521MOL0     H68735   1.725   8.927   2.254 -4.4846 -0.5063  1.6690
  521MOL0     H68736   1.825   9.493   2.014 -1.0154  0.2300 -1.5494
  521MOL0     H68737   1.645   9.640   1.889 -3.3026  2.1200 -0.7603
  521MOL0     H68738   1.299   9.727   2.126  0.2960  0.4791 -0.0865
  521MOL0     H68739   1.205   9.605   2.040 -1.9022  0.9128 -0.2505
  521MOL0     H68740   1.234   9.786   1.832 -0.8088 -3.2564  0.6868
  521MOL0     H68741   1.261   9.897   1.965  0.9850  0.3764 -0.9149
  521MOL0     H68742   1.037   9.889   2.060  0.5733  0.8011 -0.5506
  521MOL0     H68743   1.004   9.734   1.984 -0.2437 -0.0976 -1.8914
  521MOL0     H68744   1.037  10.023   1.879  1.7365 -0.0449 -0.8287
  521MOL0     H68745   0.999   9.905   1.757  0.3128  2.1951  0.1698
  521MOL0     H68746   0.816  10.038   1.856 -0.1168  0.8244  2.7725
  521MOL0     H68747   0.823   9.943   2.002  0.4121 -3.8194  0.1628
  521MOL0     H68748   0.809   9.743   1.854 -0.7018  0.0568  1.8328
  521MOL0     H68749   0.776   9.852   1.715 -0.9333 -1.0038  0.5676
  521MOL0     H68750   0.566   9.759   1.806 -0.9176 -1.0520  3.4576
  521MOL0     H68751   0.590   9.814   1.953 -0.9861  0.7708 -0.5078
  521MOL0     H68752   0.564  10.007   1.744  0.3772 -1.3762 -0.7020
  521MOL0     H68753   0.599  10.043   1.924  2.6655 -0.5895 -0.6562
  521MOL0     H68754   1.361   9.485   2.165 -0.0738  4.2228  0.3021
  521MOL0     H68755   1.515   9.360   2.279  0.9224  0.3892 -0.0921
  521MOL0     H68756   1.863   9.283   2.445  1.3535 -0.8732  2.2298
  521MOL0     H68757   1.913   9.176   2.645  4.4494 -5.0106  2.2156
  521MOL0     H68758   1.576   8.371   2.202  0.5342  2.0155 -2.3074
  521MOL0     H68759   1.479   8.600   2.215  0.7549 -4.0931 -4.3508
  521MOL0     H68760   1.539   9.011   2.589  1.0077 -2.3050 -2.4150
  521MOL0     H68761   1.424   9.226   2.640 -0.5999  1.1722 -1.3237
  521MOL0     H68762   1.004   9.251   2.565 -0.8999  0.7690 -1.1871
  521MOL0     H68763   1.037   9.387   2.461 -1.0771  0.8946  0.7420
  521MOL0     H68764   0.937   9.493   2.639 -0.5000 -0.6860 -0.5306
  521MOL0     H68765   0.977   9.358   2.750  0.7958 -0.9228 -0.0118
  521MOL0     H68766   1.208   9.541   2.674  1.5753 -0.3174  0.4933
  521MOL0     H68767   1.180   9.458   2.825 -3.2193 -1.1080  1.6122
  521MOL0     H68768   0.988   9.683   2.750 -0.6591 -1.2734 -0.2185
  521MOL0     H68769   1.007   9.594   2.903 -0.4747 -0.6169 -1.2992
  521MOL0     H68770   1.276   9.923   2.920  2.0004 -0.1958 -0.9732
  521MOL0     H68771   1.083   9.128   2.418 -0.6180 -3.1351 -1.4586
  521MOL0     H68772   1.166   8.911   2.355 -1.4195  1.6142 -0.4121
  522MOL0     O68773   3.573  11.103   1.529  0.1603 -0.2954 -0.3324
  522MOL0     C68774   3.664  11.181   1.549 -0.5942  0.1731  1.0358
  522MOL0     O68775   3.654  11.317   1.552 -0.6526 -0.4567 -0.5635
  522MOL0     C68776   3.536  11.363   1.514  0.4281 -0.4159 -0.9723
  522MOL0     C68777   3.494  11.395   1.389  0.6450 -0.6224 -0.1546
  522MOL0     C68778   3.376  11.467   1.354 -0.5139 -1.0489  0.0232
  522MOL0     C68779   3.283  11.495   1.451  0.5628  0.3107  0.2530
  522MOL0     O68780   3.163  11.541   1.397  0.1522 -1.0800  0.1106
  522MOL0     C68781   3.060  11.578   1.495  0.7939  1.4672 -0.0894
  522MOL0     C68782   2.925  11.593   1.418 -0.9847  0.4317  0.6169
  522MOL0     C68783   2.851  11.462   1.390 -0.3960  0.4002  0.6649
  522MOL0     C68784   2.727  11.497   1.308  1.0458 -0.5404  0.7250
  522MOL0     C68785   2.626  11.382   1.329 -0.0311 -0.1706 -1.1153
  522MOL0     C68786   2.497  11.407   1.245 -0.2957 -0.4190  0.2723
  522MOL0     C68787   2.398  11.294   1.275 -0.1489 -0.5036 -0.5752
  522MOL0     C68788   2.257  11.314   1.222  1.8290 -0.8178 -0.1393
  522MOL0     N68789   2.175  11.197   1.263  0.8935  0.2639 -0.2728
  522MOL0     C68790   2.155  11.148   1.391  0.9700  0.1391 -0.9975
  522MOL0     C68791   2.074  11.032   1.371 -1.1833 -0.2461 -0.4859
  522MOL0     C68792   2.022  10.945   1.478  0.6045  0.8142 -0.9476
  522MOL0     C68793   1.979  11.026   1.610  0.6700 -0.2045  0.2819
  522MOL0     C68794   1.857  11.120   1.579  0.2210  0.5763  0.4441
  522MOL0     C68795   1.722  11.059   1.532 -0.3109  0.5873 -0.5342
  522MOL0     O68796   1.746  11.002   1.402 -0.3749 -0.2123 -0.1507
  522MOL0     C68797   1.642  10.974   1.325 -0.0027 -0.2492  0.3080
  522MOL0     C68798   1.521  10.931   1.370  0.3363  0.0067 -0.2804
  522MOL0     C68799   1.412  10.907   1.279 -0.9595 -0.0483  0.1419
  522MOL0     C68800   1.427  10.934   1.141 -1.1067 -0.2764 -0.0144
  522MOL0     C68801   1.315  10.908   1.048 -0.1121  1.1575 -0.1253
  522MOL0     O68802   1.322  10.936   0.920 -0.0567 -0.5587  0.9627
  522MOL0     C68803   1.211  10.910   0.850  0.6941  0.2249  0.3766
  522MOL0     C68804   1.107  11.000   0.844 -0.0817 -0.7143  0.2437
  522MOL0     C68805   1.019  10.996   0.745 -0.3109 -0.2262 -0.9255
  522MOL0     C68806   1.015  10.887   0.665  0.6015 -0.5464  0.9035
  522MOL0     O68807   0.908  10.864   0.579 -0.1360 -0.1701 -0.8939
  522MOL0     C68808   0.794  10.827   0.644 -0.1712 -1.3695 -1.2282
  522MOL0     C68809   0.797  10.686   0.708 -0.4456 -0.0413 -0.6910
  522MOL0     C68810   0.676  10.655   0.791 -0.5645 -0.1361  0.4648
  522MOL0     C68811   0.672  10.512   0.822  0.2295 -0.8116  0.6447
  522MOL0     C68812   0.550  10.490   0.910  0.1701  0.3662 -0.5326
  522MOL0     C68813   0.549  10.336   0.940  0.4111  0.4693 -0.0590
  522MOL0     C68814   0.417  10.308   0.990  0.2295 -0.3134 -0.0273
  522MOL0     C68815   0.361  10.167   0.947 -1.0563 -0.5520  0.1424
  522MOL0    Cl68816   0.461  10.048   1.032 -0.1249 -1.0523  0.1491
  522MOL0     C68817   1.112  10.789   0.678 -0.1166  0.1820  0.5498
  522MOL0     C68818   1.216  10.798   0.769  0.4508  0.1569  0.0643
  522MOL0     O68819   1.216  10.862   1.107 -0.2349 -0.2371 -0.3290
  522MOL0     C68820   1.552  10.973   1.101  0.5912 -0.1489  0.7835
  522MOL0     C68821   1.656  10.999   1.188  0.0259  0.5735  0.3434
  522MOL0     N68822   2.029  11.032   1.246  0.3080  0.5907 -0.3791
  522MOL0     N68823   2.089  11.127   1.177  1.1296 -0.2549 -0.4709
  522MOL0     C68824   3.308  11.464   1.583  0.3475  0.0802 -1.0854
  522MOL0     C68825   3.442  11.415   1.607  0.1330 -0.0369  0.2248
  522MOL0     C68826   3.799  11.123   1.576  0.2632 -0.0831 -0.0852
  522MOL0     C68827   3.819  10.983   1.592  0.3590  0.2103  0.3514
  522MOL0     C68828   3.946  10.939   1.619 -1.1696 -0.0043 -0.6318
  522MOL0     C68829   4.062  11.022   1.618 -0.6317 -0.5203 -0.4756
  522MOL0     O68830   4.185  10.956   1.629 -0.4486 -0.4470 -0.0485
  522MOL0     C68831   4.294  11.041   1.679  0.4003  0.3024 -1.4040
  522MOL0     C68832   4.370  10.960   1.787  0.1584  0.1773  0.0945
  522MOL0     C68833   4.421  10.831   1.722 -0.4937  0.2956  0.7286
  522MOL0     C68834   4.509  10.759   1.826 -0.5716  0.1168 -0.5171
  522MOL0     C68835   4.450  10.729   1.957 -0.6860  0.1440  0.4359
  522MOL0     C68836   4.415  10.704   2.072  0.4288 -0.1976  1.3051
  522MOL0     C68837   4.047  11.153   1.587  0.0753  0.2508  0.4050
  522MOL0     C68838   3.915  11.211   1.575 -0.9925 -0.1024 -0.3356
  522MOL0     H68839   3.556  11.370   1.303  0.1155 -0.1010 -0.6946
  522MOL0     H68840   3.359  11.488   1.249  2.6414 -0.4181 -0.4564
  522MOL0     H68841   3.070  11.676   1.543 -0.7735  0.6894  2.0241
  522MOL0     H68842   3.060  11.507   1.579 -0.0038  3.1049  1.3783
  522MOL0     H68843   2.964  11.619   1.319 -0.1070  2.2044  1.3735
  522MOL0     H68844   2.854  11.662   1.463  1.4790  2.4464  1.7088
  522MOL0     H68845   2.817  11.427   1.488 -0.3782  0.8137  0.8207
  522MOL0     H68846   2.926  11.394   1.347 -0.7241 -0.8838  2.0661
  522MOL0     H68847   2.686  11.594   1.339  0.3136 -0.1028 -1.4653
  522MOL0     H68848   2.752  11.506   1.202 -3.7527  0.9493 -0.5041
  522MOL0     H68849   2.598  11.374   1.434 -0.5259 -0.5766 -1.2783
  522MOL0     H68850   2.661  11.281   1.307 -0.3659 -0.4894 -0.2032
  522MOL0     H68851   2.507  11.406   1.136 -0.4705  3.9662  0.0306
  522MOL0     H68852   2.449  11.498   1.284  1.2644 -0.5188  2.6198
  522MOL0     H68853   2.430  11.200   1.230 -1.4858 -0.2426 -2.1927
  522MOL0     H68854   2.396  11.281   1.384  0.6452  0.6426 -0.4028
  522MOL0     H68855   2.260  11.325   1.113  0.4537  0.7572 -0.0666
  522MOL0     H68856   2.207  11.401   1.265  1.4635 -1.5444  0.9373
  522MOL0     H68857   2.195  11.188   1.483 -0.4648  1.4213 -0.8707
  522MOL0     H68858   2.104  10.887   1.521 -0.4343 -2.1909 -2.7080
  522MOL0     H68859   1.952  10.874   1.432  0.5709  0.8862 -1.0073
  522MOL0     H68860   2.056  11.092   1.651 -0.2106  1.4701 -0.6553
  522MOL0     H68861   1.943  10.958   1.687 -1.5317 -1.1320 -1.4519
  522MOL0     H68862   1.837  11.190   1.661 -1.0039  2.0199 -1.0087
  522MOL0     H68863   1.893  11.187   1.501 -1.8918  1.6317  0.3002
  522MOL0     H68864   1.645  11.136   1.518 -2.0999 -0.5933  1.8602
  522MOL0     H68865   1.682  10.985   1.603  1.0402  1.3818  1.1414
  522MOL0     H68866   1.498  10.902   1.472  1.8665  1.5767  0.5538
  522MOL0     H68867   1.315  10.875   1.316  0.7460 -4.1079  1.6666
  522MOL0     H68868   1.112  11.085   0.911 -1.4284  2.7238 -3.5767
  522MOL0     H68869   0.936  11.064   0.758 -0.4387 -0.6044  0.3628
  522MOL0     H68870   0.711  10.841   0.575 -0.9372  1.2424  0.0992
  522MOL0     H68871   0.770  10.902   0.721  4.0888 -3.9391  3.1941
  522MOL0     H68872   0.889  10.676   0.766  0.8837  0.2148 -2.6774
  522MOL0     H68873   0.799  10.618   0.622 -1.8342  1.5009 -2.0213
  522MOL0     H68874   0.587  10.693   0.740  0.4135  4.8945  1.9779
  522MOL0     H68875   0.682  10.712   0.884  0.0194  3.9296 -1.8462
  522MOL0     H68876   0.670  10.442   0.738  2.3459 -0.3475  0.1472
  522MOL0     H68877   0.769  10.475   0.856  0.8263  0.6982  0.6498
  522MOL0     H68878   0.459  10.527   0.862 -0.9997  1.3749  2.2369
  522MOL0     H68879   0.556  10.530   1.012  1.6367 -2.2743  0.5025
  522MOL0     H68880   0.626  10.307   1.011  0.9969 -0.3419 -0.9933
  522MOL0     H68881   0.572  10.274   0.852  1.8727 -3.6357  2.8741
  522MOL0     H68882   0.400  10.312   1.098 -0.3333 -0.0085 -0.1219
  522MOL0     H68883   0.345  10.376   0.943  2.5074  1.0563 -1.7011
  522MOL0     H68884   0.366  10.149   0.839  2.9816 -1.7407  0.3660
  522MOL0     H68885   0.255  10.152   0.970 -2.6674  5.0093 -1.9084
  522MOL0     H68886   1.121  10.705   0.609  0.9380  0.8267 -0.1352
  522MOL0     H68887   1.300  10.731   0.782  1.5441  1.4866  0.0368
  522MOL0     H68888   1.576  10.968   0.995 -2.0033 -2.6906  0.1789
  522MOL0     H68889   1.759  11.019   1.158 -0.1851  2.4050  0.7295
  522MOL0     H68890   3.239  11.490   1.662  1.0350  1.9887 -1.0397
  522MOL0     H68891   3.481  11.403   1.708 -2.2000 -1.4266  1.0506
  522MOL0     H68892   3.743  10.906   1.584  0.1358  0.6236 -3.0378
  522MOL0     H68893   3.976  10.837   1.639  3.6643  1.8133  3.5441
  522MOL0     H68894   4.269  11.138   1.723 -1.1265 -0.0159 -1.5288
  522MOL0     H68895   4.361  11.059   1.594  1.6685  2.2162 -0.0799
  522MOL0     H68896   4.446  11.020   1.837  0.8020 -0.8187  0.3494
  522MOL0     H68897   4.302  10.955   1.873  1.3996  2.0500  1.2428
  522MOL0     H68898   4.475  10.846   1.628  0.3225 -4.1132  0.3035
  522MOL0     H68899   4.341  10.762   1.693  1.0157 -0.8859 -0.8318
  522MOL0     H68900   4.540  10.663   1.784 -0.6687 -0.9740  1.7864
  522MOL0     H68901   4.601  10.816   1.841  0.3210 -0.8134 -2.1703
  522MOL0     H68902   4.400  10.679   2.175 -1.0859  2.3229  1.7701
  522MOL0     H68903   4.131  11.220   1.572  0.6527 -0.1432  1.7033
  522MOL0     H68904   3.914  11.319   1.566  2.2984  0.4624  3.3994
  523MOL0     O68905   2.384   7.268   9.223 -1.6375  0.4712 -0.2332
  523MOL0     C68906   2.495   7.228   9.225 -0.5081  0.1182  0.1429
  523MOL0     O68907   2.543   7.147   9.133  0.5005  0.4252  0.6733
  523MOL0     C68908   2.472   7.124   9.016 -0.2454 -0.9270 -0.8674
  523MOL0     C68909   2.502   7.201   8.904  1.5589 -0.2706 -0.1837
  523MOL0     C68910   2.426   7.184   8.787  0.1544  1.0332  0.1004
  523MOL0     C68911   2.325   7.084   8.782 -0.0864 -0.6632  0.1573
  523MOL0     O68912   2.264   7.062   8.654 -0.4999  0.1736  0.6880
  523MOL0     C68913   2.128   7.024   8.659  0.9954  0.3406 -0.8998
  523MOL0     C68914   2.064   6.997   8.518 -0.9837  0.0565  0.3636
  523MOL0     C68915   1.991   6.874   8.492 -0.4016 -0.7287 -0.4211
  523MOL0     C68916   1.859   6.880   8.577 -0.8553  0.0618 -0.1017
  523MOL0     C68917   1.768   6.764   8.525 -0.0782 -0.0316  0.2731
  523MOL0     C68918   1.657   6.712   8.619 -0.1708  0.1194  0.4346
  523MOL0     C68919   1.574   6.615   8.537 -0.3929  0.1765  0.0168
  523MOL0     C68920   1.484   6.523   8.624 -0.3727  0.0809  0.1487
  523MOL0     N68921   1.399   6.590   8.722  0.2258 -1.0124 -0.1974
  523MOL0     C68922   1.335   6.527   8.823 -0.7744  0.1043  0.5653
  523MOL0     C68923   1.257   6.614   8.890 -0.9259  0.2115  0.7109
  523MOL0     C68924   1.149   6.561   8.982  0.0329  0.2217  0.0757
  523MOL0     C68925   1.150   6.631   9.118  0.4333 -0.0310  0.5706
  523MOL0     C68926   1.007   6.646   9.170 -0.1170  0.1060  0.0251
  523MOL0     C68927   1.005   6.762   9.278 -0.1778  0.9508  0.7512
  523MOL0     O68928   0.880   6.768   9.339 -0.1533 -0.2389 -0.1790
  523MOL0     C68929   0.766   6.805   9.272  0.0466  0.0698 -0.4916
  523MOL0     C68930   0.771   6.864   9.145  0.0791 -0.9475  0.8262
  523MOL0     C68931   0.653   6.919   9.086 -0.1028  0.4476  1.1254
  523MOL0     C68932   0.533   6.917   9.143 -0.2647 -0.3164 -1.0733
  523MOL0     C68933   0.420   6.970   9.078  0.1822 -0.6262 -0.3594
  523MOL0     O68934   0.431   7.016   8.952  0.3229 -0.7153  0.5451
  523MOL0     C68935   0.313   7.054   8.897  1.0622 -1.1138 -0.1980
  523MOL0     C68936   0.256   6.970   8.800  0.9116  0.9156  0.8233
  523MOL0     C68937   0.135   7.009   8.734 -0.8149 -0.1681 -0.3783
  523MOL0     C68938   0.058   7.119   8.774  0.3886 -0.6723  0.9953
  523MOL0     O68939  -0.064   7.137   8.721 -0.4263 -0.6591  0.8104
  523MOL0     C68940  -0.099   7.267   8.676  0.5124  0.2696  0.3693
  523MOL0     C68941  -0.216   7.273   8.572 -0.4188 -0.4619  0.1832
  523MOL0     C68942  -0.233   7.418   8.516  0.0192  0.0251  0.0091
  523MOL0     C68943  -0.281   7.530   8.610 -1.5008 -0.4077 -0.0672
  523MOL0     C68944  -0.308   7.659   8.543 -0.5912  0.1280  0.3713
  523MOL0     C68945  -0.221   7.693   8.416 -0.4632  0.2934  0.1027
  523MOL0     C68946  -0.264   7.833   8.355 -0.3288  0.5049  0.1135
  523MOL0     C68947  -0.215   7.840   8.216  0.2461 -0.4467 -1.0053
  523MOL0    Cl68948  -0.027   7.874   8.197 -0.3204 -0.2902 -0.0053
  523MOL0     C68949   0.110   7.209   8.868  0.3848 -0.7075  0.3682
  523MOL0     C68950   0.239   7.177   8.923 -0.7175 -1.3910 -0.3369
  523MOL0     O68951   0.318   6.982   9.155  0.2547 -0.6720  0.8096
  523MOL0     C68952   0.528   6.852   9.270  1.0004 -0.7646 -0.4225
  523MOL0     C68953   0.639   6.801   9.329 -1.0053  0.0965 -1.0405
  523MOL0     N68954   1.281   6.735   8.831  0.0668 -0.4153  0.6316
  523MOL0     N68955   1.367   6.721   8.734 -0.5707  0.7512  0.0340
  523MOL0     C68956   2.298   6.999   8.898 -0.1871 -0.0986  0.5583
  523MOL0     C68957   2.370   7.023   9.010  0.0624 -0.5513  0.0167
  523MOL0     C68958   2.587   7.296   9.319  0.4602 -0.3197  0.0969
  523MOL0     C68959   2.549   7.417   9.372  0.6095 -0.3879 -1.2584
  523MOL0     C68960   2.635   7.488   9.460  0.4358 -0.1400 -0.1699
  523MOL0     C68961   2.768   7.453   9.478 -0.1690 -0.1479  0.3223
  523MOL0     O68962   2.852   7.542   9.534  0.0239 -0.0414  0.7184
  523MOL0     C68963   2.978   7.558   9.468 -0.5096 -0.0217  0.2975
  523MOL0     C68964   2.986   7.594   9.305 -0.2517 -0.4485  0.4400
  523MOL0     C68965   3.133   7.651   9.268  0.9486  0.6732  0.0104
  523MOL0     C68966   3.244   7.542   9.257  0.0808 -0.2595  0.2547
  523MOL0     C68967   3.241   7.442   9.151  0.5215 -1.3333  0.1021
  523MOL0     C68968   3.244   7.367   9.058 -1.1109 -0.0866 -0.4241
  523MOL0     C68969   2.813   7.342   9.411 -1.4055  1.2696 -0.6759
  523MOL0     C68970   2.721   7.270   9.327 -0.7650  0.6382 -0.2069
  523MOL0     H68971   2.569   7.286   8.907  0.0079  0.9977  0.4785
  523MOL0     H68972   2.438   7.246   8.699  0.6629  1.7948  0.6887
  523MOL0     H68973   2.066   7.105   8.698 -0.6595 -0.2604 -2.1872
  523MOL0     H68974   2.116   6.928   8.709  2.0887  1.3223  1.3919
  523MOL0     H68975   2.149   6.994   8.450  0.0291 -1.3301  1.6402
  523MOL0     H68976   2.002   7.086   8.502  0.9464  1.4384  0.2117
  523MOL0     H68977   2.046   6.784   8.520 -0.1217 -0.5439 -0.3830
  523MOL0     H68978   1.959   6.877   8.387 -1.1294  5.2680 -0.3648
  523MOL0     H68979   1.887   6.873   8.682  0.8749 -0.4618 -0.5629
  523MOL0     H68980   1.809   6.977   8.570  1.3798  1.2979  0.0809
  523MOL0     H68981   1.826   6.679   8.489 -0.6296 -1.9562  3.5649
  523MOL0     H68982   1.708   6.810   8.446 -1.2182  1.3926  1.8907
  523MOL0     H68983   1.609   6.798   8.665 -0.9664 -0.5723  0.9105
  523MOL0     H68984   1.716   6.657   8.693  1.7459 -1.9420 -2.4049
  523MOL0     H68985   1.507   6.674   8.473 -1.6956 -0.5170  0.6885
  523MOL0     H68986   1.641   6.549   8.480  1.0293 -0.3368  2.1673
  523MOL0     H68987   1.527   6.431   8.665 -2.2012  0.1970  2.4745
  523MOL0     H68988   1.410   6.480   8.556  0.1376 -0.8057  0.1408
  523MOL0     H68989   1.350   6.420   8.836  6.1496  0.6704  0.6230
  523MOL0     H68990   1.161   6.453   8.994  1.5532  0.4514  0.9398
  523MOL0     H68991   1.051   6.569   8.936 -1.4815  0.0421  3.0415
  523MOL0     H68992   1.199   6.729   9.114  0.9764 -0.2193  2.1102
  523MOL0     H68993   1.206   6.570   9.189 -0.2055 -1.8777 -0.4234
  523MOL0     H68994   0.947   6.682   9.086  1.0323  1.0185 -0.4345
  523MOL0     H68995   0.966   6.553   9.210 -0.8860  0.7931  0.8814
  523MOL0     H68996   1.045   6.859   9.245 -0.9220  0.2245 -2.6681
  523MOL0     H68997   1.077   6.729   9.354  0.4277 -1.5171 -0.8029
  523MOL0     H68998   0.863   6.877   9.090 -1.2548  0.6123 -1.1633
  523MOL0     H68999   0.666   6.967   8.989  1.2684 -1.9417  0.0117
  523MOL0     H69000   0.295   6.871   8.781 -1.2258  0.1317  0.3040
  523MOL0     H69001   0.107   6.933   8.661 -1.6064 -0.6906  0.4601
  523MOL0     H69002  -0.020   7.317   8.620 -1.8164  3.5113 -0.3319
  523MOL0     H69003  -0.140   7.326   8.759 -1.4887  1.7842 -1.5841
  523MOL0     H69004  -0.304   7.246   8.630 -0.0151 -0.7120  0.6922
  523MOL0     H69005  -0.206   7.190   8.501 -1.3728 -0.3356 -0.1085
  523MOL0     H69006  -0.308   7.402   8.437  0.1000 -0.6575  0.0627
  523MOL0     H69007  -0.140   7.448   8.467 -0.8468 -1.9043 -3.1108
  523MOL0     H69008  -0.366   7.495   8.668  1.2452 -3.0413  2.7549
  523MOL0     H69009  -0.196   7.531   8.679 -2.7713 -2.3472  1.5899
  523MOL0     H69010  -0.320   7.739   8.617 -1.7364 -0.8165  1.2567
  523MOL0     H69011  -0.411   7.647   8.507 -0.8285 -0.9491  1.3493
  523MOL0     H69012  -0.230   7.615   8.340  1.9505 -0.3541  0.3786
  523MOL0     H69013  -0.114   7.697   8.441 -0.1305  0.7695 -1.2870
  523MOL0     H69014  -0.373   7.843   8.355 -0.2228  4.6597 -3.6758
  523MOL0     H69015  -0.225   7.909   8.422 -1.5993 -1.1795  2.9183
  523MOL0     H69016  -0.265   7.924   8.166  1.0250  0.6371 -0.0231
  523MOL0     H69017  -0.240   7.756   8.151 -0.6801  1.6622 -3.5195
  523MOL0     H69018   0.045   7.293   8.892 -1.8700 -2.5791  1.1702
  523MOL0     H69019   0.295   7.252   8.977 -0.7543 -0.8106 -1.0891
  523MOL0     H69020   0.430   6.848   9.316  0.8442  3.0178 -0.1190
  523MOL0     H69021   0.640   6.752   9.427 -0.7082 -3.5996 -2.7072
  523MOL0     H69022   2.222   6.922   8.896 -2.9134  2.3874  0.2313
  523MOL0     H69023   2.344   6.962   9.096 -2.0834 -1.1125 -0.9438
  523MOL0     H69024   2.450   7.460   9.367  0.4210 -0.7682 -0.8274
  523MOL0     H69025   2.594   7.571   9.516 -0.7317 -1.2643  0.6936
  523MOL0     H69026   3.045   7.476   9.496 -0.2131  0.2258  0.3264
  523MOL0     H69027   3.040   7.635   9.515  0.9367 -2.2368  2.2430
  523MOL0     H69028   2.969   7.502   9.248  1.7535  0.6175 -2.0736
  523MOL0     H69029   2.923   7.678   9.274  0.8329  0.5429  0.8738
  523MOL0     H69030   3.143   7.729   9.344  2.0326  0.6696 -0.1112
  523MOL0     H69031   3.139   7.688   9.165 -0.9338  2.0923  0.3575
  523MOL0     H69032   3.346   7.581   9.251  1.0320 -2.8331 -2.7078
  523MOL0     H69033   3.245   7.475   9.343  2.8130 -0.3662  0.2274
  523MOL0     H69034   3.254   7.301   8.974  2.5843  0.6225 -0.7242
  523MOL0     H69035   2.916   7.307   9.411 -1.8976 -0.2867 -1.8058
  523MOL0     H69036   2.758   7.198   9.254 -1.1716  0.8325 -0.6099
  524MOL0     O69037   2.294   7.453   6.832 -0.0663 -0.4133  0.6229
  524MOL0     C69038   2.340   7.551   6.778 -1.1741  0.2315  0.0167
  524MOL0     O69039   2.318   7.600   6.656  0.9071 -0.3784  0.2734
  524MOL0     C69040   2.195   7.578   6.600 -0.3452 -0.0619  0.9256
  524MOL0     C69041   2.071   7.564   6.651 -0.4095  0.0056 -0.1813
  524MOL0     C69042   1.964   7.585   6.569  0.0754 -0.4766 -0.1664
  524MOL0     C69043   1.980   7.612   6.435  0.2274 -0.1306 -0.1491
  524MOL0     O69044   1.859   7.653   6.385  0.2757  0.0506  0.2045
  524MOL0     C69045   1.869   7.682   6.240 -1.0863 -0.2703  0.1038
  524MOL0     C69046   1.726   7.684   6.184 -0.7003 -0.2388  0.4488
  524MOL0     C69047   1.680   7.832   6.177 -0.3180  0.0104  0.0396
  524MOL0     C69048   1.540   7.821   6.123  0.0460 -0.0711  0.3964
  524MOL0     C69049   1.477   7.951   6.084 -0.5062  0.2290  0.2344
  524MOL0     C69050   1.552   8.009   5.968  0.2735 -0.2043  0.3452
  524MOL0     C69051   1.477   8.138   5.918 -0.0605  0.1705 -0.5799
  524MOL0     C69052   1.519   8.184   5.772  0.0371 -0.1334 -0.0702
  524MOL0     N69053   1.465   8.091   5.675 -0.0402 -0.2789 -0.0097
  524MOL0     C69054   1.333   8.049   5.647  0.1892  0.0777 -0.2963
  524MOL0     C69055   1.341   7.968   5.542 -0.2967 -0.3822 -0.3084
  524MOL0     C69056   1.221   7.891   5.478  0.5655  0.0152  0.8951
  524MOL0     C69057   1.220   7.921   5.327 -0.2207  0.1183  0.4244
  524MOL0     C69058   1.080   7.883   5.263 -0.0471 -0.4830 -0.2651
  524MOL0     C69059   1.055   7.927   5.117 -0.4129 -0.1143 -0.4450
  524MOL0     O69060   1.149   7.845   5.032  0.5215 -0.1144 -0.1386
  524MOL0     C69061   1.140   7.878   4.901 -0.5506  0.0177  0.3340
  524MOL0     C69062   1.251   7.916   4.834  0.0706 -0.3589 -0.6347
  524MOL0     C69063   1.242   7.958   4.699  1.3025 -0.2874 -0.7227
  524MOL0     C69064   1.123   7.940   4.625  1.0425 -0.2230  0.0603
  524MOL0     C69065   1.091   7.981   4.485  0.3845  0.9488 -0.5862
  524MOL0     O69066   0.972   7.945   4.435 -0.1071 -0.2890 -0.2374
  524MOL0     C69067   0.912   8.002   4.329  0.3784  0.4360 -0.0568
  524MOL0     C69068   0.917   8.137   4.317 -0.4373 -1.0084 -0.2342
  524MOL0     C69069   0.863   8.194   4.211  0.4092 -1.0940  0.5520
  524MOL0     C69070   0.799   8.122   4.107  0.6698  0.8011 -0.5602
  524MOL0     O69071   0.723   8.172   4.001  0.4426  0.0869  0.0701
  524MOL0     C69072   0.667   8.300   4.025  0.4447 -0.4292 -0.4871
  524MOL0     C69073   0.587   8.351   3.903 -0.5637 -0.6840 -1.0864
  524MOL0     C69074   0.676   8.374   3.786  0.5745 -0.2203  0.3433
  524MOL0     C69075   0.624   8.486   3.692  0.2238 -0.5067  0.4651
  524MOL0     C69076   0.657   8.493   3.542 -0.1854 -0.1002 -0.3548
  524MOL0     C69077   0.810   8.486   3.520 -0.7430 -0.3020  0.5000
  524MOL0     C69078   0.884   8.618   3.555 -0.3168 -0.8929  0.0941
  524MOL0     C69079   1.033   8.611   3.522  0.2403 -0.1679  0.4503
  524MOL0    Cl69080   1.098   8.768   3.554  0.3174  0.2937 -0.6890
  524MOL0     C69081   0.791   7.987   4.126  1.4802 -0.1240  0.3456
  524MOL0     C69082   0.844   7.922   4.236 -0.5772 -0.1280  0.6999
  524MOL0     O69083   1.174   8.054   4.434  0.1775  0.2984  0.5925
  524MOL0     C69084   1.011   7.885   4.697  0.4773  0.5815  0.3645
  524MOL0     C69085   1.028   7.862   4.836 -0.6288 -0.5541 -0.4168
  524MOL0     N69086   1.466   7.969   5.494 -0.1660 -0.3024 -0.5207
  524MOL0     N69087   1.542   8.048   5.568 -0.1648 -0.6716  0.4765
  524MOL0     C69088   2.107   7.614   6.373  0.5294  0.2514 -0.1956
  524MOL0     C69089   2.215   7.596   6.466 -0.4590  0.1074  0.3600
  524MOL0     C69090   2.453   7.610   6.857 -0.4407 -0.1723 -1.4312
  524MOL0     C69091   2.484   7.563   6.995 -0.9510 -0.5330 -0.4199
  524MOL0     C69092   2.596   7.619   7.058  0.8920  0.3034  0.9637
  524MOL0     C69093   2.681   7.714   7.007  0.7514  0.4368  0.4756
  524MOL0     O69094   2.788   7.769   7.063  0.0441 -0.0581 -0.9060
  524MOL0     C69095   2.857   7.710   7.176  0.1089  0.1190 -0.1956
  524MOL0     C69096   2.972   7.796   7.228 -0.1875 -0.4344  0.8225
  524MOL0     C69097   2.918   7.929   7.280 -0.2213  0.1966  0.1161
  524MOL0     C69098   3.023   7.988   7.363 -0.8072  0.1667  0.8708
  524MOL0     C69099   3.012   8.130   7.403  0.0879  0.5718 -0.5109
  524MOL0     C69100   2.989   8.246   7.434  0.7419  0.5486  0.1003
  524MOL0     C69101   2.652   7.752   6.877  0.3206 -0.7648  0.0189
  524MOL0     C69102   2.541   7.702   6.805 -0.1914  0.5258  0.3872
  524MOL0     H69103   2.052   7.538   6.755 -2.7688  0.0368 -0.5532
  524MOL0     H69104   1.865   7.593   6.613  0.5984  1.1439  0.8057
  524MOL0     H69105   1.939   7.612   6.193  2.2177  2.6550  0.2797
  524MOL0     H69106   1.913   7.780   6.221 -2.5322  0.2984 -0.4524
  524MOL0     H69107   1.665   7.611   6.237 -2.5484  0.2256 -0.8947
  524MOL0     H69108   1.719   7.652   6.079 -2.1718 -2.5021  1.1576
  524MOL0     H69109   1.748   7.882   6.108  1.9079 -1.5361  0.9954
  524MOL0     H69110   1.693   7.871   6.279  0.8128 -0.6766  0.1787
  524MOL0     H69111   1.526   7.755   6.036  1.1932  1.9237 -1.3972
  524MOL0     H69112   1.477   7.789   6.206 -3.5620  2.5873 -1.0556
  524MOL0     H69113   1.471   8.024   6.166  0.6774  2.2260 -1.3789
  524MOL0     H69114   1.376   7.919   6.056 -0.2675  1.6106 -2.5148
  524MOL0     H69115   1.559   7.938   5.884  0.1991  1.6849 -1.3255
  524MOL0     H69116   1.655   8.029   6.000 -0.0625 -2.1441  3.0417
  524MOL0     H69117   1.368   8.132   5.918 -0.0479 -0.0998  0.0851
  524MOL0     H69118   1.500   8.220   5.986  2.3427 -0.9989  0.1259
  524MOL0     H69119   1.628   8.175   5.771  0.0784 -0.4230  2.2822
  524MOL0     H69120   1.485   8.286   5.751  2.0942  0.7412  0.5969
  524MOL0     H69121   1.245   8.074   5.706  0.5114  0.1201  0.1684
  524MOL0     H69122   1.129   7.933   5.521 -1.1948 -2.5239 -0.1634
  524MOL0     H69123   1.235   7.785   5.497 -1.1636 -0.6772 -1.2142
  524MOL0     H69124   1.289   7.848   5.284 -0.3357  0.3749 -0.2097
  524MOL0     H69125   1.239   8.028   5.308 -0.2025  0.3955  1.9146
  524MOL0     H69126   1.062   7.775   5.266 -2.5951 -0.1935 -2.0168
  524MOL0     H69127   0.999   7.930   5.319  1.9913  0.3129  2.2540
  524MOL0     H69128   1.090   8.030   5.109 -1.9420  0.3327 -2.2478
  524MOL0     H69129   0.956   7.923   5.070 -0.6804  1.5581 -0.0678
  524MOL0     H69130   1.341   7.920   4.895 -1.1304 -1.4159  1.3045
  524MOL0     H69131   1.329   8.002   4.652  1.0314  0.8978 -0.1621
  524MOL0     H69132   0.961   8.191   4.401 -1.5846 -0.9279  0.3434
  524MOL0     H69133   0.871   8.300   4.188  0.4104 -1.3417 -0.6435
  524MOL0     H69134   0.748   8.369   4.050  2.3587 -1.2135 -4.0054
  524MOL0     H69135   0.600   8.295   4.112 -2.5850 -0.4319 -2.6745
  524MOL0     H69136   0.542   8.443   3.941  0.5646 -1.3131  2.0776
  524MOL0     H69137   0.510   8.277   3.877 -1.9074  1.6398 -4.5024
  524MOL0     H69138   0.686   8.282   3.728 -3.7113 -0.0720 -1.0305
  524MOL0     H69139   0.770   8.405   3.833  1.2704  0.2923 -1.2957
  524MOL0     H69140   0.515   8.494   3.695  0.2851  0.7779  3.6633
  524MOL0     H69141   0.671   8.566   3.749  0.5004 -3.4028  4.7959
  524MOL0     H69142   0.628   8.592   3.506 -0.0014  0.0336 -0.1385
  524MOL0     H69143   0.595   8.417   3.495 -1.3744 -1.3981  2.9601
  524MOL0     H69144   0.830   8.469   3.414  2.3088  0.0511  0.9429
  524MOL0     H69145   0.858   8.397   3.562  0.2767 -0.9388 -1.8715
  524MOL0     H69146   0.838   8.690   3.487  0.9740  2.5049  2.5360
  524MOL0     H69147   0.854   8.643   3.658 -1.0413  1.8409 -0.6935
  524MOL0     H69148   1.055   8.566   3.425  2.3647  0.9942  0.3331
  524MOL0     H69149   1.089   8.554   3.596  0.8501  0.1902  0.2705
  524MOL0     H69150   0.742   7.936   4.043  2.2877 -1.8170  0.8755
  524MOL0     H69151   0.850   7.814   4.243  0.2624 -0.1524 -0.0853
  524MOL0     H69152   0.916   7.851   4.657  1.0063 -0.7542  0.2104
  524MOL0     H69153   0.948   7.817   4.895 -0.1352 -0.8886  0.0034
  524MOL0     H69154   2.134   7.648   6.274 -0.1504 -0.4268 -0.6293
  524MOL0     H69155   2.317   7.605   6.429  0.2100  2.1209  2.3973
  524MOL0     H69156   2.420   7.489   7.042 -1.6360 -0.4588 -1.2185
  524MOL0     H69157   2.616   7.570   7.152  2.2114 -2.6208 -0.6837
  524MOL0     H69158   2.897   7.611   7.150  4.8797  1.9038 -0.7090
  524MOL0     H69159   2.788   7.694   7.259  1.7582 -0.1036  1.1891
  524MOL0     H69160   3.023   7.735   7.303  1.2981  1.1700  1.1657
  524MOL0     H69161   3.038   7.808   7.142  2.5005 -2.2358  2.4683
  524MOL0     H69162   2.840   7.897   7.350  0.4529 -3.6050 -0.6717
  524MOL0     H69163   2.888   7.993   7.197  0.2044 -2.6891 -2.4240
  524MOL0     H69164   3.015   7.921   7.449  0.5906 -1.7677 -0.4146
  524MOL0     H69165   3.122   7.972   7.320 -1.1715 -1.3242  0.5381
  524MOL0     H69166   2.979   8.351   7.449 -2.6548  0.4599 -0.9033
  524MOL0     H69167   2.715   7.836   6.848 -1.5354  1.2394  1.4981
  524MOL0     H69168   2.525   7.737   6.703 -1.0738  2.2578  1.0708
  525MOL0     O69169   0.568   5.188  10.378  0.2321  0.3853  0.3231
  525MOL0     C69170   0.499   5.212  10.482 -0.1188 -0.6032  1.2508
  525MOL0     O69171   0.360   5.220  10.488 -0.3898 -0.1218  0.7798
  525MOL0     C69172   0.293   5.218  10.361 -0.2509 -0.6469 -0.6347
  525MOL0     C69173   0.327   5.294  10.253  0.1193 -0.3061  0.3692
  525MOL0     C69174   0.256   5.287  10.137  0.3273 -0.2548  0.4777
  525MOL0     C69175   0.134   5.218  10.123 -0.2135  0.1443  0.4264
  525MOL0     O69176   0.040   5.214  10.026 -0.3219 -0.2891 -0.1490
  525MOL0     C69177   0.038   5.320   9.926 -0.3869  0.3631 -0.9438
  525MOL0     C69178  -0.007   5.224   9.806 -0.0566 -0.6425  1.2140
  525MOL0     C69179  -0.157   5.190   9.807  0.5880  0.0385  0.3845
  525MOL0     C69180  -0.186   5.081   9.901  1.3848  1.1438 -0.5243
  525MOL0     C69181  -0.340   5.070   9.898 -0.0960  0.4138 -0.2243
  525MOL0     C69182  -0.391   4.959   9.999  0.1587 -0.3505 -0.8201
  525MOL0     C69183  -0.389   5.001  10.146 -0.9199 -0.6359 -0.1839
  525MOL0     C69184  -0.452   4.895  10.245  0.6356 -0.2373  0.3540
  525MOL0     N69185  -0.432   4.939  10.384  0.3113  0.0137  0.1311
  525MOL0     C69186  -0.531   4.957  10.478 -1.1311 -0.1124  0.2413
  525MOL0     C69187  -0.458   4.984  10.588 -0.5853 -0.2974 -0.6956
  525MOL0     C69188  -0.503   5.024  10.721 -0.6195  0.1002  0.1062
  525MOL0     C69189  -0.416   5.131  10.792 -0.0446  0.1577 -0.7041
  525MOL0     C69190  -0.433   5.273  10.750 -0.3274  0.1840 -0.9806
  525MOL0     C69191  -0.372   5.306  10.603 -0.0339  0.9870 -0.0854
  525MOL0     O69192  -0.378   5.442  10.566 -0.1223 -0.2834 -0.5601
  525MOL0     C69193  -0.325   5.479  10.444 -0.7259  0.2988  0.4405
  525MOL0     C69194  -0.291   5.382  10.341 -0.3402  0.0361  0.6507
  525MOL0     C69195  -0.244   5.440  10.215  0.3766  0.9689 -0.4640
  525MOL0     C69196  -0.238   5.576  10.190  0.5964  0.3422  0.4633
  525MOL0     C69197  -0.197   5.619  10.060 -1.2603  1.0289  0.2190
  525MOL0     O69198  -0.138   5.742  10.048 -0.4207  0.5291  0.2958
  525MOL0     C69199  -0.083   5.779   9.927  1.4614 -0.1961 -0.3914
  525MOL0     C69200  -0.153   5.788   9.806 -0.7097  0.0198  0.2740
  525MOL0     C69201  -0.085   5.823   9.691 -0.0127  0.6193  0.8600
  525MOL0     C69202   0.055   5.844   9.695  0.0376  0.8013 -0.1501
  525MOL0     O69203   0.127   5.878   9.588 -0.5756 -0.2591  0.3554
  525MOL0     C69204   0.090   6.006   9.531 -0.0051 -0.5948 -0.5906
  525MOL0     C69205   0.222   6.064   9.476 -0.4540  0.0326  0.6460
  525MOL0     C69206   0.311   6.136   9.577 -0.3455 -0.0094  0.0089
  525MOL0     C69207   0.389   6.062   9.675 -0.2470  0.1794 -0.2298
  525MOL0     C69208   0.473   6.165   9.761  0.1810 -0.1792  0.7549
  525MOL0     C69209   0.528   6.088   9.876 -0.0851  0.1618 -0.2333
  525MOL0     C69210   0.608   6.176   9.971 -0.4332 -0.4272 -0.8534
  525MOL0     C69211   0.637   6.103  10.097 -0.0561  0.2706 -0.5392
  525MOL0    Cl69212   0.731   6.224  10.206  0.2566  0.3357 -0.0507
  525MOL0     C69213   0.123   5.834   9.818  0.1605  1.0024  0.4082
  525MOL0     C69214   0.052   5.814   9.935  0.0460  0.6917 -0.6777
  525MOL0     O69215  -0.223   5.545   9.964 -0.2286  0.4211 -0.8207
  525MOL0     C69216  -0.279   5.669  10.292 -0.9435  0.0122  0.3018
  525MOL0     C69217  -0.331   5.621  10.409  0.2627  0.2690 -0.1712
  525MOL0     N69218  -0.320   4.973  10.564  0.4616 -0.1070  0.5927
  525MOL0     N69219  -0.305   4.946  10.444  0.3643  0.4262 -0.2250
  525MOL0     C69220   0.085   5.144  10.235 -0.0565  0.5203  0.8106
  525MOL0     C69221   0.177   5.134  10.344  0.5814 -0.4823  1.0422
  525MOL0     C69222   0.575   5.226  10.607  0.6955 -0.0185  0.0200
  525MOL0     C69223   0.513   5.199  10.731 -1.1240 -0.1894 -0.7366
  525MOL0     C69224   0.595   5.197  10.846 -1.0493  0.2770  0.3576
  525MOL0     C69225   0.734   5.230  10.831  0.8711  0.3811 -0.1832
  525MOL0     O69226   0.806   5.221  10.947 -0.4004  0.3376  0.0935
  525MOL0     C69227   0.897   5.334  10.973 -0.1434  1.2405  0.6195
  525MOL0     C69228   0.938   5.357  11.122 -0.3845 -0.8457 -0.5217
  525MOL0     C69229   1.006   5.237  11.199 -0.4808  0.3672 -0.1945
  525MOL0     C69230   0.980   5.250  11.343  1.1043 -0.0395 -0.8541
  525MOL0     C69231   1.048   5.146  11.407 -0.6321  0.5568 -1.0819
  525MOL0     C69232   1.107   5.064  11.480 -0.4125 -0.6434 -0.0333
  525MOL0     C69233   0.792   5.242  10.710  0.2001 -0.3514  1.8135
  525MOL0     C69234   0.709   5.243  10.590 -0.0542  0.1158 -0.7308
  525MOL0     H69235   0.415   5.357  10.244 -1.1028  1.7293  1.8070
  525MOL0     H69236   0.278   5.346  10.048 -0.6565 -2.8626 -1.6081
  525MOL0     H69237   0.139   5.355   9.903  1.7149  0.0332  5.6779
  525MOL0     H69238  -0.031   5.404   9.939  1.9060  2.2023 -0.1258
  525MOL0     H69239   0.057   5.137   9.792  1.4062  0.3506  1.5356
  525MOL0     H69240  -0.009   5.285   9.714  0.7473 -2.0540  0.2251
  525MOL0     H69241  -0.195   5.170   9.706  0.6362  0.3697  0.2983
  525MOL0     H69242  -0.216   5.272   9.847 -1.2753 -1.9407  1.9226
  525MOL0     H69243  -0.127   4.989   9.900 -3.9302 -3.2648  5.5180
  525MOL0     H69244  -0.166   5.126   9.999 -1.5864  0.2095  0.6216
  525MOL0     H69245  -0.376   5.032   9.802 -2.2522  0.3839  0.5307
  525MOL0     H69246  -0.379   5.170   9.916 -0.2023 -0.2002  3.8142
  525MOL0     H69247  -0.335   4.866   9.987 -1.0188 -0.7602 -3.7592
  525MOL0     H69248  -0.491   4.939   9.961 -1.1194  1.4600  1.3112
  525MOL0     H69249  -0.285   5.018  10.176 -0.4953 -1.4509 -1.1277
  525MOL0     H69250  -0.445   5.095  10.160 -1.2677 -0.6001 -1.5800
  525MOL0     H69251  -0.402   4.798  10.235  0.8506 -0.2325  1.2178
  525MOL0     H69252  -0.556   4.870  10.225  0.8956 -0.8530 -0.2631
  525MOL0     H69253  -0.639   4.955  10.472 -1.3170  4.0403 -0.9667
  525MOL0     H69254  -0.508   4.930  10.777  1.9303  0.7639  1.6340
  525MOL0     H69255  -0.608   5.055  10.716  0.1661  2.8866 -1.5987
  525MOL0     H69256  -0.310   5.107  10.793  0.7661  3.3330 -0.9966
  525MOL0     H69257  -0.459   5.133  10.893 -1.3743 -0.6234 -1.2243
  525MOL0     H69258  -0.539   5.298  10.751 -0.4606 -0.3348 -1.6976
  525MOL0     H69259  -0.380   5.343  10.815 -2.6774  0.6627  0.5148
  525MOL0     H69260  -0.418   5.241  10.528  0.9024 -2.0327  1.8155
  525MOL0     H69261  -0.265   5.285  10.608  0.2266  2.5175  2.5638
  525MOL0     H69262  -0.291   5.275  10.354 -1.2788 -0.1058 -0.3174
  525MOL0     H69263  -0.205   5.372  10.140  2.3318  2.3486 -0.7476
  525MOL0     H69264  -0.258   5.762   9.813 -1.2151  1.7590 -0.3733
  525MOL0     H69265  -0.130   5.811   9.593  3.6666 -1.3703 -0.7846
  525MOL0     H69266   0.063   6.064   9.620  2.2665 -5.0210  3.4264
  525MOL0     H69267   0.002   5.996   9.467 -1.3476 -1.1748  1.2493
  525MOL0     H69268   0.198   6.143   9.404  1.7941  2.9418  2.8490
  525MOL0     H69269   0.268   5.980   9.422  3.4013  0.6898  2.5894
  525MOL0     H69270   0.246   6.212   9.621  0.2659  2.5144 -3.1044
  525MOL0     H69271   0.384   6.193   9.519 -0.5575  1.2598  0.9474
  525MOL0     H69272   0.323   6.007   9.743 -0.0414 -3.4314 -2.6886
  525MOL0     H69273   0.445   5.983   9.624  0.4971  0.3816  0.2601
  525MOL0     H69274   0.401   6.242   9.789 -0.7827 -1.6381  2.5475
  525MOL0     H69275   0.560   6.188   9.699 -2.0336 -2.5092 -3.7409
  525MOL0     H69276   0.609   6.028   9.834  4.2392  5.1524 -0.1121
  525MOL0     H69277   0.453   6.022   9.921 -3.0234  1.2232 -3.1113
  525MOL0     H69278   0.708   6.208   9.943  0.5460  0.0841  2.6816
  525MOL0     H69279   0.552   6.267   9.994 -1.2791 -0.6961 -1.7484
  525MOL0     H69280   0.693   6.010  10.094  1.1203  0.8379  1.5562
  525MOL0     H69281   0.543   6.082  10.150  0.4145 -2.9198 -0.7966
  525MOL0     H69282   0.231   5.836   9.809  0.2465 -1.8582 -0.3091
  525MOL0     H69283   0.089   5.793  10.035  0.7330  3.9061 -0.1770
  525MOL0     H69284  -0.257   5.774  10.271  1.9728 -0.2987  1.3004
  525MOL0     H69285  -0.369   5.684  10.488  0.5137  0.5207 -0.2486
  525MOL0     H69286  -0.003   5.080  10.225  1.3233 -1.1782 -1.3705
  525MOL0     H69287   0.158   5.066  10.426 -0.4908 -0.7045  0.6371
  525MOL0     H69288   0.405   5.194  10.733 -1.1451 -2.4754 -2.7524
  525MOL0     H69289   0.561   5.177  10.947 -1.3066 -0.7164  0.0936
  525MOL0     H69290   0.855   5.432  10.950  4.7219  3.6590  0.8661
  525MOL0     H69291   0.987   5.324  10.913 -0.4147  3.2075 -0.1778
  525MOL0     H69292   1.003   5.445  11.128  0.0649 -1.1446 -0.9105
  525MOL0     H69293   0.841   5.385  11.163 -0.4416  0.9467 -1.7712
  525MOL0     H69294   1.111   5.250  11.175 -0.5809  0.6861 -0.4645
  525MOL0     H69295   0.972   5.139  11.162 -0.0818 -1.2561  3.2671
  525MOL0     H69296   0.995   5.346  11.391  1.8873 -1.0684  1.0409
  525MOL0     H69297   0.874   5.233  11.364  1.2066 -1.6801 -1.4927
  525MOL0     H69298   1.162   5.008  11.553 -0.8400  0.9722  1.6185
  525MOL0     H69299   0.900   5.253  10.698 -0.1274  1.4228 -0.2183
  525MOL0     H69300   0.756   5.275  10.498  0.4499 -1.7109 -1.1571
  526MOL0     O69301   8.998   1.164   2.835 -0.3917  0.8997 -0.6732
  526MOL0     C69302   8.896   1.109   2.879  0.6415  0.0950 -0.0722
  526MOL0     O69303   8.817   1.162   2.978 -0.6395  0.3825  0.0016
  526MOL0     C69304   8.850   1.275   3.053  0.5032 -0.3618  0.4331
  526MOL0     C69305   8.877   1.397   2.995 -0.0347 -0.3346  0.9594
  526MOL0     C69306   8.912   1.505   3.069  0.4482  0.2097 -1.3639
  526MOL0     C69307   8.914   1.500   3.207 -0.4303 -1.2597 -0.0872
  526MOL0     O69308   8.956   1.599   3.291  0.3379  0.4398 -1.0290
  526MOL0     C69309   9.046   1.703   3.253  0.1254  0.7446  1.2880
  526MOL0     C69310   8.973   1.826   3.196 -0.8399 -0.6231  0.4968
  526MOL0     C69311   9.077   1.935   3.167  0.2711 -1.0993  0.3804
  526MOL0     C69312   9.001   2.056   3.113 -0.7457  0.0970  0.4713
  526MOL0     C69313   8.915   2.034   2.985  0.0468 -0.3604  0.3656
  526MOL0     C69314   8.989   1.982   2.860 -0.1062  0.5531  0.5667
  526MOL0     C69315   8.893   1.983   2.736 -0.7898 -0.8849  0.6339
  526MOL0     C69316   8.756   1.935   2.755  0.3837 -0.3237 -1.1990
  526MOL0     N69317   8.742   1.792   2.764 -0.9257 -0.0931  0.1571
  526MOL0     C69318   8.639   1.725   2.831 -0.7360 -0.7791 -0.0771
  526MOL0     C69319   8.649   1.593   2.810 -1.0601 -0.1294  0.4347
  526MOL0     C69320   8.556   1.493   2.863 -0.3445  0.4709  0.8642
  526MOL0     C69321   8.467   1.440   2.747 -0.1478 -0.2985  0.5153
  526MOL0     C69322   8.342   1.366   2.798 -0.0144 -0.5120 -0.2260
  526MOL0     C69323   8.250   1.315   2.690 -1.8188  0.2675  0.2006
  526MOL0     O69324   8.149   1.407   2.656  0.0540 -1.2023 -0.1663
  526MOL0     C69325   8.031   1.400   2.718  0.5993  0.5645 -0.4238
  526MOL0     C69326   8.000   1.318   2.835  0.4086 -0.0975 -0.0602
  526MOL0     C69327   7.877   1.340   2.907 -0.6667  0.2606 -0.8657
  526MOL0     C69328   7.775   1.426   2.864  0.2056 -1.2964 -0.7240
  526MOL0     C69329   7.643   1.440   2.930 -0.2581 -0.3838  0.0326
  526MOL0     O69330   7.629   1.386   3.057 -0.1903  0.2155 -0.4580
  526MOL0     C69331   7.512   1.390   3.134 -0.5996 -0.3576  0.8647
  526MOL0     C69332   7.420   1.486   3.144 -1.0445 -0.3323  0.3122
  526MOL0     C69333   7.315   1.480   3.234  0.2091 -0.7208  0.0717
  526MOL0     C69334   7.302   1.375   3.321  0.0504 -0.6891 -1.8007
  526MOL0     O69335   7.212   1.383   3.422  0.4800 -0.1295  0.2703
  526MOL0     C69336   7.181   1.497   3.506 -0.2674 -0.6689 -0.5483
  526MOL0     C69337   7.085   1.453   3.612 -0.3821  0.4905 -0.1429
  526MOL0     C69338   7.047   1.562   3.711  0.1843 -0.2075 -0.2006
  526MOL0     C69339   6.961   1.518   3.829 -0.0462 -0.0381  0.3695
  526MOL0     C69340   6.834   1.445   3.801  0.3176  0.3367  0.9630
  526MOL0     C69341   6.721   1.536   3.747  0.9110  0.3228 -0.6928
  526MOL0     C69342   6.578   1.474   3.731  0.3393 -0.4398 -0.2366
  526MOL0     C69343   6.521   1.419   3.860 -0.9595  0.9572 -0.2349
  526MOL0    Cl69344   6.349   1.445   3.838 -0.6015 -0.4494  0.2261
  526MOL0     C69345   7.392   1.273   3.314  0.4951 -0.8300  0.4492
  526MOL0     C69346   7.494   1.282   3.225  0.2584  0.3797  0.6311
  526MOL0     O69347   7.566   1.516   2.870 -0.1453 -0.0297  1.2649
  526MOL0     C69348   7.811   1.507   2.754  0.7020  0.3593  0.0974
  526MOL0     C69349   7.926   1.488   2.682 -0.2274  0.3520  0.4258
  526MOL0     N69350   8.751   1.584   2.718 -0.1123 -0.3899  1.2305
  526MOL0     N69351   8.813   1.696   2.694  0.3342  0.2212 -0.5592
  526MOL0     C69352   8.863   1.386   3.266  0.1448  0.0894 -0.4959
  526MOL0     C69353   8.829   1.275   3.190 -0.5492 -1.3868  0.1347
  526MOL0     C69354   8.854   0.970   2.838  0.1032 -0.0117  0.4024
  526MOL0     C69355   8.923   0.903   2.734  0.0989  0.4445  0.6353
  526MOL0     C69356   8.890   0.774   2.693 -0.0841  0.4035  0.1338
  526MOL0     C69357   8.772   0.713   2.737  0.8281 -0.3317 -0.4336
  526MOL0     O69358   8.745   0.592   2.669 -0.1748 -0.6523  0.0856
  526MOL0     C69359   8.621   0.583   2.600  0.5278  0.3623  0.1605
  526MOL0     C69360   8.627   0.663   2.467  0.8148 -0.8886  0.4556
  526MOL0     C69361   8.724   0.595   2.368  0.7830 -0.1285  0.9618
  526MOL0     C69362   8.689   0.631   2.218 -0.0714 -0.5190 -0.0352
  526MOL0     C69363   8.795   0.569   2.141 -0.0061  0.6513 -0.3039
  526MOL0     C69364   8.883   0.509   2.086 -0.2553 -0.0021 -0.5266
  526MOL0     C69365   8.701   0.769   2.843 -0.9855 -0.4366 -0.8093
  526MOL0     C69366   8.745   0.898   2.889 -0.4204  0.3268  1.0229
  526MOL0     H69367   8.899   1.399   2.889  1.3293 -4.1161  1.0165
  526MOL0     H69368   8.933   1.601   3.023  1.6935  2.8997  4.0193
  526MOL0     H69369   9.108   1.657   3.175 -3.2998 -1.0284 -0.5961
  526MOL0     H69370   9.121   1.726   3.330  0.6227 -0.0101  1.0381
  526MOL0     H69371   8.901   1.863   3.269 -1.0636  2.0895 -0.9797
  526MOL0     H69372   8.924   1.791   3.105 -0.3606 -0.0844  0.0206
  526MOL0     H69373   9.144   1.905   3.085  0.3552 -0.5644  0.2549
  526MOL0     H69374   9.127   1.954   3.262 -0.2040  3.5653 -0.0930
  526MOL0     H69375   8.936   2.093   3.192 -3.0679  0.7040 -1.5854
  526MOL0     H69376   9.081   2.129   3.096 -0.0719 -0.9231 -0.9514
  526MOL0     H69377   8.865   2.128   2.959  1.6743 -0.1793 -2.6812
  526MOL0     H69378   8.839   1.963   3.016  0.0570 -0.2375  0.6777
  526MOL0     H69379   9.038   1.886   2.873  2.1855  1.1285 -2.5504
  526MOL0     H69380   9.071   2.043   2.819 -1.3482  0.5623 -2.1581
  526MOL0     H69381   8.892   2.079   2.684 -0.8724 -2.3142 -2.2726
  526MOL0     H69382   8.938   1.902   2.677  2.9687 -2.9070  5.5834
  526MOL0     H69383   8.703   1.977   2.669 -0.5377  2.8040  0.7543
  526MOL0     H69384   8.704   1.990   2.834  1.5557  1.2617 -1.4745
  526MOL0     H69385   8.553   1.766   2.884 -2.0134 -3.4954  0.1316
  526MOL0     H69386   8.495   1.539   2.941 -0.4173  2.0901 -0.1024
  526MOL0     H69387   8.615   1.420   2.919  0.6851  1.3752  0.9779
  526MOL0     H69388   8.506   1.384   2.662 -1.9629  0.8737 -1.1762
  526MOL0     H69389   8.431   1.535   2.706 -1.8074 -0.3210  1.7721
  526MOL0     H69390   8.390   1.281   2.849 -1.8967 -3.3091 -2.7416
  526MOL0     H69391   8.278   1.428   2.860 -3.1963 -1.1361 -2.5919
  526MOL0     H69392   8.212   1.215   2.712  0.3838 -0.4101  1.2134
  526MOL0     H69393   8.316   1.304   2.603 -2.8446 -1.5099 -0.4039
  526MOL0     H69394   8.080   1.251   2.866  1.3661  1.7994  1.7857
  526MOL0     H69395   7.862   1.280   2.996  0.8392 -0.0070 -0.7707
  526MOL0     H69396   7.441   1.581   3.097 -2.9548  0.6034  1.2178
  526MOL0     H69397   7.246   1.564   3.243  0.0401 -0.6599 -1.5143
  526MOL0     H69398   7.137   1.578   3.446  1.1917 -1.3489 -2.6398
  526MOL0     H69399   7.279   1.525   3.544 -1.0710  0.5329  0.7249
  526MOL0     H69400   7.131   1.366   3.660  2.1584  1.1000 -1.3091
  526MOL0     H69401   6.998   1.409   3.562 -0.2771  0.5050 -0.3395
  526MOL0     H69402   6.983   1.639   3.667 -0.9904 -1.1063 -0.1366
  526MOL0     H69403   7.138   1.612   3.743 -0.1583  1.3571 -1.5750
  526MOL0     H69404   7.029   1.457   3.889  0.6535  0.3081 -0.0498
  526MOL0     H69405   6.928   1.601   3.891  0.6630  1.0101 -0.6089
  526MOL0     H69406   6.797   1.410   3.898 -0.5807  0.4318  0.6661
  526MOL0     H69407   6.850   1.370   3.723  0.1665  1.9280 -0.6688
  526MOL0     H69408   6.743   1.554   3.641 -3.1108 -2.1348 -2.1827
  526MOL0     H69409   6.699   1.623   3.810 -0.0769 -1.8105  2.1541
  526MOL0     H69410   6.515   1.552   3.688 -2.6290 -2.1336  0.7757
  526MOL0     H69411   6.583   1.402   3.649  2.8266  1.8123 -2.2638
  526MOL0     H69412   6.558   1.467   3.952  3.6949 -0.8802 -0.8759
  526MOL0     H69413   6.552   1.315   3.865  0.4828  1.3343 -0.6571
  526MOL0     H69414   7.386   1.179   3.368  0.9637 -2.1725 -1.7206
  526MOL0     H69415   7.572   1.206   3.230 -1.1673 -1.2077 -0.4731
  526MOL0     H69416   7.745   1.575   2.701 -2.4170 -2.2951  0.3068
  526MOL0     H69417   7.950   1.552   2.598 -1.0342 -3.3695 -2.9671
  526MOL0     H69418   8.877   1.371   3.372  2.1160 -1.8145 -0.9364
  526MOL0     H69419   8.809   1.178   3.234 -0.2615 -1.8958 -0.8314
  526MOL0     H69420   9.006   0.956   2.689  0.5963 -1.0072 -0.2157
  526MOL0     H69421   8.953   0.722   2.622  0.9662  0.7545  0.7904
  526MOL0     H69422   8.535   0.613   2.660  1.6170  1.5446  1.1932
  526MOL0     H69423   8.597   0.478   2.579  0.2819  0.8155 -2.1239
  526MOL0     H69424   8.525   0.667   2.428  0.9531 -1.4087  0.0239
  526MOL0     H69425   8.657   0.768   2.471 -0.6437 -0.3964 -0.5639
  526MOL0     H69426   8.731   0.488   2.391 -0.0270 -0.4634 -0.2776
  526MOL0     H69427   8.826   0.630   2.387  1.9345 -1.9899 -1.3186
  526MOL0     H69428   8.589   0.598   2.189 -0.1511 -1.2005  0.9560
  526MOL0     H69429   8.688   0.740   2.210  1.4508 -0.6274 -2.9071
  526MOL0     H69430   8.953   0.442   2.042  2.1754  3.1293 -1.8429
  526MOL0     H69431   8.609   0.736   2.891 -1.3718  2.0941  0.3628
  526MOL0     H69432   8.688   0.950   2.966 -0.3648 -0.4983  1.6347
  527MOL0     O69433  10.338   4.631   9.519 -0.3541  0.3302  0.3425
  527MOL0     C69434  10.418   4.560   9.581  0.6147 -0.0040 -0.3134
  527MOL0     O69435  10.425   4.538   9.714  0.6671 -0.0638  0.4777
  527MOL0     C69436  10.328   4.570   9.807  0.5515 -0.9868  0.3635
  527MOL0     C69437  10.190   4.564   9.797  0.1331  1.2379  0.4437
  527MOL0     C69438  10.101   4.582   9.903  0.4455  1.2324  0.2197
  527MOL0     C69439  10.156   4.624  10.029 -0.0958 -0.7464 -0.3098
  527MOL0     O69440  10.080   4.668  10.137 -0.4805 -0.7103 -0.1267
  527MOL0     C69441  10.036   4.802  10.127 -0.7530 -1.1096 -1.0498
  527MOL0     C69442  10.068   4.879  10.253 -0.5296 -0.5842  0.3189
  527MOL0     C69443  10.200   4.965  10.241  0.7067 -0.1477  0.0226
  527MOL0     C69444  10.179   5.091  10.155  1.3465 -0.2306 -0.8941
  527MOL0     C69445  10.292   5.186  10.158 -0.0761  0.3649  0.2300
  527MOL0     C69446  10.259   5.308  10.061 -0.6941  0.3120  0.1143
  527MOL0     C69447  10.388   5.402  10.052  1.2303 -0.6612  0.3158
  527MOL0     C69448  10.325   5.534   9.992 -0.2096 -0.1028 -0.0088
  527MOL0     N69449  10.431   5.636   9.976  0.4893 -1.2138  0.0039
  527MOL0     C69450  10.505   5.668   9.868  1.4510  1.4474  0.1543
  527MOL0     C69451  10.578   5.778   9.899 -0.1453  0.7659 -0.3507
  527MOL0     C69452  10.703   5.840   9.834  1.0705 -0.5136 -0.9917
  527MOL0     C69453  10.810   5.892   9.932 -0.4097 -0.8906 -0.4836
  527MOL0     C69454  10.936   5.964   9.881  0.0551 -0.3898  0.3908
  527MOL0     C69455  10.908   6.089   9.798 -0.2941  0.2731 -0.3001
  527MOL0     O69456  11.031   6.157   9.771 -0.1193  0.1351  0.2512
  527MOL0     C69457  11.091   6.218   9.878 -0.0856  0.6110 -0.9665
  527MOL0     C69458  11.199   6.157   9.929 -1.0154 -0.5536 -0.7887
  527MOL0     C69459  11.264   6.207  10.044 -0.1059 -0.1664  0.6536
  527MOL0     C69460  11.207   6.306  10.114 -0.0678 -0.2472  0.8190
  527MOL0     C69461  11.266   6.356  10.241  1.4729  0.7135 -0.1015
  527MOL0     O69462  11.191   6.449  10.312  0.3690 -0.4427 -0.6210
  527MOL0     C69463  11.231   6.529  10.417 -0.5062  0.5744 -0.6175
  527MOL0     C69464  11.368   6.554  10.471  0.0659  0.6658 -0.5738
  527MOL0     C69465  11.372   6.658  10.570 -0.4628 -0.7358 -0.5748
  527MOL0     C69466  11.271   6.739  10.618 -1.3191  0.4241  0.9786
  527MOL0     O69467  11.281   6.819  10.726 -0.5276 -1.1190 -0.4017
  527MOL0     C69468  11.248   6.954  10.699 -0.0166 -0.3441 -0.2992
  527MOL0     C69469  11.290   7.034  10.833  0.1525 -0.9496  0.2758
  527MOL0     C69470  11.234   7.177  10.820 -0.6962 -0.2599  0.8471
  527MOL0     C69471  11.339   7.278  10.866 -0.0453  0.0006  0.8331
  527MOL0     C69472  11.288   7.417  10.850 -0.9243 -0.6993 -0.5455
  527MOL0     C69473  11.289   7.472  10.715  0.1476  0.3444  0.1986
  527MOL0     C69474  11.434   7.468  10.653  0.0989  0.0060  0.1740
  527MOL0     C69475  11.461   7.554  10.531 -0.3958 -1.1538 -0.0699
  527MOL0    Cl69476  11.633   7.544  10.501 -0.5918 -0.3475 -0.2429
  527MOL0     C69477  11.151   6.713  10.561  0.8922  0.7225  0.6967
  527MOL0     C69478  11.126   6.606  10.462  0.8185 -0.3024 -1.2118
  527MOL0     O69479  11.381   6.317  10.270 -0.3432 -0.9273  0.0405
  527MOL0     C69480  11.092   6.366  10.060  0.4472 -0.4612  0.2835
  527MOL0     C69481  11.026   6.313   9.954 -0.7900 -1.7578 -0.5582
  527MOL0     N69482  10.542   5.804  10.037 -1.0045 -0.4239  0.4367
  527MOL0     N69483  10.453   5.722  10.075 -0.3923  0.0677 -0.9313
  527MOL0     C69484  10.298   4.640  10.039 -0.5604  0.2772 -0.6585
  527MOL0     C69485  10.381   4.606   9.934  0.5831 -0.1915  0.0296
  527MOL0     C69486  10.539   4.511   9.503  0.1822  0.2468  0.3145
  527MOL0     C69487  10.634   4.422   9.546  0.2781  0.9247  0.9113
  527MOL0     C69488  10.744   4.390   9.468 -0.6226 -0.6781  0.2883
  527MOL0     C69489  10.764   4.452   9.338 -0.3628  0.2525 -0.7977
  527MOL0     O69490  10.887   4.429   9.277  0.2916  0.2872  0.0866
  527MOL0     C69491  10.899   4.461   9.140  0.5630  0.5896  1.2910
  527MOL0     C69492  10.803   4.369   9.058 -1.1468  0.9505 -0.4646
  527MOL0     C69493  10.867   4.315   8.937 -0.7677 -0.2670  0.5359
  527MOL0     C69494  10.764   4.251   8.855  0.1407  0.3456 -0.3858
  527MOL0     C69495  10.831   4.203   8.728 -0.4174 -0.5504 -0.4237
  527MOL0     C69496  10.877   4.165   8.619  0.1336 -0.6730  0.9369
  527MOL0     C69497  10.655   4.530   9.286 -0.6582  0.2400 -0.9884
  527MOL0     C69498  10.550   4.561   9.372  0.6697  0.3571 -1.5195
  527MOL0     H69499  10.147   4.540   9.700 -2.0570  0.9921  1.4096
  527MOL0     H69500   9.993   4.585   9.895  0.0384 -1.9620  2.5239
  527MOL0     H69501   9.929   4.818  10.112 -0.7091  0.2341 -0.1381
  527MOL0     H69502  10.077   4.838  10.032  0.5041 -2.7388 -1.1739
  527MOL0     H69503  10.091   4.803  10.328  1.5778 -0.4619 -0.1179
  527MOL0     H69504   9.984   4.945  10.279  2.4397  3.3509  1.0220
  527MOL0     H69505  10.277   4.903  10.193  1.3711  1.0556 -0.5126
  527MOL0     H69506  10.232   4.999  10.339 -1.7329 -1.3907  1.3423
  527MOL0     H69507  10.159   5.058  10.053 -0.9292  1.9245 -1.2425
  527MOL0     H69508  10.088   5.136  10.193  0.6066  0.2873 -3.1041
  527MOL0     H69509  10.378   5.124  10.129 -0.7297 -1.0314  1.1537
  527MOL0     H69510  10.298   5.225  10.260 -0.5754  0.6435  0.1573
  527MOL0     H69511  10.173   5.363  10.099 -0.0847  0.0825  1.9461
  527MOL0     H69512  10.253   5.268   9.960  0.1315 -0.4351  0.3435
  527MOL0     H69513  10.422   5.433  10.150  1.6331 -0.3163  0.0694
  527MOL0     H69514  10.474   5.364   9.997  2.3982  0.3081  1.4423
  527MOL0     H69515  10.251   5.579  10.059 -0.4423  0.4596 -0.6323
  527MOL0     H69516  10.287   5.509   9.892 -0.3461  0.5376 -0.1197
  527MOL0     H69517  10.502   5.602   9.782  0.5187 -0.4400  1.5371
  527MOL0     H69518  10.673   5.927   9.774 -0.5269 -1.0240 -0.9590
  527MOL0     H69519  10.748   5.761   9.773  4.2548 -0.7663  1.4275
  527MOL0     H69520  10.833   5.804   9.992 -1.1255  1.0463  2.8578
  527MOL0     H69521  10.754   5.958   9.999  0.2845  0.3137 -1.0498
  527MOL0     H69522  11.008   5.986   9.961  3.9082  0.6359 -3.0497
  527MOL0     H69523  11.003   5.909   9.815  1.0645  2.4336 -1.1105
  527MOL0     H69524  10.847   6.160   9.855  3.6092  1.7674  2.3867
  527MOL0     H69525  10.857   6.067   9.703  1.1955 -2.5330 -0.5610
  527MOL0     H69526  11.240   6.076   9.869 -1.4935 -1.0867 -0.4150
  527MOL0     H69527  11.362   6.177  10.079 -0.7821  0.4234  3.2894
  527MOL0     H69528  11.453   6.501  10.430  1.7081  2.4280  0.3935
  527MOL0     H69529  11.469   6.694  10.601  0.6649 -4.2360  0.4607
  527MOL0     H69530  11.139   6.965  10.698 -0.2862 -1.7678  2.5056
  527MOL0     H69531  11.298   7.004  10.616 -0.3328  2.9534  1.3480
  527MOL0     H69532  11.399   7.033  10.849  0.1868  0.8511  0.3497
  527MOL0     H69533  11.242   6.988  10.919 -1.0531  0.3053  0.3087
  527MOL0     H69534  11.159   7.192  10.898 -2.2209  1.1231 -0.8091
  527MOL0     H69535  11.187   7.200  10.724 -2.3084  0.3045  1.7339
  527MOL0     H69536  11.349   7.243  10.969 -1.5614 -2.1380  0.3489
  527MOL0     H69537  11.434   7.269  10.814 -0.4607 -2.2174  0.3211
  527MOL0     H69538  11.347   7.485  10.911 -1.8517  0.5682 -1.0247
  527MOL0     H69539  11.182   7.422  10.879 -0.7506 -0.2559  0.0299
  527MOL0     H69540  11.258   7.577  10.724  3.3122  1.4315 -0.3874
  527MOL0     H69541  11.222   7.424  10.642  0.7032 -0.3004  0.0993
  527MOL0     H69542  11.503   7.500  10.732  0.6993 -3.4430  1.2515
  527MOL0     H69543  11.464   7.368  10.618 -0.5510  0.5159 -1.9735
  527MOL0     H69544  11.430   7.657  10.554 -2.2641 -1.1199 -2.3571
  527MOL0     H69545  11.407   7.529  10.440  2.5529 -0.7914 -2.0415
  527MOL0     H69546  11.067   6.762  10.610  1.3936 -0.8645  3.3388
  527MOL0     H69547  11.028   6.584  10.420  0.2216  1.4290 -0.8315
  527MOL0     H69548  11.029   6.438  10.110 -0.4342 -0.4628 -0.7850
  527MOL0     H69549  10.929   6.354   9.926 -0.8482 -0.6533  1.1698
  527MOL0     H69550  10.338   4.680  10.132  1.2886 -1.6494 -0.5560
  527MOL0     H69551  10.489   4.607   9.947  0.3991 -0.5214  1.7619
  527MOL0     H69552  10.620   4.380   9.646 -0.8163 -2.0794 -0.3966
  527MOL0     H69553  10.821   4.319   9.495  2.4914  3.1967  2.8321
  527MOL0     H69554  11.004   4.457   9.111  0.2679  3.1672 -0.4731
  527MOL0     H69555  10.872   4.566   9.132 -0.3744  0.2894  0.0856
  527MOL0     H69556  10.769   4.286   9.121 -1.3514  2.0924  0.9885
  527MOL0     H69557  10.720   4.432   9.024 -1.1083  0.2963 -1.8362
  527MOL0     H69558  10.956   4.253   8.949  0.6241  0.9314 -2.6141
  527MOL0     H69559  10.905   4.396   8.874  0.6831 -2.3643 -1.4769
  527MOL0     H69560  10.707   4.178   8.915 -0.0101 -0.3825 -1.3893
  527MOL0     H69561  10.688   4.320   8.815 -0.3872 -0.3239 -0.5591
  527MOL0     H69562  10.917   4.110   8.536  0.0914 -0.3532  0.7010
  527MOL0     H69563  10.658   4.591   9.196  1.4578  0.9834 -0.4818
  527MOL0     H69564  10.467   4.616   9.331 -0.4178 -0.9598 -1.1546
  528MOL0     O69565   9.012   5.768   0.119 -0.4444  0.2867 -0.0177
  528MOL0     C69566   9.062   5.875   0.076  0.2158 -0.4006  1.0904
  528MOL0     O69567   8.996   5.973  -0.003 -0.2714  0.4666 -0.3709
  528MOL0     C69568   8.864   5.949  -0.057  0.4217 -0.5544 -1.3912
  528MOL0     C69569   8.763   5.864  -0.015  0.2400  0.3177  0.4400
  528MOL0     C69570   8.637   5.864  -0.081  0.6091  0.0047  0.9588
  528MOL0     C69571   8.617   5.958  -0.184  0.5402  1.2706  0.0978
  528MOL0     O69572   8.498   5.946  -0.251 -0.4878  0.3395  0.6950
  528MOL0     C69573   8.464   6.047  -0.355 -0.0197  0.4188 -1.4719
  528MOL0     C69574   8.309   6.053  -0.394 -0.8061 -0.5488 -0.5206
  528MOL0     C69575   8.255   5.919  -0.430 -0.7982 -0.2229  0.0939
  528MOL0     C69576   8.137   5.942  -0.526 -0.0042  0.4532 -0.3188
  528MOL0     C69577   8.027   5.839  -0.535  0.2638 -0.0621 -0.1465
  528MOL0     C69578   8.072   5.686  -0.573 -1.8551 -0.7972  0.8825
  528MOL0     C69579   7.950   5.600  -0.594 -0.5116  0.5581  0.7954
  528MOL0     C69580   7.857   5.625  -0.719  0.5852  0.3847  0.5812
  528MOL0     N69581   7.918   5.599  -0.850 -0.4704 -1.0229  0.5440
  528MOL0     C69582   7.839   5.558  -0.962 -0.1762 -0.5399 -0.9704
  528MOL0     C69583   7.914   5.588  -1.067 -0.6086  0.8074 -0.6545
  528MOL0     C69584   7.890   5.545  -1.206 -0.7647 -0.3704 -1.2657
  528MOL0     C69585   7.929   5.646  -1.314  0.6282  0.6920 -0.0875
  528MOL0     C69586   8.077   5.648  -1.356  0.4051  0.2196 -0.2861
  528MOL0     C69587   8.127   5.529  -1.441  0.3890 -0.0779 -0.1783
  528MOL0     O69588   8.027   5.471  -1.527 -0.0276  0.0645  0.5247
  528MOL0     C69589   7.991   5.556  -1.633  0.4364  0.5723  0.2229
  528MOL0     C69590   8.066   5.659  -1.687  0.3905  0.5242 -0.6477
  528MOL0     C69591   8.007   5.753  -1.772 -0.5160  0.2166  0.2384
  528MOL0     C69592   7.877   5.736  -1.821  1.1441 -0.1269  0.3732
  528MOL0     C69593   7.821   5.837  -1.911 -0.3504  1.0470 -1.1158
  528MOL0     O69594   7.695   5.805  -1.957 -0.0247 -0.0977 -1.0366
  528MOL0     C69595   7.613   5.914  -1.998  0.3746  0.0334  0.6687
  528MOL0     C69596   7.510   5.884  -2.088  0.7751  1.1461 -0.0570
  528MOL0     C69597   7.409   5.980  -2.124 -0.4190  0.2485 -0.1263
  528MOL0     C69598   7.408   6.109  -2.073  0.5438 -0.2259 -0.6067
  528MOL0     O69599   7.307   6.193  -2.090  0.0830  0.4740 -0.6661
  528MOL0     C69600   7.325   6.329  -2.116  0.5287 -1.2737 -0.4282
  528MOL0     C69601   7.281   6.347  -2.261 -0.5436 -0.1419 -0.7001
  528MOL0     C69602   7.229   6.490  -2.281  0.1675 -0.1207 -0.1944
  528MOL0     C69603   7.232   6.515  -2.433  0.1982 -0.3133 -0.5659
  528MOL0     C69604   7.174   6.654  -2.460 -0.3028  0.1554  0.0717
  528MOL0     C69605   7.133   6.673  -2.604  0.6044 -0.6173 -0.0009
  528MOL0     C69606   7.068   6.821  -2.614 -0.6238  0.6586  0.0707
  528MOL0     C69607   6.957   6.838  -2.711 -0.0562  1.0416  0.1545
  528MOL0    Cl69608   6.985   6.769  -2.876 -0.3554  0.2232  0.7120
  528MOL0     C69609   7.510   6.145  -1.978  0.2836  0.3943 -0.4189
  528MOL0     C69610   7.607   6.050  -1.942 -0.5916  0.3059  0.6724
  528MOL0     O69611   7.885   5.948  -1.932  0.3273 -0.3061 -0.6313
  528MOL0     C69612   7.811   5.615  -1.784 -0.1187  0.7694  0.6254
  528MOL0     C69613   7.856   5.538  -1.680 -0.6000  0.1276  0.8923
  528MOL0     N69614   8.023   5.654  -1.031 -0.5668  0.0280 -0.4368
  528MOL0     N69615   8.028   5.659  -0.899 -0.5952 -0.2666  0.8601
  528MOL0     C69616   8.715   6.050  -0.209 -0.1264  0.1290 -0.3554
  528MOL0     C69617   8.834   6.037  -0.157  0.5616  0.8892  0.2458
  528MOL0     C69618   9.196   5.913   0.123 -0.4958  0.2437 -0.7839
  528MOL0     C69619   9.263   5.839   0.224 -0.3812 -1.4306 -0.8907
  528MOL0     C69620   9.393   5.875   0.263 -0.7768  0.3581 -0.1984
  528MOL0     C69621   9.451   5.992   0.207 -0.6648 -0.8269  0.2178
  528MOL0     O69622   9.584   6.017   0.233  0.3384  0.0704 -0.3540
  528MOL0     C69623   9.676   5.959   0.133  0.1059 -0.2239  0.7396
  528MOL0     C69624   9.722   6.057   0.027  0.7062 -0.4689  0.3364
  528MOL0     C69625   9.776   6.193   0.074  0.5001  0.1758  0.7416
  528MOL0     C69626   9.843   6.273  -0.045 -0.5116  0.0540  0.1485
  528MOL0     C69627   9.762   6.339  -0.148  0.2393 -0.1469 -0.7843
  528MOL0     C69628   9.677   6.405  -0.212 -0.7421  0.1110  0.0523
  528MOL0     C69629   9.387   6.072   0.106  0.5704 -0.1173  0.8758
  528MOL0     C69630   9.252   6.027   0.073 -0.9191  0.6432  0.4407
  528MOL0     H69631   8.779   5.780   0.052  2.6903  0.2089 -0.2006
  528MOL0     H69632   8.569   5.786  -0.049 -1.3780  0.7409 -1.2189
  528MOL0     H69633   8.534   6.032  -0.438  0.1387  2.8382 -1.8311
  528MOL0     H69634   8.487   6.147  -0.316 -0.9478 -0.1557  0.7029
  528MOL0     H69635   8.306   6.107  -0.489 -0.0482 -2.6126 -1.7632
  528MOL0     H69636   8.263   6.117  -0.318  1.6223 -1.6454  2.0580
  528MOL0     H69637   8.225   5.873  -0.335  1.3753  0.2458  1.0798
  528MOL0     H69638   8.322   5.850  -0.483 -2.1273 -3.6402  2.4556
  528MOL0     H69639   8.083   6.033  -0.498  0.3473  1.2171 -1.9910
  528MOL0     H69640   8.172   5.966  -0.627 -1.5436  0.6221 -0.8393
  528MOL0     H69641   7.944   5.886  -0.588 -0.4892  2.7539  3.1606
  528MOL0     H69642   7.975   5.839  -0.439 -1.2353  2.5983 -0.8366
  528MOL0     H69643   8.145   5.642  -0.504  1.7693  1.4635 -1.1554
  528MOL0     H69644   8.128   5.688  -0.667 -1.9684 -0.6231  0.8180
  528MOL0     H69645   7.984   5.496  -0.598 -1.1393  0.3920 -1.4287
  528MOL0     H69646   7.871   5.604  -0.518 -1.8144 -2.2202 -0.2771
  528MOL0     H69647   7.823   5.728  -0.706  1.5216  0.7791 -0.0419
  528MOL0     H69648   7.766   5.565  -0.706  0.0559  1.0696  0.1086
  528MOL0     H69649   7.743   5.507  -0.961 -0.6508  0.3120  0.6827
  528MOL0     H69650   7.783   5.523  -1.202 -0.1285 -3.6921  1.0145
  528MOL0     H69651   7.951   5.461  -1.240  0.9294  0.6451 -0.8866
  528MOL0     H69652   7.918   5.749  -1.279  1.6906  0.1817  1.9228
  528MOL0     H69653   7.870   5.638  -1.406 -2.0087  1.0697  1.4737
  528MOL0     H69654   8.088   5.738  -1.418 -2.2441  0.6116 -0.3409
  528MOL0     H69655   8.131   5.647  -1.261  0.1756 -1.1811 -0.1525
  528MOL0     H69656   8.149   5.448  -1.370 -2.7249  0.1283  1.2221
  528MOL0     H69657   8.221   5.559  -1.488 -0.3450 -0.0170 -1.6720
  528MOL0     H69658   8.173   5.661  -1.672  0.9444  0.9218 -4.0419
  528MOL0     H69659   8.065   5.838  -1.805 -0.5013  0.1581  0.1100
  528MOL0     H69660   7.506   5.783  -2.128  3.2860 -1.6265  5.5917
  528MOL0     H69661   7.329   5.946  -2.188  0.8373 -3.1562 -0.0768
  528MOL0     H69662   7.425   6.370  -2.102 -1.1269  4.3820 -2.3911
  528MOL0     H69663   7.265   6.392  -2.049  0.4376 -0.2103 -1.4966
  528MOL0     H69664   7.211   6.269  -2.292 -0.9311 -0.2727  0.4637
  528MOL0     H69665   7.373   6.329  -2.318  0.3250  1.3191  0.1752
  528MOL0     H69666   7.275   6.570  -2.222 -1.2340  1.3278 -0.9987
  528MOL0     H69667   7.127   6.498  -2.240  0.4701  0.2647  0.5048
  528MOL0     H69668   7.329   6.502  -2.482  0.8101 -1.0914  0.8011
  528MOL0     H69669   7.162   6.439  -2.469 -1.0450 -1.8744  4.3906
  528MOL0     H69670   7.245   6.731  -2.426 -1.7157  0.0108  3.8399
  528MOL0     H69671   7.081   6.667  -2.405 -0.5188 -3.7609  0.9387
  528MOL0     H69672   7.065   6.593  -2.635 -2.1826  0.4070  2.8107
  528MOL0     H69673   7.210   6.688  -2.679 -0.0396 -1.9997 -0.9822
  528MOL0     H69674   7.033   6.858  -2.517  1.6320  1.6856  0.5604
  528MOL0     H69675   7.144   6.891  -2.648  0.8106 -1.6036 -1.6755
  528MOL0     H69676   6.943   6.946  -2.718  3.4867  1.5423 -1.6420
  528MOL0     H69677   6.875   6.788  -2.658 -0.1160  0.5663 -0.3795
  528MOL0     H69678   7.505   6.234  -1.917  0.7902 -0.6594  1.2432
  528MOL0     H69679   7.685   6.076  -1.872  0.3329  0.4084 -0.3827
  528MOL0     H69680   7.709   5.609  -1.821 -0.0807  1.0248  0.4763
  528MOL0     H69681   7.809   5.453  -1.632  1.0317 -1.7130 -0.5775
  528MOL0     H69682   8.691   6.137  -0.270 -0.8478 -2.0007 -3.3781
  528MOL0     H69683   8.908   6.112  -0.187  0.3363  2.5269  3.3412
  528MOL0     H69684   9.223   5.757   0.282 -1.4548 -1.3151 -1.4605
  528MOL0     H69685   9.435   5.824   0.348  2.6677 -2.7147 -3.3535
  528MOL0     H69686   9.637   5.869   0.085 -0.4714  0.7670 -0.7468
  528MOL0     H69687   9.761   5.911   0.183  3.4808  0.1235 -3.9866
  528MOL0     H69688   9.799   6.003  -0.028 -0.9127 -0.5403 -2.0431
  528MOL0     H69689   9.631   6.069  -0.034 -0.4053 -1.4663  1.7418
  528MOL0     H69690   9.831   6.185   0.168  3.6585  1.5631 -0.8611
  528MOL0     H69691   9.684   6.246   0.102 -1.6033 -0.9415 -3.1713
  528MOL0     H69692   9.899   6.347   0.012 -0.9796  0.7297 -0.2609
  528MOL0     H69693   9.910   6.217  -0.112  1.3289  4.9030 -2.5357
  528MOL0     H69694   9.611   6.474  -0.260 -0.8702  0.3898  0.6188
  528MOL0     H69695   9.437   6.154   0.055  3.6159 -1.8550  0.8860
  528MOL0     H69696   9.207   6.072  -0.016  1.9206 -0.2094 -1.5533
  529MOL0     O69697   9.308   9.286   5.121 -0.9372 -0.0784 -0.2785
  529MOL0     C69698   9.268   9.402   5.130 -1.1636 -0.1032  0.1583
  529MOL0     O69699   9.135   9.432   5.125  0.6341  0.2027  0.9162
  529MOL0     C69700   9.049   9.340   5.090 -0.7049  0.3303 -0.4590
  529MOL0     C69701   8.968   9.310   5.200  0.1512 -0.1277 -0.1515
  529MOL0     C69702   8.884   9.200   5.199  0.4027  0.1076 -0.1604
  529MOL0     C69703   8.871   9.129   5.074 -0.9613 -0.2665  0.1216
  529MOL0     O69704   8.775   9.031   5.052  0.6322  0.3081 -0.5168
  529MOL0     C69705   8.676   9.002   5.144  0.5490 -0.0821 -0.7832
  529MOL0     C69706   8.717   8.924   5.264  0.9568 -0.1302 -0.3217
  529MOL0     C69707   8.720   8.782   5.204  0.3481  0.9673 -1.0940
  529MOL0     C69708   8.741   8.675   5.316  0.4531 -0.2512 -0.2857
  529MOL0     C69709   8.849   8.577   5.268 -0.3364  0.2624 -0.4640
  529MOL0     C69710   8.862   8.460   5.366 -0.3233 -0.2140 -0.3143
  529MOL0     C69711   8.950   8.349   5.303  0.6744 -0.2556 -0.1733
  529MOL0     C69712   9.002   8.252   5.407  0.3436  0.1965  0.9686
  529MOL0     N69713   9.125   8.295   5.467 -0.1023 -0.1147  0.0133
  529MOL0     C69714   9.145   8.323   5.600 -0.0137 -0.0533 -0.1925
  529MOL0     C69715   9.270   8.365   5.617  0.5239 -0.2930 -0.0291
  529MOL0     C69716   9.326   8.409   5.751  0.1937 -0.1576  0.9371
  529MOL0     C69717   9.471   8.365   5.780  0.6414  0.0939 -0.1788
  529MOL0     C69718   9.468   8.248   5.870 -0.2137  0.3081  0.7839
  529MOL0     C69719   9.604   8.183   5.884  0.6558 -0.0931 -1.0700
  529MOL0     O69720   9.595   8.100   5.996  0.2409  0.2146 -1.0375
  529MOL0     C69721   9.638   7.970   5.980 -0.7231 -0.9189 -0.0426
  529MOL0     C69722   9.745   7.933   5.888  1.5129 -0.4077  0.2184
  529MOL0     C69723   9.785   7.806   5.879 -1.0580  1.1312  0.3941
  529MOL0     C69724   9.737   7.711   5.972  0.5502 -0.0203 -0.5089
  529MOL0     C69725   9.801   7.575   5.971  0.0278 -0.0681 -0.1196
  529MOL0     O69726   9.884   7.553   5.867 -0.1282  0.0754  0.2841
  529MOL0     C69727   9.908   7.422   5.845  0.5006 -0.2670 -0.2811
  529MOL0     C69728  10.014   7.350   5.900 -0.3256 -0.8554 -0.1108
  529MOL0     C69729  10.031   7.207   5.871  0.7438 -1.2339 -0.6115
  529MOL0     C69730   9.927   7.131   5.813  0.8899 -0.8103  0.1090
  529MOL0     O69731   9.904   6.997   5.785 -1.1889 -0.3667 -1.0961
  529MOL0     C69732  10.016   6.924   5.832  0.3591  0.7954 -0.0082
  529MOL0     C69733  10.008   6.797   5.783  0.8779  0.1718  0.0378
  529MOL0     C69734  10.079   6.782   5.648  0.0572  0.6532 -1.0595
  529MOL0     C69735  10.071   6.648   5.589 -0.5619  0.0546  0.6143
  529MOL0     C69736  10.116   6.645   5.438 -0.5821  0.2517 -0.6726
  529MOL0     C69737  10.189   6.519   5.393  0.8174  1.2616  0.2253
  529MOL0     C69738  10.085   6.409   5.367 -0.5448  0.3255  0.7688
  529MOL0     C69739  10.133   6.288   5.290 -0.0238 -0.6770  0.1837
  529MOL0    Cl69740  10.255   6.209   5.383  0.3285 -0.3162  0.2840
  529MOL0     C69741   9.813   7.205   5.775 -0.2256  0.6261 -0.7831
  529MOL0     C69742   9.814   7.349   5.774  0.0216  0.1515  0.3726
  529MOL0     O69743   9.776   7.490   6.063 -0.1746 -1.0674  0.9300
  529MOL0     C69744   9.624   7.736   6.048  0.7457 -0.5667 -0.3524
  529MOL0     C69745   9.579   7.870   6.052 -0.5198 -0.1545 -0.6118
  529MOL0     N69746   9.335   8.356   5.490 -0.2516  0.1234 -1.2527
  529MOL0     N69747   9.249   8.314   5.401  0.5980  0.4092  0.2801
  529MOL0     C69748   8.956   9.157   4.963 -0.1635 -0.1065 -0.5671
  529MOL0     C69749   9.048   9.264   4.973 -0.1133 -0.5376  0.9407
  529MOL0     C69750   9.364   9.514   5.137  0.5738 -0.1639  0.1764
  529MOL0     C69751   9.334   9.632   5.210  0.9384  0.0371  0.1217
  529MOL0     C69752   9.411   9.737   5.223  0.9099 -0.2730 -0.4102
  529MOL0     C69753   9.522   9.734   5.148 -0.3640 -0.1794  0.5631
  529MOL0     O69754   9.610   9.839   5.130  0.3820  0.5706 -0.1173
  529MOL0     C69755   9.545   9.964   5.140 -0.1034 -0.4107  0.1108
  529MOL0     C69756   9.570  10.042   5.271 -0.6780 -1.0885 -1.8537
  529MOL0     C69757   9.510  10.176   5.273  0.4553 -0.0936 -0.4407
  529MOL0     C69758   9.353  10.173   5.279  0.0116 -0.3370 -0.5362
  529MOL0     C69759   9.282  10.295   5.334  0.0865 -0.0148  0.4186
  529MOL0     C69760   9.235  10.398   5.370 -0.7880 -0.0316  0.2711
  529MOL0     C69761   9.574   9.613   5.093 -0.3223 -0.7265 -0.1417
  529MOL0     C69762   9.490   9.505   5.083  0.4469  0.9719 -0.6015
  529MOL0     H69763   8.997   9.371   5.285  3.4785 -2.2765  0.4475
  529MOL0     H69764   8.839   9.166   5.292  0.7534  1.3352  0.4716
  529MOL0     H69765   8.589   8.960   5.093 -1.0070  0.8857  0.9457
  529MOL0     H69766   8.654   9.101   5.187  0.1239 -0.1394 -0.8663
  529MOL0     H69767   8.634   8.929   5.335 -0.1901 -1.0955 -1.5454
  529MOL0     H69768   8.818   8.946   5.301  0.5730 -0.0612  0.7290
  529MOL0     H69769   8.807   8.784   5.138  3.0328  1.5623  2.1647
  529MOL0     H69770   8.623   8.765   5.157 -0.1854 -1.1792  0.6430
  529MOL0     H69771   8.764   8.710   5.417 -0.9909 -0.9946  0.3275
  529MOL0     H69772   8.648   8.617   5.320 -1.3266  2.4254  4.0959
  529MOL0     H69773   8.949   8.621   5.262 -0.5233  0.5394 -2.1810
  529MOL0     H69774   8.826   8.541   5.167  1.7644 -1.2881 -0.4628
  529MOL0     H69775   8.762   8.423   5.391 -0.1362 -0.6014 -0.1229
  529MOL0     H69776   8.908   8.491   5.461 -0.0485 -0.7943 -0.2502
  529MOL0     H69777   8.884   8.303   5.229  0.8548 -1.1347  0.2069
  529MOL0     H69778   9.029   8.400   5.247  1.4554 -0.1076  1.0321
  529MOL0     H69779   9.023   8.152   5.367  1.5830  0.6867  0.3613
  529MOL0     H69780   8.949   8.246   5.503  4.7243  1.7428  3.8019
  529MOL0     H69781   9.073   8.317   5.681  1.5880  0.8280  1.3545
  529MOL0     H69782   9.260   8.375   5.831 -2.2922  0.8990 -0.5133
  529MOL0     H69783   9.312   8.517   5.760  1.4404 -0.0559  1.9188
  529MOL0     H69784   9.515   8.448   5.836 -1.1009  0.7106  0.3371
  529MOL0     H69785   9.544   8.351   5.699 -1.2593 -0.4307 -1.9036
  529MOL0     H69786   9.433   8.267   5.972 -2.0827  1.4956 -0.0275
  529MOL0     H69787   9.394   8.175   5.835  0.3196  0.3524 -0.5051
  529MOL0     H69788   9.682   8.255   5.907 -1.5041  1.9982  0.0657
  529MOL0     H69789   9.624   8.134   5.787 -1.0248 -2.3784 -0.3532
  529MOL0     H69790   9.797   8.008   5.828  0.3288 -0.1767 -0.5590
  529MOL0     H69791   9.874   7.787   5.819  0.8274  1.9413  2.7907
  529MOL0     H69792  10.095   7.401   5.952 -0.3831 -2.6341  1.8245
  529MOL0     H69793  10.118   7.154   5.910  0.8154 -1.1909 -0.7116
  529MOL0     H69794  10.006   6.905   5.939  0.5949 -3.9974 -0.5897
  529MOL0     H69795  10.114   6.969   5.814  0.9657  0.0800  1.3507
  529MOL0     H69796   9.904   6.761   5.782 -0.0963  2.5535  2.5421
  529MOL0     H69797  10.053   6.728   5.855 -1.7869 -3.9334 -1.8286
  529MOL0     H69798  10.184   6.809   5.653  0.2565 -0.2903  0.7633
  529MOL0     H69799  10.051   6.859   5.576 -0.0431 -0.5467 -2.3424
  529MOL0     H69800  10.143   6.586   5.644 -2.0764 -3.7399 -1.2976
  529MOL0     H69801   9.972   6.603   5.603 -1.1646  1.4022  0.8592
  529MOL0     H69802  10.191   6.722   5.416 -3.0412  2.3585 -2.2337
  529MOL0     H69803  10.025   6.676   5.386 -1.0601 -1.6910 -1.0867
  529MOL0     H69804  10.257   6.487   5.472  1.0271  0.1071 -0.3964
  529MOL0     H69805  10.249   6.529   5.302 -2.8709 -1.0466 -2.7954
  529MOL0     H69806  10.048   6.371   5.463  2.0319 -0.5177  1.5267
  529MOL0     H69807  10.004   6.461   5.315  0.4834  0.3664 -0.8760
  529MOL0     H69808  10.173   6.310   5.191 -1.2849  1.8387  0.1504
  529MOL0     H69809  10.047   6.226   5.263  1.5874 -2.1291 -1.9316
  529MOL0     H69810   9.727   7.165   5.722 -1.6183  1.0676  1.0490
  529MOL0     H69811   9.725   7.404   5.745  0.1453  1.7400  2.7186
  529MOL0     H69812   9.580   7.669   6.122  3.4989  0.9847  2.9681
  529MOL0     H69813   9.493   7.899   6.112 -2.4235  0.8299 -3.6193
  529MOL0     H69814   8.959   9.099   4.872 -0.1817  1.8363 -1.8575
  529MOL0     H69815   9.126   9.278   4.899  0.6568  0.5564  1.9358
  529MOL0     H69816   9.236   9.630   5.257  0.4049 -1.8068 -0.9562
  529MOL0     H69817   9.383   9.826   5.279 -0.9746 -0.1017 -1.5215
  529MOL0     H69818   9.440   9.959   5.110  0.1250  0.6069 -0.9145
  529MOL0     H69819   9.593  10.028   5.066 -1.0309  1.6189  1.1765
  529MOL0     H69820   9.542   9.985   5.360  1.8523 -1.4322 -1.2029
  529MOL0     H69821   9.679  10.046   5.282 -0.6671 -0.5396 -2.1292
  529MOL0     H69822   9.553  10.235   5.191  3.1596  0.3795  1.1920
  529MOL0     H69823   9.554  10.226   5.361  1.7227 -0.5557 -0.7946
  529MOL0     H69824   9.313  10.120   5.192 -1.3119 -3.7280  1.8893
  529MOL0     H69825   9.325  10.106   5.361 -4.0310  0.0138 -1.3765
  529MOL0     H69826   9.178  10.486   5.392 -1.3998  1.0003 -4.2622
  529MOL0     H69827   9.675   9.600   5.054 -0.7520 -0.7648 -1.2780
  529MOL0     H69828   9.535   9.411   5.053  0.5421 -0.1903  2.7761
  530MOL0     O69829   9.202   6.473   3.897 -0.3988 -0.2405  1.4178
  530MOL0     C69830   9.104   6.473   3.965 -1.5422 -0.4209 -0.2768
  530MOL0     O69831   9.016   6.570   3.955 -0.0307  0.4247  0.7713
  530MOL0     C69832   9.037   6.680   3.883  0.2525  0.2455  0.7307
  530MOL0     C69833   9.139   6.766   3.916  0.9522  0.6241  0.2143
  530MOL0     C69834   9.172   6.882   3.844 -1.5059  0.2196 -0.4823
  530MOL0     C69835   9.099   6.902   3.727  0.7493 -0.5819  0.6275
  530MOL0     O69836   9.123   7.010   3.644  0.2072 -0.8182  0.4416
  530MOL0     C69837   9.144   6.972   3.506 -0.1008  0.7643  0.1296
  530MOL0     C69838   9.183   7.091   3.418  0.1996 -0.2568  0.3276
  530MOL0     C69839   9.329   7.151   3.438  0.8013  0.2391 -0.1718
  530MOL0     C69840   9.337   7.298   3.374  0.3571  0.6295 -0.6720
  530MOL0     C69841   9.476   7.355   3.342 -0.2899  0.3008  0.1757
  530MOL0     C69842   9.564   7.394   3.455 -0.1196  0.4415 -0.1583
  530MOL0     C69843   9.659   7.281   3.507 -0.6858 -0.1782 -0.8965
  530MOL0     C69844   9.757   7.230   3.400  0.6119  0.2754 -0.1320
  530MOL0     N69845   9.885   7.185   3.448 -0.1912 -1.1827 -0.0834
  530MOL0     C69846   9.917   7.061   3.475  0.3565 -0.1879 -0.5598
  530MOL0     C69847  10.004   7.062   3.580 -1.0423 -0.8636  0.3283
  530MOL0     C69848  10.073   6.950   3.657 -0.5810  0.3334 -0.7057
  530MOL0     C69849  10.098   6.840   3.564  0.3668  0.5192  0.7720
  530MOL0     C69850  10.198   6.746   3.633  0.4583 -0.0619  0.2814
  530MOL0     C69851  10.263   6.647   3.530 -0.4859 -0.3591 -0.3136
  530MOL0     O69852  10.367   6.697   3.441 -0.8503 -0.0761  0.1275
  530MOL0     C69853  10.462   6.778   3.500 -0.1514  0.5136 -0.1011
  530MOL0     C69854  10.552   6.711   3.580 -0.3069 -0.4846  1.3409
  530MOL0     C69855  10.636   6.783   3.661 -0.7694 -0.5379  0.4747
  530MOL0     C69856  10.634   6.927   3.660 -0.1669  0.1088  0.6637
  530MOL0     C69857  10.734   7.013   3.746  0.7805  0.8773 -1.0025
  530MOL0     O69858  10.821   6.928   3.819 -0.0391  0.1432  0.5833
  530MOL0     C69859  10.939   6.977   3.864  0.2828  0.5160  0.7672
  530MOL0     C69860  10.938   7.065   3.970  0.8028 -0.6348 -0.8218
  530MOL0     C69861  11.052   7.113   4.035  0.3383 -0.0753  1.1982
  530MOL0     C69862  11.172   7.074   3.978 -1.0060  0.2056  0.7629
  530MOL0     O69863  11.285   7.112   4.026 -1.3070  0.0391 -0.1196
  530MOL0     C69864  11.287   7.239   4.090 -0.8017  0.8002  0.0803
  530MOL0     C69865  11.427   7.290   4.067 -0.0918  0.2723 -0.1927
  530MOL0     C69866  11.421   7.443   4.112 -0.9066  0.2280  0.0756
  530MOL0     C69867  11.554   7.495   4.074 -0.8379 -0.8089  0.1696
  530MOL0     C69868  11.593   7.628   4.133  1.0531  0.3726 -0.1067
  530MOL0     C69869  11.513   7.740   4.062 -0.1476 -0.0508  0.2058
  530MOL0     C69870  11.567   7.886   4.098 -0.8958 -0.3875  0.3535
  530MOL0     C69871  11.461   7.991   4.064  1.1010  0.6084  0.0007
  530MOL0    Cl69872  11.441   8.006   3.882  0.1442  0.1159  0.0532
  530MOL0     C69873  11.178   6.994   3.860 -0.0426 -0.1207  1.1648
  530MOL0     C69874  11.061   6.943   3.795  0.7670 -1.1670 -0.4300
  530MOL0     O69875  10.741   7.136   3.763 -0.9235 -0.1849  0.8371
  530MOL0     C69876  10.542   6.987   3.576  0.0370 -0.1316 -0.0897
  530MOL0     C69877  10.454   6.916   3.497 -0.0773  0.0323  0.3414
  530MOL0     N69878  10.042   7.197   3.592  0.0981 -0.7621  0.1070
  530MOL0     N69879   9.974   7.268   3.519  0.8718  0.1344  0.1973
  530MOL0     C69880   8.990   6.822   3.697 -0.4938  0.7426  0.0197
  530MOL0     C69881   8.963   6.711   3.777  1.0849 -1.0954  0.2076
  530MOL0     C69882   9.077   6.371   4.073 -0.1425 -0.7388 -0.0964
  530MOL0     C69883   8.955   6.369   4.141  0.0969 -0.4620 -0.9954
  530MOL0     C69884   8.936   6.288   4.256  0.3109  0.0234 -0.7212
  530MOL0     C69885   9.037   6.200   4.295 -0.0224  0.0349 -0.6462
  530MOL0     O69886   9.033   6.119   4.405  0.0052  0.3705 -0.3061
  530MOL0     C69887   8.908   6.119   4.485 -0.8073 -0.6421  0.3747
  530MOL0     C69888   8.935   5.996   4.575  0.2741  1.7242  0.0214
  530MOL0     C69889   8.817   5.971   4.670  0.0399  0.8806 -0.6549
  530MOL0     C69890   8.859   5.862   4.778  1.1470  0.6071  0.2957
  530MOL0     C69891   8.759   5.864   4.890  0.6926  0.0861 -1.4298
  530MOL0     C69892   8.673   5.875   4.973 -0.3264 -1.1213 -0.3086
  530MOL0     C69893   9.152   6.193   4.214  0.5228 -0.1499 -0.5157
  530MOL0     C69894   9.170   6.271   4.103  0.0292  0.5332  0.5117
  530MOL0     H69895   9.201   6.751   4.004  1.2809 -1.6864 -0.3452
  530MOL0     H69896   9.252   6.944   3.882  0.6909 -1.7920 -1.5137
  530MOL0     H69897   9.047   6.944   3.464 -0.6690  3.7611 -0.8102
  530MOL0     H69898   9.213   6.887   3.503 -0.8388  0.1868 -2.1249
  530MOL0     H69899   9.102   7.163   3.432  0.7281  0.2730  0.6983
  530MOL0     H69900   9.180   7.034   3.324 -0.9958 -2.4974  1.6248
  530MOL0     H69901   9.410   7.089   3.399 -0.1613 -2.9523  2.3589
  530MOL0     H69902   9.350   7.158   3.545 -1.5500  0.3780  0.3474
  530MOL0     H69903   9.286   7.288   3.278 -0.5812 -2.9929  0.0785
  530MOL0     H69904   9.287   7.356   3.452  0.6729 -1.5454  1.2469
  530MOL0     H69905   9.459   7.449   3.291 -1.4700  0.6916  1.2075
  530MOL0     H69906   9.530   7.279   3.285  1.3985 -1.6659  4.0064
  530MOL0     H69907   9.503   7.437   3.535  0.4499  0.3831  0.3184
  530MOL0     H69908   9.627   7.472   3.412 -1.7354  3.2304  2.1300
  530MOL0     H69909   9.717   7.340   3.579 -0.6896 -1.8356  0.5025
  530MOL0     H69910   9.596   7.203   3.550 -1.7606  1.1401  0.0388
  530MOL0     H69911   9.767   7.286   3.307  0.9459 -0.5331 -0.6007
  530MOL0     H69912   9.713   7.138   3.359 -0.7651 -0.9321  3.6039
  530MOL0     H69913   9.869   6.979   3.422  1.9048 -0.4919 -1.5531
  530MOL0     H69914  10.031   6.918   3.752  3.9310  0.6291  1.6770
  530MOL0     H69915  10.166   6.997   3.690  1.2583 -0.5884 -4.0253
  530MOL0     H69916  10.145   6.877   3.472  0.7309  0.2367  0.8426
  530MOL0     H69917  10.003   6.807   3.520 -0.0078  0.9984  1.2121
  530MOL0     H69918  10.281   6.795   3.683  0.6031  0.4781 -0.4588
  530MOL0     H69919  10.140   6.685   3.703  1.1060 -0.6460  0.3188
  530MOL0     H69920  10.178   6.619   3.466 -0.7054  0.4944 -0.4005
  530MOL0     H69921  10.312   6.559   3.574  0.8877  0.1001 -0.8561
  530MOL0     H69922  10.548   6.603   3.581 -1.0418 -0.5774 -1.7458
  530MOL0     H69923  10.715   6.740   3.722  0.7019  1.6168  0.1836
  530MOL0     H69924  10.850   7.107   4.017  0.8155 -1.7067  0.1971
  530MOL0     H69925  11.029   7.168   4.125  0.9177 -1.7809  2.4462
  530MOL0     H69926  11.271   7.240   4.198  0.2127  0.4897  0.2370
  530MOL0     H69927  11.214   7.304   4.040 -1.8906 -1.2361 -1.1394
  530MOL0     H69928  11.453   7.275   3.962  0.7155 -2.2016  0.2977
  530MOL0     H69929  11.492   7.232   4.131 -0.2097  1.8314  1.4189
  530MOL0     H69930  11.413   7.441   4.221 -0.9981 -1.4468  0.0720
  530MOL0     H69931  11.331   7.489   4.070 -2.3195 -1.1365  1.4806
  530MOL0     H69932  11.634   7.425   4.100 -0.2462 -0.1029  0.2987
  530MOL0     H69933  11.555   7.501   3.964 -2.6473  1.1944  0.1940
  530MOL0     H69934  11.700   7.637   4.114  0.7477  2.7339 -1.0002
  530MOL0     H69935  11.566   7.634   4.240  0.7890  1.6943 -0.2264
  530MOL0     H69936  11.408   7.731   4.094  0.1987  1.5692  1.9534
  530MOL0     H69937  11.504   7.740   3.953  1.6238 -0.2246  0.0361
  530MOL0     H69938  11.592   7.897   4.204 -2.4151  1.7579  0.5502
  530MOL0     H69939  11.660   7.911   4.046 -0.4716 -0.0773  1.2467
  530MOL0     H69940  11.503   8.084   4.101  1.6028  1.0586 -1.6317
  530MOL0     H69941  11.359   7.965   4.094  0.5033 -0.7467 -2.8164
  530MOL0     H69942  11.278   6.969   3.828 -0.6909 -3.3542  1.3205
  530MOL0     H69943  11.057   6.873   3.712 -2.3117  0.7259 -2.0592
  530MOL0     H69944  10.539   7.095   3.581 -0.3902 -0.1737  0.7890
  530MOL0     H69945  10.367   6.952   3.444 -2.1703 -0.2478  3.3094
  530MOL0     H69946   8.920   6.848   3.618  2.4108  3.1540 -1.9881
  530MOL0     H69947   8.879   6.654   3.737  2.6178 -1.4654 -2.7604
  530MOL0     H69948   8.877   6.440   4.119  2.2817  0.9036 -5.4525
  530MOL0     H69949   8.843   6.285   4.312  1.2710 -0.0742  0.9624
  530MOL0     H69950   8.813   6.110   4.431 -3.0026  2.7963  3.1632
  530MOL0     H69951   8.905   6.209   4.548  0.3796  0.4273 -1.0219
  530MOL0     H69952   8.946   5.898   4.527  2.1707  0.3479  2.9585
  530MOL0     H69953   9.031   6.000   4.628  1.2382 -1.1038 -1.2934
  530MOL0     H69954   8.736   5.933   4.608 -1.3617  1.2891  0.8388
  530MOL0     H69955   8.775   6.052   4.732 -1.2004 -0.8772  0.9042
  530MOL0     H69956   8.859   5.760   4.737  0.8475  0.4854  0.6031
  530MOL0     H69957   8.962   5.872   4.814  1.5956 -1.1017 -0.4049
  530MOL0     H69958   8.617   5.910   5.057  1.5981  0.7092  0.3249
  530MOL0     H69959   9.226   6.120   4.244 -2.0170 -2.7816 -0.2216
  530MOL0     H69960   9.256   6.263   4.038 -1.7495 -0.4965 -1.8584
  531MOL0     O69961   5.104   6.596   0.938 -0.9997 -0.2501  0.9418
  531MOL0     C69962   5.195   6.674   0.910  0.7736  0.0949  0.8825
  531MOL0     O69963   5.201   6.810   0.963  0.6617 -0.1169 -0.5150
  531MOL0     C69964   5.087   6.857   1.023  1.1714  0.6862 -1.5625
  531MOL0     C69965   5.012   6.801   1.130 -0.5173  0.8330 -0.1794
  531MOL0     C69966   4.901   6.871   1.191  0.4998  0.2822  0.5493
  531MOL0     C69967   4.845   6.987   1.131 -1.4027 -0.3374 -0.6623
  531MOL0     O69968   4.753   7.067   1.193  0.0475  0.3517  0.1660
  531MOL0     C69969   4.645   7.112   1.115 -0.6262 -0.4163  0.0382
  531MOL0     C69970   4.545   7.198   1.189 -0.2472 -0.2422  0.2459
  531MOL0     C69971   4.456   7.284   1.090  1.2407  0.1362 -0.5476
  531MOL0     C69972   4.363   7.370   1.179 -0.0692 -0.7469 -0.4288
  531MOL0     C69973   4.268   7.446   1.093  0.6080 -0.9266 -0.6432
  531MOL0     C69974   4.157   7.517   1.176  0.2878  1.3026 -1.1732
  531MOL0     C69975   4.029   7.565   1.106  0.4594 -0.0702  0.4011
  531MOL0     C69976   3.932   7.641   1.190 -1.4915 -0.7243 -0.4804
  531MOL0     N69977   3.857   7.742   1.113  0.0826 -1.1577 -0.1415
  531MOL0     C69978   3.778   7.713   1.003 -0.4057 -0.0790  0.1888
  531MOL0     C69979   3.737   7.836   0.968 -0.1461  0.0383  0.4241
  531MOL0     C69980   3.674   7.870   0.837  0.0856  0.3388  0.8125
  531MOL0     C69981   3.780   7.935   0.745 -0.0216 -1.3366 -0.2015
  531MOL0     C69982   3.823   7.841   0.631  0.1944  0.4204 -0.6317
  531MOL0     C69983   3.946   7.889   0.549 -0.1582 -0.5944  0.4551
  531MOL0     O69984   4.064   7.881   0.617 -0.4782  0.3232  0.2224
  531MOL0     C69985   4.117   7.752   0.627 -0.4204 -0.8413 -0.7050
  531MOL0     C69986   4.253   7.749   0.669  0.8756 -0.3862 -0.2327
  531MOL0     C69987   4.305   7.624   0.691  0.4676 -1.1333 -0.0640
  531MOL0     C69988   4.246   7.504   0.662  0.9568 -0.1637 -0.2687
  531MOL0     C69989   4.325   7.384   0.687 -0.1765  0.4941 -0.6193
  531MOL0     O69990   4.454   7.401   0.742  0.1671 -0.4763 -0.2456
  531MOL0     C69991   4.544   7.306   0.716 -0.4821 -0.3645 -0.5882
  531MOL0     C69992   4.667   7.340   0.659  0.4588  1.0977  0.2954
  531MOL0     C69993   4.768   7.241   0.655  0.5861 -0.3973  0.4127
  531MOL0     C69994   4.734   7.116   0.698  0.2981 -0.0435  0.2455
  531MOL0     O69995   4.835   7.025   0.676  0.0949  0.0820  0.4866
  531MOL0     C69996   4.805   6.885   0.682 -0.2180 -0.3241  0.7081
  531MOL0     C69997   4.931   6.805   0.661 -0.5988  0.1330 -1.2223
  531MOL0     C69998   5.002   6.858   0.539  0.1940  0.0934 -0.0151
  531MOL0     C69999   5.087   6.756   0.460 -0.1744  0.0217 -0.8208
  531MOL0     C70000   5.226   6.732   0.534  0.0068  0.0920 -0.7956
  531MOL0     C70001   5.323   6.650   0.453  0.0757  0.4061 -0.4065
  531MOL0     C70002   5.254   6.517   0.401  0.1414 -0.4219 -0.1407
  531MOL0     C70003   5.365   6.430   0.338 -0.2037  0.7979  0.0355
  531MOL0    Cl70004   5.289   6.282   0.261 -0.0350 -0.0135 -0.5556
  531MOL0     C70005   4.615   7.080   0.746  1.1313 -0.3403 -0.3197
  531MOL0     C70006   4.517   7.178   0.758  0.6122 -0.5131  0.3524
  531MOL0     O70007   4.273   7.280   0.647 -0.2145  0.5755  0.4996
  531MOL0     C70008   4.111   7.509   0.619 -0.7489  0.9744 -0.0797
  531MOL0     C70009   4.046   7.624   0.602 -0.0055 -0.5333 -0.5261
  531MOL0     N70010   3.763   7.925   1.064 -0.6330 -0.0934  0.5132
  531MOL0     N70011   3.841   7.869   1.143 -0.0628  1.6745 -0.0208
  531MOL0     C70012   4.913   7.032   1.008 -1.5468  0.3751 -0.3284
  531MOL0     C70013   5.024   6.965   0.961  0.3311  0.1623 -0.7289
  531MOL0     C70014   5.316   6.624   0.856 -0.3739 -0.0387 -0.1734
  531MOL0     C70015   5.336   6.485   0.831 -0.1232  0.5553  0.4444
  531MOL0     C70016   5.463   6.445   0.775  0.3876  0.1847  0.9114
  531MOL0     C70017   5.556   6.538   0.736 -1.3444  0.2556  1.2401
  531MOL0     O70018   5.671   6.475   0.688  0.3562 -0.0317 -0.5458
  531MOL0     C70019   5.775   6.559   0.653 -0.5904  0.3406  0.2585
  531MOL0     C70020   5.740   6.613   0.507 -0.2852 -0.5320 -0.1733
  531MOL0     C70021   5.716   6.493   0.406  0.2118  0.0427 -0.4284
  531MOL0     C70022   5.841   6.416   0.374 -0.3808 -0.0181 -0.2736
  531MOL0     C70023   5.886   6.423   0.236  0.5191  0.5822  0.2122
  531MOL0     C70024   5.904   6.434   0.113 -0.3623 -0.8214  0.1209
  531MOL0     C70025   5.543   6.672   0.773  0.4489 -0.7061 -0.0814
  531MOL0     C70026   5.421   6.710   0.832 -0.6183 -0.0754  0.1246
  531MOL0     H70027   5.063   6.732   1.197 -0.7787 -1.0668 -1.8706
  531MOL0     H70028   4.866   6.840   1.288  0.9373  0.8646  0.9001
  531MOL0     H70029   4.601   7.027   1.063  2.9930 -2.5340  0.0882
  531MOL0     H70030   4.700   7.185   1.054 -0.9494  0.8449  1.2122
  531MOL0     H70031   4.594   7.272   1.253 -1.3650  0.8875 -0.1689
  531MOL0     H70032   4.483   7.140   1.258  0.8274 -1.3965  0.2637
  531MOL0     H70033   4.397   7.214   1.029  0.3774  0.9354 -0.6448
  531MOL0     H70034   4.513   7.348   1.022  0.9711 -0.7176 -1.6067
  531MOL0     H70035   4.317   7.312   1.260  1.8760 -1.2352  0.3717
  531MOL0     H70036   4.429   7.439   1.233 -0.1358  0.2992 -1.6421
  531MOL0     H70037   4.229   7.369   1.027  1.0722  0.2320 -2.3320
  531MOL0     H70038   4.316   7.525   1.035  2.8013  1.0757  3.4126
  531MOL0     H70039   4.201   7.609   1.216 -2.5824  1.2657  2.6376
  531MOL0     H70040   4.129   7.459   1.265 -0.8619  1.0894 -1.6527
  531MOL0     H70041   4.062   7.630   1.025 -3.0766 -0.5548 -1.6095
  531MOL0     H70042   3.972   7.495   1.045  0.3348 -2.0954  2.6836
  531MOL0     H70043   3.996   7.696   1.260 -4.2597  1.6465  0.4142
  531MOL0     H70044   3.867   7.567   1.237 -3.7004  0.5126 -1.3986
  531MOL0     H70045   3.767   7.634   0.930 -0.7597 -1.5452  1.7702
  531MOL0     H70046   3.588   7.934   0.860 -1.3708 -0.9300 -0.8654
  531MOL0     H70047   3.626   7.784   0.789  0.7429 -1.3258  2.9901
  531MOL0     H70048   3.865   7.971   0.804  0.1467 -1.2346 -0.5077
  531MOL0     H70049   3.709   8.008   0.704 -0.9658 -1.9994  0.2213
  531MOL0     H70050   3.826   7.736   0.663 -1.5141  0.8429  1.1226
  531MOL0     H70051   3.741   7.833   0.559 -0.2882 -2.0684  0.0779
  531MOL0     H70052   3.926   7.990   0.513  0.6693 -0.6533 -0.2105
  531MOL0     H70053   3.953   7.826   0.460  3.7669  0.4783 -0.1694
  531MOL0     H70054   4.316   7.835   0.690  0.9796 -0.6097  0.3956
  531MOL0     H70055   4.410   7.629   0.720  0.6120 -2.7032 -0.1797
  531MOL0     H70056   4.691   7.442   0.633  1.3989  1.1872  1.4150
  531MOL0     H70057   4.871   7.251   0.621  1.0163  0.4717  1.8769
  531MOL0     H70058   4.740   6.853   0.600  0.3220 -0.2330  0.2353
  531MOL0     H70059   4.758   6.847   0.773 -1.7815 -2.3885 -0.8358
  531MOL0     H70060   4.912   6.697   0.656 -2.7491  0.3309  1.1284
  531MOL0     H70061   5.001   6.821   0.744 -0.1114  1.2692 -1.8407
  531MOL0     H70062   5.055   6.945   0.579  0.2096 -0.7870  2.0209
  531MOL0     H70063   4.931   6.888   0.462  1.4112  0.0994 -1.1659
  531MOL0     H70064   5.037   6.662   0.433  3.0255 -1.2933 -2.8815
  531MOL0     H70065   5.118   6.798   0.364  3.0907  1.5214  0.7470
  531MOL0     H70066   5.212   6.677   0.628  3.3647  1.2118  0.4859
  531MOL0     H70067   5.264   6.832   0.555 -2.1937  0.6907  0.7700
  531MOL0     H70068   5.415   6.627   0.509  0.3965  1.2132 -0.5904
  531MOL0     H70069   5.356   6.689   0.357  0.5378 -1.5572 -1.1068
  531MOL0     H70070   5.189   6.473   0.477 -1.7500  1.2734 -0.6727
  531MOL0     H70071   5.185   6.538   0.318 -0.6578 -0.0383  0.6083
  531MOL0     H70072   5.421   6.390   0.423 -1.3386  1.7010  1.2542
  531MOL0     H70073   5.424   6.493   0.270  1.8015 -1.7310 -0.6922
  531MOL0     H70074   4.595   6.978   0.774 -6.0202  0.5919 -0.0835
  531MOL0     H70075   4.423   7.140   0.796  0.7471 -2.6565 -1.2536
  531MOL0     H70076   4.067   7.412   0.597  0.2616  0.6004 -0.5060
  531MOL0     H70077   3.947   7.627   0.557  1.0374  0.4579 -2.9667
  531MOL0     H70078   4.885   7.115   0.944 -0.6492  0.6275 -0.4191
  531MOL0     H70079   5.078   7.009   0.877  0.1047  1.4273 -0.2308
  531MOL0     H70080   5.258   6.413   0.854 -0.4268  0.6660 -0.2186
  531MOL0     H70081   5.468   6.344   0.736 -0.6107  0.1866  0.7543
  531MOL0     H70082   5.867   6.499   0.659  1.1351  2.9454  5.0433
  531MOL0     H70083   5.792   6.646   0.716 -2.5834 -0.0869  1.4471
  531MOL0     H70084   5.644   6.665   0.512  0.6869  1.4078 -0.7378
  531MOL0     H70085   5.806   6.689   0.465 -2.5270  1.0242 -1.1194
  531MOL0     H70086   5.677   6.542   0.316  1.9531  1.7583 -0.3331
  531MOL0     H70087   5.647   6.424   0.455  1.8192 -1.8961 -0.7896
  531MOL0     H70088   5.916   6.443   0.448  0.1383 -3.5801  0.6753
  531MOL0     H70089   5.814   6.312   0.396  0.7528  0.0516  1.6207
  531MOL0     H70090   5.927   6.437   0.008  1.9833 -3.1570  0.4728
  531MOL0     H70091   5.624   6.742   0.755 -0.0650 -0.0877 -0.0144
  531MOL0     H70092   5.419   6.814   0.862 -0.0987  0.3104 -1.1227
  532MOL0     O70093   2.574   6.458  10.350 -0.3005  0.3156  0.4411
  532MOL0     C70094   2.660   6.385  10.395  0.5896  1.3702 -0.1655
  532MOL0     O70095   2.739   6.291  10.325  0.2475  0.1862 -0.3092
  532MOL0     C70096   2.721   6.272  10.186  0.5845  0.7930  0.9616
  532MOL0     C70097   2.602   6.287  10.116  0.5954 -0.5466  0.4185
  532MOL0     C70098   2.603   6.291   9.978 -1.2774 -0.5868 -0.1848
  532MOL0     C70099   2.713   6.258   9.900 -0.3833 -1.2265  0.7339
  532MOL0     O70100   2.711   6.291   9.768  0.7943  1.1627  0.7837
  532MOL0     C70101   2.804   6.233   9.681  0.1339 -0.2474  0.0358
  532MOL0     C70102   2.746   6.108   9.598 -0.2289 -0.6453 -0.8016
  532MOL0     C70103   2.848   6.080   9.481  1.0703 -0.2002  0.6515
  532MOL0     C70104   2.790   5.971   9.390 -0.7446 -0.4973  0.5358
  532MOL0     C70105   2.891   5.941   9.278 -0.8707 -0.1033  0.1449
  532MOL0     C70106   2.862   6.012   9.147 -0.4293  1.1895 -0.5771
  532MOL0     C70107   2.947   5.943   9.037 -1.1938 -1.0946 -0.0190
  532MOL0     C70108   3.103   5.975   9.049  0.6298 -1.6113 -0.2890
  532MOL0     N70109   3.197   5.923   8.947 -0.2065  0.6000  0.6901
  532MOL0     C70110   3.190   5.798   8.890 -0.6292 -0.1785 -0.1435
  532MOL0     C70111   3.316   5.775   8.829 -0.7197  0.6690 -0.3484
  532MOL0     C70112   3.367   5.666   8.744  0.0156  0.0228  0.8632
  532MOL0     C70113   3.414   5.556   8.829 -0.4611  0.3174  0.8844
  532MOL0     C70114   3.482   5.458   8.736  0.0006  0.7154  0.7078
  532MOL0     C70115   3.407   5.322   8.728 -0.5066  0.4589  0.2728
  532MOL0     O70116   3.274   5.336   8.686  0.6330 -0.1296 -0.1062
  532MOL0     C70117   3.216   5.218   8.638 -0.5838  0.1005 -0.1574
  532MOL0     C70118   3.269   5.093   8.661  0.4710  0.0941 -0.4157
  532MOL0     C70119   3.220   4.972   8.609  0.6763 -0.1176  0.5618
  532MOL0     C70120   3.098   4.977   8.542  1.0359  0.8167 -0.5135
  532MOL0     C70121   3.036   4.853   8.494  0.2073 -0.2325 -0.3255
  532MOL0     O70122   2.904   4.861   8.441  0.0328  0.2988 -0.0079
  532MOL0     C70123   2.867   4.754   8.365 -0.6793 -0.2216  1.0597
  532MOL0     C70124   2.734   4.698   8.392 -0.7698  0.0424 -0.1842
  532MOL0     C70125   2.687   4.592   8.310 -0.7213 -0.0794  0.6026
  532MOL0     C70126   2.766   4.533   8.212  0.6620 -0.0625 -0.1008
  532MOL0     O70127   2.702   4.435   8.135 -0.4555  0.1745 -0.9250
  532MOL0     C70128   2.760   4.308   8.138 -0.5079  0.3579 -0.4135
  532MOL0     C70129   2.679   4.208   8.063 -0.2459  0.0912 -0.0625
  532MOL0     C70130   2.763   4.088   8.061 -0.0409  0.2102  1.1778
  532MOL0     C70131   2.854   4.089   7.940  0.5924  0.8012 -0.2090
  532MOL0     C70132   2.954   3.973   7.938 -0.6539  0.3949 -0.3007
  532MOL0     C70133   3.083   3.971   7.856  1.2672 -0.9233 -0.7076
  532MOL0     C70134   3.067   4.022   7.710  0.7884  0.6237 -0.1561
  532MOL0     C70135   3.201   4.033   7.631  0.4630  0.0639  0.3028
  532MOL0    Cl70136   3.303   3.899   7.656 -0.3088 -0.2357 -0.0962
  532MOL0     C70137   2.886   4.593   8.176  0.1197 -0.2176  0.3915
  532MOL0     C70138   2.941   4.701   8.248  0.6278  0.5645  0.0875
  532MOL0     O70139   3.109   4.751   8.497 -0.1503  0.4350  0.0952
  532MOL0     C70140   3.036   5.102   8.508 -0.0916 -0.2748  0.0443
  532MOL0     C70141   3.104   5.224   8.557  0.4759 -0.3157  0.0173
  532MOL0     N70142   3.390   5.886   8.853 -0.1627  0.2861  0.1798
  532MOL0     N70143   3.317   5.975   8.919  0.3389 -0.2416 -0.5358
  532MOL0     C70144   2.831   6.217   9.974 -0.0347 -0.6737 -0.2486
  532MOL0     C70145   2.830   6.230  10.115 -0.3513 -0.4767 -0.4794
  532MOL0     C70146   2.689   6.377  10.548  0.8848 -0.0663 -0.4044
  532MOL0     C70147   2.769   6.269  10.596  0.7116 -0.2543 -1.4443
  532MOL0     C70148   2.804   6.268  10.734  0.0024 -0.0661  0.6294
  532MOL0     C70149   2.759   6.371  10.819  0.9798 -0.7446  0.7329
  532MOL0     O70150   2.794   6.380  10.951 -0.3673 -0.6454  0.0098
  532MOL0     C70151   2.874   6.284  11.014 -0.0295  0.4013  1.0053
  532MOL0     C70152   2.885   6.327  11.167 -0.4172  0.8410  0.5839
  532MOL0     C70153   2.747   6.315  11.228  0.3954  0.6895 -1.2001
  532MOL0     C70154   2.742   6.378  11.370  0.3477 -0.3585 -0.8966
  532MOL0     C70155   2.619   6.343  11.431  0.6744 -0.3017 -0.4659
  532MOL0     C70156   2.526   6.306  11.497 -0.2535 -0.4677  0.1747
  532MOL0     C70157   2.656   6.453  10.770  0.2058  0.3941  0.2473
  532MOL0     C70158   2.625   6.463  10.635 -0.0971 -0.1292 -1.5312
  532MOL0     H70159   2.511   6.313  10.168  1.3400  1.2087  0.9315
  532MOL0     H70160   2.505   6.309   9.934 -1.2061  3.2070  0.8659
  532MOL0     H70161   2.897   6.215   9.736 -0.4355  1.7836  1.8038
  532MOL0     H70162   2.824   6.314   9.611 -1.8575  0.4931  0.2626
  532MOL0     H70163   2.647   6.125   9.554  0.5282 -1.2641 -2.8807
  532MOL0     H70164   2.742   6.026   9.670 -2.4148 -0.6900 -0.9266
  532MOL0     H70165   2.942   6.049   9.526  0.3018  1.2064  3.4748
  532MOL0     H70166   2.859   6.165   9.413  1.4884  0.6573  1.7536
  532MOL0     H70167   2.782   5.886   9.459  0.9432  0.0798  1.4848
  532MOL0     H70168   2.692   5.976   9.342  1.5191 -2.3889 -5.2321
  532MOL0     H70169   2.883   5.834   9.256  0.4944  0.3011 -2.7756
  532MOL0     H70170   2.990   5.963   9.318 -1.1537 -0.5022  1.0951
  532MOL0     H70171   2.885   6.118   9.163 -1.0736  1.5002 -1.5920
  532MOL0     H70172   2.758   6.004   9.113 -1.3772  0.2066  2.2810
  532MOL0     H70173   2.930   5.835   9.050  2.1358 -1.4705  2.6479
  532MOL0     H70174   2.925   5.982   8.937  0.1128  0.2828  0.1926
  532MOL0     H70175   3.141   5.933   9.143  0.0708 -0.8771  0.2776
  532MOL0     H70176   3.113   6.083   9.066 -0.5639 -1.2269 -1.7785
  532MOL0     H70177   3.109   5.725   8.887 -0.8888  0.1230 -0.5564
  532MOL0     H70178   3.438   5.704   8.669 -1.4628  0.4495 -0.3761
  532MOL0     H70179   3.287   5.633   8.677  1.9771 -2.5999 -0.3905
  532MOL0     H70180   3.318   5.524   8.871 -1.5582  2.0972 -0.1518
  532MOL0     H70181   3.480   5.583   8.912 -1.4678  0.0936  1.7892
  532MOL0     H70182   3.507   5.502   8.639 -0.4351 -0.4853  0.0278
  532MOL0     H70183   3.585   5.446   8.773  0.1548 -0.1112  0.0462
  532MOL0     H70184   3.396   5.270   8.824 -3.5863 -0.6039 -0.5328
  532MOL0     H70185   3.459   5.264   8.652  0.9797 -0.3905  1.8638
  532MOL0     H70186   3.353   5.087   8.730  1.4935  1.3545 -1.5015
  532MOL0     H70187   3.279   4.882   8.623  0.5438  0.1874  3.6963
  532MOL0     H70188   2.671   4.737   8.471 -1.2879  0.8569 -0.9845
  532MOL0     H70189   2.594   4.540   8.331 -2.0653  0.4676 -3.1151
  532MOL0     H70190   2.768   4.272   8.240  3.6412 -0.4174 -0.8572
  532MOL0     H70191   2.862   4.326   8.105 -0.4997  3.7242  1.0661
  532MOL0     H70192   2.657   4.255   7.967 -2.5814  0.9726  0.8371
  532MOL0     H70193   2.584   4.190   8.113 -1.4059 -1.6135 -2.6796
  532MOL0     H70194   2.694   4.004   8.047 -1.1890  1.1209  1.2761
  532MOL0     H70195   2.822   4.076   8.153  3.0846  4.5241  0.0308
  532MOL0     H70196   2.788   4.084   7.854 -0.9047  2.1445  0.7922
  532MOL0     H70197   2.910   4.183   7.933  3.8864 -0.8584  1.3162
  532MOL0     H70198   2.895   3.893   7.893 -2.2241  0.9339  0.7398
  532MOL0     H70199   2.970   3.923   8.035  1.4824  0.2287 -0.6910
  532MOL0     H70200   3.111   3.865   7.852 -0.9236 -1.5608 -0.5360
  532MOL0     H70201   3.162   4.025   7.909 -0.8848  1.0470  0.6570
  532MOL0     H70202   2.996   3.952   7.666  0.0405  0.8155  0.7099
  532MOL0     H70203   3.017   4.119   7.711  2.0150  1.3336  2.8014
  532MOL0     H70204   3.253   4.119   7.674 -1.2087  1.4265 -0.3033
  532MOL0     H70205   3.181   4.051   7.525 -0.4242  0.8304  0.5849
  532MOL0     H70206   2.948   4.549   8.098  2.4860  1.9206  0.9187
  532MOL0     H70207   3.035   4.740   8.210  2.1784 -2.6776  0.2905
  532MOL0     H70208   2.945   5.113   8.451 -0.2694 -0.9526  0.1946
  532MOL0     H70209   3.067   5.322   8.529 -2.6859 -1.4468 -0.1532
  532MOL0     H70210   2.925   6.179   9.934 -0.1211 -0.6863 -0.4417
  532MOL0     H70211   2.917   6.204  10.174  0.2318  0.0393 -1.0964
  532MOL0     H70212   2.801   6.185  10.535  1.2548 -0.7987 -0.4406
  532MOL0     H70213   2.863   6.183  10.768 -0.5274 -0.4565  0.5874
  532MOL0     H70214   2.973   6.296  10.971 -0.0344 -0.0123  0.8664
  532MOL0     H70215   2.841   6.180  10.998  4.5048 -0.9306 -1.2073
  532MOL0     H70216   2.949   6.254  11.218 -0.9163 -0.4338 -0.5566
  532MOL0     H70217   2.927   6.428  11.166  0.1301  0.6460 -1.8827
  532MOL0     H70218   2.716   6.210  11.234 -1.2582  1.0942 -2.3046
  532MOL0     H70219   2.679   6.357  11.155  0.3692  0.8095 -1.1072
  532MOL0     H70220   2.819   6.340  11.436 -1.6165 -0.5271  1.4362
  532MOL0     H70221   2.747   6.486  11.349 -3.1622  0.0078 -0.5060
  532MOL0     H70222   2.445   6.263  11.552 -1.0898  2.1579  1.1537
  532MOL0     H70223   2.601   6.528  10.826 -2.7290 -0.1303 -1.7014
  532MOL0     H70224   2.550   6.524  10.587  0.0816  0.1154 -1.4975
  533MOL0     O70225   4.657   6.966   2.473  0.5480 -0.0436  1.0026
  533MOL0     C70226   4.634   6.998   2.354  0.1036  0.5625 -0.1440
  533MOL0     O70227   4.582   7.122   2.315 -0.0820 -0.9486  0.0112
  533MOL0     C70228   4.558   7.206   2.417 -0.2318 -0.5380  0.2177
  533MOL0     C70229   4.666   7.273   2.491 -0.0804  0.9968  0.3213
  533MOL0     C70230   4.643   7.386   2.571 -0.0716 -0.2634 -0.0752
  533MOL0     C70231   4.510   7.433   2.590 -0.2888  1.3171  0.4979
  533MOL0     O70232   4.473   7.535   2.662 -0.6598  0.0707  0.3534
  533MOL0     C70233   4.540   7.562   2.786 -0.1629  0.0947  0.4756
  533MOL0     C70234   4.517   7.462   2.891  0.0950  0.0590  0.4366
  533MOL0     C70235   4.557   7.507   3.035 -0.8842  0.6403 -0.7718
  533MOL0     C70236   4.546   7.392   3.132  0.0260 -0.0574  0.0973
  533MOL0     C70237   4.618   7.392   3.267  0.7009 -0.3912  0.2077
  533MOL0     C70238   4.552   7.295   3.358  0.5235  0.7728 -0.3494
  533MOL0     C70239   4.608   7.153   3.331 -1.0542 -1.4350  0.6844
  533MOL0     C70240   4.577   7.058   3.446  0.4062  0.3588 -0.3515
  533MOL0     N70241   4.637   7.088   3.586 -0.6764 -0.5920 -0.7298
  533MOL0     C70242   4.671   7.000   3.674 -0.0455 -0.0258 -0.3950
  533MOL0     C70243   4.689   7.064   3.791  0.7252 -0.1941  0.5114
  533MOL0     C70244   4.737   7.003   3.916 -0.2473  0.0558 -0.1309
  533MOL0     C70245   4.635   7.025   4.037 -0.1248  0.5642 -0.3322
  533MOL0     C70246   4.500   6.956   4.013 -0.5448  0.9802  0.2327
  533MOL0     C70247   4.407   6.999   4.138 -0.6180  0.4328 -0.6342
  533MOL0     O70248   4.475   6.963   4.263 -1.4616 -0.3935  0.5665
  533MOL0     C70249   4.473   7.053   4.369 -0.4459  0.3079  0.1681
  533MOL0     C70250   4.591   7.089   4.430 -1.0610 -0.8857  0.1998
  533MOL0     C70251   4.596   7.188   4.533 -0.6452 -0.0317 -0.4551
  533MOL0     C70252   4.475   7.245   4.568  0.7612 -0.0458 -0.0067
  533MOL0     C70253   4.487   7.350   4.667 -0.3948  0.4449 -0.2238
  533MOL0     O70254   4.595   7.356   4.751 -0.4002  0.6163 -0.1243
  533MOL0     C70255   4.599   7.464   4.835 -0.0493  0.2659 -0.1867
  533MOL0     C70256   4.696   7.571   4.821 -0.2537  0.4335  0.8099
  533MOL0     C70257   4.701   7.680   4.897  0.3850 -0.0666  0.4269
  533MOL0     C70258   4.597   7.697   4.989 -0.4522  0.2251 -0.0069
  533MOL0     O70259   4.602   7.813   5.061 -0.1658 -0.5414 -0.1531
  533MOL0     C70260   4.549   7.809   5.194 -0.0897  0.5807 -0.2024
  533MOL0     C70261   4.407   7.861   5.202  0.6854  0.2211 -0.2682
  533MOL0     C70262   4.336   7.855   5.342  0.6805 -0.3106 -0.7537
  533MOL0     C70263   4.190   7.913   5.331 -0.3813 -0.3498  0.4939
  533MOL0     C70264   4.120   7.916   5.464 -0.2802 -0.2856 -0.2799
  533MOL0     C70265   4.138   7.797   5.555 -0.1845 -0.0779  0.8591
  533MOL0     C70266   4.011   7.765   5.632 -0.1997 -0.3684  0.2578
  533MOL0     C70267   4.046   7.666   5.735 -0.4949 -0.1799  0.7337
  533MOL0    Cl70268   4.145   7.750   5.854 -0.5842  0.1095 -0.1937
  533MOL0     C70269   4.503   7.597   5.017 -0.4739  0.4645 -0.5694
  533MOL0     C70270   4.499   7.485   4.939 -0.1969 -0.2333  0.7545
  533MOL0     O70271   4.393   7.431   4.667  0.3053 -0.1899  0.2286
  533MOL0     C70272   4.350   7.201   4.514 -0.2874 -0.2769 -0.5953
  533MOL0     C70273   4.348   7.102   4.415  0.0010  0.7661 -0.3241
  533MOL0     N70274   4.669   7.201   3.762  0.5486 -0.2339 -0.8097
  533MOL0     N70275   4.630   7.208   3.645 -0.4756 -0.4387  0.1981
  533MOL0     C70276   4.411   7.369   2.503  1.2730 -1.4821 -0.5315
  533MOL0     C70277   4.429   7.266   2.418  0.6652  0.5250  1.4549
  533MOL0     C70278   4.666   6.899   2.253 -0.4384 -0.2358 -0.9213
  533MOL0     C70279   4.650   6.937   2.113  0.2330 -0.2529 -0.2140
  533MOL0     C70280   4.667   6.835   2.013 -0.6718  0.1501 -0.0659
  533MOL0     C70281   4.722   6.718   2.053  0.6356  0.5469 -0.5941
  533MOL0     O70282   4.748   6.632   1.948 -0.7607 -0.2892  0.8090
  533MOL0     C70283   4.836   6.522   1.950  0.5815  0.5857 -0.1089
  533MOL0     C70284   4.739   6.403   1.915 -0.8810 -0.4420 -0.4022
  533MOL0     C70285   4.614   6.404   2.010 -0.6350  0.2269  0.7296
  533MOL0     C70286   4.484   6.440   1.941  0.0615 -1.8411 -0.3886
  533MOL0     C70287   4.373   6.459   2.043 -0.0127 -0.3637 -0.5604
  533MOL0     C70288   4.278   6.468   2.122 -0.0517  0.6926 -0.1825
  533MOL0     C70289   4.765   6.690   2.186  0.2330 -1.1440  0.3000
  533MOL0     C70290   4.720   6.780   2.286  0.6023  0.3858 -0.4606
  533MOL0     H70291   4.767   7.235   2.486  0.0741  1.3505  0.7320
  533MOL0     H70292   4.733   7.435   2.607  1.0573 -2.0634 -0.3125
  533MOL0     H70293   4.503   7.658   2.824 -1.4190 -0.9975  2.1130
  533MOL0     H70294   4.647   7.586   2.780  0.0888 -1.3630 -1.5182
  533MOL0     H70295   4.569   7.370   2.863  2.7058  1.6186 -0.1123
  533MOL0     H70296   4.411   7.435   2.885 -0.1482  1.1237 -3.5789
  533MOL0     H70297   4.505   7.595   3.074 -0.0897  0.8784 -0.2159
  533MOL0     H70298   4.664   7.531   3.027 -0.4271 -1.5335 -1.9608
  533MOL0     H70299   4.441   7.367   3.151  0.3109 -2.2002 -0.8223
  533MOL0     H70300   4.594   7.309   3.078 -0.2932  0.9559 -1.8231
  533MOL0     H70301   4.620   7.494   3.307 -2.7160 -0.9772  2.3264
  533MOL0     H70302   4.722   7.363   3.255  0.1942 -1.9691 -0.7322
  533MOL0     H70303   4.443   7.303   3.350  0.6685  1.8375 -1.6380
  533MOL0     H70304   4.594   7.320   3.456  1.4555 -2.0697  0.0631
  533MOL0     H70305   4.581   7.121   3.230  1.5660 -0.6547 -0.3581
  533MOL0     H70306   4.716   7.168   3.342 -1.3004 -1.6444  6.3661
  533MOL0     H70307   4.617   6.959   3.426 -1.4884 -0.9895  1.9825
  533MOL0     H70308   4.468   7.055   3.450  0.2888  2.8609 -0.0064
  533MOL0     H70309   4.689   6.894   3.657 -3.5281 -0.7616 -0.3441
  533MOL0     H70310   4.830   7.055   3.940 -1.8353  4.1794 -1.8373
  533MOL0     H70311   4.754   6.895   3.913  2.1347  0.2986  2.0922
  533MOL0     H70312   4.623   7.131   4.060 -0.3202  0.1668  1.6017
  533MOL0     H70313   4.676   6.976   4.126  0.1141 -0.1777 -0.8479
  533MOL0     H70314   4.464   6.982   3.913 -2.3259  1.5184  0.9725
  533MOL0     H70315   4.514   6.847   4.018 -1.6883  0.7248 -1.4125
  533MOL0     H70316   4.317   6.938   4.133  0.0465 -0.9472  2.3489
  533MOL0     H70317   4.397   7.107   4.125 -1.8836  0.1886 -1.9280
  533MOL0     H70318   4.678   7.027   4.409 -0.6767 -1.0153  2.0158
  533MOL0     H70319   4.692   7.230   4.560  0.7472 -2.3424 -1.5992
  533MOL0     H70320   4.763   7.556   4.737  1.5557 -0.3901  2.3395
  533MOL0     H70321   4.785   7.747   4.878  0.6252 -0.1726  1.1222
  533MOL0     H70322   4.610   7.870   5.261 -0.9624  0.0382  1.1101
  533MOL0     H70323   4.561   7.710   5.238 -4.8601  1.3905  3.7149
  533MOL0     H70324   4.339   7.812   5.132 -0.0526  0.7651  0.0465
  533MOL0     H70325   4.410   7.962   5.160 -0.7473 -0.2731 -1.6607
  533MOL0     H70326   4.386   7.912   5.421 -1.6193  1.7959 -0.6696
  533MOL0     H70327   4.337   7.750   5.373  1.7673 -0.1024 -0.0332
  533MOL0     H70328   4.191   8.017   5.295  1.7323 -0.7382 -0.7989
  533MOL0     H70329   4.130   7.842   5.274 -0.5170 -0.4549  0.7717
  533MOL0     H70330   4.013   7.930   5.443 -0.5726  1.8508  2.1379
  533MOL0     H70331   4.154   8.008   5.512  2.8352 -2.4502  2.0511
  533MOL0     H70332   4.216   7.817   5.628  1.0307 -3.0090  0.5167
  533MOL0     H70333   4.158   7.702   5.504  0.7619 -0.3626  1.7409
  533MOL0     H70334   3.978   7.852   5.689 -0.5692 -0.5086  0.2619
  533MOL0     H70335   3.930   7.734   5.566 -2.8878  2.1499  2.1386
  533MOL0     H70336   4.089   7.571   5.702 -1.8718 -0.2486 -0.9778
  533MOL0     H70337   3.951   7.637   5.783 -2.0551 -2.1951 -3.1521
  533MOL0     H70338   4.426   7.593   5.094  0.8040  0.4811  0.7473
  533MOL0     H70339   4.428   7.410   4.971 -0.8663  0.1744  0.2727
  533MOL0     H70340   4.256   7.240   4.553 -0.8472  0.5295 -2.6070
  533MOL0     H70341   4.263   7.055   4.366  0.9113 -2.3198  0.8531
  533MOL0     H70342   4.316   7.419   2.491  1.6584 -1.3133 -4.1704
  533MOL0     H70343   4.341   7.237   2.361  0.3294  2.1887  1.0967
  533MOL0     H70344   4.616   7.038   2.094  2.6982  0.7683  0.3880
  533MOL0     H70345   4.635   6.851   1.910 -1.7344  1.2816  0.4084
  533MOL0     H70346   4.897   6.511   2.040  0.6225 -1.3004 -0.3281
  533MOL0     H70347   4.902   6.535   1.864  0.0374 -2.9897 -1.2256
  533MOL0     H70348   4.705   6.429   1.814  1.1434  1.5294 -0.6411
  533MOL0     H70349   4.801   6.314   1.919  0.4250  0.3045 -2.3113
  533MOL0     H70350   4.636   6.463   2.099 -0.1611 -2.3383  2.4394
  533MOL0     H70351   4.613   6.302   2.050  1.6745  0.2276  0.9422
  533MOL0     H70352   4.493   6.540   1.897  3.6482 -1.1933  1.4575
  533MOL0     H70353   4.472   6.362   1.866  1.1022 -2.2182 -0.1798
  533MOL0     H70354   4.202   6.464   2.198 -1.3737  1.1267 -1.4387
  533MOL0     H70355   4.810   6.596   2.216 -0.0407 -0.8722  1.6383
  533MOL0     H70356   4.727   6.754   2.392  1.2485  2.5764  0.0781
  534MOL0     O70357   7.333   1.818   9.473 -0.1285 -0.2897 -0.8167
  534MOL0     C70358   7.409   1.842   9.568 -0.7766  0.6995  0.4898
  534MOL0     O70359   7.465   1.750   9.650 -0.5297  0.1057  0.4469
  534MOL0     C70360   7.401   1.626   9.646  0.5168  0.1261  0.1819
  534MOL0     C70361   7.477   1.504   9.647 -0.3336 -1.0232 -0.2375
  534MOL0     C70362   7.420   1.381   9.634 -0.5571  0.2102  0.2060
  534MOL0     C70363   7.282   1.372   9.647  0.5637  0.6437  0.1149
  534MOL0     O70364   7.218   1.256   9.661 -0.1282  0.9878  0.0149
  534MOL0     C70365   7.283   1.126   9.639  0.2848  0.7183 -0.8355
  534MOL0     C70366   7.176   1.021   9.649  0.0854 -1.2609 -0.5381
  534MOL0     C70367   7.106   0.997   9.511  0.1417  1.0605 -0.0356
  534MOL0     C70368   7.031   0.864   9.521 -0.5008  0.7992 -0.5529
  534MOL0     C70369   6.971   0.811   9.398  0.8218 -0.2028  0.1118
  534MOL0     C70370   7.062   0.770   9.283  0.3606 -0.6791  0.9655
  534MOL0     C70371   6.987   0.745   9.149  0.5689  0.0292 -0.6174
  534MOL0     C70372   7.069   0.653   9.057 -0.0568 -0.1838 -0.0405
  534MOL0     N70373   7.058   0.519   9.109  0.8302  0.3653 -0.4780
  534MOL0     C70374   6.954   0.441   9.069 -0.0816  0.4753 -0.9467
  534MOL0     C70375   7.004   0.313   9.091 -0.4198  0.4090 -0.0028
  534MOL0     C70376   6.938   0.195   9.040 -0.1309  0.3967  0.5236
  534MOL0     C70377   6.936   0.093   9.145  0.4612  0.0789 -0.6626
  534MOL0     C70378   6.835  -0.014   9.095 -0.1430  0.1885 -0.6427
  534MOL0     C70379   6.835  -0.140   9.174 -0.2416  0.6872  0.9815
  534MOL0     O70380   6.827  -0.094   9.308  0.5467 -0.6544 -0.0311
  534MOL0     C70381   6.823  -0.185   9.414  0.1242 -0.0051  0.2837
  534MOL0     C70382   6.834  -0.320   9.398  0.1028 -0.1409 -0.0548
  534MOL0     C70383   6.844  -0.409   9.505  0.1633  0.3525  0.4490
  534MOL0     C70384   6.844  -0.351   9.635  0.7329 -0.0721  0.2650
  534MOL0     C70385   6.887  -0.433   9.751  0.2346  0.3790 -0.0292
  534MOL0     O70386   6.880  -0.364   9.869 -0.2811  0.3859  0.7012
  534MOL0     C70387   6.933  -0.428   9.977 -1.3517 -0.2742 -0.1826
  534MOL0     C70388   6.876  -0.416  10.101 -0.2719  0.5657  0.1905
  534MOL0     C70389   6.939  -0.477  10.219  0.0195  0.2932  0.3766
  534MOL0     C70390   7.059  -0.548  10.206  0.8644  0.6083  0.1670
  534MOL0     O70391   7.109  -0.604  10.321  0.0306 -0.4070  0.0938
  534MOL0     C70392   7.238  -0.651  10.334  0.2387 -0.2887  0.4310
  534MOL0     C70393   7.263  -0.674  10.483 -0.8019 -1.0029  0.4493
  534MOL0     C70394   7.162  -0.773  10.539 -0.0204  0.8872  0.4424
  534MOL0     C70395   7.142  -0.759  10.698 -0.3505  0.1765 -0.7567
  534MOL0     C70396   7.079  -0.892  10.751  0.2359 -0.2584  0.0813
  534MOL0     C70397   7.174  -1.013  10.765 -0.1689 -0.9510 -0.8097
  534MOL0     C70398   7.305  -0.984  10.843  0.7247 -0.2829  0.2202
  534MOL0     C70399   7.370  -1.109  10.898  0.3238  0.3475 -1.0162
  534MOL0    Cl70400   7.492  -1.065  11.021  0.5054 -0.3153 -0.1049
  534MOL0     C70401   7.115  -0.561  10.079 -0.0430 -0.4891  0.2805
  534MOL0     C70402   7.050  -0.507   9.969 -0.4432  1.3383 -0.3441
  534MOL0     O70403   6.912  -0.550   9.740 -1.1114 -0.2239  0.8823
  534MOL0     C70404   6.828  -0.209   9.653  0.0176  0.3184  0.2217
  534MOL0     C70405   6.815  -0.132   9.539  0.6999 -0.5453  0.6599
  534MOL0     N70406   7.121   0.323   9.154  0.3653  0.1173  0.1617
  534MOL0     N70407   7.157   0.447   9.163 -0.1931  0.4511  0.0438
  534MOL0     C70408   7.207   1.484   9.647  0.1876  1.2677 -0.7515
  534MOL0     C70409   7.261   1.612   9.646  0.2362  0.8373 -0.1154
  534MOL0     C70410   7.425   1.983   9.589 -0.4625  0.0292 -0.1624
  534MOL0     C70411   7.342   2.089   9.540  0.1175 -0.0745 -0.2789
  534MOL0     C70412   7.366   2.221   9.576  0.0984  0.1453  0.0791
  534MOL0     C70413   7.478   2.256   9.662  0.5311  0.1190 -0.8244
  534MOL0     O70414   7.496   2.388   9.702 -0.8310  0.2056  0.0636
  534MOL0     C70415   7.626   2.433   9.731  0.7100 -0.0158 -0.4684
  534MOL0     C70416   7.641   2.582   9.703  0.3126  0.0558  1.0679
  534MOL0     C70417   7.789   2.623   9.710 -0.7540 -0.2127 -0.4855
  534MOL0     C70418   7.823   2.751   9.632  0.2339 -0.2076 -0.4197
  534MOL0     C70419   7.831   2.730   9.484 -0.5319 -0.0590 -0.2260
  534MOL0     C70420   7.859   2.711   9.369 -0.3765  0.0468  0.3015
  534MOL0     C70421   7.558   2.148   9.711 -0.4685 -0.0901  0.2956
  534MOL0     C70422   7.539   2.018   9.676  0.1030  1.1122  0.2582
  534MOL0     H70423   7.584   1.520   9.638 -0.0759 -1.4655  1.5451
  534MOL0     H70424   7.488   1.297   9.618 -0.9705 -0.3894  1.4446
  534MOL0     H70425   7.354   1.120   9.721 -2.1400 -1.8311  1.2692
  534MOL0     H70426   7.331   1.120   9.541  1.3360  0.1104 -0.2926
  534MOL0     H70427   7.105   1.047   9.729 -1.6043 -0.2551 -2.2958
  534MOL0     H70428   7.214   0.926   9.687  1.8155 -0.4657 -0.1443
  534MOL0     H70429   7.185   0.985   9.436 -2.1623 -0.3942 -2.4031
  534MOL0     H70430   7.040   1.080   9.484 -0.8413 -0.2884 -2.0114
  534MOL0     H70431   7.097   0.786   9.561 -2.3390 -0.7988 -0.5119
  534MOL0     H70432   6.953   0.868   9.598  0.4545  1.0078  0.4366
  534MOL0     H70433   6.894   0.883   9.369  0.3343  1.1384  4.1004
  534MOL0     H70434   6.921   0.717   9.424 -0.0490  0.7203  1.9685
  534MOL0     H70435   7.104   0.674   9.314  0.8668 -0.1237  2.0466
  534MOL0     H70436   7.134   0.850   9.264  1.6057 -1.4674  2.1751
  534MOL0     H70437   6.889   0.698   9.159  0.3581  0.1634 -1.8285
  534MOL0     H70438   6.957   0.832   9.089 -1.3421 -1.0523 -1.3320
  534MOL0     H70439   7.175   0.680   9.052  0.6868 -1.8483  3.1608
  534MOL0     H70440   7.027   0.664   8.957  0.6469 -3.7138 -0.8818
  534MOL0     H70441   6.869   0.463   9.005  0.5647  0.3538 -1.8720
  534MOL0     H70442   6.981   0.153   8.950 -0.6428 -0.1223  0.5166
  534MOL0     H70443   6.835   0.225   9.017  0.0319 -0.1269 -0.9894
  534MOL0     H70444   6.897   0.147   9.232  2.3039 -2.0464  1.6075
  534MOL0     H70445   7.031   0.052   9.180  0.8435  1.6923  0.3226
  534MOL0     H70446   6.739   0.038   9.098 -1.1356 -1.2569 -3.6141
  534MOL0     H70447   6.851  -0.046   8.992  4.7683 -1.7804  0.4615
  534MOL0     H70448   6.929  -0.192   9.157  0.2526  1.9986 -0.5078
  534MOL0     H70449   6.759  -0.210   9.138  0.5623  1.4343 -2.5521
  534MOL0     H70450   6.843  -0.368   9.301 -6.8105 -1.5414 -0.5357
  534MOL0     H70451   6.878  -0.511   9.491  0.5037  0.5509 -0.1798
  534MOL0     H70452   6.776  -0.375  10.111 -0.8709 -0.5263 -1.0995
  534MOL0     H70453   6.904  -0.452  10.319 -2.7813  0.6922 -0.6063
  534MOL0     H70454   7.316  -0.588  10.291 -0.9861  0.4925 -0.6763
  534MOL0     H70455   7.238  -0.750  10.286  1.3339  0.9184 -2.2643
  534MOL0     H70456   7.267  -0.576  10.532  1.0326 -2.5432  3.7066
  534MOL0     H70457   7.361  -0.720  10.497 -0.0289  0.5419  0.3517
  534MOL0     H70458   7.202  -0.874  10.525 -3.5809 -0.2870 -3.4987
  534MOL0     H70459   7.065  -0.771  10.489 -0.7379  1.0395  1.7802
  534MOL0     H70460   7.239  -0.745  10.746  0.4172 -4.8488 -0.2236
  534MOL0     H70461   7.070  -0.683  10.731  2.0955  0.9394  3.5187
  534MOL0     H70462   6.996  -0.912  10.683 -1.5703  0.7707  1.9001
  534MOL0     H70463   7.039  -0.872  10.851  1.7572  2.2749  0.2718
  534MOL0     H70464   7.200  -1.055  10.667  1.3855 -0.1255 -0.7712
  534MOL0     H70465   7.123  -1.090  10.825  0.3409 -0.8944 -0.2946
  534MOL0     H70466   7.377  -0.927  10.783  0.7603  2.5937  2.7501
  534MOL0     H70467   7.276  -0.911  10.919 -0.4273 -0.1109 -0.3702
  534MOL0     H70468   7.425  -1.161  10.820  0.1123  0.7916 -1.4648
  534MOL0     H70469   7.304  -1.181  10.946  1.7453 -1.3090 -1.4370
  534MOL0     H70470   7.212  -0.608  10.073  0.2485  0.2769 -1.4778
  534MOL0     H70471   7.098  -0.538   9.877 -0.6753  1.9789 -0.6856
  534MOL0     H70472   6.846  -0.149   9.742 -2.6193  2.8753 -0.8177
  534MOL0     H70473   6.812  -0.024   9.549 -1.3412 -0.5919  0.9902
  534MOL0     H70474   7.099   1.471   9.648  0.4238 -1.8751 -2.2957
  534MOL0     H70475   7.198   1.697   9.667 -2.2157 -1.4718  2.8293
  534MOL0     H70476   7.265   2.067   9.468 -0.6455 -1.5007  0.9065
  534MOL0     H70477   7.307   2.300   9.531  0.9506  1.3561  1.0419
  534MOL0     H70478   7.693   2.382   9.662 -0.6601 -2.8138  0.1496
  534MOL0     H70479   7.662   2.393   9.827  3.0899 -1.1407 -1.7453
  534MOL0     H70480   7.618   2.591   9.596 -3.2156 -0.1703  1.6611
  534MOL0     H70481   7.565   2.644   9.752 -1.8808  1.9685 -4.0034
  534MOL0     H70482   7.859   2.543   9.685  0.3801  0.6559 -0.2048
  534MOL0     H70483   7.816   2.639   9.815 -0.4611  1.7572 -0.8157
  534MOL0     H70484   7.745   2.822   9.661 -0.5260 -1.4421  0.7001
  534MOL0     H70485   7.912   2.802   9.671 -1.0957  4.0220 -2.3358
  534MOL0     H70486   7.900   2.693   9.271 -3.2121 -0.1715 -0.9414
  534MOL0     H70487   7.636   2.177   9.780 -0.2351  0.5578 -0.2235
  534MOL0     H70488   7.616   1.946   9.703  2.2890  2.7429 -1.1965
  535MOL0     O70489   7.133   0.226  10.917  0.3298 -0.0796  0.1417
  535MOL0     C70490   7.195   0.133  10.866 -0.4379 -0.5519 -0.8191
  535MOL0     O70491   7.193   0.003  10.916 -0.5463  1.1146  0.0231
  535MOL0     C70492   7.111  -0.028  11.021  0.3952  0.3997 -0.2664
  535MOL0     C70493   7.167  -0.041  11.152 -0.5570  0.1689 -0.2596
  535MOL0     C70494   7.085  -0.075  11.266 -0.2317  0.0254 -1.3333
  535MOL0     C70495   6.950  -0.081  11.253 -0.1428 -0.2788  0.3128
  535MOL0     O70496   6.863  -0.115  11.357 -0.4290  0.1912 -0.1690
  535MOL0     C70497   6.900  -0.082  11.488 -0.0162 -0.6058 -0.7352
  535MOL0     C70498   6.775  -0.048  11.570  0.5903  0.6211  0.1187
  535MOL0     C70499   6.808   0.040  11.688 -0.5924 -0.0576  0.5645
  535MOL0     C70500   6.675   0.053  11.765 -0.2103 -0.2863  0.5665
  535MOL0     C70501   6.707   0.063  11.913  0.2605  0.5077 -0.6462
  535MOL0     C70502   6.583   0.053  12.002 -0.4511 -0.2204  0.0437
  535MOL0     C70503   6.598   0.066  12.151  0.6954  0.0363  0.8349
  535MOL0     C70504   6.469   0.101  12.228  0.3462  0.7239  0.2420
  535MOL0     N70505   6.482   0.154  12.361  0.6736  1.0991  0.3862
  535MOL0     C70506   6.509   0.282  12.396 -1.2168  0.7968  0.3303
  535MOL0     C70507   6.484   0.293  12.529 -0.0412 -0.1521 -0.5784
  535MOL0     C70508   6.514   0.405  12.624 -1.2241  0.4265 -0.8192
  535MOL0     C70509   6.394   0.511  12.623 -1.1611  0.5082  0.6414
  535MOL0     C70510   6.352   0.560  12.482 -0.1152  0.7869 -0.6554
  535MOL0     C70511   6.243   0.665  12.497 -1.6211  0.8664  0.5123
  535MOL0     O70512   6.134   0.640  12.584 -0.3554 -0.4978  0.0418
  535MOL0     C70513   6.036   0.736  12.593  0.2636 -0.2297 -0.3391
  535MOL0     C70514   5.909   0.698  12.556 -0.3093 -0.2426  0.2934
  535MOL0     C70515   5.797   0.778  12.578 -0.5817 -0.0772 -0.6163
  535MOL0     C70516   5.812   0.915  12.627  0.7573  0.3288  0.6161
  535MOL0     C70517   5.695   1.012  12.642 -0.6860  0.8465 -0.3907
  535MOL0     O70518   5.719   1.138  12.681 -0.6322 -0.0127  0.0353
  535MOL0     C70519   5.610   1.226  12.685  0.1504  0.2309 -0.5355
  535MOL0     C70520   5.507   1.208  12.781 -0.5688 -0.4181  0.1121
  535MOL0     C70521   5.407   1.305  12.800 -0.0805  0.2888  0.5723
  535MOL0     C70522   5.393   1.408  12.723  0.4772 -0.5597 -0.8224
  535MOL0     O70523   5.278   1.488  12.741  0.5677  0.4591 -0.8187
  535MOL0     C70524   5.273   1.611  12.682 -0.1865 -0.0737  0.3395
  535MOL0     C70525   5.218   1.614  12.544 -0.2427  0.9866 -0.1973
  535MOL0     C70526   5.072   1.580  12.543  0.4238 -0.1711  0.6371
  535MOL0     C70527   4.969   1.652  12.634 -1.4367 -0.3693  0.0768
  535MOL0     C70528   4.825   1.596  12.613  1.1002  0.5784  1.2316
  535MOL0     C70529   4.717   1.665  12.689 -0.0442  0.1681 -0.1754
  535MOL0     C70530   4.716   1.648  12.836 -0.5399  0.5319 -0.0176
  535MOL0     C70531   4.577   1.615  12.893  0.6358  0.3557  0.1386
  535MOL0    Cl70532   4.460   1.745  12.876  0.0327  0.2941 -0.1981
  535MOL0     C70533   5.490   1.424  12.616  0.4743 -0.0435  0.0767
  535MOL0     C70534   5.587   1.330  12.599  0.6942 -1.7518  0.0686
  535MOL0     O70535   5.591   0.973  12.593  0.3411 -0.5919  0.0884
  535MOL0     C70536   5.947   0.953  12.665  1.2076  0.3447  0.8582
  535MOL0     C70537   6.054   0.862  12.652 -0.7204 -0.8876 -0.5057
  535MOL0     N70538   6.451   0.161  12.570 -0.7928 -0.2525 -0.0133
  535MOL0     N70539   6.429   0.085  12.467  0.0206 -0.0272 -0.1770
  535MOL0     C70540   6.898  -0.061  11.124  0.3680  0.3979 -0.1517
  535MOL0     C70541   6.976  -0.042  11.013 -0.1817  0.1969  1.2240
  535MOL0     C70542   7.291   0.162  10.752  0.0505  0.3583 -0.8483
  535MOL0     C70543   7.383   0.063  10.719  0.2967 -0.3858 -0.5521
  535MOL0     C70544   7.476   0.082  10.618  0.8057  0.3046 -0.0671
  535MOL0     C70545   7.481   0.194  10.548 -0.3812  0.5342  0.1477
  535MOL0     O70546   7.570   0.186  10.449  0.3581  0.0219 -0.1810
  535MOL0     C70547   7.588   0.297  10.362  0.5670 -0.5572  0.8063
  535MOL0     C70548   7.632   0.233  10.230 -0.8308 -0.1799  0.1745
  535MOL0     C70549   7.515   0.141  10.182 -0.1951 -0.4915  1.1175
  535MOL0     C70550   7.387   0.212  10.150  0.7829 -0.1211  0.0498
  535MOL0     C70551   7.386   0.340  10.066 -0.5217  0.4859  0.0754
  535MOL0     C70552   7.377   0.449  10.011 -0.1857 -0.5266  0.6875
  535MOL0     C70553   7.391   0.299  10.582  0.1588 -1.0522 -0.0838
  535MOL0     C70554   7.296   0.281  10.680 -1.1384 -0.2770 -0.0354
  535MOL0     H70555   7.273  -0.025  11.169 -0.6564  0.2621  0.3029
  535MOL0     H70556   7.130  -0.080  11.365 -2.2399  1.3443 -0.2732
  535MOL0     H70557   6.960   0.010  11.486  0.9383 -1.1778  0.3498
  535MOL0     H70558   6.944  -0.164  11.546 -2.6140 -0.2871  1.8612
  535MOL0     H70559   6.739  -0.145  11.605  3.0905 -0.4500 -0.0922
  535MOL0     H70560   6.703   0.002  11.505  0.7275  0.1590 -0.3904
  535MOL0     H70561   6.839   0.139  11.655  1.9000 -1.0940 -0.4655
  535MOL0     H70562   6.898  -0.004  11.732  0.8553  0.1648 -1.9673
  535MOL0     H70563   6.614   0.137  11.730 -1.6847 -0.5083  2.4159
  535MOL0     H70564   6.617  -0.038  11.741  1.4538 -1.7491  1.8309
  535MOL0     H70565   6.746   0.160  11.942 -0.0210  0.4771 -0.1541
  535MOL0     H70566   6.769  -0.024  11.935 -2.6242 -1.2151  1.5186
  535MOL0     H70567   6.555  -0.051  11.982  1.6341 -0.6559 -0.8618
  535MOL0     H70568   6.515   0.133  11.970  0.5688  1.5855  2.0819
  535MOL0     H70569   6.654  -0.021  12.188 -1.7713 -1.4147  1.3947
  535MOL0     H70570   6.663   0.151  12.174 -0.2887  0.6775  1.2979
  535MOL0     H70571   6.401   0.016  12.219  2.3876 -0.8599 -1.2001
  535MOL0     H70572   6.419   0.183  12.176 -1.9531 -0.8001 -0.0884
  535MOL0     H70573   6.573   0.348  12.339 -0.5628  0.2000  0.3705
  535MOL0     H70574   6.607   0.460  12.604  1.2715 -0.3613  6.0470
  535MOL0     H70575   6.529   0.369  12.726  0.1941  0.2229 -1.0739
  535MOL0     H70576   6.426   0.600  12.678  1.0599 -1.1503  2.1905
  535MOL0     H70577   6.326   0.467  12.697  0.3754  0.4119  2.0403
  535MOL0     H70578   6.443   0.593  12.433  0.6277 -0.9231 -0.5110
  535MOL0     H70579   6.313   0.477  12.422 -1.4783  0.9362 -0.0292
  535MOL0     H70580   6.204   0.678  12.396 -0.6094 -1.4659 -0.2416
  535MOL0     H70581   6.296   0.756  12.526  1.5965 -0.7672  0.1361
  535MOL0     H70582   5.887   0.600  12.514  0.6886 -1.8212  3.2167
  535MOL0     H70583   5.703   0.726  12.564  1.7681 -4.1740 -3.1377
  535MOL0     H70584   5.518   1.130  12.855 -5.3350  0.2268  1.7875
  535MOL0     H70585   5.326   1.290  12.869 -0.6701 -0.2241 -0.2141
  535MOL0     H70586   5.373   1.655  12.685 -0.3382  0.3842 -0.8755
  535MOL0     H70587   5.219   1.684  12.743 -0.1275 -1.5930  2.3112
  535MOL0     H70588   5.263   1.538  12.479 -0.5661  0.1770  0.5178
  535MOL0     H70589   5.234   1.715  12.505 -1.0075  1.4988  0.7953
  535MOL0     H70590   5.047   1.475  12.563  2.1555 -0.1763  3.2235
  535MOL0     H70591   5.037   1.590  12.440  3.0099  2.5812 -0.0957
  535MOL0     H70592   4.990   1.634  12.740  0.7278  2.0436  0.1536
  535MOL0     H70593   4.974   1.755  12.599 -1.1730 -0.6011 -0.5729
  535MOL0     H70594   4.828   1.489  12.635  0.0097  0.2027 -0.2558
  535MOL0     H70595   4.812   1.614  12.506  0.1637 -0.9688  1.0621
  535MOL0     H70596   4.626   1.625  12.644 -0.4115 -1.0434  1.5554
  535MOL0     H70597   4.717   1.772  12.666 -3.6128  0.5990  1.1288
  535MOL0     H70598   4.796   1.574  12.851 -0.6890  0.1580 -0.9431
  535MOL0     H70599   4.760   1.730  12.893  4.0588 -2.7453  1.8126
  535MOL0     H70600   4.594   1.605  13.001 -1.5105 -2.2560  0.3228
  535MOL0     H70601   4.534   1.523  12.852 -2.0851  2.0634 -1.1702
  535MOL0     H70602   5.474   1.502  12.543 -1.7876 -1.3741 -0.9819
  535MOL0     H70603   5.666   1.335  12.525  2.2472 -0.7691  1.7194
  535MOL0     H70604   5.958   1.050  12.714 -3.1025 -0.6287  4.4601
  535MOL0     H70605   6.154   0.894  12.681 -1.7319  2.7899 -0.5327
  535MOL0     H70606   6.790  -0.069  11.123  0.1203  2.4393  2.0729
  535MOL0     H70607   6.923  -0.029  10.919  2.6307  0.3168 -0.4516
  535MOL0     H70608   7.381  -0.024  10.784  0.5357  2.8693  4.3182
  535MOL0     H70609   7.533  -0.005  10.588  1.1434 -0.4891  2.5817
  535MOL0     H70610   7.664   0.363  10.403  0.7534  0.0539 -0.4708
  535MOL0     H70611   7.488   0.336  10.342 -0.9695 -3.6571  1.7315
  535MOL0     H70612   7.644   0.314  10.157  0.6021 -1.3522 -0.9540
  535MOL0     H70613   7.721   0.168  10.229  0.8709  2.0380 -0.1501
  535MOL0     H70614   7.497   0.053  10.245  1.6496 -0.8089  1.2477
  535MOL0     H70615   7.541   0.099  10.085 -1.0089 -0.8734  1.0566
  535MOL0     H70616   7.319   0.152  10.090 -1.4715  2.0461  0.2834
  535MOL0     H70617   7.336   0.237  10.244 -0.9814 -3.9559  0.2984
  535MOL0     H70618   7.367   0.545   9.965 -1.8021  0.7221  3.4181
  535MOL0     H70619   7.402   0.397  10.536  2.1321 -0.9441  0.5276
  535MOL0     H70620   7.244   0.373  10.707  1.2497  0.2144  3.6259
  536MOL0     O70621   6.409   2.461   5.038 -0.1848  0.0652  0.5446
  536MOL0     C70622   6.472   2.568   5.045 -0.2550  0.3424  0.6291
  536MOL0     O70623   6.413   2.692   5.074  0.2197  0.3463  1.2269
  536MOL0     C70624   6.280   2.684   5.077  0.7899 -0.4903  0.0100
  536MOL0     C70625   6.213   2.703   5.194  0.6465 -0.2716 -1.0241
  536MOL0     C70626   6.069   2.696   5.202  0.2628 -0.5908 -0.5538
  536MOL0     C70627   5.991   2.688   5.086  1.6867 -0.6796  0.2941
  536MOL0     O70628   5.860   2.675   5.100  0.8173  0.4939  0.3369
  536MOL0     C70629   5.766   2.692   4.989  0.3346  0.4539 -0.1846
  536MOL0     C70630   5.633   2.725   5.056  0.2968  0.5863  0.3887
  536MOL0     C70631   5.517   2.771   4.968  0.0275 -0.0133 -0.8183
  536MOL0     C70632   5.389   2.790   5.051  0.0964  0.2190 -0.1803
  536MOL0     C70633   5.257   2.825   4.975  0.3140  0.3152  0.4550
  536MOL0     C70634   5.217   2.734   4.856  0.2304  0.8586  0.4061
  536MOL0     C70635   5.179   2.585   4.894 -0.1994  0.6540 -0.0188
  536MOL0     C70636   5.077   2.575   5.011  0.6122  0.1720  0.6486
  536MOL0     N70637   4.960   2.672   5.006  0.0330  0.7605 -0.3290
  536MOL0     C70638   4.839   2.646   4.946 -0.0595 -0.4248 -0.9874
  536MOL0     C70639   4.754   2.734   4.990  0.1797  0.3678  0.6752
  536MOL0     C70640   4.609   2.748   4.957 -0.1698 -0.4761  0.3855
  536MOL0     C70641   4.539   2.638   5.039 -0.6027  0.1710  0.4273
  536MOL0     C70642   4.447   2.557   4.947  0.9970  0.4239  0.3261
  536MOL0     C70643   4.386   2.451   5.042 -0.4634 -0.2856 -1.0927
  536MOL0     O70644   4.262   2.400   5.005  0.2142 -1.1218 -0.7577
  536MOL0     C70645   4.232   2.274   5.060 -0.9911 -0.1452 -0.1363
  536MOL0     C70646   4.144   2.266   5.165  0.3492  0.5439 -0.5324
  536MOL0     C70647   4.106   2.138   5.207 -0.0182 -0.4708  0.0599
  536MOL0     C70648   4.146   2.020   5.150 -0.2633  0.6889  0.5159
  536MOL0     C70649   4.130   1.887   5.209 -0.8709 -0.7473  1.4904
  536MOL0     O70650   4.144   1.872   5.346 -0.2025  0.9024 -0.0971
  536MOL0     C70651   4.094   1.758   5.408 -0.6348  0.2345  0.0055
  536MOL0     C70652   4.177   1.677   5.475 -0.1812 -0.0769  0.2836
  536MOL0     C70653   4.131   1.564   5.543 -0.8189  0.2463  0.0203
  536MOL0     C70654   3.993   1.537   5.537 -0.6716  0.0128  0.8033
  536MOL0     O70655   3.950   1.433   5.624 -0.7418 -0.1103  0.3868
  536MOL0     C70656   3.822   1.449   5.679  0.6485 -0.1168 -0.0092
  536MOL0     C70657   3.717   1.375   5.609  0.3777  0.1722  1.8335
  536MOL0     C70658   3.734   1.218   5.606 -0.5776  0.2742  0.3886
  536MOL0     C70659   3.632   1.152   5.508  0.9854 -0.0806 -0.5023
  536MOL0     C70660   3.608   1.205   5.367  0.2535 -0.1845  0.8807
  536MOL0     C70661   3.725   1.214   5.280 -0.0619 -0.1055 -0.2516
  536MOL0     C70662   3.700   1.245   5.135  0.0478  0.7373  0.3370
  536MOL0     C70663   3.676   1.109   5.065 -1.0502  0.4797 -0.1050
  536MOL0    Cl70664   3.501   1.096   5.072 -0.0790 -0.4397 -0.0396
  536MOL0     C70665   3.914   1.609   5.453  0.2051 -0.1082 -1.1674
  536MOL0     C70666   3.962   1.732   5.406  0.5530  1.1140  0.5982
  536MOL0     O70667   4.097   1.797   5.133  0.5040  1.0096  0.0766
  536MOL0     C70668   4.242   2.035   5.043 -0.4455 -0.1058 -0.0144
  536MOL0     C70669   4.285   2.156   5.000  0.4876  0.8979  0.1861
  536MOL0     N70670   4.811   2.820   5.079 -0.5970 -0.5886 -0.6489
  536MOL0     N70671   4.940   2.789   5.070  0.2267 -0.5725 -0.3166
  536MOL0     C70672   6.053   2.701   4.965 -0.0074 -0.6783  0.2498
  536MOL0     C70673   6.193   2.684   4.962 -1.1787 -0.2185 -0.0404
  536MOL0     C70674   6.616   2.566   5.022 -0.0473 -0.1895  0.3187
  536MOL0     C70675   6.691   2.688   5.019  0.5034 -0.9198  0.0762
  536MOL0     C70676   6.822   2.672   5.036  0.5717 -0.8606  0.5619
  536MOL0     C70677   6.887   2.548   5.006  0.4034  0.2726 -0.0352
  536MOL0     O70678   7.014   2.529   5.021 -0.8116  0.3978 -0.0573
  536MOL0     C70679   7.101   2.636   5.069 -0.7639  0.9032  0.0954
  536MOL0     C70680   7.247   2.586   5.069 -0.2916 -0.2949 -0.5317
  536MOL0     C70681   7.333   2.589   4.936 -1.3082 -0.6931 -0.2430
  536MOL0     C70682   7.472   2.525   4.949  0.0154 -0.4954 -0.1134
  536MOL0     C70683   7.471   2.387   5.010 -0.1793 -0.5988  0.4511
  536MOL0     C70684   7.468   2.277   5.064 -0.1966 -0.1506 -0.2044
  536MOL0     C70685   6.814   2.427   4.981 -0.0474 -0.8903 -0.1994
  536MOL0     C70686   6.682   2.445   4.991 -0.0376 -0.2935  0.3016
  536MOL0     H70687   6.282   2.721   5.276  0.9147 -0.8026 -1.1336
  536MOL0     H70688   6.026   2.709   5.300  1.4776  0.5797 -0.1519
  536MOL0     H70689   5.742   2.607   4.924  1.1879  0.3996 -0.4500
  536MOL0     H70690   5.803   2.775   4.928 -0.7190  1.1922  0.1587
  536MOL0     H70691   5.650   2.806   5.127 -1.5788  2.9186 -1.6439
  536MOL0     H70692   5.590   2.642   5.113  0.8673  0.5603  0.7922
  536MOL0     H70693   5.512   2.696   4.890 -1.4735 -1.2769  0.4204
  536MOL0     H70694   5.540   2.861   4.909  3.4576 -0.1589  0.0703
  536MOL0     H70695   5.376   2.697   5.107  2.2435  0.3817  0.6897
  536MOL0     H70696   5.407   2.869   5.125  3.6960  0.1988 -0.8652
  536MOL0     H70697   5.263   2.921   4.922 -1.2514 -0.5847 -1.5067
  536MOL0     H70698   5.176   2.834   5.048 -0.7872 -0.6721 -0.6060
  536MOL0     H70699   5.295   2.729   4.779 -1.0254  1.8761 -1.0013
  536MOL0     H70700   5.127   2.781   4.815 -0.8470  0.5221  2.2809
  536MOL0     H70701   5.144   2.535   4.803  2.6964  0.8489 -1.3529
  536MOL0     H70702   5.270   2.533   4.925 -0.9350  0.5763  2.2228
  536MOL0     H70703   5.121   2.573   5.111  0.0737 -2.3446  0.8998
  536MOL0     H70704   5.039   2.474   4.996  1.6848  0.0257 -1.4786
  536MOL0     H70705   4.824   2.568   4.872  0.0672 -0.8837 -0.5319
  536MOL0     H70706   4.589   2.738   4.849  2.0392 -2.8920  0.1291
  536MOL0     H70707   4.573   2.845   4.993 -0.9889 -0.2938 -0.8607
  536MOL0     H70708   4.484   2.677   5.125  2.7740  1.0905  2.3390
  536MOL0     H70709   4.608   2.570   5.090 -2.5444 -2.8712 -0.7259
  536MOL0     H70710   4.372   2.623   4.901  0.4823 -1.8846 -2.4401
  536MOL0     H70711   4.499   2.503   4.867 -0.8447 -0.8686 -0.0488
  536MOL0     H70712   4.385   2.482   5.146 -1.0961 -1.3144 -0.7757
  536MOL0     H70713   4.455   2.367   5.033  2.6566  2.0808 -0.9351
  536MOL0     H70714   4.105   2.356   5.212  1.1876 -0.2132  1.7748
  536MOL0     H70715   4.031   2.127   5.285 -0.2274 -4.0954 -0.4670
  536MOL0     H70716   4.282   1.702   5.486  0.0018 -1.4800  2.3520
  536MOL0     H70717   4.200   1.508   5.604  0.8972 -0.3566 -2.3462
  536MOL0     H70718   3.799   1.555   5.694 -1.7984 -0.4894 -0.7387
  536MOL0     H70719   3.831   1.401   5.778 -0.1491 -1.3203 -0.4972
  536MOL0     H70720   3.712   1.406   5.504 -1.9800 -1.3241  1.4241
  536MOL0     H70721   3.623   1.395   5.662  1.3512  4.0464  2.4440
  536MOL0     H70722   3.711   1.187   5.708 -0.1634  0.9003  0.6784
  536MOL0     H70723   3.834   1.190   5.571 -1.6116 -0.3747 -2.2847
  536MOL0     H70724   3.668   1.050   5.495  0.1038 -0.6584  1.3411
  536MOL0     H70725   3.540   1.157   5.567  2.0972  2.2452  1.2313
  536MOL0     H70726   3.556   1.301   5.366  0.8135  0.1412  1.8655
  536MOL0     H70727   3.536   1.137   5.321 -0.2259  1.2904 -0.6680
  536MOL0     H70728   3.784   1.122   5.289  0.3385 -0.0098 -1.5973
  536MOL0     H70729   3.783   1.300   5.314  2.5423 -0.7328 -2.7250
  536MOL0     H70730   3.611   1.305   5.113 -0.9619  0.2192  2.7401
  536MOL0     H70731   3.787   1.298   5.094  0.9885  0.5240  1.9688
  536MOL0     H70732   3.717   1.019   5.112  0.3249  0.1596 -1.8507
  536MOL0     H70733   3.718   1.117   4.965 -1.3449  0.3038 -0.2416
  536MOL0     H70734   3.807   1.599   5.437 -0.1926  0.4376  0.9460
  536MOL0     H70735   3.894   1.794   5.349  0.2669  1.1683  0.9902
  536MOL0     H70736   4.275   1.937   5.012  0.7169 -0.2876  1.7043
  536MOL0     H70737   4.359   2.152   4.920 -1.9886  0.7922 -2.2385
  536MOL0     H70738   6.012   2.721   4.866  1.4120  2.1216  0.0940
  536MOL0     H70739   6.247   2.677   4.868 -3.4692  3.9830 -1.9463
  536MOL0     H70740   6.653   2.789   5.035 -0.3336 -0.9518 -1.4944
  536MOL0     H70741   6.892   2.751   5.062  1.0910 -1.5670  1.3322
  536MOL0     H70742   7.075   2.668   5.170 -3.5982 -0.1100 -0.2085
  536MOL0     H70743   7.091   2.725   5.006 -1.7793  0.2860 -0.6606
  536MOL0     H70744   7.301   2.645   5.144  0.2123 -0.0189 -1.1001
  536MOL0     H70745   7.245   2.483   5.106 -0.0510  0.3982  1.5326
  536MOL0     H70746   7.341   2.692   4.901  1.7545 -1.2654 -1.6009
  536MOL0     H70747   7.284   2.533   4.856 -0.5489 -3.2304  0.9442
  536MOL0     H70748   7.527   2.522   4.854 -2.7086 -1.5223 -1.7716
  536MOL0     H70749   7.534   2.593   5.009  1.7645  1.0722 -3.3780
  536MOL0     H70750   7.463   2.174   5.092  1.3533 -0.3984 -0.7270
  536MOL0     H70751   6.873   2.336   4.970  0.1570 -0.7816 -0.0231
  536MOL0     H70752   6.618   2.359   4.973  2.5523 -2.3835  0.5722
  537MOL0     O70753   5.124   0.646   5.112  0.1371  0.0532 -0.4045
  537MOL0     C70754   5.193   0.724   5.046 -0.4985  0.5084  0.3763
  537MOL0     O70755   5.147   0.817   4.959  0.3212 -0.4146  0.4742
  537MOL0     C70756   5.056   0.793   4.868 -0.2821 -0.2980  0.5032
  537MOL0     C70757   4.984   0.670   4.847 -0.7256 -0.6437  0.5698
  537MOL0     C70758   4.900   0.658   4.737 -0.1511 -0.1641 -0.6988
  537MOL0     C70759   4.872   0.771   4.652  0.3810  0.8354 -0.0900
  537MOL0     O70760   4.799   0.757   4.536 -0.6297  0.4980 -0.0303
  537MOL0     C70761   4.675   0.825   4.552  0.0457  0.0349  0.2649
  537MOL0     C70762   4.588   0.782   4.431 -0.6641  0.1582 -0.8421
  537MOL0     C70763   4.482   0.883   4.386 -0.1759  0.2002 -0.4875
  537MOL0     C70764   4.387   0.823   4.273  0.3333 -1.1151 -0.1795
  537MOL0     C70765   4.339   0.940   4.188 -0.7393 -0.1458  0.6645
  537MOL0     C70766   4.241   0.901   4.085  0.1403  0.5710 -0.5056
  537MOL0     C70767   4.128   1.000   4.083  0.4901  0.7128 -0.1980
  537MOL0     C70768   4.011   0.983   4.188  0.1316  0.8659  0.4855
  537MOL0     N70769   3.931   0.869   4.143  0.8315 -0.0088  0.7380
  537MOL0     C70770   3.803   0.879   4.083 -0.6848  0.0704  0.7153
  537MOL0     C70771   3.772   0.750   4.047 -0.3485  0.3226  0.0698
  537MOL0     C70772   3.652   0.701   3.983  0.4174  0.4260  0.1391
  537MOL0     C70773   3.545   0.657   4.087 -1.6689  0.4549 -0.2589
  537MOL0     C70774   3.523   0.510   4.080  0.4184  0.1490 -0.4166
  537MOL0     C70775   3.426   0.464   4.186  0.7752  0.6891  0.2647
  537MOL0     O70776   3.297   0.525   4.189  0.7084  0.3995  0.5335
  537MOL0     C70777   3.202   0.470   4.268 -0.2865 -0.4011 -0.7025
  537MOL0     C70778   3.079   0.528   4.263 -0.0789  0.4644  1.4865
  537MOL0     C70779   2.964   0.475   4.324  0.5787 -0.2971 -0.4655
  537MOL0     C70780   2.981   0.368   4.403 -0.3744  0.3395 -0.3030
  537MOL0     C70781   2.869   0.310   4.474 -0.1445  0.1946 -0.5142
  537MOL0     O70782   2.743   0.371   4.446  0.0320 -0.0629 -0.1063
  537MOL0     C70783   2.635   0.333   4.512  0.3467 -0.1671  0.4613
  537MOL0     C70784   2.628   0.336   4.650  0.1968  0.2186 -0.2285
  537MOL0     C70785   2.506   0.299   4.712  0.1886 -0.3885 -0.0867
  537MOL0     C70786   2.398   0.267   4.630  0.2482 -0.1923 -0.3825
  537MOL0     O70787   2.285   0.212   4.701 -0.5080 -0.5003 -0.4923
  537MOL0     C70788   2.151   0.182   4.647 -0.2513  0.5369 -0.3164
  537MOL0     C70789   2.129   0.017   4.635  0.1879 -0.0777  1.0251
  537MOL0     C70790   2.230  -0.055   4.539  0.3003  0.7596 -0.3337
  537MOL0     C70791   2.349  -0.122   4.611 -0.0448  1.1309  0.1153
  537MOL0     C70792   2.466  -0.097   4.514 -0.8630 -0.2464 -0.1620
  537MOL0     C70793   2.589  -0.167   4.581 -0.0024 -0.4422  0.3249
  537MOL0     C70794   2.716  -0.129   4.484  0.9250  0.7408 -0.3751
  537MOL0     C70795   2.726  -0.223   4.365 -0.0955 -0.1487  0.4088
  537MOL0    Cl70796   2.743  -0.393   4.404  0.2257  0.3546 -0.0072
  537MOL0     C70797   2.410   0.271   4.493  0.3651  0.0881 -0.0459
  537MOL0     C70798   2.525   0.297   4.426 -0.6743 -0.2674  0.2262
  537MOL0     O70799   2.896   0.198   4.523  0.0106  0.2045  0.0491
  537MOL0     C70800   3.113   0.322   4.437 -0.1249  0.2763 -0.4179
  537MOL0     C70801   3.222   0.363   4.359 -0.5688 -0.1663  0.4311
  537MOL0     N70802   3.884   0.668   4.066 -0.3431  0.6638 -0.2082
  537MOL0     N70803   3.972   0.737   4.124 -0.5636 -0.1431  0.4851
  537MOL0     C70804   4.943   0.887   4.667  0.0115  0.4986  0.4345
  537MOL0     C70805   5.030   0.908   4.779 -0.4308  1.0008 -0.2514
  537MOL0     C70806   5.329   0.743   5.097 -0.6534  0.4681 -0.1383
  537MOL0     C70807   5.416   0.847   5.054  0.5904  0.7407 -0.1846
  537MOL0     C70808   5.548   0.875   5.099  0.0369  0.1878  0.3167
  537MOL0     C70809   5.596   0.798   5.205  0.0527 -0.1262  0.3076
  537MOL0     O70810   5.731   0.816   5.243 -0.2804  0.4504  0.3430
  537MOL0     C70811   5.753   0.819   5.382 -0.7848 -0.1527 -0.4084
  537MOL0     C70812   5.901   0.850   5.417  1.0560 -0.6109  0.2016
  537MOL0     C70813   5.922   0.994   5.358  0.7145 -0.6289 -0.3397
  537MOL0     C70814   5.866   1.103   5.442 -0.1123  0.2622  0.0247
  537MOL0     C70815   5.946   1.142   5.563  0.0646 -0.7737 -1.1684
  537MOL0     C70816   6.016   1.180   5.653  0.0997 -0.8322  0.2910
  537MOL0     C70817   5.508   0.699   5.260 -0.6100 -0.2528  0.1863
  537MOL0     C70818   5.389   0.668   5.202  0.5535  0.3994 -0.6828
  537MOL0     H70819   5.001   0.586   4.914 -4.0817 -0.8009  1.4062
  537MOL0     H70820   4.841   0.569   4.719  0.5327 -1.0728  1.2770
  537MOL0     H70821   4.689   0.933   4.547 -2.4584  0.3786 -1.0520
  537MOL0     H70822   4.623   0.804   4.646 -0.2502  3.6719  1.0626
  537MOL0     H70823   4.545   0.686   4.460 -0.9017  0.7554  0.8554
  537MOL0     H70824   4.657   0.764   4.348  1.4100 -3.0184  1.3743
  537MOL0     H70825   4.516   0.985   4.365 -1.3293  1.4055  2.8237
  537MOL0     H70826   4.419   0.891   4.476  0.5686 -0.5611  0.1183
  537MOL0     H70827   4.452   0.756   4.216  0.3481 -1.4171  0.1863
  537MOL0     H70828   4.303   0.769   4.317  0.5216  0.5126  2.3764
  537MOL0     H70829   4.427   0.994   4.151 -1.6725  1.9362  1.3122
  537MOL0     H70830   4.280   1.013   4.244 -0.9731  1.9378 -2.0949
  537MOL0     H70831   4.195   0.804   4.102  1.7411 -0.0756  0.2937
  537MOL0     H70832   4.297   0.899   3.991  1.4425 -2.8586  0.2080
  537MOL0     H70833   4.170   1.101   4.091  0.3856  0.5865  2.8236
  537MOL0     H70834   4.088   1.008   3.981 -1.2061 -2.2323  0.1539
  537MOL0     H70835   3.950   1.072   4.203 -1.3443  0.1036 -0.6942
  537MOL0     H70836   4.058   0.950   4.282  2.6910 -1.2073 -1.3807
  537MOL0     H70837   3.736   0.960   4.059  0.7265  0.5602 -1.9918
  537MOL0     H70838   3.660   0.606   3.930 -3.4863 -0.7001  1.2634
  537MOL0     H70839   3.608   0.772   3.912 -0.6307 -0.7746 -0.4379
  537MOL0     H70840   3.451   0.706   4.059 -0.8197  1.3364 -1.7029
  537MOL0     H70841   3.567   0.699   4.186  0.3172  0.4170 -0.6531
  537MOL0     H70842   3.495   0.473   3.981  0.3409 -1.2273  0.1016
  537MOL0     H70843   3.620   0.468   4.108 -0.0580 -1.6636 -1.3738
  537MOL0     H70844   3.483   0.492   4.275  2.1411  2.1102 -1.0014
  537MOL0     H70845   3.418   0.355   4.179  1.7324  0.5746  0.6668
  537MOL0     H70846   3.075   0.614   4.197  3.0790 -1.8575 -2.2272
  537MOL0     H70847   2.869   0.527   4.327  2.3247  3.1218  2.3607
  537MOL0     H70848   2.716   0.352   4.711 -0.1334 -0.3478  0.4188
  537MOL0     H70849   2.499   0.319   4.819 -2.7787 -0.3149 -0.2066
  537MOL0     H70850   2.117   0.241   4.562 -0.8955 -0.6044 -0.8756
  537MOL0     H70851   2.076   0.199   4.724  0.9720 -0.8819  1.2638
  537MOL0     H70852   2.032  -0.004   4.587  0.1577 -2.2016  1.9140
  537MOL0     H70853   2.113  -0.029   4.733  0.2876  1.0003  1.5544
  537MOL0     H70854   2.260   0.017   4.462  0.9554  3.8927  2.5913
  537MOL0     H70855   2.179  -0.134   4.484 -1.9012  2.3371 -0.7026
  537MOL0     H70856   2.372  -0.071   4.704 -0.9440  2.9482 -0.6036
  537MOL0     H70857   2.327  -0.229   4.614 -0.4840  1.1081 -2.0458
  537MOL0     H70858   2.484   0.010   4.523 -1.6308 -0.0852 -0.4585
  537MOL0     H70859   2.467  -0.128   4.409 -0.3693 -0.6736 -0.0382
  537MOL0     H70860   2.578  -0.276   4.584 -1.2847 -0.3407  3.5694
  537MOL0     H70861   2.595  -0.123   4.681  0.2481 -1.1485  0.6282
  537MOL0     H70862   2.701  -0.029   4.441 -0.9406  0.8611  0.4724
  537MOL0     H70863   2.809  -0.121   4.541  0.4437 -2.7239  1.0966
  537MOL0     H70864   2.810  -0.195   4.301  0.3737  1.8659  1.8106
  537MOL0     H70865   2.639  -0.208   4.301  2.8309  0.0570 -3.9037
  537MOL0     H70866   2.323   0.245   4.433  1.2507 -1.2172 -0.8295
  537MOL0     H70867   2.529   0.292   4.317 -2.7315  3.0640 -0.1574
  537MOL0     H70868   3.134   0.240   4.504 -0.9857 -1.8413 -2.6204
  537MOL0     H70869   3.321   0.319   4.354 -1.7007 -2.7352 -1.9064
  537MOL0     H70870   4.946   0.954   4.582 -0.0515 -2.2225 -1.8659
  537MOL0     H70871   5.074   1.007   4.787  2.2574 -0.1541  0.6969
  537MOL0     H70872   5.372   0.896   4.967 -2.6207 -1.0242  0.2915
  537MOL0     H70873   5.614   0.949   5.055  0.1140 -0.5122 -0.7861
  537MOL0     H70874   5.733   0.715   5.406 -3.7655  0.6725  1.2935
  537MOL0     H70875   5.685   0.886   5.436 -0.7368  2.0941 -2.9264
  537MOL0     H70876   5.922   0.832   5.523 -2.3015  0.5134  1.1631
  537MOL0     H70877   5.962   0.775   5.363  3.0930 -2.7378  4.9170
  537MOL0     H70878   5.890   1.002   5.254 -1.6082  3.6091  0.4717
  537MOL0     H70879   6.029   1.014   5.349  0.4680  1.0292  0.0500
  537MOL0     H70880   5.867   1.195   5.384  3.9925 -0.6237 -1.5996
  537MOL0     H70881   5.762   1.083   5.472  0.3440 -1.9501  0.2909
  537MOL0     H70882   6.081   1.216   5.730  1.7771 -1.2041 -0.9092
  537MOL0     H70883   5.537   0.643   5.349  1.9441  1.6926  0.7323
  537MOL0     H70884   5.320   0.604   5.256 -3.0000  1.6511 -3.3328
  538MOL0     O70885   9.279   4.903   7.203  0.7186  0.1826  0.1622
  538MOL0     C70886   9.228   4.821   7.279  1.4396 -0.3860  0.0780
  538MOL0     O70887   9.254   4.690   7.287 -0.9551 -0.0889 -0.3876
  538MOL0     C70888   9.331   4.638   7.182 -0.3987  1.0789 -0.2627
  538MOL0     C70889   9.408   4.529   7.200  0.1542 -0.4338 -0.4978
  538MOL0     C70890   9.480   4.463   7.104  0.3481  0.1350  0.8424
  538MOL0     C70891   9.444   4.477   6.966  0.7402 -0.7260 -0.7116
  538MOL0     O70892   9.497   4.404   6.870 -0.7384 -0.3473 -0.5454
  538MOL0     C70893   9.412   4.341   6.773 -0.6029 -0.6554  1.3243
  538MOL0     C70894   9.400   4.200   6.789  0.0546  0.1982 -0.4428
  538MOL0     C70895   9.531   4.127   6.794  0.1046 -0.7628 -0.0892
  538MOL0     C70896   9.503   3.991   6.859  0.5564  1.1045  0.1449
  538MOL0     C70897   9.625   3.897   6.854 -0.0908 -0.2749  0.2066
  538MOL0     C70898   9.659   3.868   6.708  0.1881  0.3979  0.2975
  538MOL0     C70899   9.770   3.762   6.703 -0.2250 -1.6062  0.4813
  538MOL0     C70900   9.906   3.823   6.757 -0.0929  0.0162  0.0987
  538MOL0     N70901   9.951   3.941   6.676 -0.0552 -0.3958 -0.1538
  538MOL0     C70902   9.980   4.068   6.721 -0.6375  0.2577  0.1927
  538MOL0     C70903  10.015   4.141   6.611  0.0902  0.4591 -0.2156
  538MOL0     C70904  10.025   4.298   6.613 -0.1643  0.7886  0.0543
  538MOL0     C70905   9.905   4.359   6.552 -0.0383  0.1771  0.3993
  538MOL0     C70906   9.901   4.512   6.562  0.4588  0.2324 -0.2008
  538MOL0     C70907  10.025   4.573   6.502  1.0406 -0.3531  0.1551
  538MOL0     O70908   9.978   4.691   6.441  0.5059 -0.1614  0.4476
  538MOL0     C70909  10.076   4.791   6.420  0.4091 -0.4586  0.2123
  538MOL0     C70910  10.207   4.760   6.381 -0.8431  0.1461  0.4129
  538MOL0     C70911  10.301   4.864   6.363  0.9174 -0.5235  0.2988
  538MOL0     C70912  10.261   5.000   6.371 -0.0350 -0.0845  0.1462
  538MOL0     C70913  10.355   5.113   6.344  0.0113  0.0091 -0.7525
  538MOL0     O70914  10.316   5.238   6.378 -0.9960  0.3961 -0.6296
  538MOL0     C70915  10.402   5.337   6.332  0.4341  0.2874  0.0904
  538MOL0     C70916  10.444   5.436   6.421 -0.4594  0.5199 -0.3738
  538MOL0     C70917  10.533   5.537   6.382 -0.1974 -0.3680 -0.0019
  538MOL0     C70918  10.559   5.561   6.249 -0.5079  0.3749 -0.3299
  538MOL0     O70919  10.660   5.648   6.213 -0.0629 -0.0038 -0.2755
  538MOL0     C70920  10.640   5.746   6.107 -0.5586 -0.3428  0.1893
  538MOL0     C70921  10.733   5.859   6.145 -0.3505  0.0743  0.5454
  538MOL0     C70922  10.707   5.962   6.033 -0.6162 -0.3240 -0.3330
  538MOL0     C70923  10.805   6.079   6.060 -0.0617  0.1907  0.3929
  538MOL0     C70924  10.785   6.187   5.952  0.1199  0.0832  0.9266
  538MOL0     C70925  10.863   6.324   5.956 -0.2548 -1.1193  0.0800
  538MOL0     C70926  10.807   6.419   5.850 -0.0631  0.6731 -0.1456
  538MOL0     C70927  10.915   6.497   5.781  0.2728  0.3430 -0.0170
  538MOL0    Cl70928  11.036   6.558   5.901 -0.5081 -0.2365  0.1680
  538MOL0     C70929  10.509   5.470   6.153  0.7634 -0.1200 -0.8576
  538MOL0     C70930  10.436   5.357   6.196 -0.4027 -1.3923  0.3040
  538MOL0     O70931  10.465   5.082   6.307  0.3415 -0.6292  0.1785
  538MOL0     C70932  10.127   5.026   6.420 -0.3233 -0.3166  0.1296
  538MOL0     C70933  10.029   4.923   6.440 -0.4839 -0.1393  0.4288
  538MOL0     N70934  10.015   4.053   6.505  0.6828 -0.2212  1.3054
  538MOL0     N70935   9.983   3.939   6.539  0.4211 -0.2908  0.2878
  538MOL0     C70936   9.350   4.579   6.947 -0.2876  0.1768 -0.8383
  538MOL0     C70937   9.309   4.671   7.046 -0.0524  0.4802  0.2526
  538MOL0     C70938   9.143   4.901   7.391 -0.4567  0.6627  0.1091
  538MOL0     C70939   9.097   5.037   7.367  0.8621 -0.5216  0.3625
  538MOL0     C70940   9.037   5.095   7.478 -0.6194 -0.5260 -0.4226
  538MOL0     C70941   9.004   5.032   7.599  0.5549 -0.1002  0.0585
  538MOL0     O70942   8.944   5.107   7.700  0.7513 -0.3682 -0.5347
  538MOL0     C70943   8.884   5.038   7.813  1.2588 -0.8930 -0.1724
  538MOL0     C70944   8.772   5.136   7.865 -0.3528  0.2760  0.1765
  538MOL0     C70945   8.681   5.188   7.758  0.1456 -0.1281  0.5599
  538MOL0     C70946   8.552   5.263   7.821 -0.2704  0.3186  0.6949
  538MOL0     C70947   8.471   5.182   7.906  0.9924  0.4427 -1.0900
  538MOL0     C70948   8.386   5.117   7.966 -0.0306  0.0436 -0.9291
  538MOL0     C70949   9.026   4.897   7.607  0.1498  0.0254 -1.5049
  538MOL0     C70950   9.097   4.831   7.506 -0.5527 -0.0280 -0.2988
  538MOL0     H70951   9.419   4.479   7.296  3.2244  1.6046  0.3874
  538MOL0     H70952   9.546   4.378   7.114  2.8139  1.5650 -1.6604
  538MOL0     H70953   9.469   4.360   6.682  1.1730  0.1758  2.5586
  538MOL0     H70954   9.318   4.392   6.752  0.1282  1.0431  2.0136
  538MOL0     H70955   9.347   4.168   6.698  1.9687  0.8774 -1.8692
  538MOL0     H70956   9.339   4.188   6.879 -1.2624 -3.5063 -1.6336
  538MOL0     H70957   9.615   4.189   6.825 -0.6364  0.7914 -1.0612
  538MOL0     H70958   9.553   4.111   6.688  4.4342 -2.4543  0.8577
  538MOL0     H70959   9.481   3.997   6.966  1.2133 -1.8274  0.5389
  538MOL0     H70960   9.411   3.952   6.816  0.7705  1.6373 -0.8105
  538MOL0     H70961   9.607   3.809   6.916 -0.5619  1.7244  3.0842
  538MOL0     H70962   9.712   3.951   6.891  0.0502 -0.2814 -0.1091
  538MOL0     H70963   9.703   3.952   6.652 -1.5366  1.0066 -0.2167
  538MOL0     H70964   9.571   3.840   6.650 -2.3674  5.4053  1.2156
  538MOL0     H70965   9.745   3.667   6.750  1.4427 -1.8710  0.8776
  538MOL0     H70966   9.771   3.732   6.599 -2.2722 -0.6143  0.1102
  538MOL0     H70967   9.986   3.749   6.751  0.5046  0.7894 -2.4330
  538MOL0     H70968   9.906   3.852   6.863 -0.4113 -1.7956  0.6312
  538MOL0     H70969   9.962   4.095   6.825 -1.5346 -0.9923  0.3820
  538MOL0     H70970  10.116   4.324   6.558 -0.3409 -0.0907 -0.6767
  538MOL0     H70971  10.030   4.334   6.716  0.3048  0.9833 -0.0332
  538MOL0     H70972   9.817   4.336   6.613 -0.2786  2.5892  1.0589
  538MOL0     H70973   9.897   4.311   6.454  0.4470  1.0813 -0.0949
  538MOL0     H70974   9.807   4.553   6.524  1.7280  2.5430 -1.0144
  538MOL0     H70975   9.906   4.541   6.667 -0.9711  0.2055 -0.1036
  538MOL0     H70976  10.086   4.516   6.432  2.4127  2.0361 -0.7339
  538MOL0     H70977  10.094   4.586   6.585  1.3587  2.1366 -0.3971
  538MOL0     H70978  10.240   4.660   6.355 -0.0740  0.6071 -0.4772
  538MOL0     H70979  10.403   4.834   6.342  1.1029  1.7510 -2.8141
  538MOL0     H70980  10.418   5.435   6.526  1.4814 -0.5374  0.1344
  538MOL0     H70981  10.578   5.603   6.456  1.4934  0.3668 -1.5879
  538MOL0     H70982  10.534   5.769   6.095 -0.4641 -0.8119 -1.8885
  538MOL0     H70983  10.675   5.699   6.015  0.0266 -2.4636  1.4191
  538MOL0     H70984  10.839   5.834   6.156  1.2231  4.5731 -1.9189
  538MOL0     H70985  10.699   5.900   6.241 -2.9270  3.1575 -1.4738
  538MOL0     H70986  10.608   6.007   6.033  0.5107  2.3759  0.7356
  538MOL0     H70987  10.733   5.911   5.940  0.8882  0.5819 -0.4608
  538MOL0     H70988  10.796   6.120   6.161  0.7541 -1.9258  1.3959
  538MOL0     H70989  10.906   6.038   6.046 -0.6191 -0.4348 -2.2431
  538MOL0     H70990  10.679   6.215   5.957  0.3651  1.3488 -0.3130
  538MOL0     H70991  10.793   6.142   5.852 -1.1006 -1.8619  1.6576
  538MOL0     H70992  10.969   6.298   5.943  1.0062  1.5707  3.4455
  538MOL0     H70993  10.866   6.378   6.051  0.1251 -0.8830 -0.0610
  538MOL0     H70994  10.764   6.362   5.768 -1.1167 -0.9851  1.4653
  538MOL0     H70995  10.725   6.481   5.886  0.0065  0.0757  1.1230
  538MOL0     H70996  10.867   6.568   5.714  1.8203  2.3271  0.8836
  538MOL0     H70997  10.966   6.429   5.712 -2.0863  0.7329 -2.3018
  538MOL0     H70998  10.532   5.473   6.048 -5.5406  1.1809 -2.6305
  538MOL0     H70999  10.396   5.279   6.131 -3.0809 -1.4542  1.8543
  538MOL0     H71000  10.081   5.124   6.423  0.9774  0.3131  3.0310
  538MOL0     H71001   9.931   4.935   6.487 -0.0221  0.5882  1.2483
  538MOL0     H71002   9.319   4.598   6.844  1.5817 -0.8860 -1.6518
  538MOL0     H71003   9.246   4.756   7.021 -1.6757 -0.6823  0.2175
  538MOL0     H71004   9.099   5.098   7.277  0.3606  0.4069  0.9708
  538MOL0     H71005   9.004   5.199   7.481  0.6735 -0.0911  2.6685
  538MOL0     H71006   8.959   5.020   7.890  2.2932  2.3157 -0.2868
  538MOL0     H71007   8.829   4.946   7.793  1.1908 -0.8672 -0.1023
  538MOL0     H71008   8.714   5.082   7.941 -1.5895  2.5360  0.9329
  538MOL0     H71009   8.818   5.219   7.920 -0.2961  1.2464 -1.2901
  538MOL0     H71010   8.656   5.116   7.679 -0.0806  3.1288 -2.5986
  538MOL0     H71011   8.743   5.247   7.690  2.1671 -2.9378 -0.2086
  538MOL0     H71012   8.576   5.357   7.874  1.4334  0.2238  0.1563
  538MOL0     H71013   8.485   5.300   7.743 -0.0910  1.7498  1.1718
  538MOL0     H71014   8.316   5.062   8.026  0.1281  1.1590  0.3296
  538MOL0     H71015   8.985   4.852   7.697  0.6695  0.1405 -1.2102
  538MOL0     H71016   9.130   4.729   7.522 -1.9987 -0.5343 -0.3740
  539MOL0     O71017   1.029   0.001  11.141  0.0192 -0.5477  0.0654
  539MOL0     C71018   1.111  -0.090  11.156 -0.3578  0.1222  0.9957
  539MOL0     O71019   1.245  -0.073  11.190 -0.0517  0.4457 -1.2722
  539MOL0     C71020   1.284   0.034  11.269 -0.0375 -0.5871 -0.5854
  539MOL0     C71021   1.203   0.078  11.379  0.5358  0.3475  0.3355
  539MOL0     C71022   1.247   0.192  11.450 -0.8649  0.5703  0.2329
  539MOL0     C71023   1.367   0.257  11.416 -0.4935  0.2583  0.2084
  539MOL0     O71024   1.419   0.365  11.482  0.4559 -0.7437 -0.0375
  539MOL0     C71025   1.334   0.478  11.510  0.1234 -0.7092 -0.2263
  539MOL0     C71026   1.368   0.592  11.415 -0.6277 -0.0203  0.1347
  539MOL0     C71027   1.265   0.708  11.443  0.5076 -0.9242  0.4591
  539MOL0     C71028   1.315   0.808  11.550  0.3444 -0.3575  0.2395
  539MOL0     C71029   1.190   0.892  11.577 -0.0650 -0.2442 -0.3400
  539MOL0     C71030   1.213   1.003  11.680 -0.1327  0.2008  0.0548
  539MOL0     C71031   1.093   1.076  11.721  1.5233  0.3606 -0.3146
  539MOL0     C71032   1.131   1.206  11.789  0.7896  0.6646 -0.2659
  539MOL0     N71033   1.191   1.179  11.926  0.3612  0.3995 -0.1364
  539MOL0     C71034   1.301   1.241  11.973  0.4818 -0.9936 -0.1050
  539MOL0     C71035   1.328   1.182  12.088 -0.5302 -1.0110 -0.0259
  539MOL0     C71036   1.415   1.237  12.193 -0.2575 -0.1407  0.0552
  539MOL0     C71037   1.352   1.357  12.257 -0.5500 -0.0388 -0.0450
  539MOL0     C71038   1.441   1.400  12.374  0.3251 -0.4229 -1.9646
  539MOL0     C71039   1.383   1.543  12.405 -0.6022 -0.3646 -1.4765
  539MOL0     O71040   1.398   1.637  12.298 -0.4379 -0.0930  0.2686
  539MOL0     C71041   1.486   1.734  12.322 -0.2184  0.3938 -0.1611
  539MOL0     C71042   1.453   1.864  12.279 -0.4364 -1.4219 -1.0398
  539MOL0     C71043   1.547   1.975  12.284  0.2846  0.7352  0.5966
  539MOL0     C71044   1.673   1.946  12.331  0.3575  0.1892 -0.0710
  539MOL0     C71045   1.781   2.050  12.325  0.4031 -1.2060  0.1955
  539MOL0     O71046   1.740   2.171  12.352 -0.0294 -0.6978  0.3233
  539MOL0     C71047   1.826   2.283  12.352 -0.5622  0.3098  0.4351
  539MOL0     C71048   1.815   2.372  12.460 -0.2327 -0.1574  0.1860
  539MOL0     C71049   1.878   2.501  12.462 -0.3323  0.1419 -0.2034
  539MOL0     C71050   1.957   2.531  12.355 -0.1537 -0.8055 -0.3515
  539MOL0     O71051   2.017   2.655  12.335  1.0156  0.7696  0.1332
  539MOL0     C71052   2.162   2.672  12.353  0.4115 -0.8628 -0.1457
  539MOL0     C71053   2.196   2.832  12.330  1.0051 -0.3883 -0.2821
  539MOL0     C71054   2.135   2.861  12.192 -0.4103 -0.3509 -0.5911
  539MOL0     C71055   2.121   3.013  12.166  0.4624  1.3743 -0.0842
  539MOL0     C71056   2.244   3.091  12.156 -0.0684  0.3695 -0.8939
  539MOL0     C71057   2.327   3.040  12.026 -0.3401 -0.3062  0.6262
  539MOL0     C71058   2.465   3.106  12.024 -0.4078  0.5507 -0.5021
  539MOL0     C71059   2.563   3.063  12.137 -0.4950  0.4864 -0.5784
  539MOL0    Cl71060   2.613   2.897  12.111 -0.6899  0.1030  0.2131
  539MOL0     C71061   1.985   2.440  12.261 -0.2400 -0.1554  1.0920
  539MOL0     C71062   1.920   2.319  12.253 -0.3061  0.3814  0.1911
  539MOL0     O71063   1.899   2.015  12.316  0.1043 -1.1793 -0.8382
  539MOL0     C71064   1.705   1.816  12.379 -0.2280 -0.6771 -0.4552
  539MOL0     C71065   1.612   1.707  12.370  0.1038 -0.0905 -0.7490
  539MOL0     N71066   1.235   1.090  12.107  0.9624 -0.2786  0.1862
  539MOL0     N71067   1.160   1.079  12.008 -0.1386  0.1356  0.1315
  539MOL0     C71068   1.456   0.204  11.317  0.1001  0.0088 -0.1007
  539MOL0     C71069   1.413   0.095  11.244 -1.3044 -0.4650 -0.1654
  539MOL0     C71070   1.066  -0.223  11.100 -0.4616  0.0958 -0.5582
  539MOL0     C71071   1.155  -0.326  11.079  0.4326 -0.1886 -1.0072
  539MOL0     C71072   1.105  -0.451  11.048  1.0389  1.2850 -0.6123
  539MOL0     C71073   0.968  -0.485  11.048  0.1860 -0.4076  0.4012
  539MOL0     O71074   0.930  -0.611  11.015  0.8465  0.0240  0.6240
  539MOL0     C71075   0.802  -0.670  11.062 -0.1919 -0.5916 -0.3231
  539MOL0     C71076   0.812  -0.818  11.078  0.4570  0.3850 -0.6327
  539MOL0     C71077   0.709  -0.872  11.182 -0.0454 -0.7432  0.7791
  539MOL0     C71078   0.766  -0.866  11.322 -1.0921  1.0816  0.6095
  539MOL0     C71079   0.674  -0.927  11.423 -0.0878 -0.4290 -0.0089
  539MOL0     C71080   0.589  -0.980  11.497  0.2753 -0.2051 -0.8766
  539MOL0     C71081   0.874  -0.384  11.073  0.4626  0.8095  0.4524
  539MOL0     C71082   0.927  -0.252  11.099  0.7697 -0.1968 -0.5710
  539MOL0     H71083   1.104   0.039  11.401 -0.2318  2.5933  1.0973
  539MOL0     H71084   1.189   0.244  11.526  4.0061  4.6995  1.6871
  539MOL0     H71085   1.348   0.487  11.618 -4.3842  2.2703  0.3607
  539MOL0     H71086   1.227   0.453  11.503  0.2873 -1.2863 -0.7682
  539MOL0     H71087   1.352   0.551  11.314 -2.4251 -0.8229  0.7037
  539MOL0     H71088   1.470   0.631  11.410 -0.0595 -1.5338 -1.6385
  539MOL0     H71089   1.170   0.667  11.478 -0.5771 -1.0469 -2.3377
  539MOL0     H71090   1.238   0.775  11.361  0.2902  1.0377  2.0839
  539MOL0     H71091   1.357   0.763  11.641 -0.2225 -1.3195  0.0385
  539MOL0     H71092   1.378   0.887  11.508 -1.3780  2.3661  2.4077
  539MOL0     H71093   1.141   0.813  11.634  1.8186 -1.3402 -0.1480
  539MOL0     H71094   1.156   0.938  11.484  0.7636 -1.3851 -1.2497
  539MOL0     H71095   1.282   1.072  11.630 -3.0549  2.1175 -1.5832
  539MOL0     H71096   1.272   0.965  11.764  0.3474 -0.1112 -0.4150
  539MOL0     H71097   1.027   1.097  11.637 -0.6388 -4.3702 -0.1127
  539MOL0     H71098   1.037   1.011  11.789 -0.6147 -1.1486 -3.3098
  539MOL0     H71099   1.047   1.275  11.784 -1.6820 -2.1464 -0.8780
  539MOL0     H71100   1.210   1.249  11.728 -0.8272  3.4869 -0.5459
  539MOL0     H71101   1.349   1.332  11.939 -0.1956 -0.3052  0.7174
  539MOL0     H71102   1.514   1.260  12.154  0.1682  0.7444  1.5894
  539MOL0     H71103   1.435   1.156  12.264 -1.1240 -0.2694  0.1697
  539MOL0     H71104   1.257   1.333  12.306 -0.3544  1.1878  0.9625
  539MOL0     H71105   1.335   1.430  12.178 -2.8329 -0.9194 -0.4665
  539MOL0     H71106   1.417   1.338  12.461 -2.0943  1.4109 -1.2083
  539MOL0     H71107   1.547   1.392  12.351  0.2670 -3.0911 -1.6540
  539MOL0     H71108   1.431   1.574  12.498 -0.1931 -2.3499 -0.9837
  539MOL0     H71109   1.276   1.541  12.430  0.3325 -0.5822  3.6542
  539MOL0     H71110   1.353   1.878  12.239 -0.3323  2.5063 -0.2604
  539MOL0     H71111   1.525   2.073  12.242  2.1427  1.2556  0.7496
  539MOL0     H71112   1.748   2.356  12.544  1.6088  1.4563  2.0641
  539MOL0     H71113   1.861   2.597  12.511  0.1768 -0.5236  1.3254
  539MOL0     H71114   2.216   2.602  12.288  4.2809  3.1345 -1.7683
  539MOL0     H71115   2.204   2.638  12.448  1.3295 -1.5030 -0.7643
  539MOL0     H71116   2.304   2.845  12.339  1.0665 -0.3499 -0.9871
  539MOL0     H71117   2.149   2.903  12.398  0.8046  1.4230 -2.2062
  539MOL0     H71118   2.030   2.834  12.182 -1.3021  1.7459  2.0174
  539MOL0     H71119   2.186   2.803  12.114  0.0469 -1.1135  0.2525
  539MOL0     H71120   2.063   3.044  12.079 -1.1351 -0.1874  0.3721
  539MOL0     H71121   2.056   3.051  12.246 -0.3710  2.9255 -1.4401
  539MOL0     H71122   2.297   3.068  12.248 -2.0734 -1.9818 -0.2125
  539MOL0     H71123   2.213   3.196  12.144 -2.0688 -0.1668 -0.7258
  539MOL0     H71124   2.274   3.057  11.932  2.0823  1.0858 -0.5797
  539MOL0     H71125   2.336   2.931  12.017 -0.2518 -0.1345 -2.0921
  539MOL0     H71126   2.504   3.102  11.922  0.1190 -0.1157 -0.2751
  539MOL0     H71127   2.438   3.208  12.051 -1.7794 -0.7401  3.6014
  539MOL0     H71128   2.516   3.082  12.234  0.2976 -0.5562  0.0209
  539MOL0     H71129   2.655   3.122  12.142 -0.1446 -0.1588  1.2859
  539MOL0     H71130   2.056   2.456  12.181  0.4934 -0.8416  1.5842
  539MOL0     H71131   1.928   2.248  12.172 -1.5153  1.8134 -1.2405
  539MOL0     H71132   1.805   1.813  12.421 -0.3855 -0.8429 -0.0809
  539MOL0     H71133   1.640   1.617  12.423 -0.2222  0.8077  1.0310
  539MOL0     H71134   1.556   0.244  11.303 -0.6270  1.7978 -0.4980
  539MOL0     H71135   1.493   0.064  11.178 -1.0993  2.0793 -1.2588
  539MOL0     H71136   1.261  -0.306  11.091  0.6057  1.4237 -4.0790
  539MOL0     H71137   1.169  -0.537  11.034  0.4255  0.0257  3.1909
  539MOL0     H71138   0.731  -0.647  10.982  0.6364 -0.4266 -1.0260
  539MOL0     H71139   0.771  -0.624  11.156  0.7353 -1.3751  0.3915
  539MOL0     H71140   0.796  -0.869  10.983 -4.7822 -0.1629  0.2739
  539MOL0     H71141   0.916  -0.831  11.110  0.1846 -1.2718 -0.2954
  539MOL0     H71142   0.673  -0.974  11.165 -2.0465  0.0893 -0.2308
  539MOL0     H71143   0.615  -0.817  11.183 -2.1691 -3.9710 -1.5782
  539MOL0     H71144   0.861  -0.919  11.326 -2.2065 -1.0272  0.5108
  539MOL0     H71145   0.779  -0.760  11.346  1.1478  0.7607  1.0655
  539MOL0     H71146   0.501  -1.022  11.542  0.9239  0.0953  0.7706
  539MOL0     H71147   0.772  -0.416  11.053  0.8263 -0.5332  0.6686
  539MOL0     H71148   0.863  -0.166  11.122 -0.4014 -1.5468  1.5114
  540MOL0     O71149   9.212  10.622   7.653 -0.1333  0.6220 -0.1592
  540MOL0     C71150   9.197  10.694   7.748 -0.2824  0.1962 -0.2727
  540MOL0     O71151   9.228  10.822   7.749 -0.6458 -1.0148  0.0273
  540MOL0     C71152   9.281  10.885   7.635 -0.1828 -0.5456 -0.9181
  540MOL0     C71153   9.190  10.948   7.544  0.6154  0.6230  0.3563
  540MOL0     C71154   9.231  11.017   7.431 -0.9834 -0.0847 -0.4199
  540MOL0     C71155   9.365  11.020   7.397 -0.7068 -0.6284  0.3029
  540MOL0     O71156   9.396  11.084   7.282 -0.0039 -0.1437  0.3084
  540MOL0     C71157   9.533  11.130   7.268 -0.3093  0.2069  0.9486
  540MOL0     C71158   9.530  11.218   7.142  0.2792  0.4976 -0.3635
  540MOL0     C71159   9.486  11.133   7.022  0.9610 -0.9442  0.1640
  540MOL0     C71160   9.506  11.201   6.885  0.0677  0.5718 -0.5128
  540MOL0     C71161   9.436  11.152   6.762  0.0627 -0.0003 -0.0368
  540MOL0     C71162   9.281  11.128   6.765  0.0769 -0.1812 -0.0969
  540MOL0     C71163   9.227  11.037   6.659  0.8802 -1.4534  0.1049
  540MOL0     C71164   9.074  11.018   6.672  1.1090  0.3714  0.5335
  540MOL0     N71165   9.020  10.896   6.604  0.5692  0.1792 -0.3146
  540MOL0     C71166   9.030  10.885   6.466  0.3841 -0.2794 -0.2243
  540MOL0     C71167   8.964  10.765   6.449 -0.1008 -0.5431 -0.9320
  540MOL0     C71168   8.974  10.681   6.323  0.3539 -1.4810 -0.1147
  540MOL0     C71169   8.831  10.644   6.256 -0.6808 -0.4921 -0.9807
  540MOL0     C71170   8.807  10.737   6.137 -0.4689 -0.2485  0.1586
  540MOL0     C71171   8.659  10.764   6.094  0.9610  0.3312  0.6326
  540MOL0     O71172   8.597  10.877   6.153 -0.1594  0.0077  0.3210
  540MOL0     C71173   8.480  10.869   6.233 -0.2037 -0.6851  0.4980
  540MOL0     C71174   8.462  10.967   6.327 -0.7063 -0.5035 -0.0941
  540MOL0     C71175   8.356  10.963   6.415  0.0654  0.5861  0.2047
  540MOL0     C71176   8.256  10.861   6.402  0.3879 -0.9587  0.0979
  540MOL0     C71177   8.155  10.858   6.511 -0.4481 -0.0447 -0.9283
  540MOL0     O71178   8.170  10.926   6.631 -0.0829  0.5059 -0.0825
  540MOL0     C71179   8.075  10.909   6.736  0.7264  0.6606  0.0949
  540MOL0     C71180   8.032  11.024   6.806 -0.5170  0.5637  0.0717
  540MOL0     C71181   7.934  11.012   6.900 -0.6782  0.6430  0.7928
  540MOL0     C71182   7.877  10.882   6.923  1.2653 -1.1845 -1.0876
  540MOL0     O71183   7.777  10.870   7.026 -0.0598  0.0100  0.7226
  540MOL0     C71184   7.788  10.954   7.139 -0.2995  0.0121 -0.3732
  540MOL0     C71185   7.706  10.894   7.249 -0.4398  0.1710  0.1073
  540MOL0     C71186   7.781  10.792   7.341  0.2235  0.2684 -0.3917
  540MOL0     C71187   7.677  10.717   7.416 -0.0921 -0.6454 -0.3006
  540MOL0     C71188   7.735  10.599   7.502 -0.3120  0.8704 -0.6767
  540MOL0     C71189   7.644  10.555   7.606  0.2836 -0.0865  0.0970
  540MOL0     C71190   7.545  10.454   7.548 -0.6486 -0.5503 -0.2250
  540MOL0     C71191   7.435  10.441   7.644 -0.0335 -0.2364  0.2049
  540MOL0    Cl71192   7.336  10.297   7.602 -0.0350  0.4671 -0.3156
  540MOL0     C71193   7.929  10.769   6.862 -0.6079 -0.4425  0.4349
  540MOL0     C71194   8.028  10.782   6.766 -0.1053  0.3479 -0.2374
  540MOL0     O71195   8.065  10.786   6.482 -0.0271 -1.2458  0.3397
  540MOL0     C71196   8.280  10.756   6.309  1.1894  0.4722  0.2536
  540MOL0     C71197   8.398  10.759   6.234  0.4615 -0.6899  0.9933
  540MOL0     N71198   8.904  10.723   6.563  0.4268  0.2248 -0.0069
  540MOL0     N71199   8.933  10.809   6.652 -0.4747 -0.2902  0.5136
  540MOL0     C71200   9.459  10.966   7.486  0.0052  0.2057 -0.0982
  540MOL0     C71201   9.419  10.894   7.605 -0.0907  0.0923 -0.5362
  540MOL0     C71202   9.150  10.628   7.870 -0.2792  0.5044 -0.5324
  540MOL0     C71203   9.043  10.535   7.867  0.2954  0.0885  0.5014
  540MOL0     C71204   8.987  10.494   7.995 -0.1048 -0.8317  0.4398
  540MOL0     C71205   9.033  10.546   8.112  0.0901  1.0717 -0.6140
  540MOL0     O71206   8.973  10.491   8.227 -0.6224 -0.1359  0.3159
  540MOL0     C71207   9.047  10.516   8.348  0.2007  1.1577 -0.5628
  540MOL0     C71208   8.969  10.458   8.465  0.2253  0.1328  0.8599
  540MOL0     C71209   9.030  10.517   8.600 -0.7636 -0.0767  0.4784
  540MOL0     C71210   8.969  10.442   8.722 -0.2156 -0.8740 -1.0142
  540MOL0     C71211   8.827  10.478   8.736 -0.7435 -0.0247  0.4324
  540MOL0     C71212   8.710  10.509   8.754  0.8455 -0.4083 -0.4563
  540MOL0     C71213   9.150  10.629   8.106 -0.5916 -0.2881  0.6112
  540MOL0     C71214   9.201  10.669   7.990  0.6861  0.5284  0.8801
  540MOL0     H71215   9.085  10.926   7.565  1.1454  0.3507  3.1616
  540MOL0     H71216   9.158  11.045   7.356 -0.9368  0.4671 -0.2605
  540MOL0     H71217   9.600  11.045   7.259 -2.0757 -1.4287  2.4316
  540MOL0     H71218   9.562  11.189   7.356  1.0395  1.1928 -0.1033
  540MOL0     H71219   9.631  11.257   7.125  1.6422 -1.3422  2.6404
  540MOL0     H71220   9.460  11.300   7.160  0.5005  0.6896 -0.3772
  540MOL0     H71221   9.377  11.125   7.033  0.8145  0.6267  0.0108
  540MOL0     H71222   9.513  11.027   7.033  2.7991 -0.3055  2.4151
  540MOL0     H71223   9.476  11.306   6.894  0.9543  0.8713 -0.9627
  540MOL0     H71224   9.613  11.205   6.862 -0.3360  1.4518 -2.4358
  540MOL0     H71225   9.479  11.052   6.748  1.7112  0.9422 -2.3945
  540MOL0     H71226   9.469  11.213   6.678 -0.3568  0.9474  0.4738
  540MOL0     H71227   9.230  11.224   6.752  0.6912  0.9258  4.0533
  540MOL0     H71228   9.257  11.089   6.864  1.8705  1.8080  1.2101
  540MOL0     H71229   9.262  11.073   6.563  1.9959  0.8577  1.3056
  540MOL0     H71230   9.280  10.942   6.671  1.4456 -1.0652  0.7411
  540MOL0     H71231   9.023  11.105   6.629  0.0099  1.2230  3.3668
  540MOL0     H71232   9.042  11.013   6.776 -0.0330 -0.2286  0.1734
  540MOL0     H71233   9.095  10.942   6.400  0.2413  0.9596  0.6729
  540MOL0     H71234   9.020  10.584   6.345 -0.1936 -1.6570  0.2582
  540MOL0     H71235   9.033  10.749   6.261  0.2502 -0.9686  0.3407
  540MOL0     H71236   8.753  10.660   6.332  1.7640  2.0226  1.2406
  540MOL0     H71237   8.845  10.540   6.226  0.4724 -0.2168 -1.4461
  540MOL0     H71238   8.853  10.835   6.155 -5.1450  2.7810 -2.2031
  540MOL0     H71239   8.869  10.691   6.059  2.2468 -0.2056  2.1355
  540MOL0     H71240   8.600  10.674   6.112 -1.0581  1.8186  1.8660
  540MOL0     H71241   8.669  10.789   5.988  0.7192 -0.5300  0.3964
  540MOL0     H71242   8.538  11.042   6.346 -1.4281 -0.2711  2.1662
  540MOL0     H71243   8.355  11.028   6.501  1.0043  2.9351 -1.4611
  540MOL0     H71244   8.051  11.124   6.769  0.1909 -0.5184 -2.7204
  540MOL0     H71245   7.899  11.103   6.947 -0.9326  1.4335 -0.8475
  540MOL0     H71246   7.748  11.053   7.115  4.2036  2.0826 -0.2730
  540MOL0     H71247   7.893  10.964   7.168 -0.7755  0.7961  1.1648
  540MOL0     H71248   7.623  10.845   7.196 -0.3150  1.7237 -1.6026
  540MOL0     H71249   7.665  10.964   7.322 -1.2813  1.6343 -1.7056
  540MOL0     H71250   7.842  10.843   7.416 -0.3850 -0.1608  0.4135
  540MOL0     H71251   7.835  10.721   7.278 -3.0392 -0.9949 -1.9893
  540MOL0     H71252   7.612  10.778   7.480 -1.3508  0.3452 -2.3996
  540MOL0     H71253   7.605  10.672   7.347 -0.6748 -3.9673  2.2194
  540MOL0     H71254   7.818  10.646   7.555  0.3383 -0.0364 -0.8551
  540MOL0     H71255   7.769  10.514   7.442 -2.4239 -1.7904  1.6419
  540MOL0     H71256   7.588  10.643   7.640 -0.2431 -1.1157  2.0401
  540MOL0     H71257   7.706  10.517   7.687  1.1001 -0.7727 -0.8317
  540MOL0     H71258   7.520  10.485   7.446 -4.3229 -3.2679 -0.3475
  540MOL0     H71259   7.588  10.353   7.546  0.4013 -0.1925  1.6494
  540MOL0     H71260   7.362  10.523   7.644 -1.9313 -1.8336  1.2227
  540MOL0     H71261   7.485  10.426   7.740 -3.4186  0.7487  2.2995
  540MOL0     H71262   7.890  10.668   6.874  1.6777 -1.3688  0.5009
  540MOL0     H71263   8.057  10.691   6.715 -2.0352 -1.7208  2.1193
  540MOL0     H71264   8.206  10.678   6.300 -0.7452  2.4278 -2.4930
  540MOL0     H71265   8.402  10.664   6.182 -0.5229  1.0374 -2.5661
  540MOL0     H71266   9.565  10.984   7.471  0.7815 -2.8892  0.8694
  540MOL0     H71267   9.497  10.843   7.660  1.4389 -0.9938 -3.4754
  540MOL0     H71268   8.999  10.509   7.772  1.2036  2.3956 -0.6407
  540MOL0     H71269   8.891  10.443   7.998 -2.3250  3.0175  0.9425
  540MOL0     H71270   9.048  10.625   8.364  0.7291  1.1284 -0.3729
  540MOL0     H71271   9.151  10.482   8.352  0.1257  0.9255  2.8291
  540MOL0     H71272   8.866  10.494   8.468  0.7764  1.9518 -0.4501
  540MOL0     H71273   8.983  10.350   8.473 -0.9706  0.0952  2.9757
  540MOL0     H71274   9.016  10.625   8.609 -0.2877 -0.0683  1.1805
  540MOL0     H71275   9.137  10.491   8.602 -0.8487 -0.3660  1.2369
  540MOL0     H71276   8.991  10.338   8.695  1.5035 -0.1069 -2.7979
  540MOL0     H71277   9.020  10.466   8.815 -3.2486  1.5512  0.1828
  540MOL0     H71278   8.604  10.525   8.745  1.0992  2.4213  0.8634
  540MOL0     H71279   9.203  10.677   8.188 -1.1813  0.9113  0.3175
  540MOL0     H71280   9.286  10.736   7.991 -0.6271  2.3210 -0.4518
  541MOL0     O71281   0.186   4.034   4.301  0.1942  0.2266  0.6691
  541MOL0     C71282   0.099   4.116   4.261 -0.6231 -0.5681 -0.5703
  541MOL0     O71283   0.097   4.173   4.138  0.3013  0.1777  0.1229
  541MOL0     C71284   0.212   4.168   4.071 -0.0957 -0.0540  0.1404
  541MOL0     C71285   0.275   4.288   4.058  0.2115 -1.0497  0.1995
  541MOL0     C71286   0.402   4.287   4.003 -0.0368 -0.3750  1.2644
  541MOL0     C71287   0.472   4.174   3.966  0.5320  0.6838  0.1773
  541MOL0     O71288   0.598   4.193   3.915  0.5767 -0.8392 -0.6967
  541MOL0     C71289   0.684   4.073   3.891  1.1918 -0.5187  0.7486
  541MOL0     C71290   0.821   4.110   3.860 -1.1899 -0.7937 -0.0289
  541MOL0     C71291   0.932   4.015   3.916  0.5261  0.2982  0.5213
  541MOL0     C71292   0.903   3.867   3.899  0.3374 -0.1031 -0.3928
  541MOL0     C71293   1.015   3.779   3.948  0.4807 -0.6963  0.3150
  541MOL0     C71294   0.993   3.626   3.900 -0.4790 -0.1700  0.0947
  541MOL0     C71295   0.859   3.562   3.918  0.0246 -0.7650  0.0342
  541MOL0     C71296   0.776   3.566   3.790  0.8766 -0.0327 -0.1296
  541MOL0     N71297   0.631   3.565   3.835 -0.0535 -0.0552  0.4651
  541MOL0     C71298   0.579   3.467   3.924  0.1667 -0.0444 -0.4046
  541MOL0     C71299   0.458   3.520   3.965 -0.2204 -0.5017  0.8037
  541MOL0     C71300   0.366   3.455   4.069 -0.8010  0.0350 -0.1215
  541MOL0     C71301   0.388   3.299   4.086  0.2935 -0.2024  0.6132
  541MOL0     C71302   0.316   3.253   4.213  0.7499 -0.1560 -0.8157
  541MOL0     C71303   0.388   3.294   4.345  0.0626  0.2124  0.2725
  541MOL0     O71304   0.341   3.418   4.390 -1.1632 -0.0054 -0.5659
  541MOL0     C71305   0.424   3.490   4.475  1.5569 -0.2624  0.1925
  541MOL0     C71306   0.540   3.437   4.531  0.0503 -0.5175 -0.1953
  541MOL0     C71307   0.611   3.514   4.631  0.1465  0.0163  0.4136
  541MOL0     C71308   0.565   3.638   4.665 -0.2532 -1.1054 -0.3433
  541MOL0     C71309   0.635   3.722   4.768 -0.3075 -0.6355 -0.6516
  541MOL0     O71310   0.630   3.859   4.759  0.0448  0.4529  0.6657
  541MOL0     C71311   0.687   3.934   4.853 -1.0143 -0.5325  0.2136
  541MOL0     C71312   0.682   3.928   4.988 -0.6053  0.0585 -0.9113
  541MOL0     C71313   0.752   4.020   5.069 -0.2606  0.2080 -0.6042
  541MOL0     C71314   0.831   4.121   5.018  1.0764  0.2491 -1.7324
  541MOL0     O71315   0.901   4.208   5.095  0.5236  0.0125  0.3883
  541MOL0     C71316   0.819   4.283   5.183  0.1810  1.0080  0.7731
  541MOL0     C71317   0.790   4.430   5.143  0.6847  0.6280 -0.8226
  541MOL0     C71318   0.908   4.516   5.155  0.4354  0.2968 -0.1145
  541MOL0     C71319   0.911   4.578   5.299 -0.1400  1.4249 -0.6456
  541MOL0     C71320   0.959   4.721   5.303 -0.5129 -0.2709  0.3975
  541MOL0     C71321   1.082   4.759   5.211 -0.4902 -0.6182  0.4502
  541MOL0     C71322   1.119   4.914   5.210 -0.6658  1.0363  0.2270
  541MOL0     C71323   1.141   4.951   5.356 -0.5471 -0.7593 -0.2536
  541MOL0    Cl71324   1.282   5.059   5.387 -0.7421 -0.2778  0.4696
  541MOL0     C71325   0.843   4.132   4.886  0.7371  0.3458 -0.1874
  541MOL0     C71326   0.773   4.035   4.804 -1.4070 -0.3762  0.3129
  541MOL0     O71327   0.678   3.656   4.858 -0.0522 -0.3606  0.2893
  541MOL0     C71328   0.450   3.686   4.604 -0.1467 -0.0534 -0.8204
  541MOL0     C71329   0.377   3.615   4.507 -0.3593 -0.0150  0.2806
  541MOL0     N71330   0.441   3.638   3.892  0.3053 -0.2640 -0.0354
  541MOL0     N71331   0.531   3.656   3.803 -0.3327 -0.0517 -0.5779
  541MOL0     C71332   0.400   4.057   3.971  0.0016  0.1893  0.4373
  541MOL0     C71333   0.265   4.052   4.017  0.7417  0.2431 -1.3907
  541MOL0     C71334  -0.006   4.156   4.345  0.0842  0.4229  0.3294
  541MOL0     C71335  -0.109   4.242   4.310  0.9284  0.5667  0.0484
  541MOL0     C71336  -0.207   4.281   4.401  0.9854  0.1995 -0.0663
  541MOL0     C71337  -0.217   4.222   4.530  0.3849 -0.8372  0.4526
  541MOL0     O71338  -0.318   4.229   4.613  0.4237  0.9351 -0.7128
  541MOL0     C71339  -0.438   4.303   4.594  0.4717 -0.0405 -0.6504
  541MOL0     C71340  -0.456   4.407   4.717  0.0758 -0.0200  0.2301
  541MOL0     C71341  -0.513   4.343   4.840  0.1228  0.3383  0.1969
  541MOL0     C71342  -0.652   4.397   4.883  0.1436 -0.1259 -0.2237
  541MOL0     C71343  -0.690   4.318   5.001  0.2987  0.0682 -0.7855
  541MOL0     C71344  -0.696   4.283   5.120  0.5298 -1.1446  0.3017
  541MOL0     C71345  -0.126   4.123   4.559 -0.6174 -0.5501 -0.5869
  541MOL0     C71346  -0.017   4.101   4.470 -0.1167 -0.4536 -0.3472
  541MOL0     H71347   0.233   4.380   4.097  3.4889  0.9536 -0.6103
  541MOL0     H71348   0.440   4.385   3.978  0.2619 -1.1472 -1.7110
  541MOL0     H71349   0.635   4.008   3.818 -0.1768  2.6102 -1.3429
  541MOL0     H71350   0.692   4.027   3.990  1.1206  1.0595  1.5193
  541MOL0     H71351   0.840   4.213   3.891 -0.3218  0.0082 -2.8762
  541MOL0     H71352   0.840   4.122   3.753  3.6372 -0.4031  0.6546
  541MOL0     H71353   0.937   4.036   4.024 -1.3588  1.6592  0.3921
  541MOL0     H71354   1.028   4.051   3.878  0.6571  0.5831  1.1063
  541MOL0     H71355   0.805   3.848   3.943 -1.6145  2.0991 -3.3831
  541MOL0     H71356   0.889   3.849   3.792  0.3681  1.4604 -0.6782
  541MOL0     H71357   1.027   3.778   4.056  2.0943 -3.0487  0.1762
  541MOL0     H71358   1.104   3.817   3.898  1.8976 -3.4719  0.5456
  541MOL0     H71359   1.066   3.558   3.944 -3.4952 -4.2646 -0.6074
  541MOL0     H71360   1.016   3.623   3.793 -1.9015  1.1726 -0.2834
  541MOL0     H71361   0.867   3.457   3.947 -1.6848 -0.3813  2.1804
  541MOL0     H71362   0.806   3.606   4.003  2.2359  0.3115  0.9370
  541MOL0     H71363   0.806   3.479   3.731 -0.4118  1.1718 -2.7148
  541MOL0     H71364   0.791   3.654   3.727 -0.9373 -0.4316 -1.1994
  541MOL0     H71365   0.640   3.393   3.975  1.1777  1.3700  0.4947
  541MOL0     H71366   0.262   3.478   4.043  0.1405  0.1528 -4.5302
  541MOL0     H71367   0.386   3.510   4.162 -0.1963 -0.9087  0.3242
  541MOL0     H71368   0.495   3.286   4.104 -0.2885 -1.6245  4.0144
  541MOL0     H71369   0.348   3.241   4.003 -0.1718 -0.0972  0.7619
  541MOL0     H71370   0.214   3.292   4.218  1.1121  1.1130 -2.3743
  541MOL0     H71371   0.305   3.145   4.203 -2.1355 -0.1873  1.2103
  541MOL0     H71372   0.495   3.281   4.325 -0.2261  0.5794 -1.7662
  541MOL0     H71373   0.360   3.217   4.418  1.4228 -0.3743  0.2022
  541MOL0     H71374   0.582   3.339   4.510  1.7262  0.2748 -0.8098
  541MOL0     H71375   0.692   3.468   4.686 -1.7176  0.9957  4.3486
  541MOL0     H71376   0.627   3.842   5.025 -0.0689  0.1445  0.1242
  541MOL0     H71377   0.739   4.006   5.176 -3.2150 -0.1283 -0.9091
  541MOL0     H71378   0.880   4.289   5.274  2.0002  1.2061 -0.4041
  541MOL0     H71379   0.732   4.219   5.195  2.0344 -2.2444 -1.5459
  541MOL0     H71380   0.705   4.456   5.206  1.1863 -1.0125  0.6127
  541MOL0     H71381   0.762   4.419   5.037 -3.5168 -1.0509  0.2481
  541MOL0     H71382   0.907   4.592   5.076 -0.6809  1.4634  0.9732
  541MOL0     H71383   0.993   4.454   5.126  3.5656  2.7490  2.8598
  541MOL0     H71384   0.816   4.573   5.354  1.4130  1.1987  2.1923
  541MOL0     H71385   0.976   4.512   5.357 -0.0864  0.4403 -1.7978
  541MOL0     H71386   0.979   4.746   5.407 -1.2815 -0.2786  0.5468
  541MOL0     H71387   0.874   4.782   5.273 -0.2090  2.0399  3.6863
  541MOL0     H71388   1.060   4.744   5.106  0.0497  2.6327 -0.2430
  541MOL0     H71389   1.167   4.702   5.250 -1.6883 -2.2891  0.6915
  541MOL0     H71390   1.213   4.924   5.155  1.3547 -4.4567  2.0497
  541MOL0     H71391   1.026   4.955   5.168 -1.9411  0.2566  2.1528
  541MOL0     H71392   1.162   4.870   5.426 -1.6476  0.8162  2.0655
  541MOL0     H71393   1.053   5.003   5.396  0.3194 -0.6816  1.6662
  541MOL0     H71394   0.906   4.207   4.838  0.9707  0.1514 -0.1834
  541MOL0     H71395   0.782   4.044   4.696  2.4485 -1.6257  0.3720
  541MOL0     H71396   0.416   3.786   4.626  0.7450 -0.2488  1.8010
  541MOL0     H71397   0.283   3.654   4.470  0.7198  3.0679  0.4690
  541MOL0     H71398   0.445   3.962   3.944 -0.4999 -0.2275  1.0291
  541MOL0     H71399   0.204   3.963   4.017 -0.9610  1.2895  1.7690
  541MOL0     H71400  -0.110   4.274   4.206 -2.6503  2.4615  0.4880
  541MOL0     H71401  -0.278   4.352   4.360  0.2248 -0.0057  0.8619
  541MOL0     H71402  -0.519   4.231   4.602  2.5338 -2.2501  2.8813
  541MOL0     H71403  -0.433   4.358   4.499 -2.8263 -0.3321 -1.0900
  541MOL0     H71404  -0.361   4.455   4.745  1.2191 -2.8099  1.5006
  541MOL0     H71405  -0.518   4.491   4.686  2.8064  1.6040 -1.3004
  541MOL0     H71406  -0.440   4.350   4.920 -0.2526  0.4685  0.5317
  541MOL0     H71407  -0.519   4.234   4.830  0.2643  0.1241  2.1755
  541MOL0     H71408  -0.649   4.502   4.913 -1.2496 -0.3567  0.8654
  541MOL0     H71409  -0.724   4.385   4.801 -0.7256 -0.2330  0.5288
  541MOL0     H71410  -0.707   4.232   5.214  2.5109 -0.8188  0.7517
  541MOL0     H71411  -0.129   4.085   4.660 -0.4762  0.1621 -0.3130
  541MOL0     H71412   0.063   4.035   4.502 -0.3552 -0.8607 -0.5829
  542MOL0     O71413   4.522   7.784   3.283 -1.0551  0.0431  0.5872
  542MOL0     C71414   4.565   7.901   3.259  0.0293 -1.2066 -0.3097
  542MOL0     O71415   4.533   7.983   3.152  0.0851 -0.6242  0.0103
  542MOL0     C71416   4.432   7.929   3.063 -0.1716 -1.0171  0.5090
  542MOL0     C71417   4.301   7.890   3.108 -0.4600 -0.2680  0.0021
  542MOL0     C71418   4.216   7.824   3.017  0.1838 -0.0250  0.5309
  542MOL0     C71419   4.248   7.817   2.875  0.8439 -0.6424 -0.5241
  542MOL0     O71420   4.161   7.782   2.772 -0.4427 -0.0331 -0.8800
  542MOL0     C71421   4.035   7.723   2.801  0.8722  0.6540  0.4316
  542MOL0     C71422   3.933   7.734   2.686 -0.5979  0.0819 -1.1372
  542MOL0     C71423   3.999   7.693   2.546 -0.6223 -0.0742  0.3146
  542MOL0     C71424   3.978   7.783   2.425 -0.4043 -0.2325  0.9835
  542MOL0     C71425   4.087   7.888   2.435  0.5406 -0.0853  0.9807
  542MOL0     C71426   4.062   8.004   2.329 -0.1307 -0.1218 -0.1437
  542MOL0     C71427   4.150   8.122   2.355 -0.5077 -0.3304 -0.0253
  542MOL0     C71428   4.117   8.247   2.281  0.7621 -0.5592  0.1244
  542MOL0     N71429   4.096   8.233   2.134 -0.4306 -0.4924 -0.6542
  542MOL0     C71430   4.148   8.142   2.047 -0.0662 -0.0805  0.7169
  542MOL0     C71431   4.078   8.167   1.923  0.6035 -1.2371 -1.1890
  542MOL0     C71432   4.107   8.088   1.801  0.2905  0.9328 -0.2385
  542MOL0     C71433   4.024   7.959   1.780  0.7146  0.0837 -0.6318
  542MOL0     C71434   4.049   7.844   1.879  0.1212 -0.3732  0.1321
  542MOL0     C71435   4.187   7.774   1.886  0.0361 -0.1619 -0.0242
  542MOL0     O71436   4.288   7.860   1.934  0.2876  0.4902 -0.3718
  542MOL0     C71437   4.416   7.821   1.916 -1.3188 -1.0332 -0.8707
  542MOL0     C71438   4.521   7.931   1.934  0.0983  0.4674 -0.7263
  542MOL0     C71439   4.649   7.909   1.892  0.1442 -0.2557  0.7760
  542MOL0     C71440   4.699   7.783   1.864  0.0836  0.2618 -0.4699
  542MOL0     C71441   4.850   7.754   1.856  0.4799 -0.1222 -0.4100
  542MOL0     O71442   4.872   7.637   1.794 -0.5280 -0.0292  0.0052
  542MOL0     C71443   5.003   7.591   1.773  0.8025 -0.0737 -0.3601
  542MOL0     C71444   5.013   7.453   1.786 -1.0097  0.3107  0.8009
  542MOL0     C71445   5.138   7.400   1.747  0.6871  0.4344  0.6307
  542MOL0     C71446   5.250   7.472   1.695 -0.0061 -0.3921  0.0226
  542MOL0     O71447   5.371   7.416   1.659  0.5262  0.1625  0.5881
  542MOL0     C71448   5.478   7.464   1.736 -0.6827  1.3892 -0.4181
  542MOL0     C71449   5.588   7.355   1.732 -1.7367  0.0561 -0.4537
  542MOL0     C71450   5.717   7.412   1.782 -0.0650  0.8205  0.4890
  542MOL0     C71451   5.729   7.440   1.928  0.5271 -0.9862  0.9294
  542MOL0     C71452   5.856   7.515   1.966  0.5038  0.1442  0.3007
  542MOL0     C71453   5.883   7.495   2.116  0.4396 -0.0842 -0.4167
  542MOL0     C71454   5.935   7.354   2.153 -0.8644  1.1275 -0.1329
  542MOL0     C71455   5.881   7.320   2.289  0.0805  0.5334 -0.0460
  542MOL0    Cl71456   5.953   7.163   2.354 -0.5131 -0.4570  0.0557
  542MOL0     C71457   5.229   7.609   1.694  0.8907 -0.0226 -0.5407
  542MOL0     C71458   5.109   7.664   1.731  0.8382 -1.1370  0.3384
  542MOL0     O71459   4.929   7.832   1.907 -0.3554 -0.5382  0.4696
  542MOL0     C71460   4.613   7.674   1.868  0.8508  0.4992  0.4158
  542MOL0     C71461   4.473   7.690   1.876  1.2470 -0.0830  0.4716
  542MOL0     N71462   4.004   8.284   1.942  0.1543  0.4186  0.1553
  542MOL0     N71463   4.005   8.316   2.071  0.3133 -0.8262  0.3417
  542MOL0     C71464   4.369   7.874   2.837  0.4695  0.5074 -0.0803
  542MOL0     C71465   4.463   7.927   2.925 -1.1276  0.2211 -1.1041
  542MOL0     C71466   4.639   7.969   3.368  0.0336  0.1882 -0.0716
  542MOL0     C71467   4.696   8.103   3.344  0.6052 -0.6447  0.4064
  542MOL0     C71468   4.789   8.150   3.442 -0.2916 -0.4267  0.2184
  542MOL0     C71469   4.818   8.078   3.563 -0.1862 -0.5770 -0.0891
  542MOL0     O71470   4.905   8.131   3.658  0.3564 -0.4336  0.0071
  542MOL0     C71471   5.038   8.078   3.657  0.0728  0.5049  0.0500
  542MOL0     C71472   5.134   8.187   3.723  0.7960  0.5744 -0.0773
  542MOL0     C71473   5.123   8.209   3.869  0.1617  0.4542  0.6381
  542MOL0     C71474   5.224   8.299   3.925 -0.6522  0.3601 -0.0455
  542MOL0     C71475   5.350   8.231   3.949 -0.0524 -0.6097 -0.3979
  542MOL0     C71476   5.456   8.172   3.968 -0.2271 -0.4276 -1.2284
  542MOL0     C71477   4.763   7.944   3.583 -0.3168 -0.3823 -0.3571
  542MOL0     C71478   4.681   7.895   3.480 -0.3708  0.5182  1.1144
  542MOL0     H71479   4.267   7.893   3.211 -0.8141 -1.2693 -0.0753
  542MOL0     H71480   4.118   7.803   3.059  0.5756 -0.8303  1.0803
  542MOL0     H71481   3.990   7.781   2.882  0.5067  0.2988  0.4862
  542MOL0     H71482   4.042   7.615   2.818 -0.0338  0.6655  0.9608
  542MOL0     H71483   3.901   7.838   2.689 -0.3129  0.1354  0.8777
  542MOL0     H71484   3.842   7.677   2.707  0.6384 -1.2145  1.1597
  542MOL0     H71485   3.955   7.596   2.520 -1.6952 -0.1254  2.1001
  542MOL0     H71486   4.106   7.677   2.561 -0.1346  2.2225 -0.3447
  542MOL0     H71487   3.983   7.721   2.335 -2.4541 -3.5457  2.9408
  542MOL0     H71488   3.876   7.824   2.417  0.0786  0.8084 -0.1820
  542MOL0     H71489   4.193   7.858   2.431  0.6156  0.3367 -1.6272
  542MOL0     H71490   4.079   7.928   2.537  0.3305  3.1316 -0.1888
  542MOL0     H71491   3.962   8.047   2.315  0.4588  0.8072 -1.7667
  542MOL0     H71492   4.086   7.968   2.228  1.0285 -0.0616  0.0979
  542MOL0     H71493   4.142   8.131   2.464 -2.1240 -2.6401  0.1179
  542MOL0     H71494   4.255   8.101   2.333 -0.1528  0.9756  0.2835
  542MOL0     H71495   4.203   8.313   2.291  0.3423 -0.0384  0.3646
  542MOL0     H71496   4.026   8.297   2.314  0.1650 -1.1983 -0.5066
  542MOL0     H71497   4.220   8.065   2.071 -0.3542 -1.2181 -1.8105
  542MOL0     H71498   4.216   8.076   1.797  0.5628  3.0634 -0.6122
  542MOL0     H71499   4.082   8.165   1.728  2.1101  1.8736  0.0532
  542MOL0     H71500   4.038   7.912   1.682 -1.1651 -0.9484 -0.4598
  542MOL0     H71501   3.917   7.982   1.789  0.5871 -0.8890  0.6019
  542MOL0     H71502   4.005   7.880   1.973 -2.3229  0.5136 -1.2605
  542MOL0     H71503   3.978   7.766   1.851  0.8259 -0.3173 -1.9507
  542MOL0     H71504   4.213   7.733   1.788  0.0143  1.7324 -0.8575
  542MOL0     H71505   4.169   7.686   1.949 -1.0537 -2.4162 -3.2647
  542MOL0     H71506   4.488   8.028   1.971 -0.4582  1.1011 -2.7528
  542MOL0     H71507   4.720   7.991   1.894 -1.0701  0.8298  2.6764
  542MOL0     H71508   4.935   7.391   1.828 -0.8718 -1.8028 -1.8058
  542MOL0     H71509   5.144   7.292   1.758  0.6229  0.6348  3.1556
  542MOL0     H71510   5.458   7.485   1.841  1.1889 -2.8091  0.9800
  542MOL0     H71511   5.509   7.557   1.688 -0.8028  1.3864 -0.5026
  542MOL0     H71512   5.594   7.323   1.627  0.4654  0.8320 -0.6290
  542MOL0     H71513   5.561   7.263   1.785  3.2495 -1.4911 -0.1039
  542MOL0     H71514   5.726   7.508   1.732 -2.4438 -0.8690 -3.7154
  542MOL0     H71515   5.809   7.355   1.765  0.2401  0.6861  2.3352
  542MOL0     H71516   5.643   7.497   1.965 -0.2407 -1.9400  0.6668
  542MOL0     H71517   5.721   7.343   1.978  0.5878 -1.3330  0.2720
  542MOL0     H71518   5.835   7.622   1.960  0.7105  0.2808  1.7075
  542MOL0     H71519   5.939   7.495   1.897  1.5232  0.4348  1.4167
  542MOL0     H71520   5.795   7.523   2.175  0.2657  1.1175 -1.2090
  542MOL0     H71521   5.957   7.571   2.144  3.0086 -3.1313  1.7311
  542MOL0     H71522   5.929   7.275   2.077  0.7373  1.2696 -0.4465
  542MOL0     H71523   6.044   7.368   2.162 -0.2485 -3.2345  1.7267
  542MOL0     H71524   5.772   7.324   2.290 -0.1236 -2.3513  1.6860
  542MOL0     H71525   5.910   7.392   2.366 -1.0899 -1.4462  2.4003
  542MOL0     H71526   5.318   7.666   1.670  0.2246  0.8717 -0.9345
  542MOL0     H71527   5.085   7.769   1.717 -2.1005 -1.8687 -0.8794
  542MOL0     H71528   4.650   7.572   1.866  1.5534  0.7479 -1.7604
  542MOL0     H71529   4.410   7.602   1.865 -0.6801  1.4010 -1.1553
  542MOL0     H71530   4.395   7.900   2.735 -0.6874 -0.3121 -0.5942
  542MOL0     H71531   4.554   7.971   2.887 -0.0832 -0.5895  0.3550
  542MOL0     H71532   4.701   8.163   3.254  0.3536 -0.1371  0.7295
  542MOL0     H71533   4.834   8.249   3.439 -0.5674 -0.3167 -0.5402
  542MOL0     H71534   5.079   8.051   3.559 -0.0108  2.0112 -0.4183
  542MOL0     H71535   5.045   7.989   3.721  2.6100  1.2319  0.9120
  542MOL0     H71536   5.231   8.137   3.709 -0.4887 -1.6519 -1.6900
  542MOL0     H71537   5.139   8.277   3.661  3.6145 -0.5442 -1.6938
  542MOL0     H71538   5.119   8.115   3.924 -1.4376 -0.2683 -0.6411
  542MOL0     H71539   5.033   8.259   3.906  1.0903  0.3975  3.1728
  542MOL0     H71540   5.250   8.389   3.869  1.2606  0.0811  0.3277
  542MOL0     H71541   5.176   8.332   4.017 -1.0487  0.3213 -0.2344
  542MOL0     H71542   5.557   8.136   3.977 -0.0419  0.6558  2.8086
  542MOL0     H71543   4.789   7.887   3.672 -0.8545  1.3237  0.9415
  542MOL0     H71544   4.656   7.789   3.470  1.4505  0.2548 -4.4316
  543MOL0     O71545   6.230  10.587   3.375 -0.2721 -0.4310  0.4929
  543MOL0     C71546   6.183  10.704   3.377 -0.3100 -0.2096 -0.2730
  543MOL0     O71547   6.258  10.813   3.401  0.1501  0.0201 -0.2641
  543MOL0     C71548   6.389  10.788   3.429  0.2116 -0.4054 -0.8553
  543MOL0     C71549   6.488  10.844   3.346 -0.3390  0.3101  1.2945
  543MOL0     C71550   6.628  10.836   3.378 -0.4834  0.1639  0.5441
  543MOL0     C71551   6.668  10.762   3.491  0.0729  0.0111 -0.3637
  543MOL0     O71552   6.800  10.747   3.526 -0.2639  0.5336 -0.1134
  543MOL0     C71553   6.909  10.813   3.459  0.9205 -0.0518  0.4155
  543MOL0     C71554   7.040  10.779   3.528 -0.1390  0.0531 -0.3114
  543MOL0     C71555   7.043  10.621   3.542  0.3267  0.4861  0.7964
  543MOL0     C71556   7.160  10.587   3.633 -0.4609 -0.5835  1.0393
  543MOL0     C71557   7.216  10.442   3.616  0.0449 -0.1415 -0.4141
  543MOL0     C71558   7.335  10.425   3.519  0.2111  0.5552 -0.5242
  543MOL0     C71559   7.381  10.277   3.522  0.0811  0.4893  0.6203
  543MOL0     C71560   7.267  10.174   3.476 -0.4868 -0.0904  1.3714
  543MOL0     N71561   7.332  10.050   3.425  0.2037  0.2041 -0.4749
  543MOL0     C71562   7.399   9.954   3.497  0.2453 -0.2369 -0.4978
  543MOL0     C71563   7.493   9.897   3.415 -0.4062  0.2042 -0.9992
  543MOL0     C71564   7.608   9.798   3.444 -0.3331 -0.0163  0.6329
  543MOL0     C71565   7.548   9.671   3.492 -0.4210 -0.1241 -0.2091
  543MOL0     C71566   7.452   9.591   3.395  1.0754  0.3048  0.2461
  543MOL0     C71567   7.452   9.436   3.400  0.1824  0.3747 -0.1221
  543MOL0     O71568   7.433   9.382   3.535  0.3936  0.2626 -0.3679
  543MOL0     C71569   7.333   9.290   3.538  1.0600 -0.3687  0.6766
  543MOL0     C71570   7.203   9.308   3.486 -0.7702 -0.6272  0.9115
  543MOL0     C71571   7.102   9.221   3.504 -0.9110  0.0855  0.3936
  543MOL0     C71572   7.125   9.104   3.577 -0.5747  0.3809  0.4990
  543MOL0     C71573   7.027   8.990   3.580  0.4546 -0.7285 -0.0320
  543MOL0     O71574   6.919   9.003   3.501 -0.5377  0.5217  0.2310
  543MOL0     C71575   6.818   8.912   3.520 -0.4606 -0.2686 -0.1760
  543MOL0     C71576   6.761   8.898   3.654 -0.6217  0.6152  0.4082
  543MOL0     C71577   6.638   8.841   3.670  0.5796  0.0336  0.2749
  543MOL0     C71578   6.569   8.774   3.564 -0.1198 -0.9290  0.5737
  543MOL0     O71579   6.447   8.714   3.576 -0.4482 -0.0098  0.6676
  543MOL0     C71580   6.457   8.594   3.657 -0.7309 -0.1344  0.8163
  543MOL0     C71581   6.469   8.456   3.581  0.6012  0.1440  0.2219
  543MOL0     C71582   6.349   8.435   3.476  0.5228  0.3523  0.0402
  543MOL0     C71583   6.327   8.291   3.434  0.1149 -0.6259  0.4374
  543MOL0     C71584   6.193   8.279   3.351 -0.6911  0.1996  0.0658
  543MOL0     C71585   6.060   8.326   3.421 -0.9526  0.2469  0.1847
  543MOL0     C71586   5.935   8.267   3.358 -0.5653  1.2551 -0.5963
  543MOL0     C71587   5.807   8.242   3.439  0.5244 -1.1280  0.3879
  543MOL0    Cl71588   5.725   8.139   3.330 -0.1322  0.0176  0.1301
  543MOL0     C71589   6.637   8.782   3.437 -0.9976 -0.1135 -0.2620
  543MOL0     C71590   6.756   8.844   3.416 -0.4249 -0.4630 -0.3113
  543MOL0     O71591   7.049   8.904   3.663 -0.3268  0.0937 -0.5033
  543MOL0     C71592   7.261   9.080   3.618  0.0650 -0.4821 -0.6047
  543MOL0     C71593   7.364   9.169   3.600 -0.3688  0.2477 -0.1699
  543MOL0     N71594   7.473   9.957   3.288 -0.4923  0.5574  1.1405
  543MOL0     N71595   7.380  10.049   3.293 -1.0928  0.0246  0.4472
  543MOL0     C71596   6.572  10.703   3.573 -0.8966  0.5882 -0.1056
  543MOL0     C71597   6.431  10.719   3.541  0.5353  0.6119  0.6654
  543MOL0     C71598   6.042  10.707   3.360 -0.4250  0.0360  0.0816
  543MOL0     C71599   5.971  10.827   3.348  0.1178  0.5077  0.0045
  543MOL0     C71600   5.834  10.839   3.310  0.1380  0.9006  0.5886
  543MOL0     C71601   5.770  10.721   3.280 -0.5975  0.6601  0.7392
  543MOL0     O71602   5.631  10.730   3.260  0.3949  0.0772  0.8724
  543MOL0     C71603   5.577  10.658   3.149  0.6110  0.0287 -0.5768
  543MOL0     C71604   5.449  10.578   3.203  0.4525 -0.3934  0.2103
  543MOL0     C71605   5.506  10.451   3.270  0.0311  0.0290  1.5486
  543MOL0     C71606   5.425  10.370   3.368 -0.4396  0.5562 -0.3190
  543MOL0     C71607   5.331  10.277   3.302 -0.5906 -0.0937 -1.1104
  543MOL0     C71608   5.238  10.206   3.256 -0.1068 -0.6613 -1.0755
  543MOL0     C71609   5.837  10.597   3.293  0.0701  0.6492 -0.2081
  543MOL0     C71610   5.973  10.594   3.330  0.2659 -0.0488  0.1236
  543MOL0     H71611   6.463  10.901   3.257 -0.7772 -3.6854 -1.3648
  543MOL0     H71612   6.700  10.892   3.320 -0.3451 -0.0639  0.4943
  543MOL0     H71613   6.903  10.921   3.471  1.0652  0.2846 -2.0320
  543MOL0     H71614   6.912  10.800   3.350 -2.9735 -0.7373  0.2475
  543MOL0     H71615   7.033  10.813   3.631 -0.2309  1.7152 -0.8330
  543MOL0     H71616   7.122  10.826   3.473 -0.9285  0.9773 -0.7283
  543MOL0     H71617   7.061  10.578   3.443 -1.5495  0.4953  0.4097
  543MOL0     H71618   6.951  10.578   3.584 -0.7648 -1.2441 -2.8708
  543MOL0     H71619   7.234  10.666   3.618 -1.2134 -0.0805 -0.1353
  543MOL0     H71620   7.117  10.597   3.733 -2.5552  5.4680 -0.0277
  543MOL0     H71621   7.129  10.379   3.597  1.2808 -2.6679  1.5989
  543MOL0     H71622   7.260  10.420   3.714 -0.8316 -1.7742 -0.3724
  543MOL0     H71623   7.418  10.490   3.546  2.8106 -3.9131  3.9824
  543MOL0     H71624   7.300  10.440   3.416 -1.4516 -5.5702 -1.3029
  543MOL0     H71625   7.470  10.262   3.459  0.0188  1.9263  0.1663
  543MOL0     H71626   7.409  10.255   3.625 -0.7839  0.7276  0.9163
  543MOL0     H71627   7.211  10.219   3.393  0.6710  0.1944  0.7233
  543MOL0     H71628   7.194  10.150   3.554 -1.5770 -2.1057 -0.1815
  543MOL0     H71629   7.387   9.949   3.605  0.5037  2.2223 -0.2936
  543MOL0     H71630   7.676   9.832   3.523  0.5574  1.3885 -0.6787
  543MOL0     H71631   7.661   9.774   3.351  0.3445 -5.8588  2.1276
  543MOL0     H71632   7.485   9.692   3.579 -0.5438  0.5987 -0.4673
  543MOL0     H71633   7.634   9.609   3.520  1.0057  1.8122 -0.1305
  543MOL0     H71634   7.347   9.610   3.418  0.6628 -0.7627 -0.6677
  543MOL0     H71635   7.470   9.630   3.294  0.9842 -4.4879 -1.8816
  543MOL0     H71636   7.550   9.403   3.364  0.9997 -1.5109  3.3385
  543MOL0     H71637   7.388   9.397   3.320  0.3743  2.0910 -1.1471
  543MOL0     H71638   7.185   9.392   3.419 -1.6742 -0.9023  0.7881
  543MOL0     H71639   7.006   9.237   3.454 -0.1665  1.6771 -0.6465
  543MOL0     H71640   6.813   8.941   3.739  1.2037 -1.3955  0.3981
  543MOL0     H71641   6.601   8.825   3.771 -0.2877 -0.4193 -0.1068
  543MOL0     H71642   6.373   8.592   3.727 -0.0371  0.5821  1.6899
  543MOL0     H71643   6.550   8.600   3.713  0.0793 -0.5097 -0.4296
  543MOL0     H71644   6.461   8.377   3.656 -0.6437 -0.3271 -0.3825
  543MOL0     H71645   6.565   8.454   3.529  0.6960  0.1639  0.3947
  543MOL0     H71646   6.376   8.489   3.385  2.9788 -2.5149 -1.0857
  543MOL0     H71647   6.257   8.472   3.523  2.2372  2.6931  1.7710
  543MOL0     H71648   6.410   8.252   3.375 -0.6360 -0.7776 -0.5364
  543MOL0     H71649   6.329   8.233   3.527 -1.1635  2.6831  2.6810
  543MOL0     H71650   6.192   8.172   3.328  2.0387  0.3308 -1.1248
  543MOL0     H71651   6.204   8.330   3.255  1.7327 -0.6682 -0.1873
  543MOL0     H71652   6.043   8.434   3.419 -2.4465  0.0335  0.2263
  543MOL0     H71653   6.058   8.298   3.527  0.0408  4.4573  1.5206
  543MOL0     H71654   5.904   8.327   3.272 -3.3967  0.3351 -0.3069
  543MOL0     H71655   5.966   8.171   3.316 -1.5091 -1.0227  3.4308
  543MOL0     H71656   5.767   8.343   3.444 -1.4112 -1.7953 -0.5630
  543MOL0     H71657   5.812   8.197   3.539 -3.1530  0.2022  1.3260
  543MOL0     H71658   6.577   8.748   3.353 -0.2900 -0.6596 -0.5611
  543MOL0     H71659   6.795   8.846   3.315 -2.3813 -1.6601 -1.1544
  543MOL0     H71660   7.275   8.992   3.680  0.8033  0.5476  0.7612
  543MOL0     H71661   7.461   9.138   3.639 -0.5578 -0.5802 -0.3258
  543MOL0     H71662   6.595  10.645   3.662  1.1088 -1.0728 -1.6145
  543MOL0     H71663   6.360  10.693   3.619  2.5919  1.2790  2.8879
  543MOL0     H71664   6.018  10.925   3.353  1.9650 -0.1879 -1.8756
  543MOL0     H71665   5.765  10.923   3.308  0.6598  1.3377 -1.4960
  543MOL0     H71666   5.656  10.596   3.105  0.8872 -1.2893  1.6554
  543MOL0     H71667   5.544  10.735   3.079 -0.8115  0.2852  0.3528
  543MOL0     H71668   5.397  10.636   3.280 -0.6461  1.8431 -2.0963
  543MOL0     H71669   5.378  10.544   3.127  0.2574  2.1309 -0.8041
  543MOL0     H71670   5.597  10.475   3.327 -1.4117 -1.7450  4.9220
  543MOL0     H71671   5.545  10.383   3.194 -2.4127 -1.4187  1.4948
  543MOL0     H71672   5.501  10.321   3.429  2.0004  1.7145 -2.2854
  543MOL0     H71673   5.378  10.442   3.435  2.3551  3.1398 -0.9430
  543MOL0     H71674   5.154  10.142   3.239 -0.3761 -0.3696 -0.8454
  543MOL0     H71675   5.792  10.498   3.285  0.8590  0.1891  0.8610
  543MOL0     H71676   6.019  10.496   3.332  0.2493 -0.0654  2.5893
  544MOL0     O71677   4.364   2.895   7.126 -0.1220  0.6309  0.4283
  544MOL0     C71678   4.428   2.902   7.227  0.6748 -0.0197  0.7855
  544MOL0     O71679   4.564   2.880   7.235 -0.2477 -0.1226  0.5184
  544MOL0     C71680   4.624   2.842   7.107  0.0268  0.3520 -0.0004
  544MOL0     C71681   4.669   2.931   7.013  0.3089 -0.4888  0.2706
  544MOL0     C71682   4.730   2.888   6.891  0.1191 -1.1924  0.7657
  544MOL0     C71683   4.759   2.757   6.866  0.8002 -0.2239  0.1047
  544MOL0     O71684   4.803   2.725   6.741 -0.2930 -0.4283  0.2600
  544MOL0     C71685   4.877   2.603   6.717  0.1388  0.0717 -0.4388
  544MOL0     C71686   4.945   2.598   6.584  1.0173 -0.1982  0.7930
  544MOL0     C71687   4.851   2.639   6.466 -1.0786  0.0550  1.2322
  544MOL0     C71688   4.712   2.583   6.452 -0.8565 -0.0001  0.0053
  544MOL0     C71689   4.674   2.537   6.311 -0.3814 -0.1592  0.8303
  544MOL0     C71690   4.711   2.638   6.191  0.3651 -1.0758  0.5465
  544MOL0     C71691   4.691   2.786   6.222  0.7800  0.5798  0.8741
  544MOL0     C71692   4.698   2.857   6.086 -0.2342  0.3016 -0.9463
  544MOL0     N71693   4.670   2.999   6.110  0.8106 -0.7072  0.2542
  544MOL0     C71694   4.559   3.074   6.057  0.0422  1.3130 -1.0200
  544MOL0     C71695   4.574   3.193   6.106  0.8870  0.3298  0.0349
  544MOL0     C71696   4.483   3.314   6.084  0.2509 -0.7788 -0.8828
  544MOL0     C71697   4.495   3.360   5.936  0.5559  0.3538 -0.0493
  544MOL0     C71698   4.625   3.410   5.892 -0.6563 -0.7949 -0.6471
  544MOL0     C71699   4.665   3.377   5.755 -0.3597 -0.8709 -0.3880
  544MOL0     O71700   4.672   3.229   5.725  0.5024  0.6202 -0.0423
  544MOL0     C71701   4.801   3.183   5.732  0.7764  0.0045  0.8499
  544MOL0     C71702   4.847   3.150   5.858 -0.2696  0.6358 -0.0276
  544MOL0     C71703   4.979   3.101   5.874  0.4366 -0.1533 -0.2467
  544MOL0     C71704   5.069   3.097   5.764  0.1334 -0.7472 -0.0164
  544MOL0     C71705   5.223   3.072   5.790 -0.2298 -0.5825 -0.7989
  544MOL0     O71706   5.300   3.029   5.682  0.1706 -0.2033  0.0758
  544MOL0     C71707   5.438   3.004   5.683  0.5150 -0.4164  0.4643
  544MOL0     C71708   5.517   3.055   5.787 -0.2063 -1.4128  0.7530
  544MOL0     C71709   5.653   3.026   5.794  0.1670  1.0874 -0.2965
  544MOL0     C71710   5.720   2.948   5.696 -0.5998 -0.8710 -0.6273
  544MOL0     O71711   5.853   2.910   5.728  0.5276 -1.5545 -0.0249
  544MOL0     C71712   5.934   2.875   5.616 -0.0234  0.7336 -0.5644
  544MOL0     C71713   6.077   2.891   5.648  0.2685 -0.0036  0.6079
  544MOL0     C71714   6.117   3.036   5.637 -0.2339  0.5204 -0.6834
  544MOL0     C71715   6.265   3.034   5.674  0.3868  0.4548  0.5516
  544MOL0     C71716   6.318   3.171   5.725  0.1222 -0.0981  0.2134
  544MOL0     C71717   6.259   3.203   5.863 -0.0609  0.4279  0.5023
  544MOL0     C71718   6.351   3.187   5.986  0.1505 -0.2031 -0.4324
  544MOL0     C71719   6.412   3.322   6.030  0.2978 -0.8812 -0.2094
  544MOL0    Cl71720   6.528   3.387   5.901  0.3337 -0.4504 -0.0154
  544MOL0     C71721   5.640   2.903   5.593 -0.6828 -0.0689 -0.6177
  544MOL0     C71722   5.505   2.930   5.584  0.1975  0.5289  0.5913
  544MOL0     O71723   5.256   3.083   5.911 -0.1415  0.0717 -0.0017
  544MOL0     C71724   5.024   3.123   5.638  0.0965 -0.2656 -0.1408
  544MOL0     C71725   4.901   3.180   5.624 -0.3566 -0.4564  0.4401
  544MOL0     N71726   4.678   3.192   6.198  0.3389  0.1951  0.1187
  544MOL0     N71727   4.735   3.078   6.192  0.3228 -0.3972 -0.1094
  544MOL0     C71728   4.729   2.669   6.963  1.5221  0.0102  0.5553
  544MOL0     C71729   4.664   2.711   7.086 -0.2714 -0.1843 -0.6643
  544MOL0     C71730   4.360   2.938   7.348 -0.4229 -0.7845 -0.1912
  544MOL0     C71731   4.241   2.880   7.386  0.1549 -1.0120 -0.1213
  544MOL0     C71732   4.200   2.897   7.519  0.3866 -0.0168  1.2975
  544MOL0     C71733   4.265   2.984   7.609  0.2357 -0.8322  0.8576
  544MOL0     O71734   4.227   3.012   7.735 -0.2316 -0.1964 -0.7155
  544MOL0     C71735   4.090   3.010   7.782  0.0995  0.7032  0.2287
  544MOL0     C71736   4.002   3.138   7.743 -0.3311  0.4150  0.9522
  544MOL0     C71737   4.048   3.265   7.804 -0.4619 -0.3813  0.1022
  544MOL0     C71738   3.951   3.387   7.776 -0.8677  0.0355 -0.0771
  544MOL0     C71739   3.836   3.390   7.863  0.2348 -0.3095 -0.0663
  544MOL0     C71740   3.743   3.414   7.943 -0.6796  0.2592  0.8605
  544MOL0     C71741   4.381   3.058   7.559 -0.3499  0.6215  0.4246
  544MOL0     C71742   4.437   3.017   7.438  0.3434  0.0633  0.8008
  544MOL0     H71743   4.656   3.038   7.026 -1.6412 -0.5537 -0.7478
  544MOL0     H71744   4.774   2.961   6.822 -2.4677 -1.7116 -1.6287
  544MOL0     H71745   4.813   2.515   6.724 -1.4999  1.2819  0.4438
  544MOL0     H71746   4.947   2.600   6.801 -2.7532  3.3256  2.3722
  544MOL0     H71747   4.972   2.495   6.557  3.7446  1.0973 -1.9933
  544MOL0     H71748   5.032   2.662   6.571  0.9735 -0.6374 -2.3201
  544MOL0     H71749   4.904   2.602   6.377 -3.7459  1.0601 -0.8963
  544MOL0     H71750   4.856   2.748   6.460  0.5453  0.0732  2.0998
  544MOL0     H71751   4.693   2.498   6.518  0.6202 -0.3817 -0.0256
  544MOL0     H71752   4.640   2.657   6.489  0.8473  0.8598  1.8184
  544MOL0     H71753   4.567   2.520   6.302 -0.1328 -0.6686 -2.0483
  544MOL0     H71754   4.724   2.443   6.288 -2.7141 -1.1138 -0.6524
  544MOL0     H71755   4.643   2.619   6.107 -1.4618  4.3118  0.4302
  544MOL0     H71756   4.818   2.616   6.180  0.1084 -2.4175  0.5252
  544MOL0     H71757   4.598   2.801   6.276  0.6834 -2.4850  1.6944
  544MOL0     H71758   4.776   2.819   6.283 -0.5659  0.4394  2.8800
  544MOL0     H71759   4.613   2.812   6.035  0.2233 -1.0749 -0.5325
  544MOL0     H71760   4.793   2.832   6.038 -0.1070 -4.0068  1.1094
  544MOL0     H71761   4.480   3.041   5.992  1.5060  2.2806 -3.4141
  544MOL0     H71762   4.506   3.403   6.143  1.3088 -2.4859  1.4629
  544MOL0     H71763   4.382   3.276   6.104  0.2088 -1.5825 -2.4777
  544MOL0     H71764   4.426   3.441   5.912  1.8482  0.6349 -3.2286
  544MOL0     H71765   4.475   3.278   5.867 -0.6616 -1.5813  2.4146
  544MOL0     H71766   4.619   3.517   5.917  1.7052 -0.5630 -0.8526
  544MOL0     H71767   4.705   3.375   5.958 -1.8821 -0.2862  1.1896
  544MOL0     H71768   4.757   3.427   5.722  0.0864  0.9092  3.0177
  544MOL0     H71769   4.588   3.419   5.690  0.8964 -0.0607 -1.4215
  544MOL0     H71770   4.780   3.157   5.943 -0.2207  2.5118 -0.1025
  544MOL0     H71771   5.005   3.067   5.974  0.9830  0.7810 -0.0578
  544MOL0     H71772   5.476   3.117   5.866  1.2749  2.0527 -0.9578
  544MOL0     H71773   5.710   3.059   5.881 -0.7902  1.2491  0.2852
  544MOL0     H71774   5.905   2.927   5.525 -4.5810 -0.1269  0.1087
  544MOL0     H71775   5.914   2.772   5.584  1.6911  0.3770 -0.5458
  544MOL0     H71776   6.135   2.828   5.580 -2.4442 -0.0620 -1.8606
  544MOL0     H71777   6.096   2.856   5.750  0.0055 -0.9331  0.3477
  544MOL0     H71778   6.059   3.093   5.710 -0.7739  0.2891 -0.9246
  544MOL0     H71779   6.103   3.075   5.536 -1.1685  1.1419 -0.3199
  544MOL0     H71780   6.281   2.952   5.745 -4.2702 -3.4930 -2.3987
  544MOL0     H71781   6.321   2.994   5.589 -0.0535  0.8579  0.0719
  544MOL0     H71782   6.291   3.250   5.653  0.8941  1.8580  1.9475
  544MOL0     H71783   6.426   3.171   5.735 -0.0942  0.7590  6.2374
  544MOL0     H71784   6.166   3.150   5.883  0.6477 -1.0998 -0.1324
  544MOL0     H71785   6.225   3.307   5.860 -1.0083  0.2776  3.2945
  544MOL0     H71786   6.289   3.131   6.056  0.4362 -1.3637 -1.0682
  544MOL0     H71787   6.435   3.118   5.971 -0.8189 -1.7967  1.1663
  544MOL0     H71788   6.463   3.303   6.125 -1.1894  1.4183  1.1483
  544MOL0     H71789   6.330   3.394   6.039 -0.3753 -1.7737  1.0697
  544MOL0     H71790   5.680   2.836   5.518  1.5181 -1.5906  1.7623
  544MOL0     H71791   5.450   2.894   5.497  2.9181 -1.0677 -0.6065
  544MOL0     H71792   5.094   3.127   5.554  1.0461 -0.5662  0.6163
  544MOL0     H71793   4.875   3.227   5.530  3.0570  1.7251  0.4246
  544MOL0     H71794   4.744   2.563   6.946  1.7543  0.1755 -0.3615
  544MOL0     H71795   4.646   2.628   7.154 -1.9001 -2.4347 -3.5866
  544MOL0     H71796   4.195   2.806   7.321  0.7853 -1.4725 -0.0539
  544MOL0     H71797   4.112   2.842   7.550 -0.5393  0.5957 -0.1527
  544MOL0     H71798   4.080   3.001   7.890 -1.5076  2.7744  0.3117
  544MOL0     H71799   4.037   2.919   7.752  1.3143  0.1486 -0.3193
  544MOL0     H71800   4.008   3.143   7.634 -2.1647 -0.5704  0.7734
  544MOL0     H71801   3.896   3.120   7.764  0.5358 -1.9858  3.9435
  544MOL0     H71802   4.146   3.292   7.763  0.3292 -3.1125  0.0035
  544MOL0     H71803   4.069   3.245   7.909 -1.5854  0.1926  0.4481
  544MOL0     H71804   4.020   3.472   7.786  0.7012 -0.9485 -1.8334
  544MOL0     H71805   3.923   3.375   7.671 -1.6138  1.2005 -0.0237
  544MOL0     H71806   3.674   3.429   8.024 -0.0900  1.7094  1.1250
  544MOL0     H71807   4.435   3.129   7.620 -0.4032 -0.5286  1.8629
  544MOL0     H71808   4.538   3.048   7.411  0.6703 -1.0706  0.6338
  545MOL0     O71809   8.034   9.660   4.788  0.0597  0.7071  0.5966
  545MOL0     C71810   7.990   9.739   4.873  0.1528  0.7975  0.2474
  545MOL0     O71811   7.858   9.785   4.885 -0.3301 -0.5882 -0.2868
  545MOL0     C71812   7.776   9.761   4.776  1.1439  0.7641 -0.6339
  545MOL0     C71813   7.646   9.701   4.795 -0.9145  0.2285  0.2268
  545MOL0     C71814   7.549   9.698   4.685  0.3388 -0.6055  0.2057
  545MOL0     C71815   7.578   9.761   4.564  0.3678  0.2629  0.4889
  545MOL0     O71816   7.479   9.750   4.463 -0.3656 -0.5215  0.2252
  545MOL0     C71817   7.358   9.684   4.469  0.9580  0.2457  0.5835
  545MOL0     C71818   7.255   9.752   4.376 -0.1317  0.1074 -0.4145
  545MOL0     C71819   7.135   9.669   4.334  1.0779 -0.4471  1.4646
  545MOL0     C71820   7.033   9.655   4.447  0.1581  0.0393  0.2298
  545MOL0     C71821   6.937   9.539   4.415  0.1372 -0.5186 -1.3789
  545MOL0     C71822   6.797   9.574   4.355  0.5156  0.1003  0.2972
  545MOL0     C71823   6.813   9.659   4.224 -0.0036 -0.7525  0.1743
  545MOL0     C71824   6.682   9.663   4.152 -0.1108  0.1339  1.2041
  545MOL0     N71825   6.684   9.757   4.037  1.0997  0.7794 -0.6290
  545MOL0     C71826   6.632   9.884   4.044 -0.1577 -0.4897 -0.0592
  545MOL0     C71827   6.618   9.926   3.916  0.4688  0.9604 -0.1524
  545MOL0     C71828   6.563  10.060   3.877  0.0401  0.1918  0.2461
  545MOL0     C71829   6.423  10.044   3.812 -1.0545 -0.2503  0.3856
  545MOL0     C71830   6.320   9.963   3.889  0.9404 -0.3989  0.2257
  545MOL0     C71831   6.186   9.988   3.829 -0.1736  0.1366 -0.0734
  545MOL0     O71832   6.171   9.910   3.716 -0.2831  0.2419 -0.1940
  545MOL0     C71833   6.075   9.936   3.618 -0.1272  0.6208  1.0910
  545MOL0     C71834   6.069   9.858   3.505  0.5496 -0.7247  0.3058
  545MOL0     C71835   5.959   9.871   3.411 -0.2705  0.6090  1.3939
  545MOL0     C71836   5.864   9.966   3.428  0.0798  0.2985  0.9287
  545MOL0     C71837   5.736   9.978   3.341 -0.8404  0.4765  0.9650
  545MOL0     O71838   5.709   9.867   3.271 -0.6483  0.3686  0.0521
  545MOL0     C71839   5.619   9.866   3.169  0.0656  0.7621 -0.3494
  545MOL0     C71840   5.648   9.796   3.057 -0.1707 -0.5872  0.7512
  545MOL0     C71841   5.569   9.798   2.941  0.1696 -1.0076  0.5360
  545MOL0     C71842   5.456   9.891   2.939 -0.0461  0.0761 -0.6270
  545MOL0     O71843   5.382   9.905   2.830  0.3045 -0.5636  0.7867
  545MOL0     C71844   5.426   9.840   2.717  0.4947  0.1171  0.0479
  545MOL0     C71845   5.334   9.887   2.609  0.1709  0.5528 -0.6559
  545MOL0     C71846   5.374   9.816   2.476  0.7519  0.7252 -0.0476
  545MOL0     C71847   5.343   9.672   2.474  0.7949 -0.3719 -0.9275
  545MOL0     C71848   5.469   9.594   2.417  0.0819 -0.0062 -0.2461
  545MOL0     C71849   5.521   9.626   2.271 -0.4296  0.9495 -0.1201
  545MOL0     C71850   5.610   9.511   2.213 -1.0575  0.2515  0.0119
  545MOL0     C71851   5.748   9.516   2.284  0.1222 -0.1252 -0.2590
  545MOL0    Cl71852   5.843   9.666   2.263 -0.1676 -0.2323 -0.3928
  545MOL0     C71853   5.413   9.947   3.065  0.1698  0.9747  0.5484
  545MOL0     C71854   5.500   9.940   3.174 -0.1340  1.0422 -0.8814
  545MOL0     O71855   5.679  10.082   3.335  0.4361 -0.7043  0.0343
  545MOL0     C71856   5.878  10.055   3.530  0.8962 -0.3796  0.6735
  545MOL0     C71857   5.981  10.037   3.622 -0.0814 -0.4853 -0.2178
  545MOL0     N71858   6.636   9.817   3.829  0.7699 -0.0272  0.4552
  545MOL0     N71859   6.671   9.724   3.909 -0.8533  0.6973  0.6981
  545MOL0     C71860   7.707   9.826   4.546 -0.5421 -0.5613 -0.7535
  545MOL0     C71861   7.794   9.828   4.658  0.5375 -0.3544  1.5180
  545MOL0     C71862   8.091   9.806   4.963 -0.3622  0.3556 -0.3282
  545MOL0     C71863   8.047   9.866   5.083  0.2384 -0.4511 -0.8556
  545MOL0     C71864   8.147   9.926   5.160 -0.0758  0.7730 -0.3657
  545MOL0     C71865   8.285   9.907   5.124  1.1312  0.6270  0.7671
  545MOL0     O71866   8.389   9.955   5.198  0.0358 -0.3632  0.3727
  545MOL0     C71867   8.452   9.873   5.290 -0.7654  0.5864 -1.0074
  545MOL0     C71868   8.395   9.880   5.427  0.0484  0.0230 -0.1070
  545MOL0     C71869   8.492   9.808   5.520  0.2180 -0.7327  0.9199
  545MOL0     C71870   8.511   9.884   5.651  0.3049 -0.3455 -0.2055
  545MOL0     C71871   8.625   9.833   5.730  1.0367  0.6699 -0.4671
  545MOL0     C71872   8.716   9.776   5.791 -0.1272  0.1923 -0.3539
  545MOL0     C71873   8.326   9.857   5.000  0.4590 -0.0153 -0.3522
  545MOL0     C71874   8.223   9.799   4.924  1.1792  0.5544 -0.2486
  545MOL0     H71875   7.632   9.672   4.899  1.3922  0.1276  0.5644
  545MOL0     H71876   7.459   9.645   4.716  0.0824 -0.1778  0.1970
  545MOL0     H71877   7.315   9.683   4.569 -1.7571 -2.5698 -0.4683
  545MOL0     H71878   7.366   9.580   4.437  4.8198  0.8596 -1.0008
  545MOL0     H71879   7.322   9.771   4.291 -0.4593 -3.1228 -1.5331
  545MOL0     H71880   7.222   9.846   4.421  0.2884 -0.2652  0.7133
  545MOL0     H71881   7.165   9.570   4.301 -2.0550 -0.6971 -1.0697
  545MOL0     H71882   7.086   9.717   4.249 -1.4933  1.7651  3.9867
  545MOL0     H71883   7.086   9.640   4.542 -0.7621 -2.2357  0.4491
  545MOL0     H71884   6.973   9.746   4.447  0.1659  0.1149  2.5909
  545MOL0     H71885   6.912   9.501   4.515  2.1416  2.3437  0.3733
  545MOL0     H71886   6.991   9.455   4.373 -2.3060 -2.6787 -0.4621
  545MOL0     H71887   6.737   9.635   4.423 -0.2118  1.2940 -1.3420
  545MOL0     H71888   6.748   9.480   4.330  0.9462  0.0541 -0.3888
  545MOL0     H71889   6.856   9.756   4.249 -0.3669 -0.9588  1.6937
  545MOL0     H71890   6.890   9.614   4.160 -0.6601 -0.3635 -0.8984
  545MOL0     H71891   6.607   9.698   4.223 -2.0879 -0.8255 -0.3146
  545MOL0     H71892   6.657   9.559   4.127 -0.3261  0.4537  0.0248
  545MOL0     H71893   6.591   9.941   4.127 -0.9689  1.7642 -1.8703
  545MOL0     H71894   6.634  10.107   3.808  0.7103 -0.3487  0.5573
  545MOL0     H71895   6.546  10.115   3.970 -2.1252  0.6084 -0.3245
  545MOL0     H71896   6.435  10.004   3.711  2.4731  1.9821 -0.2526
  545MOL0     H71897   6.389  10.147   3.820  2.2351  0.8363  2.0205
  545MOL0     H71898   6.354   9.859   3.884 -1.1121 -1.1209  0.3058
  545MOL0     H71899   6.306   9.989   3.994 -3.8590 -2.3333  0.3012
  545MOL0     H71900   6.187  10.096   3.810  2.8502 -0.1816 -2.5395
  545MOL0     H71901   6.100   9.967   3.893  1.4905 -2.5620  1.4447
  545MOL0     H71902   6.144   9.780   3.493 -1.3618 -3.1017  2.7147
  545MOL0     H71903   5.957   9.807   3.323  0.9707  2.3502  0.0348
  545MOL0     H71904   5.738   9.735   3.059 -0.0640 -0.5842 -1.6074
  545MOL0     H71905   5.610   9.744   2.856  0.8616  0.2294  0.0544
  545MOL0     H71906   5.439   9.733   2.734  1.3929  0.2639  0.3269
  545MOL0     H71907   5.521   9.888   2.692  0.0368  2.5957  2.4661
  545MOL0     H71908   5.325   9.995   2.602  0.0876  0.9595  3.4340
  545MOL0     H71909   5.230   9.855   2.623 -0.1873  0.3823 -3.1148
  545MOL0     H71910   5.483   9.822   2.471  0.8672 -0.7470  0.2490
  545MOL0     H71911   5.335   9.865   2.386  1.6862 -1.9742 -2.0647
  545MOL0     H71912   5.329   9.628   2.573  0.4707 -1.4700 -1.4476
  545MOL0     H71913   5.245   9.660   2.427  0.3166 -1.2707  0.2538
  545MOL0     H71914   5.442   9.488   2.420  4.6257 -1.3325  1.1421
  545MOL0     H71915   5.556   9.602   2.482  1.0752  1.1768 -1.6515
  545MOL0     H71916   5.561   9.728   2.264  0.5552  0.4947 -1.5644
  545MOL0     H71917   5.431   9.625   2.210  0.6992 -1.1696 -1.8976
  545MOL0     H71918   5.576   9.409   2.233  3.4378 -1.3459  0.9047
  545MOL0     H71919   5.639   9.515   2.107  2.4955  2.7322  0.8878
  545MOL0     H71920   5.807   9.430   2.249  0.4191  0.2231 -0.6195
  545MOL0     H71921   5.726   9.511   2.391 -0.8927  1.7396 -0.3364
  545MOL0     H71922   5.328  10.014   3.068 -2.1639 -1.8039  1.8463
  545MOL0     H71923   5.473  10.003   3.258  0.0063 -0.2640  0.1803
  545MOL0     H71924   5.811  10.140   3.546 -1.0585 -1.4869 -1.0993
  545MOL0     H71925   5.990  10.096   3.713  0.8078  0.5565 -0.9458
  545MOL0     H71926   7.736   9.870   4.451  2.0546  1.5354  0.8642
  545MOL0     H71927   7.886   9.883   4.638 -1.0015  1.7322 -0.2830
  545MOL0     H71928   7.944   9.876   5.115  0.8166 -1.3163  1.4631
  545MOL0     H71929   8.118   9.992   5.241  0.5029  0.9134 -0.2664
  545MOL0     H71930   8.553   9.916   5.290 -0.7088  0.5700  1.2038
  545MOL0     H71931   8.457   9.770   5.254 -0.4450  0.2901 -0.1236
  545MOL0     H71932   8.399   9.988   5.447  4.8950 -0.0335  0.4192
  545MOL0     H71933   8.297   9.834   5.416  1.4616 -2.7925 -2.5032
  545MOL0     H71934   8.586   9.786   5.468 -2.4403 -0.6438 -4.6554
  545MOL0     H71935   8.441   9.719   5.557 -0.0337 -1.2002 -0.4867
  545MOL0     H71936   8.525   9.991   5.634 -0.8257  0.0929  1.4258
  545MOL0     H71937   8.415   9.867   5.700 -0.5610 -2.4193 -2.4208
  545MOL0     H71938   8.793   9.727   5.847  1.1045  4.6604  2.4349
  545MOL0     H71939   8.432   9.851   4.975  0.3586 -0.3610 -0.7118
  545MOL0     H71940   8.256   9.756   4.830  0.7962  1.4423 -0.8026
  546MOL0     O71941   7.203   7.785   5.244  1.0132  0.1294  0.5191
  546MOL0     C71942   7.167   7.863   5.339  0.1044 -0.2470  0.5905
  546MOL0     O71943   7.054   7.843   5.410  0.1592 -0.1086 -0.4972
  546MOL0     C71944   6.975   7.734   5.404 -0.6518 -0.1703  0.6745
  546MOL0     C71945   6.945   7.657   5.290  0.7378  0.1186  0.7088
  546MOL0     C71946   6.845   7.554   5.294  0.4147  0.0798 -0.0795
  546MOL0     C71947   6.776   7.534   5.411  0.3046  0.1869 -0.8679
  546MOL0     O71948   6.670   7.440   5.409  0.2915  1.0435 -0.1596
  546MOL0     C71949   6.696   7.308   5.356  1.1183 -0.1467  0.5403
  546MOL0     C71950   6.573   7.223   5.387  0.4327 -0.6036  0.0911
  546MOL0     C71951   6.509   7.242   5.530  0.6118  0.1504 -0.0407
  546MOL0     C71952   6.602   7.216   5.648  0.1070 -0.2288  0.6209
  546MOL0     C71953   6.536   7.265   5.776  0.8687 -0.3632  0.8466
  546MOL0     C71954   6.396   7.210   5.805  0.6060 -0.1465 -0.7992
  546MOL0     C71955   6.332   7.286   5.924  0.4943  1.1974 -0.2725
  546MOL0     C71956   6.197   7.230   5.969 -0.7288  0.1092 -0.3022
  546MOL0     N71957   6.151   7.275   6.103 -0.6523  0.2806  0.8935
  546MOL0     C71958   6.110   7.183   6.196  0.3122 -0.5559  0.3268
  546MOL0     C71959   6.001   7.243   6.261  0.0998  0.1909 -0.7584
  546MOL0     C71960   5.913   7.204   6.373  0.6365 -0.7911 -0.2274
  546MOL0     C71961   5.821   7.083   6.338 -0.0544  0.6802  1.1066
  546MOL0     C71962   5.871   6.948   6.390 -0.5517 -1.2592 -1.0880
  546MOL0     C71963   5.815   6.921   6.536  0.1828  1.3638  0.4603
  546MOL0     O71964   5.671   6.953   6.537 -1.0113 -0.3972  0.3643
  546MOL0     C71965   5.607   6.919   6.652 -0.2723 -0.6476  0.4034
  546MOL0     C71966   5.479   6.977   6.675 -1.0644  0.5787 -0.8304
  546MOL0     C71967   5.409   6.961   6.802 -0.5530 -0.0410  0.0858
  546MOL0     C71968   5.475   6.892   6.901 -0.5511  1.4281 -0.0001
  546MOL0     C71969   5.417   6.888   7.038 -0.8846  0.8210  0.5708
  546MOL0     O71970   5.286   6.908   7.060  0.6406  0.3256 -0.5317
  546MOL0     C71971   5.241   6.880   7.194  0.6017  1.0608  0.1338
  546MOL0     C71972   5.173   6.979   7.260  0.4680 -0.7962 -0.1051
  546MOL0     C71973   5.118   6.952   7.392  0.7653 -0.4691  0.5658
  546MOL0     C71974   5.121   6.823   7.442  0.1845  0.8789 -0.1284
  546MOL0     O71975   5.069   6.780   7.559  0.2249 -0.0921 -0.3180
  546MOL0     C71976   4.951   6.833   7.620  0.2716 -0.1759  0.3916
  546MOL0     C71977   4.831   6.817   7.519  1.0081 -0.2677  1.0118
  546MOL0     C71978   4.699   6.848   7.570 -0.3890 -0.2052 -0.9375
  546MOL0     C71979   4.590   6.770   7.486 -0.7507  0.0706  0.2799
  546MOL0     C71980   4.471   6.750   7.575 -0.1807  0.0346 -0.4100
  546MOL0     C71981   4.352   6.684   7.505  0.3415 -0.3210 -0.0429
  546MOL0     C71982   4.386   6.537   7.480  0.0860 -0.4262  0.2587
  546MOL0     C71983   4.269   6.469   7.393 -0.0492 -0.1740 -0.3114
  546MOL0    Cl71984   4.305   6.507   7.226  0.3752  0.0743 -0.5892
  546MOL0     C71985   5.202   6.729   7.381 -0.7722  0.2410  0.1630
  546MOL0     C71986   5.254   6.752   7.257  0.9638 -0.0991 -0.8920
  546MOL0     O71987   5.503   6.854   7.129 -0.7390 -0.5610  0.1376
  546MOL0     C71988   5.606   6.846   6.877  0.3774 -1.1738 -0.0989
  546MOL0     C71989   5.670   6.864   6.759 -1.0292 -0.2484  1.4411
  546MOL0     N71990   5.989   7.368   6.209  0.5625 -0.5106 -0.0787
  546MOL0     N71991   6.084   7.391   6.123 -0.3570  0.2541  0.0746
  546MOL0     C71992   6.795   7.612   5.527  0.6623 -0.9061 -0.3965
  546MOL0     C71993   6.903   7.705   5.512  0.0019 -0.5534  0.4683
  546MOL0     C71994   7.251   7.974   5.364 -0.7171 -0.2843 -1.3318
  546MOL0     C71995   7.383   7.976   5.325 -0.4924 -1.2322  0.5294
  546MOL0     C71996   7.470   8.088   5.361 -0.5944  0.1595 -0.2762
  546MOL0     C71997   7.421   8.194   5.434  0.1465  0.2222  1.3043
  546MOL0     O71998   7.513   8.288   5.476  0.5718  0.2545 -0.0293
  546MOL0     C71999   7.481   8.346   5.604 -0.0365 -0.7023 -0.3936
  546MOL0     C72000   7.532   8.251   5.717  1.3112 -1.1057 -0.3756
  546MOL0     C72001   7.639   8.149   5.676  0.6186 -0.0103 -0.9249
  546MOL0     C72002   7.773   8.229   5.657  0.4101  0.0604 -0.0240
  546MOL0     C72003   7.864   8.136   5.588 -1.0638  0.0001 -0.5344
  546MOL0     C72004   7.940   8.068   5.521  0.5852  0.5910  0.0641
  546MOL0     C72005   7.282   8.186   5.477  0.7924  0.7547  0.9770
  546MOL0     C72006   7.208   8.076   5.445  0.3886 -0.4268  0.5173
  546MOL0     H72007   6.981   7.674   5.190 -1.6498  0.2432 -0.2015
  546MOL0     H72008   6.839   7.491   5.206  3.0633  0.7309 -0.7964
  546MOL0     H72009   6.784   7.253   5.392  0.6783 -1.4389 -0.2909
  546MOL0     H72010   6.720   7.320   5.250  0.9831  0.9033  0.6222
  546MOL0     H72011   6.610   7.120   5.381  2.9071  0.0652  2.2445
  546MOL0     H72012   6.502   7.254   5.310 -1.1362 -0.7542  1.4282
  546MOL0     H72013   6.420   7.179   5.527  1.0973 -0.5028 -1.0785
  546MOL0     H72014   6.475   7.346   5.540 -0.5228 -0.3471  1.7842
  546MOL0     H72015   6.639   7.114   5.658  1.3751 -0.0154 -1.2675
  546MOL0     H72016   6.694   7.269   5.620  0.2675 -0.4299  0.7695
  546MOL0     H72017   6.528   7.373   5.765  0.7200 -0.4825 -0.2747
  546MOL0     H72018   6.594   7.230   5.862  1.4140  0.7346  0.9448
  546MOL0     H72019   6.384   7.104   5.829 -2.1716  0.5698  1.4917
  546MOL0     H72020   6.334   7.230   5.718  0.6662  2.9940 -0.2407
  546MOL0     H72021   6.395   7.279   6.014  0.3695  0.8619 -0.2091
  546MOL0     H72022   6.324   7.389   5.891  0.6785  1.0814 -0.6884
  546MOL0     H72023   6.191   7.121   5.956  0.6575  0.0533 -0.6690
  546MOL0     H72024   6.126   7.272   5.897 -0.9039  2.2265  1.0423
  546MOL0     H72025   6.153   7.085   6.213  0.5202 -0.5451 -0.1151
  546MOL0     H72026   5.851   7.291   6.398 -1.2587 -1.7136 -1.5171
  546MOL0     H72027   5.966   7.182   6.466  0.1719  0.8517  0.4788
  546MOL0     H72028   5.832   7.064   6.231  0.8024  1.1694  1.0992
  546MOL0     H72029   5.717   7.101   6.364 -0.7126 -1.4901  0.1513
  546MOL0     H72030   5.824   6.873   6.326 -0.6924 -0.4346 -1.9687
  546MOL0     H72031   5.980   6.949   6.379  0.4446  6.1573  3.0694
  546MOL0     H72032   5.878   6.970   6.610  0.6703 -0.1821  1.1218
  546MOL0     H72033   5.828   6.813   6.549 -0.9819  1.5241  4.0338
  546MOL0     H72034   5.418   7.029   6.601 -3.8213  1.0416  1.5773
  546MOL0     H72035   5.313   7.007   6.823 -0.8199 -0.5988  0.1155
  546MOL0     H72036   5.173   7.080   7.221  0.1641 -0.2880  1.1729
  546MOL0     H72037   5.078   7.035   7.450 -1.6030 -2.4994  2.0761
  546MOL0     H72038   4.966   6.938   7.646  0.3652 -0.1426  0.2070
  546MOL0     H72039   4.915   6.790   7.713 -1.9769  1.5114  0.3890
  546MOL0     H72040   4.835   6.713   7.485 -2.1030 -0.1171 -0.2266
  546MOL0     H72041   4.859   6.892   7.445  0.0966 -3.7384 -3.2862
  546MOL0     H72042   4.680   6.955   7.586  0.7548 -0.2676  1.3142
  546MOL0     H72043   4.689   6.809   7.672 -2.7445  2.0627 -0.1796
  546MOL0     H72044   4.574   6.828   7.394  1.5052 -0.7389 -0.7075
  546MOL0     H72045   4.629   6.673   7.454 -2.1281 -0.8566  1.3664
  546MOL0     H72046   4.446   6.848   7.617  0.4302  0.1648 -0.3423
  546MOL0     H72047   4.507   6.682   7.653  4.7840 -2.5698 -4.3331
  546MOL0     H72048   4.322   6.734   7.413 -1.4422 -1.7593 -0.2993
  546MOL0     H72049   4.264   6.701   7.568 -2.7848  2.2970 -4.5131
  546MOL0     H72050   4.486   6.525   7.438  1.6154  4.8519  1.6953
  546MOL0     H72051   4.374   6.500   7.582 -1.1491  1.2357  0.7628
  546MOL0     H72052   4.170   6.515   7.398  0.2031  0.3630 -0.1731
  546MOL0     H72053   4.269   6.361   7.409  0.9421 -0.6782 -3.1215
  546MOL0     H72054   5.218   6.635   7.432 -1.1796 -0.3176 -0.7275
  546MOL0     H72055   5.312   6.670   7.216 -0.3485  0.3631 -3.9634
  546MOL0     H72056   5.652   6.790   6.957  1.4801  2.8305  2.3429
  546MOL0     H72057   5.765   6.812   6.750 -1.5162 -0.9606  0.1200
  546MOL0     H72058   6.736   7.604   5.618  2.3505 -1.6727  0.6941
  546MOL0     H72059   6.909   7.780   5.590  0.4211  0.2524 -0.3303
  546MOL0     H72060   7.408   7.897   5.255  2.2440 -2.4737  2.7113
  546MOL0     H72061   7.575   8.084   5.335  0.6466  5.3074  2.4420
  546MOL0     H72062   7.378   8.376   5.625  0.1854 -1.0986  1.3910
  546MOL0     H72063   7.543   8.436   5.596  1.8012 -1.9383 -0.4611
  546MOL0     H72064   7.569   8.305   5.804 -3.0289  1.8492 -0.0493
  546MOL0     H72065   7.445   8.195   5.755  0.5589 -0.2670 -0.8349
  546MOL0     H72066   7.603   8.087   5.593 -3.0523  0.7581 -0.0598
  546MOL0     H72067   7.647   8.075   5.757 -0.0288  1.3796  0.4701
  546MOL0     H72068   7.760   8.323   5.602  2.4796  1.1931  1.2751
  546MOL0     H72069   7.823   8.254   5.751  0.2905 -1.2701  0.4108
  546MOL0     H72070   8.000   7.995   5.470 -2.1970 -1.9974  0.2116
  546MOL0     H72071   7.256   8.247   5.563  1.1524 -0.1744  1.7634
  546MOL0     H72072   7.117   8.066   5.503  2.2282  0.4454  3.8055
  547MOL0     O72073   7.955  10.240   7.090  0.0187 -0.0066 -0.8523
  547MOL0     C72074   7.980  10.339   7.157 -0.0749  0.0875 -0.1577
  547MOL0     O72075   7.888  10.433   7.194 -0.0067 -0.0237 -1.0881
  547MOL0     C72076   7.765  10.420   7.155  0.8567  0.0131  0.8997
  547MOL0     C72077   7.681  10.340   7.228 -0.2537 -0.6504  0.8370
  547MOL0     C72078   7.544  10.339   7.203 -0.0908 -0.2318  0.0897
  547MOL0     C72079   7.493  10.410   7.097  0.6510 -0.6309  0.5798
  547MOL0     O72080   7.355  10.397   7.078 -0.2446 -0.2063  0.0339
  547MOL0     C72081   7.314  10.373   6.946  0.2562 -0.1723  0.3557
  547MOL0     C72082   7.389  10.253   6.881 -0.5082  0.2090  0.7357
  547MOL0     C72083   7.350  10.117   6.935 -0.2178  0.5083 -0.4554
  547MOL0     C72084   7.420  10.003   6.856 -0.5867 -0.2993 -0.2935
  547MOL0     C72085   7.384   9.853   6.899  0.0725  0.1991 -0.3522
  547MOL0     C72086   7.408   9.829   7.052 -0.0735  0.2860  0.1382
  547MOL0     C72087   7.555   9.812   7.081  0.6540 -0.3759 -0.4643
  547MOL0     C72088   7.605   9.899   7.198  0.0989 -0.2706  0.3397
  547MOL0     N72089   7.540   9.868   7.322 -0.8377  0.4015 -0.0414
  547MOL0     C72090   7.559   9.753   7.402  0.4285  0.1342  0.0574
  547MOL0     C72091   7.477   9.767   7.506 -0.1271 -0.5578  0.6153
  547MOL0     C72092   7.473   9.673   7.627  1.2689  0.7156  0.7469
  547MOL0     C72093   7.424   9.534   7.588  0.0839  0.0359  1.2227
  547MOL0     C72094   7.272   9.534   7.581  0.3310 -0.0684  0.2063
  547MOL0     C72095   7.234   9.409   7.503 -0.1678  0.4524  0.4128
  547MOL0     O72096   7.276   9.416   7.365  0.0167  0.4690  0.0190
  547MOL0     C72097   7.195   9.473   7.280 -0.7647  0.5926  0.7150
  547MOL0     C72098   7.207   9.601   7.260  0.7404  0.1009 -0.6912
  547MOL0     C72099   7.120   9.675   7.176 -0.2528 -0.2671 -0.5852
  547MOL0     C72100   7.025   9.601   7.101  0.0610  0.1117  0.1931
  547MOL0     C72101   6.948   9.677   7.003  1.1311  0.8209  0.3603
  547MOL0     O72102   6.841   9.611   6.948  0.2184 -0.1693 -0.1468
  547MOL0     C72103   6.751   9.684   6.874 -0.8817 -0.1256  0.8575
  547MOL0     C72104   6.687   9.797   6.917 -0.1429  0.6670 -0.0808
  547MOL0     C72105   6.607   9.862   6.827  0.4302  0.1229  0.4083
  547MOL0     C72106   6.571   9.805   6.701  1.0777  0.1688 -1.2044
  547MOL0     O72107   6.484   9.870   6.611 -1.3042 -0.1814  0.2012
  547MOL0     C72108   6.484   9.841   6.473  0.6804  0.6316 -0.5929
  547MOL0     C72109   6.593   9.920   6.395  0.6897  0.3283 -0.5568
  547MOL0     C72110   6.603   9.857   6.258 -0.0672 -0.1788 -0.5177
  547MOL0     C72111   6.688   9.946   6.174 -0.2011  0.9003 -0.4095
  547MOL0     C72112   6.727   9.897   6.029 -0.6014  0.0951  0.1946
  547MOL0     C72113   6.606   9.906   5.923  0.3500 -0.0581  0.5179
  547MOL0     C72114   6.657   9.882   5.778 -0.1661 -0.1854  0.2329
  547MOL0     C72115   6.536   9.852   5.678 -0.4296  0.3894 -0.0580
  547MOL0    Cl72116   6.477   9.684   5.709 -0.3920 -0.0845  0.6406
  547MOL0     C72117   6.630   9.680   6.671  0.4700 -1.3490  0.9903
  547MOL0     C72118   6.726   9.627   6.748  0.4329  0.4998 -0.3277
  547MOL0     O72119   6.961   9.800   6.995 -0.2216 -0.0823  0.4557
  547MOL0     C72120   7.009   9.457   7.117  0.0319  0.3436  0.0002
  547MOL0     C72121   7.100   9.397   7.211  0.8283 -0.2197 -0.0619
  547MOL0     N72122   7.399   9.880   7.485 -0.4918  0.5033 -0.1199
  547MOL0     N72123   7.441   9.938   7.373  0.8098 -0.6926  0.1163
  547MOL0     C72124   7.579  10.492   7.017 -0.2331  0.6399  0.0296
  547MOL0     C72125   7.714  10.504   7.053  0.5464  0.4195 -0.1449
  547MOL0     C72126   8.125  10.354   7.199 -0.1463 -0.9690 -0.1320
  547MOL0     C72127   8.218  10.260   7.173 -0.7797  0.0422  0.4807
  547MOL0     C72128   8.352  10.283   7.208  0.2144 -0.3870  0.2012
  547MOL0     C72129   8.396  10.401   7.279  0.7931 -0.5160  0.3181
  547MOL0     O72130   8.527  10.438   7.303  0.1025  0.2161  0.1717
  547MOL0     C72131   8.639  10.373   7.226  0.5177  0.3289  0.4663
  547MOL0     C72132   8.767  10.418   7.283 -0.4977 -1.0377  0.0495
  547MOL0     C72133   8.776  10.567   7.289 -0.4261 -0.3424  0.6726
  547MOL0     C72134   8.911  10.616   7.358 -0.3288  0.6939  0.1280
  547MOL0     C72135   8.909  10.759   7.360  0.1450 -0.7786  1.0077
  547MOL0     C72136   8.891  10.883   7.372 -0.7010  1.4417 -0.4321
  547MOL0     C72137   8.306  10.484   7.325  0.2443  0.5364 -0.0379
  547MOL0     C72138   8.175  10.471   7.284 -0.2712 -0.1207  0.3173
  547MOL0     H72139   7.718  10.276   7.308 -1.9689 -1.7081  0.8528
  547MOL0     H72140   7.491  10.267   7.263 -0.5233 -0.6143 -0.7321
  547MOL0     H72141   7.329  10.467   6.893 -1.7114 -0.5212 -0.9191
  547MOL0     H72142   7.207  10.349   6.955  0.6087 -2.8471 -1.3714
  547MOL0     H72143   7.494  10.265   6.912 -0.6269 -0.8718  1.6284
  547MOL0     H72144   7.378  10.261   6.772 -0.6842 -3.3497  0.3767
  547MOL0     H72145   7.246  10.096   6.909  0.1078 -1.9771 -0.0742
  547MOL0     H72146   7.365  10.102   7.042  2.5380 -2.8668 -1.1118
  547MOL0     H72147   7.403  10.016   6.749 -1.2366 -1.1685 -0.3103
  547MOL0     H72148   7.527  10.017   6.878 -1.0837  0.4322  1.8268
  547MOL0     H72149   7.447   9.781   6.846  0.2994 -1.6079  2.1471
  547MOL0     H72150   7.277   9.843   6.880 -0.3505  2.8424  0.2215
  547MOL0     H72151   7.354   9.734   7.065 -0.5955  0.7515  1.5717
  547MOL0     H72152   7.339   9.891   7.110 -0.9680  0.0964 -0.6725
  547MOL0     H72153   7.573   9.709   7.113 -4.0984 -1.1669  0.3333
  547MOL0     H72154   7.610   9.822   6.987 -1.6235  0.1298 -1.8137
  547MOL0     H72155   7.588  10.005   7.176  4.0280  0.4336  0.0088
  547MOL0     H72156   7.712   9.890   7.219  0.3221  3.4660  1.4685
  547MOL0     H72157   7.643   9.688   7.384  2.0461  2.6860 -2.4066
  547MOL0     H72158   7.410   9.729   7.697  0.9675 -0.4157  1.4116
  547MOL0     H72159   7.568   9.658   7.678  2.7759 -0.4567 -2.1908
  547MOL0     H72160   7.471   9.463   7.656 -0.5008  2.2620  4.1713
  547MOL0     H72161   7.470   9.505   7.493  3.3206  1.4798  2.2063
  547MOL0     H72162   7.240   9.535   7.686  0.4018  1.8423  0.2483
  547MOL0     H72163   7.236   9.628   7.538  0.7731 -0.5925 -1.3429
  547MOL0     H72164   7.126   9.398   7.516 -0.5877  1.7074 -1.6804
  547MOL0     H72165   7.277   9.321   7.552  2.5646  2.1975  1.3868
  547MOL0     H72166   7.292   9.645   7.312  2.0129 -1.1209 -1.6518
  547MOL0     H72167   7.132   9.783   7.170  0.3496 -0.3408 -0.7979
  547MOL0     H72168   6.701   9.841   7.015 -0.3126 -0.6518  0.5556
  547MOL0     H72169   6.572   9.963   6.847 -3.1898 -1.2903  1.9602
  547MOL0     H72170   6.384   9.855   6.431  0.5401  0.0401 -0.4715
  547MOL0     H72171   6.509   9.736   6.457  3.2798  0.8787  1.1750
  547MOL0     H72172   6.683   9.901   6.454 -1.0789 -0.3714  2.0883
  547MOL0     H72173   6.564  10.023   6.371 -5.4755 -1.3825 -2.2737
  547MOL0     H72174   6.506   9.860   6.207  0.2324  3.5162 -1.1837
  547MOL0     H72175   6.646   9.757   6.263 -0.5513 -0.4046 -0.8832
  547MOL0     H72176   6.630  10.037   6.156 -4.6777 -1.5311  0.1440
  547MOL0     H72177   6.774   9.966   6.238 -1.1860 -1.1431  1.6931
  547MOL0     H72178   6.773   9.799   6.039 -1.0583 -0.2312 -0.7880
  547MOL0     H72179   6.808   9.964   5.999 -0.0579 -0.1973  0.9965
  547MOL0     H72180   6.542   9.992   5.942  3.2420  1.8811  2.2006
  547MOL0     H72181   6.534   9.824   5.936  0.3385 -0.3271 -1.0538
  547MOL0     H72182   6.709   9.977   5.761 -0.6201 -0.2257 -1.5567
  547MOL0     H72183   6.729   9.800   5.769 -2.4334 -2.0585 -2.7246
  547MOL0     H72184   6.565   9.854   5.572 -1.7630  0.1751 -0.4423
  547MOL0     H72185   6.456   9.926   5.692 -2.6852 -1.1696 -3.3820
  547MOL0     H72186   6.598   9.623   6.584 -0.7943  1.7732 -0.7666
  547MOL0     H72187   6.786   9.548   6.705 -1.3579 -1.2402  0.1818
  547MOL0     H72188   6.949   9.402   7.045 -1.1597  1.3280  0.2138
  547MOL0     H72189   7.086   9.291   7.233 -3.4353 -0.1992 -1.8121
  547MOL0     H72190   7.542  10.545   6.930  0.9003  2.1072  0.4063
  547MOL0     H72191   7.777  10.587   7.021 -1.8197  1.5437 -2.2715
  547MOL0     H72192   8.189  10.164   7.133  0.1228 -1.8430  3.9394
  547MOL0     H72193   8.426  10.213   7.170 -1.1034 -0.4671 -2.5009
  547MOL0     H72194   8.610  10.382   7.121 -0.4808 -1.2257  0.5758
  547MOL0     H72195   8.624  10.270   7.258  0.7273  0.8390  2.3930
  547MOL0     H72196   8.786  10.380   7.384 -3.7624 -0.0098  1.1681
  547MOL0     H72197   8.859  10.383   7.233 -2.4495 -3.9922 -1.8313
  547MOL0     H72198   8.686  10.607   7.336 -2.7115  0.9598 -4.0981
  547MOL0     H72199   8.763  10.613   7.190  0.2126 -2.1018 -0.2715
  547MOL0     H72200   8.909  10.579   7.461 -0.7411 -0.9135 -0.4204
  547MOL0     H72201   8.998  10.580   7.302  2.6598  3.4913  2.5964
  547MOL0     H72202   8.884  10.986   7.401 -0.0397  0.4307  3.9332
  547MOL0     H72203   8.333  10.554   7.403  0.0194 -1.0983  1.5818
  547MOL0     H72204   8.092  10.532   7.321 -0.0018 -0.8393  2.2462
  548MOL0     O72205   6.795   1.115   8.321 -0.0983  0.6234  0.8755
  548MOL0     C72206   6.695   1.165   8.371 -1.2420 -0.7910  0.3699
  548MOL0     O72207   6.612   1.101   8.456 -0.3601 -0.6740  0.1225
  548MOL0     C72208   6.623   0.968   8.493 -0.2744 -1.3642  0.2915
  548MOL0     C72209   6.503   0.940   8.564 -0.7011  0.7249 -0.2384
  548MOL0     C72210   6.497   0.825   8.637 -0.1568  0.7325  0.3691
  548MOL0     C72211   6.602   0.733   8.648  0.4331 -0.2046  0.2838
  548MOL0     O72212   6.588   0.618   8.726 -0.2501  0.0538 -0.2798
  548MOL0     C72213   6.681   0.511   8.697  0.3620 -0.1397  0.9357
  548MOL0     C72214   6.662   0.407   8.803  0.4606  0.1139 -0.2722
  548MOL0     C72215   6.566   0.300   8.762  0.0527 -0.3824  0.1850
  548MOL0     C72216   6.581   0.169   8.841  0.1979  1.4008  0.0660
  548MOL0     C72217   6.479   0.063   8.797 -0.1611 -0.4799  0.5733
  548MOL0     C72218   6.489  -0.072   8.874 -0.1548 -0.2774 -0.0999
  548MOL0     C72219   6.381  -0.161   8.817 -0.2955  0.3203  0.3190
  548MOL0     C72220   6.410  -0.311   8.823 -0.5983  0.4368  0.0150
  548MOL0     N72221   6.299  -0.388   8.752 -0.8453  0.1178  0.2022
  548MOL0     C72222   6.165  -0.404   8.797 -0.3301 -0.2589  0.1379
  548MOL0     C72223   6.111  -0.456   8.689 -0.6382  0.4739  0.1776
  548MOL0     C72224   5.981  -0.531   8.685  1.1733 -0.4379  0.1500
  548MOL0     C72225   5.882  -0.455   8.605  0.7133  0.1435 -0.4583
  548MOL0     C72226   5.931  -0.415   8.462  0.1284 -0.4405  0.6565
  548MOL0     C72227   5.821  -0.346   8.379  0.2836 -0.2413  0.0602
  548MOL0     O72228   5.827  -0.347   8.234  0.4077  0.6115 -0.0514
  548MOL0     C72229   5.806  -0.467   8.169 -0.8004 -0.4390 -1.1865
  548MOL0     C72230   5.759  -0.588   8.229  0.7406 -0.4110 -0.4940
  548MOL0     C72231   5.742  -0.697   8.142 -0.6252 -0.8196  0.2045
  548MOL0     C72232   5.765  -0.694   8.006  0.2540  0.0936  0.7509
  548MOL0     C72233   5.732  -0.812   7.925  0.2573 -0.5674  0.6451
  548MOL0     O72234   5.730  -0.937   7.997  0.2381 -0.5057 -0.2527
  548MOL0     C72235   5.717  -1.030   7.903  0.3464  0.3954 -0.1768
  548MOL0     C72236   5.599  -1.108   7.908 -0.2876 -0.4496 -0.9239
  548MOL0     C72237   5.587  -1.207   7.814  0.1682 -0.6992  0.0962
  548MOL0     C72238   5.680  -1.235   7.718 -0.0271  0.6770 -0.4249
  548MOL0     O72239   5.661  -1.330   7.616  0.9709 -0.3737 -0.0482
  548MOL0     C72240   5.685  -1.465   7.645 -0.0420  0.1022 -0.1936
  548MOL0     C72241   5.573  -1.524   7.735 -0.2051 -0.0983 -0.7497
  548MOL0     C72242   5.611  -1.519   7.893  1.0876  0.2319 -0.0918
  548MOL0     C72243   5.507  -1.589   7.990 -0.1098 -0.3954  0.5062
  548MOL0     C72244   5.392  -1.489   8.031  0.6597  0.0431  0.1403
  548MOL0     C72245   5.297  -1.536   8.144 -0.1258  0.9015 -0.4482
  548MOL0     C72246   5.227  -1.408   8.200  0.5692 -0.4819 -1.2522
  548MOL0     C72247   5.137  -1.433   8.311 -1.1647  0.1435 -0.9515
  548MOL0    Cl72248   5.001  -1.534   8.242  0.0710 -0.1562  0.3497
  548MOL0     C72249   5.800  -1.167   7.720  0.2046 -0.6199 -0.5933
  548MOL0     C72250   5.824  -1.072   7.811 -0.6624 -0.5903 -0.7007
  548MOL0     O72251   5.716  -0.794   7.808  0.0558  0.8528 -0.0787
  548MOL0     C72252   5.815  -0.573   7.954 -0.2852  0.3205 -0.5143
  548MOL0     C72253   5.845  -0.461   8.035 -0.2435  0.1129  0.0725
  548MOL0     N72254   6.211  -0.497   8.602 -0.5218 -0.3013 -0.4264
  548MOL0     N72255   6.328  -0.445   8.629 -0.0205  0.4736  0.6339
  548MOL0     C72256   6.710   0.762   8.562 -0.2577 -0.1358 -0.7329
  548MOL0     C72257   6.725   0.879   8.489 -0.1488  0.2158  0.0790
  548MOL0     C72258   6.675   1.309   8.355  0.1912 -0.5574  0.0183
  548MOL0     C72259   6.563   1.368   8.419 -0.5775 -0.5702 -0.8310
  548MOL0     C72260   6.537   1.504   8.408 -0.7325  0.2719  0.1385
  548MOL0     C72261   6.615   1.590   8.327  0.6568  0.1162 -0.0597
  548MOL0     O72262   6.586   1.724   8.335  0.3043 -0.8353 -1.1768
  548MOL0     C72263   6.605   1.810   8.219 -0.4175 -0.1058  0.3683
  548MOL0     C72264   6.622   1.960   8.252 -0.2729 -0.4925 -0.0601
  548MOL0     C72265   6.751   1.981   8.328 -0.1834  0.5853 -0.0533
  548MOL0     C72266   6.739   1.978   8.485  0.1378 -0.3737 -0.7718
  548MOL0     C72267   6.828   2.069   8.566 -1.0351  0.4144 -0.2517
  548MOL0     C72268   6.913   2.139   8.621 -1.2275 -0.8269 -0.2288
  548MOL0     C72269   6.729   1.530   8.267 -0.0725  0.4546 -0.8199
  548MOL0     C72270   6.761   1.397   8.282  0.3167 -0.0794 -0.2938
  548MOL0     H72271   6.431   1.019   8.550  0.4891  1.8139 -0.4679
  548MOL0     H72272   6.403   0.795   8.684 -1.1356  0.4102 -1.6580
  548MOL0     H72273   6.784   0.549   8.699  0.9528 -1.6541  0.5123
  548MOL0     H72274   6.666   0.480   8.594  0.2995  1.1551  0.5320
  548MOL0     H72275   6.623   0.447   8.897 -2.7755 -2.8373 -0.1593
  548MOL0     H72276   6.763   0.364   8.807 -0.1903 -1.4936 -0.6430
  548MOL0     H72277   6.582   0.261   8.661  0.4399 -1.0972  0.5156
  548MOL0     H72278   6.462   0.327   8.780  0.4406  2.7187 -1.4598
  548MOL0     H72279   6.679   0.125   8.820 -0.8223 -0.6489 -0.7672
  548MOL0     H72280   6.571   0.190   8.947  0.6068 -0.2518  0.4494
  548MOL0     H72281   6.499   0.048   8.690  1.6796  3.1419  0.2461
  548MOL0     H72282   6.377   0.103   8.804 -0.0664 -0.0294 -0.4299
  548MOL0     H72283   6.480  -0.049   8.981  4.0308 -0.1141  0.3775
  548MOL0     H72284   6.594  -0.101   8.860 -0.0533 -0.5814  1.1209
  548MOL0     H72285   6.286  -0.147   8.869  0.1486 -3.7390  2.6706
  548MOL0     H72286   6.374  -0.130   8.712  2.5400 -0.4609 -0.1784
  548MOL0     H72287   6.420  -0.337   8.928 -1.6660 -1.3343 -0.2626
  548MOL0     H72288   6.503  -0.314   8.766 -2.2261  0.1234 -2.8339
  548MOL0     H72289   6.121  -0.404   8.896 -3.7497  2.9442 -1.1789
  548MOL0     H72290   5.940  -0.538   8.786  0.3119 -2.3792 -0.2785
  548MOL0     H72291   5.982  -0.634   8.648 -4.2300  0.5864 -4.1884
  548MOL0     H72292   5.843  -0.368   8.659  1.7564 -0.5529  1.5476
  548MOL0     H72293   5.798  -0.524   8.602  1.5294 -1.3350  3.7948
  548MOL0     H72294   6.024  -0.357   8.458  0.9790 -1.8430 -0.9487
  548MOL0     H72295   5.962  -0.505   8.408 -0.4583  0.1336 -0.6979
  548MOL0     H72296   5.833  -0.240   8.402  1.6512 -0.3816  0.0719
  548MOL0     H72297   5.718  -0.374   8.403 -0.7319 -0.7383 -4.0235
  548MOL0     H72298   5.733  -0.596   8.334 -1.5422  1.1871 -0.8727
  548MOL0     H72299   5.701  -0.790   8.182  2.4418 -1.4292  2.2918
  548MOL0     H72300   5.528  -1.087   7.987  2.7898  2.2496  1.4267
  548MOL0     H72301   5.495  -1.264   7.811 -1.3613  1.4980  1.5705
  548MOL0     H72302   5.780  -1.479   7.696 -0.1216  0.6021  0.1014
  548MOL0     H72303   5.697  -1.523   7.553 -3.7557 -1.5278  0.1470
  548MOL0     H72304   5.559  -1.626   7.697 -2.8223 -1.1053  2.3620
  548MOL0     H72305   5.474  -1.482   7.718  0.1388  2.0014  1.7052
  548MOL0     H72306   5.643  -1.419   7.923  1.5194  0.0824 -0.0335
  548MOL0     H72307   5.696  -1.588   7.905 -0.4510 -1.3405  3.2823
  548MOL0     H72308   5.464  -1.681   7.948  1.2443 -0.9184  0.2321
  548MOL0     H72309   5.558  -1.616   8.083 -0.9821  1.2562  1.5361
  548MOL0     H72310   5.325  -1.466   7.947  4.5367  1.6588 -2.8334
  548MOL0     H72311   5.437  -1.394   8.061  0.3677 -0.2085  1.4441
  548MOL0     H72312   5.349  -1.585   8.227 -1.3252  1.1917  0.4988
  548MOL0     H72313   5.226  -1.608   8.105  2.5268 -2.3803  0.2807
  548MOL0     H72314   5.311  -1.351   8.239 -1.5584  2.0832 -0.1425
  548MOL0     H72315   5.185  -1.346   8.120  2.2615 -1.7869 -3.2688
  548MOL0     H72316   5.097  -1.343   8.361 -3.0915 -0.2929 -1.6150
  548MOL0     H72317   5.184  -1.498   8.385  0.3710  2.3195  0.0903
  548MOL0     H72318   5.869  -1.167   7.636  0.3783  2.8479 -0.5988
  548MOL0     H72319   5.913  -1.010   7.805  0.7579 -1.8807  3.2898
  548MOL0     H72320   5.819  -0.569   7.845 -0.5473  0.4047 -0.5215
  548MOL0     H72321   5.899  -0.386   7.977 -2.5785  0.9274 -1.1699
  548MOL0     H72322   6.779   0.683   8.532 -1.5343  0.2545 -5.6355
  548MOL0     H72323   6.820   0.897   8.440 -0.8758 -0.4061 -1.6330
  548MOL0     H72324   6.496   1.318   8.488 -0.7379 -0.5033 -0.9397
  548MOL0     H72325   6.469   1.563   8.469  0.9702  1.0403  1.3921
  548MOL0     H72326   6.515   1.801   8.158 -2.2248  2.0918  2.5118
  548MOL0     H72327   6.688   1.769   8.161 -0.6704  1.4754 -1.1751
  548MOL0     H72328   6.639   2.015   8.159  2.8707 -1.3466 -0.1113
  548MOL0     H72329   6.536   2.006   8.302 -3.2036 -2.4767 -2.8817
  548MOL0     H72330   6.784   2.082   8.307  0.8719  0.1882 -0.3492
  548MOL0     H72331   6.823   1.905   8.296  0.1880  2.3907 -4.0730
  548MOL0     H72332   6.640   2.010   8.520  1.0790 -1.1878  3.0555
  548MOL0     H72333   6.762   1.876   8.518  2.3084  0.5774  0.8682
  548MOL0     H72334   6.979   2.207   8.671  0.3305 -1.3573 -1.5061
  548MOL0     H72335   6.810   1.587   8.224  1.2226 -0.9839 -0.3539
  548MOL0     H72336   6.837   1.349   8.221  0.2536  0.4802 -0.8229
  549MOL0     O72337  10.009   2.373   4.904  0.4024  0.6122  0.1051
  549MOL0     C72338  10.001   2.275   4.834 -0.4555  0.8923  0.1315
  549MOL0     O72339   9.905   2.251   4.734 -0.2282 -0.2584 -0.5807
  549MOL0     C72340   9.832   2.358   4.682 -0.7260  0.2133  0.3400
  549MOL0     C72341   9.774   2.463   4.756  0.2155  0.1321 -0.6660
  549MOL0     C72342   9.707   2.568   4.693 -0.0126  0.1013 -0.8221
  549MOL0     C72343   9.683   2.555   4.559 -0.9596  0.4359  0.3947
  549MOL0     O72344   9.614   2.653   4.492  0.1126  0.7389  0.0788
  549MOL0     C72345   9.473   2.618   4.493  0.3552 -0.7937 -0.2423
  549MOL0     C72346   9.380   2.739   4.494 -1.4017  0.8410 -0.4077
  549MOL0     C72347   9.349   2.817   4.365 -0.2759  0.2800 -0.0043
  549MOL0     C72348   9.313   2.731   4.232  0.2878 -1.2496 -0.1317
  549MOL0     C72349   9.226   2.815   4.127 -0.2419  0.0468  0.5077
  549MOL0     C72350   9.277   2.947   4.090  1.0059  0.6203  0.2343
  549MOL0     C72351   9.203   3.013   3.978 -0.0379  0.1640  0.2327
  549MOL0     C72352   9.220   2.965   3.830  0.1152 -0.2135 -0.7625
  549MOL0     N72353   9.361   2.923   3.805  0.8019 -0.2939  0.4589
  549MOL0     C72354   9.414   2.802   3.828  0.1097  0.5922 -0.2091
  549MOL0     C72355   9.546   2.806   3.791  0.1413  0.4095  0.1457
  549MOL0     C72356   9.649   2.697   3.826 -0.0044 -0.6058 -0.0075
  549MOL0     C72357   9.744   2.744   3.941 -0.1894  0.0479  0.9228
  549MOL0     C72358   9.824   2.617   3.994 -1.2375 -0.2289 -1.0118
  549MOL0     C72359   9.951   2.662   4.071  0.5592  0.0505 -0.6518
  549MOL0     O72360   9.912   2.708   4.202 -0.4084  0.3590 -0.2090
  549MOL0     C72361  10.011   2.770   4.283  0.5010  1.2086  0.4073
  549MOL0     C72362  10.136   2.801   4.233  0.6299 -0.0787  0.0240
  549MOL0     C72363  10.244   2.821   4.323 -0.0926  0.6381 -0.0879
  549MOL0     C72364  10.216   2.838   4.464 -0.4359  0.2875 -0.8271
  549MOL0     C72365  10.325   2.889   4.550  0.1489 -0.0429 -0.2004
  549MOL0     O72366  10.445   2.846   4.515  1.0344 -0.0681 -0.1980
  549MOL0     C72367  10.553   2.901   4.567 -0.5942 -0.5762 -0.8145
  549MOL0     C72368  10.646   2.833   4.651 -0.6469 -0.4025 -0.4352
  549MOL0     C72369  10.768   2.896   4.671  0.5881  0.0338 -0.2287
  549MOL0     C72370  10.789   3.027   4.643 -0.7524  0.4936  0.6691
  549MOL0     O72371  10.908   3.079   4.686 -0.1174 -0.9116  0.2092
  549MOL0     C72372  10.977   3.164   4.591 -0.2995  0.5168  0.7308
  549MOL0     C72373  11.124   3.122   4.574 -0.0302  0.3125  0.0287
  549MOL0     C72374  11.193   3.218   4.472 -0.7438  0.2307 -0.0922
  549MOL0     C72375  11.350   3.213   4.484 -0.3370 -0.5058  0.4464
  549MOL0     C72376  11.415   3.286   4.363 -0.6125 -0.3162 -0.6021
  549MOL0     C72377  11.420   3.436   4.401 -0.3047  0.5381 -0.2341
  549MOL0     C72378  11.463   3.525   4.278  0.0496  0.3121  0.1031
  549MOL0     C72379  11.431   3.666   4.297  0.0356  0.7331  0.0487
  549MOL0    Cl72380  11.498   3.773   4.163  0.0155 -0.6027  0.2563
  549MOL0     C72381  10.699   3.089   4.566 -0.3905  0.3613 -0.2670
  549MOL0     C72382  10.582   3.026   4.520  0.3743 -0.7570  0.0269
  549MOL0     O72383  10.291   2.953   4.646 -0.3824  0.1090 -0.5701
  549MOL0     C72384  10.081   2.822   4.502  1.3120 -0.8176 -0.2571
  549MOL0     C72385   9.980   2.789   4.414  0.3210  0.4601 -1.2560
  549MOL0     N72386   9.561   2.938   3.742  0.1431 -0.3467 -0.6621
  549MOL0     N72387   9.451   3.006   3.759 -0.0658 -0.3750 -0.1257
  549MOL0     C72388   9.764   2.462   4.483 -0.6786  0.4075 -0.3972
  549MOL0     C72389   9.821   2.353   4.545  0.1466  0.8620  0.1018
  549MOL0     C72390  10.111   2.173   4.858 -0.9743  0.1516  0.1778
  549MOL0     C72391  10.072   2.045   4.833  0.1576 -0.1512  0.7410
  549MOL0     C72392  10.156   1.939   4.873  0.0485  0.0669 -0.4010
  549MOL0     C72393  10.287   1.967   4.920  0.3191  0.2169  0.2237
  549MOL0     O72394  10.368   1.860   4.961  0.2295 -0.0848  0.3113
  549MOL0     C72395  10.511   1.863   4.960  0.4680  0.8012 -0.1713
  549MOL0     C72396  10.571   1.905   5.094 -0.6316 -0.4714 -0.4494
  549MOL0     C72397  10.729   1.904   5.089 -0.7684  0.1282 -0.2460
  549MOL0     C72398  10.800   1.930   5.219  0.0014 -0.6059 -0.1339
  549MOL0     C72399  10.790   1.808   5.302  0.2767 -0.2270  0.2584
  549MOL0     C72400  10.786   1.704   5.376  0.1540  1.3232 -0.3686
  549MOL0     C72401  10.330   2.096   4.927 -0.6876 -0.1224 -0.0437
  549MOL0     C72402  10.243   2.197   4.907  0.0847 -0.7919 -0.3860
  549MOL0     H72403   9.791   2.451   4.863  0.3623  3.0748 -0.2935
  549MOL0     H72404   9.657   2.636   4.761 -0.5670 -1.4362  0.3703
  549MOL0     H72405   9.435   2.565   4.581 -1.2308  1.0385  0.2379
  549MOL0     H72406   9.454   2.555   4.405  5.8934 -1.7858 -1.0793
  549MOL0     H72407   9.418   2.809   4.568  1.2875  1.6180 -2.3562
  549MOL0     H72408   9.285   2.703   4.536 -1.6992  1.1939 -0.7761
  549MOL0     H72409   9.437   2.879   4.345  0.5435 -0.6308  0.6575
  549MOL0     H72410   9.262   2.878   4.394 -0.2601  0.9350 -1.2332
  549MOL0     H72411   9.401   2.690   4.182  0.8412 -0.5263  0.2356
  549MOL0     H72412   9.247   2.649   4.264  1.2745 -2.4630 -1.0886
  549MOL0     H72413   9.126   2.833   4.168 -0.0416 -1.7845  1.9398
  549MOL0     H72414   9.210   2.748   4.043  0.8913 -0.7035  0.8641
  549MOL0     H72415   9.385   2.942   4.074  1.7683  2.4119  3.8118
  549MOL0     H72416   9.256   3.003   4.182 -2.7336 -2.4201  1.5011
  549MOL0     H72417   9.096   3.022   4.000 -0.1277  1.7823 -0.7089
  549MOL0     H72418   9.239   3.116   3.986 -1.1728  0.4487  3.8200
  549MOL0     H72419   9.196   3.044   3.758  2.2143  2.5461  1.3094
  549MOL0     H72420   9.161   2.875   3.815 -1.8816  0.2580  3.1292
  549MOL0     H72421   9.366   2.714   3.868  1.5761 -0.6057 -0.9780
  549MOL0     H72422   9.708   2.688   3.734  1.5687  3.5844  0.3837
  549MOL0     H72423   9.585   2.613   3.856 -2.5854  1.2962  0.1637
  549MOL0     H72424   9.694   2.802   4.020  2.5100  2.8271  0.7688
  549MOL0     H72425   9.817   2.806   3.890  1.8365 -1.3912  1.9199
  549MOL0     H72426   9.767   2.549   4.058 -2.7464 -1.1091 -3.1698
  549MOL0     H72427   9.857   2.554   3.911 -1.0446 -2.0668  0.3910
  549MOL0     H72428  10.002   2.742   4.017 -1.4095  2.4343  0.7703
  549MOL0     H72429  10.018   2.576   4.074  0.6169  0.1143  0.4142
  549MOL0     H72430  10.171   2.808   4.131 -0.5144 -1.4117 -0.5040
  549MOL0     H72431  10.346   2.845   4.294 -0.2048  0.5741 -0.5388
  549MOL0     H72432  10.625   2.735   4.692  1.2241 -0.5568  0.2396
  549MOL0     H72433  10.851   2.848   4.721 -1.0362 -2.0230  0.6648
  549MOL0     H72434  10.968   3.268   4.625 -1.2123  0.1209  1.7518
  549MOL0     H72435  10.933   3.144   4.493  0.1321 -1.7193  0.9580
  549MOL0     H72436  11.140   3.015   4.553  0.6342 -0.1082  2.4303
  549MOL0     H72437  11.169   3.155   4.668  0.4946  2.3438 -0.8832
  549MOL0     H72438  11.153   3.313   4.510 -1.0331 -0.2796  0.8973
  549MOL0     H72439  11.159   3.197   4.370 -0.4959 -2.8398  0.3646
  549MOL0     H72440  11.381   3.249   4.582 -3.0418 -0.6308  1.4391
  549MOL0     H72441  11.387   3.110   4.477  3.8144  0.8763 -1.8075
  549MOL0     H72442  11.359   3.267   4.271  0.3449  0.2986 -1.3370
  549MOL0     H72443  11.519   3.253   4.353 -0.1870  1.0870 -0.9674
  549MOL0     H72444  11.486   3.437   4.489 -1.8319  3.5386  1.0331
  549MOL0     H72445  11.316   3.464   4.422 -1.3504 -1.2052 -2.6614
  549MOL0     H72446  11.568   3.502   4.260 -0.0909 -0.0759 -0.2298
  549MOL0     H72447  11.409   3.488   4.190 -0.8820 -0.9263  1.1407
  549MOL0     H72448  11.477   3.699   4.390  1.6351  1.3671 -0.9295
  549MOL0     H72449  11.323   3.656   4.310  0.2227  0.5744  1.6591
  549MOL0     H72450  10.726   3.194   4.553  0.0521  0.2130 -0.5835
  549MOL0     H72451  10.511   3.077   4.457  1.4791  0.8286 -0.0116
  549MOL0     H72452  10.042   2.832   4.603 -5.0589  0.1291 -2.3127
  549MOL0     H72453   9.881   2.762   4.449  0.5816  0.7950 -0.2208
  549MOL0     H72454   9.771   2.478   4.376  3.0806  1.6587 -0.1200
  549MOL0     H72455   9.870   2.273   4.491  1.5323 -0.3529  2.9608
  549MOL0     H72456   9.971   2.024   4.799  0.4994 -2.0629  0.7872
  549MOL0     H72457  10.129   1.835   4.857 -1.3428  0.8575 -4.2339
  549MOL0     H72458  10.549   1.932   4.884  1.5170 -1.3943 -1.7687
  549MOL0     H72459  10.554   1.765   4.940  1.3836  1.5248 -1.9591
  549MOL0     H72460  10.533   2.004   5.120  1.2957  0.8416 -2.3358
  549MOL0     H72461  10.541   1.840   5.177 -0.4697 -3.1217 -2.3432
  549MOL0     H72462  10.771   1.983   5.027 -2.6192  1.0290 -0.4261
  549MOL0     H72463  10.770   1.805   5.064  1.1205 -0.0948  3.1063
  549MOL0     H72464  10.904   1.963   5.212 -0.4489  1.1723  0.9579
  549MOL0     H72465  10.748   2.011   5.270  1.3415  0.0959  0.1577
  549MOL0     H72466  10.771   1.616   5.434 -0.1030  0.8721 -1.0967
  549MOL0     H72467  10.423   2.125   4.974 -0.9246  0.3514  0.1391
  549MOL0     H72468  10.268   2.300   4.932 -2.6089  0.4190 -2.2260
  550MOL0     O72469   1.455   2.515   5.409  0.2659  0.7418 -0.1000
  550MOL0     C72470   1.353   2.523   5.476 -0.4843  0.2475 -0.5384
  550MOL0     O72471   1.311   2.621   5.554  0.3869 -0.1104 -1.1018
  550MOL0     C72472   1.398   2.726   5.566 -1.1730 -0.3390 -1.2638
  550MOL0     C72473   1.537   2.697   5.597  0.2513 -0.4422 -0.2735
  550MOL0     C72474   1.635   2.798   5.608  0.2118  0.0950  0.7956
  550MOL0     C72475   1.597   2.932   5.608  0.1218  0.0429 -0.8764
  550MOL0     O72476   1.684   3.033   5.628 -0.1487 -0.2855  0.1868
  550MOL0     C72477   1.805   3.003   5.700 -0.6448 -0.3653 -0.0989
  550MOL0     C72478   1.893   3.118   5.758  0.0269 -0.3681  0.1667
  550MOL0     C72479   1.931   3.213   5.644 -0.9317  0.6223  0.6583
  550MOL0     C72480   2.054   3.307   5.655 -0.2335 -0.0227 -0.2297
  550MOL0     C72481   2.120   3.318   5.520 -0.4195  0.0163 -0.3597
  550MOL0     C72482   2.215   3.435   5.512 -0.3274  0.7873  0.5232
  550MOL0     C72483   2.259   3.453   5.362 -1.2875 -0.0556  0.1018
  550MOL0     C72484   2.396   3.385   5.327  0.4516  0.6454 -0.9127
  550MOL0     N72485   2.420   3.376   5.180  1.2971  0.2234 -0.3195
  550MOL0     C72486   2.476   3.469   5.099 -0.6862  0.4759  0.2164
  550MOL0     C72487   2.476   3.416   4.972 -0.8435 -0.6119 -0.5972
  550MOL0     C72488   2.528   3.478   4.846  1.1691 -0.4795 -0.4321
  550MOL0     C72489   2.678   3.498   4.838 -0.1422 -0.6408 -0.6447
  550MOL0     C72490   2.727   3.622   4.757  0.7897  0.2998 -0.5667
  550MOL0     C72491   2.875   3.619   4.732 -0.0106  0.1230  0.2422
  550MOL0     O72492   2.935   3.629   4.865 -0.2649 -0.3493 -0.3798
  550MOL0     C72493   3.073   3.618   4.875  0.6540 -1.1154  0.5974
  550MOL0     C72494   3.130   3.643   5.002 -0.0469 -0.4608  0.4945
  550MOL0     C72495   3.267   3.645   5.025 -0.0432  0.1867  0.2937
  550MOL0     C72496   3.354   3.604   4.915  0.3786 -0.0461  0.3907
  550MOL0     C72497   3.497   3.586   4.933 -0.3239  0.8915 -0.2604
  550MOL0     O72498   3.558   3.518   4.836 -0.1114  0.0199  0.0805
  550MOL0     C72499   3.696   3.497   4.831  0.0010  0.4066 -0.5894
  550MOL0     C72500   3.754   3.493   4.705  0.8682 -0.4111 -0.5208
  550MOL0     C72501   3.891   3.506   4.689 -0.3118  0.3653  0.4813
  550MOL0     C72502   3.978   3.500   4.803  0.2606  0.4451 -0.2427
  550MOL0     O72503   4.114   3.491   4.787 -0.4099  0.2265  0.9630
  550MOL0     C72504   4.165   3.459   4.653 -0.0239 -0.0531  0.1688
  550MOL0     C72505   4.320   3.451   4.655  0.0507 -1.0584 -0.2306
  550MOL0     C72506   4.381   3.373   4.541  0.2956  0.3813 -0.4051
  550MOL0     C72507   4.527   3.427   4.525 -0.3865 -0.5508  0.0774
  550MOL0     C72508   4.600   3.344   4.413  1.0831 -0.0678  0.2884
  550MOL0     C72509   4.752   3.351   4.423 -0.8731  0.5167  0.3128
  550MOL0     C72510   4.808   3.248   4.320  0.3083  0.6069 -0.3788
  550MOL0     C72511   4.943   3.282   4.275 -0.3947  0.8818 -0.5089
  550MOL0    Cl72512   5.052   3.245   4.399 -0.0733 -0.1540  0.1746
  550MOL0     C72513   3.920   3.479   4.933 -0.5331 -0.0924  0.6977
  550MOL0     C72514   3.783   3.480   4.944  0.7028 -0.2725 -0.4549
  550MOL0     O72515   3.548   3.643   5.030  0.5897  0.2320 -0.4143
  550MOL0     C72516   3.290   3.557   4.801  0.1972 -0.0702 -0.5481
  550MOL0     C72517   3.154   3.567   4.780 -0.2215 -0.9342  0.2501
  550MOL0     N72518   2.403   3.301   4.981  0.6014  0.4043 -0.5387
  550MOL0     N72519   2.360   3.281   5.101 -0.3552  0.8653 -0.0847
  550MOL0     C72520   1.459   2.961   5.591  0.2675 -0.3095 -0.6140
  550MOL0     C72521   1.361   2.861   5.570  0.4086 -1.1724 -1.0527
  550MOL0     C72522   1.232   2.437   5.438 -0.3982 -0.5465 -0.1505
  550MOL0     C72523   1.101   2.449   5.497 -0.0484 -0.2918 -0.6381
  550MOL0     C72524   0.995   2.371   5.442 -0.6206  0.6210 -0.5804
  550MOL0     C72525   1.013   2.278   5.336  0.5857 -0.5226  0.0722
  550MOL0     O72526   0.903   2.203   5.304 -0.1270  0.1392 -0.2080
  550MOL0     C72527   0.932   2.074   5.235  0.0874 -0.2971  0.5165
  550MOL0     C72528   0.827   1.973   5.251  0.1546  0.4620 -0.8404
  550MOL0     C72529   0.679   2.006   5.274  0.2736 -0.5674 -0.2259
  550MOL0     C72530   0.644   2.026   5.416  0.1003 -1.2960 -0.0699
  550MOL0     C72531   0.507   2.057   5.452 -0.2949  1.0519  0.1934
  550MOL0     C72532   0.395   2.068   5.476  0.7126 -0.2949 -0.7995
  550MOL0     C72533   1.133   2.279   5.273  0.3178 -0.0296 -0.6562
  550MOL0     C72534   1.244   2.348   5.327  0.0468 -0.3902 -0.1725
  550MOL0     H72535   1.585   2.600   5.609 -0.2604 -0.4314  2.4878
  550MOL0     H72536   1.735   2.770   5.640  0.7337  2.3344  1.2858
  550MOL0     H72537   1.861   2.946   5.626 -0.2855  1.8835 -1.6602
  550MOL0     H72538   1.777   2.933   5.780 -0.9219 -0.9976 -0.7363
  550MOL0     H72539   1.987   3.077   5.799 -1.1645 -1.4836  1.9525
  550MOL0     H72540   1.838   3.169   5.838 -2.3007 -1.5293 -0.6223
  550MOL0     H72541   1.845   3.278   5.628 -2.5302 -0.6539  3.2790
  550MOL0     H72542   1.951   3.158   5.552 -0.3734  2.3874 -0.2949
  550MOL0     H72543   2.005   3.401   5.684 -0.9427 -0.5945  0.4842
  550MOL0     H72544   2.124   3.290   5.737 -0.0974  2.7848  0.3471
  550MOL0     H72545   2.045   3.336   5.442  0.4543  0.7877 -1.0511
  550MOL0     H72546   2.176   3.224   5.518 -0.8069 -0.2870  1.3202
  550MOL0     H72547   2.289   3.422   5.591 -0.1257 -1.7813  0.0060
  550MOL0     H72548   2.155   3.520   5.546  0.0825  1.4313 -0.3326
  550MOL0     H72549   2.178   3.416   5.299 -1.9660 -0.1497  1.0050
  550MOL0     H72550   2.285   3.558   5.347 -0.7752 -0.0054  1.2476
  550MOL0     H72551   2.396   3.283   5.368  1.5379  0.4544 -1.3498
  550MOL0     H72552   2.480   3.439   5.372  1.7641  1.0931 -3.7224
  550MOL0     H72553   2.512   3.570   5.117  0.5245  0.2036 -0.5531
  550MOL0     H72554   2.480   3.575   4.835  0.6495 -0.6676  0.1174
  550MOL0     H72555   2.490   3.421   4.760  1.0118 -1.2495  0.1352
  550MOL0     H72556   2.719   3.411   4.787  1.7937  0.9224 -1.8906
  550MOL0     H72557   2.712   3.504   4.942  0.5890 -1.0712 -0.8550
  550MOL0     H72558   2.676   3.617   4.661  0.9125 -1.4088 -0.5694
  550MOL0     H72559   2.700   3.717   4.804 -0.5615 -1.7781  3.3267
  550MOL0     H72560   2.900   3.715   4.685  0.0204  1.8922  3.5617
  550MOL0     H72561   2.887   3.528   4.674 -1.5683 -0.6321  1.0255
  550MOL0     H72562   3.061   3.687   5.073  0.4323  1.1269  0.0166
  550MOL0     H72563   3.299   3.684   5.121 -3.4163  2.1249  0.7928
  550MOL0     H72564   3.694   3.501   4.615  1.3858 -1.1872 -0.9478
  550MOL0     H72565   3.939   3.510   4.592  1.1564 -1.8174  1.0441
  550MOL0     H72566   4.150   3.543   4.585 -0.2014  0.2811  0.6157
  550MOL0     H72567   4.118   3.369   4.614  0.4338 -0.3413  0.2754
  550MOL0     H72568   4.346   3.398   4.747  2.4094  1.6966  0.8550
  550MOL0     H72569   4.361   3.552   4.655 -1.8564 -0.1968  1.9085
  550MOL0     H72570   4.322   3.393   4.452 -0.3909 -2.2672 -0.6347
  550MOL0     H72571   4.381   3.268   4.574  3.9801  0.9149  1.9008
  550MOL0     H72572   4.534   3.536   4.513 -0.6013 -0.5934 -0.4567
  550MOL0     H72573   4.587   3.409   4.615  1.1469  1.7679 -0.3927
  550MOL0     H72574   4.566   3.373   4.313  3.9484 -0.9098 -1.0296
  550MOL0     H72575   4.563   3.242   4.424 -0.2350  0.5726  2.3052
  550MOL0     H72576   4.774   3.332   4.528 -0.3002 -1.4219 -0.1068
  550MOL0     H72577   4.795   3.450   4.409  0.9705 -0.2696  0.1454
  550MOL0     H72578   4.806   3.147   4.361 -3.2464 -0.2810 -2.3166
  550MOL0     H72579   4.736   3.246   4.238  2.2650 -0.9340 -2.2002
  550MOL0     H72580   4.946   3.388   4.249 -0.8299  1.3634  1.2437
  550MOL0     H72581   4.967   3.211   4.196 -1.7071 -1.2190  0.8588
  550MOL0     H72582   3.970   3.468   5.029  0.2395 -1.8537  0.1337
  550MOL0     H72583   3.745   3.443   5.039  2.5104 -1.6191 -0.2002
  550MOL0     H72584   3.353   3.519   4.721  0.4289  0.0695 -0.4308
  550MOL0     H72585   3.107   3.538   4.686 -0.7088 -0.7731  0.4400
  550MOL0     H72586   1.425   3.064   5.583  1.7256  0.2989  0.5563
  550MOL0     H72587   1.262   2.902   5.550  1.5372  1.8965 -0.7900
  550MOL0     H72588   1.082   2.522   5.575  0.7649  4.5495 -4.4901
  550MOL0     H72589   0.907   2.393   5.502  1.0092 -1.0770  2.7158
  550MOL0     H72590   1.031   2.029   5.247  0.4679  0.5694  0.6898
  550MOL0     H72591   0.932   2.098   5.128  0.1128  1.1750  0.8273
  550MOL0     H72592   0.828   1.926   5.152 -2.3083  2.1889 -1.7736
  550MOL0     H72593   0.862   1.899   5.324 -1.0658  1.0006  0.3202
  550MOL0     H72594   0.621   1.921   5.235  2.1548 -2.4817  0.9062
  550MOL0     H72595   0.652   2.099   5.223  0.9389  1.6967  3.2222
  550MOL0     H72596   0.666   1.931   5.464  1.7341  0.8097  3.8382
  550MOL0     H72597   0.717   2.104   5.442  0.8384 -1.7306 -0.7893
  550MOL0     H72598   0.293   2.101   5.476  0.2304 -0.9047 -5.9476
  550MOL0     H72599   1.135   2.208   5.191  0.1411  0.0823 -0.7586
  550MOL0     H72600   1.336   2.340   5.270  0.6432  3.0265  0.1014
  551MOL0     O72601   0.698   3.279   0.325  0.1064  0.3371 -0.6742
  551MOL0     C72602   0.587   3.337   0.312  0.5852 -0.7366 -0.0718
  551MOL0     O72603   0.462   3.274   0.312  0.5436 -0.5770 -0.1811
  551MOL0     C72604   0.462   3.152   0.361  0.2099  0.8022  0.1327
  551MOL0     C72605   0.396   3.129   0.476  0.0084  0.0462 -0.9207
  551MOL0     C72606   0.392   2.998   0.532 -0.5644  0.2701 -0.1703
  551MOL0     C72607   0.457   2.884   0.470 -0.7013  0.5913 -1.1871
  551MOL0     O72608   0.463   2.755   0.526 -0.6058 -0.1444 -0.1021
  551MOL0     C72609   0.383   2.730   0.646 -0.3004  0.0034  0.1189
  551MOL0     C72610   0.398   2.575   0.666 -0.6118  0.5401 -0.0341
  551MOL0     C72611   0.296   2.499   0.575  0.4684  0.5069 -0.1904
  551MOL0     C72612   0.154   2.489   0.638  0.5529 -0.6839  0.1905
  551MOL0     C72613   0.060   2.405   0.556 -0.7753 -0.0702 -0.0882
  551MOL0     C72614   0.000   2.489   0.444 -0.2106 -0.3204  0.0778
  551MOL0     C72615  -0.113   2.588   0.491 -0.0327 -0.4258  0.7276
  551MOL0     C72616  -0.244   2.511   0.475  1.0830 -0.4954 -0.0816
  551MOL0     N72617  -0.359   2.538   0.560  0.1790  0.5292 -1.1862
  551MOL0     C72618  -0.462   2.626   0.537  0.8977 -0.4068  0.9381
  551MOL0     C72619  -0.542   2.623   0.640  0.4512 -0.9306 -0.3971
  551MOL0     C72620  -0.671   2.685   0.668 -0.2199 -0.6224 -0.6405
  551MOL0     C72621  -0.784   2.587   0.652 -0.5565  0.2049  0.4242
  551MOL0     C72622  -0.830   2.564   0.505 -0.1061 -0.5129  0.7251
  551MOL0     C72623  -0.980   2.515   0.489 -0.3865 -0.3394 -0.7472
  551MOL0     O72624  -1.067   2.619   0.547 -0.0351 -0.4280 -0.4055
  551MOL0     C72625  -1.187   2.565   0.561  0.2019  0.5037  0.3982
  551MOL0     C72626  -1.272   2.509   0.459 -0.0097  0.3935  0.3274
  551MOL0     C72627  -1.397   2.466   0.484 -0.8858  0.3121 -0.0959
  551MOL0     C72628  -1.451   2.474   0.611  0.2331  0.4842 -0.6842
  551MOL0     C72629  -1.599   2.444   0.636 -0.9463  0.2451  0.0588
  551MOL0     O72630  -1.679   2.393   0.538 -0.1993  0.2305 -0.7684
  551MOL0     C72631  -1.811   2.339   0.567  0.0067 -0.0167 -1.5977
  551MOL0     C72632  -1.917   2.403   0.500 -0.1404 -0.3790  0.1470
  551MOL0     C72633  -2.039   2.337   0.501 -1.0085 -0.5997  0.6139
  551MOL0     C72634  -2.059   2.219   0.572 -0.2186  0.2628 -0.5534
  551MOL0     O72635  -2.180   2.150   0.579 -0.4422  0.3784 -0.6746
  551MOL0     C72636  -2.297   2.195   0.506 -0.1189  0.4931  1.3801
  551MOL0     C72637  -2.420   2.106   0.498 -0.3076  0.3601  0.3333
  551MOL0     C72638  -2.467   2.057   0.641  0.3434 -0.6586 -0.0239
  551MOL0     C72639  -2.609   1.996   0.636 -0.1687  1.0080 -0.7248
  551MOL0     C72640  -2.616   1.894   0.513 -0.2619  0.5254 -0.2587
  551MOL0     C72641  -2.697   1.763   0.530  0.4277  0.0882  0.5525
  551MOL0     C72642  -2.840   1.777   0.591  0.4441 -0.0016 -0.2156
  551MOL0     C72643  -2.888   1.643   0.642 -1.2273 -0.2013  0.0495
  551MOL0    Cl72644  -2.780   1.580   0.771  0.3490 -0.2622  0.4156
  551MOL0     C72645  -1.953   2.163   0.644 -0.1366 -0.4293 -1.0997
  551MOL0     C72646  -1.828   2.224   0.646 -0.4973 -0.7625  0.2785
  551MOL0     O72647  -1.631   2.453   0.750 -0.6107 -0.5110  0.1130
  551MOL0     C72648  -1.365   2.510   0.708 -0.6771 -0.6556 -0.7623
  551MOL0     C72649  -1.245   2.570   0.686 -0.8244 -0.1524  0.3580
  551MOL0     N72650  -0.496   2.534   0.735 -0.4099 -0.2834 -0.2046
  551MOL0     N72651  -0.385   2.491   0.686  0.4694 -0.6219 -0.5633
  551MOL0     C72652   0.528   2.910   0.353  1.0078 -0.1828  0.4563
  551MOL0     C72653   0.527   3.039   0.298 -0.4070 -0.4231  0.0548
  551MOL0     C72654   0.582   3.484   0.292 -0.4153  0.2673  0.5345
  551MOL0     C72655   0.472   3.554   0.243  0.5779 -0.2580 -0.0866
  551MOL0     C72656   0.462   3.695   0.230 -0.7432 -0.6580 -0.1314
  551MOL0     C72657   0.576   3.770   0.240  0.0794  0.9392  0.2794
  551MOL0     O72658   0.580   3.905   0.225  0.2300  0.6913 -0.1741
  551MOL0     C72659   0.644   3.955   0.108  0.1506 -0.2921  0.6006
  551MOL0     C72660   0.543   4.082   0.075 -0.1455  0.3842  0.4934
  551MOL0     C72661   0.533   4.134  -0.079 -0.4990 -0.1305 -0.4709
  551MOL0     C72662   0.433   4.043  -0.158 -0.6645  0.3908  0.5349
  551MOL0     C72663   0.298   4.091  -0.149  0.8517 -0.2849 -0.4116
  551MOL0     C72664   0.180   4.121  -0.116  0.3397  0.5795  0.6633
  551MOL0     C72665   0.691   3.708   0.281  0.1207  0.9908  0.8112
  551MOL0     C72666   0.690   3.568   0.312 -0.0435  0.2278 -0.0164
  551MOL0     H72667   0.351   3.198   0.547  0.5490  0.1610 -0.6873
  551MOL0     H72668   0.344   2.969   0.625 -3.0164 -2.1729 -2.0195
  551MOL0     H72669   0.275   2.739   0.633 -0.2926 -0.0562  0.0221
  551MOL0     H72670   0.429   2.782   0.731  1.1751 -1.2950  0.1729
  551MOL0     H72671   0.376   2.543   0.768 -3.1271  2.8881  0.2835
  551MOL0     H72672   0.498   2.536   0.646 -1.0609  0.1506 -1.7259
  551MOL0     H72673   0.329   2.396   0.559  0.7321  0.8279 -1.8950
  551MOL0     H72674   0.288   2.551   0.479 -0.0629  0.2757 -0.2749
  551MOL0     H72675   0.159   2.439   0.736 -0.8937  1.4602  1.4416
  551MOL0     H72676   0.117   2.587   0.670  1.7732 -1.3056  4.1695
  551MOL0     H72677  -0.023   2.368   0.617 -0.9279 -1.8559 -1.2911
  551MOL0     H72678   0.105   2.314   0.516 -0.4546 -0.2540  0.6780
  551MOL0     H72679  -0.037   2.412   0.376  2.1914 -2.4135  0.9512
  551MOL0     H72680   0.084   2.549   0.407 -1.6077  1.4194 -0.3642
  551MOL0     H72681  -0.096   2.608   0.598 -0.2608 -0.1942  0.7206
  551MOL0     H72682  -0.107   2.678   0.430 -2.5174 -0.6137  0.1181
  551MOL0     H72683  -0.226   2.404   0.489 -1.6937 -1.2279 -1.3778
  551MOL0     H72684  -0.281   2.531   0.374  0.8161 -0.6970 -0.0256
  551MOL0     H72685  -0.474   2.697   0.456 -0.6236  0.4973  1.9168
  551MOL0     H72686  -0.686   2.784   0.622  2.2061 -0.4155 -1.1360
  551MOL0     H72687  -0.681   2.719   0.772  0.8641  1.0943 -1.0427
  551MOL0     H72688  -0.861   2.622   0.721  0.3076  1.3246  0.8642
  551MOL0     H72689  -0.760   2.484   0.683 -0.7938  0.0225  0.0087
  551MOL0     H72690  -0.810   2.655   0.448  1.1859 -1.8623 -1.0692
  551MOL0     H72691  -0.758   2.495   0.461  1.3727  0.0718  2.1177
  551MOL0     H72692  -0.992   2.417   0.536  0.5729 -0.4489 -0.7050
  551MOL0     H72693  -1.004   2.508   0.383 -1.3369  3.4926 -0.9219
  551MOL0     H72694  -1.228   2.485   0.362 -1.9247 -1.0935 -0.2198
  551MOL0     H72695  -1.459   2.417   0.409  0.8168 -1.5084 -0.4107
  551MOL0     H72696  -1.896   2.501   0.458 -0.1266 -0.6950 -0.6172
  551MOL0     H72697  -2.113   2.394   0.445  1.8093  1.9002 -0.9069
  551MOL0     H72698  -2.265   2.207   0.402  0.0980 -1.9370  1.1207
  551MOL0     H72699  -2.322   2.292   0.550 -1.4419  1.4768 -1.3468
  551MOL0     H72700  -2.377   2.016   0.453 -0.6667 -0.5674  1.7690
  551MOL0     H72701  -2.501   2.148   0.437  2.0042  2.5462 -1.4505
  551MOL0     H72702  -2.471   2.151   0.697  1.7537  1.0429 -2.5570
  551MOL0     H72703  -2.390   1.991   0.682  0.6114  1.7806  3.8475
  551MOL0     H72704  -2.618   1.930   0.723 -0.0185 -0.5723 -1.8707
  551MOL0     H72705  -2.689   2.070   0.643  2.3221  3.7407  2.0935
  551MOL0     H72706  -2.513   1.862   0.496 -1.1166 -4.4395  2.1565
  551MOL0     H72707  -2.662   1.946   0.429 -1.3373 -1.5529 -1.0005
  551MOL0     H72708  -2.627   1.700   0.585  0.4418  0.1670  0.6267
  551MOL0     H72709  -2.712   1.723   0.430  0.5848  0.9378  0.1796
  551MOL0     H72710  -2.838   1.840   0.681 -3.3120  1.2916 -0.8797
  551MOL0     H72711  -2.912   1.825   0.525  1.4615 -0.6067 -1.8167
  551MOL0     H72712  -2.909   1.565   0.569  0.9683 -1.0954  0.2974
  551MOL0     H72713  -2.986   1.670   0.683 -0.0783  2.5950  1.2414
  551MOL0     H72714  -1.963   2.064   0.689  2.4967  0.7552  2.5959
  551MOL0     H72715  -1.753   2.170   0.702  0.2280 -0.2402 -0.1636
  551MOL0     H72716  -1.416   2.526   0.803 -0.4152  0.5367 -0.8065
  551MOL0     H72717  -1.193   2.616   0.770 -0.5168 -0.8353  0.5548
  551MOL0     H72718   0.579   2.824   0.310  1.5314  0.3969 -0.0951
  551MOL0     H72719   0.591   3.045   0.211 -0.0591 -1.3163  0.2345
  551MOL0     H72720   0.381   3.510   0.204  0.5101  0.9972 -1.3998
  551MOL0     H72721   0.371   3.746   0.198 -2.1981 -2.1934  1.3438
  551MOL0     H72722   0.654   3.894   0.017  4.7816 -0.0251  0.6978
  551MOL0     H72723   0.745   3.987   0.135  0.2275  0.4299 -0.5048
  551MOL0     H72724   0.442   4.074   0.116  0.1821 -0.1904  1.2090
  551MOL0     H72725   0.581   4.169   0.130 -0.9970  2.5201 -2.0390
  551MOL0     H72726   0.632   4.119  -0.123 -0.0190 -2.3714  1.2185
  551MOL0     H72727   0.501   4.239  -0.086  2.4127  0.8479 -0.6383
  551MOL0     H72728   0.469   4.037  -0.261 -0.2309  2.1644  0.5387
  551MOL0     H72729   0.434   3.938  -0.128 -0.5247 -0.0808 -1.0083
  551MOL0     H72730   0.088   4.162  -0.082  0.9010  1.7402  0.8221
  551MOL0     H72731   0.779   3.770   0.292  0.8362 -0.2733  2.7020
  551MOL0     H72732   0.784   3.524   0.346 -0.8964 -0.5765  1.3894
  552MOL0     O72733   7.974   4.692   6.572 -0.2395 -0.5078 -0.0441
  552MOL0     C72734   7.977   4.710   6.692 -0.2144 -0.4585  0.1041
  552MOL0     O72735   7.895   4.658   6.784  0.2869  0.1821 -0.1659
  552MOL0     C72736   7.789   4.581   6.744  0.3347  0.1797  0.1959
  552MOL0     C72737   7.694   4.617   6.644  0.1417  0.2699 -1.2001
  552MOL0     C72738   7.580   4.538   6.618  0.1974 -0.7125  0.2265
  552MOL0     C72739   7.556   4.420   6.695 -0.4575 -0.8981  0.2730
  552MOL0     O72740   7.456   4.332   6.663  0.2964 -0.0767  0.0319
  552MOL0     C72741   7.453   4.265   6.531 -0.5558 -0.2960 -0.8059
  552MOL0     C72742   7.308   4.254   6.494 -0.9647  0.2627 -0.8674
  552MOL0     C72743   7.296   4.177   6.364  0.4159  0.2999  0.8104
  552MOL0     C72744   7.140   4.143   6.339 -0.6773 -1.2803 -0.7331
  552MOL0     C72745   7.081   4.035   6.444 -0.4201 -0.1986 -1.0156
  552MOL0     C72746   7.151   3.902   6.466 -0.3363  0.5137  0.2487
  552MOL0     C72747   7.207   3.835   6.341  0.0340 -0.5722 -0.4470
  552MOL0     C72748   7.097   3.782   6.254  0.0646 -0.6151 -0.3809
  552MOL0     N72749   7.030   3.666   6.295 -0.0383  0.2879 -0.0790
  552MOL0     C72750   6.912   3.654   6.355  0.3306  1.0383  0.1996
  552MOL0     C72751   6.881   3.527   6.371 -0.1801  0.7551 -0.6131
  552MOL0     C72752   6.761   3.456   6.431 -0.0520 -0.5197  0.1828
  552MOL0     C72753   6.683   3.367   6.332 -0.3703  1.0421  0.2813
  552MOL0     C72754   6.755   3.225   6.323 -0.6208 -0.1850 -0.1379
  552MOL0     C72755   6.741   3.131   6.430  0.0920 -0.3202 -0.4362
  552MOL0     O72756   6.605   3.086   6.430  0.6701 -0.1721 -0.0333
  552MOL0     C72757   6.565   2.986   6.347  0.0881  1.1237 -0.1272
  552MOL0     C72758   6.639   2.904   6.255 -0.5621 -0.8064  0.2404
  552MOL0     C72759   6.571   2.807   6.180  0.7996 -0.0102  0.0872
  552MOL0     C72760   6.432   2.798   6.182 -0.0820 -0.9949  0.1412
  552MOL0     C72761   6.348   2.724   6.079  0.5469 -0.0294  0.6272
  552MOL0     O72762   6.216   2.719   6.108  0.8413 -0.7527 -1.1878
  552MOL0     C72763   6.134   2.647   6.023 -0.0722 -0.1238  1.1205
  552MOL0     C72764   6.153   2.512   5.983 -0.3305 -0.7646 -0.7750
  552MOL0     C72765   6.056   2.442   5.903 -1.2736 -0.6480 -0.2607
  552MOL0     C72766   5.930   2.508   5.878 -0.6986 -0.0616 -0.5103
  552MOL0     O72767   5.851   2.432   5.796 -0.6224  0.2903 -0.0497
  552MOL0     C72768   5.706   2.429   5.819 -0.1284  0.0937 -0.3661
  552MOL0     C72769   5.638   2.354   5.701 -0.9273 -0.7761  0.3531
  552MOL0     C72770   5.641   2.431   5.569 -0.5098 -0.0223  0.6440
  552MOL0     C72771   5.599   2.334   5.456  0.7481 -0.5899  0.5639
  552MOL0     C72772   5.586   2.415   5.331  0.4390 -0.2779 -0.2078
  552MOL0     C72773   5.541   2.336   5.199  1.2759 -0.7528  0.2141
  552MOL0     C72774   5.394   2.284   5.211  0.1231 -0.6746 -0.5952
  552MOL0     C72775   5.335   2.245   5.083  0.2043 -0.1694  0.2395
  552MOL0    Cl72776   5.395   2.080   5.044 -0.3040 -0.1386 -0.2585
  552MOL0     C72777   5.904   2.641   5.917 -0.9687 -0.6664  0.7806
  552MOL0     C72778   6.008   2.704   5.989 -1.0423 -1.3686  0.6143
  552MOL0     O72779   6.406   2.671   5.982  0.5148 -0.7155 -0.4895
  552MOL0     C72780   6.364   2.872   6.281 -1.0291  0.2495 -0.0947
  552MOL0     C72781   6.432   2.965   6.356  0.2733  0.0800  0.2830
  552MOL0     N72782   6.996   3.458   6.327  0.7301  0.2925  0.1771
  552MOL0     N72783   7.083   3.540   6.281 -0.0052 -0.1760  0.2149
  552MOL0     C72784   7.648   4.393   6.802  0.7035 -0.1757  0.9577
  552MOL0     C72785   7.763   4.465   6.821 -0.8214 -0.3673 -0.9833
  552MOL0     C72786   8.086   4.795   6.736 -0.1663 -0.2867 -0.8670
  552MOL0     C72787   8.105   4.818   6.869  0.6396  0.1678  0.2079
  552MOL0     C72788   8.211   4.893   6.928  0.8169  0.8214  0.2414
  552MOL0     C72789   8.301   4.946   6.837  1.5351  0.3038 -0.0003
  552MOL0     O72790   8.417   4.985   6.891 -0.8632  0.2186  0.3101
  552MOL0     C72791   8.543   5.001   6.824  0.1213 -0.1949 -0.0811
  552MOL0     C72792   8.555   5.146   6.758 -0.2908  0.8114 -0.1500
  552MOL0     C72793   8.590   5.244   6.876  1.2081 -0.4734  0.3729
  552MOL0     C72794   8.567   5.386   6.818 -0.5843 -1.3964 -0.8738
  552MOL0     C72795   8.603   5.487   6.916 -0.0507  0.5381 -0.3317
  552MOL0     C72796   8.641   5.565   7.006  0.2113 -0.5573  0.1507
  552MOL0     C72797   8.282   4.920   6.702  0.6607 -0.4799  0.7819
  552MOL0     C72798   8.170   4.852   6.646  0.0923  0.5016 -0.7302
  552MOL0     H72799   7.716   4.703   6.582  3.5146 -0.6098 -1.4076
  552MOL0     H72800   7.500   4.559   6.547  1.1356  0.7452 -0.4419
  552MOL0     H72801   7.514   4.176   6.549  0.3231  1.0159  4.4268
  552MOL0     H72802   7.497   4.330   6.454 -1.1108  1.0449 -0.0339
  552MOL0     H72803   7.261   4.352   6.482 -0.0662  0.6687 -1.1218
  552MOL0     H72804   7.264   4.185   6.567  3.5007 -5.4427 -2.8174
  552MOL0     H72805   7.345   4.079   6.360  0.5584  0.4102 -1.0143
  552MOL0     H72806   7.323   4.244   6.282  1.2228  2.1337  2.4890
  552MOL0     H72807   7.091   4.241   6.345  0.1257 -0.5461 -4.0966
  552MOL0     H72808   7.117   4.119   6.235 -0.2586  0.3548 -1.2414
  552MOL0     H72809   6.979   4.010   6.415 -0.4954 -1.6720  0.3965
  552MOL0     H72810   7.080   4.072   6.547 -1.5454  0.0226 -1.0949
  552MOL0     H72811   7.081   3.829   6.510 -0.0130 -0.8631 -1.4247
  552MOL0     H72812   7.236   3.914   6.533 -0.6965  0.4783  0.7253
  552MOL0     H72813   7.262   3.905   6.278  0.9868 -0.5708  0.3499
  552MOL0     H72814   7.281   3.758   6.365  0.5196 -1.4460 -4.1947
  552MOL0     H72815   7.140   3.757   6.156  4.1665  1.9102  0.5312
  552MOL0     H72816   7.027   3.865   6.236 -0.1134 -0.3201  1.5061
  552MOL0     H72817   6.845   3.735   6.383  1.8089  1.3349  3.2840
  552MOL0     H72818   6.710   3.549   6.459  1.8647  1.4191 -2.2789
  552MOL0     H72819   6.792   3.399   6.519  1.8648 -1.0005 -0.7423
  552MOL0     H72820   6.664   3.424   6.241  0.7793  0.7337 -0.1637
  552MOL0     H72821   6.586   3.339   6.373  0.2059 -0.8543  0.4338
  552MOL0     H72822   6.704   3.170   6.243 -1.2558 -2.1448  1.5301
  552MOL0     H72823   6.861   3.231   6.295 -0.5996 -2.2414 -0.6909
  552MOL0     H72824   6.771   3.165   6.529 -0.6030  0.2521 -0.4133
  552MOL0     H72825   6.808   3.044   6.423  1.1105  0.4600 -0.6075
  552MOL0     H72826   6.744   2.914   6.230 -0.8335 -1.0098 -1.0975
  552MOL0     H72827   6.627   2.750   6.106 -2.6493 -0.4879 -2.4376
  552MOL0     H72828   6.251   2.475   6.012  2.2647  4.5681 -1.4942
  552MOL0     H72829   6.073   2.344   5.862  1.1203 -1.4991  2.4455
  552MOL0     H72830   5.656   2.526   5.819 -2.5930 -0.9843  3.5895
  552MOL0     H72831   5.684   2.384   5.915 -2.6893 -4.5787 -2.8064
  552MOL0     H72832   5.537   2.327   5.732 -1.7590  2.1963  0.4790
  552MOL0     H72833   5.688   2.259   5.680  0.3915 -0.1832  0.6691
  552MOL0     H72834   5.748   2.449   5.563 -0.6496  0.7099  0.1331
  552MOL0     H72835   5.594   2.530   5.570  1.9380  1.1978  1.5404
  552MOL0     H72836   5.663   2.246   5.443  2.3863  0.5969  0.2093
  552MOL0     H72837   5.497   2.301   5.478  0.3740 -0.0319 -0.3068
  552MOL0     H72838   5.682   2.466   5.321  0.4514  0.0815  1.5105
  552MOL0     H72839   5.511   2.492   5.349  0.2451 -0.7400  1.0040
  552MOL0     H72840   5.603   2.250   5.172  0.9887 -1.1444  0.7791
  552MOL0     H72841   5.544   2.407   5.116  3.1506  1.4872  2.0564
  552MOL0     H72842   5.387   2.205   5.285  1.4713  0.9166  1.3483
  552MOL0     H72843   5.334   2.368   5.247 -1.7476 -0.8464 -3.0115
  552MOL0     H72844   5.378   2.312   5.008  0.4621  1.9990  2.2028
  552MOL0     H72845   5.226   2.252   5.086 -0.1887 -2.5805 -3.1103
  552MOL0     H72846   5.815   2.696   5.890 -0.0259 -0.2256 -1.7285
  552MOL0     H72847   5.994   2.808   6.018  1.7449  0.5928 -3.9413
  552MOL0     H72848   6.256   2.884   6.284 -1.0340  1.2152 -2.3689
  552MOL0     H72849   6.374   3.030   6.421 -0.7030  0.2347 -0.7333
  552MOL0     H72850   7.620   4.317   6.874  1.5468 -1.0046  0.4283
  552MOL0     H72851   7.841   4.405   6.867 -3.4998 -3.9570 -0.6236
  552MOL0     H72852   8.027   4.783   6.935 -0.9380 -1.4339 -2.3656
  552MOL0     H72853   8.216   4.907   7.035  0.4017  4.7324 -0.1031
  552MOL0     H72854   8.548   4.930   6.741  2.5696 -0.2510  0.0262
  552MOL0     H72855   8.632   4.980   6.885  0.9836  0.7904 -0.9544
  552MOL0     H72856   8.641   5.153   6.690  1.6274  1.6615  2.2186
  552MOL0     H72857   8.466   5.177   6.703  0.7472  1.7415 -1.3767
  552MOL0     H72858   8.691   5.223   6.913  0.1526 -3.4047  1.8786
  552MOL0     H72859   8.516   5.239   6.956  0.0729 -3.5403 -0.7151
  552MOL0     H72860   8.630   5.405   6.731 -0.9211  0.9241 -0.6545
  552MOL0     H72861   8.460   5.401   6.805 -0.2843  3.7689  0.4702
  552MOL0     H72862   8.670   5.621   7.093  2.0336  0.5141 -1.0972
  552MOL0     H72863   8.357   4.955   6.632 -3.1857  2.5578 -2.3339
  552MOL0     H72864   8.166   4.834   6.539  0.7500 -0.3671 -0.6165
  553MOL0     O72865   6.952   2.853   6.371  0.9944 -0.3594 -0.4346
  553MOL0     C72866   6.998   2.787   6.472  0.2395 -0.6900  1.0775
  553MOL0     O72867   7.116   2.819   6.534 -0.5116 -1.0538  0.8591
  553MOL0     C72868   7.191   2.930   6.500  0.1085  0.4698 -0.9672
  553MOL0     C72869   7.329   2.904   6.489  0.4146  0.1550  1.1048
  553MOL0     C72870   7.418   3.010   6.450 -0.3582 -0.0487  0.1479
  553MOL0     C72871   7.371   3.139   6.439 -0.5119  0.0947  0.1614
  553MOL0     O72872   7.461   3.245   6.424  0.0285  0.5842 -0.4104
  553MOL0     C72873   7.417   3.379   6.444  0.3388  0.2768  0.7850
  553MOL0     C72874   7.524   3.484   6.401 -0.2370  0.2405  0.1316
  553MOL0     C72875   7.554   3.491   6.249  0.6632  0.6705 -0.1649
  553MOL0     C72876   7.420   3.525   6.163  0.5539  0.2270 -0.2431
  553MOL0     C72877   7.452   3.553   6.022  0.9184 -0.4328  0.0486
  553MOL0     C72878   7.336   3.546   5.925 -0.0527 -0.4381 -0.0268
  553MOL0     C72879   7.383   3.569   5.779 -0.2319  0.5938 -0.3846
  553MOL0     C72880   7.262   3.561   5.680 -0.3913 -0.4352 -0.6611
  553MOL0     N72881   7.328   3.562   5.549  0.1629 -0.7259  0.0014
  553MOL0     C72882   7.387   3.468   5.476  0.1585  0.3937 -1.2644
  553MOL0     C72883   7.464   3.520   5.389  0.6670  0.5693  0.7572
  553MOL0     C72884   7.552   3.456   5.285  0.8626  0.0509 -1.0286
  553MOL0     C72885   7.472   3.375   5.177  0.9075 -0.4078  0.1408
  553MOL0     C72886   7.431   3.468   5.067  0.2802  0.3938  0.8624
  553MOL0     C72887   7.316   3.413   4.978 -0.4706 -0.6897  0.4498
  553MOL0     O72888   7.287   3.520   4.886 -0.4377  0.1349 -0.0249
  553MOL0     C72889   7.177   3.509   4.812  0.1840  0.0335  0.6998
  553MOL0     C72890   7.108   3.629   4.779 -0.1983  0.2574  0.2115
  553MOL0     C72891   6.994   3.630   4.709 -0.5115 -0.6237  0.1631
  553MOL0     C72892   6.946   3.508   4.652  0.4757 -0.3806 -0.5368
  553MOL0     C72893   6.823   3.512   4.570 -0.5278  0.3104 -0.0436
  553MOL0     O72894   6.796   3.646   4.525 -0.3424 -0.1545  0.2346
  553MOL0     C72895   6.689   3.663   4.442  0.1011 -0.6692 -0.6978
  553MOL0     C72896   6.699   3.657   4.305 -0.8165  0.5571 -0.7305
  553MOL0     C72897   6.583   3.694   4.233  0.2709  0.1947  0.6739
  553MOL0     C72898   6.470   3.739   4.286  0.2446 -0.0045 -0.0222
  553MOL0     O72899   6.377   3.817   4.219 -0.9281 -0.6031  0.2681
  553MOL0     C72900   6.339   3.766   4.085  0.0975 -1.2117  0.3414
  553MOL0     C72901   6.316   3.882   3.990 -0.1199 -0.0204  0.9753
  553MOL0     C72902   6.299   3.810   3.854 -0.9621 -0.1564 -1.3254
  553MOL0     C72903   6.267   3.883   3.733  0.0449 -0.0854  0.7958
  553MOL0     C72904   6.302   3.802   3.609 -0.1337  0.4390  0.5380
  553MOL0     C72905   6.277   3.894   3.491 -0.5688 -0.2722 -0.2306
  553MOL0     C72906   6.349   3.858   3.357  0.5467  0.1900 -0.2820
  553MOL0     C72907   6.282   3.737   3.279  0.9017 -0.7421  0.3722
  553MOL0    Cl72908   6.099   3.735   3.305  0.1408  0.8718  0.1732
  553MOL0     C72909   6.459   3.739   4.424 -0.8293  0.1029 -0.5544
  553MOL0     C72910   6.565   3.690   4.499  0.3622  0.5371 -0.6110
  553MOL0     O72911   6.763   3.410   4.526  0.5027  0.6320  0.2695
  553MOL0     C72912   7.007   3.388   4.691  0.0440  1.0355 -0.6528
  553MOL0     C72913   7.133   3.388   4.756 -0.2449  0.5752 -0.1915
  553MOL0     N72914   7.452   3.656   5.413 -0.0571 -0.4270  0.1922
  553MOL0     N72915   7.363   3.685   5.500 -0.2784 -0.2831  0.3712
  553MOL0     C72916   7.227   3.156   6.450 -0.3238 -0.0678 -0.3173
  553MOL0     C72917   7.138   3.056   6.471 -0.8858 -0.1363 -0.0857
  553MOL0     C72918   6.925   2.681   6.537  0.3049  0.5081  1.0367
  553MOL0     C72919   6.969   2.602   6.646 -1.5650 -1.0368 -0.0032
  553MOL0     C72920   6.878   2.526   6.716  0.2695  1.1038  1.4066
  553MOL0     C72921   6.744   2.506   6.663 -0.0405  0.8336  0.7013
  553MOL0     O72922   6.643   2.431   6.718  0.4034  0.9066 -0.1140
  553MOL0     C72923   6.682   2.332   6.828  0.6327 -0.2043 -0.6938
  553MOL0     C72924   6.670   2.388   6.968  0.1724  1.1237  0.1744
  553MOL0     C72925   6.734   2.289   7.071  0.1056  0.3646  0.2495
  553MOL0     C72926   6.886   2.261   7.049 -0.7505 -0.7280 -0.1803
  553MOL0     C72927   6.932   2.157   7.139 -0.2598 -0.5385 -0.0005
  553MOL0     C72928   6.977   2.056   7.194 -0.4154 -0.3709  0.0638
  553MOL0     C72929   6.706   2.587   6.557 -0.0305  0.0152  0.0196
  553MOL0     C72930   6.794   2.675   6.502  0.4460 -0.8953  1.2133
  553MOL0     H72931   7.358   2.801   6.508  0.0398  0.2771  2.4596
  553MOL0     H72932   7.522   2.989   6.429  0.7633  1.5635  3.4514
  553MOL0     H72933   7.419   3.392   6.553 -0.9710  1.4522  0.6895
  553MOL0     H72934   7.319   3.396   6.400  0.4434  3.5262  1.5747
  553MOL0     H72935   7.610   3.469   6.467 -0.2648 -0.2889  0.0549
  553MOL0     H72936   7.488   3.582   6.433  0.7761  0.7606 -0.3029
  553MOL0     H72937   7.585   3.388   6.228 -1.1853  0.2434 -1.0424
  553MOL0     H72938   7.630   3.567   6.231  0.6782  0.7570  0.2685
  553MOL0     H72939   7.354   3.438   6.167  3.6670 -2.2875  1.7120
  553MOL0     H72940   7.365   3.610   6.203 -0.5441 -0.4146 -0.3456
  553MOL0     H72941   7.507   3.465   5.990  0.9090 -0.0173 -1.1431
  553MOL0     H72942   7.505   3.649   6.012  2.4111 -1.3727 -1.5297
  553MOL0     H72943   7.265   3.626   5.949  1.1336 -0.2148  3.1849
  553MOL0     H72944   7.287   3.449   5.931  3.3095 -2.1959  2.1840
  553MOL0     H72945   7.443   3.660   5.774  1.2029 -0.0733  2.6815
  553MOL0     H72946   7.449   3.486   5.750 -0.4689  0.3192 -0.1474
  553MOL0     H72947   7.187   3.641   5.685  1.6019  1.6432 -1.7588
  553MOL0     H72948   7.206   3.468   5.688 -0.5837 -0.2144  0.9366
  553MOL0     H72949   7.369   3.362   5.494  1.0882  0.3161 -0.7218
  553MOL0     H72950   7.608   3.383   5.344  1.0432  0.5501 -0.5656
  553MOL0     H72951   7.630   3.524   5.251  0.0617  1.4370 -0.2247
  553MOL0     H72952   7.374   3.336   5.206  0.2716  0.9416 -0.1537
  553MOL0     H72953   7.540   3.294   5.147  0.4194 -0.8656  0.2444
  553MOL0     H72954   7.405   3.568   5.101  1.9096  1.1244  0.0862
  553MOL0     H72955   7.516   3.484   4.999  1.3526 -2.5626  1.3400
  553MOL0     H72956   7.222   3.384   5.027 -1.9253  0.0668 -1.7260
  553MOL0     H72957   7.359   3.320   4.940  3.1939  1.6712 -1.8041
  553MOL0     H72958   7.146   3.726   4.809  0.2901  0.5793 -1.3549
  553MOL0     H72959   6.967   3.734   4.693  2.1100  0.0997  0.0102
  553MOL0     H72960   6.788   3.616   4.259 -0.7791 -3.6537  2.5007
  553MOL0     H72961   6.599   3.714   4.127  0.4554  0.7764  0.8094
  553MOL0     H72962   6.241   3.718   4.084 -1.6559  1.9941 -2.0583
  553MOL0     H72963   6.413   3.698   4.044  4.1623  2.6428  0.4592
  553MOL0     H72964   6.405   3.946   3.996 -0.9128  1.1685  0.3512
  553MOL0     H72965   6.234   3.951   4.010  0.8891  1.7470 -0.6782
  553MOL0     H72966   6.235   3.723   3.867  0.1655 -0.7933  0.1875
  553MOL0     H72967   6.405   3.783   3.841 -1.0206 -1.4017  0.4666
  553MOL0     H72968   6.163   3.915   3.735  0.1948  0.3857  1.3271
  553MOL0     H72969   6.320   3.979   3.731  1.6398 -0.9241 -1.4338
  553MOL0     H72970   6.246   3.709   3.598  3.8459 -1.9338 -2.4332
  553MOL0     H72971   6.406   3.770   3.596  0.2511  2.3456 -1.9744
  553MOL0     H72972   6.319   3.991   3.519 -4.1302  1.0286  1.2472
  553MOL0     H72973   6.171   3.913   3.472  0.1633  2.8529 -1.7822
  553MOL0     H72974   6.329   3.946   3.294 -2.4409 -0.6279 -0.6316
  553MOL0     H72975   6.455   3.837   3.377  0.1820 -1.5574 -0.0763
  553MOL0     H72976   6.319   3.647   3.329  1.2829 -1.5165 -1.2608
  553MOL0     H72977   6.315   3.736   3.175  1.0266 -0.9836  0.4123
  553MOL0     H72978   6.367   3.771   4.472 -1.6867 -1.7562 -0.8604
  553MOL0     H72979   6.563   3.688   4.607 -0.0346  0.7593 -0.6119
  553MOL0     H72980   6.965   3.299   4.646 -0.2989  1.0207 -0.3119
  553MOL0     H72981   7.189   3.295   4.763  0.1440  0.8888  1.3449
  553MOL0     H72982   7.178   3.248   6.419 -0.4975  0.6746  2.0002
  553MOL0     H72983   7.031   3.071   6.475 -0.7873  2.6898 -3.3610
  553MOL0     H72984   7.068   2.623   6.685 -1.7043  1.7593 -0.9791
  553MOL0     H72985   6.896   2.478   6.812 -1.5438 -1.3634  0.6244
  553MOL0     H72986   6.772   2.282   6.792 -0.2385 -2.6217  0.3016
  553MOL0     H72987   6.610   2.251   6.813  1.7559 -1.1771 -0.9166
  553MOL0     H72988   6.719   2.484   6.984  0.4216  0.6768  2.3859
  553MOL0     H72989   6.566   2.407   6.993  0.5226 -0.6442  3.4684
  553MOL0     H72990   6.666   2.203   7.072 -0.0973  0.5268  0.8318
  553MOL0     H72991   6.734   2.341   7.167  0.7053  0.4344  0.2160
  553MOL0     H72992   6.899   2.215   6.951 -0.0232 -0.7025 -0.1001
  553MOL0     H72993   6.955   2.346   7.041  0.4030 -1.7331 -1.5867
  553MOL0     H72994   6.993   1.961   7.242 -2.8474 -0.4217  0.9430
  553MOL0     H72995   6.602   2.584   6.524 -0.6283  1.9723  1.5575
  553MOL0     H72996   6.759   2.715   6.408 -3.9885 -0.1585  2.9634
  554MOL0     O72997   3.337   5.570  10.135  0.2218 -0.0992 -1.1497
  554MOL0     C72998   3.360   5.528  10.253  0.3535 -0.3215 -0.3211
  554MOL0     O72999   3.410   5.601  10.354  0.0699 -0.4091 -0.1716
  554MOL0     C73000   3.464   5.724  10.340 -0.3405  0.7926  1.0751
  554MOL0     C73001   3.569   5.745  10.422  0.1550  0.0963 -1.0237
  554MOL0     C73002   3.632   5.864  10.433  0.8373 -0.6500  0.1307
  554MOL0     C73003   3.594   5.976  10.360  0.0896 -0.1648  0.4595
  554MOL0     O73004   3.645   6.109  10.369  0.8370  0.5695 -0.1252
  554MOL0     C73005   3.671   6.150  10.504  0.3365  0.2554  0.3108
  554MOL0     C73006   3.663   6.302  10.511  0.7044 -0.2300 -0.2340
  554MOL0     C73007   3.766   6.364  10.410 -0.3451  0.0577  0.0016
  554MOL0     C73008   3.759   6.520  10.415  1.0806 -0.1025 -0.9901
  554MOL0     C73009   3.861   6.608  10.336  0.2872  0.5544 -0.3603
  554MOL0     C73010   3.907   6.555  10.197  0.2678 -0.3690 -0.5077
  554MOL0     C73011   4.039   6.622  10.160  0.5885  0.1546  1.0406
  554MOL0     C73012   4.080   6.575  10.019 -0.3243 -0.5880 -0.2267
  554MOL0     N73013   4.012   6.655   9.920  0.7930 -0.0320  0.8927
  554MOL0     C73014   4.051   6.785   9.891  0.3339  0.2177 -0.0668
  554MOL0     C73015   3.954   6.843   9.826  0.6991 -0.7108  0.5101
  554MOL0     C73016   3.949   6.991   9.792  0.0291  0.0508 -0.0560
  554MOL0     C73017   3.840   7.076   9.868  0.2027  1.0210 -0.2189
  554MOL0     C73018   3.869   7.218   9.871  0.5389  0.5161  0.0138
  554MOL0     C73019   3.764   7.284   9.964 -1.0187 -0.2012  0.9083
  554MOL0     O73020   3.638   7.266   9.914  0.1832  0.3483 -0.0829
  554MOL0     C73021   3.532   7.278   9.999 -0.3108 -1.0504 -0.5214
  554MOL0     C73022   3.531   7.287  10.142  0.3751  0.4992  0.5490
  554MOL0     C73023   3.412   7.293  10.204 -0.6266 -0.4827 -0.3746
  554MOL0     C73024   3.293   7.299  10.137 -0.6877  0.2690  0.0122
  554MOL0     C73025   3.169   7.294  10.218  0.3214  0.0721 -0.6307
  554MOL0     O73026   3.057   7.358  10.161 -0.3815  0.3895  0.8553
  554MOL0     C73027   2.931   7.324  10.204  0.5030  1.2382 -0.1367
  554MOL0     C73028   2.839   7.426  10.207 -0.9581 -0.0687 -0.4299
  554MOL0     C73029   2.707   7.404  10.253  0.0739  0.0163 -0.4653
  554MOL0     C73030   2.662   7.283  10.291  0.1515 -0.4919  0.8217
  554MOL0     O73031   2.533   7.264  10.333 -0.7198  0.3324 -0.3663
  554MOL0     C73032   2.512   7.243  10.482  0.1041 -0.2561 -1.2617
  554MOL0     C73033   2.546   7.364  10.567 -1.2826  0.5380 -0.3530
  554MOL0     C73034   2.425   7.450  10.582 -0.4694  0.7367  0.2613
  554MOL0     C73035   2.456   7.580  10.656  0.5978 -0.6898 -0.7569
  554MOL0     C73036   2.341   7.660  10.706  0.8195  0.4429 -0.3475
  554MOL0     C73037   2.239   7.713  10.596 -0.1000  0.2143  0.9136
  554MOL0     C73038   2.149   7.823  10.638  0.5706 -0.5092  0.3209
  554MOL0     C73039   2.029   7.833  10.529 -0.7484 -0.4057 -0.8285
  554MOL0    Cl73040   1.939   7.970  10.562 -0.3375  0.9885 -0.3750
  554MOL0     C73041   2.763   7.182  10.297  0.1852 -0.6426 -0.0099
  554MOL0     C73042   2.891   7.200  10.248 -0.0351 -0.2343  0.1541
  554MOL0     O73043   3.171   7.249  10.336  0.1659 -0.3856 -0.0703
  554MOL0     C73044   3.298   7.313   9.991  0.4266  0.7536 -0.3621
  554MOL0     C73045   3.413   7.282   9.931 -0.6915 -0.9909 -0.0002
  554MOL0     N73046   3.858   6.740   9.790  0.2528 -0.3278 -0.0101
  554MOL0     N73047   3.901   6.627   9.849 -0.7468  0.4972 -0.0534
  554MOL0     C73048   3.487   5.959  10.267  0.3902 -0.4441 -0.4448
  554MOL0     C73049   3.423   5.828  10.257  0.6500  0.4899 -0.1226
  554MOL0     C73050   3.343   5.388  10.292  0.6936  0.5085 -0.2765
  554MOL0     C73051   3.311   5.350  10.433 -0.1746 -0.1213  1.8175
  554MOL0     C73052   3.299   5.214  10.461  0.2890 -0.1871 -0.1649
  554MOL0     C73053   3.310   5.122  10.361  0.4793  0.1733 -0.5299
  554MOL0     O73054   3.312   4.984  10.386 -0.1049 -0.2971  0.3947
  554MOL0     C73055   3.323   4.928  10.518  0.6663  0.1998  0.1652
  554MOL0     C73056   3.330   4.769  10.494 -0.7222 -0.9637  0.4741
  554MOL0     C73057   3.464   4.717  10.412  0.8530  0.1362 -1.1767
  554MOL0     C73058   3.475   4.562  10.423 -1.1507 -1.2070 -0.0478
  554MOL0     C73059   3.472   4.531  10.568 -0.3567  0.1223 -0.2083
  554MOL0     C73060   3.482   4.521  10.691  0.2189  0.1898  0.0569
  554MOL0     C73061   3.326   5.157  10.231  0.0647  1.2011 -0.6304
  554MOL0     C73062   3.349   5.290  10.193 -0.3405  0.7527  0.9109
  554MOL0     H73063   3.621   5.668  10.477 -0.5512 -1.3431 -2.2883
  554MOL0     H73064   3.722   5.867  10.493  0.6890  0.0546  0.3258
  554MOL0     H73065   3.773   6.118  10.528  0.9746  2.4299  0.7585
  554MOL0     H73066   3.600   6.103  10.573  1.9092 -5.2159 -1.3401
  554MOL0     H73067   3.684   6.350  10.607 -0.1271 -0.5321  0.1042
  554MOL0     H73068   3.561   6.332  10.489  0.5388 -0.5553  0.0794
  554MOL0     H73069   3.736   6.352  10.306 -0.7218  1.5151 -0.0868
  554MOL0     H73070   3.869   6.340  10.438 -0.2798  0.0295 -0.2639
  554MOL0     H73071   3.657   6.553  10.391  1.0967  1.1196  0.4535
  554MOL0     H73072   3.758   6.557  10.518  0.8179  4.1155 -2.3390
  554MOL0     H73073   3.939   6.634  10.408  0.4211 -0.4219 -0.1349
  554MOL0     H73074   3.813   6.702  10.308 -0.9768 -0.4743 -1.8337
  554MOL0     H73075   3.832   6.572  10.120  3.0537  3.0093 -2.8187
  554MOL0     H73076   3.914   6.446  10.200 -1.9271 -0.5376  1.1168
  554MOL0     H73077   4.048   6.731  10.167  1.7088  0.0495  1.5647
  554MOL0     H73078   4.120   6.580  10.220  1.5591 -0.4615 -0.6229
  554MOL0     H73079   4.054   6.471   9.999 -3.3982  0.6594 -4.0412
  554MOL0     H73080   4.189   6.571  10.011 -0.2170  1.6830 -0.7712
  554MOL0     H73081   4.135   6.844   9.925 -1.5351  1.4631  2.8009
  554MOL0     H73082   3.945   6.999   9.683 -1.9664  2.4349  0.1032
  554MOL0     H73083   4.048   7.027   9.819  0.0149  0.9010 -1.0642
  554MOL0     H73084   3.823   7.037   9.969 -3.0367  2.2737 -0.1566
  554MOL0     H73085   3.744   7.052   9.823  0.5720  1.8396 -1.4865
  554MOL0     H73086   3.973   7.222   9.906  0.4367  0.8022  0.2807
  554MOL0     H73087   3.871   7.265   9.772  1.5420  0.3213 -0.0693
  554MOL0     H73088   3.785   7.391   9.967 -1.7052 -0.0615  4.7275
  554MOL0     H73089   3.778   7.242  10.064  2.0689 -2.8196 -0.4366
  554MOL0     H73090   3.624   7.276  10.197 -0.4979  0.2140  1.9964
  554MOL0     H73091   3.409   7.285  10.312  2.2247  1.9105  0.0107
  554MOL0     H73092   2.862   7.527  10.175 -2.3843  0.5855  0.4952
  554MOL0     H73093   2.644   7.493  10.254  0.2507  0.2821  3.8416
  554MOL0     H73094   2.583   7.168  10.519  1.1698 -0.0816 -2.8315
  554MOL0     H73095   2.411   7.211  10.508  0.8042 -1.0982  0.5492
  554MOL0     H73096   2.635   7.412  10.527 -0.1325 -0.2617  1.1496
  554MOL0     H73097   2.562   7.327  10.669  0.1531  0.5282 -0.5613
  554MOL0     H73098   2.348   7.393  10.635 -0.2462  1.2507  1.1543
  554MOL0     H73099   2.392   7.476  10.481 -1.8413 -0.0075  0.5012
  554MOL0     H73100   2.521   7.563  10.742 -0.1472  0.6378  0.1116
  554MOL0     H73101   2.507   7.642  10.580 -0.6297 -1.0919 -1.9497
  554MOL0     H73102   2.377   7.737  10.775 -0.1972  0.7769 -0.1682
  554MOL0     H73103   2.280   7.590  10.765 -0.1379  1.9530  0.5189
  554MOL0     H73104   2.193   7.626  10.549  2.0971  0.5827 -2.2075
  554MOL0     H73105   2.309   7.758  10.525  2.0378 -0.5657  2.4069
  554MOL0     H73106   2.094   7.822  10.732 -0.2677 -1.8519 -0.1595
  554MOL0     H73107   2.221   7.905  10.636  0.9099 -0.8059  0.2714
  554MOL0     H73108   1.965   7.745  10.539 -1.6609  0.2026 -1.1755
  554MOL0     H73109   2.062   7.851  10.426 -0.9483  0.3544 -0.7681
  554MOL0     H73110   2.735   7.084  10.335 -1.2321  0.2669  1.3896
  554MOL0     H73111   2.964   7.120  10.248 -1.9471 -2.1102  2.1594
  554MOL0     H73112   3.207   7.314   9.932  2.2636 -0.2292 -3.3992
  554MOL0     H73113   3.419   7.274   9.823  2.1703 -2.3167  0.1658
  554MOL0     H73114   3.447   6.044  10.212 -1.3710 -0.5316  0.6460
  554MOL0     H73115   3.335   5.805  10.196 -0.7397  0.3305  1.8543
  554MOL0     H73116   3.295   5.425  10.510 -2.1295 -0.4001  1.7396
  554MOL0     H73117   3.275   5.171  10.559 -0.8937  0.7196 -0.0294
  554MOL0     H73118   3.239   4.963  10.578 -0.2433 -1.5799  0.0032
  554MOL0     H73119   3.416   4.965  10.560  2.1462 -1.3029 -1.5827
  554MOL0     H73120   3.330   4.738  10.599 -0.7509 -0.5833  0.5873
  554MOL0     H73121   3.236   4.736  10.448  0.0021 -1.4931 -0.6664
  554MOL0     H73122   3.551   4.746  10.472 -0.8711  1.5023  0.8288
  554MOL0     H73123   3.460   4.745  10.307 -0.1197 -2.3221 -1.8693
  554MOL0     H73124   3.398   4.513  10.363  0.6140 -0.4147 -3.1851
  554MOL0     H73125   3.574   4.533  10.388  0.5289  2.1399  1.4717
  554MOL0     H73126   3.476   4.491  10.794  1.5467 -0.3218  0.0092
  554MOL0     H73127   3.347   5.080  10.158  3.0135  2.9521 -1.8328
  554MOL0     H73128   3.367   5.310  10.088 -0.7107  2.2969  1.1239
  555MOL0     O73129   7.638   2.649   8.307  0.3168 -0.3447 -0.1926
  555MOL0     C73130   7.672   2.768   8.292  1.3359  0.3437  0.0084
  555MOL0     O73131   7.692   2.863   8.387 -0.0955 -0.5410 -0.0530
  555MOL0     C73132   7.678   2.810   8.510 -0.3067  0.4407 -0.7247
  555MOL0     C73133   7.783   2.799   8.603  0.2995 -0.7402  0.3537
  555MOL0     C73134   7.764   2.761   8.743 -0.8096 -0.5867 -0.3360
  555MOL0     C73135   7.638   2.739   8.793  0.3885 -0.6233 -0.0075
  555MOL0     O73136   7.608   2.691   8.919  0.1980  0.1007 -0.3054
  555MOL0     C73137   7.712   2.658   9.005  0.4013  0.2386 -1.3981
  555MOL0     C73138   7.758   2.518   8.981 -0.7918 -0.0018  1.5016
  555MOL0     C73139   7.855   2.476   9.102 -0.0093 -0.0881 -0.5582
  555MOL0     C73140   7.891   2.329   9.079 -0.1781 -1.5596  0.0323
  555MOL0     C73141   7.987   2.284   9.189 -0.7147  0.0194  0.1754
  555MOL0     C73142   8.032   2.138   9.150 -0.1387 -0.7480 -0.8135
  555MOL0     C73143   8.159   2.099   9.215 -0.3728  0.4131 -0.8911
  555MOL0     C73144   8.191   1.953   9.180 -0.0858 -0.2541 -0.4876
  555MOL0     N73145   8.325   1.918   9.233  0.3123 -1.2284 -0.0691
  555MOL0     C73146   8.354   1.886   9.368 -0.3401 -0.0358  0.2295
  555MOL0     C73147   8.492   1.864   9.363 -0.1235  0.2098 -0.4563
  555MOL0     C73148   8.555   1.826   9.494 -0.3559  0.5148 -0.2274
  555MOL0     C73149   8.591   1.950   9.582 -1.3433  0.5534 -0.4861
  555MOL0     C73150   8.720   2.019   9.524  0.4370 -0.6301  0.4500
  555MOL0     C73151   8.855   1.973   9.566 -0.3309  0.7589 -0.2810
  555MOL0     O73152   8.864   2.008   9.705 -0.5158  1.6844  0.3040
  555MOL0     C73153   8.982   2.055   9.761  0.2962 -0.3265  0.2222
  555MOL0     C73154   9.087   2.126   9.696 -0.1547  0.0756 -0.0367
  555MOL0     C73155   9.194   2.179   9.765  0.1055 -0.1426 -0.5408
  555MOL0     C73156   9.186   2.165   9.902 -0.9009 -0.2892 -0.9327
  555MOL0     C73157   9.277   2.249   9.982  0.2044 -0.2791 -0.2691
  555MOL0     O73158   9.391   2.288   9.923  0.5585 -0.0453 -0.3777
  555MOL0     C73159   9.485   2.368   9.992  1.2552 -1.2602 -0.0482
  555MOL0     C73160   9.614   2.356   9.948 -0.0108 -0.0321 -0.3407
  555MOL0     C73161   9.721   2.448   9.990 -0.1758 -0.9584  0.5449
  555MOL0     C73162   9.684   2.556  10.071  0.1717 -0.0215 -0.0613
  555MOL0     O73163   9.779   2.648  10.102 -0.2609 -0.3625 -0.7904
  555MOL0     C73164   9.756   2.748  10.203 -1.0467 -0.3709  0.0236
  555MOL0     C73165   9.881   2.822  10.232  0.7277  0.2535  0.2870
  555MOL0     C73166   9.841   2.931  10.334 -0.0692  0.2823 -0.0060
  555MOL0     C73167   9.814   2.860  10.475 -0.3708 -0.2299  0.9374
  555MOL0     C73168   9.831   2.971  10.579  0.5820 -0.7579 -0.6655
  555MOL0     C73169   9.804   2.910  10.722 -0.4519 -0.5388  0.5948
  555MOL0     C73170   9.854   3.010  10.824 -0.3833 -0.4211  0.0634
  555MOL0     C73171   9.807   2.975  10.963  0.6526 -0.1412  0.0406
  555MOL0    Cl73172   9.885   3.075  11.086 -0.1600  0.1972  0.1827
  555MOL0     C73173   9.551   2.563  10.124 -0.3309  0.2667 -0.5235
  555MOL0     C73174   9.455   2.464  10.088  0.2487 -1.3574  0.2974
  555MOL0     O73175   9.238   2.277  10.098 -0.7250 -0.3034 -0.8452
  555MOL0     C73176   9.085   2.096   9.967 -0.8103  0.9213  0.2156
  555MOL0     C73177   8.984   2.046   9.893  0.3872 -0.3046  0.7330
  555MOL0     N73178   8.544   1.889   9.234  0.4446  0.6283 -0.4954
  555MOL0     N73179   8.440   1.924   9.168 -0.4686  1.2079  0.5386
  555MOL0     C73180   7.526   2.748   8.704  0.2557 -0.2757 -0.2975
  555MOL0     C73181   7.542   2.778   8.570 -0.1611 -0.2035  1.3233
  555MOL0     C73182   7.700   2.808   8.157  0.2357 -0.1037  0.3867
  555MOL0     C73183   7.706   2.946   8.126  0.2575  0.6325 -0.2148
  555MOL0     C73184   7.734   2.991   7.999 -0.4404 -0.9741  0.6070
  555MOL0     C73185   7.772   2.894   7.903 -0.8807 -0.9277 -0.6827
  555MOL0     O73186   7.821   2.914   7.776 -0.5601 -0.6563 -0.2186
  555MOL0     C73187   7.823   3.049   7.731 -0.2813  0.3581  0.1554
  555MOL0     C73188   7.860   3.059   7.582  0.5309  0.1313  0.9799
  555MOL0     C73189   7.720   3.077   7.507 -0.1494 -0.2551  0.8194
  555MOL0     C73190   7.724   3.049   7.358  0.1425 -1.0546  0.2762
  555MOL0     C73191   7.796   3.153   7.280 -0.0147 -0.3074 -0.5470
  555MOL0     C73192   7.852   3.256   7.247 -0.6655  0.5521 -0.1759
  555MOL0     C73193   7.768   2.755   7.937 -0.5753  0.1220 -0.7802
  555MOL0     C73194   7.724   2.712   8.063 -0.6527  0.0485 -0.3712
  555MOL0     H73195   7.889   2.819   8.596  0.4987 -1.8018  0.1235
  555MOL0     H73196   7.860   2.747   8.792 -0.1304  0.3083 -1.3567
  555MOL0     H73197   7.673   2.665   9.107  1.3687  1.1914 -1.0732
  555MOL0     H73198   7.796   2.728   9.005  0.3386  0.3150 -1.6222
  555MOL0     H73199   7.818   2.501   8.891 -1.3088  3.7776  0.2762
  555MOL0     H73200   7.663   2.463   8.982 -0.5196 -0.5358 -0.0043
  555MOL0     H73201   7.795   2.497   9.191 -1.2171 -0.8854 -1.1593
  555MOL0     H73202   7.952   2.527   9.096 -0.1897  0.3492  0.2047
  555MOL0     H73203   7.802   2.266   9.086 -0.5321 -1.2415 -1.3051
  555MOL0     H73204   7.933   2.301   8.982 -1.0942  0.9713 -1.2003
  555MOL0     H73205   7.952   2.300   9.292  1.4718  1.9004  0.7080
  555MOL0     H73206   8.077   2.345   9.180  0.7021 -1.8796  0.8131
  555MOL0     H73207   8.063   2.130   9.045  2.2204 -1.8854 -0.1113
  555MOL0     H73208   7.951   2.065   9.158 -1.3747  0.7148  0.5791
  555MOL0     H73209   8.246   2.161   9.191  0.8821 -1.4138 -1.2312
  555MOL0     H73210   8.145   2.106   9.323 -3.1696  1.7636 -1.2517
  555MOL0     H73211   8.187   1.933   9.073 -0.7250  2.9319 -1.1638
  555MOL0     H73212   8.127   1.877   9.226  1.7253 -1.8561 -0.4666
  555MOL0     H73213   8.279   1.883   9.446 -1.4277  1.5821 -0.7139
  555MOL0     H73214   8.632   1.757   9.460 -1.2735 -2.5781  3.3297
  555MOL0     H73215   8.482   1.767   9.551 -2.1165  0.2483 -2.5987
  555MOL0     H73216   8.605   1.921   9.687 -2.3460  2.6377  0.2904
  555MOL0     H73217   8.501   2.012   9.586 -4.2365 -3.2988  1.5529
  555MOL0     H73218   8.720   2.019   9.415 -0.9065  1.9256  0.3727
  555MOL0     H73219   8.713   2.124   9.554  0.2436 -0.8488  1.1893
  555MOL0     H73220   8.925   2.028   9.503 -1.5531  1.5200 -1.0149
  555MOL0     H73221   8.867   1.867   9.544 -2.0389  0.9297 -2.3294
  555MOL0     H73222   9.088   2.126   9.588  0.6455 -0.4373 -0.0414
  555MOL0     H73223   9.277   2.229   9.717 -0.9824  1.9585 -0.3524
  555MOL0     H73224   9.636   2.284   9.869  2.4378  1.8834 -1.5518
  555MOL0     H73225   9.826   2.429   9.969  0.5976 -1.2724  4.0590
  555MOL0     H73226   9.735   2.704  10.300  0.3219  2.2108  1.5962
  555MOL0     H73227   9.682   2.821  10.168  0.3208  0.6477 -0.8921
  555MOL0     H73228   9.920   2.870  10.141  0.4931  0.2712  0.1935
  555MOL0     H73229   9.955   2.758  10.280 -1.7926 -2.0450  1.3056
  555MOL0     H73230   9.746   2.969  10.294  0.2012 -1.2817 -2.3740
  555MOL0     H73231   9.911   3.013  10.354 -1.6287  1.5665  0.3991
  555MOL0     H73232   9.720   2.806  10.485 -0.2824 -0.8070 -1.0373
  555MOL0     H73233   9.889   2.782  10.486 -0.0241 -0.0751 -0.2420
  555MOL0     H73234   9.763   3.056  10.576  3.4616  1.8192  1.0336
  555MOL0     H73235   9.930   3.017  10.568  1.2611 -1.7729  0.8269
  555MOL0     H73236   9.854   2.817  10.748  0.9615  0.8904  3.4698
  555MOL0     H73237   9.697   2.887  10.722 -1.2223  2.5188 -0.2039
  555MOL0     H73238   9.963   3.013  10.815 -0.5220  2.3243 -1.6275
  555MOL0     H73239   9.819   3.112  10.810  3.3852  1.1928  1.2857
  555MOL0     H73240   9.833   2.872  10.986 -0.7265 -0.3441  0.7512
  555MOL0     H73241   9.698   2.981  10.957  0.8073  2.2313 -1.7252
  555MOL0     H73242   9.523   2.639  10.196 -0.6209  0.3782 -0.7481
  555MOL0     H73243   9.362   2.477  10.142  0.3598  0.0669  0.1847
  555MOL0     H73244   9.084   2.076  10.074 -0.1828 -0.5134 -0.0163
  555MOL0     H73245   8.902   2.009   9.954  0.0957  0.9322  1.1277
  555MOL0     H73246   7.426   2.734   8.744 -0.9956  2.2336 -2.2715
  555MOL0     H73247   7.456   2.762   8.506  1.0808  1.0094 -0.7777
  555MOL0     H73248   7.697   3.018   8.208 -1.6350  2.3360 -1.8083
  555MOL0     H73249   7.741   3.097   7.976  0.6443 -0.8315  1.5344
  555MOL0     H73250   7.893   3.095   7.801  2.3425 -1.0264 -1.4151
  555MOL0     H73251   7.723   3.090   7.753  0.2293  0.7859  1.8194
  555MOL0     H73252   7.911   3.155   7.571  3.0151 -1.1975  0.0728
  555MOL0     H73253   7.925   2.978   7.546  1.8149  0.5329  2.3087
  555MOL0     H73254   7.702   3.184   7.524  2.7069  0.6438 -1.1042
  555MOL0     H73255   7.638   3.013   7.541  1.5325 -2.6848  0.4997
  555MOL0     H73256   7.769   2.950   7.341 -0.5505 -1.3328  0.0427
  555MOL0     H73257   7.623   3.039   7.317  0.0224  2.1281 -0.4179
  555MOL0     H73258   7.902   3.333   7.192 -0.7013 -2.5973 -5.3047
  555MOL0     H73259   7.814   2.681   7.873  0.9081 -1.3839  1.8295
  555MOL0     H73260   7.703   2.606   8.078 -0.3727  0.3287  2.6599
  556MOL0     O73261   0.145   1.871  11.242 -0.0651 -0.3285  0.0006
  556MOL0     C73262   0.188   1.903  11.133 -0.1734  0.4284 -0.0076
  556MOL0     O73263   0.319   1.895  11.086  0.2377 -0.0027 -0.2519
  556MOL0     C73264   0.422   1.875  11.177  0.4372  1.6122  0.5850
  556MOL0     C73265   0.533   1.808  11.108 -0.2226  0.0019  0.0137
  556MOL0     C73266   0.655   1.782  11.177  0.2276  0.0177  0.1818
  556MOL0     C73267   0.654   1.814  11.313  0.6201 -0.8280 -0.2460
  556MOL0     O73268   0.760   1.796  11.397  0.0580 -0.7095  0.2921
  556MOL0     C73269   0.846   1.688  11.374 -0.3830  0.4409  0.2939
  556MOL0     C73270   0.973   1.738  11.310  0.0315  0.0855  0.1855
  556MOL0     C73271   1.092   1.686  11.387  0.0447 -0.6688  0.6609
  556MOL0     C73272   1.210   1.780  11.353 -0.7054 -0.3780  0.6940
  556MOL0     C73273   1.334   1.756  11.441 -0.6301  0.4974 -0.3219
  556MOL0     C73274   1.443   1.859  11.456  0.1426  0.1871  0.0195
  556MOL0     C73275   1.496   1.901  11.322 -0.9661  0.0126 -0.8453
  556MOL0     C73276   1.643   1.951  11.337  0.1358 -0.0917  0.2404
  556MOL0     N73277   1.663   2.055  11.435  0.3215  0.5230  0.3406
  556MOL0     C73278   1.765   2.070  11.524  0.6467  0.2444 -0.3822
  556MOL0     C73279   1.753   2.199  11.568  1.0222  0.0892  0.1598
  556MOL0     C73280   1.832   2.283  11.656 -0.6660 -0.1602  0.4242
  556MOL0     C73281   1.924   2.209  11.757  0.0035  0.4199 -0.4811
  556MOL0     C73282   1.983   2.310  11.859 -1.1272  0.2311 -0.4907
  556MOL0     C73283   2.130   2.270  11.905 -0.4670 -0.3003 -0.9578
  556MOL0     O73284   2.198   2.384  11.952 -0.5575  0.3392  0.1158
  556MOL0     C73285   2.328   2.353  11.996  0.5169  0.7121  0.0403
  556MOL0     C73286   2.394   2.441  12.078 -0.8052  0.4649 -0.1783
  556MOL0     C73287   2.529   2.434  12.114 -0.3227 -0.1215  0.0525
  556MOL0     C73288   2.604   2.329  12.056  1.1087 -0.0859  0.8689
  556MOL0     C73289   2.749   2.323  12.075  0.2215  0.0728 -0.2951
  556MOL0     O73290   2.809   2.228  12.001 -0.0170  0.4378 -0.5249
  556MOL0     C73291   2.946   2.210  12.009 -0.6731  0.5292 -0.4936
  556MOL0     C73292   2.998   2.076  12.034  0.5137 -1.1355 -0.8976
  556MOL0     C73293   3.141   2.045  12.056  0.2861  0.2116 -0.2190
  556MOL0     C73294   3.225   2.149  12.024  0.7863  0.2100 -0.0876
  556MOL0     O73295   3.361   2.135  12.019 -0.0937 -0.3886  0.7978
  556MOL0     C73296   3.394   2.017  11.946 -0.7120  0.0431  0.5225
  556MOL0     C73297   3.361   2.020  11.793  1.7045 -0.1979  1.3893
  556MOL0     C73298   3.445   2.134  11.721  0.9885 -0.1360  0.2837
  556MOL0     C73299   3.347   2.255  11.698  0.3585  0.2171  0.4997
  556MOL0     C73300   3.385   2.354  11.585 -0.7534 -0.0473  0.1327
  556MOL0     C73301   3.328   2.490  11.603 -0.5687  0.1244  0.5969
  556MOL0     C73302   3.388   2.584  11.500 -0.7060  0.4705 -0.0865
  556MOL0     C73303   3.363   2.728  11.537 -0.3095  0.9347  0.5522
  556MOL0    Cl73304   3.445   2.769  11.693 -0.1630  0.3213 -0.1929
  556MOL0     C73305   3.177   2.288  12.009  0.3644  0.1882  1.1774
  556MOL0     C73306   3.037   2.311  11.992  0.2626  0.3649 -0.2054
  556MOL0     O73307   2.801   2.401  12.148  0.5356  0.0348 -0.1078
  556MOL0     C73308   2.544   2.238  11.972 -0.0372  0.1852  0.3594
  556MOL0     C73309   2.412   2.253  11.936 -0.3875 -0.0938 -0.1538
  556MOL0     N73310   1.647   2.263  11.514 -0.4164 -0.7827  1.0594
  556MOL0     N73311   1.599   2.173  11.431 -0.0860 -0.5716  0.1655
  556MOL0     C73312   0.553   1.876  11.370  1.0799 -0.4076 -0.5985
  556MOL0     C73313   0.438   1.915  11.309  0.6036  0.4252  0.0234
  556MOL0     C73314   0.082   1.942  11.036 -0.1957 -0.3844 -0.3459
  556MOL0     C73315   0.101   1.933  10.895 -0.1405  0.0206  0.1464
  556MOL0     C73316  -0.001   1.942  10.803  0.1908 -0.5463  0.3103
  556MOL0     C73317  -0.129   1.965  10.850  0.2929 -0.4342 -0.3842
  556MOL0     O73318  -0.234   1.951  10.762  0.5207 -0.1355  0.3236
  556MOL0     C73319  -0.380   1.977  10.797 -1.1563 -0.5453 -0.1677
  556MOL0     C73320  -0.444   1.939  10.668  0.1278  1.0761  0.8601
  556MOL0     C73321  -0.599   1.935  10.681 -0.7966  0.1367 -0.4663
  556MOL0     C73322  -0.674   1.921  10.545 -0.5549  0.5928 -0.5184
  556MOL0     C73323  -0.652   1.788  10.504 -0.4367  0.1973  0.0230
  556MOL0     C73324  -0.649   1.671  10.451  0.8572  0.0577 -0.3173
  556MOL0     C73325  -0.155   1.987  10.988  0.2146 -0.8700  0.2932
  556MOL0     C73326  -0.047   1.976  11.080 -0.0000  0.7260 -0.8351
  556MOL0     H73327   0.514   1.790  11.003 -0.4946  1.4995 -0.2239
  556MOL0     H73328   0.741   1.734  11.133  0.0003  0.5530 -0.8898
  556MOL0     H73329   0.796   1.612  11.314 -0.3936 -0.1877  1.0830
  556MOL0     H73330   0.863   1.649  11.475  1.1563  0.2418 -0.0189
  556MOL0     H73331   0.973   1.847  11.299  0.0602  0.2132  1.3960
  556MOL0     H73332   0.981   1.697  11.209 -0.4574 -2.2282  1.0173
  556MOL0     H73333   1.118   1.582  11.364 -0.3409 -1.2978  2.8576
  556MOL0     H73334   1.078   1.688  11.495 -1.4635  0.2375  0.4791
  556MOL0     H73335   1.238   1.772  11.248 -1.2790 -2.5271  0.6678
  556MOL0     H73336   1.171   1.880  11.377 -1.1123 -0.7107  1.4593
  556MOL0     H73337   1.386   1.666  11.407 -2.6639  0.3414 -3.3921
  556MOL0     H73338   1.296   1.738  11.542 -3.5071 -0.1012 -1.4284
  556MOL0     H73339   1.521   1.812  11.517  1.7286 -0.7902 -2.6070
  556MOL0     H73340   1.403   1.952  11.498 -0.5331 -0.1703  0.1795
  556MOL0     H73341   1.512   1.820  11.250  3.4317  0.1180 -0.3137
  556MOL0     H73342   1.430   1.974  11.275  0.6563  0.4766 -2.5377
  556MOL0     H73343   1.684   1.986  11.242  1.0247 -3.8509 -0.9532
  556MOL0     H73344   1.707   1.873  11.379 -1.8796 -0.8621  2.0853
  556MOL0     H73345   1.835   1.990  11.543 -2.1462 -2.4240 -0.4700
  556MOL0     H73346   1.769   2.363  11.695  0.9626  2.0805 -1.2214
  556MOL0     H73347   1.901   2.335  11.588  2.5652 -2.9479  1.2970
  556MOL0     H73348   2.001   2.143  11.716  1.4629 -1.7169  4.8128
  556MOL0     H73349   1.863   2.138  11.815 -1.6907 -0.1061 -2.7859
  556MOL0     H73350   1.979   2.418  11.839  0.3540  0.4813  0.4374
  556MOL0     H73351   1.914   2.299  11.944  2.9734 -3.1503  2.8502
  556MOL0     H73352   2.182   2.247  11.812  0.8903  2.1891 -0.9056
  556MOL0     H73353   2.130   2.181  11.969  0.7002  0.3371 -0.0129
  556MOL0     H73354   2.333   2.522  12.117  1.5818  1.8454  0.9572
  556MOL0     H73355   2.568   2.513  12.178 -2.9943  0.0270  1.6907
  556MOL0     H73356   2.933   1.999  12.075  0.1749  0.3889  1.6661
  556MOL0     H73357   3.170   1.943  12.078  0.5990  0.2778 -0.3100
  556MOL0     H73358   3.367   1.918  11.985 -3.3210  0.3774 -0.2356
  556MOL0     H73359   3.502   2.012  11.965 -0.9636  0.2728  2.1396
  556MOL0     H73360   3.253   2.028  11.782  1.3654 -2.8837  2.0778
  556MOL0     H73361   3.379   1.923  11.747 -1.1396 -0.9050  1.5981
  556MOL0     H73362   3.496   2.098  11.631 -1.5942 -2.0269 -0.5463
  556MOL0     H73363   3.529   2.166  11.783  1.9725 -3.1415  0.6843
  556MOL0     H73364   3.248   2.222  11.664  1.8666 -2.9055 -1.2717
  556MOL0     H73365   3.338   2.309  11.793 -1.3586  0.3875  0.2742
  556MOL0     H73366   3.370   2.321  11.482  1.6438  0.2021 -0.3547
  556MOL0     H73367   3.493   2.365  11.600 -0.5712 -1.6421  0.2264
  556MOL0     H73368   3.353   2.540  11.697  1.6229 -2.1509  1.3182
  556MOL0     H73369   3.219   2.480  11.595 -0.2162 -2.2496 -3.1406
  556MOL0     H73370   3.495   2.564  11.495 -0.3051  2.2497  0.4835
  556MOL0     H73371   3.345   2.555  11.404 -0.2633 -1.7479  0.3226
  556MOL0     H73372   3.256   2.746  11.530 -0.6621 -1.3297 -1.0105
  556MOL0     H73373   3.418   2.792  11.466 -2.4485  2.4044  0.1347
  556MOL0     H73374   3.248   2.367  11.988  0.4630 -0.5348 -1.6112
  556MOL0     H73375   2.996   2.409  11.973 -2.4280  0.3379  4.1314
  556MOL0     H73376   2.595   2.148  11.940  2.3606  2.2209 -2.1017
  556MOL0     H73377   2.365   2.183  11.869 -0.4204 -2.5261  2.2326
  556MOL0     H73378   0.573   1.922  11.466  0.5001 -0.6138 -0.3763
  556MOL0     H73379   0.370   1.986  11.355  0.8203  1.2261 -0.8537
  556MOL0     H73380   0.196   1.908  10.849 -1.5319  0.5999 -3.3878
  556MOL0     H73381   0.011   1.936  10.695 -5.4921  1.0328 -0.7197
  556MOL0     H73382  -0.409   2.080  10.820  0.8120  0.2978 -1.1818
  556MOL0     H73383  -0.409   1.906  10.875  0.6403 -0.3272  0.7634
  556MOL0     H73384  -0.410   2.021  10.604  4.2743  1.8874  3.6962
  556MOL0     H73385  -0.406   1.844  10.630 -1.7759  1.3990 -2.2106
  556MOL0     H73386  -0.625   2.029  10.731  0.5756  0.4851 -0.3665
  556MOL0     H73387  -0.629   1.864  10.759  1.6005 -1.0161 -0.5292
  556MOL0     H73388  -0.775   1.953  10.571  0.6440  3.8104  0.6656
  556MOL0     H73389  -0.626   1.982  10.468  2.0947 -0.1865  0.4031
  556MOL0     H73390  -0.647   1.576  10.402 -1.4674 -1.5161  2.3094
  556MOL0     H73391  -0.258   1.986  11.020 -1.3829 -1.5754 -4.1860
  556MOL0     H73392  -0.073   1.990  11.184  4.5683  1.2814  0.4396
  557MOL0     O73393   8.502   7.773   5.594  0.2745  0.3667 -0.2570
  557MOL0     C73394   8.531   7.658   5.627  0.1122 -0.2425 -0.6322
  557MOL0     O73395   8.453   7.551   5.597 -0.2647 -0.2178 -0.4488
  557MOL0     C73396   8.330   7.580   5.547 -0.2851 -0.5973 -0.3632
  557MOL0     C73397   8.219   7.619   5.624  0.7853  0.2102  0.7557
  557MOL0     C73398   8.096   7.652   5.557 -1.6666  0.3397 -1.0395
  557MOL0     C73399   8.095   7.653   5.417 -0.5613  0.5326  0.6616
  557MOL0     O73400   7.983   7.698   5.350 -0.5745  0.4832 -0.5934
  557MOL0     C73401   7.852   7.690   5.398  0.7182 -0.2795  1.0922
  557MOL0     C73402   7.818   7.539   5.377 -0.6793 -0.8973 -0.3339
  557MOL0     C73403   7.701   7.499   5.472  0.7690  0.5696 -0.1797
  557MOL0     C73404   7.570   7.576   5.439 -0.6914 -0.4360 -0.4729
  557MOL0     C73405   7.471   7.547   5.546 -0.4868  0.4078 -0.1898
  557MOL0     C73406   7.323   7.568   5.495  0.5644 -0.0735 -0.0141
  557MOL0     C73407   7.219   7.486   5.589  0.1617  0.2264 -0.1363
  557MOL0     C73408   7.139   7.374   5.518 -0.1977  0.5588 -0.9634
  557MOL0     N73409   7.207   7.246   5.530  0.2585 -0.0453  0.0183
  557MOL0     C73410   7.287   7.194   5.430 -0.2585  0.1467  0.1161
  557MOL0     C73411   7.328   7.072   5.466  0.6375  0.2328 -0.3784
  557MOL0     C73412   7.396   6.977   5.375  0.1063 -0.5552  0.3696
  557MOL0     C73413   7.330   6.841   5.373 -0.3845  0.7939  1.1423
  557MOL0     C73414   7.388   6.755   5.264 -0.3966  1.3155 -0.0619
  557MOL0     C73415   7.318   6.626   5.259  0.4395  0.5294 -1.2374
  557MOL0     O73416   7.207   6.647   5.171  0.7420  0.2545 -0.2781
  557MOL0     C73417   7.127   6.536   5.157  0.5417 -0.2414  0.4464
  557MOL0     C73418   7.058   6.480   5.274 -0.2999 -0.6921  0.4029
  557MOL0     C73419   6.956   6.389   5.254 -0.6347  0.0841 -1.5191
  557MOL0     C73420   6.924   6.341   5.124 -0.8730 -0.4527 -0.0368
  557MOL0     C73421   6.821   6.235   5.112  1.2806 -0.0649 -0.0268
  557MOL0     O73422   6.713   6.227   5.199  0.3490  0.0037  0.0222
  557MOL0     C73423   6.626   6.123   5.184 -0.6240 -0.1020  0.1214
  557MOL0     C73424   6.489   6.151   5.164 -0.5920  0.3950 -0.0319
  557MOL0     C73425   6.402   6.049   5.114  0.0208 -0.2187  0.2696
  557MOL0     C73426   6.450   5.919   5.089 -0.7686  0.0096 -0.4968
  557MOL0     O73427   6.372   5.825   5.036  0.0532 -0.7271  0.2233
  557MOL0     C73428   6.300   5.870   4.917 -0.5315 -0.5355 -0.2570
  557MOL0     C73429   6.222   5.752   4.853 -0.3772 -0.2809 -0.6308
  557MOL0     C73430   6.097   5.724   4.920 -0.3883  0.6573 -0.0766
  557MOL0     C73431   6.027   5.620   4.831 -0.1075  0.5184 -0.5330
  557MOL0     C73432   5.890   5.577   4.887  0.3740  0.2001 -0.0102
  557MOL0     C73433   5.792   5.691   4.936  0.4581 -0.2013  0.1946
  557MOL0     C73434   5.665   5.639   5.002  0.3465  0.5133 -0.2836
  557MOL0     C73435   5.580   5.769   5.034  0.3834  0.9128  0.9791
  557MOL0    Cl73436   5.664   5.855   5.163 -0.4701 -0.3695 -0.2764
  557MOL0     C73437   6.577   5.891   5.133  0.0971 -0.4633  0.2045
  557MOL0     C73438   6.673   5.991   5.171 -0.8661  1.2435 -0.2009
  557MOL0     O73439   6.825   6.171   5.007 -0.1326  0.5804 -0.7134
  557MOL0     C73440   6.999   6.388   5.014  0.5710 -0.5524  0.4175
  557MOL0     C73441   7.089   6.488   5.030 -0.5533  1.1196 -0.2964
  557MOL0     N73442   7.280   7.053   5.597 -0.5646  0.2530 -0.1682
  557MOL0     N73443   7.214   7.155   5.630  0.2122  0.1492 -0.6308
  557MOL0     C73444   8.205   7.613   5.342  0.2180 -1.1869  1.2360
  557MOL0     C73445   8.323   7.574   5.405 -0.8201  0.3390 -0.0221
  557MOL0     C73446   8.663   7.639   5.690  0.4556 -0.0082 -0.1872
  557MOL0     C73447   8.715   7.509   5.702  0.9729 -0.8237 -0.9723
  557MOL0     C73448   8.817   7.474   5.784 -0.3615 -0.1861 -0.4309
  557MOL0     C73449   8.891   7.572   5.844  0.4672  0.5261 -0.8425
  557MOL0     O73450   8.995   7.562   5.925  0.4455  0.8100  0.2744
  557MOL0     C73451   9.119   7.574   5.875 -0.5141  0.6765  0.3948
  557MOL0     C73452   9.207   7.443   5.890  0.3012  0.0686 -0.1788
  557MOL0     C73453   9.355   7.453   5.849  0.1823  0.5250 -0.3489
  557MOL0     C73454   9.385   7.497   5.701 -0.2024 -0.4327 -1.4934
  557MOL0     C73455   9.425   7.640   5.696  0.1752 -0.5058 -0.0719
  557MOL0     C73456   9.448   7.759   5.686 -0.5508 -0.0911 -0.6502
  557MOL0     C73457   8.849   7.705   5.831 -1.2758 -0.5690 -0.1999
  557MOL0     C73458   8.739   7.739   5.753 -0.4718  0.8663 -0.2959
  557MOL0     H73459   8.223   7.633   5.732  1.3762 -0.3677  0.8175
  557MOL0     H73460   8.019   7.693   5.621 -1.4068  1.2755 -1.3092
  557MOL0     H73461   7.796   7.758   5.333 -1.0510 -3.3413 -0.7710
  557MOL0     H73462   7.831   7.729   5.498  0.6458  2.0263  0.2452
  557MOL0     H73463   7.904   7.479   5.408  1.6173  1.9383 -0.7294
  557MOL0     H73464   7.795   7.520   5.272  0.7009  3.1538 -1.5781
  557MOL0     H73465   7.715   7.536   5.574  0.0598 -1.8157  0.8406
  557MOL0     H73466   7.679   7.392   5.478 -0.7962  0.8932  0.3864
  557MOL0     H73467   7.602   7.681   5.434  0.7037 -0.8057  0.1258
  557MOL0     H73468   7.539   7.530   5.345  3.5255 -1.6435 -1.4849
  557MOL0     H73469   7.484   7.610   5.634 -2.6885  2.7185 -1.3758
  557MOL0     H73470   7.483   7.446   5.586  2.5945  0.6281 -0.2986
  557MOL0     H73471   7.300   7.536   5.394 -2.1520 -0.3933  0.6123
  557MOL0     H73472   7.293   7.673   5.483  0.9197  0.0820  0.3896
  557MOL0     H73473   7.263   7.436   5.676 -0.2467 -0.0480 -0.0851
  557MOL0     H73474   7.145   7.552   5.634  1.2829 -0.8290  3.6251
  557MOL0     H73475   7.123   7.391   5.411 -0.9834  1.7057 -0.6753
  557MOL0     H73476   7.040   7.369   5.564  0.1691 -1.8240 -0.3261
  557MOL0     H73477   7.314   7.240   5.336 -0.6456 -1.5725 -0.8841
  557MOL0     H73478   7.502   6.960   5.399  0.3728 -3.7288 -2.3337
  557MOL0     H73479   7.388   7.033   5.282 -2.2828  1.0694  1.4479
  557MOL0     H73480   7.222   6.842   5.387 -0.6060  3.2423 -0.0719
  557MOL0     H73481   7.363   6.796   5.466  2.3485  0.9287  0.3267
  557MOL0     H73482   7.390   6.797   5.162 -2.8664  2.3539  0.2461
  557MOL0     H73483   7.490   6.729   5.293 -1.7310 -3.8425  0.9598
  557MOL0     H73484   7.284   6.596   5.358 -1.5732  0.3446 -1.9367
  557MOL0     H73485   7.394   6.555   5.225  1.5044 -0.5738  2.8787
  557MOL0     H73486   7.061   6.502   5.380 -2.9042 -1.2770  0.6763
  557MOL0     H73487   6.907   6.356   5.346  0.8035  2.2440  0.1147
  557MOL0     H73488   6.458   6.253   5.185 -1.2622  0.0752  0.6155
  557MOL0     H73489   6.295   6.071   5.110  0.0963  0.5079  1.5225
  557MOL0     H73490   6.379   5.895   4.846 -0.2472 -0.4624  0.0819
  557MOL0     H73491   6.231   5.952   4.941 -2.1484 -0.7936 -3.5394
  557MOL0     H73492   6.284   5.666   4.825 -2.0694 -1.0214 -2.3233
  557MOL0     H73493   6.196   5.786   4.752  2.5691 -1.3879 -1.8813
  557MOL0     H73494   6.037   5.814   4.939  3.4842  3.4396  0.2512
  557MOL0     H73495   6.116   5.673   5.015 -0.6665  0.2926 -0.2183
  557MOL0     H73496   6.002   5.660   4.732  0.7616 -0.8661 -1.3399
  557MOL0     H73497   6.092   5.533   4.818  0.2280 -0.0539  3.6701
  557MOL0     H73498   5.913   5.508   4.970  1.6536 -3.3447 -3.0041
  557MOL0     H73499   5.836   5.519   4.812  0.1510 -1.3699  1.2981
  557MOL0     H73500   5.774   5.754   4.848 -1.0605  1.8927  1.8780
  557MOL0     H73501   5.830   5.756   5.015 -1.1732  0.4303  0.4831
  557MOL0     H73502   5.622   5.569   4.930  2.6411  0.4874 -1.7331
  557MOL0     H73503   5.681   5.582   5.094 -4.1025  2.6080  2.1021
  557MOL0     H73504   5.485   5.726   5.067  0.3110  2.2539  2.6825
  557MOL0     H73505   5.558   5.844   4.957  0.8587  2.9676  2.7481
  557MOL0     H73506   6.608   5.790   5.108 -3.5086 -2.4665  2.8300
  557MOL0     H73507   6.778   5.966   5.176  0.3484  4.4496 -4.0788
  557MOL0     H73508   6.978   6.335   4.922  1.8151 -0.8077  0.2748
  557MOL0     H73509   7.145   6.527   4.945  3.6864  1.1715  2.2238
  557MOL0     H73510   8.206   7.638   5.236  1.9065  1.4040  1.7637
  557MOL0     H73511   8.409   7.546   5.344  0.8234  1.9392  1.4273
  557MOL0     H73512   8.663   7.425   5.656 -0.0872 -1.5521  1.4094
  557MOL0     H73513   8.863   7.375   5.791 -0.5313 -0.4028 -2.0643
  557MOL0     H73514   9.183   7.651   5.919  0.9321 -0.2314 -0.0410
  557MOL0     H73515   9.112   7.600   5.769  3.1679  0.0217 -0.1468
  557MOL0     H73516   9.199   7.397   5.989 -1.6102 -1.8662 -1.1577
  557MOL0     H73517   9.173   7.368   5.819 -0.4508  1.5809 -1.4824
  557MOL0     H73518   9.398   7.354   5.861 -2.7567 -0.5989  1.9921
  557MOL0     H73519   9.410   7.518   5.917  1.3730 -0.1237 -0.6641
  557MOL0     H73520   9.473   7.441   5.667  0.1337 -1.1289  0.3867
  557MOL0     H73521   9.304   7.476   5.631  0.8654 -1.5095 -2.4823
  557MOL0     H73522   9.471   7.862   5.667 -2.3266  0.6081  0.7592
  557MOL0     H73523   8.909   7.781   5.879  0.0018 -2.0162  0.5670
  557MOL0     H73524   8.712   7.844   5.744 -1.8441  0.6028  0.3898
  558MOL0     O73525   4.190  10.369   1.781 -0.0054  0.5082  0.5661
  558MOL0     C73526   4.207  10.392   1.906  0.7495 -1.2633  0.6744
  558MOL0     O73527   4.118  10.457   1.995 -0.2299  0.6775  0.1065
  558MOL0     C73528   4.014  10.505   1.921 -0.0935  0.4282 -0.2144
  558MOL0     C73529   4.017  10.638   1.912 -0.8754 -0.5448  0.0389
  558MOL0     C73530   3.906  10.709   1.856 -0.0829 -0.4313 -0.3775
  558MOL0     C73531   3.794  10.632   1.815  0.4743 -0.7123 -0.4164
  558MOL0     O73532   3.689  10.702   1.773  0.2082 -0.0021  0.2919
  558MOL0     C73533   3.553  10.662   1.806 -0.6904 -0.4447  0.1428
  558MOL0     C73534   3.476  10.785   1.760 -0.2269 -0.5334  0.5012
  558MOL0     C73535   3.326  10.762   1.745 -0.0449  0.0102 -0.2105
  558MOL0     C73536   3.242  10.851   1.845  0.2440 -0.8584 -1.0251
  558MOL0     C73537   3.097  10.848   1.811  0.0544 -0.2833  0.1177
  558MOL0     C73538   3.047  10.701   1.792  0.3290 -0.1430 -1.3046
  558MOL0     C73539   2.895  10.693   1.810 -0.3100 -0.1094  0.1210
  558MOL0     C73540   2.813  10.728   1.689 -0.8550  0.1760 -0.2802
  558MOL0     N73541   2.828  10.869   1.638 -1.5726  0.6082 -0.6320
  558MOL0     C73542   2.890  10.903   1.523 -0.5932  0.9053 -0.4290
  558MOL0     C73543   2.929  11.032   1.554 -0.4117 -0.0272  0.2876
  558MOL0     C73544   3.028  11.110   1.461  0.3475 -0.0123 -0.0776
  558MOL0     C73545   3.174  11.062   1.470 -0.6254 -0.5133  0.2579
  558MOL0     C73546   3.198  10.960   1.357  0.9463  0.8298  0.9839
  558MOL0     C73547   3.205  11.029   1.220 -1.8042  0.6071 -0.4806
  558MOL0     O73548   3.285  10.967   1.116  0.3139 -1.2707  1.0800
  558MOL0     C73549   3.419  10.966   1.113 -0.2705  0.0403 -0.2769
  558MOL0     C73550   3.517  10.999   1.212  0.4159 -0.7239  0.3240
  558MOL0     C73551   3.649  10.977   1.190 -0.4669  0.3767  0.2733
  558MOL0     C73552   3.699  10.917   1.072  0.4917 -0.7211 -0.2158
  558MOL0     C73553   3.841  10.893   1.066  0.7642  0.5159  0.5478
  558MOL0     O73554   3.916  10.953   1.158  0.3739 -0.0439  0.1240
  558MOL0     C73555   4.056  10.947   1.151 -0.2741  0.2773  0.4377
  558MOL0     C73556   4.106  10.973   1.277 -0.4384  0.0562  0.0756
  558MOL0     C73557   4.243  10.964   1.294 -0.2881  0.2760 -0.2395
  558MOL0     C73558   4.326  10.935   1.179  0.2529 -0.6442 -0.9169
  558MOL0     O73559   4.462  10.917   1.170  1.1730  0.0596  0.4998
  558MOL0     C73560   4.521  10.868   1.288  1.1235  0.1615 -0.1856
  558MOL0     C73561   4.671  10.884   1.271 -0.4595  0.2030 -0.1928
  558MOL0     C73562   4.739  10.846   1.400 -0.0922  0.7797 -0.5411
  558MOL0     C73563   4.835  10.729   1.379 -1.2243  0.2756  0.2372
  558MOL0     C73564   4.872  10.655   1.504  0.4192 -0.7051  1.1085
  558MOL0     C73565   4.927  10.745   1.605  0.1066  0.6350  0.4487
  558MOL0     C73566   4.957  10.672   1.740  0.0219 -0.4130 -0.5158
  558MOL0     C73567   5.072  10.567   1.732 -0.4759  0.1701  0.2108
  558MOL0    Cl73568   5.124  10.502   1.892  0.0539  0.8090 -0.1049
  558MOL0     C73569   4.269  10.936   1.048  0.0968  0.1849  0.6388
  558MOL0     C73570   4.131  10.939   1.032  0.2931 -0.1698  0.1739
  558MOL0     O73571   3.881  10.835   0.971 -0.7224  0.2991  0.8243
  558MOL0     C73572   3.608  10.897   0.966  0.4401 -0.2229 -0.9684
  558MOL0     C73573   3.469  10.916   0.986 -0.2755 -0.7385 -1.1366
  558MOL0     N73574   2.863  11.078   1.662  1.1849 -0.1766  0.5538
  558MOL0     N73575   2.809  10.980   1.718  0.1574  1.0374  0.3260
  558MOL0     C73576   3.795  10.492   1.819 -0.9964 -0.4127 -0.3850
  558MOL0     C73577   3.903  10.430   1.873 -0.4594 -0.1423  0.4915
  558MOL0     C73578   4.350  10.371   1.955 -0.1091  0.0595  0.0716
  558MOL0     C73579   4.455  10.331   1.870  0.5071  0.1042  0.5091
  558MOL0     C73580   4.580  10.323   1.916 -1.0225  0.2358 -0.1104
  558MOL0     C73581   4.614  10.356   2.049 -0.3257 -0.5017 -0.1075
  558MOL0     O73582   4.745  10.346   2.092  0.2492  0.4669  0.4147
  558MOL0     C73583   4.832  10.447   2.041  0.4434 -0.2788 -0.5675
  558MOL0     C73584   4.843  10.560   2.157  0.3235  0.8115 -0.4484
  558MOL0     C73585   4.725  10.662   2.165  0.3949 -0.7682  0.4174
  558MOL0     C73586   4.767  10.774   2.264 -0.4316 -0.2334 -0.1123
  558MOL0     C73587   4.783  10.732   2.400 -0.4291 -0.2507 -0.0027
  558MOL0     C73588   4.779  10.700   2.515  0.4364 -0.2867  0.1853
  558MOL0     C73589   4.507  10.377   2.139 -0.0551  0.9272  0.7238
  558MOL0     C73590   4.376  10.392   2.091  1.4188  0.1038 -0.0275
  558MOL0     H73591   4.094  10.700   1.957 -1.3324 -1.0601  1.6060
  558MOL0     H73592   3.895  10.816   1.864  0.1198 -0.4778  0.6833
  558MOL0     H73593   3.543  10.646   1.914 -1.2824 -2.4536 -0.1721
  558MOL0     H73594   3.533  10.582   1.734  0.9443  0.0571 -0.9197
  558MOL0     H73595   3.507  10.808   1.658  2.1539 -0.6724  1.1295
  558MOL0     H73596   3.505  10.878   1.809  1.2359  1.4107 -3.6275
  558MOL0     H73597   3.310  10.657   1.769  0.3572  0.0777  0.3944
  558MOL0     H73598   3.293  10.786   1.644  4.0232 -0.5364 -1.8334
  558MOL0     H73599   3.255  10.804   1.943  3.4456 -2.0713 -1.8970
  558MOL0     H73600   3.289  10.949   1.852  4.9124 -2.7081 -2.5301
  558MOL0     H73601   3.085  10.896   1.714 -1.5907 -2.3650 -0.7907
  558MOL0     H73602   3.042  10.895   1.892  0.2680 -0.9957  0.6958
  558MOL0     H73603   3.093  10.638   1.869  2.6110  1.4128 -1.2834
  558MOL0     H73604   3.081  10.656   1.698 -0.3276  0.1258 -1.6813
  558MOL0     H73605   2.874  10.591   1.845 -0.6928  0.3868  1.3938
  558MOL0     H73606   2.866  10.767   1.885  0.6338 -1.2929  1.7286
  558MOL0     H73607   2.709  10.704   1.714 -1.2623  0.0553 -1.9788
  558MOL0     H73608   2.844  10.665   1.605  1.1321 -0.4417  0.8631
  558MOL0     H73609   2.912  10.844   1.435 -2.5551  0.9425 -0.9982
  558MOL0     H73610   3.026  11.215   1.492  1.6310  0.2300 -0.7931
  558MOL0     H73611   2.990  11.102   1.359  2.1048 -1.9229 -0.6547
  558MOL0     H73612   3.181  11.019   1.571  0.9867 -0.3891  0.2339
  558MOL0     H73613   3.247  11.144   1.461  1.2897 -2.3275 -1.8725
  558MOL0     H73614   3.290  10.900   1.362  0.7589 -0.6381 -5.2683
  558MOL0     H73615   3.112  10.892   1.355 -0.2563  2.3284 -0.0513
  558MOL0     H73616   3.232  11.133   1.239 -0.7052  0.5595 -1.5886
  558MOL0     H73617   3.110  11.044   1.169 -2.3774 -0.7500  0.1483
  558MOL0     H73618   3.484  11.035   1.310 -0.9971  0.2340 -0.4553
  558MOL0     H73619   3.714  11.002   1.273 -0.3986 -0.4680  0.4817
  558MOL0     H73620   4.030  11.000   1.351 -0.6834  2.1579 -0.8500
  558MOL0     H73621   4.288  10.968   1.393  0.4425  1.0380 -0.5864
  558MOL0     H73622   4.487  10.766   1.308 -0.1949  0.3819 -1.1241
  558MOL0     H73623   4.489  10.914   1.382  0.5057 -1.6353  0.5353
  558MOL0     H73624   4.703  10.985   1.246 -1.1458  1.1914  2.5663
  558MOL0     H73625   4.706  10.817   1.192  0.6926 -1.2304  1.4477
  558MOL0     H73626   4.675  10.807   1.480  3.5651  0.5812  2.5847
  558MOL0     H73627   4.790  10.926   1.455 -1.9023 -1.0713  4.5166
  558MOL0     H73628   4.796  10.654   1.309 -0.3687  0.3986 -0.3830
  558MOL0     H73629   4.922  10.782   1.339 -1.1152  1.6113  2.1464
  558MOL0     H73630   4.946  10.581   1.473  0.6602  0.0551 -0.2297
  558MOL0     H73631   4.780  10.609   1.541 -0.6692 -0.8677 -1.5523
  558MOL0     H73632   4.864  10.832   1.624  1.6173  1.9052 -0.1311
  558MOL0     H73633   5.024  10.774   1.564  0.7245 -0.5988  0.9896
  558MOL0     H73634   4.969  10.751   1.814 -1.5630 -0.3798 -0.2672
  558MOL0     H73635   4.872  10.617   1.782  1.7863 -0.3468  3.6310
  558MOL0     H73636   5.162  10.620   1.702 -1.5376  2.7237  1.3104
  558MOL0     H73637   5.045  10.477   1.675  2.0081 -1.0017  0.7419
  558MOL0     H73638   4.346  10.916   0.975  1.1494 -0.5150  1.9119
  558MOL0     H73639   4.091  10.926   0.931 -2.9206  0.3710  1.2486
  558MOL0     H73640   3.641  10.870   0.866  0.8169  1.6663 -1.3791
  558MOL0     H73641   3.393  10.888   0.914 -2.6139  2.3266 -0.0726
  558MOL0     H73642   3.715  10.452   1.758 -0.8128  1.2178 -1.7843
  558MOL0     H73643   3.910  10.326   1.903  1.7237  0.1973  1.4174
  558MOL0     H73644   4.435  10.305   1.766 -2.9696  2.7052  0.3352
  558MOL0     H73645   4.661  10.291   1.850 -0.9257 -2.4073  1.1332
  558MOL0     H73646   4.811  10.498   1.946 -0.4274 -0.8369 -0.6760
  558MOL0     H73647   4.932  10.405   2.028  0.9682  0.3432  1.1520
  558MOL0     H73648   4.880  10.529   2.255 -0.0169  3.1906  0.4973
  558MOL0     H73649   4.930  10.610   2.114  1.0681  0.9165  1.1389
  558MOL0     H73650   4.635  10.615   2.207 -0.1991  0.3248  0.3938
  558MOL0     H73651   4.714  10.704   2.065 -0.8124 -0.1247  0.7941
  558MOL0     H73652   4.864  10.817   2.239 -1.2418  2.8048  1.4310
  558MOL0     H73653   4.691  10.853   2.256  0.1912  0.2717 -1.2079
  558MOL0     H73654   4.769  10.671   2.617 -2.8774 -0.3030 -0.0371
  558MOL0     H73655   4.524  10.382   2.246 -2.5951 -1.9506  1.3914
  558MOL0     H73656   4.308  10.425   2.169 -0.5894  0.2731 -1.7793
  559MOL0     O73657   6.116   6.275   4.653  0.1311  0.1011  0.3236
  559MOL0     C73658   6.214   6.278   4.724  0.2096 -0.6716  0.2951
  559MOL0     O73659   6.231   6.352   4.837 -0.4254  1.2493  0.2685
  559MOL0     C73660   6.149   6.455   4.886  0.5552  0.6130  0.0890
  559MOL0     C73661   6.063   6.534   4.812  0.0827 -0.0202 -0.7199
  559MOL0     C73662   5.992   6.633   4.869 -0.0912 -0.8343  0.1697
  559MOL0     C73663   5.998   6.668   5.001 -0.5555  0.2021 -0.5693
  559MOL0     O73664   5.901   6.748   5.054  0.0099 -0.4209  0.3039
  559MOL0     C73665   5.862   6.868   4.989 -0.3705  0.0279 -0.1371
  559MOL0     C73666   5.766   6.961   5.072 -0.3086 -0.0323 -0.2062
  559MOL0     C73667   5.857   7.014   5.183 -1.0671  0.3675 -0.7815
  559MOL0     C73668   5.791   7.136   5.261  0.2479 -0.5301  0.2737
  559MOL0     C73669   5.893   7.236   5.300  0.1990 -0.3898 -0.5935
  559MOL0     C73670   5.988   7.172   5.398 -0.6700  0.0505 -0.4382
  559MOL0     C73671   6.094   7.266   5.457  0.3592  0.1742  0.3671
  559MOL0     C73672   6.030   7.394   5.527  1.0094 -0.3845  1.1326
  559MOL0     N73673   6.123   7.500   5.572 -0.8292  0.8555 -0.0211
  559MOL0     C73674   6.206   7.550   5.477 -0.0703 -0.9613  0.0094
  559MOL0     C73675   6.293   7.624   5.555 -1.4495 -0.1461 -0.6949
  559MOL0     C73676   6.397   7.717   5.498  0.7091 -0.5950 -0.8420
  559MOL0     C73677   6.357   7.877   5.532  0.5506  0.0456 -1.1476
  559MOL0     C73678   6.476   7.965   5.515  0.3301 -0.7063  0.0190
  559MOL0     C73679   6.434   8.107   5.489  0.7848 -0.1586 -0.3995
  559MOL0     O73680   6.347   8.161   5.593  0.1934 -0.6741 -0.4485
  559MOL0     C73681   6.252   8.248   5.566  0.0541 -0.2107  0.9460
  559MOL0     C73682   6.126   8.217   5.626 -0.6065 -0.5277  0.2125
  559MOL0     C73683   6.023   8.307   5.606  0.3518 -1.4183  0.8000
  559MOL0     C73684   6.030   8.417   5.507  0.4698  0.3008 -1.0809
  559MOL0     C73685   5.913   8.505   5.490 -0.1513  0.4594 -0.0193
  559MOL0     O73686   5.901   8.569   5.369  0.1808  0.1163  0.0647
  559MOL0     C73687   5.792   8.654   5.332  0.0449  0.8900 -0.0713
  559MOL0     C73688   5.806   8.715   5.209  0.9442 -0.0499 -0.4099
  559MOL0     C73689   5.713   8.804   5.163  0.8671  0.3736 -0.0673
  559MOL0     C73690   5.607   8.848   5.246 -0.3860  0.4030  0.8289
  559MOL0     O73691   5.526   8.940   5.193 -0.3379 -0.3236  0.4966
  559MOL0     C73692   5.436   9.006   5.280 -0.5858 -0.1210 -0.5398
  559MOL0     C73693   5.370   9.131   5.216 -0.0416  0.1646  0.5463
  559MOL0     C73694   5.456   9.253   5.212 -0.1900  0.0918  0.4244
  559MOL0     C73695   5.467   9.333   5.346  0.0891  0.7208  0.9753
  559MOL0     C73696   5.525   9.471   5.322  1.5941 -0.1268  0.1972
  559MOL0     C73697   5.659   9.495   5.267 -0.3777  0.2514 -0.3419
  559MOL0     C73698   5.692   9.617   5.189  0.7898 -0.6655  0.4776
  559MOL0     C73699   5.670   9.740   5.276  0.1997  0.9928 -0.9483
  559MOL0    Cl73700   5.752   9.878   5.215 -0.8755  0.1576 -0.3621
  559MOL0     C73701   5.608   8.792   5.373  0.3739  0.4624 -0.4469
  559MOL0     C73702   5.689   8.687   5.417  1.0937  0.3024 -0.0249
  559MOL0     O73703   5.844   8.524   5.593 -0.0547  0.3605  0.9299
  559MOL0     C73704   6.145   8.419   5.427  0.2737 -0.4747 -0.1613
  559MOL0     C73705   6.260   8.352   5.470 -0.3060  0.1482 -0.9329
  559MOL0     N73706   6.270   7.613   5.685 -0.3350  0.1756  0.6850
  559MOL0     N73707   6.163   7.541   5.694 -0.2410 -0.0495 -0.6335
  559MOL0     C73708   6.076   6.578   5.083  0.9839  0.1803 -0.5346
  559MOL0     C73709   6.169   6.481   5.029 -0.0531  0.2111  0.5097
  559MOL0     C73710   6.325   6.180   4.693  0.6274  0.9756  0.1443
  559MOL0     C73711   6.443   6.169   4.774 -0.1956  0.7111  0.0830
  559MOL0     C73712   6.534   6.066   4.738  0.5090  0.9158 -0.8474
  559MOL0     C73713   6.517   5.974   4.627 -0.4743  0.4150  0.0655
  559MOL0     O73714   6.596   5.873   4.590 -0.6457 -0.1663  0.0119
  559MOL0     C73715   6.730   5.862   4.645 -0.7303  0.8434  1.2632
  559MOL0     C73716   6.845   5.942   4.561  0.1586 -0.5460 -0.0069
  559MOL0     C73717   6.853   5.896   4.422  0.3273 -0.3244  0.1975
  559MOL0     C73718   6.966   5.953   4.347 -0.2876  0.5287 -0.6893
  559MOL0     C73719   7.084   5.889   4.408  0.6983  0.1413 -0.3882
  559MOL0     C73720   7.176   5.829   4.459  1.2353 -0.0453  0.1562
  559MOL0     C73721   6.405   5.989   4.551 -0.8979  0.4620 -0.0830
  559MOL0     C73722   6.312   6.090   4.587  0.6444 -0.7129  0.2598
  559MOL0     H73723   6.054   6.508   4.707  2.5884 -3.0530 -0.3198
  559MOL0     H73724   5.927   6.674   4.792  0.6040 -2.2178 -1.2237
  559MOL0     H73725   5.813   6.846   4.894  0.0381 -0.6741 -0.1919
  559MOL0     H73726   5.954   6.923   4.968  1.1568 -2.6373 -0.8607
  559MOL0     H73727   5.682   6.914   5.125  1.0357  0.3629  2.4282
  559MOL0     H73728   5.732   7.041   5.006 -2.0998 -2.6214 -2.6307
  559MOL0     H73729   5.952   7.045   5.138 -0.3161 -2.1475 -1.0999
  559MOL0     H73730   5.873   6.936   5.258 -0.9734  1.9413  0.9149
  559MOL0     H73731   5.726   7.191   5.192  2.4508  2.5872  0.4646
  559MOL0     H73732   5.726   7.088   5.334 -4.2245 -1.1456 -3.6155
  559MOL0     H73733   5.831   7.309   5.352 -0.8225 -0.3273 -1.8319
  559MOL0     H73734   5.943   7.287   5.217 -1.3193  0.1419 -1.2140
  559MOL0     H73735   6.043   7.088   5.354  1.4236  1.0625  0.0842
  559MOL0     H73736   5.935   7.125   5.481 -4.0953 -1.1154 -3.0491
  559MOL0     H73737   6.149   7.215   5.537 -0.0056  1.2468  1.3431
  559MOL0     H73738   6.168   7.299   5.384  0.9128  1.5603  1.4977
  559MOL0     H73739   5.962   7.376   5.611 -0.8846  0.3906 -0.1742
  559MOL0     H73740   5.952   7.431   5.461 -2.0574 -2.0253  3.5605
  559MOL0     H73741   6.206   7.535   5.370  1.0366  3.3564 -0.8114
  559MOL0     H73742   6.404   7.702   5.390 -2.0453  2.8404 -1.6642
  559MOL0     H73743   6.495   7.687   5.537  1.7580  0.2248 -2.7192
  559MOL0     H73744   6.297   7.898   5.621  2.0315  0.8736 -0.3103
  559MOL0     H73745   6.297   7.902   5.444  2.9699  0.6667 -2.7186
  559MOL0     H73746   6.542   7.959   5.603  1.8032  1.6716 -0.8245
  559MOL0     H73747   6.525   7.923   5.427  2.0660 -1.0201  1.0869
  559MOL0     H73748   6.379   8.103   5.394  2.8305 -4.9977 -1.7339
  559MOL0     H73749   6.524   8.168   5.480  1.7051 -1.3577  0.3737
  559MOL0     H73750   6.111   8.129   5.688 -1.5458 -1.4441 -1.2443
  559MOL0     H73751   5.940   8.316   5.676 -0.1090  2.2230 -0.0074
  559MOL0     H73752   5.893   8.694   5.148  0.7590 -0.8826 -0.4017
  559MOL0     H73753   5.721   8.848   5.064  2.0603  1.9084  0.6765
  559MOL0     H73754   5.502   9.021   5.366 -0.1813 -3.3185 -0.1555
  559MOL0     H73755   5.362   8.941   5.328  1.4626 -0.6684  2.1133
  559MOL0     H73756   5.274   9.163   5.256 -1.3483  0.5124 -2.5603
  559MOL0     H73757   5.353   9.096   5.113 -0.6041 -1.2214  1.0877
  559MOL0     H73758   5.406   9.314   5.136 -0.9622 -1.2006 -0.1402
  559MOL0     H73759   5.558   9.230   5.181 -0.0023 -2.6621  2.6805
  559MOL0     H73760   5.369   9.333   5.395 -0.8198  1.1363 -0.7956
  559MOL0     H73761   5.536   9.277   5.411 -0.6356 -0.7093  0.5527
  559MOL0     H73762   5.534   9.508   5.425  0.3316  2.3736 -0.5275
  559MOL0     H73763   5.458   9.533   5.263  1.5429 -2.1738 -2.0572
  559MOL0     H73764   5.681   9.413   5.199 -0.6348  1.6729 -2.2131
  559MOL0     H73765   5.725   9.486   5.354 -1.6035 -1.3987  0.4656
  559MOL0     H73766   5.796   9.614   5.156  2.2685 -0.1838  4.4886
  559MOL0     H73767   5.611   9.634   5.117  0.7344 -1.9083  0.2244
  559MOL0     H73768   5.720   9.721   5.372  0.7653 -1.5667 -1.6774
  559MOL0     H73769   5.563   9.760   5.289  0.2558 -0.1245  2.2378
  559MOL0     H73770   5.549   8.838   5.452 -0.5143  0.9756 -1.3860
  559MOL0     H73771   5.658   8.647   5.513 -1.0054 -1.4992 -1.3544
  559MOL0     H73772   6.149   8.495   5.349 -0.1108  1.3346  1.4993
  559MOL0     H73773   6.358   8.376   5.430 -1.0515  0.9729 -2.3431
  559MOL0     H73774   6.062   6.590   5.190  4.2102  3.8879 -0.3002
  559MOL0     H73775   6.237   6.426   5.093 -0.5641  0.0296  0.9056
  559MOL0     H73776   6.453   6.227   4.866 -3.3943 -0.2626  1.2142
  559MOL0     H73777   6.617   6.058   4.807 -1.9042 -2.3952  2.0446
  559MOL0     H73778   6.754   5.759   4.618  0.1098  1.0274  1.2682
  559MOL0     H73779   6.738   5.866   4.754 -0.2392 -1.8639  1.3877
  559MOL0     H73780   6.803   6.042   4.554  0.8137 -0.2356  0.4388
  559MOL0     H73781   6.939   5.928   4.615  1.5239 -1.7924 -2.5312
  559MOL0     H73782   6.764   5.934   4.371  0.1352  3.8734  3.1543
  559MOL0     H73783   6.846   5.787   4.413  3.9975 -0.5860 -1.1599
  559MOL0     H73784   6.963   5.933   4.239 -2.1092 -2.5999 -0.2042
  559MOL0     H73785   6.986   6.060   4.355 -2.7694  0.9211  2.3339
  559MOL0     H73786   7.249   5.790   4.526  0.3252  0.8204  1.7114
  559MOL0     H73787   6.396   5.931   4.460  0.0918  2.3438 -1.4525
  559MOL0     H73788   6.240   6.119   4.511  1.1279  0.4126  0.2036
  560MOL0     O73789   8.225   8.715   9.183  0.1975  1.1745  0.5115
  560MOL0     C73790   8.182   8.800   9.099  0.7768  1.2490 -0.3386
  560MOL0     O73791   8.114   8.915   9.126 -0.0503  0.1466 -1.0604
  560MOL0     C73792   8.101   8.934   9.261  0.4706  0.5294  0.7602
  560MOL0     C73793   7.995   8.875   9.320  0.8508 -1.1442 -0.5684
  560MOL0     C73794   7.982   8.875   9.461  1.1416  0.5186  0.5663
  560MOL0     C73795   8.069   8.933   9.540  0.2404 -0.7288  0.2172
  560MOL0     O73796   8.056   8.931   9.679  0.3278  0.2224  0.5862
  560MOL0     C73797   8.126   9.011   9.768  0.8950 -0.7992 -0.4542
  560MOL0     C73798   8.251   8.948   9.803 -0.3246  0.1415 -0.0675
  560MOL0     C73799   8.335   9.041   9.894 -0.4489 -0.1871  0.3714
  560MOL0     C73800   8.479   8.986   9.920  0.3627 -0.5631 -0.6611
  560MOL0     C73801   8.542   9.061  10.039 -0.3210  0.5049  0.0046
  560MOL0     C73802   8.680   9.006  10.073  0.0191  0.0504  0.5246
  560MOL0     C73803   8.795   9.037   9.967 -1.0262 -0.8270 -1.2363
  560MOL0     C73804   8.876   8.921   9.905 -0.0753  0.2147  0.5638
  560MOL0     N73805   8.788   8.832   9.824  0.1484  0.5617 -0.3054
  560MOL0     C73806   8.727   8.860   9.706 -0.3331 -0.9531  0.6303
  560MOL0     C73807   8.687   8.747   9.658  0.3800 -0.3770 -0.5981
  560MOL0     C73808   8.587   8.725   9.554 -0.2550 -0.1578 -0.0308
  560MOL0     C73809   8.601   8.829   9.443 -0.6797  0.4598  0.7617
  560MOL0     C73810   8.496   8.793   9.336  0.0316 -0.6062 -0.3088
  560MOL0     C73811   8.527   8.860   9.201  0.8042  0.7548 -0.1456
  560MOL0     O73812   8.540   9.004   9.204  0.1914 -0.7887  0.6321
  560MOL0     C73813   8.520   9.089   9.100  0.2865  0.1467  0.2202
  560MOL0     C73814   8.568   9.216   9.113  1.1896 -1.4009 -1.4295
  560MOL0     C73815   8.538   9.321   9.015  0.5129  0.6648 -0.0271
  560MOL0     C73816   8.465   9.270   8.900 -0.2081 -0.6517 -0.4810
  560MOL0     C73817   8.419   9.374   8.798 -0.5647 -0.4145 -0.7036
  560MOL0     O73818   8.415   9.507   8.837 -0.3084  0.2809 -0.0647
  560MOL0     C73819   8.401   9.602   8.740 -0.1455  0.9459 -0.6777
  560MOL0     C73820   8.282   9.679   8.737 -0.0754 -0.7397  0.3102
  560MOL0     C73821   8.253   9.770   8.629 -0.1249  0.2426  0.3848
  560MOL0     C73822   8.351   9.787   8.525 -0.0255  0.8164 -0.6473
  560MOL0     O73823   8.342   9.869   8.413  0.5020  0.9715  0.4298
  560MOL0     C73824   8.244   9.972   8.412  0.2846  0.1384  0.1587
  560MOL0     C73825   8.263  10.057   8.285  0.8836 -0.7074 -0.4055
  560MOL0     C73826   8.162  10.171   8.274  0.2726  0.0682  0.3840
  560MOL0     C73827   8.180  10.251   8.142 -0.8625 -0.5958  0.1194
  560MOL0     C73828   8.072  10.348   8.097  0.1495 -0.2843  0.0180
  560MOL0     C73829   7.960  10.288   8.008 -0.7722  0.0283 -1.2416
  560MOL0     C73830   7.839  10.373   7.976  0.2122 -0.3466 -0.3155
  560MOL0     C73831   7.771  10.430   8.102 -0.1927  0.5721  0.0342
  560MOL0    Cl73832   7.752  10.312   8.230 -0.1726 -0.3123 -0.1765
  560MOL0     C73833   8.460   9.701   8.537 -0.2676  0.2794  0.5872
  560MOL0     C73834   8.489   9.613   8.640  0.0379 -1.1384 -0.8065
  560MOL0     O73835   8.381   9.335   8.683 -0.1736 -0.3358 -0.9583
  560MOL0     C73836   8.437   9.133   8.882 -0.5294 -0.7237 -0.6622
  560MOL0     C73837   8.456   9.049   8.989 -0.5099  0.4607  0.9064
  560MOL0     N73838   8.694   8.653   9.759  0.3841  0.9334  0.0740
  560MOL0     N73839   8.766   8.697   9.850  0.6401 -0.8772 -0.2721
  560MOL0     C73840   8.176   9.008   9.481 -1.0784 -0.3297  1.3609
  560MOL0     C73841   8.196   8.995   9.339  0.3226  0.3950 -0.2532
  560MOL0     C73842   8.209   8.767   8.958  0.0990 -0.5160  0.0850
  560MOL0     C73843   8.288   8.659   8.913  0.0863  0.1960 -0.0268
  560MOL0     C73844   8.325   8.646   8.776  0.1816 -0.8862 -0.2998
  560MOL0     C73845   8.279   8.739   8.683 -1.1688 -0.1088 -0.5071
  560MOL0     O73846   8.309   8.711   8.553  0.2108 -0.4591 -0.7686
  560MOL0     C73847   8.233   8.784   8.458 -0.4557 -0.0604  0.6754
  560MOL0     C73848   8.256   8.720   8.320  0.5715 -0.0501 -0.0219
  560MOL0     C73849   8.199   8.801   8.201  0.3063 -0.9612  0.5191
  560MOL0     C73850   8.111   8.931   8.225  1.1498  1.0092 -0.3437
  560MOL0     C73851   8.067   8.996   8.101  0.2145 -0.6628 -0.1989
  560MOL0     C73852   8.026   9.062   8.005  0.0152  0.5225 -0.2256
  560MOL0     C73853   8.204   8.847   8.724  0.2832  0.6990  0.0008
  560MOL0     C73854   8.168   8.857   8.863 -0.3007 -0.5116  0.5234
  560MOL0     H73855   7.922   8.821   9.260  1.2491 -1.4613 -0.7699
  560MOL0     H73856   7.896   8.826   9.506  0.1154  1.1246 -0.6429
  560MOL0     H73857   8.051   9.005   9.847 -2.3679  0.7841 -3.1423
  560MOL0     H73858   8.140   9.113   9.731  2.8806 -0.6363  0.6002
  560MOL0     H73859   8.319   8.914   9.724 -0.7046 -3.5267  1.0192
  560MOL0     H73860   8.236   8.853   9.854  0.5486 -1.7340 -3.0508
  560MOL0     H73861   8.269   9.053   9.980 -3.2983 -0.0650 -1.7073
  560MOL0     H73862   8.350   9.139   9.847 -1.2272 -0.9086 -1.4709
  560MOL0     H73863   8.471   8.879   9.941 -0.8791  0.3297  5.0680
  560MOL0     H73864   8.544   8.998   9.833  0.5698 -0.4264 -0.4905
  560MOL0     H73865   8.481   9.051  10.129  2.8531 -2.8060  2.0432
  560MOL0     H73866   8.551   9.167  10.015  0.6963  0.7071  1.2074
  560MOL0     H73867   8.681   8.899  10.093 -1.9467 -0.3614 -1.2710
  560MOL0     H73868   8.718   9.061  10.161 -0.1338  1.1209 -0.0543
  560MOL0     H73869   8.760   9.109   9.892  2.8236  2.6239 -0.0979
  560MOL0     H73870   8.868   9.101  10.018 -0.6617 -2.0898 -0.1083
  560MOL0     H73871   8.928   8.868   9.985 -0.4783  0.0462  0.7184
  560MOL0     H73872   8.949   8.963   9.835  0.2496  3.5697  2.6970
  560MOL0     H73873   8.706   8.952   9.654  0.4414  1.5530  4.3740
  560MOL0     H73874   8.487   8.716   9.596  0.7101 -0.0201  2.4341
  560MOL0     H73875   8.599   8.621   9.521 -1.3512 -0.5662  0.8121
  560MOL0     H73876   8.699   8.821   9.395 -0.3796 -2.3266  1.6728
  560MOL0     H73877   8.593   8.932   9.479 -0.6594  0.1850  1.5669
  560MOL0     H73878   8.493   8.684   9.325 -2.3730 -0.9128  2.0587
  560MOL0     H73879   8.396   8.827   9.365  0.8299  0.0514  1.8560
  560MOL0     H73880   8.445   8.830   9.135  1.3135 -0.3605 -0.2988
  560MOL0     H73881   8.617   8.821   9.153 -0.3417 -3.4082  0.7235
  560MOL0     H73882   8.621   9.262   9.196 -1.2299  2.2024 -1.6558
  560MOL0     H73883   8.559   9.427   9.022  2.4837  0.4979 -2.2749
  560MOL0     H73884   8.221   9.680   8.826  0.6283  2.3092  0.8733
  560MOL0     H73885   8.156   9.818   8.637 -0.6157 -0.7284  0.3906
  560MOL0     H73886   8.250  10.041   8.497  1.7033  0.6239 -0.2947
  560MOL0     H73887   8.146   9.925   8.404 -0.8312  2.1806  1.0642
  560MOL0     H73888   8.229  10.006   8.195 -3.5823  0.4014  0.4039
  560MOL0     H73889   8.366  10.095   8.284  0.6405  0.3156  2.5351
  560MOL0     H73890   8.185  10.230   8.362 -1.0629 -2.2084  2.3901
  560MOL0     H73891   8.062  10.131   8.290  0.6382 -0.1130  2.4072
  560MOL0     H73892   8.278  10.300   8.139 -0.1932 -1.9173 -0.3342
  560MOL0     H73893   8.180  10.172   8.066  1.9871  0.8297 -1.5521
  560MOL0     H73894   8.127  10.422   8.039 -1.7493 -1.0521 -2.9424
  560MOL0     H73895   8.021  10.395   8.182  0.7293  0.3823 -0.0011
  560MOL0     H73896   7.930  10.194   8.055  1.9833  0.3887  1.5562
  560MOL0     H73897   8.021  10.261   7.921  2.0555 -0.9311  0.8952
  560MOL0     H73898   7.871  10.465   7.926  2.5095  0.1340  1.7943
  560MOL0     H73899   7.777  10.313   7.909  1.8286 -1.7953 -0.5888
  560MOL0     H73900   7.673  10.475   8.082 -0.4995 -0.7343 -1.6135
  560MOL0     H73901   7.831  10.515   8.138 -1.3599  0.3804  2.7168
  560MOL0     H73902   8.529   9.687   8.454  0.1528 -3.3654  1.3922
  560MOL0     H73903   8.577   9.549   8.633  2.3606  1.7250  0.1589
  560MOL0     H73904   8.391   9.103   8.788 -1.5282  1.7686 -1.0462
  560MOL0     H73905   8.407   8.952   8.991  0.9560 -0.4042  5.2633
  560MOL0     H73906   8.238   9.068   9.547  0.5515 -0.0860 -0.3221
  560MOL0     H73907   8.273   9.046   9.282  3.2268 -3.6903 -0.4351
  560MOL0     H73908   8.321   8.586   8.986  1.0084  0.4309 -0.1972
  560MOL0     H73909   8.380   8.568   8.724  2.4080  0.7361 -0.5306
  560MOL0     H73910   8.265   8.889   8.464 -0.8357 -0.0236  3.0506
  560MOL0     H73911   8.126   8.781   8.480 -0.1339 -1.8966  2.1986
  560MOL0     H73912   8.362   8.695   8.315 -0.1482 -3.3572 -0.5930
  560MOL0     H73913   8.210   8.621   8.318 -1.3456  0.7649 -2.8312
  560MOL0     H73914   8.142   8.744   8.128  2.4875  0.7782 -2.7941
  560MOL0     H73915   8.284   8.822   8.135  0.8218 -2.9663  0.4517
  560MOL0     H73916   8.020   8.899   8.276  0.0956 -3.0339 -4.1649
  560MOL0     H73917   8.176   8.996   8.285  0.2997  1.7408 -0.1902
  560MOL0     H73918   7.987   9.128   7.930  1.1598  1.2489 -0.2022
  560MOL0     H73919   8.167   8.929   8.664 -1.2180  1.8341  2.3207
  560MOL0     H73920   8.108   8.944   8.888 -0.9553 -0.2907 -1.5987
  561MOL0     O73921   2.852   5.952   8.463  0.0700 -0.3899 -0.3003
  561MOL0     C73922   2.830   6.073   8.489 -0.0054  0.5214  0.0621
  561MOL0     O73923   2.716   6.138   8.470 -0.7292  0.1747  0.3765
  561MOL0     C73924   2.626   6.109   8.376 -0.2913 -0.0643  0.5839
  561MOL0     C73925   2.547   6.210   8.322 -0.4874  0.2132 -0.0918
  561MOL0     C73926   2.445   6.176   8.234 -0.6173 -0.2856  1.1272
  561MOL0     C73927   2.423   6.043   8.192 -0.4666  0.4563 -0.2036
  561MOL0     O73928   2.333   5.991   8.107  0.4191  0.6326  0.1381
  561MOL0     C73929   2.313   6.072   7.993  1.1036  0.1633 -0.0248
  561MOL0     C73930   2.236   5.985   7.888 -0.6654  0.6040 -0.8379
  561MOL0     C73931   2.159   6.080   7.798 -0.8268  0.1368  0.3645
  561MOL0     C73932   2.101   5.993   7.681  0.5462 -0.5964  0.0878
  561MOL0     C73933   2.027   6.085   7.575  0.0929  0.1245 -0.2366
  561MOL0     C73934   1.908   6.165   7.628 -0.1591  0.6989 -0.6650
  561MOL0     C73935   1.819   6.083   7.732 -0.0845 -1.2743  0.2371
  561MOL0     C73936   1.676   6.145   7.762 -0.6173  0.2174 -0.3132
  561MOL0     N73937   1.689   6.252   7.875 -0.3794 -0.1967 -0.5384
  561MOL0     C73938   1.688   6.393   7.873 -1.3720  0.0929  1.1849
  561MOL0     C73939   1.682   6.441   7.992  0.8086  0.4685 -0.9582
  561MOL0     C73940   1.673   6.581   8.026 -0.1345 -0.0810 -0.3822
  561MOL0     C73941   1.809   6.627   8.077 -0.0203  0.5747 -0.1061
  561MOL0     C73942   1.798   6.753   8.153  0.0015  0.6168  0.3578
  561MOL0     C73943   1.772   6.884   8.075  0.4814 -0.2810  0.4781
  561MOL0     O73944   1.875   6.977   8.124 -0.4288  0.0054  0.3512
  561MOL0     C73945   1.988   6.996   8.045  0.2357  0.2123 -0.1200
  561MOL0     C73946   2.065   6.883   8.001  0.2188 -0.3345 -0.4406
  561MOL0     C73947   2.178   6.899   7.923 -0.2347 -0.1780  0.9384
  561MOL0     C73948   2.213   7.028   7.883  0.0590  0.8545  0.3095
  561MOL0     C73949   2.322   7.050   7.792  0.3567  1.0248  1.4640
  561MOL0     O73950   2.398   6.941   7.754 -0.1629 -0.1020  0.7366
  561MOL0     C73951   2.494   6.939   7.657  0.4497  1.0047 -0.5678
  561MOL0     C73952   2.573   7.045   7.614 -0.5785 -0.0608  0.3949
  561MOL0     C73953   2.677   7.028   7.528 -0.1807  0.1929 -0.4176
  561MOL0     C73954   2.713   6.902   7.484  0.4306  0.1991 -0.8108
  561MOL0     O73955   2.833   6.891   7.420 -0.3217 -0.5234  0.9836
  561MOL0     C73956   2.898   6.762   7.427 -0.1613  0.4610  0.3139
  561MOL0     C73957   3.031   6.750   7.355 -0.5937 -0.3707 -0.8418
  561MOL0     C73958   3.102   6.616   7.362 -0.4278 -0.3730  0.0234
  561MOL0     C73959   3.226   6.626   7.282 -0.4876 -0.3646  0.5904
  561MOL0     C73960   3.317   6.510   7.277  0.2848  0.0494  0.4959
  561MOL0     C73961   3.383   6.484   7.419  1.0527  0.2120 -0.7170
  561MOL0     C73962   3.499   6.385   7.405 -0.1505  1.0572 -0.4209
  561MOL0     C73963   3.469   6.267   7.315 -0.4864 -0.1556 -0.0622
  561MOL0    Cl73964   3.574   6.123   7.346  0.0750 -0.2047 -1.2514
  561MOL0     C73965   2.634   6.789   7.524  0.5497 -0.7842  0.0856
  561MOL0     C73966   2.533   6.809   7.613 -0.0542  0.0906  0.0309
  561MOL0     O73967   2.340   7.163   7.752 -0.1175 -0.3746 -0.3846
  561MOL0     C73968   2.125   7.133   7.916  0.4415  0.0280 -0.6847
  561MOL0     C73969   2.023   7.130   8.007  0.4548  0.1967 -0.8010
  561MOL0     N73970   1.682   6.333   8.076  0.4467  0.5764 -0.1810
  561MOL0     N73971   1.685   6.224   8.013  0.7606  0.2845  0.3381
  561MOL0     C73972   2.495   5.939   8.250 -1.2591 -0.1377 -0.4284
  561MOL0     C73973   2.593   5.975   8.345  0.7215 -1.0584  0.4802
  561MOL0     C73974   2.940   6.143   8.548 -0.5585  0.1905 -0.3247
  561MOL0     C73975   2.940   6.280   8.533 -0.1801  0.7705 -0.4988
  561MOL0     C73976   3.055   6.349   8.578 -0.2456  1.1865 -0.4585
  561MOL0     C73977   3.169   6.287   8.634 -0.0091 -0.7386 -0.5472
  561MOL0     O73978   3.282   6.367   8.665 -0.5218  0.3661 -0.1948
  561MOL0     C73979   3.398   6.304   8.728  0.3505 -0.4085 -0.4453
  561MOL0     C73980   3.496   6.416   8.789 -0.3125  0.0365  0.3196
  561MOL0     C73981   3.639   6.416   8.716 -0.9641  0.3141  0.1234
  561MOL0     C73982   3.733   6.520   8.772  0.0407 -0.0409  0.3960
  561MOL0     C73983   3.704   6.659   8.739  0.2921  0.8829  0.4968
  561MOL0     C73984   3.685   6.778   8.716  0.0243  0.0946  0.5964
  561MOL0     C73985   3.165   6.142   8.658  0.1382 -0.2331  0.5286
  561MOL0     C73986   3.056   6.079   8.608 -0.3837  0.2137  0.4436
  561MOL0     H73987   2.587   6.307   8.351  0.1722  0.1062 -0.6004
  561MOL0     H73988   2.386   6.259   8.197  3.7868  2.0076 -1.7047
  561MOL0     H73989   2.406   6.098   7.943  0.9416  0.6410 -0.0834
  561MOL0     H73990   2.243   6.156   8.010 -2.6284 -3.2111  3.6237
  561MOL0     H73991   2.167   5.927   7.949  0.7957 -1.2334 -0.8588
  561MOL0     H73992   2.309   5.921   7.837 -2.1182 -0.3075 -1.8361
  561MOL0     H73993   2.236   6.152   7.767 -1.1671  0.8897  1.1965
  561MOL0     H73994   2.087   6.135   7.859 -2.6650 -0.7044 -0.9716
  561MOL0     H73995   2.179   5.938   7.627  1.3329  0.0156  0.5824
  561MOL0     H73996   2.037   5.917   7.726 -2.3852  2.2906  1.1306
  561MOL0     H73997   1.986   6.011   7.505  0.9298 -1.5392  0.9519
  561MOL0     H73998   2.095   6.150   7.520 -1.4564 -0.7257 -3.4573
  561MOL0     H73999   1.853   6.207   7.543  1.5796  2.1157 -1.1588
  561MOL0     H74000   1.933   6.254   7.687 -1.8701 -0.0701  1.3545
  561MOL0     H74001   1.796   5.978   7.708 -1.0932 -1.4351  1.7668
  561MOL0     H74002   1.876   6.073   7.824 -0.0406 -0.1132  0.3500
  561MOL0     H74003   1.609   6.067   7.800 -1.3059  0.5884 -0.7510
  561MOL0     H74004   1.622   6.186   7.676 -2.5231 -1.3204  0.0555
  561MOL0     H74005   1.694   6.459   7.787 -0.3365  1.5979  2.3505
  561MOL0     H74006   1.604   6.588   8.110  1.6335  1.1784  1.0324
  561MOL0     H74007   1.628   6.644   7.948 -0.5343  2.0604  1.4670
  561MOL0     H74008   1.880   6.635   7.994 -0.9483 -0.8152 -1.0912
  561MOL0     H74009   1.852   6.552   8.144 -2.6787 -0.0706  1.0019
  561MOL0     H74010   1.722   6.726   8.227 -0.8260 -2.3194 -1.3792
  561MOL0     H74011   1.893   6.761   8.207 -0.1445 -3.4564  1.5434
  561MOL0     H74012   1.669   6.920   8.086  0.3693  0.0575 -1.4754
  561MOL0     H74013   1.782   6.873   7.967 -0.6445  3.1267 -0.0977
  561MOL0     H74014   2.037   6.787   8.042 -4.7630  1.5600  1.4002
  561MOL0     H74015   2.229   6.813   7.881 -0.2732  0.0912  0.3175
  561MOL0     H74016   2.552   7.147   7.642 -1.1515 -0.2284  0.5817
  561MOL0     H74017   2.743   7.111   7.505  0.3283 -0.8248 -2.9042
  561MOL0     H74018   2.832   6.694   7.372  2.0585 -0.6122 -1.2046
  561MOL0     H74019   2.898   6.736   7.533 -0.6167 -0.0719  0.1882
  561MOL0     H74020   3.098   6.825   7.398 -4.1133  1.3631  2.1834
  561MOL0     H74021   3.011   6.788   7.255 -2.1199  1.8733  0.2115
  561MOL0     H74022   3.035   6.539   7.323 -0.9488  0.5045 -0.8809
  561MOL0     H74023   3.133   6.592   7.464  0.1102  2.2266  0.5544
  561MOL0     H74024   3.196   6.657   7.181 -0.7529  0.9502  1.0460
  561MOL0     H74025   3.290   6.705   7.322 -0.0739 -0.6518  0.4917
  561MOL0     H74026   3.392   6.543   7.205 -2.2240  1.5890 -1.6242
  561MOL0     H74027   3.274   6.419   7.235 -0.2116  0.6037 -0.2153
  561MOL0     H74028   3.292   6.452   7.470 -2.2683  3.1151 -4.2306
  561MOL0     H74029   3.420   6.576   7.465  1.8151  1.2351 -3.2171
  561MOL0     H74030   3.600   6.412   7.371  0.1743  0.1446 -0.2046
  561MOL0     H74031   3.512   6.349   7.507 -1.8688  4.3617  1.1053
  561MOL0     H74032   3.478   6.285   7.208 -2.5241  2.2016  0.0755
  561MOL0     H74033   3.364   6.237   7.328 -1.3572  0.0484 -4.8118
  561MOL0     H74034   2.647   6.689   7.484  1.8719 -1.0099  1.0110
  561MOL0     H74035   2.466   6.728   7.641  3.2945 -3.1040 -0.3515
  561MOL0     H74036   2.151   7.227   7.868 -0.3228  1.4358  1.5178
  561MOL0     H74037   1.973   7.223   8.035  1.4982  0.1647  1.3589
  561MOL0     H74038   2.467   5.839   8.220 -0.8658 -0.5634  0.5906
  561MOL0     H74039   2.629   5.900   8.415 -0.8755 -2.2711  0.0695
  561MOL0     H74040   2.854   6.328   8.489 -1.2144 -0.8261 -0.3051
  561MOL0     H74041   3.051   6.457   8.568  0.8721  1.9025  4.4018
  561MOL0     H74042   3.437   6.224   8.664 -1.8172 -2.1612  0.3009
  561MOL0     H74043   3.370   6.247   8.817  0.8975 -3.4447 -2.0796
  561MOL0     H74044   3.461   6.520   8.783 -2.0496 -0.3909  2.0900
  561MOL0     H74045   3.507   6.400   8.897  0.1116 -3.0674 -0.1076
  561MOL0     H74046   3.629   6.429   8.608  1.6464 -1.5645 -0.4476
  561MOL0     H74047   3.671   6.311   8.718  0.7361  0.8105  1.2492
  561MOL0     H74048   3.736   6.508   8.881  0.3409 -2.2504  0.2073
  561MOL0     H74049   3.836   6.490   8.748 -0.0200 -2.0920  2.3443
  561MOL0     H74050   3.650   6.874   8.684 -1.1226 -0.4725  0.0982
  561MOL0     H74051   3.241   6.076   8.699 -1.0575 -2.2882 -0.3690
  561MOL0     H74052   3.056   5.970   8.607 -1.6212  0.2049 -0.2249
  562MOL0     O74053   0.569   1.695  10.096 -0.1264 -0.2908  0.1637
  562MOL0     C74054   0.640   1.665   9.997  1.1850 -0.7811  0.5241
  562MOL0     O74055   0.660   1.743   9.876 -0.6795 -0.5604 -0.2399
  562MOL0     C74056   0.609   1.871   9.870  0.1133  0.7409 -0.9634
  562MOL0     C74057   0.565   1.945   9.977 -1.0695  0.1413 -0.9352
  562MOL0     C74058   0.500   2.063   9.944  0.7758 -0.4207 -0.2054
  562MOL0     C74059   0.477   2.113   9.825 -0.1493  0.3017  0.8507
  562MOL0     O74060   0.393   2.226   9.797  0.6563  0.2479  0.1725
  562MOL0     C74061   0.319   2.252   9.669  0.1810 -0.1120 -0.0960
  562MOL0     C74062   0.226   2.379   9.670  0.5707 -0.7800 -0.8413
  562MOL0     C74063   0.175   2.423   9.528 -0.2322  0.1290 -0.4809
  562MOL0     C74064   0.085   2.316   9.460 -0.0731 -0.2293 -0.7862
  562MOL0     C74065  -0.014   2.383   9.366  0.4546 -0.8375  0.1338
  562MOL0     C74066  -0.103   2.292   9.276 -0.3282  0.2465 -1.2890
  562MOL0     C74067  -0.196   2.197   9.363 -0.0157 -0.1961  0.9019
  562MOL0     C74068  -0.176   2.045   9.344  0.2905  0.2376  0.3950
  562MOL0     N74069  -0.053   1.992   9.406 -0.0117 -0.5884  0.5833
  562MOL0     C74070  -0.032   1.963   9.536  0.5720 -0.2678 -0.1146
  562MOL0     C74071   0.085   1.906   9.540 -1.3062 -0.6510  0.3295
  562MOL0     C74072   0.176   1.880   9.658  0.6362 -0.0336 -1.1122
  562MOL0     C74073   0.173   1.736   9.703  0.5834  0.3454 -0.3601
  562MOL0     C74074   0.220   1.722   9.852 -0.2604 -0.3481  0.5213
  562MOL0     C74075   0.271   1.581   9.885 -0.2497 -0.1142  0.2389
  562MOL0     O74076   0.190   1.465   9.845 -0.2915 -1.1889 -0.2210
  562MOL0     C74077   0.267   1.347   9.816  0.5215 -0.3888 -0.4366
  562MOL0     C74078   0.202   1.259   9.728  0.3809  0.5869 -0.4484
  562MOL0     C74079   0.266   1.138   9.683  0.7963 -0.9969  0.0043
  562MOL0     C74080   0.405   1.115   9.723  0.9148  0.3680 -0.7273
  562MOL0     C74081   0.477   0.992   9.679 -1.1582  0.3201  0.4899
  562MOL0     O74082   0.411   0.907   9.591 -0.6750 -0.4115  0.2424
  562MOL0     C74083   0.458   0.781   9.570  0.4953  0.2150 -0.5422
  562MOL0     C74084   0.357   0.687   9.564 -0.7320  0.7349 -0.1706
  562MOL0     C74085   0.402   0.553   9.566 -0.0209 -0.2308 -0.6100
  562MOL0     C74086   0.535   0.506   9.558  0.5974  1.0170 -0.1183
  562MOL0     O74087   0.564   0.373   9.569  0.0908  1.0800 -0.1308
  562MOL0     C74088   0.693   0.320   9.570 -0.0248  0.4000  0.2575
  562MOL0     C74089   0.774   0.315   9.438  0.1882 -0.6075 -0.2752
  562MOL0     C74090   0.721   0.199   9.352  0.7185  0.1050 -0.0840
  562MOL0     C74091   0.801   0.151   9.221 -0.1538  0.0180  0.1812
  562MOL0     C74092   0.727   0.039   9.146  0.2794 -0.4129  0.0613
  562MOL0     C74093   0.819  -0.029   9.045 -0.9617 -0.3941  0.2537
  562MOL0     C74094   0.927  -0.124   9.107 -0.2722  0.5019 -1.0156
  562MOL0     C74095   0.974  -0.218   8.998 -0.2435  0.8436 -0.1544
  562MOL0    Cl74096   1.004  -0.122   8.856 -0.1798  0.2498  0.6921
  562MOL0     C74097   0.630   0.611   9.565  0.0372  0.5534 -0.5328
  562MOL0     C74098   0.590   0.745   9.572 -0.7662 -0.0852  1.2612
  562MOL0     O74099   0.596   0.978   9.722  0.2517 -0.6945 -1.4326
  562MOL0     C74100   0.461   1.202   9.818 -0.0281  0.1897 -0.4613
  562MOL0     C74101   0.393   1.314   9.860 -0.6046 -0.2302 -1.3418
  562MOL0     N74102   0.137   1.891   9.408 -0.8927 -0.7869  0.8513
  562MOL0     N74103   0.057   1.956   9.329 -0.1252  0.4400  0.2304
  562MOL0     C74104   0.539   2.042   9.717 -0.1151  0.3719 -0.0551
  562MOL0     C74105   0.599   1.923   9.735 -0.5582  0.5632  0.0485
  562MOL0     C74106   0.683   1.527   9.998 -0.3502  0.3746  0.1883
  562MOL0     C74107   0.633   1.421  10.090 -0.3874 -0.5414 -0.0492
  562MOL0     C74108   0.690   1.292  10.085 -0.0187  0.8901  0.8033
  562MOL0     C74109   0.779   1.261   9.982 -0.0061 -0.0349 -0.0564
  562MOL0     O74110   0.854   1.142   9.965  0.0769  0.3347  0.1664
  562MOL0     C74111   0.862   1.037  10.057 -0.0668  0.0292 -0.3276
  562MOL0     C74112   0.810   0.903   9.997  0.1013 -0.7702  0.4609
  562MOL0     C74113   0.919   0.846   9.903  0.2504 -0.1462  0.4979
  562MOL0     C74114   0.841   0.752   9.805 -0.6935  0.1240 -0.7805
  562MOL0     C74115   0.943   0.664   9.748  0.4679  0.3931 -0.2342
  562MOL0     C74116   1.015   0.589   9.684 -0.3715 -0.2837  0.0489
  562MOL0     C74117   0.805   1.356   9.877  1.0478 -0.7024 -1.0467
  562MOL0     C74118   0.766   1.487   9.893  0.4178 -0.7092 -0.6618
  562MOL0     H74119   0.584   1.907  10.077  0.4359 -3.4325 -2.3965
  562MOL0     H74120   0.456   2.133  10.014 -0.8751 -1.9858  0.4045
  562MOL0     H74121   0.253   2.172   9.632 -1.2591  1.2325 -0.5714
  562MOL0     H74122   0.391   2.290   9.596  0.4258  1.3585  0.8829
  562MOL0     H74123   0.292   2.461   9.701  0.2684 -0.1376 -1.8218
  562MOL0     H74124   0.141   2.377   9.740  1.1363 -0.3623 -0.1281
  562MOL0     H74125   0.262   2.434   9.462 -0.1218  2.7454 -0.0101
  562MOL0     H74126   0.111   2.511   9.522 -2.3691 -1.4159 -1.8622
  562MOL0     H74127   0.145   2.266   9.384 -0.2056  2.3189 -2.6813
  562MOL0     H74128   0.026   2.257   9.531  1.3526 -0.1118  0.5780
  562MOL0     H74129   0.035   2.458   9.303 -1.3949  1.4457  1.2603
  562MOL0     H74130  -0.072   2.457   9.422 -0.1013  0.2916 -1.8542
  562MOL0     H74131  -0.049   2.222   9.212  1.0308 -0.5362  0.6361
  562MOL0     H74132  -0.183   2.352   9.231 -0.8205 -0.3172 -1.1860
  562MOL0     H74133  -0.191   2.227   9.468 -0.1421 -0.8705  1.1088
  562MOL0     H74134  -0.301   2.213   9.335 -0.1621 -1.9400  0.3342
  562MOL0     H74135  -0.185   2.019   9.238  0.0445 -4.4709  1.3566
  562MOL0     H74136  -0.259   1.985   9.383 -0.7026 -1.9518 -4.3705
  562MOL0     H74137  -0.096   1.980   9.623  2.4953  1.6245  1.0247
  562MOL0     H74138   0.140   1.934   9.746  1.4397 -1.3114  0.0413
  562MOL0     H74139   0.273   1.915   9.622 -0.0416  2.1110 -0.9680
  562MOL0     H74140   0.244   1.685   9.636  1.8699  5.4310 -3.4128
  562MOL0     H74141   0.073   1.696   9.682  0.4156  1.0664 -0.9687
  562MOL0     H74142   0.300   1.793   9.877  1.7868 -2.1690 -0.4592
  562MOL0     H74143   0.140   1.734   9.925 -0.4275 -0.6132  0.3839
  562MOL0     H74144   0.290   1.576   9.992  3.3298 -0.9870 -0.3236
  562MOL0     H74145   0.371   1.583   9.841 -0.1054 -1.9622  0.4056
  562MOL0     H74146   0.100   1.289   9.707 -0.0570  0.0044  0.7399
  562MOL0     H74147   0.200   1.072   9.629 -0.4552 -1.1486  1.6605
  562MOL0     H74148   0.251   0.711   9.568 -0.3696  3.2660 -2.4909
  562MOL0     H74149   0.328   0.481   9.600  0.8134  0.3971  2.8365
  562MOL0     H74150   0.670   0.220   9.609 -3.7932 -0.2849 -3.0590
  562MOL0     H74151   0.758   0.367   9.645  0.9138  1.1694 -1.0082
  562MOL0     H74152   0.877   0.297   9.469 -0.2859 -0.7033  1.3635
  562MOL0     H74153   0.771   0.415   9.394 -0.9282  1.1731  3.4816
  562MOL0     H74154   0.613   0.211   9.337  0.8215  1.0430 -0.0870
  562MOL0     H74155   0.718   0.112   9.419 -0.2026  2.1359  2.7153
  562MOL0     H74156   0.819   0.233   9.151  3.1820 -0.8455 -0.1272
  562MOL0     H74157   0.900   0.113   9.246  0.6161  0.8835 -1.3920
  562MOL0     H74158   0.637   0.074   9.095  0.3164  1.0454  0.9218
  562MOL0     H74159   0.684  -0.030   9.220 -0.3709  0.6850  0.7456
  562MOL0     H74160   0.868   0.048   8.985 -1.5766 -0.1747  0.0248
  562MOL0     H74161   0.759  -0.093   8.980  0.1338 -0.2996 -0.8841
  562MOL0     H74162   1.004  -0.058   9.149 -2.3423  1.3773  1.6936
  562MOL0     H74163   0.886  -0.180   9.192  2.0563  0.9216  0.5066
  562MOL0     H74164   0.907  -0.298   8.964  0.6891  0.8249 -2.0590
  562MOL0     H74165   1.066  -0.276   9.012 -1.3226 -1.2856 -1.2786
  562MOL0     H74166   0.736   0.597   9.550  0.0396  0.1488 -0.1331
  562MOL0     H74167   0.665   0.823   9.584 -0.0310 -0.6281  0.3945
  562MOL0     H74168   0.558   1.182   9.862 -0.3000 -0.1763 -0.0255
  562MOL0     H74169   0.444   1.373   9.935 -1.1749  0.2079 -1.2922
  562MOL0     H74170   0.517   2.083   9.619  2.2226 -0.2546 -0.8831
  562MOL0     H74171   0.624   1.868   9.645  2.3793  0.2632  0.9455
  562MOL0     H74172   0.574   1.453  10.174  0.3901  1.9486 -0.3682
  562MOL0     H74173   0.669   1.214  10.157  4.1057 -0.4756  0.7481
  562MOL0     H74174   0.804   1.057  10.148  0.2378  3.3165 -0.7324
  562MOL0     H74175   0.966   1.013  10.083 -1.0892  0.4251  5.5863
  562MOL0     H74176   0.784   0.822  10.065 -1.8209 -0.1025  0.5978
  562MOL0     H74177   0.724   0.930   9.934 -0.2418  0.1568  1.2889
  562MOL0     H74178   0.997   0.792   9.957  0.8814  0.5691  0.3191
  562MOL0     H74179   0.967   0.922   9.841 -1.0120 -0.7130 -1.2835
  562MOL0     H74180   0.756   0.704   9.854 -2.7858  1.0024 -3.3163
  562MOL0     H74181   0.803   0.812   9.722 -2.9332 -1.8610 -1.2963
  562MOL0     H74182   1.066   0.527   9.613 -0.1331 -2.4011  1.9547
  562MOL0     H74183   0.870   1.329   9.795  1.8342 -0.0627 -0.6589
  562MOL0     H74184   0.790   1.558   9.815  3.1715 -1.5060 -0.6726
  563MOL0     O74185   2.265   7.808   7.792 -0.0508 -0.0986 -0.2625
  563MOL0     C74186   2.311   7.794   7.681 -0.1666  0.8807  1.1684
  563MOL0     O74187   2.422   7.728   7.652 -0.3752  0.2907 -1.0930
  563MOL0     C74188   2.469   7.648   7.747 -0.3449  0.1697  0.3662
  563MOL0     C74189   2.597   7.672   7.808 -0.7476  0.5147 -0.7783
  563MOL0     C74190   2.664   7.581   7.887 -0.3930  0.9784 -0.3889
  563MOL0     C74191   2.595   7.463   7.915  0.0118 -0.7044 -0.4589
  563MOL0     O74192   2.638   7.368   7.995  0.4114  0.6352  0.0752
  563MOL0     C74193   2.772   7.309   7.963  1.2583 -0.2876 -0.1899
  563MOL0     C74194   2.851   7.280   8.095 -0.0638 -0.3669 -0.8707
  563MOL0     C74195   2.928   7.403   8.159  0.5841 -0.7709  0.4011
  563MOL0     C74196   2.860   7.452   8.283 -0.1490 -0.2582 -0.1597
  563MOL0     C74197   2.955   7.554   8.344 -0.0267 -0.1577 -0.1030
  563MOL0     C74198   2.985   7.689   8.284  0.6988  0.9400  0.1087
  563MOL0     C74199   2.874   7.788   8.310 -0.1266  0.9595 -0.3782
  563MOL0     C74200   2.911   7.921   8.252  0.0544  1.0384 -0.4067
  563MOL0     N74201   2.912   7.915   8.098 -0.4501  0.5858 -0.2271
  563MOL0     C74202   3.014   7.919   8.006 -0.2863 -0.4594 -0.4635
  563MOL0     C74203   2.951   7.901   7.890  0.3603  0.9685  0.3291
  563MOL0     C74204   3.018   7.902   7.750  0.6785  0.0836  0.4150
  563MOL0     C74205   3.157   7.844   7.752 -0.0022 -0.4681 -0.3204
  563MOL0     C74206   3.199   7.773   7.620 -0.5025  0.4603  0.3621
  563MOL0     C74207   3.153   7.629   7.597 -0.3007 -0.0686 -0.0087
  563MOL0     O74208   3.006   7.624   7.586 -0.3564  0.4861 -0.6440
  563MOL0     C74209   2.935   7.549   7.497  1.0971 -0.4459  0.8011
  563MOL0     C74210   2.995   7.453   7.410 -0.4317  0.0204 -0.0844
  563MOL0     C74211   2.911   7.377   7.330 -0.7196  0.1718 -0.7375
  563MOL0     C74212   2.768   7.386   7.333 -0.1250  0.8448 -0.7086
  563MOL0     C74213   2.697   7.298   7.238 -0.4116  0.1297 -0.8700
  563MOL0     O74214   2.559   7.327   7.220 -0.0525  0.0027 -0.0160
  563MOL0     C74215   2.500   7.243   7.123 -0.5209 -0.6069 -0.0203
  563MOL0     C74216   2.383   7.178   7.175  0.4553 -0.0528 -0.3638
  563MOL0     C74217   2.308   7.085   7.101  0.3625 -0.1735  0.0007
  563MOL0     C74218   2.347   7.076   6.962 -0.7724  0.7151 -1.0307
  563MOL0     O74219   2.278   6.991   6.881  0.6167 -0.0279 -0.0322
  563MOL0     C74220   2.167   7.041   6.814 -0.0056 -0.7450  1.0484
  563MOL0     C74221   2.066   7.125   6.886 -0.6973 -0.5206  0.0495
  563MOL0     C74222   1.931   7.112   6.818 -0.4132 -0.7331  0.0022
  563MOL0     C74223   1.841   7.231   6.869 -0.7053  0.5989 -1.0505
  563MOL0     C74224   1.695   7.196   6.842  0.0251 -0.0601 -0.1011
  563MOL0     C74225   1.606   7.312   6.880  0.1557 -0.4006 -0.1632
  563MOL0     C74226   1.451   7.302   6.880 -0.2345 -0.3716  0.7656
  563MOL0     C74227   1.392   7.426   6.957  0.0793  0.2173  0.2809
  563MOL0    Cl74228   1.473   7.580   6.905 -0.0290 -0.1371  0.2043
  563MOL0     C74229   2.464   7.138   6.907 -0.0656  0.5085 -0.6188
  563MOL0     C74230   2.539   7.221   6.985 -0.5294  0.2184 -0.6129
  563MOL0     O74231   2.765   7.217   7.176  0.2604 -0.0957 -0.1946
  563MOL0     C74232   2.716   7.478   7.422  0.1959 -1.1130 -0.4573
  563MOL0     C74233   2.791   7.557   7.505 -0.5031 -0.1379  0.6135
  563MOL0     N74234   2.812   7.901   7.904 -0.3950  0.2837 -0.4626
  563MOL0     N74235   2.797   7.912   8.030  0.0376 -0.0544 -0.7187
  563MOL0     C74236   2.476   7.433   7.859 -0.2094  0.2816 -0.4753
  563MOL0     C74237   2.408   7.522   7.775  1.1367 -1.0577 -0.5202
  563MOL0     C74238   2.239   7.850   7.560 -0.1621 -0.6269  0.7785
  563MOL0     C74239   2.114   7.913   7.568  0.9886 -0.0891 -0.4287
  563MOL0     C74240   2.052   7.977   7.457 -0.4506 -0.5952  0.3649
  563MOL0     C74241   2.103   7.970   7.328  0.2865  0.9280 -0.2437
  563MOL0     O74242   2.049   8.011   7.209 -0.1884  0.3944 -0.2985
  563MOL0     C74243   1.912   8.069   7.223 -0.0139  0.0511  0.6506
  563MOL0     C74244   1.872   8.153   7.099  0.3400  0.1560 -0.3030
  563MOL0     C74245   1.937   8.296   7.089 -0.3849 -0.0031 -0.4271
  563MOL0     C74246   1.838   8.420   7.101  0.0898  0.6405 -0.5173
  563MOL0     C74247   1.796   8.444   6.963 -0.4151  0.0944 -0.9975
  563MOL0     C74248   1.765   8.493   6.858 -0.2370 -0.3128 -0.5524
  563MOL0     C74249   2.224   7.904   7.316  0.1987  0.2619 -0.9391
  563MOL0     C74250   2.298   7.850   7.425  0.0450  0.4010  0.4917
  563MOL0     H74251   2.645   7.767   7.787 -0.2028  0.6034  0.7865
  563MOL0     H74252   2.753   7.613   7.940  0.7971  0.6829 -2.1204
  563MOL0     H74253   2.836   7.374   7.903  0.2001  0.2096 -0.8061
  563MOL0     H74254   2.749   7.219   7.906  0.3929  0.7393 -1.5468
  563MOL0     H74255   2.927   7.207   8.065  1.2793  0.7010 -0.1789
  563MOL0     H74256   2.785   7.233   8.168 -1.4550 -0.5281 -2.1786
  563MOL0     H74257   2.950   7.485   8.091  3.0748 -0.5640  1.3450
  563MOL0     H74258   3.027   7.369   8.190  0.0803 -1.5697  1.2060
  563MOL0     H74259   2.767   7.502   8.259  0.5871  2.8493  2.7255
  563MOL0     H74260   2.842   7.369   8.353 -1.1028  1.5454  1.8282
  563MOL0     H74261   3.051   7.503   8.358 -1.0295 -1.9353  0.6027
  563MOL0     H74262   2.912   7.567   8.444 -1.3617 -2.3933 -0.3248
  563MOL0     H74263   2.994   7.669   8.177  0.5363 -3.0740  0.6642
  563MOL0     H74264   3.078   7.728   8.326  0.5270  0.7771  0.6548
  563MOL0     H74265   2.777   7.766   8.265 -0.7158  0.1622  1.2071
  563MOL0     H74266   2.863   7.788   8.419  1.5753 -0.1483 -0.1647
  563MOL0     H74267   3.004   7.958   8.295 -1.2910  0.6805  3.0909
  563MOL0     H74268   2.833   7.989   8.289  0.8931  0.2212  3.2477
  563MOL0     H74269   3.118   7.949   8.017 -0.0271 -1.1670 -0.8765
  563MOL0     H74270   3.008   8.004   7.713 -4.2126  0.0109  0.7991
  563MOL0     H74271   2.969   7.830   7.683  3.3910 -1.7691  0.2648
  563MOL0     H74272   3.149   7.767   7.830 -2.6749 -1.5939 -1.5957
  563MOL0     H74273   3.224   7.928   7.773  0.6046 -1.2828  1.1769
  563MOL0     H74274   3.178   7.849   7.544 -3.4160  1.5938  2.1531
  563MOL0     H74275   3.307   7.755   7.627 -0.4855 -0.7351 -1.9921
  563MOL0     H74276   3.193   7.553   7.666  0.1827  0.0355 -0.1724
  563MOL0     H74277   3.188   7.594   7.500 -0.8856 -1.4286  0.2332
  563MOL0     H74278   3.102   7.438   7.400 -0.3755  0.6704 -0.5198
  563MOL0     H74279   2.945   7.302   7.260 -2.2136  0.5435 -1.9193
  563MOL0     H74280   2.342   7.203   7.272 -3.2150 -4.0360 -0.5708
  563MOL0     H74281   2.226   7.030   7.146  1.4500 -0.7921  1.2920
  563MOL0     H74282   2.117   6.957   6.764 -0.5877  0.9724 -1.4438
  563MOL0     H74283   2.215   7.110   6.744  1.5776 -0.0763  2.7152
  563MOL0     H74284   2.098   7.229   6.877  0.3456 -0.8279  0.1164
  563MOL0     H74285   2.059   7.093   6.991  2.6197  0.4108  0.6770
  563MOL0     H74286   1.904   7.009   6.846  3.6070 -1.6032  1.3746
  563MOL0     H74287   1.937   7.115   6.709  3.0249  4.1753  0.0025
  563MOL0     H74288   1.854   7.235   6.977  0.6205  1.4663 -1.2221
  563MOL0     H74289   1.867   7.324   6.816 -1.4398  1.6822  0.4215
  563MOL0     H74290   1.673   7.111   6.908 -0.3015  0.9646  1.1355
  563MOL0     H74291   1.686   7.161   6.739 -1.7972  1.3141 -0.4690
  563MOL0     H74292   1.612   7.391   6.806  2.2228 -0.4636 -0.1160
  563MOL0     H74293   1.629   7.344   6.982 -2.2565  1.0419 -0.0024
  563MOL0     H74294   1.430   7.307   6.772  0.0626  1.9253  0.7597
  563MOL0     H74295   1.408   7.210   6.918 -1.5631  0.1699  0.6239
  563MOL0     H74296   1.404   7.411   7.064  2.4137  0.7926  0.1580
  563MOL0     H74297   1.284   7.429   6.939 -0.5539 -1.4801  3.2428
  563MOL0     H74298   2.488   7.133   6.802  0.7495 -0.5991 -0.4032
  563MOL0     H74299   2.627   7.276   6.953  0.0721  0.1355  0.8133
  563MOL0     H74300   2.609   7.494   7.428  0.1934 -1.6131  3.6371
  563MOL0     H74301   2.735   7.640   7.545 -0.0748  0.9645 -0.9764
  563MOL0     H74302   2.428   7.339   7.881  1.0668 -0.1713  0.4354
  563MOL0     H74303   2.311   7.497   7.734 -1.3796  4.3338  1.2112
  563MOL0     H74304   2.053   7.915   7.659  0.9766  0.3014 -0.4414
  563MOL0     H74305   1.959   8.021   7.489 -0.3943  2.9605 -3.5030
  563MOL0     H74306   1.897   8.140   7.305  0.8207  0.7625  0.2029
  563MOL0     H74307   1.831   7.996   7.230 -3.9716  3.9146 -1.0151
  563MOL0     H74308   1.919   8.097   7.018 -1.5542 -2.1519  0.0840
  563MOL0     H74309   1.764   8.149   7.088  0.1199  2.2174  0.5842
  563MOL0     H74310   1.993   8.295   6.995 -0.7126  0.9951 -0.6436
  563MOL0     H74311   2.010   8.307   7.169 -0.7322  1.0240 -0.2377
  563MOL0     H74312   1.750   8.395   7.161 -1.3585  2.0439 -1.9586
  563MOL0     H74313   1.887   8.514   7.129  1.8919 -0.9064  1.9302
  563MOL0     H74314   1.740   8.512   6.755  1.0004 -1.3846 -1.0790
  563MOL0     H74315   2.252   7.896   7.211  1.8828 -0.1314 -0.4946
  563MOL0     H74316   2.396   7.809   7.401 -0.7769  0.0780 -2.8206
  564MOL0     O74317  10.444   3.253   3.661  0.4828  0.2693 -0.0803
  564MOL0     C74318  10.366   3.164   3.617 -0.4447 -0.9681 -0.6369
  564MOL0     O74319  10.349   3.118   3.484 -0.3992  0.2456 -0.0782
  564MOL0     C74320  10.414   3.170   3.374  0.9531  0.1956  1.0267
  564MOL0     C74321  10.440   3.084   3.267 -0.0746 -0.2826  0.4763
  564MOL0     C74322  10.482   3.132   3.140 -0.0937  0.0481 -0.3518
  564MOL0     C74323  10.483   3.272   3.116  0.4054 -0.1121  0.2400
  564MOL0     O74324  10.533   3.320   2.995 -0.0045 -0.0083 -0.6974
  564MOL0     C74325  10.458   3.274   2.879  0.2196  0.0767  0.1852
  564MOL0     C74326  10.496   3.328   2.745  0.7515  0.6492  0.3491
  564MOL0     C74327  10.512   3.477   2.734  0.7371  0.6673  0.0965
  564MOL0     C74328  10.604   3.520   2.621 -0.5508 -0.8724 -0.0238
  564MOL0     C74329  10.597   3.668   2.602  0.0105 -0.4308 -0.8102
  564MOL0     C74330  10.679   3.716   2.474  0.1132 -0.2648 -0.1646
  564MOL0     C74331  10.835   3.709   2.485 -0.1154 -0.9573 -0.3656
  564MOL0     C74332  10.886   3.574   2.430  0.2886  1.1687 -0.2313
  564MOL0     N74333  11.024   3.539   2.475 -0.2675  0.2616 -0.4386
  564MOL0     C74334  11.126   3.566   2.396 -0.4367  0.0241  1.1351
  564MOL0     C74335  11.233   3.537   2.468  0.2395 -0.0767  0.8141
  564MOL0     C74336  11.372   3.545   2.413 -0.6315  0.2901 -0.3675
  564MOL0     C74337  11.398   3.522   2.257 -0.3610  0.0594 -0.4362
  564MOL0     C74338  11.537   3.578   2.227 -0.9654  0.5108  0.4400
  564MOL0     C74339  11.539   3.618   2.073 -0.5018 -0.7655  0.1383
  564MOL0     O74340  11.604   3.744   2.056  0.6867  0.0547  0.2098
  564MOL0     C74341  11.692   3.757   1.956 -0.3241 -2.0688  0.2863
  564MOL0     C74342  11.761   3.884   1.959 -0.2013  0.0051  0.2415
  564MOL0     C74343  11.849   3.926   1.857 -0.7318  0.7094  0.7302
  564MOL0     C74344  11.862   3.842   1.741 -0.8240 -0.1893  0.7136
  564MOL0     C74345  11.938   3.894   1.627 -0.6512  0.4839  0.2212
  564MOL0     O74346  11.960   4.024   1.620  0.9458 -0.2002  0.0427
  564MOL0     C74347  12.026   4.089   1.519 -0.1956 -0.3550  0.6296
  564MOL0     C74348  12.047   4.052   1.383 -0.1958  0.3437  0.4280
  564MOL0     C74349  12.123   4.132   1.296 -0.7816 -0.5273 -0.4525
  564MOL0     C74350  12.150   4.267   1.334 -0.3534 -0.4188  0.0136
  564MOL0     O74351  12.217   4.361   1.246  1.1660 -0.1142 -0.6618
  564MOL0     C74352  12.250   4.322   1.121 -0.1427  0.1872 -0.6855
  564MOL0     C74353  12.350   4.422   1.051  0.3059  0.3981 -0.4792
  564MOL0     C74354  12.481   4.419   1.123  1.3662 -0.5129  0.1505
  564MOL0     C74355  12.556   4.552   1.137  0.0080  0.1808 -0.5189
  564MOL0     C74356  12.697   4.532   1.196  0.1959 -0.3045  0.8755
  564MOL0     C74357  12.764   4.671   1.218  0.0074  0.0084  0.8963
  564MOL0     C74358  12.763   4.768   1.095  0.8168 -0.0123 -0.7711
  564MOL0     C74359  12.851   4.889   1.142  0.6057  0.7350  0.4447
  564MOL0    Cl74360  12.984   4.861   1.259 -0.2312  0.1445 -0.4355
  564MOL0     C74361  12.121   4.306   1.470  0.0070 -0.5073  0.2120
  564MOL0     C74362  12.056   4.222   1.554  0.1235  0.9060 -0.7898
  564MOL0     O74363  11.972   3.809   1.547 -1.1479  0.3390  0.0809
  564MOL0     C74364  11.811   3.706   1.742  0.6839 -0.9202 -0.2972
  564MOL0     C74365  11.729   3.668   1.852 -0.1349  0.3941  0.7820
  564MOL0     N74366  11.197   3.499   2.596 -0.1394  0.5960  1.4710
  564MOL0     N74367  11.064   3.500   2.602  0.5552 -0.7217 -0.7047
  564MOL0     C74368  10.451   3.358   3.227 -0.1889 -0.6148 -0.0215
  564MOL0     C74369  10.434   3.302   3.354 -0.4009 -0.1033  1.0505
  564MOL0     C74370  10.276   3.112   3.718 -0.4927 -0.0975 -0.9600
  564MOL0     C74371  10.216   2.984   3.710 -0.0274 -0.3998  0.2510
  564MOL0     C74372  10.122   2.950   3.813 -0.0302  0.7075  0.4775
  564MOL0     C74373  10.101   3.028   3.923  0.5312 -0.3866  1.1170
  564MOL0     O74374   9.994   2.995   4.002  0.1318  0.3691 -0.2390
  564MOL0     C74375   9.948   3.085   4.110  0.0812  0.7810  0.3276
  564MOL0     C74376   9.817   3.035   4.168 -0.5063  1.2203 -0.2406
  564MOL0     C74377   9.785   3.123   4.286  0.4210 -0.5426  0.2690
  564MOL0     C74378   9.642   3.108   4.323  0.5446 -0.0131 -0.6116
  564MOL0     C74379   9.563   3.212   4.262  0.1062  0.1207  0.5407
  564MOL0     C74380   9.487   3.283   4.201 -0.9557 -0.4840  0.3569
  564MOL0     C74381  10.172   3.149   3.929 -0.7871  0.2535 -0.4781
  564MOL0     C74382  10.257   3.190   3.830 -0.8119  0.3780 -0.7375
  564MOL0     H74383  10.417   2.982   3.299  0.5133  0.4272  3.4839
  564MOL0     H74384  10.483   3.058   3.061 -2.8210 -1.3057  0.7387
  564MOL0     H74385  10.356   3.308   2.897  1.1197  1.0451  4.3833
  564MOL0     H74386  10.458   3.164   2.874  0.9979  0.1224 -2.8512
  564MOL0     H74387  10.433   3.284   2.668  2.0293 -1.5423  0.4607
  564MOL0     H74388  10.591   3.274   2.731  1.3302  1.7813 -0.2275
  564MOL0     H74389  10.540   3.532   2.824 -0.7431  2.2367 -0.3357
  564MOL0     H74390  10.410   3.511   2.710  0.1327 -2.4788 -2.5588
  564MOL0     H74391  10.704   3.486   2.649 -0.9169 -0.8269  1.4145
  564MOL0     H74392  10.564   3.480   2.528  2.5675  0.6366 -2.1900
  564MOL0     H74393  10.639   3.711   2.693 -1.2869 -2.6054  0.9261
  564MOL0     H74394  10.492   3.697   2.603 -0.2699 -1.4003  0.5156
  564MOL0     H74395  10.639   3.817   2.472 -2.1289 -0.9866  2.5619
  564MOL0     H74396  10.651   3.665   2.381 -0.9569 -1.6241  0.8630
  564MOL0     H74397  10.876   3.799   2.439  0.2759  0.2243  2.1060
  564MOL0     H74398  10.886   3.727   2.581  1.0285 -1.3886 -0.8739
  564MOL0     H74399  10.893   3.572   2.321  1.6803 -0.9508 -0.1712
  564MOL0     H74400  10.820   3.496   2.469  2.7085 -0.0903  1.6627
  564MOL0     H74401  11.123   3.619   2.301  0.5050  0.8049  1.5220
  564MOL0     H74402  11.428   3.483   2.485 -0.7623  1.0450  0.4044
  564MOL0     H74403  11.396   3.649   2.437  0.8272 -0.4550  1.7362
  564MOL0     H74404  11.312   3.562   2.203 -2.7158 -1.9733  1.5365
  564MOL0     H74405  11.396   3.414   2.244 -1.7483 -0.3959  2.4866
  564MOL0     H74406  11.537   3.669   2.288 -3.9765  0.1467  1.1204
  564MOL0     H74407  11.618   3.510   2.256 -1.1790  0.5554  1.1622
  564MOL0     H74408  11.436   3.647   2.049 -0.0185  4.4826  2.9351
  564MOL0     H74409  11.579   3.539   2.009 -0.9526 -0.4666 -0.5295
  564MOL0     H74410  11.745   3.964   2.030  0.5682 -0.4520  0.9530
  564MOL0     H74411  11.910   4.016   1.860 -0.2363  0.5753 -2.2074
  564MOL0     H74412  12.010   3.951   1.372 -1.0892  0.4927  1.7812
  564MOL0     H74413  12.140   4.080   1.202 -0.3719  0.3294 -0.8561
  564MOL0     H74414  12.155   4.312   1.066 -1.1786 -2.2988  1.3669
  564MOL0     H74415  12.289   4.220   1.118 -2.3905 -0.8895  1.9614
  564MOL0     H74416  12.310   4.523   1.063 -1.4677 -0.1827 -1.0723
  564MOL0     H74417  12.357   4.400   0.944  0.3214  1.2206 -0.6526
  564MOL0     H74418  12.538   4.332   1.089 -0.7074 -1.3703 -1.3370
  564MOL0     H74419  12.461   4.393   1.228 -1.5643 -3.3413 -0.9524
  564MOL0     H74420  12.559   4.602   1.040 -0.9294 -0.7439 -1.0428
  564MOL0     H74421  12.491   4.619   1.193 -2.7227 -0.2441 -2.9382
  564MOL0     H74422  12.763   4.474   1.130  0.8059  0.8296  0.4585
  564MOL0     H74423  12.695   4.478   1.291 -1.7382 -0.2869  0.8793
  564MOL0     H74424  12.868   4.657   1.251 -0.6074 -0.6385  2.6878
  564MOL0     H74425  12.711   4.725   1.297  0.5812 -0.1228  1.3818
  564MOL0     H74426  12.804   4.723   1.004 -0.5111  0.3034 -1.5538
  564MOL0     H74427  12.663   4.808   1.076  0.6927 -0.9242 -2.1601
  564MOL0     H74428  12.784   4.963   1.187 -2.9316 -2.1728  0.4533
  564MOL0     H74429  12.892   4.939   1.053 -0.9993 -0.4012 -1.0096
  564MOL0     H74430  12.141   4.411   1.489 -2.3332 -0.0678  0.4894
  564MOL0     H74431  12.003   4.260   1.640 -1.1635 -0.8144 -0.7735
  564MOL0     H74432  11.831   3.633   1.665 -0.4350 -0.3966 -1.1047
  564MOL0     H74433  11.700   3.564   1.843 -0.3674  0.6585 -3.8556
  564MOL0     H74434  10.438   3.461   3.196  0.7179  0.5069  3.0001
  564MOL0     H74435  10.421   3.365   3.441  3.2459 -1.7565  3.0561
  564MOL0     H74436  10.226   2.908   3.633 -0.0454  0.4253 -0.5813
  564MOL0     H74437  10.062   2.863   3.790  0.1345  1.0825 -1.6399
  564MOL0     H74438   9.933   3.188   4.075  3.4440  0.8432 -1.2928
  564MOL0     H74439  10.029   3.088   4.184 -0.5171 -1.7476  1.1881
  564MOL0     H74440   9.737   3.032   4.093  0.4319 -3.5172 -1.3456
  564MOL0     H74441   9.828   2.928   4.188  1.5848  0.8885 -2.5727
  564MOL0     H74442   9.816   3.226   4.266  2.4916 -1.2616 -0.4191
  564MOL0     H74443   9.842   3.096   4.375  1.1886  2.9194  0.9750
  564MOL0     H74444   9.613   3.006   4.300  0.5726  0.2111 -1.7030
  564MOL0     H74445   9.625   3.116   4.431  2.1623  1.5938 -0.4201
  564MOL0     H74446   9.426   3.343   4.138 -1.2116 -1.2260 -0.1054
  564MOL0     H74447  10.165   3.219   4.011  1.3341 -2.2253  2.0460
  564MOL0     H74448  10.297   3.284   3.866  2.5091 -1.9583  2.3373
  565MOL0     O74449   1.558   3.984   9.490  0.0573 -0.1140  0.1642
  565MOL0     C74450   1.515   4.058   9.407 -0.1285 -0.5446  0.9246
  565MOL0     O74451   1.487   4.190   9.424  0.0451  0.2871 -0.8448
  565MOL0     C74452   1.518   4.255   9.535 -0.8704  0.6318 -0.4441
  565MOL0     C74453   1.442   4.372   9.565 -1.9492 -0.0028  0.3410
  565MOL0     C74454   1.483   4.462   9.668  0.5971 -0.0189 -0.5891
  565MOL0     C74455   1.600   4.444   9.733  0.2217 -0.1667 -0.2415
  565MOL0     O74456   1.624   4.529   9.838 -0.1559  0.3897  0.2774
  565MOL0     C74457   1.688   4.487   9.958  0.0198 -1.1831 -0.0034
  565MOL0     C74458   1.832   4.547   9.972  0.9440 -0.3248  0.2938
  565MOL0     C74459   1.941   4.499   9.884  0.4123  0.1713  0.2202
  565MOL0     C74460   2.064   4.581   9.926 -0.3660  0.4726  0.1491
  565MOL0     C74461   2.187   4.554   9.828  0.0400 -0.2866 -0.4792
  565MOL0     C74462   2.160   4.593   9.690  0.2097 -0.3930  0.3076
  565MOL0     C74463   2.270   4.610   9.592 -0.7577  0.3914  0.0216
  565MOL0     C74464   2.354   4.728   9.624  1.1891 -0.0307 -0.3921
  565MOL0     N74465   2.280   4.866   9.609 -0.2513 -0.3342 -0.5248
  565MOL0     C74466   2.197   4.899   9.509  0.6989  0.1339  0.1283
  565MOL0     C74467   2.156   5.023   9.542 -0.2741  0.9652 -0.5247
  565MOL0     C74468   2.076   5.118   9.460 -0.7961  0.5970  0.5459
  565MOL0     C74469   1.931   5.117   9.527  0.5414 -0.2616 -0.9831
  565MOL0     C74470   1.844   5.240   9.483  0.8205  0.6397 -0.2276
  565MOL0     C74471   1.694   5.230   9.543 -0.2338  0.6567 -0.1200
  565MOL0     O74472   1.635   5.362   9.541 -0.1390  0.1368  0.7477
  565MOL0     C74473   1.659   5.457   9.648 -0.4020  1.0503  0.2928
  565MOL0     C74474   1.748   5.436   9.752  0.1459  0.6979  0.1949
  565MOL0     C74475   1.760   5.530   9.854  0.5254  0.1353 -0.2140
  565MOL0     C74476   1.695   5.659   9.851 -0.4615 -0.8167 -0.2650
  565MOL0     C74477   1.731   5.759   9.950  0.4535  0.3793 -1.0762
  565MOL0     O74478   1.775   5.718  10.071  0.1756 -0.7047 -0.0351
  565MOL0     C74479   1.800   5.815  10.163  0.4264  0.3325 -0.3181
  565MOL0     C74480   1.684   5.848  10.245 -0.4789  0.1099  0.9207
  565MOL0     C74481   1.708   5.935  10.355  0.8304  0.3781 -0.6840
  565MOL0     C74482   1.839   5.980  10.386 -1.0116 -0.6661  0.2535
  565MOL0     O74483   1.884   6.047  10.489  0.4116 -0.3834  0.4955
  565MOL0     C74484   1.785   6.092  10.583 -0.1425  0.1679 -0.7233
  565MOL0     C74485   1.835   6.166  10.703  0.0435 -0.3007 -0.0524
  565MOL0     C74486   1.731   6.179  10.810 -0.4691 -0.9156  0.4407
  565MOL0     C74487   1.777   6.276  10.918 -0.3246 -0.1566  0.2766
  565MOL0     C74488   1.672   6.269  11.028  0.2603 -0.0024 -0.1162
  565MOL0     C74489   1.641   6.128  11.087  0.3113 -0.1629 -0.5027
  565MOL0     C74490   1.559   6.118  11.206  0.5315  0.0928  0.1000
  565MOL0     C74491   1.589   5.985  11.261  0.9954  1.1238 -0.3122
  565MOL0    Cl74492   1.472   5.949  11.401  0.1462  0.1177 -0.1615
  565MOL0     C74493   1.941   5.956  10.299  0.3864  0.2964  0.0950
  565MOL0     C74494   1.931   5.875  10.185  0.1096 -0.0668 -0.1198
  565MOL0     O74495   1.711   5.875   9.912  0.8240 -0.1103  0.1984
  565MOL0     C74496   1.614   5.683   9.731  0.2809  0.8312  0.0071
  565MOL0     C74497   1.602   5.581   9.639  0.3893 -1.1787 -0.0324
  565MOL0     N74498   2.204   5.067   9.657  0.8505  0.4870  0.9787
  565MOL0     N74499   2.271   4.971   9.703  0.1036  0.3421 -0.3224
  565MOL0     C74500   1.669   4.322   9.707 -0.7904  0.4434  0.6978
  565MOL0     C74501   1.634   4.231   9.606 -0.0287 -0.1948 -1.2743
  565MOL0     C74502   1.498   4.006   9.275 -0.2295  0.1480  0.8285
  565MOL0     C74503   1.506   3.868   9.246 -0.5162  0.4236  0.0440
  565MOL0     C74504   1.516   3.825   9.114  0.2145 -0.1701 -0.2437
  565MOL0     C74505   1.502   3.913   9.004 -0.1316 -0.0282 -0.4695
  565MOL0     O74506   1.517   3.891   8.871 -0.8363 -0.5386  0.6343
  565MOL0     C74507   1.557   3.760   8.819 -0.1684  0.2503 -0.1571
  565MOL0     C74508   1.446   3.724   8.713 -0.8830 -0.2034 -0.5168
  565MOL0     C74509   1.480   3.592   8.661  0.0428  0.8780  0.1953
  565MOL0     C74510   1.599   3.594   8.568 -0.4568 -1.4522  0.8580
  565MOL0     C74511   1.627   3.458   8.515  0.1524 -0.3406  0.5099
  565MOL0     C74512   1.633   3.339   8.485  0.4813  0.7426  0.0772
  565MOL0     C74513   1.473   4.045   9.037  0.1996  0.6612 -0.0672
  565MOL0     C74514   1.484   4.091   9.168  0.1962 -0.0852  0.4082
  565MOL0     H74515   1.359   4.386   9.496 -2.7553  0.9996  1.4645
  565MOL0     H74516   1.421   4.540   9.711  0.8832 -0.5149  0.7709
  565MOL0     H74517   1.685   4.379   9.967  2.5792 -1.4005 -0.8038
  565MOL0     H74518   1.636   4.522  10.047 -0.3669 -1.4532 -0.1225
  565MOL0     H74519   1.846   4.542  10.080 -0.8569  0.1288  0.5798
  565MOL0     H74520   1.814   4.653   9.950  0.5320 -1.0112 -3.2781
  565MOL0     H74521   1.921   4.516   9.778  1.6343  0.0775 -0.0419
  565MOL0     H74522   1.956   4.392   9.903 -3.1098 -0.3824  0.4880
  565MOL0     H74523   2.028   4.685   9.922 -1.6131  0.0724  0.4467
  565MOL0     H74524   2.092   4.552  10.028  3.0824 -1.1276 -1.1091
  565MOL0     H74525   2.223   4.450   9.823 -0.1384 -0.3015 -1.8615
  565MOL0     H74526   2.275   4.597   9.878 -0.7396  0.2976  0.4081
  565MOL0     H74527   2.092   4.678   9.688 -1.8793 -1.8928  2.4641
  565MOL0     H74528   2.107   4.517   9.632  0.0860  0.1532 -0.3140
  565MOL0     H74529   2.330   4.518   9.593 -2.6416 -0.9063 -0.3295
  565MOL0     H74530   2.225   4.615   9.492 -1.8939  0.7396  0.5374
  565MOL0     H74531   2.444   4.739   9.563  2.4838 -2.0506  1.0543
  565MOL0     H74532   2.381   4.725   9.730 -2.2623  1.5031  0.6846
  565MOL0     H74533   2.181   4.841   9.419  2.6646 -0.3340  0.0422
  565MOL0     H74534   2.072   5.068   9.363 -1.8290 -1.3548  1.5204
  565MOL0     H74535   2.111   5.221   9.450 -1.2422  0.5708 -1.8171
  565MOL0     H74536   1.929   5.115   9.636 -2.2691 -0.7948 -0.9751
  565MOL0     H74537   1.882   5.024   9.497 -1.4082  0.6718 -0.8614
  565MOL0     H74538   1.888   5.338   9.507  0.1793  1.2527 -1.4449
  565MOL0     H74539   1.824   5.245   9.376  0.4655  4.1294 -0.1131
  565MOL0     H74540   1.692   5.193   9.646  1.0182 -0.9853 -0.6383
  565MOL0     H74541   1.632   5.172   9.475 -1.0650  0.8657  0.4503
  565MOL0     H74542   1.811   5.352   9.777 -0.7886 -0.0020  0.2374
  565MOL0     H74543   1.832   5.507   9.931  2.4646  1.4170 -1.5229
  565MOL0     H74544   1.579   5.821  10.232 -0.0175 -2.3360  1.7837
  565MOL0     H74545   1.622   5.949  10.420  1.1269 -1.6410  0.2092
  565MOL0     H74546   1.739   6.001  10.622 -0.0972  0.4986  0.1278
  565MOL0     H74547   1.708   6.150  10.530  0.2429  1.3263 -0.0616
  565MOL0     H74548   1.852   6.270  10.672  3.3435 -0.5724  0.5184
  565MOL0     H74549   1.931   6.123  10.734  0.6100 -0.9702 -2.5303
  565MOL0     H74550   1.738   6.083  10.862 -0.3597 -1.0981  0.0868
  565MOL0     H74551   1.626   6.191  10.780 -1.1555  1.0530  3.2394
  565MOL0     H74552   1.881   6.252  10.941  0.7660 -0.9503 -4.4287
  565MOL0     H74553   1.782   6.376  10.873  1.3411  0.9619  2.7001
  565MOL0     H74554   1.580   6.308  10.985 -0.3239 -2.3074 -1.1482
  565MOL0     H74555   1.695   6.333  11.114 -0.6087  0.9502 -0.5745
  565MOL0     H74556   1.731   6.079  11.123 -1.6853 -2.8965  1.1199
  565MOL0     H74557   1.596   6.064  11.010 -0.3586 -3.7200  2.5954
  565MOL0     H74558   1.583   6.187  11.287  2.8100  0.4535 -0.7900
  565MOL0     H74559   1.454   6.120  11.175  0.9706 -0.1214 -1.4931
  565MOL0     H74560   1.683   5.984  11.317  0.5069  0.8431  0.5276
  565MOL0     H74561   1.590   5.898  11.194 -0.2524 -2.1153  3.4867
  565MOL0     H74562   2.033   6.010  10.324 -0.1975 -0.0923  3.6475
  565MOL0     H74563   2.016   5.866  10.119  2.0269  1.3069  2.0171
  565MOL0     H74564   1.550   5.766   9.704 -1.8377 -0.7131 -0.0319
  565MOL0     H74565   1.535   5.617   9.561 -1.8527 -1.4945  1.6516
  565MOL0     H74566   1.755   4.305   9.770 -1.5047 -1.6139  1.2047
  565MOL0     H74567   1.695   4.146   9.577  0.6791  0.4383 -1.6939
  565MOL0     H74568   1.524   3.796   9.325 -1.4695  1.6401  1.4058
  565MOL0     H74569   1.532   3.723   9.081 -0.2967  0.7404 -3.7137
  565MOL0     H74570   1.573   3.682   8.895 -1.3251  0.9189  0.8106
  565MOL0     H74571   1.647   3.781   8.762  0.5864  2.2219  1.6252
  565MOL0     H74572   1.354   3.741   8.770  1.3137 -0.4061  3.4114
  565MOL0     H74573   1.445   3.809   8.644  0.2731 -0.4622 -0.8669
  565MOL0     H74574   1.407   3.536   8.602 -0.0669 -0.0401  1.1829
  565MOL0     H74575   1.491   3.531   8.750  0.6102  1.7082  0.7081
  565MOL0     H74576   1.575   3.671   8.494  1.4216 -1.4664  0.1851
  565MOL0     H74577   1.685   3.634   8.622  1.7517 -0.8738 -2.7714
  565MOL0     H74578   1.643   3.237   8.455  1.4048  1.1432 -1.0204
  565MOL0     H74579   1.467   4.113   8.953 -2.1391 -0.1749 -0.6700
  565MOL0     H74580   1.471   4.197   9.184  1.3884 -0.1167  1.7589
  566MOL0     O74581   3.736   4.287   0.028 -0.8652 -0.0489 -0.8271
  566MOL0     C74582   3.712   4.218  -0.069 -0.4558  0.6277 -0.4372
  566MOL0     O74583   3.603   4.236  -0.146  0.5384  0.1165 -0.7265
  566MOL0     C74584   3.509   4.328  -0.114 -0.4519  0.0878 -0.3316
  566MOL0     C74585   3.459   4.374   0.018 -0.3231  0.6528  0.0632
  566MOL0     C74586   3.368   4.472   0.033  0.4668  0.0969  0.3044
  566MOL0     C74587   3.294   4.517  -0.071  0.0730 -0.3242 -0.7917
  566MOL0     O74588   3.201   4.618  -0.055 -0.2249 -1.1897  0.3424
  566MOL0     C74589   3.192   4.711  -0.164  0.8032  0.5731  0.3664
  566MOL0     C74590   3.122   4.830  -0.106 -0.2942  0.0892  0.7695
  566MOL0     C74591   3.087   4.931  -0.221  0.4653 -0.7824 -0.6343
  566MOL0     C74592   3.021   5.052  -0.155  0.1350 -1.0213  0.6041
  566MOL0     C74593   3.003   5.163  -0.264  1.0609 -0.0473  1.1456
  566MOL0     C74594   2.934   5.287  -0.205 -0.9311  0.3356 -0.0347
  566MOL0     C74595   2.862   5.357  -0.316 -0.1292  0.7321  0.6786
  566MOL0     C74596   2.812   5.494  -0.250 -0.3844 -0.8638  0.8831
  566MOL0     N74597   2.762   5.583  -0.358  0.3929 -0.3319 -0.4704
  566MOL0     C74598   2.831   5.700  -0.391 -0.4984  0.7829  0.0988
  566MOL0     C74599   2.760   5.740  -0.490 -0.0481  0.4943 -0.5163
  566MOL0     C74600   2.787   5.865  -0.571 -0.1865  0.9403  0.2417
  566MOL0     C74601   2.784   5.835  -0.722 -0.0726 -0.0234 -0.8004
  566MOL0     C74602   2.918   5.779  -0.791  0.2767  0.1880  0.3478
  566MOL0     C74603   2.922   5.626  -0.788  0.1571  0.3614  0.5468
  566MOL0     O74604   3.025   5.593  -0.696 -0.4485 -0.4171 -0.9186
  566MOL0     C74605   3.054   5.461  -0.669 -0.4585  0.2142  0.6336
  566MOL0     C74606   2.960   5.355  -0.704 -0.4005 -0.5512  0.1235
  566MOL0     C74607   2.999   5.222  -0.680 -0.0898  0.1942 -0.4599
  566MOL0     C74608   3.130   5.190  -0.629  1.3379  1.2223 -0.7715
  566MOL0     C74609   3.168   5.054  -0.593  0.8157  0.4379  0.2023
  566MOL0     O74610   3.280   5.036  -0.526 -0.3794 -0.0445 -0.0639
  566MOL0     C74611   3.332   4.906  -0.504  0.1788 -0.3062 -0.0656
  566MOL0     C74612   3.297   4.780  -0.539  0.8212  0.9831 -0.1187
  566MOL0     C74613   3.370   4.670  -0.516 -0.1770 -0.3595  0.5901
  566MOL0     C74614   3.490   4.675  -0.457  0.4475  0.8816 -0.0850
  566MOL0     O74615   3.562   4.565  -0.443 -0.3041 -0.5802 -0.2574
  566MOL0     C74616   3.704   4.580  -0.438  0.1356 -0.2121 -0.1939
  566MOL0     C74617   3.755   4.464  -0.522 -0.1033  0.5759 -0.3129
  566MOL0     C74618   3.905   4.460  -0.521  0.2948 -0.2296  1.2389
  566MOL0     C74619   3.979   4.333  -0.589  0.7633  0.3977 -0.4365
  566MOL0     C74620   4.079   4.345  -0.706  0.2514  0.5425  0.2462
  566MOL0     C74621   4.207   4.430  -0.662  0.0798  1.1103  0.6615
  566MOL0     C74622   4.316   4.433  -0.771 -0.2387  0.4076  0.4417
  566MOL0     C74623   4.335   4.300  -0.848  0.2594 -0.2802  0.9294
  566MOL0    Cl74624   4.343   4.138  -0.769 -0.1532  0.1575 -0.2128
  566MOL0     C74625   3.529   4.796  -0.399  0.8329  0.3030  0.2850
  566MOL0     C74626   3.448   4.917  -0.427 -1.1241  0.0926 -0.2567
  566MOL0     O74627   3.085   4.961  -0.625 -0.5566 -0.4898 -0.2579
  566MOL0     C74628   3.211   5.296  -0.593  0.2248 -0.6844  0.4913
  566MOL0     C74629   3.179   5.427  -0.614  0.5784  0.1762  0.5510
  566MOL0     N74630   2.654   5.648  -0.514 -0.0957 -0.1493 -0.7423
  566MOL0     N74631   2.662   5.553  -0.443 -0.3350  1.1511 -0.1695
  566MOL0     C74632   3.328   4.471  -0.199  1.0522  0.1601 -1.0378
  566MOL0     C74633   3.427   4.373  -0.222 -1.3520 -0.0900 -0.0952
  566MOL0     C74634   3.804   4.101  -0.091  0.0324 -0.0748 -0.5547
  566MOL0     C74635   3.916   4.080  -0.012 -0.6581  0.8509  0.4912
  566MOL0     C74636   4.009   3.980  -0.033 -0.0290  0.4824 -0.5339
  566MOL0     C74637   3.978   3.881  -0.133 -0.2096 -0.1419  0.5080
  566MOL0     O74638   4.044   3.757  -0.150 -0.2725 -0.0730 -0.5793
  566MOL0     C74639   4.166   3.730  -0.075  0.5163 -0.1218  0.4500
  566MOL0     C74640   4.225   3.595  -0.111 -0.9828 -0.2426 -0.0637
  566MOL0     C74641   4.357   3.584  -0.036  0.6147 -0.4503  0.4824
  566MOL0     C74642   4.402   3.444  -0.002  0.3425  0.7774  0.1995
  566MOL0     C74643   4.533   3.431   0.060  0.1849  0.6915  0.4913
  566MOL0     C74644   4.648   3.423   0.109 -0.5309 -0.5181  0.6549
  566MOL0     C74645   3.871   3.905  -0.218  0.9692 -0.0404 -0.2284
  566MOL0     C74646   3.779   4.008  -0.197 -0.6281 -0.8138  0.2047
  566MOL0     H74647   3.500   4.321   0.103 -2.7779 -1.6921 -0.0630
  566MOL0     H74648   3.338   4.511   0.130  0.8213  1.2212 -0.0204
  566MOL0     H74649   3.139   4.668  -0.249  1.6385  0.2011  0.0283
  566MOL0     H74650   3.289   4.736  -0.208  2.7896 -2.8923  2.3434
  566MOL0     H74651   3.181   4.880  -0.028  0.7793  1.3070 -0.7346
  566MOL0     H74652   3.027   4.796  -0.064 -0.3163 -4.1974 -2.0632
  566MOL0     H74653   3.016   4.885  -0.291  0.6307 -0.1178 -1.2522
  566MOL0     H74654   3.172   4.972  -0.276 -1.4073  1.3738 -2.1059
  566MOL0     H74655   2.931   5.014  -0.106 -1.4637  0.8713 -0.7241
  566MOL0     H74656   3.080   5.094  -0.073 -1.4935 -1.2488  1.9379
  566MOL0     H74657   2.940   5.120  -0.342 -0.5552  0.8883  1.8767
  566MOL0     H74658   3.092   5.194  -0.319  0.3968  0.5761  0.3829
  566MOL0     H74659   2.994   5.356  -0.145 -2.1499  0.3631  1.2016
  566MOL0     H74660   2.864   5.246  -0.131  1.0251 -1.4691  0.9040
  566MOL0     H74661   2.934   5.383  -0.394 -0.4258  1.6577  0.6972
  566MOL0     H74662   2.778   5.294  -0.346 -0.9339  2.2568 -0.4138
  566MOL0     H74663   2.892   5.549  -0.199 -2.1075  0.4281  2.3401
  566MOL0     H74664   2.747   5.478  -0.163  2.7140  1.2594  3.8697
  566MOL0     H74665   2.920   5.744  -0.348 -1.2584 -0.2449  2.9636
  566MOL0     H74666   2.878   5.914  -0.535  1.6589 -1.7123 -0.4580
  566MOL0     H74667   2.707   5.937  -0.555 -0.5949  0.6188 -0.3299
  566MOL0     H74668   2.743   5.928  -0.761 -1.7387 -0.8286 -1.0547
  566MOL0     H74669   2.697   5.772  -0.741  1.0199 -1.6702 -0.5532
  566MOL0     H74670   2.916   5.809  -0.896 -3.4951  2.3507  0.8427
  566MOL0     H74671   3.007   5.829  -0.750  1.1024  0.6803 -1.9078
  566MOL0     H74672   2.949   5.587  -0.887 -2.1191  0.1414 -0.0371
  566MOL0     H74673   2.822   5.593  -0.757  1.0313 -0.3245  2.8152
  566MOL0     H74674   2.861   5.376  -0.743 -0.1731  0.3864  0.0379
  566MOL0     H74675   2.913   5.156  -0.683 -1.5474  1.9169  1.0666
  566MOL0     H74676   3.209   4.758  -0.598 -0.5256 -0.2987  2.2392
  566MOL0     H74677   3.328   4.574  -0.544 -0.6772 -0.6134  2.0858
  566MOL0     H74678   3.740   4.576  -0.335 -2.5210  0.8902  0.8748
  566MOL0     H74679   3.733   4.677  -0.479 -0.3557  0.1954  0.3910
  566MOL0     H74680   3.717   4.463  -0.624  3.4077 -4.0910 -1.9278
  566MOL0     H74681   3.722   4.367  -0.482  0.1477 -0.0462 -1.5676
  566MOL0     H74682   3.931   4.474  -0.416 -1.2439  1.9117  1.3928
  566MOL0     H74683   3.927   4.556  -0.567 -2.8964 -0.8722 -2.1423
  566MOL0     H74684   4.024   4.279  -0.504 -1.9173  1.2585  1.6751
  566MOL0     H74685   3.901   4.261  -0.617 -2.1185  2.8191  0.8542
  566MOL0     H74686   4.025   4.404  -0.780  2.3410 -0.2543 -2.0797
  566MOL0     H74687   4.110   4.248  -0.744  1.7028  1.7097 -1.7241
  566MOL0     H74688   4.246   4.361  -0.587 -0.6990 -1.2406 -0.9636
  566MOL0     H74689   4.181   4.525  -0.615  2.5102  1.3915  1.5717
  566MOL0     H74690   4.298   4.512  -0.844  1.0581  0.9967  0.7407
  566MOL0     H74691   4.409   4.458  -0.720 -0.9082 -0.3866  2.1604
  566MOL0     H74692   4.428   4.326  -0.900  0.8863 -2.9406  0.5661
  566MOL0     H74693   4.262   4.285  -0.928 -0.2094 -3.4635  1.8159
  566MOL0     H74694   3.608   4.813  -0.326  1.9677  0.1302 -0.8629
  566MOL0     H74695   3.480   5.014  -0.391 -1.4115  0.0978 -0.0182
  566MOL0     H74696   3.314   5.270  -0.570  0.1314 -1.2832  0.2560
  566MOL0     H74697   3.243   5.511  -0.589  0.5053  0.4685 -0.2184
  566MOL0     H74698   3.275   4.509  -0.286 -1.4563  2.1095  1.1835
  566MOL0     H74699   3.445   4.342  -0.325  1.6022 -1.1663  0.6503
  566MOL0     H74700   3.946   4.141   0.073 -2.5297 -0.5643  2.2667
  566MOL0     H74701   4.087   3.972   0.042 -1.2666  2.6258  1.1259
  566MOL0     H74702   4.132   3.734   0.029 -1.3696  1.7249 -0.1861
  566MOL0     H74703   4.232   3.814  -0.098  0.1400  0.1865  0.4959
  566MOL0     H74704   4.157   3.512  -0.088 -1.5904 -0.2756 -1.8004
  566MOL0     H74705   4.250   3.606  -0.217 -1.4832 -1.7924 -0.3602
  566MOL0     H74706   4.352   3.639   0.058  0.1074 -3.2215  2.2057
  566MOL0     H74707   4.420   3.637  -0.108 -1.3731 -0.1800 -1.1522
  566MOL0     H74708   4.326   3.401   0.063  0.9911  0.8195  1.0049
  566MOL0     H74709   4.411   3.395  -0.100 -1.1339  1.1584 -0.1563
  566MOL0     H74710   4.747   3.401   0.144 -0.7326 -0.8625  1.0055
  566MOL0     H74711   3.845   3.839  -0.301  3.6838  0.4158 -1.5613
  566MOL0     H74712   3.688   4.030  -0.253  0.1922  0.0123 -0.8251
  567MOL0     O74713   8.630   2.179   6.992 -0.7905  0.6973  0.2437
  567MOL0     C74714   8.685   2.280   7.025  0.0188 -0.7097 -0.6288
  567MOL0     O74715   8.821   2.306   7.038  0.8995  0.3650  0.0309
  567MOL0     C74716   8.904   2.228   6.966 -0.8269  0.0916  0.7137
  567MOL0     C74717   9.044   2.257   7.003 -0.5810  0.4909 -0.0222
  567MOL0     C74718   9.154   2.183   6.949 -0.6550  0.0939 -0.2536
  567MOL0     C74719   9.129   2.074   6.854 -0.2693 -1.1493 -0.6822
  567MOL0     O74720   9.228   2.014   6.787  0.1831 -0.0265 -0.5642
  567MOL0     C74721   9.368   2.036   6.836  0.4072  0.3602 -0.6294
  567MOL0     C74722   9.477   1.992   6.734  0.1409 -0.1770 -0.2383
  567MOL0     C74723   9.463   1.838   6.699  0.3202 -0.3922 -0.3250
  567MOL0     C74724   9.582   1.809   6.600  0.3499  0.6777 -0.4331
  567MOL0     C74725   9.573   1.663   6.549  0.1087  0.4358 -0.6606
  567MOL0     C74726   9.700   1.637   6.469 -0.2918  0.5819 -0.3411
  567MOL0     C74727   9.680   1.686   6.324 -0.0055 -0.3979  0.5916
  567MOL0     C74728   9.798   1.655   6.229 -1.0297 -0.6356 -0.5342
  567MOL0     N74729   9.811   1.514   6.213 -0.1061  0.8509  0.6708
  567MOL0     C74730   9.731   1.420   6.146  0.0681 -0.6801 -0.2274
  567MOL0     C74731   9.800   1.308   6.125 -0.1939 -0.2330 -1.0155
  567MOL0     C74732   9.753   1.187   6.050  0.6285 -0.1803 -0.0312
  567MOL0     C74733   9.660   1.116   6.144 -0.4115 -0.1058 -0.1248
  567MOL0     C74734   9.718   1.067   6.274 -1.1976 -0.4803 -0.7789
  567MOL0     C74735   9.622   0.967   6.342  0.4259 -0.3641 -0.5820
  567MOL0     O74736   9.480   1.004   6.328 -0.3535 -0.6231  0.0496
  567MOL0     C74737   9.377   0.919   6.367  0.3793 -0.2950 -0.0668
  567MOL0     C74738   9.390   0.780   6.400  0.4312  0.2532  0.4677
  567MOL0     C74739   9.275   0.716   6.456  0.6927 -0.6352 -0.4878
  567MOL0     C74740   9.144   0.786   6.470  0.5849 -0.5432  0.3583
  567MOL0     C74741   9.023   0.720   6.505  0.5800 -0.3818  0.0134
  567MOL0     O74742   8.916   0.797   6.493  0.6577 -0.2795 -0.1218
  567MOL0     C74743   8.787   0.755   6.520  0.5485  0.0112  0.3375
  567MOL0     C74744   8.693   0.775   6.428  0.5164  0.1281  0.0027
  567MOL0     C74745   8.565   0.741   6.461 -0.1285  0.7721  0.3775
  567MOL0     C74746   8.525   0.675   6.581  0.0251 -0.3501  0.1292
  567MOL0     O74747   8.403   0.632   6.603  0.2954  0.4067  0.0104
  567MOL0     C74748   8.384   0.493   6.552 -0.4751 -0.7405  1.0521
  567MOL0     C74749   8.430   0.382   6.642  0.6053  0.2297  0.6525
  567MOL0     C74750   8.342   0.393   6.763  0.1750 -0.9299  0.4447
  567MOL0     C74751   8.353   0.265   6.858  0.9215 -0.4284  0.6518
  567MOL0     C74752   8.252   0.270   6.970 -0.3645 -0.7054 -0.0953
  567MOL0     C74753   8.239   0.412   7.035 -0.1909  0.1889  0.8918
  567MOL0     C74754   8.147   0.418   7.164  0.7339  0.5567 -0.0609
  567MOL0     C74755   8.062   0.543   7.179 -0.7349  0.3984  0.3475
  567MOL0    Cl74756   8.168   0.671   7.214 -0.1255  0.2368 -0.4214
  567MOL0     C74757   8.623   0.647   6.674  0.2404  0.6337  0.6043
  567MOL0     C74758   8.754   0.692   6.642  0.6225 -0.0486 -0.6228
  567MOL0     O74759   9.025   0.600   6.536  0.0899 -0.0538  0.1418
  567MOL0     C74760   9.145   0.925   6.436  0.3670 -0.1773 -0.0122
  567MOL0     C74761   9.259   0.984   6.375 -0.0510 -0.1446 -0.1733
  567MOL0     N74762   9.935   1.328   6.179  1.1578  0.8307  0.3460
  567MOL0     N74763   9.932   1.449   6.223  0.3089 -0.6460 -0.5734
  567MOL0     C74764   8.994   2.049   6.816  0.4765 -0.3980 -0.7838
  567MOL0     C74765   8.883   2.126   6.864 -0.9919 -0.4741  0.4765
  567MOL0     C74766   8.602   2.397   7.021  0.3646  1.0926  0.1714
  567MOL0     C74767   8.658   2.526   6.994 -0.3570 -0.3906 -0.0359
  567MOL0     C74768   8.585   2.644   7.008 -0.0489 -0.4592 -0.1548
  567MOL0     C74769   8.449   2.635   7.038 -1.1714  0.7734  0.9711
  567MOL0     O74770   8.374   2.742   7.026 -0.9362 -0.0485 -0.1657
  567MOL0     C74771   8.309   2.790   7.146  0.0312  0.2866  0.5682
  567MOL0     C74772   8.394   2.881   7.229  0.3965  0.2794  0.6984
  567MOL0     C74773   8.485   2.807   7.328  0.4419  0.2910 -0.2081
  567MOL0     C74774   8.579   2.911   7.408 -0.6986 -0.5417 -0.3635
  567MOL0     C74775   8.515   2.965   7.527 -0.9461  0.3189  0.0451
  567MOL0     C74776   8.463   3.007   7.625  0.2382  0.0773 -0.6792
  567MOL0     C74777   8.390   2.507   7.067  0.3108 -0.1896  0.3342
  567MOL0     C74778   8.467   2.390   7.058 -0.0715 -1.0286 -0.4337
  567MOL0     H74779   9.060   2.336   7.076 -0.1124 -2.0315  2.8224
  567MOL0     H74780   9.255   2.215   6.970 -0.1314 -0.3633 -1.9408
  567MOL0     H74781   9.386   1.982   6.929  1.2649  2.2794  0.3436
  567MOL0     H74782   9.399   2.138   6.858  2.5511 -0.8276  2.5713
  567MOL0     H74783   9.580   2.001   6.771  0.6098  2.5015 -1.9475
  567MOL0     H74784   9.458   2.053   6.646  1.9156 -0.0535 -0.5887
  567MOL0     H74785   9.363   1.817   6.661  1.3723 -0.5835 -3.1865
  567MOL0     H74786   9.476   1.786   6.795 -1.2735 -0.6593 -0.2266
  567MOL0     H74787   9.582   1.867   6.508 -2.3239 -1.5352 -1.9911
  567MOL0     H74788   9.671   1.820   6.663  0.0497  0.3419  0.0542
  567MOL0     H74789   9.478   1.642   6.498  1.4017 -3.7583 -1.6612
  567MOL0     H74790   9.579   1.599   6.638  0.2845  1.3956  0.0402
  567MOL0     H74791   9.719   1.530   6.455  2.1239  1.1049 -1.4433
  567MOL0     H74792   9.787   1.680   6.518  0.1252 -1.3031  0.6747
  567MOL0     H74793   9.589   1.642   6.281  0.7394  1.2972 -3.0778
  567MOL0     H74794   9.676   1.795   6.333  0.1355 -0.5120  2.6472
  567MOL0     H74795   9.895   1.681   6.272 -0.0649 -3.3683 -0.8551
  567MOL0     H74796   9.790   1.704   6.132  2.5411 -3.7253 -2.6672
  567MOL0     H74797   9.626   1.428   6.122  0.2753 -0.2894 -1.0125
  567MOL0     H74798   9.834   1.121   6.017 -2.4067 -4.2440 -0.1793
  567MOL0     H74799   9.708   1.217   5.955 -1.0070  0.6565  0.9608
  567MOL0     H74800   9.640   1.026   6.086  0.6719  0.3243 -1.2020
  567MOL0     H74801   9.560   1.161   6.145 -1.0060 -1.3630 -0.8729
  567MOL0     H74802   9.823   1.037   6.266 -0.1293  2.6841 -0.1455
  567MOL0     H74803   9.725   1.162   6.327 -0.9127 -0.7094 -0.4065
  567MOL0     H74804   9.648   0.961   6.448 -2.1604 -2.0789  0.0495
  567MOL0     H74805   9.644   0.867   6.303  1.8712 -0.1759 -0.3382
  567MOL0     H74806   9.487   0.731   6.399  0.4966  0.3453  1.2658
  567MOL0     H74807   9.265   0.608   6.469 -1.9995 -0.4763 -0.7313
  567MOL0     H74808   8.718   0.832   6.340 -0.5693  2.7764  1.3077
  567MOL0     H74809   8.478   0.768   6.401 -0.7819  0.6001  1.2209
  567MOL0     H74810   8.453   0.483   6.468  3.5109  0.8570  3.8170
  567MOL0     H74811   8.279   0.486   6.525 -0.8466  0.3341  2.1350
  567MOL0     H74812   8.535   0.392   6.669  1.6300 -1.0529 -2.4514
  567MOL0     H74813   8.412   0.288   6.589 -0.2875 -0.4923  2.1513
  567MOL0     H74814   8.238   0.402   6.731 -0.0239  0.4767  1.3927
  567MOL0     H74815   8.376   0.488   6.806  0.4338 -0.1329 -1.4287
  567MOL0     H74816   8.349   0.175   6.797  2.2908 -0.7296  0.9822
  567MOL0     H74817   8.451   0.268   6.906  1.0144 -1.9886  0.6040
  567MOL0     H74818   8.276   0.195   7.046 -2.7733 -0.8894  0.5640
  567MOL0     H74819   8.156   0.237   6.929  0.0513 -4.3887  1.5653
  567MOL0     H74820   8.201   0.472   6.951  0.9438  1.7194  1.4150
  567MOL0     H74821   8.339   0.448   7.063  0.0240  1.1292 -0.9624
  567MOL0     H74822   8.087   0.327   7.154  1.0541  0.2301  0.8715
  567MOL0     H74823   8.217   0.418   7.248  2.0391 -1.9430 -1.0158
  567MOL0     H74824   7.986   0.534   7.258  0.0222 -3.8922  0.8072
  567MOL0     H74825   8.003   0.570   7.091  0.7955  0.9025 -0.5619
  567MOL0     H74826   8.607   0.587   6.763 -1.1021 -0.1233 -0.1250
  567MOL0     H74827   8.839   0.661   6.702  0.9230  0.5271 -0.7473
  567MOL0     H74828   9.056   0.986   6.448  0.8041  1.1158 -2.6278
  567MOL0     H74829   9.268   1.086   6.339  2.9406  0.2051  1.2550
  567MOL0     H74830   8.967   1.978   6.739 -2.4223  1.6293 -1.7787
  567MOL0     H74831   8.780   2.122   6.832 -0.5697  3.5543 -2.1364
  567MOL0     H74832   8.764   2.540   6.974 -0.9539  2.2489 -1.8984
  567MOL0     H74833   8.629   2.743   7.002  0.2150 -0.4159  1.7165
  567MOL0     H74834   8.273   2.702   7.199  0.4492 -1.5900 -2.0207
  567MOL0     H74835   8.224   2.853   7.119  0.2533  0.1059 -0.6283
  567MOL0     H74836   8.447   2.956   7.169  1.4924  0.1660  1.5041
  567MOL0     H74837   8.329   2.939   7.295 -0.6810 -1.2596  1.0457
  567MOL0     H74838   8.537   2.718   7.293  3.5412  1.7072  0.4689
  567MOL0     H74839   8.409   2.763   7.394 -0.7753  0.4015 -1.4749
  567MOL0     H74840   8.680   2.871   7.423 -0.0982 -0.9404 -4.4114
  567MOL0     H74841   8.608   2.993   7.341  3.2651  1.2468  3.0419
  567MOL0     H74842   8.405   3.043   7.708 -0.2962 -1.8146 -0.1855
  567MOL0     H74843   8.284   2.497   7.085  0.4349 -1.0396  0.6755
  567MOL0     H74844   8.414   2.296   7.072  0.7557 -1.1682  2.3335
  568MOL0     O74845   9.229  11.095   8.426 -0.8444  0.0274 -0.3609
  568MOL0     C74846   9.191  10.981   8.456  0.6813 -0.4775  0.7591
  568MOL0     O74847   9.080  10.914   8.407  0.3360  0.5762  0.0632
  568MOL0     C74848   9.028  10.932   8.283  0.1108  0.3936  0.3073
  568MOL0     C74849   9.085  11.013   8.184 -0.1067 -0.6177 -0.1928
  568MOL0     C74850   9.033  11.011   8.054  0.0013  0.7494 -0.2885
  568MOL0     C74851   8.918  10.938   8.021 -0.1076  0.5278  0.2427
  568MOL0     O74852   8.870  10.940   7.892 -0.0556  0.1898  0.0198
  568MOL0     C74853   8.727  10.962   7.896 -0.1014 -0.2114 -0.1322
  568MOL0     C74854   8.695  11.069   7.791  0.0421 -0.1858 -1.3564
  568MOL0     C74855   8.551  11.117   7.816  0.2824 -0.1882  0.7061
  568MOL0     C74856   8.526  11.216   7.709 -0.4666 -0.4761  0.3839
  568MOL0     C74857   8.388  11.272   7.727 -0.6570 -0.1266  0.3013
  568MOL0     C74858   8.362  11.342   7.594  0.5346 -0.1904  0.1081
  568MOL0     C74859   8.232  11.412   7.587  0.5117 -0.3917 -0.0491
  568MOL0     C74860   8.216  11.491   7.456  0.3864  0.0277  0.6334
  568MOL0     N74861   8.088  11.561   7.423  0.6381 -0.6174 -0.1770
  568MOL0     C74862   7.969  11.499   7.400  0.5898  0.3726  0.2278
  568MOL0     C74863   7.884  11.590   7.357  0.9377  0.0885  0.0491
  568MOL0     C74864   7.739  11.571   7.325  0.7422 -1.1076  0.3315
  568MOL0     C74865   7.706  11.577   7.177 -0.4171  0.6521 -0.2043
  568MOL0     C74866   7.744  11.436   7.112 -0.1821 -0.4062  0.1782
  568MOL0     C74867   7.727  11.426   6.958  0.2181 -0.6716 -0.9904
  568MOL0     O74868   7.806  11.534   6.904 -0.4814  0.2547  0.9103
  568MOL0     C74869   7.789  11.566   6.771 -0.5327  0.6460 -1.3362
  568MOL0     C74870   7.870  11.664   6.740 -0.6007  0.4634 -1.1898
  568MOL0     C74871   7.892  11.717   6.612 -0.8313  1.0167 -0.0191
  568MOL0     C74872   7.829  11.646   6.513  0.0314 -0.0856 -0.6124
  568MOL0     C74873   7.854  11.680   6.372  0.0696  0.1659  0.8043
  568MOL0     O74874   7.809  11.586   6.280 -0.0885  0.5215  0.3027
  568MOL0     C74875   7.821  11.601   6.139 -0.0107 -0.1236 -0.6903
  568MOL0     C74876   7.781  11.721   6.071 -0.4543  0.2145 -0.9855
  568MOL0     C74877   7.770  11.724   5.928  0.3193 -0.0813  0.4297
  568MOL0     C74878   7.809  11.613   5.850 -0.0756  1.1198 -0.9962
  568MOL0     O74879   7.800  11.602   5.712 -0.9351 -0.3848 -0.1237
  568MOL0     C74880   7.761  11.722   5.642  1.0439 -0.3037 -1.1756
  568MOL0     C74881   7.745  11.679   5.496  0.2495 -0.1534 -0.5252
  568MOL0     C74882   7.615  11.614   5.456  0.1181  0.3048  0.4554
  568MOL0     C74883   7.560  11.669   5.323 -1.0841  0.3067 -0.1898
  568MOL0     C74884   7.416  11.609   5.312  0.6954 -0.1863  0.3080
  568MOL0     C74885   7.360  11.655   5.181  0.5241 -0.5495  0.0409
  568MOL0     C74886   7.210  11.635   5.180  0.5202  0.0835 -0.0791
  568MOL0     C74887   7.154  11.669   5.039  1.0776 -0.7561 -0.6947
  568MOL0    Cl74888   7.171  11.541   4.920  0.1258 -0.4644 -0.2554
  568MOL0     C74889   7.871  11.512   5.927  0.8377  1.0420 -0.5316
  568MOL0     C74890   7.873  11.498   6.066 -0.4332  0.3744  0.4668
  568MOL0     O74891   7.906  11.789   6.347  0.4394 -0.2101 -0.8908
  568MOL0     C74892   7.737  11.545   6.543  0.5213  0.2237  0.0175
  568MOL0     C74893   7.721  11.504   6.673 -0.2500  0.7025  0.3013
  568MOL0     N74894   7.957  11.711   7.366  0.1417  0.2309  0.5967
  568MOL0     N74895   8.084  11.686   7.376  0.2904 -0.0757 -0.5365
  568MOL0     C74896   8.866  10.854   8.116 -0.3665  0.8418  0.3634
  568MOL0     C74897   8.918  10.855   8.246  0.0308  0.7980 -0.6171
  568MOL0     C74898   9.267  10.919   8.563  0.3478 -0.0752 -1.2003
  568MOL0     C74899   9.188  10.854   8.655 -0.2877 -0.0582 -0.0882
  568MOL0     C74900   9.258  10.775   8.753 -0.0991  0.1360 -0.7868
  568MOL0     C74901   9.390  10.793   8.773 -0.4463  0.1985  0.2296
  568MOL0     O74902   9.462  10.736   8.875  0.5536 -0.0163 -0.1442
  568MOL0     C74903   9.392  10.697   8.987  0.5387  0.0422 -0.0932
  568MOL0     C74904   9.486  10.685   9.106 -0.2822  0.0996 -0.3937
  568MOL0     C74905   9.411  10.616   9.223  0.0141  0.6712 -0.6013
  568MOL0     C74906   9.516  10.553   9.327 -0.2082  0.2203  1.1501
  568MOL0     C74907   9.464  10.435   9.396  0.3529  0.4833  0.2000
  568MOL0     C74908   9.413  10.343   9.450 -0.0491  0.0965 -0.2407
  568MOL0     C74909   9.467  10.869   8.683  0.3595  0.3935 -0.6237
  568MOL0     C74910   9.405  10.939   8.578  0.1432  0.2223  0.2001
  568MOL0     H74911   9.176  11.070   8.199 -0.6768  0.4801 -0.7497
  568MOL0     H74912   9.077  11.064   7.970  0.9673  0.1475 -0.1802
  568MOL0     H74913   8.692  10.984   7.997 -0.5082 -0.4869 -0.2094
  568MOL0     H74914   8.682  10.870   7.858  2.1098 -1.1100 -0.7076
  568MOL0     H74915   8.715  11.043   7.687 -2.1618  1.0996 -2.1626
  568MOL0     H74916   8.764  11.149   7.819  0.6148 -1.2067  0.3116
  568MOL0     H74917   8.538  11.160   7.916  0.2755  2.1484 -0.2184
  568MOL0     H74918   8.486  11.030   7.805  1.4822 -1.3525  2.4359
  568MOL0     H74919   8.598  11.295   7.732 -0.3169 -0.3334 -0.5240
  568MOL0     H74920   8.534  11.160   7.615 -0.7954  0.8588 -0.4624
  568MOL0     H74921   8.392  11.346   7.807 -0.3697 -0.0992  0.2629
  568MOL0     H74922   8.314  11.199   7.762  0.7336 -0.3696  3.0125
  568MOL0     H74923   8.365  11.279   7.505  0.3352  1.6489 -1.2624
  568MOL0     H74924   8.440  11.419   7.594  1.3836 -0.9975  1.8288
  568MOL0     H74925   8.158  11.336   7.612 -0.8598  1.0230  0.3026
  568MOL0     H74926   8.230  11.490   7.664  0.2974 -0.8365  0.4037
  568MOL0     H74927   8.236  11.415   7.379  1.2152 -2.4361  3.0860
  568MOL0     H74928   8.295  11.567   7.460  1.6683 -1.2552  0.6057
  568MOL0     H74929   7.944  11.394   7.414 -0.0892  0.5241  0.2030
  568MOL0     H74930   7.684  11.655   7.369  0.1504 -1.4451  0.2534
  568MOL0     H74931   7.698  11.480   7.371  0.1988 -0.4324  1.2067
  568MOL0     H74932   7.769  11.651   7.129 -2.5951  3.1925  0.5890
  568MOL0     H74933   7.598  11.596   7.174 -0.3656  1.3002  1.2369
  568MOL0     H74934   7.846  11.411   7.141  0.1105 -0.7625 -1.0745
  568MOL0     H74935   7.678  11.360   7.154 -2.4944  0.2475 -2.0469
  568MOL0     H74936   7.623  11.423   6.927 -0.4897 -2.0044  1.2944
  568MOL0     H74937   7.762  11.327   6.926 -2.2071 -2.0287  0.3082
  568MOL0     H74938   7.930  11.710   6.818  0.3814 -1.9468 -0.4624
  568MOL0     H74939   7.974  11.785   6.595  0.8010 -0.9309 -0.3081
  568MOL0     H74940   7.740  11.806   6.124 -2.4871 -1.5548  0.4272
  568MOL0     H74941   7.714  11.808   5.890 -0.6990 -0.1165  1.7782
  568MOL0     H74942   7.842  11.795   5.639 -0.3315  1.3933  0.6269
  568MOL0     H74943   7.669  11.770   5.676  2.6677  2.7978 -0.8390
  568MOL0     H74944   7.830  11.616   5.471  0.2053 -0.1127 -0.7790
  568MOL0     H74945   7.750  11.773   5.441  1.3946  1.5661  2.3020
  568MOL0     H74946   7.550  11.639   5.540  1.0511 -2.3528  2.1039
  568MOL0     H74947   7.619  11.505   5.454 -0.1125  0.2916 -1.4293
  568MOL0     H74948   7.561  11.778   5.318 -0.0752  0.3108 -0.0245
  568MOL0     H74949   7.625  11.641   5.239 -1.9680  1.8689 -1.4695
  568MOL0     H74950   7.358  11.656   5.393  0.1786  0.1905 -0.2719
  568MOL0     H74951   7.424  11.500   5.317  2.6851 -0.0106  1.9796
  568MOL0     H74952   7.411  11.598   5.103  3.1350 -1.5116  2.2834
  568MOL0     H74953   7.388  11.760   5.170  0.5378 -0.3490  1.7418
  568MOL0     H74954   7.194  11.528   5.200 -1.1081  0.4076  0.4899
  568MOL0     H74955   7.159  11.694   5.256 -0.0763 -0.2901 -0.1814
  568MOL0     H74956   7.209  11.758   5.008 -2.6837  2.3421  0.7344
  568MOL0     H74957   7.047  11.687   5.055  0.9858 -1.6829 -0.1153
  568MOL0     H74958   7.911  11.438   5.857  0.0926 -0.1582  0.2707
  568MOL0     H74959   7.915  11.413   6.119 -1.8723 -1.0597 -0.6057
  568MOL0     H74960   7.671  11.509   6.465  2.0256  0.6024 -1.4901
  568MOL0     H74961   7.664  11.412   6.685  2.4526 -1.0763  0.5036
  568MOL0     H74962   8.784  10.799   8.072  1.5334 -0.8497 -1.3025
  568MOL0     H74963   8.868  10.783   8.310 -1.1582 -0.0121 -2.3732
  568MOL0     H74964   9.081  10.841   8.642 -0.1725 -1.7921  0.4303
  568MOL0     H74965   9.201  10.711   8.820  2.9852 -0.1534  1.8159
  568MOL0     H74966   9.338  10.603   8.967  2.5532 -1.7963  2.5062
  568MOL0     H74967   9.329  10.780   9.021 -0.2505 -0.7302  0.3912
  568MOL0     H74968   9.581  10.633   9.091 -0.4197  0.2320 -1.8641
  568MOL0     H74969   9.507  10.788   9.139  1.6960  0.2854 -1.9952
  568MOL0     H74970   9.348  10.541   9.174 -0.5958  1.6299 -1.3121
  568MOL0     H74971   9.348  10.682   9.283 -0.9429 -1.2404  0.6068
  568MOL0     H74972   9.610  10.523   9.282 -1.4775 -1.8458 -0.2934
  568MOL0     H74973   9.554  10.624   9.401  3.6402  0.6226 -0.9784
  568MOL0     H74974   9.370  10.257   9.498 -1.9518  0.5486 -1.0253
  568MOL0     H74975   9.571  10.890   8.702  0.5329 -1.6247  1.0068
  568MOL0     H74976   9.468  10.994   8.510 -1.8450  0.8260 -1.2567
  569MOL0     O74977   5.490   9.840  10.347  0.3060 -0.6712 -0.3150
  569MOL0     C74978   5.513   9.943  10.278 -0.0978  0.1394  0.0527
  569MOL0     O74979   5.531   9.938  10.145  0.1618 -0.2865  0.6690
  569MOL0     C74980   5.482   9.829  10.085 -0.4688  0.2675 -0.7049
  569MOL0     C74981   5.573   9.726  10.062  0.6967  0.1810  0.2127
  569MOL0     C74982   5.518   9.602  10.031 -0.3415 -0.1347 -0.3354
  569MOL0     C74983   5.381   9.583  10.008 -0.7061  0.4366  0.9100
  569MOL0     O74984   5.319   9.468   9.967  0.3423 -0.5181 -0.3557
  569MOL0     C74985   5.396   9.351   9.966  0.4229  0.2626 -0.0137
  569MOL0     C74986   5.331   9.223   9.912  0.3016 -0.4233  0.4351
  569MOL0     C74987   5.399   9.093   9.946 -0.5534 -0.1747  0.5219
  569MOL0     C74988   5.313   8.977   9.896 -0.5453 -0.3086 -0.6880
  569MOL0     C74989   5.212   8.927  10.007 -0.4163  0.2706  0.4920
  569MOL0     C74990   5.147   8.783   9.981 -1.0810  0.2588 -0.2902
  569MOL0     C74991   5.248   8.673   9.951  0.2941  1.5834  0.0225
  569MOL0     C74992   5.175   8.533   9.944  0.7173  0.0886 -0.5787
  569MOL0     N74993   5.283   8.435   9.962  0.1452  0.4138  0.4427
  569MOL0     C74994   5.367   8.390   9.862 -0.2288  0.2396 -0.2187
  569MOL0     C74995   5.455   8.300   9.930 -0.0726  0.1322  0.8631
  569MOL0     C74996   5.560   8.213   9.868 -0.4938 -0.0757  0.5034
  569MOL0     C74997   5.509   8.061   9.862  1.2127 -0.3279  0.3487
  569MOL0     C74998   5.392   8.037   9.759 -0.7265 -0.4783  0.1819
  569MOL0     C74999   5.250   8.033   9.817  0.6206  1.1326  0.4049
  569MOL0     O75000   5.152   8.015   9.710  0.8975  0.2464 -0.5904
  569MOL0     C75001   5.022   8.012   9.757 -0.9986 -0.2474 -0.4320
  569MOL0     C75002   4.980   8.070   9.884 -0.2702 -0.5098 -0.8909
  569MOL0     C75003   4.850   8.045   9.929 -0.0632 -0.3112 -0.2425
  569MOL0     C75004   4.747   8.004   9.849  0.3976 -0.2198 -0.7233
  569MOL0     C75005   4.608   8.001   9.901  0.2895 -0.0102  0.6123
  569MOL0     O75006   4.517   7.939   9.820 -0.2174  0.4445  1.2021
  569MOL0     C75007   4.387   7.906   9.878 -0.2585  0.6070  0.7285
  569MOL0     C75008   4.258   7.928   9.818  0.4045 -0.0053 -0.1933
  569MOL0     C75009   4.131   7.887   9.873 -1.2927 -0.7638  0.4439
  569MOL0     C75010   4.132   7.830  10.001  0.2277 -0.4103 -0.4401
  569MOL0     O75011   4.032   7.770  10.066  0.6743 -0.6020  0.5506
  569MOL0     C75012   3.894   7.778  10.015  0.4559  1.1826 -0.3264
  569MOL0     C75013   3.810   7.702  10.108 -0.2157 -0.1145 -0.7962
  569MOL0     C75014   3.668   7.686  10.054  0.9262  0.5741  0.0943
  569MOL0     C75015   3.559   7.677  10.158  0.0850 -0.0711 -0.5069
  569MOL0     C75016   3.419   7.700  10.094 -0.0269 -0.1116  0.9896
  569MOL0     C75017   3.301   7.667  10.199 -0.0286 -1.1949  0.1529
  569MOL0     C75018   3.178   7.749  10.176 -0.1540 -0.2803  0.2609
  569MOL0     C75019   3.124   7.726  10.038  0.0951  0.0526  1.0046
  569MOL0    Cl75020   3.169   7.826   9.900  0.4410  0.0034  0.1768
  569MOL0     C75021   4.265   7.804  10.060  0.3667 -0.8471  0.7020
  569MOL0     C75022   4.391   7.836  10.001 -0.2511 -0.5545 -0.2145
  569MOL0     O75023   4.582   8.042  10.014 -0.1501 -0.6576  0.9453
  569MOL0     C75024   4.784   7.971   9.717 -0.7999 -0.3045 -0.3788
  569MOL0     C75025   4.920   7.956   9.675  0.3635  0.8412  0.7986
  569MOL0     N75026   5.409   8.291  10.064 -0.1411 -0.0811 -0.0873
  569MOL0     N75027   5.309   8.377  10.080 -0.7272 -0.1347 -0.0559
  569MOL0     C75028   5.286   9.680  10.026 -0.1179 -0.2544  0.0522
  569MOL0     C75029   5.340   9.804  10.061 -0.6278  0.1232 -0.5114
  569MOL0     C75030   5.515  10.074  10.345 -0.2032 -1.1062  0.0129
  569MOL0     C75031   5.510  10.082  10.483 -0.8682 -0.6290  0.7361
  569MOL0     C75032   5.514  10.207  10.553  0.9068  0.4910 -0.4466
  569MOL0     C75033   5.510  10.323  10.475  0.9472 -0.7247 -0.3555
  569MOL0     O75034   5.509  10.448  10.527  0.9800  0.0749  0.4319
  569MOL0     C75035   5.383  10.515  10.540 -0.9801 -0.3181  0.0438
  569MOL0     C75036   5.299  10.460  10.656  0.0700  0.3321 -0.3085
  569MOL0     C75037   5.152  10.516  10.666  0.1312  0.1987  0.4385
  569MOL0     C75038   5.157  10.658  10.667 -0.6943 -0.5053 -0.1189
  569MOL0     C75039   5.208  10.702  10.792 -0.0342 -1.3483  0.4964
  569MOL0     C75040   5.246  10.761  10.895 -1.0269 -0.3567  1.1004
  569MOL0     C75041   5.515  10.316  10.341 -0.4853 -0.2942 -0.1290
  569MOL0     C75042   5.524  10.194  10.268  0.0212 -0.5591 -0.5722
  569MOL0     H75043   5.679   9.745  10.076  0.5620  1.2798 -0.1796
  569MOL0     H75044   5.589   9.522  10.013 -0.5397 -0.3668 -0.0972
  569MOL0     H75045   5.433   9.324  10.065  2.7867 -0.0541 -0.9066
  569MOL0     H75046   5.484   9.364   9.903 -0.0764  3.3097 -0.2108
  569MOL0     H75047   5.338   9.227   9.803  1.7194 -0.7156  0.5108
  569MOL0     H75048   5.225   9.219   9.941 -0.1194  0.4055 -0.8872
  569MOL0     H75049   5.418   9.079  10.053 -1.3699 -1.1087  0.5539
  569MOL0     H75050   5.489   9.108   9.885 -3.0385  0.6403 -3.2313
  569MOL0     H75051   5.242   8.991   9.814 -0.1927 -0.8218 -1.0771
  569MOL0     H75052   5.391   8.908   9.865  0.9862  1.3573 -0.6911
  569MOL0     H75053   5.125   8.992  10.015 -3.7889 -3.5202 -1.4689
  569MOL0     H75054   5.261   8.913  10.105  3.3157  0.4246 -1.1828
  569MOL0     H75055   5.089   8.796   9.889  0.3612 -3.4599 -1.9228
  569MOL0     H75056   5.083   8.764  10.067  3.0226 -0.1270  2.9546
  569MOL0     H75057   5.298   8.694   9.856  0.0798 -1.2014 -0.7944
  569MOL0     H75058   5.319   8.670  10.034 -0.4270  0.1509  0.6350
  569MOL0     H75059   5.120   8.514   9.852 -1.3101  2.0277  0.1398
  569MOL0     H75060   5.111   8.510  10.030  0.9960  2.3080  0.2766
  569MOL0     H75061   5.366   8.397   9.754 -1.4530 -0.3586 -0.2699
  569MOL0     H75062   5.651   8.215   9.929 -0.8211 -1.3932  1.0686
  569MOL0     H75063   5.602   8.248   9.773 -0.3696 -2.2528 -0.3113
  569MOL0     H75064   5.472   8.041   9.963 -1.1939  2.1986  0.1042
  569MOL0     H75065   5.591   7.991   9.845  2.0929  0.6836  0.2772
  569MOL0     H75066   5.393   8.097   9.668 -1.5135  0.3143  0.6928
  569MOL0     H75067   5.409   7.932   9.730  0.9845 -0.0138 -0.6456
  569MOL0     H75068   5.233   8.124   9.875  0.6786  0.9268  0.7484
  569MOL0     H75069   5.240   7.949   9.887 -3.0912 -0.1963 -1.4527
  569MOL0     H75070   5.052   8.118   9.950 -1.8014  1.2049 -0.4057
  569MOL0     H75071   4.831   8.058  10.036  0.6930 -2.9930  0.3027
  569MOL0     H75072   4.251   7.972   9.719 -2.2844 -5.3580 -2.8055
  569MOL0     H75073   4.047   7.900   9.806  0.9686  0.7011 -2.3455
  569MOL0     H75074   3.887   7.734   9.915 -3.0097  0.1366  0.2404
  569MOL0     H75075   3.868   7.884  10.013 -1.0159  0.8488 -0.3197
  569MOL0     H75076   3.809   7.765  10.197 -1.3917 -0.7602 -0.3235
  569MOL0     H75077   3.852   7.606  10.139  1.9023  1.3548  1.1744
  569MOL0     H75078   3.668   7.592   9.998  1.2682  0.0571  0.9447
  569MOL0     H75079   3.633   7.772   9.997 -1.1721 -0.1055  0.2418
  569MOL0     H75080   3.558   7.577  10.204  1.5154  0.3464  0.4992
  569MOL0     H75081   3.573   7.753  10.235 -1.1080 -0.9061  0.5795
  569MOL0     H75082   3.404   7.627  10.015  1.1545 -0.6826  1.2704
  569MOL0     H75083   3.422   7.801  10.052  2.7616 -1.8216 -3.6044
  569MOL0     H75084   3.347   7.710  10.289  2.5255 -1.4282 -0.9578
  569MOL0     H75085   3.282   7.560  10.202 -1.1892 -0.9922  0.4398
  569MOL0     H75086   3.107   7.716  10.253  1.0363  2.6723  2.8439
  569MOL0     H75087   3.208   7.851  10.204  2.7751 -0.8589 -0.4191
  569MOL0     H75088   3.015   7.721  10.035  0.1534 -2.0127  0.6278
  569MOL0     H75089   3.149   7.623  10.008 -0.2855 -0.0028  0.8759
  569MOL0     H75090   4.257   7.732  10.141 -0.7042  0.7379  2.0902
  569MOL0     H75091   4.481   7.808  10.054  1.2305 -0.4634 -2.5239
  569MOL0     H75092   4.703   7.955   9.647 -0.5976  2.2520 -1.2834
  569MOL0     H75093   4.945   7.912   9.579  3.2099 -1.0308  2.2667
  569MOL0     H75094   5.178   9.668  10.017  0.1920 -2.6112 -1.5323
  569MOL0     H75095   5.276   9.878  10.108  0.6994  0.3043  1.1247
  569MOL0     H75096   5.519   9.989  10.539 -0.8516 -1.0681  0.0098
  569MOL0     H75097   5.535  10.216  10.659  0.4670 -0.4785 -0.2711
  569MOL0     H75098   5.330  10.502  10.445  0.4674  1.2622 -1.0289
  569MOL0     H75099   5.411  10.621  10.538 -0.1912 -0.5411 -1.2590
  569MOL0     H75100   5.292  10.351  10.645  1.0237 -0.5041  4.8371
  569MOL0     H75101   5.359  10.474  10.747  4.1042 -2.6050 -2.1843
  569MOL0     H75102   5.097  10.466  10.746 -0.3582 -0.2567 -0.1652
  569MOL0     H75103   5.095  10.492  10.576 -1.1152 -2.5156  1.8388
  569MOL0     H75104   5.211  10.699  10.580 -0.4970 -0.0159  0.2289
  569MOL0     H75105   5.056  10.700  10.660 -0.4882  0.1679  0.7208
  569MOL0     H75106   5.274  10.822  10.978 -1.6596  0.2282  0.8962
  569MOL0     H75107   5.526  10.407  10.282  3.9197 -1.8423 -2.1124
  569MOL0     H75108   5.540  10.198  10.161 -2.0910  2.0711 -0.8868
  570MOL0     O75109   8.244   3.189  11.197  0.0406 -0.0565 -0.1677
  570MOL0     C75110   8.166   3.274  11.169  0.0922 -0.1901 -0.1087
  570MOL0     O75111   8.054   3.263  11.089  0.3590  0.4009  0.3104
  570MOL0     C75112   8.016   3.134  11.063 -0.2288  0.1261 -0.4352
  570MOL0     C75113   8.037   3.082  10.936  0.6391  1.3120  0.3777
  570MOL0     C75114   7.993   2.948  10.911  0.3553  0.1307  0.4938
  570MOL0     C75115   7.942   2.867  11.011 -0.4220 -0.0798  1.5556
  570MOL0     O75116   7.882   2.748  10.983 -0.6288 -0.2566 -0.3438
  570MOL0     C75117   7.952   2.632  11.029 -0.0051 -0.2834  0.3609
  570MOL0     C75118   7.917   2.526  10.913  0.4150  0.4740  0.0700
  570MOL0     C75119   7.772   2.477  10.929 -0.3307 -0.0863 -0.8090
  570MOL0     C75120   7.736   2.342  10.856  0.6229 -0.7550  0.1830
  570MOL0     C75121   7.592   2.284  10.881 -0.2060 -0.3583  0.3280
  570MOL0     C75122   7.479   2.352  10.804  0.4682 -0.3163  0.5532
  570MOL0     C75123   7.500   2.361  10.656  0.4102 -0.5181  0.3280
  570MOL0     C75124   7.546   2.241  10.580 -0.4134 -0.2397  0.3575
  570MOL0     N75125   7.453   2.133  10.594 -0.1308 -0.4607  0.6683
  570MOL0     C75126   7.487   2.015  10.665  0.0328  0.4623  0.2141
  570MOL0     C75127   7.424   1.911  10.597 -0.2250 -0.1280  1.1025
  570MOL0     C75128   7.435   1.762  10.627 -1.0571  0.4774 -0.9433
  570MOL0     C75129   7.484   1.686  10.496  0.3142 -0.9142 -0.2862
  570MOL0     C75130   7.638   1.677  10.496  0.0124 -0.3303 -0.2534
  570MOL0     C75131   7.705   1.559  10.570  0.0904 -0.3221 -0.3858
  570MOL0     O75132   7.844   1.573  10.538  0.3125  0.2373 -0.0409
  570MOL0     C75133   7.902   1.493  10.443 -0.9988 -0.6949 -0.2536
  570MOL0     C75134   7.845   1.383  10.376 -0.1960 -0.4724 -0.2096
  570MOL0     C75135   7.927   1.301  10.293  0.3234 -0.0625 -1.0087
  570MOL0     C75136   8.066   1.342  10.272 -0.5273  0.8031 -0.8917
  570MOL0     C75137   8.144   1.274  10.171  0.0831 -0.7971  0.1567
  570MOL0     O75138   8.106   1.140  10.148  0.1024  0.1662  0.1664
  570MOL0     C75139   8.186   1.067  10.063  0.9083  0.2984 -0.6098
  570MOL0     C75140   8.256   1.098   9.946 -0.9475  0.3564 -0.2510
  570MOL0     C75141   8.309   1.002   9.858 -0.2952  1.2987 -0.7526
  570MOL0     C75142   8.311   0.871   9.892  1.2316  0.0122 -0.8222
  570MOL0     O75143   8.387   0.777   9.821  0.1027 -0.5131 -0.0579
  570MOL0     C75144   8.327   0.734   9.703 -0.0375  1.3807  1.3384
  570MOL0     C75145   8.383   0.611   9.641 -0.2206 -0.0922 -0.3142
  570MOL0     C75146   8.394   0.493   9.741  1.0530  0.1065 -0.0750
  570MOL0     C75147   8.243   0.448   9.769 -0.4454  0.0706 -0.7454
  570MOL0     C75148   8.259   0.329   9.875  0.1496  0.2723  0.2571
  570MOL0     C75149   8.126   0.261   9.905 -0.4488 -0.5555  0.4667
  570MOL0     C75150   8.134   0.157  10.020  0.2963  0.6816 -0.7741
  570MOL0     C75151   7.989   0.096  10.044  0.3073  0.3259  0.1562
  570MOL0    Cl75152   7.982  -0.039  10.148  0.5445  0.2522 -0.3832
  570MOL0     C75153   8.257   0.834  10.013  0.4557  0.9345  0.2673
  570MOL0     C75154   8.188   0.928  10.096  0.1416  0.1573 -0.1918
  570MOL0     O75155   8.230   1.347  10.102 -0.2443  0.1006  0.3618
  570MOL0     C75156   8.114   1.452  10.337  0.6224 -0.3035 -0.2428
  570MOL0     C75157   8.029   1.526  10.417  0.9164 -0.8229  0.7158
  570MOL0     N75158   7.340   1.974  10.503  0.7125 -0.1011  0.0997
  570MOL0     N75159   7.363   2.096  10.502  0.1161 -0.7555 -0.7594
  570MOL0     C75160   7.913   2.922  11.131  0.5579 -0.8397  0.2800
  570MOL0     C75161   7.953   3.057  11.157 -0.4208 -0.2818 -0.1389
  570MOL0     C75162   8.200   3.422  11.207 -0.4153  1.3910 -0.9189
  570MOL0     C75163   8.107   3.527  11.182  0.8681 -0.1876 -0.2136
  570MOL0     C75164   8.139   3.653  11.230  0.4345  0.3158 -1.2476
  570MOL0     C75165   8.265   3.693  11.272  0.7177 -0.6416  0.8178
  570MOL0     O75166   8.307   3.818  11.315  0.1248 -0.2145  1.2454
  570MOL0     C75167   8.224   3.934  11.280 -1.0602 -0.0294 -0.4169
  570MOL0     C75168   8.287   4.067  11.327 -0.0792  0.0546  0.9799
  570MOL0     C75169   8.359   4.145  11.215  0.4953 -0.6931  1.4407
  570MOL0     C75170   8.373   4.291  11.251 -1.1042 -0.3347  0.0267
  570MOL0     C75171   8.436   4.364  11.134  0.2222 -0.0425 -0.9082
  570MOL0     C75172   8.493   4.418  11.051  0.3546 -1.1372  0.1837
  570MOL0     C75173   8.359   3.585  11.289  0.4169  0.3128  0.1580
  570MOL0     C75174   8.329   3.451  11.249  0.1593  0.6250 -0.1058
  570MOL0     H75175   8.083   3.147  10.863  0.1843 -1.9878 -3.1287
  570MOL0     H75176   7.993   2.898  10.815 -1.0148  1.9287 -0.5137
  570MOL0     H75177   7.916   2.589  11.123  1.6502 -1.0580  0.6691
  570MOL0     H75178   8.059   2.654  11.024 -0.3003  2.3030  2.7141
  570MOL0     H75179   7.976   2.436  10.930 -3.3623 -1.7956  2.7878
  570MOL0     H75180   7.954   2.559  10.816  2.0783 -2.5727 -0.4586
  570MOL0     H75181   7.709   2.560  10.896 -2.4077 -0.6465  1.4606
  570MOL0     H75182   7.746   2.471  11.035  4.4056  2.0469  0.7188
  570MOL0     H75183   7.755   2.348  10.749  0.2967  0.1860  0.1690
  570MOL0     H75184   7.805   2.269  10.900  0.5620 -0.0791  1.4409
  570MOL0     H75185   7.549   2.290  10.982 -2.1428  2.8500 -0.5350
  570MOL0     H75186   7.584   2.177  10.859 -1.7825 -0.7786  2.5083
  570MOL0     H75187   7.442   2.444  10.851 -2.9785  1.9010 -5.4290
  570MOL0     H75188   7.388   2.295  10.824  0.8073 -1.4030 -0.8105
  570MOL0     H75189   7.417   2.414  10.608  1.4967 -1.0650 -2.3843
  570MOL0     H75190   7.589   2.420  10.635  1.9479 -3.3092 -1.7595
  570MOL0     H75191   7.644   2.212  10.619  0.4237  0.4834 -1.1345
  570MOL0     H75192   7.560   2.266  10.474  2.9604  0.3827  0.8469
  570MOL0     H75193   7.564   2.001  10.740  0.0068 -1.4491 -0.0908
  570MOL0     H75194   7.341   1.719  10.664 -0.5809 -0.8532 -1.2528
  570MOL0     H75195   7.511   1.757  10.706 -1.4008  1.2878 -0.5363
  570MOL0     H75196   7.452   1.729  10.401  1.6491  1.3888  0.2388
  570MOL0     H75197   7.448   1.583  10.492  1.6161 -1.3631 -1.2203
  570MOL0     H75198   7.683   1.679  10.396 -0.0385  2.0922 -0.2730
  570MOL0     H75199   7.673   1.770  10.542  2.7204  0.3828 -3.2967
  570MOL0     H75200   7.661   1.462  10.545 -1.8151  0.2575  0.5552
  570MOL0     H75201   7.687   1.571  10.677  0.9026  4.7536 -0.5873
  570MOL0     H75202   7.743   1.348  10.383 -1.3154  1.8118 -3.2156
  570MOL0     H75203   7.880   1.215  10.247 -2.1634  0.1484  0.9189
  570MOL0     H75204   8.267   1.199   9.909  2.6128  0.2016  0.0799
  570MOL0     H75205   8.325   1.027   9.753 -0.7650  0.4448 -1.0387
  570MOL0     H75206   8.342   0.809   9.625 -0.5235  0.9592  0.8295
  570MOL0     H75207   8.219   0.715   9.713  0.1109 -0.4271  0.0084
  570MOL0     H75208   8.480   0.636   9.596  1.7764 -2.9967  1.9239
  570MOL0     H75209   8.326   0.584   9.552  1.4046  0.0586 -1.4599
  570MOL0     H75210   8.446   0.527   9.831  4.1686 -1.2467 -1.2145
  570MOL0     H75211   8.453   0.414   9.694  3.3025  1.6716 -0.0341
  570MOL0     H75212   8.190   0.523   9.829  1.9573  0.9387  0.3919
  570MOL0     H75213   8.181   0.414   9.685  0.4050 -0.0576 -1.3330
  570MOL0     H75214   8.307   0.359   9.968  1.1860 -3.3536  1.0457
  570MOL0     H75215   8.315   0.253   9.821  1.8939  0.6474  1.4609
  570MOL0     H75216   8.085   0.214   9.815  0.0094  0.4177 -0.2697
  570MOL0     H75217   8.056   0.340   9.934  2.1845  4.1798 -4.1918
  570MOL0     H75218   8.188   0.068   9.987 -2.8258 -0.9652 -1.8389
  570MOL0     H75219   8.177   0.200  10.111  1.9949 -0.6047 -0.9271
  570MOL0     H75220   7.963   0.063   9.943  5.1127  2.6335 -2.2063
  570MOL0     H75221   7.919   0.165  10.091 -0.3269  0.0996 -0.4459
  570MOL0     H75222   8.268   0.730  10.040  0.7950  1.2161  1.2184
  570MOL0     H75223   8.144   0.910  10.193 -0.5224  1.9433 -0.1166
  570MOL0     H75224   8.213   1.493  10.319 -0.5771  1.5045 -3.5168
  570MOL0     H75225   8.067   1.612  10.471  0.0101  0.3155 -0.4113
  570MOL0     H75226   7.857   2.863  11.203  0.0437 -0.6406  0.0490
  570MOL0     H75227   7.932   3.102  11.254 -2.4885 -4.8528  1.8169
  570MOL0     H75228   8.018   3.521  11.120 -1.7995  2.0232  3.0405
  570MOL0     H75229   8.071   3.735  11.208  0.8800  0.6278 -1.4889
  570MOL0     H75230   8.130   3.918  11.333 -0.1892  0.1828  1.2477
  570MOL0     H75231   8.202   3.938  11.173  1.5770  1.6855 -1.0112
  570MOL0     H75232   8.211   4.132  11.372  0.7211  1.6736  0.1093
  570MOL0     H75233   8.367   4.053  11.401  0.9531 -0.4110 -0.1853
  570MOL0     H75234   8.296   4.150  11.125  1.9128 -0.8723  0.4077
  570MOL0     H75235   8.452   4.105  11.173  0.9999  1.0873  0.7723
  570MOL0     H75236   8.278   4.343  11.261 -0.0018  2.0306 -1.1154
  570MOL0     H75237   8.433   4.299  11.342  1.3752 -0.7283 -1.4655
  570MOL0     H75238   8.537   4.466  10.966  0.2213  0.3508  0.9249
  570MOL0     H75239   8.456   3.619  11.322  0.2574 -0.1367  1.1218
  570MOL0     H75240   8.412   3.382  11.265  0.9614  1.9069  1.6378
  571MOL0     O75241   9.285   1.218   0.953 -0.0087 -0.6374 -0.1811
  571MOL0     C75242   9.391   1.214   1.013  0.0946  1.1087 -1.0891
  571MOL0     O75243   9.511   1.239   0.959  0.1312 -0.4090 -0.7515
  571MOL0     C75244   9.507   1.306   0.838  0.7995 -0.3534 -0.5034
  571MOL0     C75245   9.504   1.445   0.838 -0.1779 -0.4193  0.4598
  571MOL0     C75246   9.524   1.503   0.715  1.0512  0.4474 -0.1819
  571MOL0     C75247   9.522   1.431   0.593 -0.0420 -0.5045 -0.0557
  571MOL0     O75248   9.551   1.510   0.477  0.1042  0.1840 -0.2248
  571MOL0     C75249   9.518   1.445   0.353 -0.1460  0.2905  0.7159
  571MOL0     C75250   9.539   1.544   0.234 -0.0017  0.0143 -0.7549
  571MOL0     C75251   9.690   1.583   0.218  0.0645 -0.2811  0.5455
  571MOL0     C75252   9.715   1.673   0.098 -0.1795  0.2750 -0.0387
  571MOL0     C75253   9.860   1.692   0.075  0.4754  0.3507  0.9898
  571MOL0     C75254   9.929   1.763   0.185  0.8269  0.0639  0.0412
  571MOL0     C75255  10.085   1.763   0.167  0.7425 -1.0288  0.3828
  571MOL0     C75256  10.145   1.844   0.047 -0.7218 -0.6203 -0.8666
  571MOL0     N75257  10.290   1.828   0.047  1.1391  0.6272 -0.5249
  571MOL0     C75258  10.383   1.908   0.126  0.4356 -0.6837  0.2323
  571MOL0     C75259  10.508   1.864   0.092  0.3885  0.0178  0.6318
  571MOL0     C75260  10.637   1.909   0.158  0.5251  0.3179  0.0096
  571MOL0     C75261  10.714   2.030   0.089  0.2331  0.5432  0.3716
  571MOL0     C75262  10.793   1.979  -0.036  1.1877  0.2180  0.1617
  571MOL0     C75263  10.910   2.067  -0.075 -0.6072  0.3977 -1.1084
  571MOL0     O75264  10.985   2.000  -0.169  0.4484  0.3970 -0.4555
  571MOL0     C75265  11.082   1.900  -0.135  0.4395 -0.3688  0.0305
  571MOL0     C75266  11.068   1.780  -0.218  1.0330  0.3565  0.0582
  571MOL0     C75267  11.164   1.682  -0.218 -0.5329 -0.1209  0.4872
  571MOL0     C75268  11.272   1.687  -0.116  1.1535  0.3306  0.0598
  571MOL0     C75269  11.379   1.582  -0.117  0.0426  0.4804  0.5213
  571MOL0     O75270  11.494   1.613  -0.051  0.2191 -0.5042  0.1534
  571MOL0     C75271  11.584   1.516  -0.051  0.0029  0.1231 -0.6660
  571MOL0     C75272  11.577   1.414   0.038 -1.0418  0.8288 -0.4401
  571MOL0     C75273  11.688   1.335   0.056 -0.3181  0.3722 -0.9882
  571MOL0     C75274  11.790   1.329  -0.040 -0.4493  0.4076 -0.5260
  571MOL0     O75275  11.881   1.231  -0.034 -0.6296 -0.3507 -0.2443
  571MOL0     C75276  11.845   1.103   0.022 -0.3188 -0.7895 -0.0525
  571MOL0     C75277  11.932   0.991  -0.026 -0.1016  0.1745  0.3212
  571MOL0     C75278  12.081   0.990   0.023  0.3917  0.5025  0.3731
  571MOL0     C75279  12.165   0.881  -0.048 -0.2936 -0.4123  0.1197
  571MOL0     C75280  12.294   0.831   0.022 -0.2406 -1.0731 -0.2744
  571MOL0     C75281  12.308   0.688  -0.020  0.1029 -0.0964 -0.6641
  571MOL0     C75282  12.346   0.602   0.106 -0.1121  0.3397  1.6642
  571MOL0     C75283  12.363   0.451   0.061  0.6440 -0.0055  0.6157
  571MOL0    Cl75284  12.413   0.372   0.202 -0.0631  0.4041 -0.1274
  571MOL0     C75285  11.798   1.420  -0.145  0.9665 -0.0784  0.8110
  571MOL0     C75286  11.688   1.519  -0.147 -1.0472  0.8638 -0.3132
  571MOL0     O75287  11.349   1.474  -0.164  0.1263 -0.0434 -0.1874
  571MOL0     C75288  11.279   1.796  -0.032  0.1218  0.3993 -0.4847
  571MOL0     C75289  11.187   1.904  -0.045  0.5884  0.2676 -0.2367
  571MOL0     N75290  10.488   1.754   0.008  0.3595 -0.5305 -0.6592
  571MOL0     N75291  10.363   1.730  -0.020  0.9015 -0.5145  0.2077
  571MOL0     C75292   9.500   1.293   0.596 -0.2532 -0.3646 -0.5665
  571MOL0     C75293   9.505   1.227   0.726  0.0034  0.6446  1.3505
  571MOL0     C75294   9.376   1.167   1.149 -0.0953  0.8695 -0.3288
  571MOL0     C75295   9.250   1.174   1.209 -0.2254  0.1401 -0.6549
  571MOL0     C75296   9.235   1.127   1.339 -0.2961  1.5438  0.6628
  571MOL0     C75297   9.337   1.065   1.413  0.9386  0.2558 -0.1159
  571MOL0     O75298   9.325   1.024   1.547  0.3901 -0.2700 -0.4079
  571MOL0     C75299   9.203   1.056   1.629 -2.1142 -0.3164 -0.2513
  571MOL0     C75300   9.242   1.099   1.768 -0.9479 -0.3515 -0.3740
  571MOL0     C75301   9.162   1.033   1.869 -0.3433  0.0893  0.7447
  571MOL0     C75302   9.232   0.929   1.948  0.1688  0.5084 -0.5296
  571MOL0     C75303   9.271   0.821   1.858  0.3053 -0.0915  0.3429
  571MOL0     C75304   9.306   0.737   1.774  0.2235  0.3802  0.5375
  571MOL0     C75305   9.461   1.050   1.350 -0.8581 -0.5913  0.2597
  571MOL0     C75306   9.485   1.094   1.215 -0.3050  0.5563  0.3862
  571MOL0     H75307   9.495   1.507   0.926  1.0370 -0.2783  0.5001
  571MOL0     H75308   9.533   1.611   0.710  0.2377  0.6512  2.0640
  571MOL0     H75309   9.413   1.421   0.370 -0.1539  1.5196  2.5795
  571MOL0     H75310   9.572   1.350   0.344 -0.1724  0.3118  0.2937
  571MOL0     H75311   9.469   1.625   0.252  0.7803  0.4253  0.6085
  571MOL0     H75312   9.494   1.495   0.147 -2.2970  1.1530 -0.2607
  571MOL0     H75313   9.737   1.487   0.196 -1.6805 -0.7712 -1.4884
  571MOL0     H75314   9.720   1.611   0.319 -0.3553 -1.1726  0.9275
  571MOL0     H75315   9.668   1.629   0.010  0.2758  0.3642 -0.3308
  571MOL0     H75316   9.667   1.772   0.100 -0.2012  0.2841 -0.8857
  571MOL0     H75317   9.865   1.745  -0.020 -1.6736 -3.0074 -1.2181
  571MOL0     H75318   9.911   1.595   0.071  3.6265  1.9501 -1.4930
  571MOL0     H75319   9.909   1.708   0.278 -2.5969  1.8924  0.5629
  571MOL0     H75320   9.882   1.862   0.195  0.8806 -0.0499  1.8238
  571MOL0     H75321  10.118   1.812   0.259 -1.2569 -0.9211  1.0861
  571MOL0     H75322  10.117   1.658   0.165  1.4920 -0.7924 -0.7078
  571MOL0     H75323  10.126   1.950   0.065  0.0632 -0.6993  0.5816
  571MOL0     H75324  10.112   1.816  -0.053 -2.3952  0.1345 -0.5629
  571MOL0     H75325  10.365   1.993   0.191  2.0665  2.1803 -2.8031
  571MOL0     H75326  10.704   1.823   0.169 -0.3044 -0.1508  1.6928
  571MOL0     H75327  10.595   1.942   0.253  1.2917  0.2896  0.3661
  571MOL0     H75328  10.785   2.055   0.168 -0.3479 -1.0049  1.4388
  571MOL0     H75329  10.655   2.118   0.063  0.6587  1.0822  1.1797
  571MOL0     H75330  10.829   1.881  -0.005  0.2337  0.2848  1.5504
  571MOL0     H75331  10.719   1.982  -0.116  1.9616  2.2241 -0.5265
  571MOL0     H75332  10.969   2.100   0.011 -0.1746 -3.4111  0.2233
  571MOL0     H75333  10.859   2.153  -0.121 -0.0558 -0.1196 -2.7413
  571MOL0     H75334  10.985   1.747  -0.278  0.5413 -0.2481  1.0362
  571MOL0     H75335  11.151   1.593  -0.279 -0.4048  0.0720  0.1752
  571MOL0     H75336  11.486   1.390   0.093 -0.7302  0.2251 -0.1851
  571MOL0     H75337  11.679   1.260   0.134 -2.6211  1.6114  0.0310
  571MOL0     H75338  11.740   1.080   0.003 -0.1097 -0.6078 -1.5518
  571MOL0     H75339  11.833   1.113   0.130  0.5568  1.1035 -0.0934
  571MOL0     H75340  11.936   1.010  -0.133  4.5681 -0.8919  0.1186
  571MOL0     H75341  11.876   0.903   0.006  0.6311  0.6461  3.2473
  571MOL0     H75342  12.084   0.989   0.132  0.7503  3.0179  0.4510
  571MOL0     H75343  12.131   1.084  -0.004  0.6191  0.4432  0.5797
  571MOL0     H75344  12.093   0.802  -0.028 -0.0849 -0.5816  0.2081
  571MOL0     H75345  12.178   0.901  -0.154  0.7090 -0.1717  0.2792
  571MOL0     H75346  12.280   0.842   0.130  3.4625  2.8527  0.0746
  571MOL0     H75347  12.368   0.908  -0.001 -1.7957  0.2646 -0.9811
  571MOL0     H75348  12.376   0.682  -0.106 -1.2184  0.8671 -1.8046
  571MOL0     H75349  12.217   0.648  -0.066  0.0981 -0.6713 -0.1656
  571MOL0     H75350  12.440   0.636   0.151 -0.2688 -0.4059  2.5779
  571MOL0     H75351  12.262   0.611   0.176 -0.4330 -0.0973  1.3355
  571MOL0     H75352  12.441   0.445  -0.015  1.4035  2.3312  1.1273
  571MOL0     H75353  12.275   0.398   0.024  1.9864 -1.2778 -0.9067
  571MOL0     H75354  11.882   1.419  -0.214 -0.4930 -1.1000 -1.0509
  571MOL0     H75355  11.687   1.591  -0.228 -3.3597 -0.0283 -1.1721
  571MOL0     H75356  11.368   1.800   0.031 -0.7761  1.7184  0.7674
  571MOL0     H75357  11.191   2.006  -0.008  0.5345  0.8593 -1.7827
  571MOL0     H75358   9.483   1.238   0.504 -1.8355  0.9268 -1.0800
  571MOL0     H75359   9.518   1.120   0.727  0.7305  0.7068 -0.0151
  571MOL0     H75360   9.170   1.231   1.162  3.8497  4.1238 -3.5577
  571MOL0     H75361   9.138   1.135   1.386 -0.3196 -1.0084  1.1798
  571MOL0     H75362   9.154   0.958   1.630 -2.7154 -0.0209 -0.0977
  571MOL0     H75363   9.133   1.127   1.584  0.1547  4.8638  3.4726
  571MOL0     H75364   9.349   1.088   1.791 -1.3440 -0.8463  1.4141
  571MOL0     H75365   9.219   1.205   1.786 -0.9298 -0.2312 -1.0432
  571MOL0     H75366   9.082   0.977   1.819  0.6204 -0.0501 -0.7124
  571MOL0     H75367   9.102   1.091   1.939  0.8981  0.6351  1.3817
  571MOL0     H75368   9.309   0.978   2.008  0.5863 -0.3904 -0.3259
  571MOL0     H75369   9.167   0.887   2.025 -0.6890  1.8800 -0.4547
  571MOL0     H75370   9.334   0.657   1.708 -0.3259  1.4089 -1.0169
  571MOL0     H75371   9.545   0.999   1.397 -2.9633 -2.5745  2.1176
  571MOL0     H75372   9.581   1.083   1.166 -1.5987 -2.5616 -1.7682
  572MOL0     O75373   3.908   9.427   9.455  0.2232  0.4804 -0.1104
  572MOL0     C75374   3.844   9.532   9.434 -0.0904  0.1719  0.0138
  572MOL0     O75375   3.845   9.599   9.312  1.1966 -0.2125  0.2341
  572MOL0     C75376   3.967   9.620   9.262 -0.5743  0.1697  0.2759
  572MOL0     C75377   4.021   9.521   9.182 -0.5400  0.3584  0.5228
  572MOL0     C75378   4.160   9.525   9.148  0.2300 -0.5808  0.1810
  572MOL0     C75379   4.239   9.640   9.182  0.9767 -0.1554  0.6226
  572MOL0     O75380   4.375   9.662   9.150 -0.3509  0.5627  0.0500
  572MOL0     C75381   4.426   9.605   9.031 -0.1701  0.4249  0.1371
  572MOL0     C75382   4.567   9.646   9.018 -0.6856 -0.6255 -0.1687
  572MOL0     C75383   4.608   9.638   8.866 -0.5277  0.0703  0.2534
  572MOL0     C75384   4.643   9.495   8.836 -0.1992  0.2083  0.1826
  572MOL0     C75385   4.643   9.460   8.684 -1.0528 -0.2436 -0.7311
  572MOL0     C75386   4.774   9.522   8.618 -0.6956  0.1009  0.0593
  572MOL0     C75387   4.825   9.449   8.488 -0.7789 -0.3280 -0.2538
  572MOL0     C75388   4.898   9.550   8.405 -1.4420  0.5642  0.2271
  572MOL0     N75389   4.943   9.504   8.283  0.3385  0.6753 -0.4953
  572MOL0     C75390   4.980   9.575   8.170  0.8918  0.3529  0.2617
  572MOL0     C75391   5.012   9.482   8.070 -0.0740  0.0058  0.8385
  572MOL0     C75392   5.019   9.520   7.928 -0.5028 -0.1109 -1.0822
  572MOL0     C75393   5.153   9.481   7.863 -0.1306  0.0479  0.1774
  572MOL0     C75394   5.178   9.564   7.732 -0.8333  0.3906  0.5116
  572MOL0     C75395   5.325   9.541   7.686 -0.3075 -0.5921 -0.6983
  572MOL0     O75396   5.388   9.619   7.582 -0.2514  1.0044  0.0796
  572MOL0     C75397   5.299   9.650   7.479  0.5306 -0.7733 -0.1259
  572MOL0     C75398   5.235   9.778   7.468  0.6096  0.7710  0.7461
  572MOL0     C75399   5.143   9.806   7.361  1.0513 -0.1877 -0.3214
  572MOL0     C75400   5.116   9.701   7.271 -0.4522 -0.4569  0.6544
  572MOL0     C75401   5.025   9.721   7.162  0.0715  1.2277 -0.2062
  572MOL0     O75402   5.013   9.629   7.067 -0.3788 -0.2873  0.5827
  572MOL0     C75403   4.939   9.646   6.956 -0.2498 -0.8540 -1.0969
  572MOL0     C75404   4.949   9.762   6.873  0.7836  0.5159 -0.0157
  572MOL0     C75405   4.872   9.763   6.755 -0.4418 -1.2083 -0.1068
  572MOL0     C75406   4.783   9.657   6.718  0.0741  0.1174 -0.5299
  572MOL0     O75407   4.709   9.660   6.593 -0.2789 -0.0484 -0.8318
  572MOL0     C75408   4.654   9.550   6.532 -0.1021  0.7378 -0.0405
  572MOL0     C75409   4.605   9.596   6.391  0.2640  0.9481  0.4967
  572MOL0     C75410   4.506   9.503   6.324  0.0838 -0.9459  0.3258
  572MOL0     C75411   4.371   9.515   6.387  0.1422  0.0277 -0.0970
  572MOL0     C75412   4.296   9.383   6.378 -0.5498 -0.0790  0.3241
  572MOL0     C75413   4.150   9.412   6.402  0.5243 -0.6710 -0.3252
  572MOL0     C75414   4.081   9.274   6.434 -0.3265 -0.2273 -0.2473
  572MOL0     C75415   3.940   9.300   6.464  0.9236  0.3640  0.0772
  572MOL0    Cl75416   3.848   9.251   6.321  0.4177 -0.4752 -0.1849
  572MOL0     C75417   4.774   9.554   6.815  0.6864  0.3483 -0.1688
  572MOL0     C75418   4.855   9.541   6.924  0.4455 -0.0410  0.3241
  572MOL0     O75419   4.962   9.833   7.172 -0.1724 -0.2158  1.5216
  572MOL0     C75420   5.183   9.581   7.278  0.4074  0.0730 -0.2343
  572MOL0     C75421   5.277   9.554   7.380  0.2001 -0.5662 -0.1666
  572MOL0     N75422   5.026   9.361   8.132  0.4252 -0.0736 -0.0940
  572MOL0     N75423   4.975   9.376   8.250  0.2458 -0.5374 -0.2015
  572MOL0     C75424   4.180   9.733   9.262  0.3121 -0.0660  0.8409
  572MOL0     C75425   4.047   9.719   9.314  0.2105  0.2957  0.2441
  572MOL0     C75426   3.752   9.577   9.534 -0.1035 -0.6871  0.1128
  572MOL0     C75427   3.707   9.503   9.641  0.1053  0.7805  0.8343
  572MOL0     C75428   3.632   9.549   9.742  0.3934  0.0433  0.0021
  572MOL0     C75429   3.588   9.678   9.740  0.8745  0.1365  0.2413
  572MOL0     O75430   3.525   9.734   9.840 -0.0128  0.7216  0.2339
  572MOL0     C75431   3.383   9.712   9.847 -0.7901 -0.0362  0.0915
  572MOL0     C75432   3.327   9.800   9.963 -0.4367  0.2173 -0.0848
  572MOL0     C75433   3.184   9.765  10.012 -0.2060 -0.1476  0.6796
  572MOL0     C75434   3.127   9.866  10.115 -0.1379  0.1788  0.5396
  572MOL0     C75435   3.190   9.872  10.249 -0.3457  0.6063  0.6733
  572MOL0     C75436   3.224   9.892  10.354 -0.5222  0.1585 -0.2048
  572MOL0     C75437   3.632   9.756   9.633 -0.4490  0.0455  0.1715
  572MOL0     C75438   3.718   9.715   9.532 -0.0730 -0.3775 -0.7448
  572MOL0     H75439   3.962   9.434   9.155 -1.5562  1.4327 -0.8560
  572MOL0     H75440   4.199   9.440   9.093 -1.2907 -1.9102  1.0727
  572MOL0     H75441   4.372   9.650   8.947  1.8436  2.1913 -0.2903
  572MOL0     H75442   4.421   9.496   9.037 -1.7650  0.3284 -1.7651
  572MOL0     H75443   4.627   9.585   9.085 -3.2702 -3.0786  0.0829
  572MOL0     H75444   4.588   9.749   9.049  1.0925 -0.6951 -1.0359
  572MOL0     H75445   4.707   9.683   8.860 -0.3331 -0.4605 -0.4659
  572MOL0     H75446   4.545   9.690   8.793  1.0083  0.0509 -1.1162
  572MOL0     H75447   4.741   9.472   8.879  0.1406 -0.0928 -0.7214
  572MOL0     H75448   4.569   9.429   8.881  1.5045 -1.4924  0.6011
  572MOL0     H75449   4.550   9.502   8.644 -2.0107  0.0190  1.6423
  572MOL0     H75450   4.641   9.351   8.670 -1.6406 -0.3352 -0.0133
  572MOL0     H75451   4.858   9.513   8.688 -0.5345  0.0344 -0.1408
  572MOL0     H75452   4.762   9.631   8.619 -0.0314  0.2216  2.4031
  572MOL0     H75453   4.898   9.371   8.510  1.5377  1.0809 -2.3749
  572MOL0     H75454   4.739   9.404   8.437 -0.8665 -3.7989  2.6012
  572MOL0     H75455   4.980   9.590   8.466 -0.2924 -1.2375 -0.0647
  572MOL0     H75456   4.825   9.629   8.385 -1.1279  0.0574 -3.6118
  572MOL0     H75457   4.962   9.681   8.153  0.1776  0.0655 -0.8946
  572MOL0     H75458   4.998   9.627   7.927 -2.2819 -0.4052  0.0925
  572MOL0     H75459   4.937   9.476   7.869 -0.3959  0.6147 -1.7888
  572MOL0     H75460   5.153   9.375   7.834 -0.1976 -0.7128  2.7007
  572MOL0     H75461   5.234   9.505   7.932  0.5551 -3.0543  0.6120
  572MOL0     H75462   5.113   9.531   7.650 -0.7193  1.0910  0.1308
  572MOL0     H75463   5.163   9.668   7.761 -2.5395  0.0147  1.0933
  572MOL0     H75464   5.326   9.435   7.657  0.8299  0.1039 -3.5123
  572MOL0     H75465   5.394   9.545   7.770 -2.4500 -3.4088  1.4274
  572MOL0     H75466   5.249   9.843   7.554  1.7437 -0.4116  1.4937
  572MOL0     H75467   5.095   9.903   7.351 -1.0149 -1.1667 -0.2529
  572MOL0     H75468   5.024   9.839   6.891  1.8794  0.0973 -2.3212
  572MOL0     H75469   4.891   9.851   6.695  1.4221 -0.4695  1.4513
  572MOL0     H75470   4.563   9.518   6.583  1.2346  0.1443  2.0865
  572MOL0     H75471   4.721   9.464   6.532 -1.5942 -0.4647 -1.2264
  572MOL0     H75472   4.696   9.607   6.332  1.1098 -0.4923  1.4813
  572MOL0     H75473   4.561   9.696   6.398 -0.8918  0.4723  0.2005
  572MOL0     H75474   4.528   9.398   6.345 -2.9451 -1.6940  0.2998
  572MOL0     H75475   4.508   9.533   6.218  1.5279  1.3395  0.9304
  572MOL0     H75476   4.375   9.551   6.490 -1.6946 -0.4679  0.1848
  572MOL0     H75477   4.310   9.595   6.343  0.5382 -0.9677 -2.6681
  572MOL0     H75478   4.329   9.318   6.459 -3.2465  0.2751  1.8487
  572MOL0     H75479   4.306   9.341   6.277 -2.1031 -1.8884  0.8724
  572MOL0     H75480   4.113   9.468   6.315  1.0662  1.2270  0.6050
  572MOL0     H75481   4.149   9.484   6.485  2.4922  0.4510 -1.1928
  572MOL0     H75482   4.076   9.200   6.353 -2.9422 -0.0744 -0.2990
  572MOL0     H75483   4.129   9.228   6.521 -1.1107  0.5527  0.6286
  572MOL0     H75484   3.930   9.405   6.492  4.3513  0.3544  1.9889
  572MOL0     H75485   3.905   9.241   6.549 -3.5172  1.9378 -0.4034
  572MOL0     H75486   4.709   9.470   6.795  1.3462 -0.5418  1.2703
  572MOL0     H75487   4.847   9.455   6.989  1.0534 -2.2799 -2.3515
  572MOL0     H75488   5.149   9.491   7.228 -0.1710 -0.0538  0.3689
  572MOL0     H75489   5.326   9.458   7.392  1.7158  0.2814  0.9424
  572MOL0     H75490   4.238   9.822   9.288  0.9460  1.4950 -4.5264
  572MOL0     H75491   3.998   9.783   9.386 -1.2306 -1.1943  0.6585
  572MOL0     H75492   3.737   9.399   9.643 -2.4760 -0.0347  1.1816
  572MOL0     H75493   3.608   9.471   9.814 -0.5431 -2.2337 -2.5795
  572MOL0     H75494   3.368   9.603   9.852  1.6856 -0.6487 -2.6885
  572MOL0     H75495   3.349   9.736   9.746 -0.1589 -1.0744 -0.3992
  572MOL0     H75496   3.390   9.801  10.053 -1.3261  2.5988  0.5984
  572MOL0     H75497   3.336   9.903   9.929 -2.2674  0.5100  0.1885
  572MOL0     H75498   3.172   9.667  10.060 -0.7763 -1.1109 -1.3130
  572MOL0     H75499   3.124   9.763   9.920  3.2201 -3.2569 -1.7849
  572MOL0     H75500   3.131   9.969  10.077 -0.1570  0.2166  0.6392
  572MOL0     H75501   3.022   9.850  10.139 -2.0367  2.9749 -4.3173
  572MOL0     H75502   3.239   9.921  10.456  3.3456 -0.1728 -0.5388
  572MOL0     H75503   3.592   9.856   9.621 -0.0424  0.2208  0.2456
  572MOL0     H75504   3.764   9.779   9.457 -2.0497 -1.5304 -3.0883
  573MOL0     O75505   2.168   3.635   0.681  0.0227  0.1324 -0.2519
  573MOL0     C75506   2.192   3.530   0.624 -0.1934  0.3097 -0.6516
  573MOL0     O75507   2.122   3.413   0.634 -0.4096 -0.3557 -0.1198
  573MOL0     C75508   2.002   3.406   0.699  0.1598  0.2062 -0.1014
  573MOL0     C75509   1.895   3.494   0.671 -0.3397  1.1637  0.9243
  573MOL0     C75510   1.771   3.480   0.727  0.2807 -0.7839  1.0441
  573MOL0     C75511   1.744   3.388   0.827  0.0707  0.2853 -1.2355
  573MOL0     O75512   1.618   3.364   0.875 -0.3146  0.8034 -0.3652
  573MOL0     C75513   1.531   3.474   0.907  1.5170 -0.4425 -0.4303
  573MOL0     C75514   1.406   3.400   0.959 -0.2012  0.3407  0.2226
  573MOL0     C75515   1.310   3.505   1.009 -0.2872  0.2103  0.2606
  573MOL0     C75516   1.368   3.583   1.124 -0.1565 -0.3122 -0.9242
  573MOL0     C75517   1.288   3.601   1.247  0.6352  0.9071 -0.7025
  573MOL0     C75518   1.167   3.696   1.214 -0.3738  0.5002 -0.4285
  573MOL0     C75519   1.043   3.632   1.288  0.2958  0.2592  0.2126
  573MOL0     C75520   0.915   3.718   1.291 -0.2664 -0.0833  0.6373
  573MOL0     N75521   0.815   3.700   1.182  0.1843 -1.2984  0.0034
  573MOL0     C75522   0.802   3.594   1.104  0.6130 -0.6301  0.0791
  573MOL0     C75523   0.705   3.626   1.006  0.6766 -0.5212 -1.5032
  573MOL0     C75524   0.638   3.527   0.918  0.0925  0.1225 -0.2368
  573MOL0     C75525   0.625   3.583   0.773 -1.2092 -0.5862 -0.0443
  573MOL0     C75526   0.548   3.484   0.686  0.0254 -0.5282  0.1565
  573MOL0     C75527   0.404   3.463   0.716  0.1534  0.2126  0.2609
  573MOL0     O75528   0.332   3.450   0.593  0.1622 -0.2036  0.5878
  573MOL0     C75529   0.267   3.547   0.532  0.3516 -0.7584 -0.2742
  573MOL0     C75530   0.168   3.503   0.448  0.2186 -0.1981  0.6455
  573MOL0     C75531   0.094   3.592   0.380  0.0535 -0.8983  0.5256
  573MOL0     C75532   0.118   3.735   0.380 -0.3317  0.4137  0.7781
  573MOL0     C75533   0.054   3.824   0.280 -1.3397 -0.6595 -0.7737
  573MOL0     O75534  -0.014   3.771   0.182  0.5972  0.7910  0.0469
  573MOL0     C75535  -0.102   3.850   0.105 -0.7092  0.1168  0.2638
  573MOL0     C75536  -0.233   3.859   0.156  0.3795  0.5608 -0.5869
  573MOL0     C75537  -0.323   3.947   0.089 -0.0802  0.2839 -0.6541
  573MOL0     C75538  -0.283   4.033  -0.023  0.8552 -1.1669  0.0528
  573MOL0     O75539  -0.377   4.119  -0.089  0.4696 -0.1608  0.0795
  573MOL0     C75540  -0.369   4.157  -0.228 -0.2476 -0.6743 -0.6985
  573MOL0     C75541  -0.505   4.208  -0.277 -0.3827  0.0891 -0.5533
  573MOL0     C75542  -0.512   4.252  -0.425  0.0030  0.0300 -0.8151
  573MOL0     C75543  -0.420   4.170  -0.512 -0.9911  0.0104 -0.2375
  573MOL0     C75544  -0.459   4.019  -0.515 -0.0962  1.3858 -0.4920
  573MOL0     C75545  -0.589   3.986  -0.580  1.5067  0.9629  1.0143
  573MOL0     C75546  -0.593   3.998  -0.735  0.6426 -0.4624 -0.1635
  573MOL0     C75547  -0.706   3.902  -0.793  0.1377 -0.4253 -0.1606
  573MOL0    Cl75548  -0.718   3.932  -0.975  0.3820 -0.2078  0.0422
  573MOL0     C75549  -0.157   4.015  -0.072  0.2394  0.1783 -0.0962
  573MOL0     C75550  -0.068   3.922  -0.006 -0.4513  0.4296 -0.3484
  573MOL0     O75551   0.067   3.944   0.296 -0.2414  0.3763  0.6302
  573MOL0     C75552   0.205   3.776   0.474 -0.7653 -0.4950  0.5752
  573MOL0     C75553   0.276   3.683   0.557  0.4776  0.7222 -0.6918
  573MOL0     N75554   0.663   3.748   1.036  0.5119  0.1933  0.2289
  573MOL0     N75555   0.727   3.792   1.131  0.6151 -0.2437  0.0817
  573MOL0     C75556   1.852   3.306   0.875 -0.4545 -0.6079  0.4396
  573MOL0     C75557   1.976   3.314   0.796  0.3821  0.6925 -0.0825
  573MOL0     C75558   2.307   3.517   0.536  0.6499  0.1318 -0.0900
  573MOL0     C75559   2.421   3.592   0.557  0.1018 -0.5194 -0.6689
  573MOL0     C75560   2.537   3.569   0.488  1.0726 -0.6390  0.3736
  573MOL0     C75561   2.540   3.456   0.395  0.3484  0.1056 -0.7600
  573MOL0     O75562   2.658   3.443   0.320  0.3827  0.2250 -0.2699
  573MOL0     C75563   2.689   3.313   0.264  0.2353 -0.1860 -0.3387
  573MOL0     C75564   2.826   3.328   0.185  0.5485 -0.0975  0.2976
  573MOL0     C75565   2.848   3.198   0.099 -0.0275  0.4482 -0.0049
  573MOL0     C75566   2.996   3.153   0.110  1.0814  1.0160  0.5089
  573MOL0     C75567   3.002   3.019   0.045 -0.1580  0.1103  0.9192
  573MOL0     C75568   3.025   2.917  -0.013  1.3592  0.2245  0.2706
  573MOL0     C75569   2.426   3.384   0.369  1.2092 -0.0604 -0.1140
  573MOL0     C75570   2.309   3.418   0.441 -0.2520  0.2964 -0.6367
  573MOL0     H75571   1.911   3.568   0.593 -1.0837  2.1458  1.6756
  573MOL0     H75572   1.704   3.557   0.690  2.5032  0.5792 -0.3770
  573MOL0     H75573   1.512   3.535   0.819  0.7685 -0.7442 -0.4867
  573MOL0     H75574   1.582   3.541   0.977  3.2908  0.6865 -2.6754
  573MOL0     H75575   1.451   3.342   1.040 -1.0734 -1.1343 -0.3097
  573MOL0     H75576   1.359   3.329   0.890  0.8500 -0.3914  0.2332
  573MOL0     H75577   1.239   3.438   1.058  0.3303 -0.1377  0.7024
  573MOL0     H75578   1.269   3.563   0.926  4.1169 -0.2699 -2.6299
  573MOL0     H75579   1.461   3.529   1.147  1.4453  1.0397 -3.6928
  573MOL0     H75580   1.396   3.684   1.094 -1.3508 -0.3978 -2.3815
  573MOL0     H75581   1.345   3.638   1.333 -0.3367 -1.1934  0.9516
  573MOL0     H75582   1.242   3.512   1.293 -0.7024  2.7753  1.8286
  573MOL0     H75583   1.136   3.707   1.110 -5.0064 -3.3086  0.2200
  573MOL0     H75584   1.194   3.782   1.276 -0.6415  0.7771 -0.7019
  573MOL0     H75585   1.022   3.532   1.249 -0.1639  0.9358 -1.3165
  573MOL0     H75586   1.072   3.606   1.391 -2.7009 -3.7861  0.3047
  573MOL0     H75587   0.949   3.822   1.289  1.1724 -0.5148  1.3393
  573MOL0     H75588   0.876   3.702   1.392 -3.6989  1.9390 -0.2083
  573MOL0     H75589   0.831   3.490   1.115 -3.8459 -2.0754  0.2982
  573MOL0     H75590   0.541   3.501   0.960  0.3138 -1.7063 -0.7433
  573MOL0     H75591   0.681   3.427   0.908 -3.8281 -1.9653  1.5528
  573MOL0     H75592   0.725   3.596   0.731 -1.3365 -0.2986 -0.2624
  573MOL0     H75593   0.585   3.685   0.772  0.0534 -0.0341  1.7301
  573MOL0     H75594   0.573   3.519   0.585  3.9819 -4.4540 -0.5564
  573MOL0     H75595   0.591   3.384   0.695  1.2722  0.1714  3.1860
  573MOL0     H75596   0.375   3.558   0.762  2.8996 -0.4362  3.7793
  573MOL0     H75597   0.369   3.380   0.777 -2.6054  1.0209 -0.1120
  573MOL0     H75598   0.148   3.398   0.428  1.6038 -0.8892  2.5581
  573MOL0     H75599   0.024   3.563   0.302 -0.4039 -0.7775  0.8881
  573MOL0     H75600  -0.275   3.803   0.238  0.5558  0.9347 -0.2359
  573MOL0     H75601  -0.420   3.954   0.136 -0.2928 -1.2186 -0.8200
  573MOL0     H75602  -0.331   4.074  -0.288 -0.2701  0.8508 -2.9499
  573MOL0     H75603  -0.292   4.234  -0.240 -0.0333 -0.6326  0.8471
  573MOL0     H75604  -0.538   4.295  -0.220  1.0796 -0.0032  0.5032
  573MOL0     H75605  -0.581   4.132  -0.255 -1.5056  1.1575 -0.6155
  573MOL0     H75606  -0.478   4.356  -0.421  2.1182 -0.6334  0.5837
  573MOL0     H75607  -0.615   4.241  -0.459 -0.5855 -1.2506  1.2220
  573MOL0     H75608  -0.427   4.201  -0.617  2.7909  0.0951 -0.5847
  573MOL0     H75609  -0.313   4.183  -0.492 -1.1291  0.1967  0.3823
  573MOL0     H75610  -0.456   3.970  -0.417  1.4559 -0.7335 -1.5056
  573MOL0     H75611  -0.389   3.956  -0.571 -1.6272  0.3676 -1.3393
  573MOL0     H75612  -0.682   4.026  -0.540 -0.9611 -1.1907 -2.0800
  573MOL0     H75613  -0.603   3.878  -0.569  0.3448  0.6849 -2.2497
  573MOL0     H75614  -0.614   4.101  -0.766 -0.5762  0.0157  1.9925
  573MOL0     H75615  -0.494   3.968  -0.769  2.3886  0.9135  3.2502
  573MOL0     H75616  -0.797   3.914  -0.734  2.1025  1.4150  2.7638
  573MOL0     H75617  -0.671   3.799  -0.783  4.2148  0.8908  0.9862
  573MOL0     H75618  -0.136   4.069  -0.163  0.8807  2.6754  1.4394
  573MOL0     H75619   0.037   3.917  -0.034  0.3415 -2.6663  2.5943
  573MOL0     H75620   0.223   3.882   0.492  0.7470 -0.8352  1.2725
  573MOL0     H75621   0.343   3.714   0.637  0.1453 -0.0468 -0.1006
  573MOL0     H75622   1.850   3.228   0.950 -0.7108 -1.0564 -0.0222
  573MOL0     H75623   2.053   3.255   0.844  0.9069  3.7173  3.2800
  573MOL0     H75624   2.411   3.674   0.627 -1.0058 -3.5809  3.1249
  573MOL0     H75625   2.627   3.629   0.500  1.5021 -0.4278 -2.8305
  573MOL0     H75626   2.616   3.282   0.189 -2.6658 -1.9729  2.9619
  573MOL0     H75627   2.694   3.243   0.348 -0.8934 -2.4921 -2.0673
  573MOL0     H75628   2.828   3.415   0.118  0.3231 -0.6486 -0.4479
  573MOL0     H75629   2.905   3.323   0.260 -1.6286 -0.3959  2.6909
  573MOL0     H75630   2.825   3.197  -0.007  3.0934 -0.3420 -0.7789
  573MOL0     H75631   2.787   3.125   0.154  1.8124  0.2974  1.9705
  573MOL0     H75632   3.061   3.224   0.059 -2.4843  1.7570 -3.5575
  573MOL0     H75633   3.022   3.145   0.217  4.0740  2.4505 -0.0022
  573MOL0     H75634   3.050   2.834  -0.076  2.2372 -0.8886  2.0440
  573MOL0     H75635   2.421   3.312   0.288 -0.6993 -0.7174  0.5231
  573MOL0     H75636   2.217   3.363   0.424  0.2158 -0.3889 -1.0039
  574MOL0     O75637   6.853   5.140   0.366  0.3449  0.6977 -0.6791
  574MOL0     C75638   6.751   5.194   0.332  0.5048 -1.0992  0.4949
  574MOL0     O75639   6.629   5.171   0.370 -0.2766  1.3862 -0.3112
  574MOL0     C75640   6.581   5.076   0.454  0.0610 -0.4066 -0.3134
  574MOL0     C75641   6.441   5.056   0.458 -0.0047 -0.8385  0.3024
  574MOL0     C75642   6.379   4.962   0.538  0.3084  0.0302  0.2002
  574MOL0     C75643   6.444   4.903   0.636 -0.3782 -0.2410  0.1175
  574MOL0     O75644   6.364   4.824   0.712  1.3939 -0.6436  0.5064
  574MOL0     C75645   6.430   4.744   0.810 -0.2064  0.7299 -0.2588
  574MOL0     C75646   6.317   4.675   0.887 -0.5671 -0.0713  1.7705
  574MOL0     C75647   6.380   4.616   1.014 -0.7748 -0.5286 -0.0662
  574MOL0     C75648   6.288   4.518   1.085  0.5851  0.4110  0.8114
  574MOL0     C75649   6.361   4.451   1.205  0.8897  0.3610  0.7816
  574MOL0     C75650   6.250   4.395   1.300  1.2680 -0.3040 -1.1360
  574MOL0     C75651   6.297   4.364   1.437  0.6468  0.1073 -0.8582
  574MOL0     C75652   6.290   4.482   1.526  0.0015 -0.0814 -0.2095
  574MOL0     N75653   6.408   4.581   1.519  0.1212 -0.8924 -0.3450
  574MOL0     C75654   6.536   4.528   1.526 -0.2354 -0.9788 -0.4799
  574MOL0     C75655   6.620   4.627   1.478  0.7659  0.4421 -0.4165
  574MOL0     C75656   6.777   4.630   1.455  0.4170  0.3161  0.2505
  574MOL0     C75657   6.800   4.600   1.306 -1.0685  0.6493  0.2828
  574MOL0     C75658   6.787   4.445   1.282 -0.8141  0.0409  0.4921
  574MOL0     C75659   6.812   4.428   1.129 -0.7311 -0.2826  0.2914
  574MOL0     O75660   6.821   4.293   1.071  0.5302  0.5891  0.4800
  574MOL0     C75661   6.697   4.236   1.050 -0.8613  0.2375 -0.2846
  574MOL0     C75662   6.652   4.132   1.122  0.1531  0.0431  0.0091
  574MOL0     C75663   6.525   4.090   1.100 -0.1934  0.2319 -0.7448
  574MOL0     C75664   6.436   4.153   1.012  0.0668  0.8423  1.4677
  574MOL0     C75665   6.294   4.108   1.026  0.1563 -0.8035  0.2962
  574MOL0     O75666   6.272   4.011   1.114  0.0854 -0.8186  0.2561
  574MOL0     C75667   6.144   3.960   1.124  0.6911 -0.1959  0.3324
  574MOL0     C75668   6.111   3.834   1.073 -0.1646 -0.0088  0.3654
  574MOL0     C75669   5.985   3.792   1.087 -0.2997  0.4032  0.6627
  574MOL0     C75670   5.886   3.871   1.143 -0.2212  0.0186  0.0543
  574MOL0     O75671   5.765   3.820   1.136 -0.3087  0.0641  0.0544
  574MOL0     C75672   5.666   3.864   1.234  0.6788 -0.0096 -0.3024
  574MOL0     C75673   5.554   3.762   1.216  0.4891 -0.3076 -0.1451
  574MOL0     C75674   5.467   3.799   1.096  0.0213  0.2083 -0.4191
  574MOL0     C75675   5.390   3.675   1.038 -0.6106 -0.9181 -0.6986
  574MOL0     C75676   5.343   3.707   0.896 -0.1872  0.0203 -0.3774
  574MOL0     C75677   5.243   3.826   0.880  0.7053 -0.1058  0.1743
  574MOL0     C75678   5.142   3.807   0.772 -0.2443  0.3857  0.4039
  574MOL0     C75679   5.021   3.902   0.782 -0.7192  0.2832  0.6199
  574MOL0    Cl75680   5.080   4.073   0.774 -0.0786  0.6397 -0.0708
  574MOL0     C75681   5.921   3.986   1.209 -0.6203 -1.2231  0.3397
  574MOL0     C75682   6.052   4.035   1.188 -0.5432 -0.7305  0.0915
  574MOL0     O75683   6.205   4.162   0.957 -0.7208  0.6740 -0.5627
  574MOL0     C75684   6.486   4.252   0.930 -0.6082 -0.0144  0.0290
  574MOL0     C75685   6.621   4.299   0.948  0.0941 -0.2679 -0.1730
  574MOL0     N75686   6.535   4.730   1.435  0.7695 -0.4991  0.0330
  574MOL0     N75687   6.407   4.697   1.448  0.7324  0.0088 -0.5071
  574MOL0     C75688   6.582   4.917   0.636  0.3318 -0.3560 -0.7721
  574MOL0     C75689   6.652   4.996   0.545  0.3233 -0.3643  0.2455
  574MOL0     C75690   6.763   5.304   0.230  0.0690  0.1360  0.4758
  574MOL0     C75691   6.648   5.365   0.181 -0.7989 -0.1885 -0.4506
  574MOL0     C75692   6.661   5.483   0.109  0.0188 -0.5607 -1.3816
  574MOL0     C75693   6.778   5.536   0.062  0.2117  0.8313 -0.5301
  574MOL0     O75694   6.772   5.654  -0.011  0.0964 -0.4776  0.2583
  574MOL0     C75695   6.895   5.724  -0.028 -0.4814  0.1285 -0.7572
  574MOL0     C75696   6.980   5.690  -0.155  0.4377  1.1104 -0.0848
  574MOL0     C75697   6.894   5.704  -0.276  0.3377 -0.2140 -0.5633
  574MOL0     C75698   6.959   5.646  -0.396  0.3550  1.0777 -0.2816
  574MOL0     C75699   7.069   5.726  -0.449  0.8905 -0.0788  0.4861
  574MOL0     C75700   7.157   5.797  -0.490 -0.3892 -0.7744 -0.3737
  574MOL0     C75701   6.890   5.469   0.110 -0.7314 -0.3191 -0.1776
  574MOL0     C75702   6.884   5.360   0.198 -0.4348  0.3204 -0.5153
  574MOL0     H75703   6.372   5.102   0.387 -2.0511 -1.5672  1.7536
  574MOL0     H75704   6.273   4.946   0.522  0.2184  1.0696 -0.3398
  574MOL0     H75705   6.477   4.825   0.866  2.4475 -0.6560 -0.3199
  574MOL0     H75706   6.504   4.673   0.772  3.2074  2.3082  2.8573
  574MOL0     H75707   6.280   4.598   0.818  0.0251 -0.1216  1.5020
  574MOL0     H75708   6.237   4.745   0.910 -0.9480  0.2908 -0.4601
  574MOL0     H75709   6.401   4.697   1.085  0.2159 -0.0532 -0.8904
  574MOL0     H75710   6.479   4.573   0.998  0.4174  1.7792  0.5634
  574MOL0     H75711   6.202   4.574   1.122  0.4433  0.7278  0.0289
  574MOL0     H75712   6.249   4.439   1.019  0.8237 -0.1454  1.3272
  574MOL0     H75713   6.419   4.535   1.243  3.1200  0.8798 -3.1918
  574MOL0     H75714   6.432   4.373   1.177 -0.0549 -0.6928  1.2504
  574MOL0     H75715   6.224   4.304   1.245 -0.1986 -1.7297  1.6937
  574MOL0     H75716   6.157   4.452   1.299  0.7916 -1.0712 -1.2214
  574MOL0     H75717   6.230   4.290   1.483  1.8505  0.9950  2.6272
  574MOL0     H75718   6.398   4.323   1.432  0.5218 -0.3507  0.1234
  574MOL0     H75719   6.283   4.465   1.634  0.6862  0.7068 -0.0288
  574MOL0     H75720   6.198   4.534   1.501 -1.0830 -1.4112  0.8778
  574MOL0     H75721   6.572   4.437   1.571  5.3195  0.7369 -0.7272
  574MOL0     H75722   6.829   4.574   1.533  0.1607  4.1153  3.4440
  574MOL0     H75723   6.804   4.734   1.474 -0.0967  0.1253  2.2707
  574MOL0     H75724   6.906   4.619   1.287 -0.1978 -2.1146  1.8322
  574MOL0     H75725   6.732   4.655   1.240  0.1678  0.9036 -0.8078
  574MOL0     H75726   6.857   4.387   1.342 -0.8339  0.2860  0.7564
  574MOL0     H75727   6.689   4.411   1.315 -0.7116 -0.1397  0.6078
  574MOL0     H75728   6.909   4.466   1.095  0.3520 -2.5579  0.6066
  574MOL0     H75729   6.734   4.485   1.077  0.5557  2.5334  1.2619
  574MOL0     H75730   6.719   4.076   1.187 -2.7024 -0.8425  2.4514
  574MOL0     H75731   6.507   4.009   1.169 -0.5385 -0.6111 -1.7986
  574MOL0     H75732   6.182   3.772   1.021 -1.5404  1.7294 -4.0598
  574MOL0     H75733   5.963   3.690   1.058  1.2049 -0.7598  3.2976
  574MOL0     H75734   5.629   3.967   1.225 -0.3317 -0.0836  2.1442
  574MOL0     H75735   5.697   3.868   1.339  0.2442 -0.4569 -0.1521
  574MOL0     H75736   5.499   3.760   1.310  0.5440 -0.8101 -0.1218
  574MOL0     H75737   5.605   3.670   1.186 -0.1202 -0.3024 -1.2298
  574MOL0     H75738   5.536   3.847   1.026 -0.3053 -1.5418 -2.0226
  574MOL0     H75739   5.396   3.874   1.131  2.2917  2.2271  0.1325
  574MOL0     H75740   5.467   3.598   1.030  0.4193 -0.1994  1.5390
  574MOL0     H75741   5.303   3.643   1.097 -2.5969 -1.8723 -3.8533
  574MOL0     H75742   5.305   3.610   0.865  1.3075 -1.3006  1.6574
  574MOL0     H75743   5.429   3.736   0.835  1.8177 -1.0078  1.8304
  574MOL0     H75744   5.312   3.910   0.891 -0.2641  0.8005 -0.4365
  574MOL0     H75745   5.183   3.822   0.971 -2.7362  1.9650 -1.7655
  574MOL0     H75746   5.188   3.821   0.674 -1.1605  1.2493  0.0831
  574MOL0     H75747   5.098   3.707   0.778 -2.1374  0.7418 -3.9121
  574MOL0     H75748   4.965   3.886   0.874  0.8766 -0.2528  1.5373
  574MOL0     H75749   4.955   3.895   0.695  0.5224 -2.7759 -0.2003
  574MOL0     H75750   5.856   4.052   1.266  1.3110  0.0626  1.1654
  574MOL0     H75751   6.075   4.131   1.234 -1.9876  0.0565 -0.7501
  574MOL0     H75752   6.422   4.311   0.865  2.0053  0.4349 -2.3384
  574MOL0     H75753   6.651   4.382   0.885  2.4184 -1.9184 -1.4262
  574MOL0     H75754   6.652   4.876   0.708  0.7691 -0.9042 -1.5042
  574MOL0     H75755   6.759   4.982   0.549  0.6599  0.0661 -3.6550
  574MOL0     H75756   6.558   5.326   0.227 -0.2518 -0.8328  0.1175
  574MOL0     H75757   6.569   5.538   0.090  0.5054 -0.1399 -2.6634
  574MOL0     H75758   6.961   5.719   0.059  3.4814 -1.6846 -3.5534
  574MOL0     H75759   6.881   5.832  -0.022  3.9036  0.8987 -1.1324
  574MOL0     H75760   7.062   5.762  -0.167  0.6035  0.9307 -0.0163
  574MOL0     H75761   7.020   5.589  -0.146 -1.3204  0.1476 -2.1709
  574MOL0     H75762   6.872   5.811  -0.290 -4.9258 -0.9701 -0.1018
  574MOL0     H75763   6.804   5.642  -0.263  0.3989 -0.3162 -0.6298
  574MOL0     H75764   6.997   5.545  -0.377 -0.1372  1.1753  1.3850
  574MOL0     H75765   6.894   5.638  -0.483  0.5775  2.0788 -0.5534
  574MOL0     H75766   7.250   5.849  -0.501 -0.0914 -0.7560  1.7837
  574MOL0     H75767   6.983   5.511   0.074 -1.6654  0.3855 -1.9050
  574MOL0     H75768   6.982   5.318   0.223  0.1903  1.3162 -1.2557
  575MOL0     O75769   7.239   3.842   3.671 -0.7387  0.8741  0.5922
  575MOL0     C75770   7.270   3.734   3.718 -0.0216  0.3090 -0.4326
  575MOL0     O75771   7.222   3.681   3.832  0.0862 -0.0133 -0.9030
  575MOL0     C75772   7.144   3.767   3.900  1.5422  0.1447  0.0100
  575MOL0     C75773   7.008   3.745   3.903  0.4165 -0.0786 -0.7363
  575MOL0     C75774   6.928   3.837   3.973 -0.0031 -0.7897  0.1687
  575MOL0     C75775   6.978   3.932   4.058  1.0119 -0.8560  0.5860
  575MOL0     O75776   6.895   4.010   4.148  0.1326 -0.2902  0.3411
  575MOL0     C75777   6.755   3.983   4.166  0.0432 -0.4164 -0.5204
  575MOL0     C75778   6.693   4.088   4.256 -0.1047  0.1984  0.7841
  575MOL0     C75779   6.759   4.095   4.391  0.5133  0.4645 -0.3953
  575MOL0     C75780   6.670   4.164   4.497  0.0841  0.2819  0.3310
  575MOL0     C75781   6.697   4.111   4.631 -0.7375 -0.3380  0.3343
  575MOL0     C75782   6.843   4.165   4.672  0.0040 -0.1158  0.5789
  575MOL0     C75783   6.899   4.083   4.786 -0.2542 -0.5191 -0.3733
  575MOL0     C75784   6.834   4.087   4.919  0.3469 -0.1219  0.4048
  575MOL0     N75785   6.745   3.971   4.938  0.5533 -0.6811  0.2864
  575MOL0     C75786   6.784   3.832   4.917 -0.2336 -1.3456 -0.2363
  575MOL0     C75787   6.661   3.766   4.922 -0.6434 -0.6567  0.2977
  575MOL0     C75788   6.661   3.617   4.903  0.3441  0.1669 -0.9843
  575MOL0     C75789   6.531   3.564   4.864  0.0688 -0.6952 -0.2300
  575MOL0     C75790   6.517   3.419   4.902 -1.0196  0.3806 -0.2499
  575MOL0     C75791   6.614   3.313   4.834 -0.0286  0.7101 -0.8529
  575MOL0     O75792   6.555   3.190   4.860 -0.1364 -0.0345 -0.3113
  575MOL0     C75793   6.456   3.146   4.783  0.2626  0.4410  0.3937
  575MOL0     C75794   6.406   3.204   4.670 -1.3049 -0.9085 -0.1357
  575MOL0     C75795   6.293   3.157   4.608 -0.1931  0.6659 -0.0627
  575MOL0     C75796   6.209   3.058   4.672  0.6399  0.6780 -0.5896
  575MOL0     C75797   6.078   3.016   4.617 -0.2781  0.6277  0.1134
  575MOL0     O75798   5.987   2.941   4.698 -0.2576 -0.4300  0.6122
  575MOL0     C75799   5.868   2.923   4.638 -0.9215  0.0553 -0.3670
  575MOL0     C75800   5.831   2.796   4.589  0.4080 -0.2157 -0.4114
  575MOL0     C75801   5.708   2.785   4.524  0.1965  0.9192  0.0488
  575MOL0     C75802   5.622   2.895   4.526  0.1296 -0.3473 -0.6626
  575MOL0     O75803   5.495   2.870   4.470 -0.9931  0.2146 -0.1114
  575MOL0     C75804   5.390   2.953   4.498  0.2049 -0.4060  0.3110
  575MOL0     C75805   5.271   2.928   4.408  0.1451  0.1019  0.7386
  575MOL0     C75806   5.303   2.967   4.264 -0.7554  0.2995  0.5466
  575MOL0     C75807   5.204   2.910   4.182 -1.1157  0.4194  0.0325
  575MOL0     C75808   5.204   2.941   4.030  0.5293  0.4494 -0.6012
  575MOL0     C75809   5.207   2.802   3.953  0.8199 -0.6163 -0.4886
  575MOL0     C75810   5.229   2.829   3.799  0.4743 -0.9105  0.6734
  575MOL0     C75811   5.254   2.691   3.727 -0.3807 -0.3347 -0.6133
  575MOL0    Cl75812   5.418   2.667   3.647 -0.3660  0.1563 -0.4455
  575MOL0     C75813   5.659   3.017   4.580  0.3984 -0.7219 -0.8952
  575MOL0     C75814   5.784   3.034   4.634 -0.4537 -0.2035 -0.6423
  575MOL0     O75815   6.064   3.059   4.498 -0.0314 -0.0007 -0.6893
  575MOL0     C75816   6.249   3.022   4.795  0.4001 -0.1884 -0.0003
  575MOL0     C75817   6.374   3.047   4.841 -1.3352 -0.2046  0.1350
  575MOL0     N75818   6.555   3.860   4.936 -0.1706 -0.3368  0.0092
  575MOL0     N75819   6.605   3.984   4.944 -0.7175 -0.4241  0.3547
  575MOL0     C75820   7.111   3.945   4.072  0.0442 -0.0082 -0.0520
  575MOL0     C75821   7.200   3.862   3.990  0.2472 -0.4109  0.1568
  575MOL0     C75822   7.366   3.653   3.642  0.7675  0.6324  0.2248
  575MOL0     C75823   7.382   3.670   3.507  0.9567 -0.0686 -0.8155
  575MOL0     C75824   7.473   3.595   3.426  0.2961  0.5473 -0.6238
  575MOL0     C75825   7.541   3.494   3.491 -0.9108  0.3260 -0.1031
  575MOL0     O75826   7.642   3.412   3.433 -0.4202  0.5754 -0.3448
  575MOL0     C75827   7.647   3.411   3.292  0.8267 -0.3230  0.8236
  575MOL0     C75828   7.742   3.529   3.241  0.7581  1.0926 -0.2885
  575MOL0     C75829   7.894   3.502   3.260  0.4604  0.1879 -1.3917
  575MOL0     C75830   7.974   3.604   3.182  0.2627 -0.6872 -0.7540
  575MOL0     C75831   7.952   3.629   3.040 -0.8092 -0.5466 -0.4347
  575MOL0     C75832   7.947   3.653   2.920 -0.9852  0.4507  0.1024
  575MOL0     C75833   7.521   3.474   3.632  0.2007 -0.7780 -0.6162
  575MOL0     C75834   7.444   3.555   3.705  0.5958 -0.5823  0.7680
  575MOL0     H75835   6.965   3.655   3.861 -1.5674 -0.2607  1.4871
  575MOL0     H75836   6.821   3.821   3.975 -0.0646 -1.0435  4.1267
  575MOL0     H75837   6.747   3.890   4.222  1.6040  1.0492  2.4112
  575MOL0     H75838   6.711   3.971   4.067 -3.3642  4.5538  0.0327
  575MOL0     H75839   6.585   4.077   4.269 -0.3741 -1.3248 -1.9983
  575MOL0     H75840   6.703   4.183   4.204 -2.5771  0.2757  0.3349
  575MOL0     H75841   6.853   4.150   4.377  0.7457 -0.0845 -1.0259
  575MOL0     H75842   6.778   3.992   4.422 -1.0357  0.0063 -0.8926
  575MOL0     H75843   6.694   4.270   4.502 -0.7827  0.4971  0.1782
  575MOL0     H75844   6.563   4.162   4.475 -0.1381  0.5612  1.3158
  575MOL0     H75845   6.693   4.002   4.637 -0.5575 -0.2687  2.8678
  575MOL0     H75846   6.626   4.153   4.704  2.8126  5.1536  1.1882
  575MOL0     H75847   6.832   4.268   4.707  3.2844  0.6952 -0.5019
  575MOL0     H75848   6.917   4.181   4.593 -1.0338  0.7671 -0.2468
  575MOL0     H75849   6.902   3.976   4.763 -2.9956 -0.6486 -0.5099
  575MOL0     H75850   7.005   4.101   4.806 -0.1738  1.2352 -2.0902
  575MOL0     H75851   6.781   4.183   4.920 -2.4784 -1.5382 -0.8603
  575MOL0     H75852   6.911   4.088   4.996 -1.1345 -1.5664  2.0200
  575MOL0     H75853   6.886   3.797   4.917  0.2770  0.0192  0.7361
  575MOL0     H75854   6.699   3.567   4.992 -0.3184  3.4244  1.3116
  575MOL0     H75855   6.726   3.586   4.820 -3.7703 -0.9019 -4.1212
  575MOL0     H75856   6.500   3.584   4.761 -1.3016  1.2594  0.5120
  575MOL0     H75857   6.455   3.621   4.918  1.6315 -0.0312  1.3451
  575MOL0     H75858   6.520   3.400   5.009  0.4062  0.1915 -0.2994
  575MOL0     H75859   6.416   3.380   4.886 -2.2135  1.7445  3.0853
  575MOL0     H75860   6.718   3.320   4.870 -0.1800  1.4742 -0.5459
  575MOL0     H75861   6.613   3.333   4.727  0.7681  4.5353 -0.2953
  575MOL0     H75862   6.463   3.267   4.603 -3.3436 -1.0558 -2.0943
  575MOL0     H75863   6.285   3.192   4.506  5.5336  1.0363 -0.7133
  575MOL0     H75864   5.898   2.712   4.604  4.1665  2.3947 -1.1015
  575MOL0     H75865   5.681   2.685   4.492  0.1955  0.5254  1.2180
  575MOL0     H75866   5.409   3.054   4.460 -0.5904  0.2678  1.6325
  575MOL0     H75867   5.361   2.949   4.603  0.0867  0.2316  0.3089
  575MOL0     H75868   5.193   2.993   4.449  0.1657 -1.4482  3.4586
  575MOL0     H75869   5.241   2.824   4.422 -0.3258  0.1637  0.1884
  575MOL0     H75870   5.399   2.931   4.227 -1.4448  0.8581 -1.9636
  575MOL0     H75871   5.320   3.075   4.257 -2.7891  0.8513  2.7052
  575MOL0     H75872   5.214   2.802   4.194  2.2396  0.6455  0.2780
  575MOL0     H75873   5.110   2.950   4.219 -1.7223 -0.4767 -0.4923
  575MOL0     H75874   5.290   3.004   4.004  0.4474  0.0671 -1.9153
  575MOL0     H75875   5.123   3.005   3.993  4.1069  4.5272 -2.2817
  575MOL0     H75876   5.115   2.749   3.977  1.0113 -0.9912 -0.5819
  575MOL0     H75877   5.292   2.741   3.984  0.2419 -1.4494 -0.5168
  575MOL0     H75878   5.147   2.886   3.754 -0.4981 -1.7596  1.3284
  575MOL0     H75879   5.317   2.893   3.791 -1.6647  2.2412  0.1145
  575MOL0     H75880   5.176   2.677   3.652 -1.5031 -2.8712  0.8944
  575MOL0     H75881   5.226   2.621   3.806 -4.0532  2.4724  0.8929
  575MOL0     H75882   5.597   3.105   4.585 -0.1430 -1.0452 -1.7005
  575MOL0     H75883   5.833   3.124   4.669 -0.6301 -0.7561  1.1135
  575MOL0     H75884   6.191   2.950   4.853 -1.6732 -1.7516 -3.6890
  575MOL0     H75885   6.402   3.011   4.939 -0.4404  1.6524  0.6178
  575MOL0     H75886   7.154   4.005   4.152 -0.6117  0.4662 -0.0485
  575MOL0     H75887   7.304   3.883   4.010 -0.4764  3.1893  0.7876
  575MOL0     H75888   7.320   3.745   3.458  1.3718 -0.5226 -2.0761
  575MOL0     H75889   7.476   3.627   3.322 -0.7946  1.5120 -0.3813
  575MOL0     H75890   7.549   3.400   3.246 -0.0107 -0.8583  2.6705
  575MOL0     H75891   7.698   3.315   3.275 -1.1098 -1.5463  1.6200
  575MOL0     H75892   7.728   3.529   3.133 -0.8210 -4.0679 -0.3442
  575MOL0     H75893   7.717   3.628   3.281 -4.7280 -0.7069  1.6410
  575MOL0     H75894   7.912   3.397   3.234 -2.1872 -0.1377 -2.1663
  575MOL0     H75895   7.921   3.518   3.365 -2.4099  2.5733 -0.8819
  575MOL0     H75896   7.961   3.700   3.232  1.2290 -1.2158  0.5699
  575MOL0     H75897   8.076   3.575   3.207  0.2866 -1.4646 -1.6938
  575MOL0     H75898   7.955   3.674   2.815  1.9406  1.2381  0.4120
  575MOL0     H75899   7.584   3.408   3.691  2.9453  1.8646 -0.3647
  575MOL0     H75900   7.433   3.545   3.813  1.3756  1.6505  1.1122
  576MOL0     O75901  11.390   6.571   1.751  0.5397 -0.0922  0.1382
  576MOL0     C75902  11.399   6.497   1.649  0.6640  0.2987  0.2398
  576MOL0     O75903  11.431   6.369   1.642 -0.2224 -0.0732  0.7886
  576MOL0     C75904  11.454   6.306   1.759 -0.2196  0.3787 -0.9930
  576MOL0     C75905  11.576   6.238   1.764  0.7895 -0.0785  0.8616
  576MOL0     C75906  11.614   6.156   1.869 -0.3053  0.2754 -0.5157
  576MOL0     C75907  11.520   6.129   1.968 -0.5048 -0.1989 -0.3029
  576MOL0     O75908  11.546   6.023   2.057  0.1734  0.5589 -0.4553
  576MOL0     C75909  11.574   6.061   2.200  0.6673 -0.1749 -0.2920
  576MOL0     C75910  11.623   5.942   2.272 -0.2472 -0.1463 -0.7114
  576MOL0     C75911  11.640   5.947   2.426 -0.1934 -0.3214 -0.8280
  576MOL0     C75912  11.671   5.800   2.467  0.4281 -0.6519 -0.7389
  576MOL0     C75913  11.704   5.797   2.612 -0.3344 -1.6541 -0.1578
  576MOL0     C75914  11.574   5.802   2.703  0.1396  0.6680  1.1479
  576MOL0     C75915  11.620   5.768   2.847  0.6346 -0.0569  0.2369
  576MOL0     C75916  11.612   5.620   2.886 -0.2460 -0.5001 -0.6742
  576MOL0     N75917  11.715   5.533   2.834 -0.2184 -0.4063 -0.0924
  576MOL0     C75918  11.850   5.538   2.843 -0.3418  0.0727 -0.9185
  576MOL0     C75919  11.893   5.419   2.789  1.1146  1.1690  0.6412
  576MOL0     C75920  12.043   5.379   2.752  0.5649 -1.1941 -0.0640
  576MOL0     C75921  12.093   5.491   2.661  0.1994 -1.3620 -0.0366
  576MOL0     C75922  12.041   5.480   2.516  0.6546 -0.6045 -0.0988
  576MOL0     C75923  12.080   5.353   2.443  0.6162 -0.7135  0.6848
  576MOL0     O75924  12.223   5.340   2.409  0.3716 -0.0185 -0.1742
  576MOL0     C75925  12.280   5.425   2.328  0.3185 -0.4007  1.0537
  576MOL0     C75926  12.419   5.425   2.303 -0.1427  0.0558 -0.6741
  576MOL0     C75927  12.476   5.510   2.208 -0.0218  0.6725 -0.3242
  576MOL0     C75928  12.403   5.595   2.126 -0.3575  0.6864  0.3627
  576MOL0     C75929  12.468   5.683   2.024 -0.4032  0.8834  0.6548
  576MOL0     O75930  12.596   5.706   2.037 -0.3377  0.1440  0.1754
  576MOL0     C75931  12.648   5.803   1.965  0.1392  0.3680  0.0184
  576MOL0     C75932  12.598   5.931   1.946 -0.9212 -0.5615  0.5077
  576MOL0     C75933  12.680   6.029   1.889 -0.4917  0.9742 -0.7854
  576MOL0     C75934  12.815   5.995   1.857  0.8315 -1.0221 -0.2056
  576MOL0     O75935  12.911   6.089   1.821 -0.0551 -0.1932 -0.3678
  576MOL0     C75936  12.939   6.093   1.684  0.3529  0.2881  0.1286
  576MOL0     C75937  13.082   6.043   1.654  0.7486  0.1208  0.1423
  576MOL0     C75938  13.197   6.141   1.677 -0.1983  0.4045  0.1954
  576MOL0     C75939  13.339   6.080   1.663  0.1262  0.3217 -1.3111
  576MOL0     C75940  13.377   5.974   1.771 -0.0176 -0.7452 -0.1557
  576MOL0     C75941  13.518   5.926   1.747 -0.3001 -0.2478 -0.5064
  576MOL0     C75942  13.558   5.833   1.871  0.2640 -0.4569 -0.4185
  576MOL0     C75943  13.638   5.703   1.846 -0.4290 -0.3580 -0.1594
  576MOL0    Cl75944  13.814   5.712   1.767 -0.1302 -0.0354 -0.5400
  576MOL0     C75945  12.861   5.873   1.871 -0.4796  0.2470  0.0638
  576MOL0     C75946  12.781   5.775   1.924 -0.1720  0.4885  0.3268
  576MOL0     O75947  12.391   5.737   1.945 -0.4223  0.2199 -0.2707
  576MOL0     C75948  12.268   5.592   2.143  0.4592 -0.7240 -0.8451
  576MOL0     C75949  12.210   5.506   2.233 -0.0954  0.5051 -0.5852
  576MOL0     N75950  11.788   5.336   2.759 -0.4514  0.2226 -0.1117
  576MOL0     N75951  11.684   5.410   2.786 -0.0526  0.1066  0.1989
  576MOL0     C75952  11.400   6.210   1.981 -0.4259 -0.4075 -0.0152
  576MOL0     C75953  11.368   6.286   1.868 -0.7744 -0.2492 -0.7682
  576MOL0     C75954  11.344   6.560   1.529  0.1849  0.0077  0.3732
  576MOL0     C75955  11.285   6.690   1.534 -0.6407 -0.6147 -0.0115
  576MOL0     C75956  11.235   6.751   1.421 -0.4327  0.4049  0.6641
  576MOL0     C75957  11.238   6.690   1.290  0.8117  0.1423  0.2186
  576MOL0     O75958  11.186   6.753   1.181  0.2419  2.0054  0.0761
  576MOL0     C75959  11.102   6.864   1.190  0.9074  0.3630  0.0587
  576MOL0     C75960  10.958   6.837   1.244  0.3024 -0.2725  0.6585
  576MOL0     C75961  10.870   6.742   1.151  0.8076 -0.2087 -1.0071
  576MOL0     C75962  10.862   6.779   1.005 -0.5689 -0.5997  0.2318
  576MOL0     C75963  10.808   6.913   0.999 -0.3783 -0.0515  0.3104
  576MOL0     C75964  10.743   7.014   0.995  0.5652  0.2649 -0.5487
  576MOL0     C75965  11.304   6.571   1.285  1.3456 -0.6973  0.1684
  576MOL0     C75966  11.352   6.502   1.397 -0.2103  0.2761  0.3203
  576MOL0     H75967  11.648   6.245   1.682  1.3178 -0.3116  1.2967
  576MOL0     H75968  11.700   6.091   1.860 -1.6222 -1.6180 -0.0913
  576MOL0     H75969  11.484   6.103   2.246  0.0255 -0.8493 -0.9125
  576MOL0     H75970  11.653   6.137   2.201  3.4396 -2.8848 -0.8233
  576MOL0     H75971  11.723   5.916   2.236 -1.2030 -3.3346 -1.3990
  576MOL0     H75972  11.569   5.854   2.234  2.0112 -0.4814 -3.5275
  576MOL0     H75973  11.551   5.995   2.466 -0.2325 -0.2072 -1.0500
  576MOL0     H75974  11.725   6.012   2.451 -0.6055  0.6708 -1.9207
  576MOL0     H75975  11.596   5.736   2.421 -0.4231 -0.3255  0.1471
  576MOL0     H75976  11.763   5.788   2.410  1.5282  2.6765  0.0549
  576MOL0     H75977  11.773   5.880   2.631 -0.4697 -1.4159 -0.6868
  576MOL0     H75978  11.749   5.700   2.635 -0.5645 -1.9229 -0.8310
  576MOL0     H75979  11.492   5.743   2.659 -1.2904  3.2758  0.0899
  576MOL0     H75980  11.546   5.907   2.716  0.8577  0.5422  4.9984
  576MOL0     H75981  11.722   5.804   2.862 -0.1270  2.0838  0.6419
  576MOL0     H75982  11.550   5.828   2.906 -2.3656  0.6447 -3.6658
  576MOL0     H75983  11.517   5.572   2.861  0.6347 -3.3527  1.0030
  576MOL0     H75984  11.611   5.609   2.995  0.0688 -4.7621 -0.9178
  576MOL0     H75985  11.913   5.624   2.865  1.0190 -0.8978 -0.8822
  576MOL0     H75986  12.050   5.280   2.704 -0.9897 -0.1317 -2.7409
  576MOL0     H75987  12.099   5.382   2.846  0.3736  0.0860  0.0257
  576MOL0     H75988  12.202   5.497   2.651  0.1304 -0.0745 -0.1149
  576MOL0     H75989  12.060   5.585   2.705 -4.3923 -1.8999 -1.7398
  576MOL0     H75990  11.932   5.489   2.521  0.2051 -2.0592 -3.8676
  576MOL0     H75991  12.070   5.568   2.459 -3.3631  0.5111 -0.7390
  576MOL0     H75992  12.021   5.351   2.351 -0.7314 -0.4724  1.5136
  576MOL0     H75993  12.056   5.261   2.498 -1.3936 -1.3681 -1.1636
  576MOL0     H75994  12.487   5.346   2.335 -1.4372 -1.4279 -1.4686
  576MOL0     H75995  12.582   5.499   2.190  0.0668  2.9963 -1.5939
  576MOL0     H75996  12.506   5.977   1.983  1.0385  2.8886  1.5567
  576MOL0     H75997  12.649   6.132   1.875 -0.0900  0.9067 -2.4307
  576MOL0     H75998  12.927   6.196   1.651 -3.2947  0.0230  0.2359
  576MOL0     H75999  12.855   6.040   1.638  1.3255 -1.8599  0.7085
  576MOL0     H76000  13.081   6.022   1.547 -2.0204  0.5724  0.0033
  576MOL0     H76001  13.096   5.950   1.710 -1.6576  0.5001  1.4890
  576MOL0     H76002  13.184   6.189   1.774 -1.4944 -0.6184  0.5547
  576MOL0     H76003  13.184   6.227   1.611  1.3714 -0.8391 -1.8710
  576MOL0     H76004  13.341   6.029   1.566 -0.6986 -4.3733  0.9049
  576MOL0     H76005  13.409   6.164   1.657  0.5333  0.1106  0.1658
  576MOL0     H76006  13.305   5.892   1.763 -1.3327  0.3219  0.4821
  576MOL0     H76007  13.374   6.018   1.871  0.3748 -2.5804  0.7236
  576MOL0     H76008  13.582   6.015   1.744 -3.4245  2.1522 -0.4615
  576MOL0     H76009  13.530   5.877   1.649 -1.5539  1.3891 -1.5213
  576MOL0     H76010  13.620   5.884   1.946 -0.1045  0.7202 -0.9032
  576MOL0     H76011  13.465   5.798   1.917  0.3300 -0.0233  0.0622
  576MOL0     H76012  13.584   5.638   1.777 -1.6764 -2.7301  2.8056
  576MOL0     H76013  13.647   5.655   1.944 -0.8045  1.8414  1.0348
  576MOL0     H76014  12.963   5.850   1.844 -0.7508 -0.5867 -0.2674
  576MOL0     H76015  12.826   5.678   1.940  1.8537  1.0730 -1.3972
  576MOL0     H76016  12.214   5.651   2.070  0.1676 -0.2354 -0.2353
  576MOL0     H76017  12.101   5.507   2.231 -0.2161 -1.0150  1.5920
  576MOL0     H76018  11.333   6.196   2.065  1.4870  2.1841  2.1132
  576MOL0     H76019  11.271   6.335   1.865 -3.7931 -5.3062  0.8443
  576MOL0     H76020  11.269   6.744   1.627 -2.1653 -3.3745  1.4795
  576MOL0     H76021  11.203   6.854   1.436  0.8810  1.2977 -1.9896
  576MOL0     H76022  11.093   6.900   1.087 -1.3231 -1.8820 -0.6614
  576MOL0     H76023  11.133   6.942   1.260  1.4241 -1.5696  2.0998
  576MOL0     H76024  10.951   6.796   1.346 -1.4370  0.4094  0.8547
  576MOL0     H76025  10.912   6.936   1.247  2.8488  1.0183 -0.0590
  576MOL0     H76026  10.775   6.738   1.206  1.6166 -1.9492  0.3490
  576MOL0     H76027  10.909   6.641   1.167 -1.1411 -0.7494  0.8610
  576MOL0     H76028  10.958   6.779   0.954  0.7149 -0.4527  2.5467
  576MOL0     H76029  10.802   6.708   0.947  2.0648 -0.5131 -2.8916
  576MOL0     H76030  10.699   7.111   1.008  1.7650  0.6496  1.0245
  576MOL0     H76031  11.300   6.528   1.185 -2.0522  0.2353 -0.2252
  576MOL0     H76032  11.377   6.398   1.376 -2.6065 -0.1071 -1.0398
  577MOL0     O76033   1.932  11.247   8.086 -0.3349 -0.2079  0.4357
  577MOL0     C76034   1.837  11.284   8.156 -0.0119  0.5049  0.4411
  577MOL0     O76035   1.798  11.416   8.170  0.3085  0.6893  0.0947
  577MOL0     C76036   1.825  11.517   8.077  0.0039 -0.4064  0.3977
  577MOL0     C76037   1.872  11.497   7.947  0.0535 -0.4708  0.2269
  577MOL0     C76038   1.898  11.606   7.865 -0.9439  0.6553  0.6916
  577MOL0     C76039   1.874  11.736   7.914  0.1615 -0.9288  0.2755
  577MOL0     O76040   1.879  11.851   7.836  0.2820  0.2122 -0.4784
  577MOL0     C76041   1.979  11.863   7.730  0.1598 -1.4449  0.6823
  577MOL0     C76042   2.058  11.989   7.751 -0.7173 -1.4920 -0.1208
  577MOL0     C76043   2.122  12.001   7.887  0.1735 -0.4364  0.3600
  577MOL0     C76044   2.243  11.904   7.907  1.6105 -0.4588  0.5835
  577MOL0     C76045   2.357  11.927   7.822  0.0937  0.1392  0.9091
  577MOL0     C76046   2.440  11.801   7.814  0.8422 -0.2919 -0.4224
  577MOL0     C76047   2.562  11.807   7.728 -0.3160  0.1357  0.1603
  577MOL0     C76048   2.669  11.907   7.783 -0.4119 -0.1990  0.0609
  577MOL0     N76049   2.795  11.886   7.716 -0.0848  0.2152  0.4912
  577MOL0     C76050   2.845  11.915   7.592 -0.3190 -0.6050 -0.4618
  577MOL0     C76051   2.978  11.916   7.601 -0.4328  0.3661 -0.3685
  577MOL0     C76052   3.085  11.931   7.489  0.4292 -0.7197  0.6819
  577MOL0     C76053   3.065  11.850   7.362  0.2660  0.5281 -0.5452
  577MOL0     C76054   3.075  11.696   7.392  1.1546 -0.3881  0.3781
  577MOL0     C76055   2.968  11.646   7.481 -0.1977  0.3539 -0.7144
  577MOL0     O76056   2.838  11.676   7.427  0.4803  0.6137 -0.0561
  577MOL0     C76057   2.717  11.611   7.463 -0.3232  0.9080  0.6584
  577MOL0     C76058   2.599  11.672   7.407 -0.5697  0.0813 -0.6357
  577MOL0     C76059   2.476  11.624   7.411  0.4989  0.4292  0.4999
  577MOL0     C76060   2.451  11.508   7.489  0.0299 -0.1253 -0.3322
  577MOL0     C76061   2.317  11.458   7.521 -0.0904  0.4223  0.3494
  577MOL0     O76062   2.313  11.330   7.578 -0.0725  0.1206  0.0812
  577MOL0     C76063   2.191  11.271   7.616  0.6016  0.5618  0.4240
  577MOL0     C76064   2.076  11.339   7.650  0.6715  0.3764 -0.1090
  577MOL0     C76065   1.955  11.279   7.688  0.4998 -0.1274  0.7491
  577MOL0     C76066   1.948  11.131   7.675  0.2499 -0.1649  0.6051
  577MOL0     O76067   1.835  11.054   7.699  0.1804 -0.5117  0.3049
  577MOL0     C76068   1.740  11.115   7.792  0.9857  0.9665 -0.3444
  577MOL0     C76069   1.627  11.006   7.805  0.4761 -0.1006  0.6459
  577MOL0     C76070   1.511  11.049   7.904 -0.3962 -0.8730  0.1155
  577MOL0     C76071   1.450  10.921   7.962 -0.5950 -1.4349 -0.6473
  577MOL0     C76072   1.310  10.938   8.032 -0.1871  1.8500  0.3968
  577MOL0     C76073   1.238  10.798   8.045 -0.3752 -0.1874 -0.8972
  577MOL0     C76074   1.095  10.827   8.069  0.3261  0.4158  0.4596
  577MOL0     C76075   1.053  10.758   8.200  0.3665 -0.5000  0.6528
  577MOL0    Cl76076   0.871  10.778   8.245 -0.2193 -0.4473  0.2104
  577MOL0     C76077   2.070  11.056   7.648  0.3594 -0.0317  0.3071
  577MOL0     C76078   2.191  11.131   7.623  1.1764  0.4462 -0.1511
  577MOL0     O76079   2.224  11.531   7.497  0.6878  0.1763 -0.2574
  577MOL0     C76080   2.565  11.447   7.545  0.7959 -0.2468  0.1499
  577MOL0     C76081   2.693  11.492   7.526  0.7126  0.1350 -0.9938
  577MOL0     N76082   3.006  11.879   7.736 -0.7637  0.2934  0.1623
  577MOL0     N76083   2.904  11.875   7.808  1.4379 -0.2477  0.3134
  577MOL0     C76084   1.820  11.759   8.045 -0.3008 -0.1389  0.3780
  577MOL0     C76085   1.799  11.650   8.122  0.5382  0.4741 -0.1713
  577MOL0     C76086   1.760  11.174   8.218  0.6363 -1.1220  0.3466
  577MOL0     C76087   1.623  11.187   8.235  0.1696  0.0519 -1.1233
  577MOL0     C76088   1.552  11.072   8.278  0.4805 -0.3098 -0.8138
  577MOL0     C76089   1.618  10.946   8.292  0.0995 -0.8797  0.1637
  577MOL0     O76090   1.553  10.830   8.317 -0.6292  0.0668 -0.6466
  577MOL0     C76091   1.451  10.832   8.422 -0.1632 -0.0703  0.4150
  577MOL0     C76092   1.456  10.706   8.508 -0.3980 -0.2570 -0.1561
  577MOL0     C76093   1.594  10.667   8.559 -0.0576 -0.0792 -0.1752
  577MOL0     C76094   1.637  10.747   8.677  0.1635 -0.2823  0.5485
  577MOL0     C76095   1.546  10.727   8.789 -0.5113  0.0446  0.2757
  577MOL0     C76096   1.473  10.713   8.885  0.9999  0.0028 -0.2755
  577MOL0     C76097   1.755  10.935   8.281 -0.0263 -0.9344 -1.0581
  577MOL0     C76098   1.819  11.049   8.244 -0.7211  0.1379  0.5445
  577MOL0     H76099   1.892  11.398   7.909 -1.0082 -0.0947 -1.4436
  577MOL0     H76100   1.925  11.589   7.762  2.7403  1.5682  1.3730
  577MOL0     H76101   1.935  11.874   7.631  2.6528  0.6519 -0.2866
  577MOL0     H76102   2.041  11.775   7.711 -0.3173 -1.1801 -2.6653
  577MOL0     H76103   1.990  12.073   7.744 -1.0095 -1.8245 -1.5948
  577MOL0     H76104   2.130  12.004   7.670 -0.3050  1.4180  0.6626
  577MOL0     H76105   2.056  11.984   7.972  1.4175  0.9626  1.6775
  577MOL0     H76106   2.161  12.103   7.884 -1.4639  0.2091 -0.1777
  577MOL0     H76107   2.274  11.914   8.011 -0.4403  1.7594  1.0815
  577MOL0     H76108   2.204  11.803   7.893 -0.2054  0.3747 -0.8338
  577MOL0     H76109   2.425  11.996   7.873  1.0413 -0.2489  0.2092
  577MOL0     H76110   2.324  11.970   7.726  2.2496 -1.7932 -0.8337
  577MOL0     H76111   2.374  11.725   7.773  0.2856  1.6510 -3.4350
  577MOL0     H76112   2.466  11.771   7.916 -1.5245 -0.0507  0.3039
  577MOL0     H76113   2.592  11.702   7.727 -3.9265 -1.0498 -1.9163
  577MOL0     H76114   2.521  11.835   7.631  2.5453 -1.6320 -1.7172
  577MOL0     H76115   2.680  11.900   7.891  0.4232  1.3354  0.0998
  577MOL0     H76116   2.627  12.005   7.759 -0.4178 -1.2038 -5.4450
  577MOL0     H76117   2.779  11.939   7.510  1.0305  1.0933 -1.1186
  577MOL0     H76118   3.179  11.905   7.539  0.4652 -0.6293  0.6631
  577MOL0     H76119   3.080  12.038   7.465 -0.7499 -0.5449  1.6540
  577MOL0     H76120   3.147  11.856   7.290  1.7684 -0.1652  1.0342
  577MOL0     H76121   2.972  11.876   7.310  0.2081 -0.1862 -0.8148
  577MOL0     H76122   3.067  11.643   7.297 -2.2042  1.0818 -0.3074
  577MOL0     H76123   3.178  11.675   7.423  1.6162 -0.7979 -1.3221
  577MOL0     H76124   2.981  11.679   7.585 -1.5515  0.1698 -0.4714
  577MOL0     H76125   2.978  11.537   7.480 -1.3979  0.2300 -0.3580
  577MOL0     H76126   2.603  11.766   7.353 -1.4810  0.6075  0.1730
  577MOL0     H76127   2.389  11.667   7.364  1.4135 -0.1223 -1.8615
  577MOL0     H76128   2.074  11.447   7.662 -3.6250  0.3778  0.9835
  577MOL0     H76129   1.871  11.345   7.707  1.6914  2.6933 -2.6247
  577MOL0     H76130   1.691  11.203   7.749 -1.5680 -1.3608 -2.5841
  577MOL0     H76131   1.777  11.146   7.890 -2.5297 -0.1488  1.5150
  577MOL0     H76132   1.669  10.908   7.829  0.9202  0.1044  0.7175
  577MOL0     H76133   1.592  10.990   7.702  0.3734 -1.9097  0.9294
  577MOL0     H76134   1.432  11.117   7.873  1.1236  1.2647  0.6769
  577MOL0     H76135   1.556  11.112   7.981 -2.5178 -1.2514  1.7483
  577MOL0     H76136   1.432  10.852   7.879 -3.1031 -0.2368 -1.1941
  577MOL0     H76137   1.520  10.869   8.028 -3.8282 -2.1897  2.4998
  577MOL0     H76138   1.249  11.007   7.973 -0.8288 -1.1001 -2.6997
  577MOL0     H76139   1.306  10.986   8.131 -2.8730 -0.7889  1.7216
  577MOL0     H76140   1.279  10.753   8.136 -0.3172 -0.4242 -1.0393
  577MOL0     H76141   1.268  10.729   7.966 -0.3872  0.0750 -1.1310
  577MOL0     H76142   1.069  10.933   8.062 -0.9063  0.0187 -4.0687
  577MOL0     H76143   1.044  10.781   7.984  0.3178 -0.3485  0.8688
  577MOL0     H76144   1.112  10.806   8.279 -0.3856  3.8900 -1.1630
  577MOL0     H76145   1.088  10.654   8.193  0.3555 -0.4442 -0.3568
  577MOL0     H76146   2.087  10.949   7.646  1.1932  0.0804  0.8585
  577MOL0     H76147   2.282  11.082   7.590  0.1732 -0.1002 -2.3006
  577MOL0     H76148   2.539  11.362   7.606 -1.9698  0.0865 -0.3984
  577MOL0     H76149   2.765  11.436   7.585 -0.5401  0.8370  1.3486
  577MOL0     H76150   1.808  11.861   8.080 -1.7755 -0.3128  0.4468
  577MOL0     H76151   1.767  11.666   8.225 -0.2983  1.5489 -0.5704
  577MOL0     H76152   1.578  11.285   8.228  0.6666  0.6354  2.1300
  577MOL0     H76153   1.445  11.071   8.295  0.5108 -0.4958 -0.6305
  577MOL0     H76154   1.351  10.832   8.377 -0.9027  0.6718  1.9789
  577MOL0     H76155   1.452  10.926   8.477  2.1202  1.0865 -1.4385
  577MOL0     H76156   1.387  10.723   8.590 -0.0091 -1.1725  0.3632
  577MOL0     H76157   1.415  10.623   8.451  0.8201 -1.1739  0.2472
  577MOL0     H76158   1.670  10.682   8.482 -1.2891  2.1147 -1.0590
  577MOL0     H76159   1.577  10.561   8.582 -1.9779 -0.0571 -1.2581
  577MOL0     H76160   1.742  10.739   8.706  0.1768  1.9554  1.2833
  577MOL0     H76161   1.637  10.854   8.654  3.0325  0.0095  1.4910
  577MOL0     H76162   1.389  10.705   8.951  0.8857  0.9395 -0.2935
  577MOL0     H76163   1.809  10.843   8.299 -0.9030 -0.8456  2.6948
  577MOL0     H76164   1.924  11.039   8.216 -0.1045  1.8954  2.0255
  578MOL0     O76165   2.585   3.326   0.995 -0.1798 -0.8178  0.4603
  578MOL0     C76166   2.513   3.230   1.021  0.4648  0.4134  0.4671
  578MOL0     O76167   2.559   3.102   1.008  0.2545 -0.5117 -0.4301
  578MOL0     C76168   2.693   3.076   1.001 -0.2451 -1.0775  0.3519
  578MOL0     C76169   2.794   3.159   1.061  1.3022 -0.1713  0.3818
  578MOL0     C76170   2.923   3.121   1.034  0.2270 -0.2315 -0.1189
  578MOL0     C76171   2.961   3.014   0.946  0.1174 -0.0865  0.4677
  578MOL0     O76172   3.094   2.987   0.920  0.3476 -0.8989 -0.2050
  578MOL0     C76173   3.137   3.017   0.796  0.0733  0.6421  0.2672
  578MOL0     C76174   3.169   2.889   0.715 -0.2323 -0.1718  0.0816
  578MOL0     C76175   3.156   2.924   0.563 -0.7212  0.4464  0.0268
  578MOL0     C76176   3.197   2.803   0.480 -0.0359 -0.1298  1.1824
  578MOL0     C76177   3.094   2.692   0.477  0.1772 -0.1175  0.4126
  578MOL0     C76178   2.952   2.740   0.430 -0.7689 -0.2990 -0.8564
  578MOL0     C76179   2.859   2.623   0.423  0.8006 -0.2558  0.8320
  578MOL0     C76180   2.713   2.656   0.376  0.9714  0.6142  0.1210
  578MOL0     N76181   2.698   2.728   0.240  0.6151 -0.5076  0.3173
  578MOL0     C76182   2.585   2.795   0.215 -0.1231 -0.5064  0.7401
  578MOL0     C76183   2.568   2.790   0.083 -0.2655  0.2713  0.4397
  578MOL0     C76184   2.449   2.855   0.017  0.1784  0.0737 -0.0976
  578MOL0     C76185   2.481   2.929  -0.116  1.1969 -0.0678 -0.8431
  578MOL0     C76186   2.584   3.036  -0.093  0.2474  0.4428  0.1924
  578MOL0     C76187   2.604   3.132  -0.212  0.7638  0.0745  0.6879
  578MOL0     O76188   2.624   3.266  -0.162  0.7149 -0.2331  0.4863
  578MOL0     C76189   2.620   3.368  -0.253 -0.1617  0.5319  0.2939
  578MOL0     C76190   2.605   3.367  -0.391  1.0007  1.1642 -0.2901
  578MOL0     C76191   2.615   3.483  -0.468  0.7601  0.5391  0.3219
  578MOL0     C76192   2.629   3.613  -0.412 -0.2396  1.4140  0.7710
  578MOL0     C76193   2.635   3.735  -0.509 -0.5465 -0.3033  0.8366
  578MOL0     O76194   2.637   3.855  -0.453  0.2475  0.7227  0.3461
  578MOL0     C76195   2.651   3.964  -0.535 -0.0208 -0.9948 -0.3615
  578MOL0     C76196   2.765   4.039  -0.513  0.5188  0.6536  0.5577
  578MOL0     C76197   2.787   4.155  -0.585  0.0620  0.2473 -0.4112
  578MOL0     C76198   2.682   4.220  -0.651  0.8565 -0.3632 -0.0337
  578MOL0     O76199   2.706   4.343  -0.712 -0.6455 -0.0686 -0.2337
  578MOL0     C76200   2.689   4.456  -0.631 -0.3376  0.0760  0.2059
  578MOL0     C76201   2.606   4.569  -0.690 -0.1300 -0.4694 -0.1713
  578MOL0     C76202   2.459   4.527  -0.722  0.3700 -0.3493  0.2949
  578MOL0     C76203   2.367   4.468  -0.610 -0.7284 -0.3400  0.9635
  578MOL0     C76204   2.216   4.463  -0.643  0.4175  0.3056  0.6180
  578MOL0     C76205   2.121   4.411  -0.522 -0.4176 -0.5259 -0.0296
  578MOL0     C76206   1.981   4.431  -0.562 -0.0613  1.0168  0.5350
  578MOL0     C76207   1.922   4.302  -0.605  0.6886  0.1905  0.8578
  578MOL0    Cl76208   1.746   4.288  -0.622 -0.4231  0.2286 -0.1870
  578MOL0     C76209   2.557   4.147  -0.663 -0.6332 -0.4044  0.2983
  578MOL0     C76210   2.548   4.018  -0.610  1.4079  0.0529 -0.6056
  578MOL0     O76211   2.648   3.723  -0.634  0.4983 -0.2473  1.1023
  578MOL0     C76212   2.629   3.613  -0.271 -0.3635  0.4690 -0.3486
  578MOL0     C76213   2.639   3.498  -0.199 -0.1421  0.5356 -0.4441
  578MOL0     N76214   2.669   2.716   0.028  0.2451 -0.9712  0.0913
  578MOL0     N76215   2.749   2.672   0.125 -0.7913 -0.3695 -0.1366
  578MOL0     C76216   2.855   2.926   0.907 -0.5594  0.0959 -0.3606
  578MOL0     C76217   2.728   2.955   0.945  0.4316  0.5764  0.4144
  578MOL0     C76218   2.378   3.266   1.066  0.1559  0.5265  0.7469
  578MOL0     C76219   2.329   3.192   1.167  0.7184  0.6443 -1.1003
  578MOL0     C76220   2.196   3.211   1.218 -0.1722 -0.3492  0.1054
  578MOL0     C76221   2.119   3.320   1.151 -0.2056 -0.2237  0.8567
  578MOL0     O76222   1.999   3.366   1.190  0.4089 -0.1725  0.3247
  578MOL0     C76223   1.959   3.317   1.316  0.3451  0.3758  0.3465
  578MOL0     C76224   1.839   3.392   1.363 -0.1221 -0.5882  0.2587
  578MOL0     C76225   1.878   3.506   1.454 -0.2465  0.2292 -0.9986
  578MOL0     C76226   1.762   3.591   1.510  0.7546 -0.7373  1.4107
  578MOL0     C76227   1.724   3.676   1.393 -0.6978  0.9305 -0.1751
  578MOL0     C76228   1.701   3.757   1.309  0.6984  0.2174 -0.4712
  578MOL0     C76229   2.166   3.387   1.036 -1.5984 -0.2165  0.4092
  578MOL0     C76230   2.296   3.358   0.995 -1.0832  0.0658 -0.0054
  578MOL0     H76231   2.773   3.240   1.130  2.1992 -0.5901  1.1562
  578MOL0     H76232   2.999   3.178   1.086  1.3910  0.4103 -2.3890
  578MOL0     H76233   3.219   3.088   0.810 -1.9855  3.6745 -1.5331
  578MOL0     H76234   3.060   3.080   0.748 -0.8800  1.7158  3.0320
  578MOL0     H76235   3.097   2.809   0.731 -0.3294 -0.3561 -1.1556
  578MOL0     H76236   3.264   2.840   0.737  1.1217  0.4617 -3.5389
  578MOL0     H76237   3.219   3.012   0.549  1.4937 -1.2074 -1.1456
  578MOL0     H76238   3.052   2.953   0.553 -1.0770 -0.6580  0.3604
  578MOL0     H76239   3.206   2.841   0.378 -0.4222  3.3551  2.3055
  578MOL0     H76240   3.297   2.771   0.511 -0.7115 -1.6791  1.8378
  578MOL0     H76241   3.075   2.662   0.580 -1.3763 -1.7692 -0.3194
  578MOL0     H76242   3.128   2.612   0.411 -0.0799  2.1439 -2.7248
  578MOL0     H76243   2.950   2.791   0.333 -1.6497 -1.4389 -1.4741
  578MOL0     H76244   2.907   2.804   0.507 -1.1859 -2.2783  0.6227
  578MOL0     H76245   2.892   2.547   0.351  2.0761  1.3621 -0.3751
  578MOL0     H76246   2.848   2.581   0.524  2.5358 -4.7758 -0.6118
  578MOL0     H76247   2.648   2.701   0.451 -1.1398  0.1323 -1.3225
  578MOL0     H76248   2.676   2.554   0.361  2.7859 -0.4446  2.1803
  578MOL0     H76249   2.517   2.841   0.286 -2.5038 -0.8841 -1.1514
  578MOL0     H76250   2.401   2.929   0.081 -1.8309  1.2582 -2.8049
  578MOL0     H76251   2.385   2.772  -0.015 -0.6239  0.9438 -0.8268
  578MOL0     H76252   2.381   2.957  -0.149  0.3602 -1.1055  0.6521
  578MOL0     H76253   2.519   2.852  -0.184 -0.9611 -0.7829 -1.3153
  578MOL0     H76254   2.557   3.092  -0.003  1.6999 -1.0744  1.6421
  578MOL0     H76255   2.685   2.995  -0.087  1.4747  2.8169 -2.0526
  578MOL0     H76256   2.511   3.126  -0.268  0.3981 -1.6582  1.3866
  578MOL0     H76257   2.679   3.115  -0.290  0.5937  0.7065  0.3859
  578MOL0     H76258   2.578   3.272  -0.436 -0.0645  1.3198 -0.0199
  578MOL0     H76259   2.603   3.480  -0.575  0.6518  2.0348  0.2672
  578MOL0     H76260   2.839   3.998  -0.445  0.2588 -0.0295  0.4324
  578MOL0     H76261   2.882   4.208  -0.586  0.1392  0.1200 -1.6041
  578MOL0     H76262   2.794   4.480  -0.612 -0.4809 -0.1401  1.3711
  578MOL0     H76263   2.656   4.421  -0.533 -0.7158  4.6294  1.9365
  578MOL0     H76264   2.657   4.600  -0.781  0.6731  1.7367  0.9385
  578MOL0     H76265   2.601   4.658  -0.626 -1.8842  0.5793 -1.6632
  578MOL0     H76266   2.474   4.447  -0.795  6.9300 -1.4473  2.2597
  578MOL0     H76267   2.407   4.614  -0.764 -0.2284  0.0535  1.8079
  578MOL0     H76268   2.396   4.366  -0.583  1.6594 -0.8924 -2.9218
  578MOL0     H76269   2.376   4.534  -0.523  4.4492 -1.2876  1.4741
  578MOL0     H76270   2.206   4.391  -0.725  3.6756 -0.6280  0.9199
  578MOL0     H76271   2.197   4.555  -0.698  3.6401  0.0264 -1.2245
  578MOL0     H76272   2.144   4.477  -0.437  3.1231 -1.0111 -0.4617
  578MOL0     H76273   2.138   4.309  -0.486  0.6724 -0.3393  0.0037
  578MOL0     H76274   1.922   4.458  -0.473 -0.0068 -0.1495  0.9458
  578MOL0     H76275   1.964   4.499  -0.646  0.0936  1.5284  0.9096
  578MOL0     H76276   1.950   4.227  -0.531  1.4503 -0.3638  0.0194
  578MOL0     H76277   1.972   4.278  -0.698  0.9697  4.4937 -0.3407
  578MOL0     H76278   2.470   4.195  -0.706 -1.7606  0.2569  3.1017
  578MOL0     H76279   2.460   3.958  -0.628  2.9145 -2.5602  0.1961
  578MOL0     H76280   2.636   3.706  -0.215 -1.1165 -1.0423  2.4357
  578MOL0     H76281   2.652   3.493  -0.091 -0.5045 -3.4124 -0.4422
  578MOL0     H76282   2.876   2.837   0.848 -0.4731 -0.3048  0.2702
  578MOL0     H76283   2.652   2.880   0.925  1.8264 -0.3823 -1.5828
  578MOL0     H76284   2.380   3.114   1.224 -1.5853  1.5638  2.5881
  578MOL0     H76285   2.165   3.165   1.311  0.1352  0.7279  0.7641
  578MOL0     H76286   2.041   3.329   1.388 -1.8140 -2.9106  3.7273
  578MOL0     H76287   1.930   3.212   1.311  1.0239  0.1859  0.1990
  578MOL0     H76288   1.786   3.421   1.272  0.1728  0.3456  0.3688
  578MOL0     H76289   1.766   3.333   1.419  0.1023  0.0283  1.2291
  578MOL0     H76290   1.945   3.573   1.399 -0.0364  0.5003 -0.4187
  578MOL0     H76291   1.923   3.472   1.548 -1.2072  0.0716 -0.5809
  578MOL0     H76292   1.677   3.532   1.544 -0.0953 -0.0011  0.6264
  578MOL0     H76293   1.797   3.658   1.589 -1.4719 -1.4516  3.1275
  578MOL0     H76294   1.664   3.808   1.223 -1.8767 -0.0222  0.4150
  578MOL0     H76295   2.108   3.467   0.991 -0.2956  1.1741  1.1241
  578MOL0     H76296   2.338   3.423   0.919 -0.2146 -0.9135 -0.3876
  579MOL0     O76297   3.783   4.247   3.978  0.6381  0.2175  0.3931
  579MOL0     C76298   3.833   4.230   4.087 -0.7169  0.0397  0.9306
  579MOL0     O76299   3.959   4.189   4.111 -0.0222  0.5332  0.4581
  579MOL0     C76300   4.014   4.084   4.039 -0.4512  1.2809  0.5306
  579MOL0     C76301   4.112   4.011   4.108  0.9255 -1.4692  0.2853
  579MOL0     C76302   4.177   3.897   4.051  0.5492 -1.1515 -0.0151
  579MOL0     C76303   4.140   3.859   3.921  0.1638  0.6729 -0.1048
  579MOL0     O76304   4.172   3.738   3.866  0.4573 -0.4206  0.0643
  579MOL0     C76305   4.309   3.722   3.854 -0.1363 -0.1047  0.3608
  579MOL0     C76306   4.337   3.593   3.774  0.4404 -0.1890 -0.1817
  579MOL0     C76307   4.324   3.635   3.623  0.3486  0.6649  0.6312
  579MOL0     C76308   4.381   3.527   3.538 -0.9203  0.4454  0.0714
  579MOL0     C76309   4.393   3.550   3.389  0.1950  0.3234  0.4216
  579MOL0     C76310   4.493   3.650   3.338 -0.1631  0.4035 -0.1257
  579MOL0     C76311   4.516   3.627   3.187 -1.1818 -0.5186  0.0154
  579MOL0     C76312   4.664   3.654   3.147 -0.4915 -0.0204 -0.5774
  579MOL0     N76313   4.663   3.665   3.003 -1.3024 -0.3686  0.4749
  579MOL0     C76314   4.639   3.570   2.920 -0.3867  0.4516 -0.6019
  579MOL0     C76315   4.631   3.631   2.800 -0.3715  0.2088  0.1619
  579MOL0     C76316   4.617   3.566   2.666  0.5493  0.1407  0.2820
  579MOL0     C76317   4.471   3.544   2.628 -1.0790 -0.0186  0.9359
  579MOL0     C76318   4.468   3.484   2.491 -0.4562 -0.6245 -0.8968
  579MOL0     C76319   4.334   3.489   2.427 -0.0585  0.0423 -0.2223
  579MOL0     O76320   4.227   3.442   2.516 -0.6499  0.0904 -0.4360
  579MOL0     C76321   4.093   3.442   2.493 -0.4079  0.5077  0.1095
  579MOL0     C76322   4.000   3.393   2.583 -0.3225  0.8711 -0.3484
  579MOL0     C76323   3.856   3.397   2.556 -0.5695 -0.8120 -1.1844
  579MOL0     C76324   3.813   3.471   2.444  0.3964 -0.3624  0.3002
  579MOL0     C76325   3.664   3.498   2.420 -0.7431  0.1131 -0.2830
  579MOL0     O76326   3.573   3.416   2.501  0.1308  0.6798  0.0294
  579MOL0     C76327   3.451   3.378   2.449  0.3103 -0.0318 -0.4442
  579MOL0     C76328   3.414   3.250   2.444  0.2906  0.4695  0.1537
  579MOL0     C76329   3.286   3.220   2.421  0.4250  0.7624  0.2593
  579MOL0     C76330   3.191   3.305   2.378  0.6230 -0.6819 -0.8225
  579MOL0     O76331   3.062   3.249   2.362 -0.1756  0.2489  0.0782
  579MOL0     C76332   2.963   3.319   2.441 -0.0533 -0.2304 -0.2877
  579MOL0     C76333   2.871   3.200   2.495 -0.5187  0.7864 -0.4768
  579MOL0     C76334   2.935   3.085   2.563  0.4164 -0.8121 -1.3951
  579MOL0     C76335   2.978   3.126   2.704  0.2967  0.0444  0.5031
  579MOL0     C76336   3.058   3.020   2.790  0.1524 -0.6563 -0.1359
  579MOL0     C76337   3.080   3.061   2.933 -0.7859 -0.0968  0.2181
  579MOL0     C76338   3.130   2.974   3.037 -0.3926  0.1385  0.0863
  579MOL0     C76339   3.250   2.884   3.001 -0.0447  0.1363  0.1818
  579MOL0    Cl76340   3.327   2.825   3.153 -0.2108  0.2711  0.1186
  579MOL0     C76341   3.225   3.442   2.370 -0.1323  0.5171  0.9130
  579MOL0     C76342   3.357   3.478   2.409  0.6070  0.1248 -0.3748
  579MOL0     O76343   3.629   3.576   2.328 -0.9184 -0.6292  0.1001
  579MOL0     C76344   3.912   3.540   2.368  0.1179  0.3616  0.1324
  579MOL0     C76345   4.046   3.515   2.385  0.3579  0.0491  0.4260
  579MOL0     N76346   4.643   3.771   2.812 -0.7217  0.4352  0.1070
  579MOL0     N76347   4.658   3.788   2.936 -0.6221  0.0340  0.1690
  579MOL0     C76348   4.047   3.933   3.845 -0.6341  0.3689  0.2927
  579MOL0     C76349   3.985   4.043   3.911  0.2558  0.0273  0.7342
  579MOL0     C76350   3.766   4.288   4.201  0.1035  0.5650 -1.4221
  579MOL0     C76351   3.668   4.380   4.172 -0.1229 -0.3113  1.0324
  579MOL0     C76352   3.580   4.422   4.260 -1.3857  0.2052 -0.3088
  579MOL0     C76353   3.600   4.405   4.399  0.4563  0.9301  0.0312
  579MOL0     O76354   3.532   4.486   4.492 -0.2435 -0.1103 -0.8270
  579MOL0     C76355   3.499   4.442   4.627  0.1872  0.4068  0.0918
  579MOL0     C76356   3.394   4.535   4.676 -0.1570  0.5303  0.2547
  579MOL0     C76357   3.253   4.530   4.600 -0.9279  0.1784  1.5240
  579MOL0     C76358   3.184   4.391   4.594  0.2461  0.1346 -0.7099
  579MOL0     C76359   3.155   4.347   4.731  0.4377  0.0351 -0.5444
  579MOL0     C76360   3.107   4.318   4.839  1.3649 -0.0182 -0.8516
  579MOL0     C76361   3.707   4.314   4.432  0.0069 -0.1025 -0.2081
  579MOL0     C76362   3.793   4.258   4.342 -0.1359  0.0915 -0.1030
  579MOL0     H76363   4.146   4.049   4.203 -0.5577 -2.4018  1.2205
  579MOL0     H76364   4.238   3.844   4.124  0.0426  1.5514  2.5686
  579MOL0     H76365   4.360   3.710   3.950  1.2139  0.0883 -0.3003
  579MOL0     H76366   4.358   3.810   3.809  1.0192 -1.5041 -1.2760
  579MOL0     H76367   4.262   3.520   3.805 -0.1256 -0.2202 -1.5210
  579MOL0     H76368   4.436   3.549   3.792  0.0892 -0.6741  0.5974
  579MOL0     H76369   4.387   3.724   3.610  0.2215  0.5899 -0.5831
  579MOL0     H76370   4.219   3.652   3.594 -0.2551  1.8717  3.1697
  579MOL0     H76371   4.483   3.505   3.571 -0.2590 -1.5875 -2.9211
  579MOL0     H76372   4.321   3.436   3.547  0.8996 -0.7291  0.9933
  579MOL0     H76373   4.304   3.601   3.351  1.6836  0.8750 -2.6425
  579MOL0     H76374   4.409   3.454   3.340 -4.1902 -0.4412  0.1353
  579MOL0     H76375   4.585   3.625   3.392  1.5800  2.7943 -1.7781
  579MOL0     H76376   4.475   3.756   3.357  0.7244  0.5923 -0.2648
  579MOL0     H76377   4.486   3.526   3.157  0.8194 -0.9912 -0.5362
  579MOL0     H76378   4.442   3.693   3.140 -1.1163 -1.3958 -1.3649
  579MOL0     H76379   4.733   3.574   3.177  1.1243  1.2763 -0.7387
  579MOL0     H76380   4.707   3.747   3.185 -0.2469  0.8087 -2.7747
  579MOL0     H76381   4.639   3.465   2.949  1.8201  0.4701 -0.3097
  579MOL0     H76382   4.660   3.466   2.680 -2.9661 -1.3895  1.4113
  579MOL0     H76383   4.664   3.625   2.587 -0.6107  0.6864 -0.0185
  579MOL0     H76384   4.417   3.638   2.633  1.4993  1.5142  2.3259
  579MOL0     H76385   4.423   3.472   2.695 -1.4574 -1.6748 -0.9968
  579MOL0     H76386   4.539   3.541   2.429 -1.9731  1.9790 -0.3977
  579MOL0     H76387   4.515   3.386   2.500  1.3045  0.2047 -0.4373
  579MOL0     H76388   4.329   3.425   2.338  0.2435  0.3005 -0.4261
  579MOL0     H76389   4.312   3.591   2.392  1.0080 -1.1093 -5.0068
  579MOL0     H76390   4.039   3.326   2.658 -1.0767  0.6307 -0.1549
  579MOL0     H76391   3.793   3.355   2.633 -1.6132  3.1522  0.3572
  579MOL0     H76392   3.492   3.179   2.470 -0.0875 -0.2504 -0.6194
  579MOL0     H76393   3.264   3.114   2.411  3.0956  0.0885  0.4740
  579MOL0     H76394   2.904   3.401   2.398  1.3082  1.3758  0.7691
  579MOL0     H76395   3.011   3.364   2.528 -0.8550 -1.5283  0.8582
  579MOL0     H76396   2.818   3.163   2.407 -0.2350 -1.9226  0.4180
  579MOL0     H76397   2.795   3.244   2.560  0.0233 -0.6847  1.2153
  579MOL0     H76398   3.029   3.065   2.511  2.6500  1.4734  1.4781
  579MOL0     H76399   2.856   3.010   2.573 -0.4218  0.2222  0.0478
  579MOL0     H76400   3.051   3.207   2.707  0.6340 -0.2650  0.7242
  579MOL0     H76401   2.890   3.161   2.759 -1.1937 -3.9731  1.0174
  579MOL0     H76402   3.151   3.004   2.735  0.8428  0.6573  0.5963
  579MOL0     H76403   3.004   2.926   2.803 -1.3740  0.3206  0.9732
  579MOL0     H76404   2.985   3.093   2.978 -0.5257  0.0781  0.6481
  579MOL0     H76405   3.149   3.144   2.915 -3.5274  1.6651 -3.5007
  579MOL0     H76406   3.144   3.034   3.127  0.5529  0.9515 -0.5710
  579MOL0     H76407   3.049   2.907   3.066  1.5535 -2.3608  0.0735
  579MOL0     H76408   3.312   2.938   2.930 -0.5871 -1.0214 -1.2189
  579MOL0     H76409   3.223   2.791   2.951 -0.1331 -2.1032  3.9619
  579MOL0     H76410   3.148   3.514   2.349  0.2632  1.8853  3.6530
  579MOL0     H76411   3.379   3.583   2.425 -1.6768  0.3302  2.2001
  579MOL0     H76412   3.874   3.613   2.297 -4.1530 -0.4303  1.2834
  579MOL0     H76413   4.100   3.566   2.306 -1.1926  3.2219  1.2361
  579MOL0     H76414   3.992   3.872   3.774 -0.4117 -0.8963  1.1664
  579MOL0     H76415   3.908   4.095   3.855 -0.5565  1.0886  2.7254
  579MOL0     H76416   3.657   4.422   4.073  2.0682  1.8103  1.5927
  579MOL0     H76417   3.485   4.470   4.240 -1.5370  0.7850  1.5596
  579MOL0     H76418   3.590   4.453   4.687 -0.2340 -2.1975  1.3446
  579MOL0     H76419   3.471   4.337   4.619  0.0295  0.5812 -3.8531
  579MOL0     H76420   3.367   4.511   4.779 -0.8737 -0.9485 -0.2489
  579MOL0     H76421   3.426   4.639   4.661 -1.1263  0.4340 -3.5765
  579MOL0     H76422   3.272   4.559   4.496  3.3610 -1.0532  1.7801
  579MOL0     H76423   3.187   4.604   4.646  0.0304  0.2911  2.7842
  579MOL0     H76424   3.090   4.403   4.540 -1.8014 -2.6217  1.8871
  579MOL0     H76425   3.249   4.327   4.534  1.2678  1.1809 -0.7358
  579MOL0     H76426   3.064   4.297   4.935  2.6403  1.4436  0.0785
  579MOL0     H76427   3.721   4.296   4.538  0.7112  3.5893  0.4785
  579MOL0     H76428   3.866   4.178   4.352 -2.1254 -1.6134  1.9091
  580MOL0     O76429   4.242   4.969   3.961 -0.3636 -0.2544 -0.6147
  580MOL0     C76430   4.153   4.888   3.982 -0.1529 -1.0410 -0.0489
  580MOL0     O76431   4.027   4.925   4.003  0.2880 -0.2469  0.0453
  580MOL0     C76432   3.998   5.055   3.996 -0.4975  0.1999  0.5534
  580MOL0     C76433   4.018   5.130   4.115  0.7264  0.5083  0.0064
  580MOL0     C76434   3.973   5.266   4.119 -0.3894 -0.2597  0.0949
  580MOL0     C76435   3.905   5.318   4.007  0.1531 -0.0936 -0.2156
  580MOL0     O76436   3.862   5.449   4.025  0.0473 -0.6782  0.8096
  580MOL0     C76437   3.821   5.519   3.908  0.7168 -0.3249 -0.7974
  580MOL0     C76438   3.760   5.653   3.949 -0.8500  0.3648 -0.2024
  580MOL0     C76439   3.633   5.638   4.035  0.2912  0.4450 -0.3721
  580MOL0     C76440   3.548   5.766   4.039  0.0136  1.1927  0.3348
  580MOL0     C76441   3.416   5.746   4.105  0.3072  0.8442 -0.4950
  580MOL0     C76442   3.335   5.875   4.128 -1.1429  0.3739 -0.5233
  580MOL0     C76443   3.219   5.864   4.216  0.7008  0.5825 -0.1529
  580MOL0     C76444   3.117   5.764   4.157 -0.3167 -0.6749 -0.0584
  580MOL0     N76445   2.984   5.780   4.209  0.3483 -0.2546  0.0085
  580MOL0     C76446   2.894   5.680   4.244  0.8807  1.1597  0.0677
  580MOL0     C76447   2.774   5.744   4.271 -0.3368 -0.0779 -0.9040
  580MOL0     C76448   2.632   5.706   4.303 -0.2770 -0.7584 -0.5218
  580MOL0     C76449   2.632   5.561   4.353 -0.6338  0.7814  0.6560
  580MOL0     C76450   2.498   5.512   4.401  0.2249  0.2830  0.3774
  580MOL0     C76451   2.482   5.356   4.405  0.0582  0.0669  0.5025
  580MOL0     O76452   2.550   5.316   4.527  0.7523 -0.0419 -0.1285
  580MOL0     C76453   2.492   5.335   4.651  0.5893  0.8105  0.6212
  580MOL0     C76454   2.572   5.274   4.753 -0.2318 -0.4323 -1.0337
  580MOL0     C76455   2.530   5.269   4.881 -0.0529  0.5419  0.7647
  580MOL0     C76456   2.408   5.330   4.917  0.5960 -0.2782 -0.0405
  580MOL0     C76457   2.383   5.337   5.062 -0.4824 -1.1445  0.6417
  580MOL0     O76458   2.460   5.269   5.136  0.2316  0.0260  0.0786
  580MOL0     C76459   2.442   5.252   5.278 -0.0048  0.2246 -1.2886
  580MOL0     C76460   2.379   5.139   5.336 -0.1739  0.8572  0.1127
  580MOL0     C76461   2.333   5.150   5.470 -0.1119 -0.4854 -0.1217
  580MOL0     C76462   2.366   5.257   5.555 -0.1748 -0.2140 -0.2136
  580MOL0     O76463   2.331   5.264   5.687  0.5307  0.3698 -0.4206
  580MOL0     C76464   2.266   5.157   5.756 -0.5540  0.0926  0.3696
  580MOL0     C76465   2.291   5.147   5.911 -0.2012 -0.0536  0.3047
  580MOL0     C76466   2.188   5.064   5.978  0.8849  0.1383  0.6887
  580MOL0     C76467   2.227   5.056   6.125 -0.1383 -1.4503  0.6133
  580MOL0     C76468   2.155   4.938   6.193 -0.0556 -0.4893  0.6748
  580MOL0     C76469   2.172   4.914   6.337 -0.1964  0.4124 -0.0229
  580MOL0     C76470   2.128   5.029   6.425 -0.2103  0.8974  1.4134
  580MOL0     C76471   2.106   4.971   6.559 -0.8987 -0.6595 -0.5455
  580MOL0    Cl76472   2.158   5.097   6.678 -0.0713 -0.2503  0.2539
  580MOL0     C76473   2.443   5.359   5.493  1.0889  0.3863 -0.5591
  580MOL0     C76474   2.477   5.357   5.360  0.3469  0.1379  0.7005
  580MOL0     O76475   2.290   5.412   5.105 -1.0904 -0.2446 -0.2807
  580MOL0     C76476   2.330   5.404   4.819 -0.4287  0.7773 -0.0728
  580MOL0     C76477   2.377   5.401   4.687 -0.5024  0.2181  0.7717
  580MOL0     N76478   2.801   5.882   4.267 -0.1611 -0.6083  0.0848
  580MOL0     N76479   2.921   5.898   4.221 -0.3414  0.1294  0.4564
  580MOL0     C76480   3.881   5.236   3.892 -0.3498  0.0851  0.7113
  580MOL0     C76481   3.936   5.110   3.884  0.3864  0.9743  0.0340
  580MOL0     C76482   4.187   4.747   3.965 -0.2074 -0.5845 -0.2438
  580MOL0     C76483   4.096   4.648   4.004 -0.1654  0.0148  1.0254
  580MOL0     C76484   4.137   4.516   3.991 -0.2544 -0.9404 -0.6057
  580MOL0     C76485   4.257   4.481   3.943  0.8480  0.6329  0.9576
  580MOL0     O76486   4.292   4.347   3.938 -0.0094 -0.2240 -0.4014
  580MOL0     C76487   4.387   4.308   3.840 -0.4908  0.8684 -0.7404
  580MOL0     C76488   4.348   4.167   3.807  0.0453 -0.9426 -0.1264
  580MOL0     C76489   4.381   4.115   3.662 -0.3107  0.1935  0.7978
  580MOL0     C76490   4.529   4.120   3.618  0.0929 -0.5194 -1.1140
  580MOL0     C76491   4.557   4.259   3.577  0.5345 -0.0056  1.0512
  580MOL0     C76492   4.593   4.373   3.551  0.2652 -0.0867 -0.7890
  580MOL0     C76493   4.344   4.575   3.904 -0.9043  0.9276 -0.2157
  580MOL0     C76494   4.305   4.707   3.904 -1.3123  0.7481 -0.2482
  580MOL0     H76495   4.069   5.073   4.193  0.2424  0.4086  0.2546
  580MOL0     H76496   3.978   5.331   4.207  1.5412  3.1916 -2.3115
  580MOL0     H76497   3.737   5.467   3.861 -0.5825  0.4228  0.6218
  580MOL0     H76498   3.904   5.526   3.836  0.5730  2.7307 -0.8205
  580MOL0     H76499   3.731   5.706   3.858 -1.1960 -1.4638 -1.2085
  580MOL0     H76500   3.834   5.704   4.012 -0.2864 -1.8604  1.0484
  580MOL0     H76501   3.676   5.619   4.134  2.5214  1.2146 -1.1264
  580MOL0     H76502   3.571   5.551   4.013  2.1727 -0.8767 -0.6360
  580MOL0     H76503   3.603   5.846   4.089 -1.0516  1.3940  1.2454
  580MOL0     H76504   3.549   5.806   3.938  5.8572  3.5877  0.9396
  580MOL0     H76505   3.437   5.699   4.201 -3.4538 -0.5603 -0.1677
  580MOL0     H76506   3.351   5.681   4.045  0.9404  1.9284 -2.4371
  580MOL0     H76507   3.295   5.905   4.031 -2.7144 -4.6928 -1.7313
  580MOL0     H76508   3.390   5.963   4.164  1.2722 -1.1747 -0.2257
  580MOL0     H76509   3.248   5.840   4.319  3.8783  1.0045 -0.8467
  580MOL0     H76510   3.175   5.963   4.232  0.1163  0.8780 -3.0337
  580MOL0     H76511   3.149   5.665   4.191  1.8198  0.1938  0.6532
  580MOL0     H76512   3.120   5.787   4.050 -0.0527  2.4195  0.4986
  580MOL0     H76513   2.917   5.574   4.242  1.7199  1.2301  2.3155
  580MOL0     H76514   2.561   5.727   4.223  0.3562  1.1813 -0.6236
  580MOL0     H76515   2.611   5.773   4.386  1.6704  1.8793 -2.0123
  580MOL0     H76516   2.716   5.553   4.423 -0.7436  1.7427  0.9076
  580MOL0     H76517   2.667   5.502   4.268 -1.7610  1.8482 -0.5771
  580MOL0     H76518   2.485   5.552   4.502 -2.0541 -0.6578  0.5160
  580MOL0     H76519   2.415   5.566   4.356  0.2470  1.0056  1.1777
  580MOL0     H76520   2.531   5.321   4.314 -1.4870 -1.0363  0.0426
  580MOL0     H76521   2.374   5.335   4.408  0.0846 -0.0668  0.4924
  580MOL0     H76522   2.658   5.213   4.727 -0.3868 -2.0923  1.9182
  580MOL0     H76523   2.594   5.213   4.949  1.9988 -3.2096 -3.6862
  580MOL0     H76524   2.344   5.054   5.279 -1.6663  1.9290 -0.6415
  580MOL0     H76525   2.281   5.065   5.514  0.8108 -1.6711 -1.2274
  580MOL0     H76526   2.298   5.061   5.714  2.1082  1.1502 -0.2241
  580MOL0     H76527   2.158   5.168   5.747 -0.3931  0.2897 -2.0204
  580MOL0     H76528   2.288   5.244   5.961  0.9107 -1.0149  2.3479
  580MOL0     H76529   2.392   5.104   5.919 -0.0870  0.2968  0.8281
  580MOL0     H76530   2.183   4.962   5.939  4.4675  1.1107 -2.9723
  580MOL0     H76531   2.087   5.105   5.970 -0.3594 -2.8683 -0.3419
  580MOL0     H76532   2.336   5.047   6.131  0.6993  4.0144 -0.9729
  580MOL0     H76533   2.190   5.144   6.179  2.8955 -1.3452  2.7890
  580MOL0     H76534   2.187   4.845   6.146  2.3245 -0.2272  1.6785
  580MOL0     H76535   2.047   4.941   6.173  0.4889  2.2819 -2.8685
  580MOL0     H76536   2.277   4.892   6.359  0.8005  3.0477 -1.6391
  580MOL0     H76537   2.116   4.820   6.346  1.1274 -0.7142 -2.3968
  580MOL0     H76538   2.203   5.107   6.410  0.2888  0.0584 -0.8343
  580MOL0     H76539   2.033   5.072   6.390  0.5433 -0.6838 -3.2805
  580MOL0     H76540   2.167   4.882   6.574  3.2261  1.9452 -0.4737
  580MOL0     H76541   2.004   4.930   6.562 -0.0842 -2.8493 -0.8908
  580MOL0     H76542   2.452   5.440   5.565 -1.9704 -0.1093  0.5528
  580MOL0     H76543   2.531   5.446   5.328 -1.2443  0.8476 -0.1363
  580MOL0     H76544   2.248   5.466   4.855  1.0691  2.1172  1.1487
  580MOL0     H76545   2.320   5.446   4.607 -1.4085 -1.9660  0.1269
  580MOL0     H76546   3.823   5.272   3.807 -0.2337  1.6681  1.2676
  580MOL0     H76547   3.918   5.043   3.801  0.4445 -0.8207  1.4017
  580MOL0     H76548   3.996   4.670   4.039 -2.1383 -4.4799 -0.9811
  580MOL0     H76549   4.062   4.444   4.024 -3.5220  2.5424  0.2398
  580MOL0     H76550   4.489   4.308   3.879 -0.7098  2.8723 -0.0597
  580MOL0     H76551   4.371   4.367   3.749 -0.9364 -0.0933 -1.3121
  580MOL0     H76552   4.415   4.111   3.872  3.1591  0.1367 -2.1549
  580MOL0     H76553   4.242   4.153   3.828 -1.1832  4.6214 -1.1009
  580MOL0     H76554   4.326   4.150   3.574  3.6098 -0.6614 -2.2956
  580MOL0     H76555   4.358   4.008   3.666  1.2613 -0.3092 -1.6070
  580MOL0     H76556   4.591   4.094   3.704 -2.8846  1.6304  1.9203
  580MOL0     H76557   4.553   4.054   3.533  1.0930 -3.1087  1.0357
  580MOL0     H76558   4.614   4.475   3.526  3.6623 -0.4996 -0.1177
  580MOL0     H76559   4.441   4.561   3.856 -0.9897  2.8613 -1.0576
  580MOL0     H76560   4.366   4.786   3.861  0.2766  0.1614  0.8177
  581MOL0     O76561   8.600   4.874  10.349 -0.3753 -0.4978 -0.4468
  581MOL0     C76562   8.655   4.839  10.455 -1.0876 -0.8202 -1.2716
  581MOL0     O76563   8.779   4.765  10.457  0.6265  0.0117  0.0038
  581MOL0     C76564   8.811   4.719  10.333 -0.4709 -1.3651 -0.5939
  581MOL0     C76565   8.874   4.810  10.242 -0.5136  0.1523  0.7863
  581MOL0     C76566   8.902   4.765  10.120 -0.5076 -0.6293 -0.0998
  581MOL0     C76567   8.880   4.640  10.075  0.9795 -0.1464 -0.7279
  581MOL0     O76568   8.907   4.580   9.954 -0.1382 -0.3775  0.6150
  581MOL0     C76569   9.014   4.648   9.886 -0.5559 -0.2129 -0.0706
  581MOL0     C76570   9.054   4.573   9.756  0.0906 -0.4396  1.2403
  581MOL0     C76571   9.196   4.608   9.705  0.5439  1.0505  0.3789
  581MOL0     C76572   9.239   4.528   9.574  0.0268 -0.5443 -0.3469
  581MOL0     C76573   9.157   4.556   9.444  0.1084  0.4327  1.1613
  581MOL0     C76574   9.213   4.475   9.330  0.1738  0.3467 -0.2494
  581MOL0     C76575   9.318   4.544   9.231  1.1337  0.1978 -0.2673
  581MOL0     C76576   9.443   4.581   9.297 -0.9918 -0.4980 -1.1447
  581MOL0     N76577   9.553   4.574   9.196  0.8610 -0.0588 -0.2125
  581MOL0     C76578   9.545   4.589   9.057  0.3174 -0.3174  0.3093
  581MOL0     C76579   9.675   4.580   9.015 -0.3112 -0.0791 -0.1186
  581MOL0     C76580   9.725   4.607   8.874 -0.2792 -0.4572  0.3190
  581MOL0     C76581   9.867   4.669   8.860  0.1931 -1.3374  0.3155
  581MOL0     C76582   9.882   4.817   8.896  0.9585  0.1473  0.1756
  581MOL0     C76583   9.816   4.917   8.813 -0.6655  1.1543  0.0390
  581MOL0     O76584   9.675   4.908   8.838 -0.4377 -0.7436 -0.4624
  581MOL0     C76585   9.618   4.952   8.953 -0.0181 -0.1698  0.3440
  581MOL0     C76586   9.496   4.904   8.976  0.3715  1.1262 -0.0500
  581MOL0     C76587   9.418   4.915   9.087 -0.5306 -0.5384 -0.2017
  581MOL0     C76588   9.475   4.996   9.192  0.4750  0.4400 -0.1676
  581MOL0     C76589   9.400   5.019   9.318  0.2836 -0.9717 -0.9695
  581MOL0     O76590   9.452   5.125   9.402  0.6869  0.2145 -0.8210
  581MOL0     C76591   9.411   5.133   9.537 -0.8142 -0.1991  0.7058
  581MOL0     C76592   9.396   5.017   9.620  0.2990  0.5703  0.3758
  581MOL0     C76593   9.382   5.029   9.758 -0.3492  0.1589  0.4052
  581MOL0     C76594   9.352   5.151   9.818 -0.3886 -0.3264  0.3824
  581MOL0     O76595   9.327   5.148   9.958 -0.1540  0.0261 -0.1135
  581MOL0     C76596   9.273   5.264  10.031 -0.2440  0.9231 -0.2158
  581MOL0     C76597   9.165   5.230  10.131 -0.2381 -0.2800  0.3254
  581MOL0     C76598   9.129   5.353  10.217  0.5312 -0.3165 -0.3040
  581MOL0     C76599   9.061   5.466  10.142  0.3456 -0.2441 -0.1525
  581MOL0     C76600   8.994   5.570  10.241 -0.2761  0.0210 -0.2415
  581MOL0     C76601   8.961   5.700  10.169 -0.1582 -0.7418 -0.1219
  581MOL0     C76602   8.913   5.822  10.262 -0.0479  1.1339  0.4552
  581MOL0     C76603   8.780   5.793  10.325  0.0261 -0.5358 -0.3390
  581MOL0    Cl76604   8.681   5.941  10.327 -0.4784 -0.0096 -0.1133
  581MOL0     C76605   9.363   5.269   9.743  0.6886 -0.3183  0.4932
  581MOL0     C76606   9.410   5.259   9.612  0.2481 -0.4570 -0.2437
  581MOL0     O76607   9.304   4.949   9.342 -0.5471  0.4081  0.3185
  581MOL0     C76608   9.606   5.051   9.181 -0.6791 -0.3979  0.0374
  581MOL0     C76609   9.672   5.026   9.058 -0.2203  0.2721  0.0293
  581MOL0     N76610   9.751   4.547   9.126 -0.3684  0.3869 -0.1137
  581MOL0     N76611   9.675   4.540   9.232 -0.6111  0.7248 -0.1958
  581MOL0     C76612   8.823   4.549  10.168 -0.3079 -0.0433 -0.0518
  581MOL0     C76613   8.790   4.591  10.292  0.7010 -1.4654 -0.3830
  581MOL0     C76614   8.597   4.880  10.579  0.3381 -0.7712 -0.5400
  581MOL0     C76615   8.509   4.997  10.588  0.2552 -0.1567 -0.3410
  581MOL0     C76616   8.449   5.039  10.714  0.3770  0.1926 -0.4840
  581MOL0     C76617   8.475   4.965  10.830  0.9318 -0.7923 -0.4737
  581MOL0     O76618   8.435   5.016  10.954  0.5374  0.1028 -0.4588
  581MOL0     C76619   8.311   5.089  10.963  0.2697  0.1678 -0.2255
  581MOL0     C76620   8.342   5.235  10.981 -0.3123 -0.5783 -0.4108
  581MOL0     C76621   8.454   5.255  11.084 -0.1613  0.8129 -0.3626
  581MOL0     C76622   8.440   5.404  11.130  1.3504 -0.4030  0.8422
  581MOL0     C76623   8.549   5.450  11.220  0.2808  0.9471 -0.1922
  581MOL0     C76624   8.633   5.477  11.299  0.0879  0.2878 -1.0054
  581MOL0     C76625   8.566   4.864  10.830 -0.3072 -0.4524  0.9898
  581MOL0     C76626   8.635   4.828  10.708  0.7690 -0.6208  0.5419
  581MOL0     H76627   8.885   4.915  10.264  0.7338 -0.4201  3.2963
  581MOL0     H76628   8.947   4.831  10.046  1.6265 -1.1332  0.6917
  581MOL0     H76629   9.099   4.662   9.953 -1.2653 -1.5155  1.1398
  581MOL0     H76630   8.968   4.738   9.844 -0.5795  0.3095  1.0206
  581MOL0     H76631   8.975   4.604   9.686  0.0336  0.4174  1.6786
  581MOL0     H76632   9.045   4.465   9.776  2.5242 -0.9679 -0.1471
  581MOL0     H76633   9.263   4.575   9.785 -0.6812  1.9086  1.8316
  581MOL0     H76634   9.201   4.715   9.681 -1.4208  1.1048  0.0206
  581MOL0     H76635   9.345   4.552   9.560 -0.7624  4.6040  0.2053
  581MOL0     H76636   9.235   4.420   9.586  1.7370 -0.4007  2.4458
  581MOL0     H76637   9.168   4.664   9.430 -2.1148  0.4448 -1.0131
  581MOL0     H76638   9.054   4.533   9.472 -0.9632  2.7206 -0.5403
  581MOL0     H76639   9.125   4.440   9.275  0.6144 -2.6041  0.7295
  581MOL0     H76640   9.242   4.375   9.364  0.0282 -0.0689 -1.3175
  581MOL0     H76641   9.331   4.476   9.146  0.8882  0.8496 -0.8366
  581MOL0     H76642   9.275   4.635   9.187 -0.0109  0.0321  0.4600
  581MOL0     H76643   9.470   4.516   9.381 -0.2509  1.0878 -0.1160
  581MOL0     H76644   9.445   4.680   9.343 -1.3583  0.8978 -3.8823
  581MOL0     H76645   9.456   4.614   9.000  0.1937  2.6406  1.6322
  581MOL0     H76646   9.656   4.678   8.829  0.4879 -1.4161 -2.5972
  581MOL0     H76647   9.715   4.517   8.812 -1.4403  1.3044 -2.2273
  581MOL0     H76648   9.894   4.658   8.755 -2.1883  1.6541 -0.7841
  581MOL0     H76649   9.928   4.602   8.921  1.0434 -0.8612 -0.0013
  581MOL0     H76650   9.852   4.833   9.000 -3.3267 -2.1981 -0.4419
  581MOL0     H76651   9.985   4.853   8.887  0.0030  2.7741 -1.5153
  581MOL0     H76652   9.840   4.898   8.708 -1.3104  0.7071 -0.0363
  581MOL0     H76653   9.861   5.012   8.843  1.5593 -0.3847  1.8942
  581MOL0     H76654   9.443   4.849   8.899 -2.3186  2.6388  0.5975
  581MOL0     H76655   9.312   4.890   9.085 -0.9558  1.1677 -0.9404
  581MOL0     H76656   9.394   4.919   9.573  2.1751 -1.2255  3.6945
  581MOL0     H76657   9.382   4.940   9.820  2.2236 -0.6109 -0.5727
  581MOL0     H76658   9.235   5.343   9.965  0.0824  0.7930 -0.5621
  581MOL0     H76659   9.360   5.304  10.084 -1.5961  3.0796  0.5171
  581MOL0     H76660   9.206   5.152  10.195 -2.3499 -0.4774  1.5358
  581MOL0     H76661   9.075   5.196  10.079 -0.4828  0.1163  0.4881
  581MOL0     H76662   9.216   5.379  10.277 -1.3498 -1.3429  3.2091
  581MOL0     H76663   9.060   5.311  10.292  2.5652  0.5447  2.2106
  581MOL0     H76664   9.137   5.517  10.083 -0.5818 -1.1807 -2.2282
  581MOL0     H76665   8.984   5.420  10.079  0.7422  0.6372 -1.2940
  581MOL0     H76666   9.066   5.591  10.320  0.0490  2.7575 -1.1695
  581MOL0     H76667   8.904   5.544  10.299  1.8010  2.7928  4.7990
  581MOL0     H76668   8.893   5.675  10.087  3.6371 -1.9989 -3.2186
  581MOL0     H76669   9.054   5.731  10.121 -0.2072  0.9248  0.8072
  581MOL0     H76670   8.995   5.841  10.333 -0.2123  0.6363  0.7827
  581MOL0     H76671   8.896   5.906  10.194 -2.4231 -0.4526 -1.0492
  581MOL0     H76672   8.788   5.761  10.429 -0.8470  2.6547  0.8344
  581MOL0     H76673   8.725   5.716  10.270  0.6985  0.6145 -2.7924
  581MOL0     H76674   9.355   5.368   9.788  3.9063  0.4798 -0.4225
  581MOL0     H76675   9.442   5.355   9.572  0.6272 -0.4214  0.1324
  581MOL0     H76676   9.643   5.106   9.267 -0.6634  0.8158 -0.7128
  581MOL0     H76677   9.770   5.070   9.047 -1.2401  2.6743 -0.1481
  581MOL0     H76678   8.805   4.448  10.131 -3.2007 -0.1456  1.3398
  581MOL0     H76679   8.744   4.509  10.346  0.3319 -0.1443  1.4056
  581MOL0     H76680   8.496   5.057  10.499 -2.3921 -2.6490 -1.7992
  581MOL0     H76681   8.385   5.127  10.716  0.8328  0.6922 -3.8315
  581MOL0     H76682   8.257   5.042  11.046 -3.0784  0.4658 -2.0503
  581MOL0     H76683   8.247   5.064  10.877 -2.5058  0.6593  1.5620
  581MOL0     H76684   8.351   5.297  10.891 -1.0358 -0.1595 -0.2014
  581MOL0     H76685   8.251   5.281  11.020  0.4253 -0.8133  1.7627
  581MOL0     H76686   8.546   5.238  11.028 -2.3157 -2.6493 -3.2558
  581MOL0     H76687   8.463   5.183  11.166  0.9286  2.3507  0.9578
  581MOL0     H76688   8.450   5.458  11.036  0.3681 -1.3414  0.1835
  581MOL0     H76689   8.346   5.434  11.177  1.3042 -0.1358  0.5816
  581MOL0     H76690   8.696   5.486  11.384  1.2487 -4.4956 -1.0790
  581MOL0     H76691   8.584   4.816  10.926  1.8922  1.5809  1.7020
  581MOL0     H76692   8.719   4.759  10.706  2.5915  1.4887  0.6184
  582MOL0     O76693   0.877   2.039   5.628 -0.1137  0.0134 -0.1695
  582MOL0     C76694   0.934   2.014   5.732 -1.1030  1.1885 -1.0499
  582MOL0     O76695   0.996   2.098   5.811  0.0444 -0.7643  0.2771
  582MOL0     C76696   0.971   2.236   5.791  0.2624 -0.3817 -0.6478
  582MOL0     C76697   0.856   2.303   5.740  0.3583 -0.5219  0.5323
  582MOL0     C76698   0.848   2.445   5.760  0.0941 -0.5319 -0.9794
  582MOL0     C76699   0.952   2.523   5.808 -0.1837 -0.4483  0.4336
  582MOL0     O76700   0.955   2.657   5.807  0.5936  0.1567 -0.2238
  582MOL0     C76701   1.047   2.730   5.898 -0.7541  0.8813 -0.0595
  582MOL0     C76702   0.999   2.865   5.936 -0.3146  0.3941  0.2889
  582MOL0     C76703   1.064   2.940   6.050 -0.7225  0.2755  0.6392
  582MOL0     C76704   0.994   3.074   6.053 -0.3533  0.5112 -0.2858
  582MOL0     C76705   1.033   3.131   6.189  0.7947  0.0671  0.3064
  582MOL0     C76706   1.037   3.282   6.208 -0.0855  0.7462  0.2967
  582MOL0     C76707   0.918   3.368   6.175  0.2712  0.4513  0.0266
  582MOL0     C76708   0.948   3.459   6.063 -0.8057 -0.1097  1.1065
  582MOL0     N76709   1.032   3.574   6.105 -0.1808  0.5908  0.2739
  582MOL0     C76710   0.983   3.708   6.108 -1.1579 -0.6330  0.1981
  582MOL0     C76711   1.084   3.775   6.164  0.0878 -0.2517 -0.2070
  582MOL0     C76712   1.108   3.923   6.177 -0.4342  0.1977  0.7666
  582MOL0     C76713   1.235   3.958   6.263  0.2660 -0.3052 -0.2798
  582MOL0     C76714   1.237   4.114   6.288 -0.0556  0.1449 -0.9785
  582MOL0     C76715   1.141   4.152   6.400 -0.4383 -1.0000  0.1144
  582MOL0     O76716   1.170   4.291   6.424  0.1953 -0.8566  0.1014
  582MOL0     C76717   1.109   4.356   6.528  0.9651 -0.1687 -0.3367
  582MOL0     C76718   0.991   4.314   6.591 -0.2428 -0.4861 -0.6325
  582MOL0     C76719   0.923   4.399   6.676  0.2716 -0.3087 -0.0325
  582MOL0     C76720   0.976   4.523   6.709 -0.4932  0.5927  0.0182
  582MOL0     C76721   0.900   4.616   6.792 -0.5742 -0.2133 -0.0449
  582MOL0     O76722   0.961   4.731   6.828  0.3442 -0.6955 -0.7339
  582MOL0     C76723   0.880   4.848   6.849 -0.3464  0.4777  0.4502
  582MOL0     C76724   0.779   4.895   6.756 -0.6468  1.2436 -0.3011
  582MOL0     C76725   0.713   5.019   6.786  0.6064  1.2205 -0.1759
  582MOL0     C76726   0.750   5.097   6.903 -0.1271 -1.0947  0.2718
  582MOL0     O76727   0.690   5.223   6.917 -0.1184  0.6080 -1.1899
  582MOL0     C76728   0.700   5.292   7.049  0.0862 -0.1089 -0.0812
  582MOL0     C76729   0.624   5.418   7.051  0.4653 -0.6516 -0.5744
  582MOL0     C76730   0.672   5.517   6.951  0.2462  0.3408  1.3577
  582MOL0     C76731   0.587   5.648   6.953 -0.6309 -0.1027 -0.2484
  582MOL0     C76732   0.444   5.638   6.890  0.8184  0.1819  0.8038
  582MOL0     C76733   0.450   5.629   6.731 -0.4961  0.6264 -0.5349
  582MOL0     C76734   0.303   5.623   6.672 -0.4555 -0.0359  0.0256
  582MOL0     C76735   0.306   5.527   6.553  0.3024  0.5740 -0.0907
  582MOL0    Cl76736   0.307   5.359   6.605 -0.0988 -0.0487 -0.2228
  582MOL0     C76737   0.857   5.047   6.989  0.3636 -0.6800  0.1772
  582MOL0     C76738   0.923   4.921   6.957  0.2301  0.2092 -0.3818
  582MOL0     O76739   0.786   4.576   6.809  0.3902 -0.7236  0.2117
  582MOL0     C76740   1.099   4.560   6.659  0.2569 -0.3340 -0.1990
  582MOL0     C76741   1.164   4.477   6.566 -0.0712  0.0786 -0.9980
  582MOL0     N76742   1.185   3.683   6.190 -0.3398 -0.8594 -0.3550
  582MOL0     N76743   1.160   3.563   6.154 -0.1367 -0.4783 -1.4261
  582MOL0     C76744   1.060   2.445   5.845  0.6951  0.3068  0.6718
  582MOL0     C76745   1.078   2.318   5.839 -0.0143  0.2344  0.9259
  582MOL0     C76746   0.918   1.870   5.775 -0.0745 -0.4696 -0.1176
  582MOL0     C76747   0.802   1.799   5.749  0.6194  0.6949  0.3424
  582MOL0     C76748   0.793   1.664   5.798 -1.0861  0.0598 -0.3943
  582MOL0     C76749   0.896   1.604   5.884  0.7256  0.5114  0.5664
  582MOL0     O76750   0.892   1.477   5.926 -0.0710  0.2739  0.7837
  582MOL0     C76751   0.769   1.405   5.929 -0.5094  0.2477  0.4347
  582MOL0     C76752   0.811   1.280   6.008 -0.4980  0.1565  0.2957
  582MOL0     C76753   0.888   1.191   5.912  0.9371 -1.0781  0.3439
  582MOL0     C76754   0.904   1.052   5.970  0.4998 -0.9640  0.2030
  582MOL0     C76755   1.004   0.962   5.904 -0.7090  0.4630 -1.3033
  582MOL0     C76756   1.072   0.877   5.851  0.6903  0.1651  0.7048
  582MOL0     C76757   1.014   1.680   5.901 -0.8469  0.5178 -0.6691
  582MOL0     C76758   1.024   1.813   5.851 -0.1290  0.5606  0.6046
  582MOL0     H76759   0.772   2.243   5.705 -0.1208 -0.4835  1.5770
  582MOL0     H76760   0.757   2.504   5.755  0.3269 -0.0276  0.3207
  582MOL0     H76761   1.144   2.751   5.854 -0.1808 -0.9412  0.2341
  582MOL0     H76762   1.052   2.678   5.994 -2.6905  3.1163  1.3832
  582MOL0     H76763   0.892   2.868   5.957  0.2387  3.7453  3.6681
  582MOL0     H76764   1.010   2.921   5.842 -0.3963  1.1502  0.7225
  582MOL0     H76765   1.173   2.944   6.054 -0.5121 -2.1427 -0.5973
  582MOL0     H76766   1.027   2.884   6.136 -2.2865  0.3880  0.0781
  582MOL0     H76767   1.026   3.147   5.977  1.1471 -2.4768 -2.7548
  582MOL0     H76768   0.885   3.064   6.047 -0.1589 -1.1312 -2.4690
  582MOL0     H76769   1.124   3.085   6.228 -0.2211 -1.8724  0.5638
  582MOL0     H76770   0.955   3.094   6.257  1.4399  0.0989  1.0648
  582MOL0     H76771   1.126   3.314   6.153  2.3579 -1.5917  2.5980
  582MOL0     H76772   1.060   3.294   6.314  0.6582  1.6084  0.0541
  582MOL0     H76773   0.834   3.299   6.162  0.4305  0.2629 -0.0147
  582MOL0     H76774   0.892   3.427   6.263  2.6892  0.9695  0.4705
  582MOL0     H76775   0.866   3.517   6.020  0.0502 -0.6079 -1.3313
  582MOL0     H76776   0.997   3.406   5.981 -1.4253 -0.5606  1.0256
  582MOL0     H76777   0.900   3.761   6.064 -0.9833 -0.8317 -0.3733
  582MOL0     H76778   1.013   3.955   6.220 -1.0449 -1.4814  0.7436
  582MOL0     H76779   1.106   3.958   6.073 -0.2010  0.4613  0.8482
  582MOL0     H76780   1.328   3.928   6.214  0.6141  4.1122 -2.9359
  582MOL0     H76781   1.243   3.912   6.362  2.3245  1.1403  0.2943
  582MOL0     H76782   1.338   4.138   6.320  0.1248 -2.0028  0.3065
  582MOL0     H76783   1.208   4.173   6.201 -3.2992  0.8879  0.4406
  582MOL0     H76784   1.154   4.104   6.498  0.3552 -1.6564 -0.2968
  582MOL0     H76785   1.037   4.145   6.367 -0.5895  0.6764  0.1762
  582MOL0     H76786   0.949   4.215   6.579 -0.9332  0.0398 -3.1327
  582MOL0     H76787   0.822   4.372   6.704 -1.8459  4.1597 -2.2159
  582MOL0     H76788   0.745   4.831   6.675 -0.5030  2.3148 -1.2469
  582MOL0     H76789   0.627   5.057   6.731 -1.8531 -1.1458  1.7339
  582MOL0     H76790   0.800   5.318   7.085  0.2308  0.6468 -1.0004
  582MOL0     H76791   0.648   5.225   7.119 -1.9131 -1.3773 -2.6064
  582MOL0     H76792   0.621   5.452   7.155  2.3464  0.1024 -0.7387
  582MOL0     H76793   0.518   5.395   7.035  1.3652 -4.0106 -2.6087
  582MOL0     H76794   0.688   5.478   6.850  1.2553  2.1719  0.7798
  582MOL0     H76795   0.774   5.551   6.967  1.3106 -0.5080 -2.6528
  582MOL0     H76796   0.585   5.678   7.058 -0.4596  0.3530 -0.3731
  582MOL0     H76797   0.649   5.726   6.908 -3.7810  3.6535  1.4380
  582MOL0     H76798   0.402   5.736   6.915 -0.4720 -0.1662  0.0463
  582MOL0     H76799   0.387   5.556   6.935  3.9335 -2.4761  0.3068
  582MOL0     H76800   0.516   5.551   6.692  0.1716  1.9964 -2.2764
  582MOL0     H76801   0.505   5.716   6.695  1.2921 -0.4164 -0.4444
  582MOL0     H76802   0.233   5.582   6.746 -2.6673  2.9969 -0.2067
  582MOL0     H76803   0.264   5.716   6.632  1.2073 -0.1372 -2.0386
  582MOL0     H76804   0.391   5.558   6.492  1.1844 -0.4882  0.5504
  582MOL0     H76805   0.213   5.543   6.498  1.3081  5.7866 -0.7972
  582MOL0     H76806   0.884   5.107   7.075  0.7462  0.3654 -0.6396
  582MOL0     H76807   1.013   4.897   7.012  1.6480  2.6299 -1.5291
  582MOL0     H76808   1.148   4.648   6.699 -4.9077  1.9419  2.0778
  582MOL0     H76809   1.262   4.490   6.520  0.3335 -0.1892 -0.2344
  582MOL0     H76810   1.141   2.493   5.898  2.1290 -3.9537  2.7899
  582MOL0     H76811   1.167   2.266   5.872 -0.4256 -1.0663  0.0602
  582MOL0     H76812   0.716   1.851   5.708  1.0246  0.7957 -0.4004
  582MOL0     H76813   0.714   1.595   5.771  0.2856 -3.0843  2.8500
  582MOL0     H76814   0.720   1.390   5.833  0.2463  0.6889 -0.0267
  582MOL0     H76815   0.700   1.456   5.997 -1.0380  0.9372 -0.6087
  582MOL0     H76816   0.871   1.291   6.098 -0.8332 -2.1628  0.8642
  582MOL0     H76817   0.721   1.223   6.031 -0.4242 -0.8233 -1.6318
  582MOL0     H76818   0.981   1.225   5.866 -0.5277  0.4026 -1.6451
  582MOL0     H76819   0.820   1.179   5.828 -1.4862 -1.1656  2.2008
  582MOL0     H76820   0.926   1.061   6.076 -0.3300 -1.6716  0.4470
  582MOL0     H76821   0.811   0.993   5.964 -0.7230  0.9203 -0.3428
  582MOL0     H76822   1.130   0.801   5.802 -1.1465  0.7859 -2.8112
  582MOL0     H76823   1.102   1.634   5.944 -1.2351 -0.0147 -0.4272
  582MOL0     H76824   1.122   1.857   5.868  1.3826 -2.7177  1.3535
  583MOL0     O76825   5.320  11.271   8.801 -0.0377  0.0000  0.6573
  583MOL0     C76826   5.257  11.174   8.818  0.4284  0.2651  0.4273
  583MOL0     O76827   5.280  11.079   8.919 -0.3427  0.3610  0.2590
  583MOL0     C76828   5.392  11.109   8.994 -0.1121  0.7067  1.2778
  583MOL0     C76829   5.379  11.150   9.125 -0.2741  0.1251  0.2722
  583MOL0     C76830   5.495  11.177   9.202  0.2704  0.7354  0.2563
  583MOL0     C76831   5.625  11.171   9.130  0.2378 -0.7180 -0.1636
  583MOL0     O76832   5.741  11.203   9.204 -0.2848  0.5260 -0.1842
  583MOL0     C76833   5.875  11.165   9.142 -0.3592  1.3145 -0.0595
  583MOL0     C76834   5.980  11.166   9.249 -0.1756  1.2289 -0.4235
  583MOL0     C76835   6.121  11.148   9.181 -0.4182 -0.7501  0.3896
  583MOL0     C76836   6.223  11.175   9.299  0.0492 -0.2875  0.4081
  583MOL0     C76837   6.364  11.167   9.239 -0.8433 -0.7956 -0.4596
  583MOL0     C76838   6.465  11.182   9.348 -0.0266 -0.9328  0.8037
  583MOL0     C76839   6.467  11.071   9.451 -0.8325 -0.0585 -0.6548
  583MOL0     C76840   6.497  10.925   9.407 -0.3643  0.1943 -0.6136
  583MOL0     N76841   6.489  10.832   9.524  0.0327  0.1815 -0.2762
  583MOL0     C76842   6.605  10.789   9.587 -0.5507  0.0379 -0.3635
  583MOL0     C76843   6.555  10.722   9.689 -0.4375  0.3732 -0.6410
  583MOL0     C76844   6.646  10.665   9.795  0.3519 -0.1054  1.0605
  583MOL0     C76845   6.574  10.604   9.913 -0.2110  0.1528 -0.2666
  583MOL0     C76846   6.663  10.550  10.019 -0.0089 -0.6277 -0.1547
  583MOL0     C76847   6.568  10.482  10.126  0.2015 -0.0642  0.4470
  583MOL0     O76848   6.660  10.433  10.229 -0.2874 -0.4767  0.5199
  583MOL0     C76849   6.657  10.308  10.272 -0.5281  0.2536  0.8382
  583MOL0     C76850   6.730  10.201  10.223  0.9067 -0.1823  0.9052
  583MOL0     C76851   6.729  10.077  10.287  0.1387  0.2622  1.2745
  583MOL0     C76852   6.666  10.060  10.412  0.4296 -0.2689  0.0475
  583MOL0     C76853   6.653   9.928  10.486  0.7848  0.2197 -0.0935
  583MOL0     O76854   6.711   9.814  10.434  1.0057 -0.1660  0.2455
  583MOL0     C76855   6.682   9.688  10.489 -0.3266 -0.5373 -0.8344
  583MOL0     C76856   6.633   9.584  10.417 -0.5471  0.2698  2.0272
  583MOL0     C76857   6.619   9.467  10.471  0.2611  0.7565 -1.1761
  583MOL0     C76858   6.646   9.438  10.606  0.5706 -0.3266  0.6480
  583MOL0     O76859   6.611   9.321  10.661 -0.2452 -0.3679 -0.4952
  583MOL0     C76860   6.718   9.231  10.685 -0.2950 -0.0663 -1.0048
  583MOL0     C76861   6.718   9.130  10.570  0.1593 -0.2239  1.5951
  583MOL0     C76862   6.719   8.987  10.627  0.7089  0.2486  0.0878
  583MOL0     C76863   6.652   8.892  10.519 -0.5993 -0.1308 -0.1375
  583MOL0     C76864   6.625   8.755  10.572 -0.0636  0.0758 -0.6455
  583MOL0     C76865   6.595   8.656  10.463  0.6709 -1.1810  0.1986
  583MOL0     C76866   6.535   8.525  10.515  0.1070  0.8227  0.0480
  583MOL0     C76867   6.552   8.409  10.415  0.5925 -0.1979  0.7767
  583MOL0    Cl76868   6.724   8.375  10.378 -0.1458 -0.1089 -0.1003
  583MOL0     C76869   6.693   9.541  10.685  0.0136  0.9903  0.4779
  583MOL0     C76870   6.707   9.670  10.630  0.1933  0.5041 -0.5650
  583MOL0     O76871   6.595   9.933  10.592  0.4449  0.5157  0.7693
  583MOL0     C76872   6.597  10.171  10.462 -0.1305 -0.7575 -0.3700
  583MOL0     C76873   6.594  10.298  10.395 -0.7598  0.2985  0.1374
  583MOL0     N76874   6.421  10.710   9.676 -0.1945  0.6653  0.4314
  583MOL0     N76875   6.381  10.773   9.575 -0.5860  0.0804  0.8012
  583MOL0     C76876   5.634  11.135   8.992  0.4302  0.4503  0.5867
  583MOL0     C76877   5.517  11.115   8.927 -0.2344 -0.0191  0.5428
  583MOL0     C76878   5.154  11.156   8.721 -0.1095  0.7710 -0.6813
  583MOL0     C76879   5.114  11.027   8.687 -0.6050 -0.1068  0.0041
  583MOL0     C76880   4.992  11.018   8.616 -0.0093 -0.3576  0.1623
  583MOL0     C76881   4.919  11.124   8.586 -0.5449 -0.3055  0.1819
  583MOL0     O76882   4.796  11.114   8.528  0.6879 -0.4301  1.0640
  583MOL0     C76883   4.684  11.035   8.575  0.4624  1.1754 -0.1988
  583MOL0     C76884   4.552  11.112   8.593 -0.1345  0.0889  0.3609
  583MOL0     C76885   4.430  11.030   8.641 -0.6442 -0.5557 -0.1078
  583MOL0     C76886   4.356  10.966   8.527  0.3988  1.2961 -0.8313
  583MOL0     C76887   4.243  10.887   8.579  0.0489  0.4904  0.4231
  583MOL0     C76888   4.152  10.838   8.632  0.0619 -0.3029  0.0016
  583MOL0     C76889   4.963  11.256   8.617  0.9990 -0.1581 -0.0133
  583MOL0     C76890   5.078  11.269   8.691  0.0950 -0.1444 -1.3088
  583MOL0     H76891   5.275  11.143   9.153 -0.2643 -1.8674 -0.1031
  583MOL0     H76892   5.491  11.205   9.306 -0.4654 -1.2963  0.8194
  583MOL0     H76893   5.910  11.243   9.074 -2.3703  1.4933 -0.9547
  583MOL0     H76894   5.870  11.065   9.099  0.7231  0.5457  1.4879
  583MOL0     H76895   5.977  11.082   9.319  0.0860  0.6601 -1.0792
  583MOL0     H76896   5.971  11.257   9.308 -1.9779  0.8527 -0.0640
  583MOL0     H76897   6.135  11.225   9.104  0.6308  0.3491  1.6252
  583MOL0     H76898   6.133  11.051   9.132 -1.0844 -1.6585  1.9332
  583MOL0     H76899   6.208  11.273   9.345 -2.0420  0.6578 -2.0394
  583MOL0     H76900   6.200  11.106   9.381  1.1000 -0.6272  0.4307
  583MOL0     H76901   6.373  11.251   9.170 -0.9569 -0.4829 -0.0920
  583MOL0     H76902   6.386  11.080   9.177 -0.3816  0.0723 -1.5462
  583MOL0     H76903   6.452  11.276   9.403 -0.0339  1.1935 -2.5830
  583MOL0     H76904   6.562  11.171   9.299  0.4530 -0.5821  1.6542
  583MOL0     H76905   6.549  11.099   9.518 -1.1969  0.0576 -0.2481
  583MOL0     H76906   6.375  11.082   9.509 -0.7732  1.4831 -0.7992
  583MOL0     H76907   6.594  10.911   9.357 -0.6048 -0.7035 -0.8489
  583MOL0     H76908   6.428  10.892   9.329  0.2978 -1.3477 -0.5891
  583MOL0     H76909   6.709  10.816   9.574 -0.0267 -0.9333  1.4471
  583MOL0     H76910   6.715  10.746   9.822 -1.1377  1.2710  0.8522
  583MOL0     H76911   6.708  10.585   9.753 -1.4513 -0.5184 -0.9798
  583MOL0     H76912   6.522  10.516   9.875  1.3414 -1.4028  1.0114
  583MOL0     H76913   6.514  10.676   9.969  1.6154  0.7024  1.1255
  583MOL0     H76914   6.745  10.484   9.992  1.0124 -0.4623  2.2389
  583MOL0     H76915   6.704  10.640  10.067 -0.7765 -0.2638 -0.1619
  583MOL0     H76916   6.520  10.395  10.081 -0.3371  0.9526 -0.9966
  583MOL0     H76917   6.489  10.548  10.161 -3.3415 -2.4757 -2.2883
  583MOL0     H76918   6.794  10.210  10.137  1.9403 -1.9677  1.4411
  583MOL0     H76919   6.780  10.001  10.229 -0.4402  0.4013  0.5633
  583MOL0     H76920   6.602   9.600  10.314 -0.0538 -1.7571  1.5128
  583MOL0     H76921   6.572   9.377  10.432 -1.1872  0.5951  0.7617
  583MOL0     H76922   6.688   9.176  10.774  2.9596 -3.2328 -1.6387
  583MOL0     H76923   6.820   9.267  10.703  0.5049 -2.4817 -0.3573
  583MOL0     H76924   6.807   9.166  10.518 -1.8867  4.0144  0.5712
  583MOL0     H76925   6.642   9.156  10.497  2.1398  1.0092 -0.1648
  583MOL0     H76926   6.661   8.995  10.720  2.5995 -3.2248  1.7803
  583MOL0     H76927   6.824   8.967  10.651  0.8533 -0.7072 -1.2788
  583MOL0     H76928   6.556   8.929  10.482  0.0588  1.6150 -0.1880
  583MOL0     H76929   6.713   8.892  10.429  0.5586  2.2450  0.5574
  583MOL0     H76930   6.555   8.766  10.655 -0.6282  3.3636 -1.4173
  583MOL0     H76931   6.722   8.728  10.615  0.6317  2.0990 -0.8341
  583MOL0     H76932   6.685   8.635  10.405  1.2807 -1.7136  1.3160
  583MOL0     H76933   6.530   8.703  10.388  1.0367 -0.2426  0.4472
  583MOL0     H76934   6.585   8.485  10.603 -3.2853 -0.8967  1.3623
  583MOL0     H76935   6.430   8.551  10.534 -0.6693 -0.5681 -1.9316
  583MOL0     H76936   6.497   8.435  10.325  0.0418 -0.0267  1.1601
  583MOL0     H76937   6.503   8.323  10.460  0.6629 -0.8868 -0.4203
  583MOL0     H76938   6.699   9.522  10.792 -3.0664  1.2633  0.7861
  583MOL0     H76939   6.737   9.761  10.681  1.2688  0.5572 -1.2499
  583MOL0     H76940   6.543  10.156  10.555  0.6925 -1.5389 -0.0148
  583MOL0     H76941   6.552  10.390  10.436  1.8904  0.6943  2.2178
  583MOL0     H76942   5.732  11.131   8.945  1.0094  2.6326  1.5162
  583MOL0     H76943   5.521  11.087   8.822 -1.6569  0.4256  0.3514
  583MOL0     H76944   5.169  10.935   8.706  1.7021  0.9085 -1.2523
  583MOL0     H76945   4.957  10.918   8.590  0.4443 -0.6851  0.7776
  583MOL0     H76946   4.717  10.987   8.667 -0.3172 -1.0930 -1.0428
  583MOL0     H76947   4.665  10.947   8.514  0.7747  1.3099 -0.4987
  583MOL0     H76948   4.571  11.189   8.668  1.3317  0.0873  0.0049
  583MOL0     H76949   4.532  11.154   8.493 -1.2685 -1.5238 -0.1289
  583MOL0     H76950   4.348  11.090   8.681 -1.4578  0.0553 -2.5375
  583MOL0     H76951   4.465  10.965   8.722 -0.2510  1.1390  1.1429
  583MOL0     H76952   4.312  11.038   8.457 -1.1481  0.1476 -1.0875
  583MOL0     H76953   4.427  10.898   8.480  1.1846  3.2116 -2.5505
  583MOL0     H76954   4.065  10.792   8.675  0.9900 -1.7338  0.4119
  583MOL0     H76955   4.902  11.345   8.606 -2.8734 -2.6527 -0.9917
  583MOL0     H76956   5.106  11.367   8.729 -0.4955 -0.4607 -0.0120
  584MOL0     O76957   1.683   3.384   1.821  0.4514  0.3384  1.1891
  584MOL0     C76958   1.716   3.496   1.869  0.9417 -0.7164 -0.5836
  584MOL0     O76959   1.831   3.527   1.943  0.4011 -0.5166  0.2148
  584MOL0     C76960   1.942   3.443   1.939  0.4859  1.8004 -0.0979
  584MOL0     C76961   2.057   3.476   1.882 -0.4311 -0.3443 -1.0049
  584MOL0     C76962   2.159   3.387   1.867 -1.0819  0.7221  0.0268
  584MOL0     C76963   2.151   3.259   1.938 -0.3958  0.0373 -0.0179
  584MOL0     O76964   2.247   3.159   1.936 -0.2636 -0.5038  0.5670
  584MOL0     C76965   2.337   3.163   1.831  1.3582 -0.3223  0.6391
  584MOL0     C76966   2.385   3.016   1.813 -0.6102 -0.3908 -0.2774
  584MOL0     C76967   2.458   2.985   1.945 -0.7527 -0.7894  0.9984
  584MOL0     C76968   2.590   2.915   1.929  0.8322 -0.5436 -0.3785
  584MOL0     C76969   2.571   2.772   1.873  0.7563 -0.6910 -0.1881
  584MOL0     C76970   2.486   2.682   1.969 -0.2164  0.2944  0.2202
  584MOL0     C76971   2.551   2.547   1.992 -0.3875  0.1837  0.3026
  584MOL0     C76972   2.488   2.477   2.115 -0.0062 -0.0214  0.2186
  584MOL0     N76973   2.552   2.353   2.128 -0.7579  0.1612  0.1055
  584MOL0     C76974   2.507   2.245   2.055 -0.7092 -0.8381 -0.2064
  584MOL0     C76975   2.590   2.144   2.104 -0.5998  0.4157 -0.9669
  584MOL0     C76976   2.599   1.995   2.071 -0.3139 -0.9324 -1.0030
  584MOL0     C76977   2.666   1.972   1.933 -1.3367 -0.1006 -0.2192
  584MOL0     C76978   2.610   1.857   1.852  0.6549  0.0720  0.0663
  584MOL0     C76979   2.592   1.716   1.908 -0.2935  0.6906 -0.4002
  584MOL0     O76980   2.719   1.675   1.981 -0.8673 -0.3100 -0.8214
  584MOL0     C76981   2.805   1.591   1.905 -0.5255 -0.2025 -0.5274
  584MOL0     C76982   2.921   1.640   1.859 -0.3294 -1.0955  0.2617
  584MOL0     C76983   3.007   1.558   1.782 -0.0734  0.9294 -0.3063
  584MOL0     C76984   2.986   1.418   1.762 -0.3164 -0.0163 -0.4569
  584MOL0     C76985   3.079   1.333   1.693 -0.4916  0.2244 -0.0073
  584MOL0     O76986   3.207   1.379   1.679  0.8068  0.2646  0.5223
  584MOL0     C76987   3.294   1.283   1.629 -0.5351  0.4443 -0.8412
  584MOL0     C76988   3.280   1.186   1.528  0.4651  0.1975 -0.4384
  584MOL0     C76989   3.376   1.089   1.509  0.3736 -0.2543 -0.4154
  584MOL0     C76990   3.495   1.088   1.574 -0.2414 -0.2286 -0.0651
  584MOL0     O76991   3.590   0.989   1.544 -0.3740  0.3409  0.1575
  584MOL0     C76992   3.541   0.848   1.563 -0.7990 -0.6925 -0.0530
  584MOL0     C76993   3.651   0.752   1.573 -0.4054 -0.1520 -0.4457
  584MOL0     C76994   3.675   0.696   1.727  0.0398 -0.8664  0.6863
  584MOL0     C76995   3.809   0.626   1.740 -0.5006  0.2875 -0.9084
  584MOL0     C76996   3.801   0.526   1.858 -0.8560 -0.7399 -0.0310
  584MOL0     C76997   3.940   0.507   1.920  1.0966  0.6734  0.0781
  584MOL0     C76998   4.024   0.409   1.830  0.0414 -1.3104  0.5028
  584MOL0     C76999   4.165   0.385   1.890  0.5603 -0.5252 -0.3093
  584MOL0    Cl77000   4.245   0.535   1.966  0.1303 -0.5449  0.2130
  584MOL0     C77001   3.513   1.182   1.677 -0.6492 -1.0012  0.6889
  584MOL0     C77002   3.418   1.283   1.708 -0.2330 -0.4066  0.5169
  584MOL0     O77003   3.040   1.218   1.686 -0.1832 -0.1624 -0.1485
  584MOL0     C77004   2.861   1.374   1.807 -0.6039 -0.3053  0.4289
  584MOL0     C77005   2.772   1.459   1.886  0.6225  0.1478 -0.2795
  584MOL0     N77006   2.673   2.196   2.203 -1.3665 -0.3452 -1.1420
  584MOL0     N77007   2.651   2.319   2.205 -0.1371 -0.5202 -0.6220
  584MOL0     C77008   2.040   3.230   1.999  1.5187  0.1816  0.1931
  584MOL0     C77009   1.930   3.318   2.006 -0.8815  1.0535 -0.3571
  584MOL0     C77010   1.612   3.601   1.845  0.0759  0.0869 -0.3980
  584MOL0     C77011   1.638   3.734   1.893 -0.3432  0.5927  0.0454
  584MOL0     C77012   1.540   3.830   1.891  0.0145 -0.2067 -0.4367
  584MOL0     C77013   1.410   3.806   1.851 -0.2512 -0.1218  0.5452
  584MOL0     O77014   1.311   3.905   1.844 -0.4641  0.7271 -0.1727
  584MOL0     C77015   1.198   3.874   1.766  0.6465  0.2349 -0.7252
  584MOL0     C77016   1.107   3.995   1.756  0.3807 -0.7960  0.6670
  584MOL0     C77017   0.977   3.952   1.671 -0.6731  0.9248 -0.6628
  584MOL0     C77018   0.909   4.065   1.593 -0.7443 -0.3429 -0.8097
  584MOL0     C77019   0.969   4.106   1.472 -0.8131 -0.6264  1.4446
  584MOL0     C77020   1.012   4.125   1.361  0.5268 -0.5498 -0.4054
  584MOL0     C77021   1.382   3.665   1.829 -0.6365  0.2581  0.1578
  584MOL0     C77022   1.480   3.567   1.821 -0.0793 -1.1527 -0.4289
  584MOL0     H77023   2.056   3.573   1.833 -2.7299  0.1961 -0.0266
  584MOL0     H77024   2.248   3.422   1.816 -0.9652  0.1011 -0.2036
  584MOL0     H77025   2.420   3.232   1.848  2.3782 -1.3638  0.0182
  584MOL0     H77026   2.271   3.185   1.745  1.1514  1.0940  1.1304
  584MOL0     H77027   2.450   3.000   1.727  0.2246 -2.1162  0.6319
  584MOL0     H77028   2.297   2.953   1.801 -0.1921 -2.1451  3.9892
  584MOL0     H77029   2.396   2.932   2.018  2.5629  0.3012  4.9910
  584MOL0     H77030   2.493   3.081   1.986 -5.7479  1.4225  0.7864
  584MOL0     H77031   2.649   2.965   1.853  0.4602 -0.8372 -0.8658
  584MOL0     H77032   2.641   2.912   2.026 -0.8248  0.8293  0.5810
  584MOL0     H77033   2.674   2.735   1.873  0.0206 -3.2872 -3.3531
  584MOL0     H77034   2.531   2.766   1.771 -0.9912 -0.9679  0.4768
  584MOL0     H77035   2.382   2.669   1.937 -0.5149 -2.8761  2.0375
  584MOL0     H77036   2.476   2.720   2.071  0.7372 -2.2901  1.3497
  584MOL0     H77037   2.541   2.474   1.911 -1.0007 -1.9742  2.2167
  584MOL0     H77038   2.658   2.549   2.012 -0.8532  0.0009  3.1276
  584MOL0     H77039   2.382   2.455   2.104  0.1698 -0.7473 -0.0897
  584MOL0     H77040   2.497   2.538   2.205 -0.6239  0.4261 -0.0151
  584MOL0     H77041   2.421   2.235   1.990 -1.8151  2.1996  0.5853
  584MOL0     H77042   2.499   1.952   2.085 -1.0326  1.5571  3.4523
  584MOL0     H77043   2.661   1.936   2.140 -1.7399 -1.7712 -0.3888
  584MOL0     H77044   2.774   1.958   1.945 -1.3493  1.3605  2.0804
  584MOL0     H77045   2.660   2.064   1.874 -1.0082 -0.4645 -0.8378
  584MOL0     H77046   2.506   1.888   1.834  0.8242 -0.2012 -1.5035
  584MOL0     H77047   2.676   1.846   1.766  2.4214  1.1385  1.2236
  584MOL0     H77048   2.561   1.637   1.838  3.3130 -0.4178 -0.9529
  584MOL0     H77049   2.522   1.718   1.992  3.2387  0.4209  2.8096
  584MOL0     H77050   2.958   1.740   1.877  1.3271 -1.6510  0.1304
  584MOL0     H77051   3.103   1.596   1.749  1.1219 -2.5219 -1.1943
  584MOL0     H77052   3.189   1.195   1.469 -2.2462 -0.2183  3.3472
  584MOL0     H77053   3.361   1.016   1.431  2.7172 -0.9000 -0.3209
  584MOL0     H77054   3.472   0.828   1.480 -0.0623  0.8416 -1.0756
  584MOL0     H77055   3.479   0.845   1.653 -2.4478 -2.2538 -1.1676
  584MOL0     H77056   3.747   0.790   1.536  0.3178  0.2593  1.6910
  584MOL0     H77057   3.624   0.670   1.506 -0.0554 -2.0020  1.5765
  584MOL0     H77058   3.592   0.634   1.763 -0.2886 -2.1389 -2.0559
  584MOL0     H77059   3.680   0.781   1.796  1.6404  0.5989 -1.1233
  584MOL0     H77060   3.827   0.569   1.649  0.3907 -0.6606 -0.1688
  584MOL0     H77061   3.888   0.701   1.753 -2.3041  2.3805 -1.5026
  584MOL0     H77062   3.772   0.431   1.814 -2.5664 -0.4521  0.3823
  584MOL0     H77063   3.731   0.560   1.935 -1.6766 -0.0971 -1.0384
  584MOL0     H77064   3.942   0.464   2.020  0.8879  0.8667  0.1680
  584MOL0     H77065   3.981   0.607   1.936  2.8825  0.5752 -3.1156
  584MOL0     H77066   3.970   0.314   1.818  0.1248 -1.1424 -1.6284
  584MOL0     H77067   4.035   0.460   1.734  2.8807  1.1885  1.9929
  584MOL0     H77068   4.222   0.336   1.810  0.6345 -0.4036 -0.3311
  584MOL0     H77069   4.160   0.312   1.971  2.5368 -1.3998 -0.8969
  584MOL0     H77070   3.609   1.177   1.727 -0.3249  2.4100  0.6552
  584MOL0     H77071   3.445   1.364   1.775 -1.0422  1.3267 -1.1500
  584MOL0     H77072   2.833   1.272   1.784 -1.5041  0.0295  0.0182
  584MOL0     H77073   2.676   1.421   1.921  1.0215  0.8043  1.6995
  584MOL0     H77074   2.026   3.132   2.044  2.3868  0.2143  0.5480
  584MOL0     H77075   1.844   3.277   2.059  0.7351 -0.7971  0.9567
  584MOL0     H77076   1.737   3.772   1.917  0.2010 -0.3612 -0.5945
  584MOL0     H77077   1.569   3.925   1.935  0.3988 -0.5849  0.1582
  584MOL0     H77078   1.145   3.791   1.814 -2.8527  2.0511 -1.0500
  584MOL0     H77079   1.221   3.836   1.666 -1.2600  0.6491 -1.3811
  584MOL0     H77080   1.072   4.031   1.854 -1.4748  0.8342 -0.5345
  584MOL0     H77081   1.165   4.071   1.702  1.0504 -2.9306 -1.8221
  584MOL0     H77082   0.906   3.918   1.748  1.6214 -0.7620  0.8268
  584MOL0     H77083   0.995   3.870   1.601 -3.2844 -0.4573  0.1250
  584MOL0     H77084   0.805   4.042   1.569 -1.4960  1.8726  0.0389
  584MOL0     H77085   0.896   4.156   1.653  1.5512  0.5723 -1.5886
  584MOL0     H77086   1.053   4.166   1.270  3.0746 -0.8059  0.5528
  584MOL0     H77087   1.277   3.637   1.826 -0.5533  0.0169 -1.4931
  584MOL0     H77088   1.440   3.467   1.803 -0.7203 -0.4396 -3.7112
  585MOL0     O77089   2.764   8.523   0.838 -0.5023  0.0311  0.8858
  585MOL0     C77090   2.864   8.592   0.841  0.7587 -0.3496  1.0992
  585MOL0     O77091   2.966   8.575   0.935  0.2216  0.4423 -0.0113
  585MOL0     C77092   2.957   8.468   1.027  0.7232  0.3412  0.1184
  585MOL0     C77093   3.041   8.357   1.023  0.0195  0.1424  0.1507
  585MOL0     C77094   3.044   8.281   1.138 -0.6554 -0.4518  0.7976
  585MOL0     C77095   2.973   8.303   1.256  0.3600  0.4916 -0.5911
  585MOL0     O77096   3.001   8.223   1.372  0.7602 -0.5867 -0.3222
  585MOL0     C77097   2.932   8.251   1.503  0.3968  0.8344  0.8782
  585MOL0     C77098   2.796   8.181   1.505  1.2117  0.2099 -0.6004
  585MOL0     C77099   2.752   8.134   1.645 -0.4435  1.3329  0.5819
  585MOL0     C77100   2.624   8.041   1.626 -0.7095  0.1087 -0.1674
  585MOL0     C77101   2.499   8.119   1.585 -0.3445 -0.3790  0.2339
  585MOL0     C77102   2.465   8.245   1.685  0.3387  0.0798  0.4160
  585MOL0     C77103   2.364   8.343   1.639 -0.3213  0.4428  0.5148
  585MOL0     C77104   2.232   8.280   1.595 -0.2854  0.2987  1.0353
  585MOL0     N77105   2.114   8.373   1.567  0.0435 -0.5717 -0.1976
  585MOL0     C77106   2.124   8.478   1.486  0.4828 -1.0516  0.5202
  585MOL0     C77107   2.011   8.557   1.505 -0.0993 -0.0159 -0.1301
  585MOL0     C77108   1.970   8.682   1.433  0.2813 -1.0877 -0.5097
  585MOL0     C77109   1.990   8.814   1.494  0.5594  0.4281  1.0559
  585MOL0     C77110   1.986   8.820   1.649  0.4349  0.0647  0.4143
  585MOL0     C77111   2.121   8.805   1.717 -0.9636 -0.2387 -0.1653
  585MOL0     O77112   2.211   8.911   1.682 -0.0444  0.0250  0.4246
  585MOL0     C77113   2.336   8.862   1.672  0.5887 -0.1364  0.2449
  585MOL0     C77114   2.419   8.829   1.777 -0.7939  0.7577  0.4774
  585MOL0     C77115   2.548   8.777   1.762 -0.6305  0.7015  1.4482
  585MOL0     C77116   2.592   8.747   1.628  0.4329 -0.8828  0.1348
  585MOL0     C77117   2.723   8.687   1.605 -0.5397  0.1417 -0.2422
  585MOL0     O77118   2.827   8.741   1.687  0.5555 -0.5375  0.2256
  585MOL0     C77119   2.950   8.684   1.665 -0.3899 -0.4714  0.3275
  585MOL0     C77120   3.019   8.699   1.542  0.1091  0.0212 -0.3956
  585MOL0     C77121   3.152   8.660   1.525  0.6043 -0.9345 -1.3158
  585MOL0     C77122   3.233   8.632   1.634  0.3438  0.5155 -0.0532
  585MOL0     O77123   3.368   8.619   1.606 -0.1722 -0.4858  0.7730
  585MOL0     C77124   3.438   8.548   1.707 -0.0026 -0.0033 -0.4804
  585MOL0     C77125   3.407   8.396   1.714  0.5738  0.0935  0.4668
  585MOL0     C77126   3.532   8.304   1.737  0.0623  0.4619  0.8929
  585MOL0     C77127   3.633   8.345   1.851 -0.4978  0.5032 -0.9537
  585MOL0     C77128   3.557   8.344   1.989 -0.0237 -0.5077  0.8481
  585MOL0     C77129   3.658   8.389   2.107 -0.5399  0.1558  1.2945
  585MOL0     C77130   3.596   8.386   2.241  1.0170  0.7731  0.6695
  585MOL0     C77131   3.698   8.399   2.354  0.1319  0.4432 -0.0370
  585MOL0    Cl77132   3.762   8.249   2.417  0.2508  0.0392  0.0356
  585MOL0     C77133   3.169   8.617   1.753 -0.0425 -0.4799 -0.7766
  585MOL0     C77134   3.030   8.643   1.772 -0.5939 -0.7391 -0.1310
  585MOL0     O77135   2.734   8.586   1.530  0.6020 -0.5330 -0.0725
  585MOL0     C77136   2.512   8.784   1.523  0.1162 -0.0466 -0.2930
  585MOL0     C77137   2.387   8.838   1.544  0.6365 -0.1091 -0.4105
  585MOL0     N77138   1.939   8.505   1.613 -0.4891 -0.2073  0.5906
  585MOL0     N77139   2.007   8.398   1.659 -0.7838 -0.8782  0.1812
  585MOL0     C77140   2.872   8.408   1.249 -0.3425 -0.5769  0.2268
  585MOL0     C77141   2.868   8.485   1.134 -0.0564 -0.3601  0.4251
  585MOL0     C77142   2.881   8.713   0.750  0.5252  0.2309 -0.5765
  585MOL0     C77143   2.969   8.822   0.793  0.7498 -0.0092 -0.4269
  585MOL0     C77144   2.971   8.939   0.715 -0.7340 -0.3908  1.3803
  585MOL0     C77145   2.896   8.946   0.596 -0.0055 -0.0162 -0.4831
  585MOL0     O77146   2.898   9.071   0.533 -0.5707  0.1002 -0.3672
  585MOL0     C77147   2.823   9.071   0.420  0.2167  0.3838  0.1572
  585MOL0     C77148   2.821   9.212   0.370  0.6975  0.0739 -0.3870
  585MOL0     C77149   2.684   9.249   0.290 -0.5477  0.2330 -0.7556
  585MOL0     C77150   2.686   9.216   0.139  0.5279  0.4291  0.2086
  585MOL0     C77151   2.711   9.081   0.098  0.8189 -1.2699 -0.0219
  585MOL0     C77152   2.731   8.969   0.071 -0.9179  0.0279  0.7631
  585MOL0     C77153   2.815   8.834   0.557  0.2946  0.0128  0.5331
  585MOL0     C77154   2.805   8.720   0.630  0.9880 -0.1744 -0.4714
  585MOL0     H77155   3.104   8.351   0.935  2.5222  0.2634  1.8312
  585MOL0     H77156   3.112   8.197   1.148  0.4868  0.3360 -0.1442
  585MOL0     H77157   2.918   8.358   1.522 -0.5928  0.7079  0.9157
  585MOL0     H77158   2.994   8.213   1.584 -1.9671 -1.6595  1.6502
  585MOL0     H77159   2.798   8.093   1.440 -0.5016  0.1147 -0.5771
  585MOL0     H77160   2.720   8.239   1.451  1.8542  1.3180 -0.3419
  585MOL0     H77161   2.758   8.210   1.724  1.5666 -1.3713  3.2545
  585MOL0     H77162   2.829   8.063   1.675  0.3386  1.1300 -1.7316
  585MOL0     H77163   2.639   7.962   1.552 -2.1607 -1.2184  0.9050
  585MOL0     H77164   2.601   8.006   1.727  1.7706 -0.5869  0.2321
  585MOL0     H77165   2.415   8.050   1.573 -0.7686 -0.0558  1.2631
  585MOL0     H77166   2.517   8.169   1.489 -1.8820 -0.2515 -0.0086
  585MOL0     H77167   2.558   8.296   1.711  1.8107 -2.9338  1.4820
  585MOL0     H77168   2.424   8.208   1.779 -1.5858 -0.4536 -0.5781
  585MOL0     H77169   2.329   8.402   1.724 -0.8871 -0.0406  0.6301
  585MOL0     H77170   2.394   8.404   1.553  0.8793 -0.1316  0.5072
  585MOL0     H77171   2.193   8.207   1.666 -2.9569 -0.0411 -0.6314
  585MOL0     H77172   2.265   8.243   1.497  0.5878  2.4664  0.4465
  585MOL0     H77173   2.203   8.509   1.418 -1.7192  2.0510 -0.8153
  585MOL0     H77174   1.862   8.662   1.427 -0.2923  1.9203 -2.4570
  585MOL0     H77175   2.009   8.680   1.331  0.6286  0.8178 -0.4520
  585MOL0     H77176   1.913   8.884   1.458 -0.2606  0.4300  2.7130
  585MOL0     H77177   2.084   8.857   1.457  0.6247  0.4018  1.1902
  585MOL0     H77178   1.960   8.923   1.678  1.7242  0.2451  0.9825
  585MOL0     H77179   1.911   8.753   1.692  0.2192  1.2422  1.9601
  585MOL0     H77180   2.170   8.711   1.689  0.0746  1.0584 -3.0619
  585MOL0     H77181   2.103   8.809   1.825 -0.4473 -0.0836 -0.0791
  585MOL0     H77182   2.382   8.837   1.878 -0.3794  1.0978  0.6008
  585MOL0     H77183   2.605   8.743   1.848 -2.7639 -0.6785  2.3839
  585MOL0     H77184   2.962   8.733   1.455 -1.1917 -3.1633 -0.9072
  585MOL0     H77185   3.196   8.663   1.426 -3.2684  1.3265 -3.2072
  585MOL0     H77186   3.426   8.595   1.805  1.8784  1.0819 -0.7191
  585MOL0     H77187   3.544   8.557   1.684  0.0112 -0.5724 -0.6682
  585MOL0     H77188   3.372   8.372   1.613  0.9178 -0.8420  0.5570
  585MOL0     H77189   3.324   8.369   1.781  0.7518  0.8102  0.9835
  585MOL0     H77190   3.591   8.313   1.645 -0.9318 -1.4611  0.0122
  585MOL0     H77191   3.496   8.201   1.740 -0.3140  0.5409 -0.2266
  585MOL0     H77192   3.707   8.264   1.848  0.2874  1.2194 -0.9501
  585MOL0     H77193   3.689   8.437   1.834  2.3283 -1.5166 -3.5656
  585MOL0     H77194   3.522   8.244   2.015 -1.6060 -0.0364  0.6173
  585MOL0     H77195   3.470   8.410   1.988  1.5718  1.7814  2.4738
  585MOL0     H77196   3.690   8.493   2.100  1.1635 -0.4547 -1.3473
  585MOL0     H77197   3.751   8.331   2.107  2.0243  3.9445  1.0148
  585MOL0     H77198   3.531   8.474   2.247  1.3467  1.0294  0.5317
  585MOL0     H77199   3.536   8.297   2.259 -0.6361  1.2580 -1.8953
  585MOL0     H77200   3.646   8.446   2.438 -1.7724  1.1428 -1.5115
  585MOL0     H77201   3.772   8.470   2.317  0.5113 -0.4386 -1.0016
  585MOL0     H77202   3.231   8.605   1.842  0.8621  0.0084 -1.3175
  585MOL0     H77203   2.979   8.643   1.868 -4.5542 -0.3376 -2.0241
  585MOL0     H77204   2.548   8.758   1.424  1.6997  2.5265 -0.4999
  585MOL0     H77205   2.342   8.862   1.448 -0.2896  0.3689  0.1191
  585MOL0     H77206   2.803   8.446   1.323  0.7400 -0.4295  1.1911
  585MOL0     H77207   2.813   8.578   1.133 -2.7763 -1.8459 -1.8130
  585MOL0     H77208   3.042   8.809   0.872  0.5147 -2.3221 -0.5075
  585MOL0     H77209   3.032   9.025   0.744  0.5880  0.4199 -2.9573
  585MOL0     H77210   2.721   9.032   0.423  1.5885 -4.0829 -1.8257
  585MOL0     H77211   2.879   9.008   0.350 -0.6008 -0.0642 -0.1160
  585MOL0     H77212   2.832   9.291   0.445  1.5286  1.1568 -1.6008
  585MOL0     H77213   2.909   9.228   0.309  1.0857 -1.8858 -0.4024
  585MOL0     H77214   2.657   9.354   0.305  0.2196  0.1841  1.3941
  585MOL0     H77215   2.599   9.199   0.339 -0.8890  0.4379 -1.1332
  585MOL0     H77216   2.593   9.249   0.092 -0.4598 -3.5578 -1.0650
  585MOL0     H77217   2.764   9.280   0.099  1.5552 -1.3129 -0.6740
  585MOL0     H77218   2.753   8.873   0.029  1.2773  0.5364  0.6244
  585MOL0     H77219   2.762   8.829   0.463 -1.2273 -1.6445  1.4237
  585MOL0     H77220   2.736   8.648   0.587 -2.1451  1.9934  0.5606
  586MOL0     O77221   7.040  10.868   5.923 -0.1429 -0.8926 -0.3379
  586MOL0     C77222   6.940  10.803   5.911 -0.2145  0.5521 -0.2010
  586MOL0     O77223   6.816  10.859   5.886  0.2841 -0.1701  0.0724
  586MOL0     C77224   6.806  10.994   5.901 -0.0168 -0.0293  0.0015
  586MOL0     C77225   6.699  11.051   5.964  0.7595  0.6314  0.7098
  586MOL0     C77226   6.675  11.190   5.965  0.1329 -0.2572  0.3138
  586MOL0     C77227   6.772  11.279   5.924 -0.0746 -0.3875  0.4449
  586MOL0     O77228   6.739  11.409   5.914  0.6452 -0.2319 -0.0801
  586MOL0     C77229   6.833  11.517   5.895 -0.2226 -0.1230  0.0533
  586MOL0     C77230   6.760  11.629   5.807  0.1243 -0.0488 -0.0055
  586MOL0     C77231   6.640  11.680   5.891 -0.0895  0.5182  0.2260
  586MOL0     C77232   6.587  11.804   5.825 -0.6175  0.5965 -0.1400
  586MOL0     C77233   6.447  11.841   5.883 -0.4748  0.0556 -0.1778
  586MOL0     C77234   6.373  11.942   5.797 -0.4235 -0.0877 -0.3447
  586MOL0     C77235   6.337  11.910   5.654 -0.0813 -0.7135 -0.7820
  586MOL0     C77236   6.208  11.992   5.617 -0.1577  0.0533  1.0030
  586MOL0     N77237   6.191  11.981   5.461 -0.2388 -0.0836 -0.6639
  586MOL0     C77238   6.264  12.051   5.371  0.3442  0.1603  0.7837
  586MOL0     C77239   6.216  12.021   5.253  0.1006  0.3588 -0.7852
  586MOL0     C77240   6.238  12.084   5.113  0.4699 -0.6705 -0.2983
  586MOL0     C77241   6.124  12.196   5.091 -0.2272  0.7780  0.4775
  586MOL0     C77242   6.097  12.230   4.940  0.3152 -0.5136 -0.3745
  586MOL0     C77243   6.078  12.111   4.847 -0.2025  0.0754  0.2380
  586MOL0     O77244   6.006  12.162   4.728  0.5273  0.6939  0.4697
  586MOL0     C77245   6.009  12.076   4.619  0.1915 -0.1648  0.1892
  586MOL0     C77246   5.951  12.117   4.494 -0.3951 -0.5649  0.5946
  586MOL0     C77247   5.981  12.041   4.373  0.1234  0.1904 -0.6619
  586MOL0     C77248   6.045  11.916   4.384  1.0397  0.5624  0.0386
  586MOL0     C77249   6.050  11.819   4.273 -0.0096  0.9989  0.7762
  586MOL0     O77250   5.977  11.851   4.157 -0.0344 -0.9652 -0.4157
  586MOL0     C77251   5.932  11.764   4.063 -0.5098  0.5286 -0.7065
  586MOL0     C77252   5.902  11.626   4.100  0.3740  0.7266  0.5600
  586MOL0     C77253   5.851  11.544   3.995  0.4324 -0.7896 -0.4747
  586MOL0     C77254   5.824  11.598   3.869  0.4850  0.2419 -0.5377
  586MOL0     O77255   5.776  11.504   3.779  0.4591 -0.1929  0.2866
  586MOL0     C77256   5.696  11.547   3.665 -0.8848 -0.8317  0.0370
  586MOL0     C77257   5.550  11.597   3.694 -0.3657  1.0195 -0.1134
  586MOL0     C77258   5.505  11.662   3.561  0.7369 -0.4377 -0.3853
  586MOL0     C77259   5.548  11.811   3.542  0.2419  0.1449  0.5210
  586MOL0     C77260   5.447  11.860   3.439  0.2646 -0.0517  0.5429
  586MOL0     C77261   5.492  11.985   3.362  0.0556 -0.4612 -0.0592
  586MOL0     C77262   5.402  12.009   3.237 -0.8516 -0.4427  0.4049
  586MOL0     C77263   5.388  12.161   3.206 -0.9321 -0.0472 -0.0866
  586MOL0    Cl77264   5.527  12.252   3.225  0.0412 -0.1031  0.4560
  586MOL0     C77265   5.864  11.731   3.833 -0.0287  0.6511  0.5029
  586MOL0     C77266   5.916  11.811   3.931  0.2934 -0.4455  0.0388
  586MOL0     O77267   6.117  11.712   4.282  0.8631 -0.3732  0.0984
  586MOL0     C77268   6.094  11.866   4.503  0.6545 -0.7938 -1.0563
  586MOL0     C77269   6.070  11.947   4.618 -0.5777 -0.5732  0.3468
  586MOL0     N77270   6.130  11.911   5.267 -0.6489 -0.5670  0.5985
  586MOL0     N77271   6.116  11.893   5.397 -0.3113  0.5498  0.8028
  586MOL0     C77272   6.873  11.218   5.862  1.2865 -0.9341  0.1836
  586MOL0     C77273   6.892  11.084   5.844  0.6458 -0.0025  0.2895
  586MOL0     C77274   6.964  10.660   5.917  0.0740  0.7253 -0.0378
  586MOL0     C77275   7.090  10.598   5.944 -0.1433 -0.6027  0.4671
  586MOL0     C77276   7.115  10.462   5.938  0.4503  1.1011  0.0626
  586MOL0     C77277   7.014  10.379   5.891 -0.2675 -0.7570 -0.8189
  586MOL0     O77278   7.028  10.242   5.888 -0.2048  0.0625  0.0119
  586MOL0     C77279   7.158  10.188   5.860 -0.5593 -0.5144 -0.0554
  586MOL0     C77280   7.166  10.028   5.842  0.0147 -0.3636  0.6534
  586MOL0     C77281   7.093   9.981   5.718 -0.2888  1.1352 -1.1588
  586MOL0     C77282   7.194   9.969   5.608  0.1537  0.4386  0.9207
  586MOL0     C77283   7.255   9.835   5.600 -0.3006 -1.3208 -0.7642
  586MOL0     C77284   7.322   9.726   5.603 -0.2810 -0.3403  0.8378
  586MOL0     C77285   6.890  10.427   5.869  0.6000 -1.1388  0.6535
  586MOL0     C77286   6.864  10.569   5.880 -0.9410 -0.1605  0.8874
  586MOL0     H77287   6.616  10.984   5.982 -0.6026  1.5825 -1.6472
  586MOL0     H77288   6.585  11.238   6.002 -0.3954 -0.9440 -0.0670
  586MOL0     H77289   6.917  11.478   5.837  0.6153  0.1598  1.0468
  586MOL0     H77290   6.871  11.549   5.992 -0.8235 -2.9452  1.3249
  586MOL0     H77291   6.737  11.596   5.706  3.0462 -3.2574  0.1892
  586MOL0     H77292   6.827  11.712   5.784 -0.0060 -0.3780 -1.7263
  586MOL0     H77293   6.661  11.715   5.992 -1.5904  0.6005  0.5217
  586MOL0     H77294   6.574  11.595   5.907  4.0817 -3.1180  0.1638
  586MOL0     H77295   6.648  11.893   5.843  0.6325 -0.0782 -0.8798
  586MOL0     H77296   6.568  11.788   5.718 -1.7319 -0.4677  0.1876
  586MOL0     H77297   6.455  11.879   5.985 -0.3355  5.3872 -1.8995
  586MOL0     H77298   6.395  11.745   5.887  0.8430 -1.0146 -3.7245
  586MOL0     H77299   6.428  12.036   5.800 -0.3118 -0.1008 -1.5082
  586MOL0     H77300   6.278  11.956   5.851  0.1150 -1.8618  1.1424
  586MOL0     H77301   6.417  11.936   5.584 -0.2716 -1.8841 -1.4586
  586MOL0     H77302   6.322  11.802   5.639 -0.4438 -0.6713 -0.7435
  586MOL0     H77303   6.218  12.097   5.645 -0.0105  0.3924 -0.2596
  586MOL0     H77304   6.119  11.953   5.668 -1.4157  2.3460  0.7159
  586MOL0     H77305   6.349  12.117   5.386 -0.9172  1.9133  0.4932
  586MOL0     H77306   6.225  12.015   5.029 -3.6362 -1.2953  0.6226
  586MOL0     H77307   6.333  12.137   5.099  0.1288  0.1730  0.5123
  586MOL0     H77308   6.146  12.295   5.131 -0.3120  1.3141 -0.7512
  586MOL0     H77309   6.032  12.161   5.140  0.8383 -1.8415  0.8025
  586MOL0     H77310   6.006  12.291   4.930 -0.2200 -1.2412 -0.0336
  586MOL0     H77311   6.176  12.298   4.907  0.5024  0.2609  1.5339
  586MOL0     H77312   6.024  12.027   4.892  3.0522 -2.2036  0.2645
  586MOL0     H77313   6.177  12.071   4.823  0.0267  1.6565 -1.7303
  586MOL0     H77314   5.909  12.216   4.479 -3.0565 -1.8436 -1.2588
  586MOL0     H77315   5.960  12.069   4.270  1.0170  0.8928 -0.6634
  586MOL0     H77316   5.906  11.588   4.202 -1.3878 -1.8609 -0.2288
  586MOL0     H77317   5.812  11.451   4.034 -3.1160  1.6424  2.5328
  586MOL0     H77318   5.671  11.466   3.597 -4.4588 -1.1453  1.5258
  586MOL0     H77319   5.749  11.623   3.606 -0.6537 -0.0660  1.1881
  586MOL0     H77320   5.566  11.674   3.771  0.4392  2.3198 -1.5302
  586MOL0     H77321   5.499  11.506   3.728  0.4500 -0.0778 -1.7458
  586MOL0     H77322   5.396  11.663   3.570  0.6748  2.7499 -0.4341
  586MOL0     H77323   5.531  11.606   3.472  2.1710  1.7305 -1.4102
  586MOL0     H77324   5.531  11.864   3.636  1.9164  2.6110 -0.4839
  586MOL0     H77325   5.655  11.815   3.520  0.2267 -1.0640  0.1064
  586MOL0     H77326   5.355  11.893   3.489  2.1320  0.3618  4.0462
  586MOL0     H77327   5.429  11.786   3.360  1.4290  1.4051 -1.1794
  586MOL0     H77328   5.594  11.968   3.326  0.2776 -3.5797  1.6713
  586MOL0     H77329   5.504  12.069   3.431  1.4984 -0.8555  0.2057
  586MOL0     H77330   5.448  11.951   3.158  0.2488  0.0927  0.6375
  586MOL0     H77331   5.299  11.974   3.254 -1.3890  1.3768  1.1765
  586MOL0     H77332   5.307  12.197   3.271  0.1557  1.4366  0.4810
  586MOL0     H77333   5.353  12.171   3.103  1.3567  1.2052 -0.8104
  586MOL0     H77334   5.836  11.777   3.739 -2.0753  2.9144  2.0920
  586MOL0     H77335   5.937  11.913   3.903 -1.9590 -0.7289 -3.3171
  586MOL0     H77336   6.154  11.776   4.498  0.6029 -0.9203  0.1719
  586MOL0     H77337   6.117  11.909   4.708  0.6602  2.5675  1.1699
  586MOL0     H77338   6.959  11.265   5.816  2.4776 -0.3923  2.7811
  586MOL0     H77339   6.981  11.057   5.788  0.8895  0.9130  0.2098
  586MOL0     H77340   7.167  10.667   5.977 -0.1127 -0.2906 -0.2461
  586MOL0     H77341   7.208  10.421   5.977 -0.9002 -3.1707 -0.6530
  586MOL0     H77342   7.236  10.222   5.929  1.1189  3.1998 -3.3290
  586MOL0     H77343   7.192  10.230   5.764  2.8271 -3.4097 -0.3439
  586MOL0     H77344   7.270   9.995   5.839 -0.0594 -0.5042 -0.6883
  586MOL0     H77345   7.119   9.976   5.926  0.3646 -1.5347  0.1324
  586MOL0     H77346   7.015  10.057   5.706 -2.3165 -0.4499  1.1403
  586MOL0     H77347   7.050   9.883   5.740  3.7512 -0.7467 -0.7276
  586MOL0     H77348   7.149   9.990   5.511  2.3875  1.3070  0.0167
  586MOL0     H77349   7.280  10.035   5.624  1.7210 -1.7611  2.1444
  586MOL0     H77350   7.385   9.639   5.608  3.6230  2.3035  3.2067
  586MOL0     H77351   6.819  10.350   5.840 -0.3329  0.0183 -0.2299
  586MOL0     H77352   6.760  10.596   5.865 -1.1290 -1.4675 -0.4147
  587MOL0     O77353   7.584   5.674   0.739  0.8898 -0.0030 -0.4783
  587MOL0     C77354   7.536   5.727   0.842 -0.8998  0.0805 -0.6526
  587MOL0     O77355   7.585   5.834   0.918 -0.0716 -0.1458 -0.2840
  587MOL0     C77356   7.697   5.901   0.880  0.0075 -0.6156  0.9250
  587MOL0     C77357   7.808   5.921   0.970  0.5387 -0.5810 -0.2984
  587MOL0     C77358   7.918   6.000   0.933 -0.5436 -0.7720 -0.9839
  587MOL0     C77359   7.934   6.055   0.802  0.0427  0.3873 -0.2974
  587MOL0     O77360   8.043   6.132   0.768 -0.1475  0.2346  0.1853
  587MOL0     C77361   8.063   6.196   0.638 -0.4605 -0.6983 -0.2595
  587MOL0     C77362   8.208   6.263   0.637 -0.2932 -0.3540  0.8071
  587MOL0     C77363   8.241   6.319   0.496 -0.5231 -0.1817  0.4467
  587MOL0     C77364   8.389   6.377   0.501  0.2634  0.3019 -0.2546
  587MOL0     C77365   8.405   6.498   0.404 -0.0719 -0.4391 -0.0760
  587MOL0     C77366   8.547   6.556   0.407 -1.5637  0.2009 -0.5179
  587MOL0     C77367   8.661   6.450   0.387  0.2846  0.4948  0.7242
  587MOL0     C77368   8.793   6.519   0.362  0.1270 -0.5117  0.2577
  587MOL0     N77369   8.835   6.610   0.470  0.1472  0.9577  0.0676
  587MOL0     C77370   8.833   6.562   0.600  0.5785 -0.2096  0.0043
  587MOL0     C77371   8.835   6.668   0.691  0.5548  0.1759 -0.1918
  587MOL0     C77372   8.819   6.657   0.836 -1.3001 -0.2875  0.0862
  587MOL0     C77373   8.684   6.614   0.874  0.0650  0.5738 -0.3748
  587MOL0     C77374   8.581   6.722   0.857  0.7955  0.1906  0.7106
  587MOL0     C77375   8.464   6.705   0.950  0.6514  0.4086 -0.3356
  587MOL0     O77376   8.398   6.581   0.929  0.4384 -0.1220 -0.0057
  587MOL0     C77377   8.265   6.592   0.897  0.3794  0.4641  0.1950
  587MOL0     C77378   8.170   6.551   0.988  0.8024 -1.3401 -0.4452
  587MOL0     C77379   8.036   6.556   0.953 -0.3779  0.3851  0.3363
  587MOL0     C77380   7.997   6.557   0.810 -0.2125 -0.1332  0.0094
  587MOL0     C77381   7.861   6.528   0.777 -0.9886 -0.3794  0.3778
  587MOL0     O77382   7.785   6.459   0.858 -0.2909 -0.1085  0.2733
  587MOL0     C77383   7.672   6.397   0.822 -0.6381  0.2903  0.5293
  587MOL0     C77384   7.653   6.268   0.864  0.9424 -0.4580 -0.6805
  587MOL0     C77385   7.529   6.209   0.842 -0.1669  0.5074 -0.7113
  587MOL0     C77386   7.425   6.274   0.780 -0.2315  0.2782  0.4571
  587MOL0     O77387   7.303   6.202   0.766 -0.1729  0.3005 -0.3025
  587MOL0     C77388   7.224   6.230   0.643 -0.7250 -0.6201  0.0699
  587MOL0     C77389   7.080   6.177   0.659  0.5458 -0.5214 -0.1371
  587MOL0     C77390   7.008   6.193   0.516  0.8670 -0.0775 -0.7773
  587MOL0     C77391   7.001   6.344   0.486  0.1840 -0.5172 -0.0292
  587MOL0     C77392   7.094   6.388   0.372 -0.5453  0.8432  0.9196
  587MOL0     C77393   7.173   6.518   0.399  0.5315  0.7518 -0.2568
  587MOL0     C77394   7.270   6.580   0.297 -0.5792 -0.6023  0.1763
  587MOL0     C77395   7.206   6.559   0.153  0.4935  0.6821 -0.0625
  587MOL0    Cl77396   7.263   6.677   0.023  0.1066 -0.2405 -0.1869
  587MOL0     C77397   7.443   6.404   0.735 -0.0462 -0.4979  0.1057
  587MOL0     C77398   7.565   6.471   0.758 -0.2699 -0.7086  0.7207
  587MOL0     O77399   7.838   6.569   0.658 -0.4638 -0.1069  0.0229
  587MOL0     C77400   8.098   6.609   0.721 -0.0546  1.0430  0.1846
  587MOL0     C77401   8.224   6.619   0.767 -0.3348 -0.1360  0.3918
  587MOL0     N77402   8.845   6.777   0.608 -1.3926 -0.3763 -0.6076
  587MOL0     N77403   8.837   6.746   0.487  0.4486  0.1204  0.1723
  587MOL0     C77404   7.819   6.039   0.715 -0.3231 -0.2642  0.1429
  587MOL0     C77405   7.707   5.964   0.756  0.6052 -0.4310 -0.1676
  587MOL0     C77406   7.400   5.678   0.884  0.4730  0.7357  0.1867
  587MOL0     C77407   7.333   5.722   1.006  0.4036  0.7527  1.1947
  587MOL0     C77408   7.225   5.655   1.049 -0.3369  0.0393 -1.4176
  587MOL0     C77409   7.151   5.565   0.970 -0.5655 -0.1041  0.9397
  587MOL0     O77410   7.051   5.499   1.037  0.3398 -0.2638  0.7146
  587MOL0     C77411   6.975   5.392   0.982 -0.2950 -0.0947  0.6775
  587MOL0     C77412   6.885   5.463   0.870 -0.4776  0.4082 -0.5245
  587MOL0     C77413   6.808   5.367   0.784  0.5392 -0.5920 -0.0178
  587MOL0     C77414   6.895   5.262   0.713  1.1290 -0.6524  1.2438
  587MOL0     C77415   6.876   5.130   0.777  0.4478 -0.1346 -0.2761
  587MOL0     C77416   6.873   5.017   0.836 -0.4599  0.7393 -0.1209
  587MOL0     C77417   7.216   5.521   0.855  0.7082  0.3722 -0.0610
  587MOL0     C77418   7.340   5.576   0.819 -0.1666 -0.1397  0.5819
  587MOL0     H77419   7.809   5.872   1.066 -1.5585 -1.7169 -0.7856
  587MOL0     H77420   7.991   6.015   1.012  0.5049 -1.8089 -1.7266
  587MOL0     H77421   7.987   6.274   0.632  0.3338  0.0066 -1.9751
  587MOL0     H77422   8.054   6.126   0.554 -3.6593  0.3363 -0.9297
  587MOL0     H77423   8.285   6.190   0.662 -1.4655 -1.0740  2.5307
  587MOL0     H77424   8.212   6.351   0.702 -1.9260 -0.4263  1.0442
  587MOL0     H77425   8.173   6.401   0.475  1.6416  2.3836  2.6128
  587MOL0     H77426   8.241   6.255   0.408 -0.6469  2.9905 -2.0223
  587MOL0     H77427   8.411   6.400   0.606  2.1160 -1.0210 -0.3128
  587MOL0     H77428   8.468   6.308   0.473 -0.6480 -0.0087 -2.2113
  587MOL0     H77429   8.333   6.575   0.430 -0.8282 -1.3147  0.4874
  587MOL0     H77430   8.379   6.459   0.305 -1.4674  0.2596 -0.0027
  587MOL0     H77431   8.544   6.592   0.511  1.7160 -2.2888  0.6236
  587MOL0     H77432   8.557   6.636   0.334  0.4498  1.8801  1.4818
  587MOL0     H77433   8.672   6.384   0.474  1.2534 -1.2188 -0.6378
  587MOL0     H77434   8.635   6.396   0.296  1.9516  2.1784 -0.8571
  587MOL0     H77435   8.788   6.573   0.267  3.2387  2.1699  1.4326
  587MOL0     H77436   8.859   6.433   0.346  0.4469 -0.7055  2.3534
  587MOL0     H77437   8.823   6.457   0.629 -0.2024 -0.1521 -0.0316
  587MOL0     H77438   8.849   6.755   0.874 -0.3825 -1.0707  1.4860
  587MOL0     H77439   8.902   6.602   0.882 -1.6036 -0.1819  0.7722
  587MOL0     H77440   8.674   6.578   0.977  1.6371  3.3728  0.8563
  587MOL0     H77441   8.652   6.536   0.803 -0.8991 -2.0997  2.7542
  587MOL0     H77442   8.620   6.825   0.865 -3.7117  2.2137 -0.3913
  587MOL0     H77443   8.543   6.728   0.755  1.6507  0.3264  0.3844
  587MOL0     H77444   8.395   6.789   0.940  3.4833  3.0914  0.8986
  587MOL0     H77445   8.503   6.719   1.051  0.9502  0.6595 -0.4865
  587MOL0     H77446   8.196   6.523   1.090  0.5345 -2.9885 -0.8002
  587MOL0     H77447   7.969   6.538   1.036 -0.6153  0.2385  0.1168
  587MOL0     H77448   7.737   6.216   0.909  3.4298  1.3743 -2.9137
  587MOL0     H77449   7.520   6.104   0.868  2.0039  1.0383  3.0239
  587MOL0     H77450   7.274   6.192   0.553 -1.8910 -0.9282 -0.4790
  587MOL0     H77451   7.224   6.340   0.639 -2.6814 -0.5797  0.3786
  587MOL0     H77452   7.023   6.226   0.738  1.4594 -1.3265  1.0649
  587MOL0     H77453   7.094   6.073   0.691  1.3889  0.4004  2.7199
  587MOL0     H77454   6.903   6.169   0.533 -0.0370  4.5225  2.1168
  587MOL0     H77455   7.045   6.136   0.430 -0.8568  0.2500 -1.7901
  587MOL0     H77456   6.902   6.373   0.451  1.1002  3.9269  0.5366
  587MOL0     H77457   7.029   6.410   0.568 -0.5827 -0.4721  0.2083
  587MOL0     H77458   7.036   6.385   0.279  1.9029 -0.7280 -0.6586
  587MOL0     H77459   7.166   6.307   0.360 -1.7541 -0.3745  1.5693
  587MOL0     H77460   7.222   6.500   0.496 -0.2708  2.7651  0.5815
  587MOL0     H77461   7.098   6.595   0.420  0.2131 -0.0113  1.6267
  587MOL0     H77462   7.280   6.688   0.314 -4.1010 -0.3281  1.3841
  587MOL0     H77463   7.369   6.533   0.303 -0.5155 -0.4645  0.2037
  587MOL0     H77464   7.100   6.583   0.163  0.0710 -1.2150  0.4671
  587MOL0     H77465   7.219   6.457   0.115  1.1585  0.3734  0.9424
  587MOL0     H77466   7.367   6.462   0.682  0.5613 -0.1719 -0.4132
  587MOL0     H77467   7.571   6.578   0.740  0.6208 -0.6838  1.0811
  587MOL0     H77468   8.097   6.616   0.613  2.5263  0.0220  0.0422
  587MOL0     H77469   8.300   6.651   0.697 -2.1000 -3.0894 -3.2359
  587MOL0     H77470   7.817   6.093   0.621 -2.2140  2.5228  1.6593
  587MOL0     H77471   7.622   5.948   0.690 -1.4790  2.2158  1.6667
  587MOL0     H77472   7.378   5.793   1.075  0.7674  0.1897  1.5461
  587MOL0     H77473   7.188   5.678   1.148 -1.0720 -2.9407 -0.8943
  587MOL0     H77474   6.913   5.329   1.047 -0.6469 -3.2316 -2.4009
  587MOL0     H77475   7.043   5.322   0.932  1.8513  3.4342 -1.8033
  587MOL0     H77476   6.808   5.516   0.927 -0.4176 -1.1373  1.1072
  587MOL0     H77477   6.937   5.532   0.803 -1.6687  0.3903 -1.5176
  587MOL0     H77478   6.768   5.441   0.714  1.2749  1.6802  1.8324
  587MOL0     H77479   6.717   5.337   0.837 -1.0150  2.3124 -0.8573
  587MOL0     H77480   6.851   5.251   0.613  0.8510  0.2836  1.2544
  587MOL0     H77481   7.003   5.281   0.706  0.9792  0.0964  0.7863
  587MOL0     H77482   6.866   4.927   0.893 -3.6972  0.4914 -0.7341
  587MOL0     H77483   7.163   5.452   0.790 -3.7308  1.3714  2.1564
  587MOL0     H77484   7.378   5.515   0.738 -0.9339  0.9151 -0.6237
  588MOL0     O77485   7.538  10.488   6.650 -0.1576 -0.3862  0.5855
  588MOL0     C77486   7.622  10.458   6.559  0.7130  0.0759  0.6377
  588MOL0     O77487   7.590  10.441   6.431 -0.1099  0.0348  0.0750
  588MOL0     C77488   7.456  10.398   6.416  0.3981 -0.5297  0.2226
  588MOL0     C77489   7.372  10.492   6.360  0.4924  0.0355  0.3500
  588MOL0     C77490   7.242  10.451   6.338 -0.0610 -0.1205  0.1595
  588MOL0     C77491   7.205  10.316   6.359  0.4381 -0.7437 -0.4477
  588MOL0     O77492   7.075  10.273   6.357 -0.1398  0.2618 -0.2943
  588MOL0     C77493   6.991  10.313   6.246 -1.1379 -0.0532 -0.3784
  588MOL0     C77494   6.893  10.422   6.280 -0.2265  0.1134 -0.3964
  588MOL0     C77495   6.832  10.408   6.421  0.0916 -0.0195 -0.6937
  588MOL0     C77496   6.755  10.277   6.444  0.4009 -0.3009  0.3817
  588MOL0     C77497   6.723  10.239   6.589 -0.9166 -0.1485  0.1567
  588MOL0     C77498   6.845  10.203   6.678  0.1728 -0.5106 -0.1292
  588MOL0     C77499   6.907  10.066   6.635  0.0980  0.1588 -0.7111
  588MOL0     C77500   7.002  10.006   6.735  0.2724 -1.3185 -0.2292
  588MOL0     N77501   7.071   9.907   6.659 -0.3964 -0.3667 -0.0217
  588MOL0     C77502   7.006   9.818   6.579 -0.1412 -0.5010  0.6513
  588MOL0     C77503   7.105   9.768   6.489  0.8637  0.3393 -0.1491
  588MOL0     C77504   7.073   9.665   6.388  0.0689  0.0317  0.0310
  588MOL0     C77505   7.020   9.735   6.266 -0.0445 -0.2662 -0.3190
  588MOL0     C77506   7.127   9.824   6.199  0.0827 -0.5036 -0.7414
  588MOL0     C77507   7.212   9.752   6.094  0.0499  0.2424  0.0146
  588MOL0     O77508   7.122   9.706   5.984 -0.9975 -0.8073  0.3969
  588MOL0     C77509   7.169   9.602   5.913  0.7689 -0.4700 -0.1509
  588MOL0     C77510   7.299   9.539   5.926 -0.1869 -0.8005 -0.3877
  588MOL0     C77511   7.333   9.433   5.854 -0.7313 -0.2538 -0.8514
  588MOL0     C77512   7.252   9.389   5.755 -0.5946 -0.0471 -0.4334
  588MOL0     C77513   7.296   9.278   5.665 -0.5362 -0.1299  0.1317
  588MOL0     O77514   7.433   9.243   5.676  0.2302 -0.2251  0.3358
  588MOL0     C77515   7.486   9.147   5.599  0.0834  0.3140  0.3748
  588MOL0     C77516   7.533   9.025   5.656  0.8977  0.0893  0.7535
  588MOL0     C77517   7.611   8.930   5.584  0.6251 -0.2943  0.1050
  588MOL0     C77518   7.646   8.953   5.457  0.1228  0.5105  0.4973
  588MOL0     O77519   7.711   8.854   5.398 -0.3630  0.2179 -0.3444
  588MOL0     C77520   7.826   8.882   5.324 -0.0823  1.1080 -0.1720
  588MOL0     C77521   7.889   8.754   5.278 -0.2100 -0.1960  0.1360
  588MOL0     C77522   7.926   8.661   5.398  0.4372 -0.7542  0.5511
  588MOL0     C77523   8.013   8.539   5.355 -0.4009  0.2905  0.6661
  588MOL0     C77524   8.055   8.458   5.481 -0.9614 -0.4973 -0.0528
  588MOL0     C77525   8.145   8.334   5.453 -0.3613 -0.0931  0.5419
  588MOL0     C77526   8.287   8.361   5.384 -0.4098 -0.4587  0.0800
  588MOL0     C77527   8.342   8.237   5.312 -1.2627  0.1637 -0.1311
  588MOL0    Cl77528   8.497   8.273   5.238  0.6297  0.3757 -0.1023
  588MOL0     C77529   7.596   9.069   5.388  0.1913 -0.8752  1.3426
  588MOL0     C77530   7.516   9.165   5.460 -0.0269  0.0283 -1.3398
  588MOL0     O77531   7.212   9.210   5.612 -0.1808 -0.3772 -0.0104
  588MOL0     C77532   7.118   9.428   5.750  0.6391 -0.7495 -0.1563
  588MOL0     C77533   7.079   9.539   5.824 -0.3237  0.0217 -0.9424
  588MOL0     N77534   7.219   9.834   6.523 -0.5165  0.0009  0.3517
  588MOL0     N77535   7.201   9.914   6.627  0.0200  0.7017  0.2252
  588MOL0     C77536   7.299  10.234   6.415  1.1169  0.8034 -0.7813
  588MOL0     C77537   7.422  10.264   6.441 -0.0139  0.1342 -0.4724
  588MOL0     C77538   7.758  10.441   6.606 -0.3498  0.1657  0.3968
  588MOL0     C77539   7.797  10.400   6.737 -0.5181 -0.1545  1.0014
  588MOL0     C77540   7.928  10.402   6.780 -0.8946  0.0106 -0.2125
  588MOL0     C77541   8.025  10.448   6.693  0.4465 -0.4791 -0.4555
  588MOL0     O77542   8.157  10.463   6.729  0.8251  0.1202  0.4172
  588MOL0     C77543   8.203  10.398   6.849  0.5192 -0.3689 -0.4242
  588MOL0     C77544   8.354  10.369   6.854  0.7747  1.0864  0.2786
  588MOL0     C77545   8.422  10.287   6.740 -0.1016  0.3713 -1.4901
  588MOL0     C77546   8.449  10.364   6.616  0.0482 -0.0922 -0.3810
  588MOL0     C77547   8.572  10.326   6.557 -0.0171  0.4363  0.6612
  588MOL0     C77548   8.675  10.290   6.514  0.2204  0.2936 -0.0387
  588MOL0     C77549   7.992  10.477   6.565  0.9122  0.6755  1.1218
  588MOL0     C77550   7.865  10.484   6.523 -0.1405 -0.0147  1.0030
  588MOL0     H77551   7.416  10.584   6.323 -0.3093 -0.7464 -2.8927
  588MOL0     H77552   7.160  10.518   6.314  0.3098  0.1935 -0.2595
  588MOL0     H77553   6.933  10.231   6.203  1.0796 -1.1033 -1.5542
  588MOL0     H77554   7.053  10.352   6.165 -2.0738 -0.4199 -1.2960
  588MOL0     H77555   6.815  10.405   6.204 -1.1114 -2.0341  0.9007
  588MOL0     H77556   6.934  10.521   6.257  2.8924 -0.4274  2.1138
  588MOL0     H77557   6.765  10.493   6.437  1.3035  0.9332 -0.4754
  588MOL0     H77558   6.910  10.421   6.497 -1.8922  0.0246  1.4576
  588MOL0     H77559   6.662  10.278   6.386  1.4010  1.0513 -1.2639
  588MOL0     H77560   6.831  10.204   6.415  1.7734  0.8342  0.9983
  588MOL0     H77561   6.653  10.155   6.586 -1.6710  0.4759 -2.1990
  588MOL0     H77562   6.669  10.326   6.626  1.5264  0.5586  2.3499
  588MOL0     H77563   6.794  10.184   6.773  0.2886 -0.5080 -0.0663
  588MOL0     H77564   6.913  10.289   6.680  0.9519 -0.9627 -2.6850
  588MOL0     H77565   6.824   9.994   6.628  1.3589 -1.7186  1.9641
  588MOL0     H77566   6.959  10.084   6.540  3.1369  2.3996  1.2065
  588MOL0     H77567   6.945   9.976   6.823 -1.6033  2.0949 -0.0936
  588MOL0     H77568   7.078  10.073   6.776 -0.7868 -0.9121  1.1268
  588MOL0     H77569   6.899   9.800   6.588 -1.1638  4.5274  1.3337
  588MOL0     H77570   6.985   9.605   6.412 -0.7412  1.3585  0.4859
  588MOL0     H77571   7.163   9.606   6.366 -1.1869 -2.8192  2.0778
  588MOL0     H77572   6.936   9.795   6.304 -1.7397 -0.6767 -3.1402
  588MOL0     H77573   6.981   9.663   6.194  2.4473  0.0250 -2.0760
  588MOL0     H77574   7.086   9.899   6.131 -0.4221 -0.3075 -0.2244
  588MOL0     H77575   7.180   9.893   6.266  0.1998  0.3518 -1.6780
  588MOL0     H77576   7.261   9.677   6.156 -3.0309  0.4508  2.9748
  588MOL0     H77577   7.294   9.812   6.054  0.1676  0.1980  0.1915
  588MOL0     H77578   7.370   9.578   5.998 -2.0373 -1.6984  2.0516
  588MOL0     H77579   7.430   9.396   5.886  0.1148  0.8275 -2.0438
  588MOL0     H77580   7.503   9.005   5.759  0.6771  0.0082  0.6719
  588MOL0     H77581   7.650   8.852   5.650 -1.0022  0.8470  2.5662
  588MOL0     H77582   7.892   8.944   5.387 -0.5982  0.7661  0.7210
  588MOL0     H77583   7.801   8.939   5.234 -1.6278  0.1564 -0.3801
  588MOL0     H77584   7.973   8.784   5.214 -1.0815  1.5951 -0.2501
  588MOL0     H77585   7.816   8.699   5.219 -3.2827  3.4799  0.1050
  588MOL0     H77586   7.845   8.628   5.463  0.2668  0.8663  1.2109
  588MOL0     H77587   7.991   8.720   5.463 -1.1951  0.2538  1.3317
  588MOL0     H77588   7.953   8.478   5.287  0.9259 -1.0534  0.6308
  588MOL0     H77589   8.105   8.574   5.308 -0.4657  0.2388  0.5011
  588MOL0     H77590   7.960   8.422   5.521 -0.7520 -1.9198 -0.7592
  588MOL0     H77591   8.109   8.519   5.553  0.4668 -0.9868 -0.6854
  588MOL0     H77592   8.088   8.265   5.389  3.5523 -3.2319  0.0852
  588MOL0     H77593   8.155   8.288   5.552  1.2037 -1.1273 -0.0573
  588MOL0     H77594   8.272   8.436   5.305  1.4675 -2.2488 -2.1126
  588MOL0     H77595   8.356   8.403   5.458 -0.0773  2.6186 -1.8081
  588MOL0     H77596   8.267   8.214   5.236 -3.9407  0.0284  2.4107
  588MOL0     H77597   8.351   8.150   5.376 -2.5261  0.7408  0.8742
  588MOL0     H77598   7.622   9.078   5.283 -1.7869 -0.4422  0.8581
  588MOL0     H77599   7.497   9.258   5.407  0.4369  1.7438  1.3123
  588MOL0     H77600   7.048   9.386   5.679 -2.0187  0.5285  1.5354
  588MOL0     H77601   6.983   9.588   5.818  0.1271  0.8739 -1.5426
  588MOL0     H77602   7.272  10.137   6.455 -0.8307  1.3977 -0.5284
  588MOL0     H77603   7.496  10.197   6.484 -0.0268  0.0685 -0.5524
  588MOL0     H77604   7.728  10.356   6.809  0.0836 -1.5659  0.7408
  588MOL0     H77605   7.962  10.372   6.879  2.0179 -3.3793 -2.0157
  588MOL0     H77606   8.152  10.304   6.870 -0.5640  0.2781 -0.0863
  588MOL0     H77607   8.172  10.463   6.931 -0.1565 -0.4287 -0.6236
  588MOL0     H77608   8.399  10.464   6.886 -0.4540  0.9439  2.6783
  588MOL0     H77609   8.363  10.305   6.942 -0.7640  0.3586 -0.0498
  588MOL0     H77610   8.372  10.190   6.731 -1.6943  1.0552 -0.4636
  588MOL0     H77611   8.517  10.253   6.782 -0.0469  0.2343 -1.7242
  588MOL0     H77612   8.369  10.346   6.544 -0.4208  0.4228 -0.0006
  588MOL0     H77613   8.433  10.471   6.629 -1.5182 -0.1747 -1.2855
  588MOL0     H77614   8.773  10.263   6.481 -0.1110 -2.7437  1.0881
  588MOL0     H77615   8.075  10.501   6.500  0.3416  2.0536  0.8706
  588MOL0     H77616   7.839  10.526   6.426  1.7193  0.0526  0.5034
  589MOL0     O77617   3.549   6.062   2.270  0.4239 -1.0267 -0.1549
  589MOL0     C77618   3.486   5.965   2.316  0.0877 -1.1607  0.6332
  589MOL0     O77619   3.361   5.932   2.274 -0.5439 -0.0635  0.5444
  589MOL0     C77620   3.301   6.011   2.170  0.0879 -0.6601 -0.0834
  589MOL0     C77621   3.248   5.939   2.061 -0.5932 -0.6573  0.1534
  589MOL0     C77622   3.178   6.000   1.962 -0.5217 -0.5214 -0.1927
  589MOL0     C77623   3.146   6.130   1.962  0.4050  0.0171  0.3747
  589MOL0     O77624   3.064   6.182   1.866 -0.9304  0.3493  0.1341
  589MOL0     C77625   2.934   6.122   1.866  0.3990  0.3055 -0.0068
  589MOL0     C77626   2.821   6.222   1.855  0.1851 -0.0353 -0.6363
  589MOL0     C77627   2.804   6.271   1.701  0.3726  0.3551 -0.5616
  589MOL0     C77628   2.938   6.303   1.618  0.2302 -0.4328 -0.2320
  589MOL0     C77629   2.894   6.332   1.469  0.3010  0.0837 -1.1149
  589MOL0     C77630   2.828   6.208   1.396 -0.3543 -0.0512 -0.0710
  589MOL0     C77631   2.778   6.250   1.257 -0.5127  0.5989  0.3825
  589MOL0     C77632   2.898   6.247   1.150 -0.6976  0.2426 -0.4453
  589MOL0     N77633   2.841   6.251   1.012 -0.5017  0.9075  0.2112
  589MOL0     C77634   2.775   6.356   0.954 -0.1837 -0.1584 -0.2315
  589MOL0     C77635   2.753   6.317   0.826  0.1311  0.1894  0.8583
  589MOL0     C77636   2.699   6.401   0.714  0.1743 -0.2043  0.0702
  589MOL0     C77637   2.742   6.546   0.727 -0.1792 -0.4038 -0.2536
  589MOL0     C77638   2.678   6.640   0.621  0.4413 -0.5863  0.1353
  589MOL0     C77639   2.521   6.646   0.635  0.4365 -0.3246 -0.2257
  589MOL0     O77640   2.480   6.674   0.770  0.5339  0.4121  0.4609
  589MOL0     C77641   2.352   6.705   0.795 -0.3807 -0.6253  0.1438
  589MOL0     C77642   2.313   6.837   0.792  1.0608  0.1889  0.2532
  589MOL0     C77643   2.180   6.864   0.833 -0.2462 -0.2698 -0.9696
  589MOL0     C77644   2.098   6.770   0.896 -0.0949 -0.3324  0.0285
  589MOL0     C77645   1.967   6.802   0.958  0.5919  0.9561  0.1450
  589MOL0     O77646   1.929   6.936   0.957 -0.6358  0.4544 -0.0143
  589MOL0     C77647   1.802   6.969   0.996  0.3515  0.1752  0.3905
  589MOL0     C77648   1.770   7.004   1.128  0.0452  0.4647 -0.9996
  589MOL0     C77649   1.648   7.053   1.164  0.1693 -0.0494  0.2074
  589MOL0     C77650   1.543   7.058   1.063  0.4160 -0.8662  0.2545
  589MOL0     O77651   1.422   7.105   1.114  0.9709 -0.5821  0.3326
  589MOL0     C77652   1.413   7.243   1.164 -0.1184  0.5285 -0.2234
  589MOL0     C77653   1.282   7.306   1.197 -0.0178  0.2159 -0.8752
  589MOL0     C77654   1.248   7.272   1.342  0.5027  0.3100  0.0059
  589MOL0     C77655   1.239   7.125   1.372  0.0906  0.3240 -0.6265
  589MOL0     C77656   1.199   7.090   1.516  0.4267  0.0409  0.5605
  589MOL0     C77657   1.242   6.951   1.555  0.4307 -0.3182 -0.7998
  589MOL0     C77658   1.250   6.908   1.703  0.8884  0.3343 -0.0434
  589MOL0     C77659   1.117   6.830   1.741  0.4785 -0.1770  1.0451
  589MOL0    Cl77660   1.092   6.692   1.638  0.3636 -0.0231  0.1111
  589MOL0     C77661   1.575   7.026   0.928  0.1124  0.1196  0.5763
  589MOL0     C77662   1.703   6.989   0.899 -0.1856 -0.9652 -0.1860
  589MOL0     O77663   1.896   6.705   0.997  0.0032 -0.2104  0.1382
  589MOL0     C77664   2.151   6.638   0.893 -0.0474 -0.3631 -0.0887
  589MOL0     C77665   2.275   6.599   0.842 -0.3834 -1.5304  0.0686
  589MOL0     N77666   2.807   6.191   0.811  0.0405 -0.2764 -0.7212
  589MOL0     N77667   2.863   6.152   0.917 -0.2385  0.7265 -0.2551
  589MOL0     C77668   3.206   6.211   2.067  0.6151  0.5980  0.3434
  589MOL0     C77669   3.274   6.149   2.174 -0.9577 -0.0022  0.1094
  589MOL0     C77670   3.547   5.894   2.438 -0.7018 -0.3569  1.0165
  589MOL0     C77671   3.666   5.927   2.504 -0.5394 -0.2690 -0.3323
  589MOL0     C77672   3.715   5.865   2.616 -0.4269 -0.0905  0.1161
  589MOL0     C77673   3.652   5.752   2.667 -0.0213  0.5279 -1.0219
  589MOL0     O77674   3.701   5.677   2.774  0.0744 -0.0185  0.4764
  589MOL0     C77675   3.823   5.712   2.839 -0.4456  0.3787  0.4472
  589MOL0     C77676   3.838   5.654   2.981 -0.3051 -0.5923 -0.3376
  589MOL0     C77677   3.778   5.519   3.006  0.6683 -0.0071 -0.4249
  589MOL0     C77678   3.816   5.411   2.907  0.8110 -0.1933 -0.5841
  589MOL0     C77679   3.959   5.399   2.900 -0.3992 -1.1672 -0.0422
  589MOL0     C77680   4.085   5.394   2.889  0.8067  0.0959  0.6057
  589MOL0     C77681   3.529   5.721   2.610 -0.6819  0.0935  0.7522
  589MOL0     C77682   3.488   5.781   2.484 -0.2342 -0.6413 -1.2717
  589MOL0     H77683   3.250   5.830   2.057 -0.7646 -0.6813  0.7190
  589MOL0     H77684   3.133   5.940   1.884 -1.8255  1.0244 -0.6969
  589MOL0     H77685   2.926   6.055   1.952  0.8828  1.0837  0.6730
  589MOL0     H77686   2.919   6.065   1.774  1.2303  3.7737 -2.4950
  589MOL0     H77687   2.836   6.310   1.918 -2.4049 -0.2381  0.3765
  589MOL0     H77688   2.728   6.179   1.893  0.0954 -0.1600 -0.9910
  589MOL0     H77689   2.731   6.352   1.703 -1.6897 -1.3921 -0.5371
  589MOL0     H77690   2.742   6.195   1.651  0.6943 -1.9330  2.2359
  589MOL0     H77691   2.994   6.383   1.667  3.5647 -2.2310 -0.8575
  589MOL0     H77692   3.005   6.217   1.609 -0.1029 -0.9385  1.6918
  589MOL0     H77693   2.975   6.365   1.405  1.0880  0.5907  0.1087
  589MOL0     H77694   2.817   6.409   1.469 -0.3419 -0.5364 -2.3107
  589MOL0     H77695   2.747   6.167   1.458 -0.5401 -2.1055 -1.5470
  589MOL0     H77696   2.896   6.122   1.406 -0.6488 -0.1719  1.0774
  589MOL0     H77697   2.692   6.189   1.226  0.2976 -0.1063 -0.5264
  589MOL0     H77698   2.731   6.349   1.256  0.7151  1.1934 -0.0716
  589MOL0     H77699   2.957   6.157   1.170 -1.2452  0.0114  0.1650
  589MOL0     H77700   2.973   6.325   1.167  0.8567 -1.5810  1.5924
  589MOL0     H77701   2.757   6.451   1.003 -0.4757 -0.3323  0.0033
  589MOL0     H77702   2.593   6.377   0.709 -0.2758  1.7261 -0.4373
  589MOL0     H77703   2.760   6.379   0.626 -2.2473 -0.2600 -1.7018
  589MOL0     H77704   2.852   6.546   0.726 -0.1123  2.2866  0.0513
  589MOL0     H77705   2.702   6.589   0.819 -3.8126  3.4441 -3.2273
  589MOL0     H77706   2.718   6.740   0.637  3.0746 -1.1440 -2.2467
  589MOL0     H77707   2.709   6.614   0.519  3.9877 -0.2084  0.9913
  589MOL0     H77708   2.489   6.542   0.622 -1.6217  0.2482 -0.1279
  589MOL0     H77709   2.465   6.706   0.562 -1.0137  0.2164  1.2891
  589MOL0     H77710   2.383   6.914   0.761  1.6041 -1.4544 -3.1347
  589MOL0     H77711   2.166   6.971   0.839  3.5973  0.3093  0.8416
  589MOL0     H77712   1.860   7.015   1.187 -0.5454  1.4916 -0.2516
  589MOL0     H77713   1.624   7.085   1.265  4.1239  3.0025  0.3844
  589MOL0     H77714   1.466   7.310   1.095 -0.0347 -0.2081 -0.8895
  589MOL0     H77715   1.474   7.250   1.254 -1.0280  3.2224  0.2673
  589MOL0     H77716   1.203   7.259   1.137 -0.5703 -0.8497  0.6252
  589MOL0     H77717   1.294   7.413   1.180  2.1636 -0.0288 -1.1944
  589MOL0     H77718   1.146   7.305   1.365  0.8456  2.3219 -1.1030
  589MOL0     H77719   1.325   7.320   1.403  0.2983  0.7440 -0.0707
  589MOL0     H77720   1.171   7.088   1.295 -0.1743  1.7258 -1.0951
  589MOL0     H77721   1.338   7.082   1.354  0.8235  2.0076 -0.7802
  589MOL0     H77722   1.093   7.108   1.533  1.1159  4.8566  1.3713
  589MOL0     H77723   1.253   7.159   1.582 -0.4101  3.2619 -1.8737
  589MOL0     H77724   1.346   6.945   1.522  0.6651 -1.4743  0.0998
  589MOL0     H77725   1.190   6.882   1.488 -0.6801 -0.8564  0.5462
  589MOL0     H77726   1.330   6.834   1.702 -0.0979 -0.8040 -1.9735
  589MOL0     H77727   1.279   6.982   1.778  1.4578 -1.4242  1.5767
  589MOL0     H77728   1.034   6.898   1.719 -1.0396 -2.7930 -2.1328
  589MOL0     H77729   1.117   6.774   1.835  0.7943 -4.0942 -1.0809
  589MOL0     H77730   1.503   7.034   0.846 -0.3790  0.5031  1.0409
  589MOL0     H77731   1.732   6.957   0.799  2.2566  1.5281 -0.4067
  589MOL0     H77732   2.104   6.558   0.950  1.8965 -0.8036  1.0054
  589MOL0     H77733   2.296   6.492   0.850 -1.6178 -1.6959  1.6775
  589MOL0     H77734   3.178   6.316   2.062 -1.0042  0.1457 -3.7718
  589MOL0     H77735   3.313   6.225   2.241 -3.1132  0.7483  0.5861
  589MOL0     H77736   3.725   6.009   2.465 -2.5922  1.8500  0.7816
  589MOL0     H77737   3.811   5.885   2.663 -0.0197  0.7893 -1.0356
  589MOL0     H77738   3.819   5.820   2.851 -2.6474  0.2444  1.4101
  589MOL0     H77739   3.913   5.680   2.785  0.3355 -0.8704  2.3548
  589MOL0     H77740   3.944   5.632   3.000 -0.2256  0.5988  0.7072
  589MOL0     H77741   3.792   5.730   3.044 -5.1432 -0.5457 -3.3761
  589MOL0     H77742   3.670   5.538   3.002  1.2209  3.9939 -0.9437
  589MOL0     H77743   3.801   5.477   3.105 -1.4490 -0.3600 -0.0398
  589MOL0     H77744   3.764   5.320   2.938  1.7748 -0.3619  0.6536
  589MOL0     H77745   3.785   5.444   2.808  2.3287  1.5009 -0.5664
  589MOL0     H77746   4.188   5.376   2.869  0.8116  0.1168  0.6113
  589MOL0     H77747   3.463   5.638   2.633 -2.6331  1.8382  1.7503
  589MOL0     H77748   3.398   5.749   2.432 -0.0035  0.1133 -2.1600
  590MOL0     O77749   6.344   3.615  11.288 -0.7515 -0.1822 -1.0604
  590MOL0     C77750   6.288   3.710  11.337  0.5337  0.4501 -0.8081
  590MOL0     O77751   6.168   3.752  11.295  0.1550  0.3198 -0.1744
  590MOL0     C77752   6.094   3.710  11.192 -0.2645  0.7071  0.2604
  590MOL0     C77753   6.157   3.712  11.069 -0.3331  0.4091  0.0381
  590MOL0     C77754   6.080   3.666  10.962 -1.2039  1.1434 -0.3827
  590MOL0     C77755   5.956   3.615  10.978 -0.0328 -0.6663  0.2979
  590MOL0     O77756   5.881   3.582  10.866 -0.2184  0.4479 -0.2640
  590MOL0     C77757   5.934   3.469  10.787  0.0173  0.4392 -0.7542
  590MOL0     C77758   5.942   3.504  10.636  0.2739 -0.7616 -0.7522
  590MOL0     C77759   5.972   3.379  10.557 -0.5622 -0.0284  0.0028
  590MOL0     C77760   5.837   3.326  10.509  0.0350 -0.0329  0.7970
  590MOL0     C77761   5.837   3.180  10.459  0.0641 -0.0411 -0.1906
  590MOL0     C77762   5.901   3.174  10.320  0.3666 -0.3047 -0.0565
  590MOL0     C77763   5.902   3.026  10.255 -0.3092 -0.3696  0.0050
  590MOL0     C77764   5.764   2.985  10.198  0.1757 -0.0144 -0.1860
  590MOL0     N77765   5.718   3.071  10.096  0.6749 -0.0541  0.1201
  590MOL0     C77766   5.744   3.077   9.963  0.1157  0.4944  1.8539
  590MOL0     C77767   5.653   3.157   9.911  0.6662 -0.4446  0.4008
  590MOL0     C77768   5.633   3.197   9.767  0.0492 -1.0930  0.0277
  590MOL0     C77769   5.563   3.090   9.688  0.8681  0.6190  0.2720
  590MOL0     C77770   5.409   3.084   9.697 -0.6875  0.0082 -1.1304
  590MOL0     C77771   5.355   3.016   9.582 -0.3496 -0.2216  1.1993
  590MOL0     O77772   5.215   3.034   9.594  0.6111  0.3065  0.5719
  590MOL0     C77773   5.128   2.987   9.497 -0.0876 -0.6170 -0.3286
  590MOL0     C77774   5.017   3.063   9.453  0.4663 -0.4998  0.4285
  590MOL0     C77775   4.942   3.029   9.337  0.8444  0.5317 -0.9642
  590MOL0     C77776   4.964   2.901   9.286 -0.4366  0.4081  0.3675
  590MOL0     C77777   4.868   2.853   9.188  0.3890  0.0037  0.7739
  590MOL0     O77778   4.905   2.737   9.133  0.0131 -0.0300 -1.0668
  590MOL0     C77779   4.813   2.661   9.077 -0.0799 -0.1625  0.6168
  590MOL0     C77780   4.681   2.671   9.073 -0.0670 -0.9214 -0.0356
  590MOL0     C77781   4.608   2.584   8.987  0.3148  0.2946 -0.6060
  590MOL0     C77782   4.670   2.488   8.913  0.1220 -0.0490 -0.2633
  590MOL0     O77783   4.587   2.431   8.815  0.2523 -0.0158  0.5095
  590MOL0     C77784   4.605   2.293   8.782 -0.0322 -1.0586 -0.4040
  590MOL0     C77785   4.466   2.226   8.753 -0.0602  0.7041  0.1164
  590MOL0     C77786   4.372   2.192   8.868 -0.1157  0.6027 -0.1830
  590MOL0     C77787   4.296   2.318   8.929  0.4252  0.4997  0.2405
  590MOL0     C77788   4.165   2.284   9.005 -0.3176 -0.6103 -0.2361
  590MOL0     C77789   4.090   2.419   9.013  0.1408 -0.3572 -0.0386
  590MOL0     C77790   3.961   2.400   9.091  0.9481 -0.2587 -1.0985
  590MOL0     C77791   3.922   2.519   9.183 -0.4940 -0.1895 -0.1811
  590MOL0    Cl77792   3.941   2.672   9.098  0.0313 -0.1855 -0.9773
  590MOL0     C77793   4.807   2.459   8.932  0.5300  0.0475  0.3833
  590MOL0     C77794   4.879   2.547   9.010 -0.4482  0.1913 -1.4781
  590MOL0     O77795   4.765   2.922   9.160  0.0240 -0.3140  0.7268
  590MOL0     C77796   5.068   2.823   9.331 -0.9245 -0.4186 -0.2685
  590MOL0     C77797   5.153   2.861   9.431  0.1793 -0.7587 -0.3650
  590MOL0     N77798   5.568   3.199  10.014 -0.2375 -0.4451  1.1389
  590MOL0     N77799   5.617   3.155  10.115 -0.3307  0.0840 -0.0401
  590MOL0     C77800   5.891   3.623  11.099  0.4700 -0.4023  0.3259
  590MOL0     C77801   5.960   3.664  11.210 -0.7399  0.2478  0.2352
  590MOL0     C77802   6.351   3.816  11.422  0.3223  1.0066  0.0251
  590MOL0     C77803   6.491   3.808  11.435  0.2029 -0.4601  0.0773
  590MOL0     C77804   6.571   3.907  11.504 -0.1649  0.1018 -0.1480
  590MOL0     C77805   6.500   4.016  11.564  0.2012  0.1173 -0.3977
  590MOL0     O77806   6.589   4.106  11.623 -0.0027  0.1920 -1.3378
  590MOL0     C77807   6.559   4.239  11.659  0.8053 -0.5118 -0.8236
  590MOL0     C77808   6.654   4.351  11.615  0.0506  0.4659 -0.3890
  590MOL0     C77809   6.805   4.314  11.645 -0.7188 -0.3841 -0.6986
  590MOL0     C77810   6.893   4.409  11.556  0.7159 -1.2403  0.7479
  590MOL0     C77811   6.872   4.550  11.602  0.5904  0.1790 -0.9910
  590MOL0     C77812   6.849   4.661  11.647  0.5918  0.5206  0.0827
  590MOL0     C77813   6.360   4.018  11.553 -0.0568 -0.4634  0.3058
  590MOL0     C77814   6.286   3.926  11.483 -0.5440  0.1422 -0.2449
  590MOL0     H77815   6.259   3.740  11.045 -0.1433 -1.1900 -1.1857
  590MOL0     H77816   6.132   3.653  10.868  0.4436  1.8482  0.3944
  590MOL0     H77817   5.867   3.385  10.806 -0.1947  1.0872  1.6705
  590MOL0     H77818   6.036   3.440  10.817  0.8980 -1.0200 -4.4909
  590MOL0     H77819   6.015   3.585  10.625 -0.6916  0.5117  1.6173
  590MOL0     H77820   5.845   3.545  10.607 -1.0399 -4.3896 -2.0618
  590MOL0     H77821   6.017   3.299  10.616 -1.0145 -0.9538 -0.8809
  590MOL0     H77822   6.046   3.411  10.485 -0.7891 -0.4817 -0.4358
  590MOL0     H77823   5.762   3.317  10.588 -0.5567 -2.2670  0.0562
  590MOL0     H77824   5.791   3.391  10.434 -1.2408 -0.3454  1.2779
  590MOL0     H77825   5.730   3.169  10.438  0.2587  1.2251 -2.0869
  590MOL0     H77826   5.881   3.107  10.527  0.0392  0.4433  0.3523
  590MOL0     H77827   6.007   3.203  10.329 -0.0952  1.8280 -1.0151
  590MOL0     H77828   5.852   3.245  10.253  0.4337 -0.9179 -0.7711
  590MOL0     H77829   5.980   3.027  10.179 -0.7243 -3.7855 -0.6142
  590MOL0     H77830   5.934   2.951  10.328  0.9928  0.5972  0.4602
  590MOL0     H77831   5.692   2.966  10.278  0.4398 -2.1671 -0.3881
  590MOL0     H77832   5.776   2.893  10.140 -1.6515 -0.4707  0.0961
  590MOL0     H77833   5.817   3.015   9.912 -2.3943  0.3451 -1.9616
  590MOL0     H77834   5.731   3.216   9.724 -0.8895 -0.5774 -2.0192
  590MOL0     H77835   5.579   3.292   9.763 -3.9350 -3.1616 -1.9556
  590MOL0     H77836   5.603   2.993   9.719 -0.7670 -0.2361 -0.1602
  590MOL0     H77837   5.593   3.098   9.583  1.6492 -0.7213  0.3754
  590MOL0     H77838   5.378   3.050   9.796 -1.2863  5.6769  1.0527
  590MOL0     H77839   5.372   3.187   9.697  3.1054  1.5461  0.0883
  590MOL0     H77840   5.382   2.910   9.590  0.7217  0.0990  2.1068
  590MOL0     H77841   5.399   3.047   9.486  0.8995 -2.1706  1.0911
  590MOL0     H77842   4.990   3.156   9.500  0.0094 -1.7865  2.8800
  590MOL0     H77843   4.859   3.095   9.312 -1.5096 -1.4731  0.9443
  590MOL0     H77844   4.626   2.746   9.128 -2.8688 -0.3168 -3.3587
  590MOL0     H77845   4.500   2.595   8.986  0.0560 -1.6484  0.1435
  590MOL0     H77846   4.657   2.241   8.863  1.1154  1.2718  0.4713
  590MOL0     H77847   4.659   2.294   8.688  1.9704  0.0835  0.6876
  590MOL0     H77848   4.488   2.130   8.705  1.7193 -0.1053  2.3787
  590MOL0     H77849   4.414   2.303   8.696  0.1218  2.4480  2.1761
  590MOL0     H77850   4.416   2.134   8.949 -4.0208 -2.3191  0.1239
  590MOL0     H77851   4.291   2.126   8.834 -1.5374  0.2805  3.3830
  590MOL0     H77852   4.374   2.369   8.988  2.1165 -1.3481 -0.3111
  590MOL0     H77853   4.268   2.382   8.845 -0.0173  1.6701  1.2319
  590MOL0     H77854   4.187   2.248   9.106 -0.0542  0.7333  0.2175
  590MOL0     H77855   4.103   2.202   8.970  2.2427 -3.0791  0.6473
  590MOL0     H77856   4.059   2.444   8.911  2.2952 -0.0151 -0.6501
  590MOL0     H77857   4.145   2.500   9.062 -2.4835 -0.4827  3.6027
  590MOL0     H77858   3.878   2.376   9.024  2.2230 -1.1682 -2.4033
  590MOL0     H77859   3.967   2.325   9.170 -0.6737 -0.7802 -1.4226
  590MOL0     H77860   3.983   2.522   9.273 -2.1895 -1.3117  1.0652
  590MOL0     H77861   3.823   2.520   9.231  1.2932  0.3933  3.8660
  590MOL0     H77862   4.849   2.372   8.883  1.2768  0.2790  0.6051
  590MOL0     H77863   4.984   2.524   9.025 -0.4936 -1.4189 -3.2685
  590MOL0     H77864   5.085   2.722   9.296  0.3305 -1.8498  3.8112
  590MOL0     H77865   5.240   2.804   9.463  1.3938  0.4342 -1.4039
  590MOL0     H77866   5.793   3.580  11.119  1.5480 -2.4465  1.5201
  590MOL0     H77867   5.917   3.649  11.308 -0.0666  0.3331  0.5512
  590MOL0     H77868   6.552   3.724  11.402  3.1094  0.8809  1.6251
  590MOL0     H77869   6.677   3.884  11.507 -0.0984  0.0121 -2.0915
  590MOL0     H77870   6.556   4.236  11.769  0.7863 -1.0254 -0.8353
  590MOL0     H77871   6.465   4.266  11.609  0.1048 -3.3813 -1.2413
  590MOL0     H77872   6.630   4.385  11.514  1.2637  2.2295 -0.1303
  590MOL0     H77873   6.642   4.439  11.678  1.9030 -0.1489  0.8986
  590MOL0     H77874   6.830   4.211  11.618  3.1682  0.0056  0.7772
  590MOL0     H77875   6.838   4.327  11.748  0.1162 -1.6632 -0.7718
  590MOL0     H77876   7.001   4.389  11.551  0.3659 -3.1695 -1.7732
  590MOL0     H77877   6.868   4.401  11.450  1.8190  2.8975  0.0248
  590MOL0     H77878   6.844   4.753  11.701 -1.2738  2.4712 -3.1299
  590MOL0     H77879   6.295   4.098  11.587 -5.7731 -2.2767 -4.6033
  590MOL0     H77880   6.178   3.931  11.495 -0.4998 -3.2120  4.2593
  591MOL0     O77881   6.130   5.890   2.070 -0.3802  0.2415  0.4159
  591MOL0     C77882   6.136   5.862   1.953 -0.0814  0.3193 -0.3702
  591MOL0     O77883   6.137   5.951   1.847  0.9079  0.4302  0.4117
  591MOL0     C77884   6.144   6.088   1.844  0.9314  0.0512  0.3657
  591MOL0     C77885   6.015   6.147   1.859  0.1815  0.0370 -0.5473
  591MOL0     C77886   6.011   6.291   1.858 -0.5317  1.1992  0.6517
  591MOL0     C77887   6.127   6.376   1.823 -0.4997  0.1024 -0.2548
  591MOL0     O77888   6.122   6.515   1.836  1.1209 -0.0635 -0.2433
  591MOL0     C77889   6.029   6.582   1.746  0.0297  0.8670 -0.4260
  591MOL0     C77890   6.027   6.732   1.778  0.4993 -0.0167  0.9900
  591MOL0     C77891   6.127   6.813   1.704  0.9959 -0.1418  0.2931
  591MOL0     C77892   6.133   6.948   1.769  0.6237  0.3950  0.5283
  591MOL0     C77893   6.156   7.062   1.684 -0.7884  0.1601  0.3246
  591MOL0     C77894   6.133   7.193   1.752 -0.6545  0.3104  0.7739
  591MOL0     C77895   6.262   7.271   1.760 -0.1398  0.3763  0.5471
  591MOL0     C77896   6.253   7.428   1.762  0.6808 -0.0844  0.8496
  591MOL0     N77897   6.193   7.484   1.638 -0.2790 -0.1968 -0.2285
  591MOL0     C77898   6.060   7.508   1.630 -0.0854  0.8320  0.9061
  591MOL0     C77899   6.035   7.519   1.500  0.3206 -0.0610  0.4389
  591MOL0     C77900   5.909   7.522   1.425  0.9890  0.1609 -0.4004
  591MOL0     C77901   5.886   7.373   1.388 -0.0524 -0.5101  0.0768
  591MOL0     C77902   5.739   7.335   1.374  0.5451 -0.2417  0.0516
  591MOL0     C77903   5.737   7.182   1.372  0.6033 -0.2527  1.1101
  591MOL0     O77904   5.785   7.123   1.494  0.0864  0.0146 -0.0444
  591MOL0     C77905   5.761   6.990   1.522  0.3689 -0.2518 -0.1701
  591MOL0     C77906   5.714   6.951   1.645 -0.5675  0.7423 -0.6362
  591MOL0     C77907   5.663   6.817   1.659  0.1112 -1.0764 -0.9212
  591MOL0     C77908   5.690   6.724   1.554  0.2456  0.1268 -0.0668
  591MOL0     C77909   5.651   6.591   1.562  0.4177 -0.0102  0.3755
  591MOL0     O77910   5.729   6.499   1.508  0.2105 -0.4716  1.0401
  591MOL0     C77911   5.717   6.364   1.524  0.0986  1.1723  0.6248
  591MOL0     C77912   5.733   6.278   1.418  0.5831 -0.3088  0.0861
  591MOL0     C77913   5.721   6.132   1.428 -0.1344 -0.6606  0.4237
  591MOL0     C77914   5.703   6.078   1.552 -0.1781  0.3588 -0.5995
  591MOL0     O77915   5.715   5.937   1.556 -0.4216  0.0160  0.1252
  591MOL0     C77916   5.810   5.883   1.649 -0.3196 -0.6723  0.6560
  591MOL0     C77917   5.837   5.744   1.608  0.3800  0.3871  0.0986
  591MOL0     C77918   5.718   5.650   1.648  0.1651  0.1076  0.1982
  591MOL0     C77919   5.728   5.499   1.599  0.3713 -0.7462 -0.8617
  591MOL0     C77920   5.630   5.397   1.667  0.1327 -2.6381  0.9899
  591MOL0     C77921   5.663   5.254   1.639 -0.6931  0.2198 -0.4203
  591MOL0     C77922   5.787   5.218   1.721 -0.2169  0.9459 -0.2158
  591MOL0     C77923   5.839   5.075   1.689  0.0631  0.8138 -0.1665
  591MOL0    Cl77924   5.888   5.066   1.511  0.2878  0.2014 -0.0706
  591MOL0     C77925   5.706   6.153   1.664 -0.0626 -0.2375 -0.2240
  591MOL0     C77926   5.704   6.296   1.650  0.0356  0.1566  0.0940
  591MOL0     O77927   5.550   6.557   1.622 -0.1611 -1.0355 -0.0101
  591MOL0     C77928   5.766   6.759   1.440  1.1486  0.6628 -0.0254
  591MOL0     C77929   5.789   6.893   1.426  0.8843  0.1063  0.8161
  591MOL0     N77930   6.163   7.523   1.434  0.0577  0.6914 -0.2108
  591MOL0     N77931   6.258   7.497   1.516  0.2136 -0.5406 -0.3531
  591MOL0     C77932   6.256   6.304   1.815  0.0316  0.1649  0.0611
  591MOL0     C77933   6.264   6.159   1.831  0.3336 -0.2920  0.7627
  591MOL0     C77934   6.152   5.717   1.913 -0.8936 -0.1782 -0.7027
  591MOL0     C77935   6.215   5.679   1.791  0.7822 -0.8419 -0.0674
  591MOL0     C77936   6.238   5.545   1.767  0.0982 -0.5242 -1.1231
  591MOL0     C77937   6.203   5.443   1.858  0.0368 -0.4958 -0.6192
  591MOL0     O77938   6.223   5.313   1.819 -0.3334 -0.5753  0.4412
  591MOL0     C77939   6.198   5.205   1.903  0.0722  0.3075 -0.0190
  591MOL0     C77940   6.339   5.157   1.961 -0.0652 -0.9316  0.6454
  591MOL0     C77941   6.384   5.235   2.084 -0.2146 -0.8026 -1.4064
  591MOL0     C77942   6.526   5.188   2.119  1.0593  0.3877 -0.5779
  591MOL0     C77943   6.524   5.063   2.203  0.5993  0.5544  0.0346
  591MOL0     C77944   6.517   4.961   2.276  0.3360 -0.0627  0.5917
  591MOL0     C77945   6.151   5.482   1.980 -0.8837 -0.0584  0.3340
  591MOL0     C77946   6.121   5.615   2.003 -0.2441  1.0440 -0.0777
  591MOL0     H77947   5.928   6.082   1.860 -1.1372  1.6302 -2.7452
  591MOL0     H77948   5.908   6.325   1.867 -2.7361 -4.4326  0.9846
  591MOL0     H77949   5.928   6.541   1.743  1.0531 -1.7976 -2.1001
  591MOL0     H77950   6.053   6.554   1.643 -3.8020 -0.9200 -1.0050
  591MOL0     H77951   6.028   6.759   1.884  1.6184  1.1794  0.7068
  591MOL0     H77952   5.930   6.771   1.743  0.5645 -1.6337 -1.1939
  591MOL0     H77953   6.098   6.816   1.598 -0.2154  1.6545  0.6219
  591MOL0     H77954   6.221   6.760   1.716 -1.2146 -5.1243 -1.6499
  591MOL0     H77955   6.041   6.972   1.823  0.3375 -1.6275  1.0176
  591MOL0     H77956   6.212   6.941   1.844  2.3137 -0.8761 -1.2798
  591MOL0     H77957   6.074   7.059   1.612 -1.2285  0.1963  0.8150
  591MOL0     H77958   6.258   7.046   1.646 -0.4569 -3.1215  2.2479
  591MOL0     H77959   6.083   7.178   1.848  0.8662  1.8244  1.8759
  591MOL0     H77960   6.062   7.250   1.691 -0.4180 -4.0327 -4.1602
  591MOL0     H77961   6.304   7.237   1.855  3.0182  1.0937 -0.4673
  591MOL0     H77962   6.331   7.246   1.680 -0.6720 -0.9073  0.4656
  591MOL0     H77963   6.353   7.472   1.769 -0.8424  3.5082  2.9499
  591MOL0     H77964   6.190   7.466   1.843  1.6545  0.2132  1.4743
  591MOL0     H77965   5.989   7.473   1.705 -2.1959  0.6284 -1.0855
  591MOL0     H77966   5.915   7.567   1.325  0.3433 -1.9312 -1.4370
  591MOL0     H77967   5.816   7.556   1.471  2.1772 -0.8186  3.0459
  591MOL0     H77968   5.947   7.309   1.452  1.1553 -0.3118 -0.8449
  591MOL0     H77969   5.927   7.365   1.287 -2.3233 -0.5209 -0.9084
  591MOL0     H77970   5.683   7.375   1.459 -0.3411  2.3715 -1.6294
  591MOL0     H77971   5.692   7.371   1.282 -2.4466 -0.2428  1.4471
  591MOL0     H77972   5.816   7.142   1.308 -0.2527 -1.8152  0.9741
  591MOL0     H77973   5.644   7.143   1.330  2.0765 -1.0800 -1.6100
  591MOL0     H77974   5.719   7.022   1.727  2.3935  0.8089 -0.7790
  591MOL0     H77975   5.603   6.788   1.744  0.1643  0.0784 -0.4748
  591MOL0     H77976   5.765   6.320   1.323 -0.4773 -2.2746 -1.2114
  591MOL0     H77977   5.722   6.081   1.333 -1.1389 -0.3959  0.2633
  591MOL0     H77978   5.769   5.892   1.750 -0.8409 -0.8979  0.4645
  591MOL0     H77979   5.904   5.939   1.642 -0.5076 -0.4532 -0.2268
  591MOL0     H77980   5.928   5.708   1.657 -0.7876 -2.4197  0.4050
  591MOL0     H77981   5.847   5.728   1.500 -0.2364  0.4659  0.0264
  591MOL0     H77982   5.630   5.699   1.605  2.2290  1.9412 -2.2793
  591MOL0     H77983   5.713   5.659   1.756 -1.7703 -1.6184  0.3139
  591MOL0     H77984   5.722   5.491   1.490 -0.7516 -6.0892 -0.7075
  591MOL0     H77985   5.832   5.474   1.624  1.3350 -0.2666 -4.0282
  591MOL0     H77986   5.530   5.419   1.629  1.3276  1.7618 -0.2094
  591MOL0     H77987   5.613   5.411   1.774 -3.5225  2.1065  0.1564
  591MOL0     H77988   5.702   5.245   1.537 -1.0344 -2.0206 -0.4135
  591MOL0     H77989   5.576   5.190   1.658  0.8329 -1.7670  0.1914
  591MOL0     H77990   5.864   5.295   1.718  3.5829 -2.5526 -1.9065
  591MOL0     H77991   5.751   5.219   1.824  2.3876  0.0338  0.7777
  591MOL0     H77992   5.759   5.003   1.708 -0.5038  1.3204 -0.6096
  591MOL0     H77993   5.921   5.045   1.755 -2.5017 -3.7708  1.4208
  591MOL0     H77994   5.691   6.112   1.764  0.5726  1.3861  0.5652
  591MOL0     H77995   5.687   6.360   1.735 -0.3376  1.0016 -0.6061
  591MOL0     H77996   5.778   6.686   1.361 -2.6628 -3.9342  3.0428
  591MOL0     H77997   5.855   6.910   1.342 -1.6406  0.6426 -1.1683
  591MOL0     H77998   6.344   6.366   1.800  0.4640 -0.3998  0.2283
  591MOL0     H77999   6.367   6.125   1.830  0.8179  0.8330  3.4593
  591MOL0     H78000   6.264   5.748   1.723  0.0034 -0.1508  0.0691
  591MOL0     H78001   6.273   5.517   1.667 -0.6744  0.5271 -1.7053
  591MOL0     H78002   6.173   5.118   1.841  0.0988  0.4642 -0.2489
  591MOL0     H78003   6.111   5.223   1.966 -1.6263  2.6946 -2.7763
  591MOL0     H78004   6.332   5.055   1.999 -0.1491 -0.6183  1.5022
  591MOL0     H78005   6.411   5.180   1.882  0.5591 -0.9299  1.2103
  591MOL0     H78006   6.305   5.229   2.159 -1.4769 -2.6613 -2.7800
  591MOL0     H78007   6.388   5.342   2.063 -1.8250 -0.3188  0.4672
  591MOL0     H78008   6.579   5.164   2.027 -2.4040 -1.2558 -2.3225
  591MOL0     H78009   6.582   5.271   2.164 -1.8179  1.5915  1.0428
  591MOL0     H78010   6.528   4.872   2.335  1.7083  0.4356  1.1305
  591MOL0     H78011   6.129   5.408   2.057  1.0453 -0.8554  0.1726
  591MOL0     H78012   6.075   5.629   2.101 -3.6697 -1.9639 -0.9994
  592MOL0     O78013  10.514   5.064   5.146 -0.7845  0.1158 -0.2825
  592MOL0     C78014  10.566   5.008   5.055 -0.3099  0.1418  0.3025
  592MOL0     O78015  10.647   4.890   5.070 -0.0809 -0.0119  0.6416
  592MOL0     C78016  10.661   4.833   5.191 -0.4452  0.1477  0.3720
  592MOL0     C78017  10.724   4.710   5.175  0.0942 -0.0049 -0.2959
  592MOL0     C78018  10.729   4.624   5.289  0.5720 -0.0205 -0.4574
  592MOL0     C78019  10.697   4.669   5.429 -0.2513  0.6084 -0.5575
  592MOL0     O78020  10.715   4.585   5.539 -0.5429 -0.4367  0.1460
  592MOL0     C78021  10.664   4.449   5.525 -0.3418  0.7236  1.0526
  592MOL0     C78022  10.520   4.432   5.572 -0.6832  0.0366 -0.6545
  592MOL0     C78023  10.462   4.287   5.563 -0.0371 -0.8334  0.0984
  592MOL0     C78024  10.512   4.187   5.661 -0.4155  0.7523 -0.3255
  592MOL0     C78025  10.453   4.045   5.628 -0.0839 -0.6272 -0.1322
  592MOL0     C78026  10.532   3.914   5.668  0.1496 -0.0959  0.4741
  592MOL0     C78027  10.445   3.785   5.650  0.1963 -0.8724  0.0762
  592MOL0     C78028  10.517   3.658   5.697 -0.1455  0.2822  0.1503
  592MOL0     N78029  10.433   3.537   5.702  0.0247  0.2673  0.6122
  592MOL0     C78030  10.338   3.503   5.797 -0.8913  0.8486  0.0514
  592MOL0     C78031  10.308   3.373   5.766  0.7029  0.4384 -0.9842
  592MOL0     C78032  10.195   3.314   5.854  0.5043 -0.7247 -1.0496
  592MOL0     C78033  10.248   3.275   5.996  0.6709 -0.3770 -0.0109
  592MOL0     C78034  10.127   3.212   6.071 -0.3457  0.5653  0.7329
  592MOL0     C78035  10.002   3.284   6.063  0.2188  0.8573  0.1611
  592MOL0     O78036   9.914   3.237   5.953 -0.2857 -0.4257 -0.1731
  592MOL0     C78037   9.851   3.116   5.968 -0.8802 -0.1936 -0.0692
  592MOL0     C78038   9.781   3.070   5.864 -0.4763  1.2321  0.1762
  592MOL0     C78039   9.698   2.949   5.871 -0.5005  0.4713 -0.0540
  592MOL0     C78040   9.707   2.863   5.983  0.1184 -1.0565  0.4773
  592MOL0     C78041   9.629   2.750   5.988  0.6276  0.8144  0.0127
  592MOL0     O78042   9.594   2.692   5.865 -0.4271 -0.6412  0.1666
  592MOL0     C78043   9.517   2.580   5.867 -0.2406  1.1129 -0.1554
  592MOL0     C78044   9.376   2.600   5.857  0.6571 -0.2685  0.4158
  592MOL0     C78045   9.287   2.491   5.856  0.1658  0.1991  0.6743
  592MOL0     C78046   9.339   2.361   5.866 -0.3873 -0.7844 -0.1084
  592MOL0     O78047   9.244   2.253   5.845  0.4279 -0.1905  1.0589
  592MOL0     C78048   9.285   2.115   5.812  0.7208  0.1807  0.4993
  592MOL0     C78049   9.151   2.056   5.782  0.2699 -1.0078  0.3644
  592MOL0     C78050   9.073   2.137   5.682  0.2046  0.3195 -0.0876
  592MOL0     C78051   9.148   2.128   5.539  0.6847 -0.7460  0.2723
  592MOL0     C78052   9.089   2.235   5.440  0.4694 -0.8841 -0.5280
  592MOL0     C78053   9.151   2.222   5.298  0.3469 -0.6537 -0.6974
  592MOL0     C78054   9.290   2.271   5.272 -0.4865  0.1721 -0.0260
  592MOL0     C78055   9.312   2.421   5.278 -0.9382  0.2504 -0.2387
  592MOL0    Cl78056   9.381   2.467   5.443  0.2764 -0.1347  0.0611
  592MOL0     C78057   9.476   2.345   5.886 -0.1755  0.2650  0.2394
  592MOL0     C78058   9.562   2.451   5.883  0.7931  0.4711 -0.2421
  592MOL0     O78059   9.600   2.697   6.095  0.6560 -0.0595 -1.2333
  592MOL0     C78060   9.789   2.904   6.091  0.1556 -0.3612 -0.6570
  592MOL0     C78061   9.852   3.033   6.088 -0.2628  0.3106  0.0024
  592MOL0     N78062  10.372   3.330   5.654  0.2754  0.8181 -0.0459
  592MOL0     N78063  10.450   3.435   5.616  0.8125  0.8968  0.2993
  592MOL0     C78064  10.662   4.801   5.439  0.5019  0.8449  0.1875
  592MOL0     C78065  10.639   4.878   5.317 -0.3404 -0.1966 -0.4423
  592MOL0     C78066  10.573   5.076   4.922 -1.0147 -0.2304 -0.0215
  592MOL0     C78067  10.476   5.176   4.886  0.5137 -0.4232 -0.0067
  592MOL0     C78068  10.483   5.240   4.772  0.3841  0.1956  0.1349
  592MOL0     C78069  10.584   5.218   4.679 -0.8865 -0.2996 -0.7081
  592MOL0     O78070  10.600   5.277   4.558  0.0952  0.2248  0.0853
  592MOL0     C78071  10.491   5.363   4.516 -0.4072 -0.1005  0.8979
  592MOL0     C78072  10.505   5.400   4.367 -0.5135 -0.1301 -0.7438
  592MOL0     C78073  10.452   5.542   4.337 -0.4504 -0.6006  0.2761
  592MOL0     C78074  10.302   5.556   4.340 -0.0747 -0.4508  0.1105
  592MOL0     C78075  10.250   5.472   4.242 -0.5017 -0.1338  0.2655
  592MOL0     C78076  10.205   5.405   4.156  0.4835  0.4759 -0.1083
  592MOL0     C78077  10.686   5.132   4.717 -0.3509  0.5859 -0.4490
  592MOL0     C78078  10.685   5.063   4.843  0.6531 -0.0742 -0.8950
  592MOL0     H78079  10.741   4.682   5.072 -2.2331  4.1368 -2.0452
  592MOL0     H78080  10.763   4.522   5.276  0.0137 -0.3534  0.5289
  592MOL0     H78081  10.715   4.382   5.596  2.1348  1.3598 -0.0177
  592MOL0     H78082  10.679   4.412   5.424 -3.8528 -3.1728  1.6773
  592MOL0     H78083  10.454   4.492   5.509  1.4740  2.7833 -0.5022
  592MOL0     H78084  10.518   4.474   5.673  2.3344 -1.8509  0.3275
  592MOL0     H78085  10.466   4.269   5.455 -1.7393 -0.1485 -0.1143
  592MOL0     H78086  10.355   4.297   5.581  0.2724  2.6399  0.7264
  592MOL0     H78087  10.620   4.182   5.646 -0.7022 -0.1827 -2.4433
  592MOL0     H78088  10.494   4.208   5.767 -1.1683  0.7457 -0.4467
  592MOL0     H78089  10.443   4.051   5.519 -4.3186  1.3770  0.1704
  592MOL0     H78090  10.348   4.039   5.659 -0.0479  0.2112  0.1593
  592MOL0     H78091  10.582   3.935   5.763 -0.4974  1.9967  0.4036
  592MOL0     H78092  10.615   3.900   5.598 -2.5681 -2.1946 -2.6714
  592MOL0     H78093  10.347   3.791   5.698 -0.1001 -1.9252 -0.3612
  592MOL0     H78094  10.434   3.775   5.542  3.5862  0.0077 -0.4646
  592MOL0     H78095  10.540   3.668   5.804 -1.4613 -1.3523  0.6137
  592MOL0     H78096  10.603   3.623   5.639  0.7068  0.7040  1.1063
  592MOL0     H78097  10.298   3.564   5.877 -1.8371 -1.4195  1.4253
  592MOL0     H78098  10.135   3.231   5.817  1.9910 -2.5768  0.4565
  592MOL0     H78099  10.118   3.392   5.852  1.0482  0.0135  1.9458
  592MOL0     H78100  10.284   3.363   6.049  1.6987  0.3094 -1.7792
  592MOL0     H78101  10.333   3.209   5.977 -0.0209 -0.4162 -3.8094
  592MOL0     H78102  10.117   3.109   6.034 -3.6636  0.9932  0.1144
  592MOL0     H78103  10.157   3.205   6.176  0.5541 -0.4426  0.4296
  592MOL0     H78104  10.008   3.394   6.064 -1.4074  1.1552  5.2346
  592MOL0     H78105   9.945   3.261   6.153 -2.5290 -4.9012 -2.5381
  592MOL0     H78106   9.778   3.131   5.775  5.4218  0.6909 -0.7988
  592MOL0     H78107   9.639   2.913   5.788 -0.4980 -0.3325  0.2849
  592MOL0     H78108   9.341   2.703   5.852  0.4088 -0.2783  1.6958
  592MOL0     H78109   9.180   2.486   5.836  0.5717 -3.4005 -1.4031
  592MOL0     H78110   9.333   2.068   5.898 -1.5090 -0.1614  1.6309
  592MOL0     H78111   9.355   2.119   5.728 -0.1638 -2.8091 -0.4969
  592MOL0     H78112   9.092   2.042   5.874 -3.1800  0.0621 -1.5280
  592MOL0     H78113   9.166   1.953   5.748 -4.4012 -1.6731 -0.4640
  592MOL0     H78114   9.049   2.237   5.721  1.6347 -0.5747  3.5197
  592MOL0     H78115   8.974   2.094   5.669  0.6117 -0.5186 -0.4889
  592MOL0     H78116   9.253   2.152   5.559  0.0997  1.1011  1.3602
  592MOL0     H78117   9.150   2.024   5.505 -0.2843 -1.0050  0.9635
  592MOL0     H78118   9.103   2.337   5.478 -1.5262 -1.3396  1.6130
  592MOL0     H78119   8.981   2.222   5.431  0.6386 -1.2531 -2.4524
  592MOL0     H78120   9.080   2.267   5.228 -1.6091 -0.0917  1.5166
  592MOL0     H78121   9.153   2.115   5.273  0.3203 -0.8359  0.0307
  592MOL0     H78122   9.362   2.210   5.327  1.3536  3.6437  1.7386
  592MOL0     H78123   9.316   2.249   5.168 -1.8006 -4.0895  0.3617
  592MOL0     H78124   9.227   2.486   5.254  0.8833  2.4219 -1.2584
  592MOL0     H78125   9.390   2.456   5.209  1.3928  0.0951  2.1369
  592MOL0     H78126   9.510   2.243   5.902 -0.8337 -0.4267 -2.3133
  592MOL0     H78127   9.669   2.437   5.892  0.8432  0.3150 -1.0131
  592MOL0     H78128   9.805   2.842   6.179  0.5327 -1.3440 -1.4001
  592MOL0     H78129   9.893   3.078   6.177 -0.7939  0.0278  0.3970
  592MOL0     H78130  10.637   4.837   5.538 -1.6633  0.3927 -0.1256
  592MOL0     H78131  10.591   4.974   5.335  1.1279  0.8438 -1.8590
  592MOL0     H78132  10.390   5.200   4.947 -0.2415  0.9483 -1.5317
  592MOL0     H78133  10.397   5.297   4.739 -0.9757 -1.2120  1.1053
  592MOL0     H78134  10.497   5.452   4.579  1.2136  0.2974  0.2201
  592MOL0     H78135  10.389   5.323   4.521 -0.8623  0.0718 -3.5979
  592MOL0     H78136  10.612   5.404   4.341 -0.2288 -0.0340  0.3813
  592MOL0     H78137  10.449   5.336   4.299  0.5939 -1.9495  0.0015
  592MOL0     H78138  10.494   5.554   4.236  1.4303 -3.6718  0.5473
  592MOL0     H78139  10.506   5.613   4.399  2.6825 -4.4124  2.3524
  592MOL0     H78140  10.264   5.535   4.441  2.4699  3.8234  2.2278
  592MOL0     H78141  10.279   5.660   4.317  3.5801  0.0425 -2.0433
  592MOL0     H78142  10.152   5.349   4.082 -2.2660 -0.7629  2.5741
  592MOL0     H78143  10.774   5.108   4.658 -0.1645 -0.1467  0.1075
  592MOL0     H78144  10.769   5.009   4.884 -2.8646 -2.3590  4.3876
  593MOL0     O78145   8.216   1.005   4.099 -0.1445 -0.1269 -0.5546
  593MOL0     C78146   8.153   1.035   4.198 -1.0835  0.4438  0.6189
  593MOL0     O78147   8.148   1.165   4.246 -0.8371 -0.0622  0.5894
  593MOL0     C78148   8.164   1.271   4.158  0.2263 -0.0972 -1.5546
  593MOL0     C78149   8.248   1.387   4.191  0.5628 -0.1186  0.4887
  593MOL0     C78150   8.264   1.485   4.097 -0.1890  0.6785 -0.4563
  593MOL0     C78151   8.181   1.486   3.981  0.5544  0.0178 -0.9721
  593MOL0     O78152   8.204   1.590   3.899 -1.1895 -0.9311 -0.5620
  593MOL0     C78153   8.117   1.624   3.792  0.9145  0.3864  0.1445
  593MOL0     C78154   8.140   1.768   3.765  0.0388 -0.3797  0.7706
  593MOL0     C78155   8.069   1.860   3.864 -0.2626 -0.7471  0.7600
  593MOL0     C78156   8.115   2.000   3.867  0.6971  0.1754 -0.2013
  593MOL0     C78157   8.035   2.085   3.964 -0.1977  1.8473 -0.3942
  593MOL0     C78158   8.092   2.224   3.965  0.3438  0.1776 -0.4988
  593MOL0     C78159   8.031   2.313   4.073 -0.8330 -0.2903 -1.2671
  593MOL0     C78160   7.907   2.398   4.036  0.1370 -0.6914 -0.0901
  593MOL0     N78161   7.937   2.478   3.914 -0.6286 -1.0910  0.6035
  593MOL0     C78162   8.013   2.596   3.903 -0.4192  0.3181  0.8870
  593MOL0     C78163   8.018   2.623   3.772  0.3668  0.9826 -0.3397
  593MOL0     C78164   8.091   2.728   3.694 -0.1178 -1.3108  0.6175
  593MOL0     C78165   8.243   2.712   3.678  0.0761 -0.4971 -0.3768
  593MOL0     C78166   8.304   2.849   3.655  0.3603 -0.8279 -0.1908
  593MOL0     C78167   8.454   2.835   3.612  0.3931  0.6939  0.5257
  593MOL0     O78168   8.514   2.766   3.713  0.0512  0.4096  0.8157
  593MOL0     C78169   8.582   2.648   3.675  0.1982  0.1168  0.2888
  593MOL0     C78170   8.617   2.609   3.542 -0.0496 -0.9809 -0.1608
  593MOL0     C78171   8.683   2.486   3.514  0.9370  0.4041  0.2267
  593MOL0     C78172   8.716   2.402   3.618 -0.2335  0.0993 -0.3977
  593MOL0     C78173   8.788   2.275   3.592 -0.2173 -0.5096 -0.1491
  593MOL0     O78174   8.849   2.216   3.697  0.7817  0.5086 -0.3996
  593MOL0     C78175   8.933   2.109   3.693  0.3669  0.0178  0.4347
  593MOL0     C78176   9.023   2.077   3.595  0.4266 -0.4588 -0.0515
  593MOL0     C78177   9.102   1.950   3.597  0.0082 -0.1586  0.0447
  593MOL0     C78178   9.080   1.858   3.700 -0.9257  0.0256  0.1077
  593MOL0     O78179   9.168   1.753   3.702 -0.4633 -0.0973  0.3226
  593MOL0     C78180   9.149   1.658   3.809 -0.5564 -0.2279  0.1045
  593MOL0     C78181   9.051   1.546   3.774 -0.4588 -0.2873 -0.1048
  593MOL0     C78182   9.105   1.441   3.673 -1.0811 -0.5546  0.2021
  593MOL0     C78183   8.999   1.336   3.635 -0.3994  0.9076  0.9005
  593MOL0     C78184   9.060   1.238   3.522 -0.3089  0.4423 -0.4990
  593MOL0     C78185   9.138   1.126   3.573  0.0426 -0.7160 -0.2995
  593MOL0     C78186   9.076   1.046   3.694 -0.4959  1.2840  0.4354
  593MOL0     C78187   9.147   0.913   3.712 -0.3364 -0.2400 -0.5396
  593MOL0    Cl78188   9.071   0.834   3.846  0.2172  0.1627 -0.0298
  593MOL0     C78189   8.987   1.891   3.801  0.3322 -0.7231  0.2907
  593MOL0     C78190   8.923   2.014   3.794  0.0572  0.3250  0.2653
  593MOL0     O78191   8.810   2.249   3.477 -0.1066 -0.0014 -0.5039
  593MOL0     C78192   8.661   2.429   3.744  0.7890  1.0041  1.0743
  593MOL0     C78193   8.611   2.553   3.777 -0.5066 -0.2688 -0.5635
  593MOL0     N78194   7.936   2.534   3.701  0.0973  0.1916 -0.5242
  593MOL0     N78195   7.883   2.455   3.786 -0.2137  0.1228 -0.4900
  593MOL0     C78196   8.085   1.392   3.957  0.7663 -0.5189  0.2996
  593MOL0     C78197   8.084   1.277   4.044 -0.0908 -0.8786  0.6010
  593MOL0     C78198   8.083   0.938   4.267 -1.0957  0.4198  0.2587
  593MOL0     C78199   8.089   0.801   4.233 -0.1058 -0.7213  0.3979
  593MOL0     C78200   8.016   0.712   4.311 -0.1059 -0.7271  1.3770
  593MOL0     C78201   7.948   0.741   4.420  0.7466  0.0796 -0.4162
  593MOL0     O78202   7.888   0.648   4.499 -0.3135 -1.1211 -0.1763
  593MOL0     C78203   7.832   0.531   4.447  0.3706  0.3355  0.5204
  593MOL0     C78204   7.889   0.413   4.523 -0.5604  0.0425 -1.2984
  593MOL0     C78205   7.827   0.404   4.660 -0.1955 -0.0377 -0.9154
  593MOL0     C78206   7.712   0.317   4.677  0.4285 -0.8502  0.3922
  593MOL0     C78207   7.662   0.317   4.810  0.3095 -0.7869 -0.0350
  593MOL0     C78208   7.613   0.301   4.924  0.0969 -0.5802  0.1713
  593MOL0     C78209   7.939   0.875   4.454 -0.7758  0.3053  0.3048
  593MOL0     C78210   8.006   0.975   4.379 -0.8620  0.1474  0.1700
  593MOL0     H78211   8.306   1.393   4.283 -1.4464  1.5469  1.7406
  593MOL0     H78212   8.337   1.565   4.099  1.2522 -0.6151 -0.1740
  593MOL0     H78213   8.016   1.608   3.829  1.3766 -0.5644  1.0513
  593MOL0     H78214   8.138   1.556   3.709 -1.1932 -2.8453  2.0493
  593MOL0     H78215   8.090   1.795   3.672 -1.3183 -1.0256  1.2848
  593MOL0     H78216   8.248   1.789   3.769  0.1751 -1.1076  1.0614
  593MOL0     H78217   8.088   1.812   3.961 -0.0609 -0.2139  0.9878
  593MOL0     H78218   7.960   1.862   3.858 -0.3006  2.1735  0.8831
  593MOL0     H78219   8.215   1.999   3.912  0.9480 -0.6423 -0.7596
  593MOL0     H78220   8.117   2.053   3.772  0.7075 -0.0976 -0.3547
  593MOL0     H78221   8.044   2.042   4.064 -0.0129  1.7845 -0.4368
  593MOL0     H78222   7.929   2.085   3.939 -0.8652  2.7688  2.1872
  593MOL0     H78223   8.063   2.277   3.874 -1.0046 -0.3540 -0.4000
  593MOL0     H78224   8.201   2.218   3.979  0.3984  0.4312 -0.8029
  593MOL0     H78225   8.012   2.258   4.166  2.4162  1.1204  0.3912
  593MOL0     H78226   8.113   2.381   4.098  1.2561 -3.0763 -0.0057
  593MOL0     H78227   7.877   2.458   4.122  0.6907  2.3727 -1.8967
  593MOL0     H78228   7.824   2.332   4.012 -0.7276 -0.9327  3.1062
  593MOL0     H78229   8.062   2.649   3.984 -0.5582  1.9535 -0.0745
  593MOL0     H78230   8.070   2.829   3.731  0.5469 -1.0049  0.1749
  593MOL0     H78231   8.053   2.724   3.591  0.5697  1.2055  0.1992
  593MOL0     H78232   8.257   2.648   3.590  5.2290  0.3568 -0.4675
  593MOL0     H78233   8.280   2.659   3.766 -1.7575 -0.8175  0.2478
  593MOL0     H78234   8.234   2.891   3.581 -3.1468 -2.0437  2.1618
  593MOL0     H78235   8.296   2.909   3.746  3.0553  0.9184 -1.0018
  593MOL0     H78236   8.522   2.917   3.587  0.3475  0.8683  0.9572
  593MOL0     H78237   8.438   2.780   3.519  0.4012  2.4416 -0.5561
  593MOL0     H78238   8.599   2.670   3.454  3.7366 -1.1541 -1.2301
  593MOL0     H78239   8.726   2.461   3.417  2.0685 -0.3192  0.8802
  593MOL0     H78240   9.035   2.155   3.520  0.1050 -1.4454 -1.1555
  593MOL0     H78241   9.176   1.929   3.521 -1.6484  1.3475 -2.0873
  593MOL0     H78242   9.132   1.703   3.908 -2.3018  0.0970 -0.3034
  593MOL0     H78243   9.245   1.606   3.809 -1.2753 -1.6339 -1.3517
  593MOL0     H78244   8.959   1.578   3.726 -0.2653 -0.6929 -0.7553
  593MOL0     H78245   9.034   1.482   3.862  1.4500 -6.1973 -3.4834
  593MOL0     H78246   9.203   1.409   3.710  1.1504  2.4250 -2.5639
  593MOL0     H78247   9.129   1.491   3.579 -2.3323 -3.0825 -1.5847
  593MOL0     H78248   8.960   1.282   3.722  1.7581  1.9309  2.5980
  593MOL0     H78249   8.909   1.384   3.595 -1.7797 -0.6123  2.0230
  593MOL0     H78250   9.117   1.296   3.449  0.0855  0.5926 -0.0776
  593MOL0     H78251   8.974   1.196   3.468  1.7053 -3.0406 -1.3330
  593MOL0     H78252   9.230   1.173   3.608 -1.3019  1.9432 -0.1304
  593MOL0     H78253   9.168   1.056   3.495  1.2209 -2.3569  1.5236
  593MOL0     H78254   9.084   1.103   3.787  1.2817 -1.3577  2.0359
  593MOL0     H78255   8.970   1.028   3.673 -0.4114 -1.8783  2.0589
  593MOL0     H78256   9.252   0.924   3.738 -0.3000 -2.5146  0.5794
  593MOL0     H78257   9.139   0.856   3.619  0.7159 -1.0304 -0.1686
  593MOL0     H78258   8.968   1.822   3.884 -0.2795 -4.0187 -2.3602
  593MOL0     H78259   8.860   2.043   3.877 -0.6934  1.4733 -0.6755
  593MOL0     H78260   8.670   2.350   3.818  1.0716 -0.1206 -0.1249
  593MOL0     H78261   8.568   2.570   3.876 -0.1241  3.4297 -0.8894
  593MOL0     H78262   8.028   1.392   3.865 -0.1686  2.5295  0.7551
  593MOL0     H78263   8.031   1.189   4.009  0.8213 -1.1945 -0.0223
  593MOL0     H78264   8.151   0.764   4.152 -0.6096  1.0803 -0.8764
  593MOL0     H78265   8.008   0.612   4.269 -2.5658 -1.4007  3.2119
  593MOL0     H78266   7.863   0.511   4.344 -0.2104  3.2431 -0.2911
  593MOL0     H78267   7.724   0.527   4.458  0.3903  0.7881  0.8966
  593MOL0     H78268   7.881   0.325   4.459 -2.1545 -0.8416  0.0374
  593MOL0     H78269   7.996   0.425   4.545 -1.2572  3.1583  1.0786
  593MOL0     H78270   7.807   0.507   4.691 -0.2287 -1.3756  4.4070
  593MOL0     H78271   7.903   0.361   4.725  2.3136  3.4765 -1.2350
  593MOL0     H78272   7.631   0.341   4.607  1.0324 -3.1182 -1.2092
  593MOL0     H78273   7.741   0.215   4.650 -0.8743 -1.1799  0.1328
  593MOL0     H78274   7.574   0.306   5.023  1.1298  0.3903  0.5507
  593MOL0     H78275   7.894   0.915   4.544 -2.1792 -0.8180  0.1357
  593MOL0     H78276   7.998   1.075   4.421 -0.2580 -0.3289  1.5093
  594MOL0     O78277  11.110  11.393   9.180  0.9054 -0.1564  0.2951
  594MOL0     C78278  11.200  11.476   9.149  0.0769 -0.4222  0.5745
  594MOL0     O78279  11.247  11.574   9.219 -0.1574  0.0647  0.4553
  594MOL0     C78280  11.190  11.603   9.337 -0.1987  0.7155  0.3739
  594MOL0     C78281  11.234  11.550   9.458  0.0453 -0.4545  0.5089
  594MOL0     C78282  11.175  11.588   9.578  0.2952 -0.5920  0.3851
  594MOL0     C78283  11.068  11.678   9.587  0.0269  0.0874 -0.4659
  594MOL0     O78284  11.009  11.712   9.709  0.1538  0.2429 -0.1542
  594MOL0     C78285  10.963  11.847   9.725  0.3186  0.1638  0.4165
  594MOL0     C78286  10.951  11.896   9.871 -0.7514  0.0268  1.1014
  594MOL0     C78287  11.051  11.832   9.961  0.3955  0.7393  0.0846
  594MOL0     C78288  11.031  11.880  10.106  1.0539  0.5347 -1.5055
  594MOL0     C78289  10.895  11.844  10.177  0.0925 -0.4952 -0.0893
  594MOL0     C78290  10.874  11.913  10.319 -0.4786  0.1448 -0.2690
  594MOL0     C78291  10.725  11.904  10.367  0.0545  1.2487 -0.0998
  594MOL0     C78292  10.685  11.999  10.473  0.2145  0.2448  0.6784
  594MOL0     N78293  10.783  12.024  10.578 -0.2209  0.3802  1.1121
  594MOL0     C78294  10.809  11.935  10.683 -0.1921 -0.5137 -0.1061
  594MOL0     C78295  10.932  11.973  10.724  0.1871  1.2324  0.5610
  594MOL0     C78296  11.019  11.919  10.835  1.1428 -0.4112  0.0199
  594MOL0     C78297  11.158  11.934  10.789 -0.2366  0.8967  0.0986
  594MOL0     C78298  11.206  11.858  10.660  0.9073  0.3097  0.1073
  594MOL0     C78299  11.355  11.851  10.660  0.1127  1.0906  0.1509
  594MOL0     O78300  11.413  11.756  10.758  0.2796  0.5506  0.2501
  594MOL0     C78301  11.400  11.617  10.729 -0.5389 -0.4938  0.1954
  594MOL0     C78302  11.458  11.555  10.614 -0.1628 -0.7466 -0.2982
  594MOL0     C78303  11.433  11.426  10.587 -0.6865 -0.2865 -0.4698
  594MOL0     C78304  11.359  11.348  10.676 -0.2765 -0.1099  0.0872
  594MOL0     C78305  11.340  11.204  10.647 -0.3181 -0.2522 -0.0585
  594MOL0     O78306  11.266  11.140  10.741 -0.7693  0.2829 -0.5304
  594MOL0     C78307  11.237  11.010  10.737 -0.0463  0.6895  0.0518
  594MOL0     C78308  11.286  10.906  10.646 -1.0546  1.1943  0.8830
  594MOL0     C78309  11.253  10.776  10.664  0.2103 -0.5191 -0.2951
  594MOL0     C78310  11.157  10.742  10.756 -1.5067 -0.0305  1.0477
  594MOL0     O78311  11.138  10.609  10.777 -0.9466 -0.2485  0.4544
  594MOL0     C78312  11.029  10.570  10.875 -0.8655 -0.4061 -0.0584
  594MOL0     C78313  11.030  10.422  10.894 -0.7829  0.6397  1.1737
  594MOL0     C78314  10.949  10.368  11.006 -0.2322 -0.3496 -0.5789
  594MOL0     C78315  10.931  10.211  11.006 -0.3866 -0.7570 -0.2186
  594MOL0     C78316  10.818  10.168  10.918  0.4997  0.4165  0.6909
  594MOL0     C78317  10.784  10.015  10.924 -0.3381  0.1436  0.0568
  594MOL0     C78318  10.738   9.951  11.060 -0.4345  0.4454  0.8721
  594MOL0     C78319  10.696   9.802  11.028 -0.2796 -0.7816 -0.9422
  594MOL0    Cl78320  10.849   9.710  11.007 -0.0489  0.2180 -0.6416
  594MOL0     C78321  11.106  10.840  10.840  0.0791 -0.1360  0.0270
  594MOL0     C78322  11.142  10.976  10.830  0.1388 -0.7409 -1.0375
  594MOL0     O78323  11.397  11.152  10.547  0.6484 -1.1698  0.5122
  594MOL0     C78324  11.292  11.414  10.780  0.4891 -0.2927 -0.6431
  594MOL0     C78325  11.317  11.544  10.816  0.7596 -0.1254  0.0516
  594MOL0     N78326  10.973  12.079  10.652  0.0048 -0.6345 -1.1177
  594MOL0     N78327  10.879  12.115  10.577 -0.3953 -0.0844  0.5092
  594MOL0     C78328  11.016  11.721   9.460 -0.2657 -0.3590 -0.3258
  594MOL0     C78329  11.072  11.680   9.338  1.1122  0.1904 -0.6538
  594MOL0     C78330  11.258  11.467   9.015 -1.3178 -1.2375  0.3228
  594MOL0     C78331  11.328  11.566   8.951 -0.2256 -0.0109 -0.1146
  594MOL0     C78332  11.382  11.553   8.820  0.3558  0.0662 -0.7402
  594MOL0     C78333  11.380  11.431   8.756 -0.1645 -0.3021 -0.4862
  594MOL0     O78334  11.450  11.401   8.648  0.0522  0.5527 -0.0836
  594MOL0     C78335  11.488  11.496   8.553  0.8033  0.6435  0.4201
  594MOL0     C78336  11.354  11.555   8.487  0.8392 -0.3189 -0.5725
  594MOL0     C78337  11.360  11.695   8.448 -0.1838 -0.6960 -0.8871
  594MOL0     C78338  11.221  11.743   8.395  0.1176  0.8503  0.6473
  594MOL0     C78339  11.196  11.880   8.403 -0.7104 -0.1440 -1.0752
  594MOL0     C78340  11.165  11.995   8.397  0.5306  0.1405 -2.1195
  594MOL0     C78341  11.300  11.333   8.811 -0.3246 -0.3285 -0.8820
  594MOL0     C78342  11.236  11.351   8.931  0.8005  0.1091  0.3031
  594MOL0     H78343  11.326  11.492   9.465  0.3746  0.1402  1.2847
  594MOL0     H78344  11.214  11.530   9.661  2.9362 -4.2150 -3.0283
  594MOL0     H78345  10.866  11.866   9.676 -0.4058 -0.8329  1.4075
  594MOL0     H78346  11.034  11.918   9.682  1.5001  0.1806  2.3169
  594MOL0     H78347  10.851  11.861   9.901 -1.3506  0.1514 -0.6011
  594MOL0     H78348  10.952  12.005   9.864  0.0189  0.0109 -5.4532
  594MOL0     H78349  11.152  11.858   9.930  0.1509  0.2158 -1.2192
  594MOL0     H78350  11.044  11.723   9.946  2.6006  0.6628 -0.7325
  594MOL0     H78351  11.112  11.836  10.165  0.4437 -1.4147 -2.0195
  594MOL0     H78352  11.042  11.986  10.083  0.9663  0.9813  0.3249
  594MOL0     H78353  10.884  11.735  10.182  0.7636 -0.5206  1.6076
  594MOL0     H78354  10.813  11.879  10.114 -0.4846 -1.4364  0.1166
  594MOL0     H78355  10.907  12.017  10.307  1.1718 -0.2246  0.6825
  594MOL0     H78356  10.943  11.883  10.398  1.4009  2.8957 -0.7044
  594MOL0     H78357  10.655  11.924  10.284 -2.8628  0.4385  1.9951
  594MOL0     H78358  10.695  11.807  10.406  0.3472  1.5066  0.7845
  594MOL0     H78359  10.592  11.959  10.515 -1.2055  4.8361  2.5203
  594MOL0     H78360  10.648  12.094  10.432 -2.8105 -0.2477  1.9895
  594MOL0     H78361  10.759  11.848  10.725 -1.0003 -0.1047 -0.2069
  594MOL0     H78362  10.986  11.816  10.851 -2.2032  0.1150 -2.3678
  594MOL0     H78363  11.005  11.985  10.920  1.1013  0.3337 -0.5580
  594MOL0     H78364  11.214  11.892  10.873  0.6019  0.0810 -0.8572
  594MOL0     H78365  11.184  12.040  10.783 -1.6145  1.2403 -0.1829
  594MOL0     H78366  11.156  11.761  10.659 -0.0769  0.7987 -1.4005
  594MOL0     H78367  11.178  11.926  10.578  2.7695 -0.3844 -1.1856
  594MOL0     H78368  11.388  11.955  10.672 -2.2675  1.8893  0.2337
  594MOL0     H78369  11.393  11.819  10.562 -2.0089 -2.9061  0.4577
  594MOL0     H78370  11.518  11.604  10.538 -2.9964  0.0761 -2.1669
  594MOL0     H78371  11.464  11.387  10.490 -1.6269  2.0090 -1.7623
  594MOL0     H78372  11.348  10.922  10.559 -1.1372 -0.1534  0.5598
  594MOL0     H78373  11.298  10.699  10.602  4.7763  0.7938  1.0093
  594MOL0     H78374  10.930  10.613  10.859 -2.8837 -4.1223  1.1556
  594MOL0     H78375  11.058  10.608  10.974  1.4374 -0.0561 -0.7879
  594MOL0     H78376  11.131  10.382  10.906 -1.9648 -5.2141 -3.3286
  594MOL0     H78377  10.995  10.384  10.797 -1.0469  1.4039  0.9677
  594MOL0     H78378  10.851  10.417  11.002  0.3460  0.9028  0.1343
  594MOL0     H78379  10.993  10.380  11.105 -1.3964 -2.6057  0.2914
  594MOL0     H78380  11.026  10.170  10.972  0.0831  0.8126 -0.8735
  594MOL0     H78381  10.918  10.178  11.110  0.6387  2.4333  1.0341
  594MOL0     H78382  10.853  10.181  10.815  2.4777 -0.0033  1.2610
  594MOL0     H78383  10.726  10.225  10.931 -0.7347 -1.3966  0.2704
  594MOL0     H78384  10.883   9.978  10.894  2.2237  4.3796  2.1968
  594MOL0     H78385  10.701   9.991  10.858 -1.4218 -0.0107  1.4400
  594MOL0     H78386  10.813   9.943  11.139  0.4771 -2.0922 -0.1525
  594MOL0     H78387  10.654  10.009  11.100 -0.8723  2.0436 -2.0315
  594MOL0     H78388  10.632   9.804  10.939 -0.8715  2.7593 -0.5907
  594MOL0     H78389  10.648   9.756  11.115 -1.1872  0.8472 -0.5217
  594MOL0     H78390  11.042  10.800  10.918  2.3883 -3.8755  0.2641
  594MOL0     H78391  11.090  11.049  10.892 -3.4789 -2.0836 -2.2013
  594MOL0     H78392  11.222  11.352  10.836  0.6322  1.3259  1.4799
  594MOL0     H78393  11.268  11.584  10.904  0.5942 -2.3062  1.0074
  594MOL0     H78394  10.926  11.782   9.471 -0.2026 -0.6664  2.8396
  594MOL0     H78395  11.052  11.734   9.246  0.7422 -1.6393 -1.7107
  594MOL0     H78396  11.348  11.663   8.996 -1.9213  0.7992 -0.9935
  594MOL0     H78397  11.416  11.651   8.790  0.5704  0.2755  0.1383
  594MOL0     H78398  11.556  11.459   8.476  4.1771  0.7074  3.1064
  594MOL0     H78399  11.553  11.570   8.601  0.6712  1.1402 -0.1486
  594MOL0     H78400  11.342  11.500   8.393  2.1593  0.0153 -0.9602
  594MOL0     H78401  11.276  11.543   8.563 -0.6933  2.8381 -1.5106
  594MOL0     H78402  11.444  11.701   8.378 -0.0584 -0.0290 -0.6784
  594MOL0     H78403  11.394  11.750   8.536  0.3836 -2.3554 -0.0202
  594MOL0     H78404  11.192  11.711   8.294 -0.1854  2.5264  0.1703
  594MOL0     H78405  11.146  11.690   8.454  1.6195  0.6869  2.5114
  594MOL0     H78406  11.114  12.089   8.402  2.6908  1.3878 -2.0618
  594MOL0     H78407  11.311  11.237   8.762 -1.5869 -0.6438 -0.5890
  594MOL0     H78408  11.183  11.263   8.967  0.2907  0.9983  1.8370
  595MOL0     O78409   5.613   1.870   9.384  0.7043 -0.5839 -0.1162
  595MOL0     C78410   5.550   1.793   9.317 -0.0580 -0.1356  0.5845
  595MOL0     O78411   5.519   1.664   9.359 -0.2231  0.1950  0.7304
  595MOL0     C78412   5.561   1.615   9.480  0.7214  0.3519  0.5276
  595MOL0     C78413   5.531   1.678   9.598 -0.4104  0.1366 -0.2086
  595MOL0     C78414   5.562   1.615   9.726 -0.1908 -0.4571 -0.0523
  595MOL0     C78415   5.646   1.506   9.725  0.7364  0.3302  0.0267
  595MOL0     O78416   5.695   1.454   9.840  0.3508 -0.6963 -0.4470
  595MOL0     C78417   5.657   1.500   9.970 -0.7670  0.7652 -0.1839
  595MOL0     C78418   5.689   1.390  10.081  0.2825 -0.0231 -0.1554
  595MOL0     C78419   5.829   1.325  10.078 -0.1925 -0.1466  1.0992
  595MOL0     C78420   5.848   1.191  10.154 -0.7305  0.1659 -0.0571
  595MOL0     C78421   5.815   1.070  10.065  0.8292  0.4483 -0.2120
  595MOL0     C78422   5.826   0.941  10.155 -0.2675 -0.3357  0.3746
  595MOL0     C78423   5.721   0.932  10.270  0.2125 -0.7751  0.3739
  595MOL0     C78424   5.636   0.810  10.257 -0.6505  0.6760  0.6975
  595MOL0     N78425   5.524   0.832  10.166 -0.6204 -0.0571  0.1425
  595MOL0     C78426   5.544   0.821  10.036  0.2402  0.2073 -0.3923
  595MOL0     C78427   5.428   0.863   9.981 -0.2802  1.1494 -0.5462
  595MOL0     C78428   5.399   0.878   9.837  0.4683 -0.7865 -0.1194
  595MOL0     C78429   5.520   0.944   9.766  0.6686  0.2167  0.8182
  595MOL0     C78430   5.488   1.016   9.633  0.2861 -0.5032  1.1724
  595MOL0     C78431   5.476   0.920   9.509 -0.1818  0.1429  0.3063
  595MOL0     O78432   5.592   0.929   9.430 -0.6235 -0.4218  0.2820
  595MOL0     C78433   5.610   1.027   9.342 -0.3049 -0.1463  0.3382
  595MOL0     C78434   5.516   1.061   9.241 -0.0069 -0.2653  0.3792
  595MOL0     C78435   5.537   1.161   9.144  0.8234  0.2393  0.0395
  595MOL0     C78436   5.648   1.237   9.152 -0.2676  0.4942  0.7792
  595MOL0     C78437   5.675   1.345   9.048  1.4984  0.0864  0.2346
  595MOL0     O78438   5.807   1.380   9.035  0.0345  0.5703  0.5385
  595MOL0     C78439   5.843   1.481   8.947  0.1873 -0.1045 -0.4983
  595MOL0     C78440   5.962   1.468   8.865 -0.1436 -0.2990 -0.4437
  595MOL0     C78441   6.000   1.583   8.799 -0.0431  0.7775  0.6386
  595MOL0     C78442   5.946   1.706   8.812  0.0267  0.8058  0.7818
  595MOL0     O78443   6.009   1.802   8.743 -0.2935 -0.9572 -0.9091
  595MOL0     C78444   5.978   1.942   8.766 -0.2377 -0.5491  0.9172
  595MOL0     C78445   5.846   1.975   8.690 -1.0861 -0.9217 -0.2210
  595MOL0     C78446   5.792   2.109   8.725  0.2424 -1.0404 -0.3730
  595MOL0     C78447   5.762   2.190   8.601  0.3999 -0.8437 -0.3415
  595MOL0     C78448   5.686   2.320   8.635 -0.9796  0.2406 -0.2212
  595MOL0     C78449   5.543   2.311   8.675 -0.0118  1.0276  0.1425
  595MOL0     C78450   5.460   2.315   8.553  1.4822  0.0777 -0.5734
  595MOL0     C78451   5.438   2.465   8.524 -0.3294  0.0507 -1.1181
  595MOL0    Cl78452   5.343   2.484   8.378 -0.1823  0.0412 -0.2412
  595MOL0     C78453   5.838   1.717   8.902  0.7152 -0.2187  0.1723
  595MOL0     C78454   5.787   1.609   8.965 -0.6217  0.3376 -1.0143
  595MOL0     O78455   5.574   1.397   8.994 -0.0893 -0.0684 -1.1144
  595MOL0     C78456   5.741   1.216   9.254  0.1185 -0.1260 -0.1035
  595MOL0     C78457   5.724   1.110   9.338 -0.2348 -0.5184  0.1414
  595MOL0     N78458   5.333   0.882  10.072 -0.4905 -0.7268 -0.8205
  595MOL0     N78459   5.392   0.858  10.192  1.0339 -0.3822  0.0311
  595MOL0     C78460   5.670   1.437   9.608  0.0382  0.2034  0.0210
  595MOL0     C78461   5.627   1.501   9.489 -0.1173  0.8927  0.5738
  595MOL0     C78462   5.499   1.834   9.181  0.2660 -0.6366 -0.2357
  595MOL0     C78463   5.543   1.949   9.115 -0.3077  0.2385  0.0759
  595MOL0     C78464   5.492   1.974   8.989 -0.1310 -0.1966 -0.0160
  595MOL0     C78465   5.394   1.900   8.923  0.1439  0.5930 -0.1587
  595MOL0     O78466   5.351   1.912   8.793 -0.6594  0.5593  0.1253
  595MOL0     C78467   5.441   1.930   8.689 -0.2169  0.9343  0.2445
  595MOL0     C78468   5.506   1.800   8.640 -0.2874 -0.0584  0.1656
  595MOL0     C78469   5.428   1.663   8.641  0.4950 -0.1657  0.0998
  595MOL0     C78470   5.534   1.549   8.633  0.5147 -0.6898 -0.1912
  595MOL0     C78471   5.564   1.512   8.500 -0.4340  0.3841 -0.0529
  595MOL0     C78472   5.609   1.499   8.384  0.3031  0.3022 -0.3826
  595MOL0     C78473   5.341   1.789   8.994  0.5932 -0.5000 -1.2229
  595MOL0     C78474   5.407   1.747   9.111 -1.1521 -0.2806 -0.6291
  595MOL0     H78475   5.459   1.760   9.592 -3.1990 -2.0067  1.3471
  595MOL0     H78476   5.511   1.666   9.808 -2.2967  1.8152 -2.5705
  595MOL0     H78477   5.549   1.513   9.979 -0.9607  0.9216 -2.4000
  595MOL0     H78478   5.717   1.590   9.983  2.4540 -1.0803 -1.2403
  595MOL0     H78479   5.620   1.305  10.068  0.0257 -0.0742  1.4151
  595MOL0     H78480   5.674   1.431  10.181 -2.5740 -1.5124  0.1490
  595MOL0     H78481   5.903   1.399  10.110 -1.1678  1.0339  0.7397
  595MOL0     H78482   5.851   1.300   9.974 -2.1784  3.9218 -0.5145
  595MOL0     H78483   5.954   1.182  10.179 -1.1262  1.3132  2.2373
  595MOL0     H78484   5.802   1.194  10.253  1.2381 -1.7248  0.9915
  595MOL0     H78485   5.874   1.052   9.974  3.0685  3.1796  0.5533
  595MOL0     H78486   5.710   1.069  10.034  0.3416 -1.4092  1.3294
  595MOL0     H78487   5.926   0.935  10.198 -0.6939  1.8416  1.8605
  595MOL0     H78488   5.812   0.862  10.080 -2.7155 -2.3813  2.7615
  595MOL0     H78489   5.779   0.936  10.363  2.5084 -1.3181 -0.9436
  595MOL0     H78490   5.651   1.016  10.273 -0.2737 -1.2112  1.4439
  595MOL0     H78491   5.596   0.787  10.356  1.0624  2.8911  1.9949
  595MOL0     H78492   5.697   0.724  10.229  0.9356  1.8844  0.3360
  595MOL0     H78493   5.634   0.797   9.979  1.2717  0.4523  1.0880
  595MOL0     H78494   5.314   0.948   9.827 -0.8738 -2.1972  0.9501
  595MOL0     H78495   5.378   0.779   9.796  0.3347 -0.8022 -0.0179
  595MOL0     H78496   5.602   0.873   9.754  1.1244  1.1565 -2.4926
  595MOL0     H78497   5.560   1.029   9.822 -2.6909  1.7173  1.2084
  595MOL0     H78498   5.395   1.070   9.649  1.5051  1.9205  0.6535
  595MOL0     H78499   5.570   1.088   9.620  2.7634 -2.6213  3.7225
  595MOL0     H78500   5.384   0.932   9.451 -0.8291 -2.8415  0.5472
  595MOL0     H78501   5.479   0.819   9.551  0.6139 -0.2179 -0.5818
  595MOL0     H78502   5.423   1.006   9.234 -0.4156  0.6004 -1.4957
  595MOL0     H78503   5.464   1.169   9.064 -1.5235 -1.8621  1.7911
  595MOL0     H78504   6.009   1.371   8.856 -0.1529 -0.2745 -0.7636
  595MOL0     H78505   6.091   1.582   8.739 -0.5898  3.2213 -0.3652
  595MOL0     H78506   6.053   2.008   8.722 -0.9907 -1.4025 -1.8390
  595MOL0     H78507   5.977   1.970   8.872 -0.5206  0.4327  0.6678
  595MOL0     H78508   5.764   1.905   8.709  1.1977 -3.8307 -0.3462
  595MOL0     H78509   5.863   1.956   8.584  1.4194 -1.5591  0.2154
  595MOL0     H78510   5.868   2.159   8.787  0.4539 -0.2843 -1.2228
  595MOL0     H78511   5.701   2.105   8.784  2.6777  1.0756  4.0607
  595MOL0     H78512   5.852   2.218   8.545 -0.3438 -0.8696 -1.5751
  595MOL0     H78513   5.702   2.137   8.527  2.1855 -0.6089 -2.0391
  595MOL0     H78514   5.701   2.393   8.555 -1.2728  0.1277 -0.3850
  595MOL0     H78515   5.733   2.370   8.721 -0.4586  3.8910 -2.4087
  595MOL0     H78516   5.500   2.382   8.746 -0.6778 -1.3312  2.2375
  595MOL0     H78517   5.530   2.209   8.712 -0.3987  0.3683 -1.6688
  595MOL0     H78518   5.514   2.271   8.468  3.3623 -2.2116  1.6608
  595MOL0     H78519   5.371   2.256   8.577  2.7866 -0.6886  3.1383
  595MOL0     H78520   5.535   2.513   8.505 -0.2908  0.2558 -0.4396
  595MOL0     H78521   5.389   2.504   8.614  0.8198 -1.6804  0.3237
  595MOL0     H78522   5.787   1.810   8.927 -1.5215 -1.2436 -0.3256
  595MOL0     H78523   5.702   1.621   9.032 -1.4661 -2.2738 -1.5069
  595MOL0     H78524   5.838   1.263   9.266  1.0484 -2.0351  0.3692
  595MOL0     H78525   5.802   1.090   9.412 -0.3990  0.5455  0.6144
  595MOL0     H78526   5.729   1.346   9.608 -1.6120 -1.0390 -3.3050
  595MOL0     H78527   5.655   1.458   9.393  0.0849  2.7315 -0.2319
  595MOL0     H78528   5.623   2.012   9.153  1.0842  0.1163 -2.4634
  595MOL0     H78529   5.526   2.063   8.936  3.1063 -0.3209  1.6655
  595MOL0     H78530   5.515   2.003   8.722  1.0612 -1.5700  3.4317
  595MOL0     H78531   5.381   1.978   8.610 -0.4748  0.7878  0.3492
  595MOL0     H78532   5.534   1.803   8.535 -1.4807 -0.4296 -0.1781
  595MOL0     H78533   5.599   1.795   8.697  0.3886 -3.4658 -1.0085
  595MOL0     H78534   5.370   1.674   8.549 -1.5469  2.7946  1.5782
  595MOL0     H78535   5.372   1.670   8.735  1.8199 -0.7836  0.9805
  595MOL0     H78536   5.625   1.576   8.688 -1.2610  2.2520  1.5846
  595MOL0     H78537   5.498   1.458   8.682  1.3236 -0.9994 -0.1588
  595MOL0     H78538   5.652   1.500   8.285  5.2121  3.7949  1.3615
  595MOL0     H78539   5.268   1.719   8.956 -1.3186 -0.2197  1.6651
  595MOL0     H78540   5.376   1.662   9.172  1.3632  0.4065  1.8041
  596MOL0     O78541   5.977   7.189   4.826 -0.4106  0.0749  0.1304
  596MOL0     C78542   5.932   7.199   4.713  0.4197  0.5163  0.0880
  596MOL0     O78543   5.974   7.127   4.599  0.1439  0.5209 -0.0414
  596MOL0     C78544   6.088   7.047   4.614  0.5822 -0.2065 -0.0999
  596MOL0     C78545   6.066   6.906   4.610 -0.6625 -0.3763  0.2896
  596MOL0     C78546   6.178   6.821   4.600  0.1064  0.1857 -0.3540
  596MOL0     C78547   6.311   6.869   4.609  0.9275  0.0685  0.5228
  596MOL0     O78548   6.415   6.785   4.596 -0.1654  0.0954 -0.1930
  596MOL0     C78549   6.420   6.670   4.683  0.3592 -0.9880  0.6797
  596MOL0     C78550   6.566   6.653   4.710 -0.1033 -0.2838  0.6532
  596MOL0     C78551   6.605   6.751   4.826 -0.4261 -0.7816  0.5057
  596MOL0     C78552   6.619   6.680   4.956  0.4577  0.0026  0.1971
  596MOL0     C78553   6.665   6.774   5.075  0.5444 -0.3036 -1.0460
  596MOL0     C78554   6.822   6.804   5.056 -0.3734 -0.0785 -0.8208
  596MOL0     C78555   6.896   6.851   5.174 -1.0500  0.0610 -0.1566
  596MOL0     C78556   6.856   6.974   5.244  1.2669  0.5220  0.9802
  596MOL0     N78557   6.900   7.086   5.161  0.0803  0.6227 -0.5765
  596MOL0     C78558   6.845   7.136   5.044 -0.2498  0.2804 -0.5710
  596MOL0     C78559   6.912   7.259   5.018  0.1638  0.2442  0.0132
  596MOL0     C78560   6.879   7.356   4.905 -0.3845 -0.0847 -0.3005
  596MOL0     C78561   6.897   7.303   4.760 -0.2534 -0.1547  0.2729
  596MOL0     C78562   6.784   7.207   4.705 -0.1447 -0.8958 -0.6270
  596MOL0     C78563   6.803   7.195   4.554 -0.5384  0.7100 -0.4918
  596MOL0     O78564   6.722   7.082   4.517  0.5392 -0.4817 -0.3373
  596MOL0     C78565   6.771   7.004   4.413  0.2493 -0.5906 -0.3023
  596MOL0     C78566   6.740   7.048   4.287  0.4449  0.0765  0.2399
  596MOL0     C78567   6.775   6.970   4.177 -0.4712  0.6529  0.2367
  596MOL0     C78568   6.861   6.860   4.186  0.3163  0.0928  0.4328
  596MOL0     C78569   6.923   6.797   4.069  0.9754  0.4347  0.0040
  596MOL0     O78570   6.894   6.856   3.953  0.2384  0.0577  0.4579
  596MOL0     C78571   6.913   6.795   3.837  0.0429 -0.3743  0.6400
  596MOL0     C78572   6.880   6.662   3.816 -0.3119  0.6920  0.4995
  596MOL0     C78573   6.897   6.615   3.681 -0.0775 -0.1988 -0.1005
  596MOL0     C78574   6.926   6.691   3.564  0.5361 -0.2549 -0.3475
  596MOL0     O78575   6.940   6.632   3.440  0.1202 -0.2823  0.1450
  596MOL0     C78576   7.052   6.662   3.359 -0.4524 -0.2270  0.2695
  596MOL0     C78577   7.030   6.587   3.225 -0.6095  0.4535  0.4824
  596MOL0     C78578   7.118   6.647   3.117 -0.6105 -0.3739 -0.0386
  596MOL0     C78579   7.116   6.577   2.980 -1.5937  0.1512  0.1654
  596MOL0     C78580   6.982   6.568   2.909  1.0725 -0.9919  0.7330
  596MOL0     C78581   6.958   6.480   2.782  0.1213 -0.7301 -0.4798
  596MOL0     C78582   6.947   6.338   2.823 -0.2876  1.1776  0.3524
  596MOL0     C78583   6.906   6.255   2.703 -0.9005  0.2408  0.0079
  596MOL0    Cl78584   6.999   6.102   2.709 -0.1858  0.8427  0.2077
  596MOL0     C78585   6.969   6.826   3.599 -0.7081 -0.4246 -0.6289
  596MOL0     C78586   6.958   6.876   3.730 -0.5293  0.6835  0.6152
  596MOL0     O78587   6.983   6.694   4.091 -0.2443 -0.1517  0.1047
  596MOL0     C78588   6.888   6.816   4.317  0.5119 -0.1279  0.2256
  596MOL0     C78589   6.843   6.891   4.429  0.4864 -0.4912 -0.6167
  596MOL0     N78590   7.009   7.263   5.118 -0.0109 -0.0069  0.3415
  596MOL0     N78591   7.005   7.164   5.201  0.4870 -0.1358 -0.1286
  596MOL0     C78592   6.328   7.002   4.627 -0.3457  0.2339 -0.5067
  596MOL0     C78593   6.224   7.092   4.610 -0.2935 -0.0071 -0.3775
  596MOL0     C78594   5.797   7.259   4.699 -0.1790  0.7530 -0.3132
  596MOL0     C78595   5.721   7.240   4.585  0.5288  0.4906  0.1767
  596MOL0     C78596   5.583   7.266   4.588  0.3287 -0.0927  0.7105
  596MOL0     C78597   5.517   7.321   4.701 -0.6635 -0.0367 -0.5361
  596MOL0     O78598   5.387   7.347   4.712  0.1635 -0.8118 -0.0670
  596MOL0     C78599   5.297   7.234   4.713 -0.0674 -0.4410  0.5454
  596MOL0     C78600   5.280   7.170   4.572 -0.5553 -0.0371  0.3687
  596MOL0     C78601   5.241   7.262   4.457  0.1968 -1.0536  0.1031
  596MOL0     C78602   5.236   7.184   4.318 -0.4118 -0.2217  0.9470
  596MOL0     C78603   5.367   7.131   4.289  1.0249 -0.5379  0.4590
  596MOL0     C78604   5.470   7.078   4.262 -0.1711  0.1371  0.1680
  596MOL0     C78605   5.603   7.350   4.812  0.2767  0.2140  0.0284
  596MOL0     C78606   5.735   7.307   4.807  0.1571 -0.3412 -0.3047
  596MOL0     H78607   5.965   6.866   4.604 -1.4976  1.3091  1.9559
  596MOL0     H78608   6.162   6.723   4.557  4.3294 -0.7978 -0.1263
  596MOL0     H78609   6.374   6.581   4.639  0.6576  0.2478 -2.3401
  596MOL0     H78610   6.378   6.686   4.783  1.8271  1.0236  1.0312
  596MOL0     H78611   6.613   6.685   4.617 -2.3094  0.0994 -0.4114
  596MOL0     H78612   6.570   6.549   4.741 -1.8613 -0.4534  0.4272
  596MOL0     H78613   6.548   6.844   4.840  0.8542  0.0683  0.2859
  596MOL0     H78614   6.705   6.791   4.808 -1.7170  3.8112  2.0397
  596MOL0     H78615   6.516   6.648   4.978 -0.6656  1.5506 -2.3604
  596MOL0     H78616   6.690   6.598   4.949 -1.2254 -1.4506 -0.5726
  596MOL0     H78617   6.643   6.719   5.166  0.9506  0.2421 -0.6135
  596MOL0     H78618   6.611   6.870   5.073 -0.7580 -1.0150 -1.4148
  596MOL0     H78619   6.849   6.870   4.973  0.8170 -2.6568 -2.6331
  596MOL0     H78620   6.863   6.712   5.015 -1.9343 -1.4993  0.6576
  596MOL0     H78621   6.902   6.775   5.252  4.1165  2.2641  2.0429
  596MOL0     H78622   7.000   6.872   5.146 -2.1697  0.7943 -4.5748
  596MOL0     H78623   6.901   6.977   5.344 -2.4551 -0.5669  2.8450
  596MOL0     H78624   6.749   6.980   5.262  1.0063 -1.1539  0.1113
  596MOL0     H78625   6.764   7.098   4.983  0.6599 -3.0364  0.0859
  596MOL0     H78626   6.947   7.441   4.920 -0.0861 -0.3586 -0.0970
  596MOL0     H78627   6.775   7.387   4.920 -0.4426 -0.5965  0.4099
  596MOL0     H78628   6.999   7.268   4.741  0.0362  1.2437 -0.8794
  596MOL0     H78629   6.895   7.395   4.701  1.1409  1.3353  2.3903
  596MOL0     H78630   6.796   7.104   4.741 -2.0826 -0.4409  1.5748
  596MOL0     H78631   6.687   7.254   4.726  2.6858  5.9881 -0.5422
  596MOL0     H78632   6.909   7.179   4.534 -0.8112 -1.6296 -0.4564
  596MOL0     H78633   6.772   7.284   4.499 -4.2024 -0.0928  0.0199
  596MOL0     H78634   6.691   7.144   4.285 -1.1581 -0.7161 -0.9726
  596MOL0     H78635   6.749   7.016   4.082  1.4055 -2.4065 -1.9269
  596MOL0     H78636   6.850   6.595   3.896  2.1885 -0.6433  0.4096
  596MOL0     H78637   6.875   6.510   3.667 -2.2858 -0.0036  1.3082
  596MOL0     H78638   7.149   6.632   3.400 -0.1660 -2.3214 -1.7217
  596MOL0     H78639   7.063   6.768   3.336  1.9336 -0.4317  0.2044
  596MOL0     H78640   6.922   6.591   3.205 -0.9566 -1.1609  1.7474
  596MOL0     H78641   7.045   6.479   3.233  1.7652  0.8632  2.6964
  596MOL0     H78642   7.220   6.667   3.151 -0.7383 -1.5080  1.0549
  596MOL0     H78643   7.072   6.744   3.096 -2.7824 -1.0048  1.4514
  596MOL0     H78644   7.189   6.639   2.927  0.5033 -1.8286  0.5354
  596MOL0     H78645   7.146   6.472   2.990 -0.9550  0.1985 -1.0507
  596MOL0     H78646   6.962   6.672   2.884  1.0177 -0.2548  3.5604
  596MOL0     H78647   6.907   6.536   2.983 -0.3445  2.8113  1.1266
  596MOL0     H78648   7.045   6.508   2.722  1.0510 -1.3308  0.5699
  596MOL0     H78649   6.865   6.511   2.732 -2.4928 -3.2981  2.4006
  596MOL0     H78650   7.046   6.302   2.852 -0.6599 -0.3770 -0.2080
  596MOL0     H78651   6.875   6.332   2.905  0.1760  1.3940  0.7753
  596MOL0     H78652   6.945   6.294   2.609  0.1331 -1.4352 -0.3031
  596MOL0     H78653   6.799   6.232   2.696 -1.4552  2.3066  0.9844
  596MOL0     H78654   7.029   6.894   3.539  2.1644  1.4031  3.7663
  596MOL0     H78655   6.986   6.981   3.739 -2.1080  1.2273 -0.2877
  596MOL0     H78656   6.939   6.722   4.329  0.4347  0.0088  1.7768
  596MOL0     H78657   6.864   6.860   4.531  1.9210 -0.6852 -0.9574
  596MOL0     H78658   6.426   7.049   4.633 -0.9656  1.4203  1.2328
  596MOL0     H78659   6.247   7.196   4.629 -4.1863  0.7551  1.1346
  596MOL0     H78660   5.756   7.191   4.494 -5.0857  1.1521 -2.8365
  596MOL0     H78661   5.547   7.240   4.489  4.5828 -3.0956 -0.3087
  596MOL0     H78662   5.196   7.263   4.744 -1.5204 -1.2808 -2.9896
  596MOL0     H78663   5.328   7.160   4.788 -0.6145 -2.1532 -0.8345
  596MOL0     H78664   5.372   7.120   4.540  0.2157  0.5495  1.6023
  596MOL0     H78665   5.199   7.097   4.578 -0.9200  0.0283 -2.3741
  596MOL0     H78666   5.307   7.348   4.441 -1.2780  0.1737  0.4063
  596MOL0     H78667   5.140   7.296   4.481 -0.2892 -2.0601 -0.4470
  596MOL0     H78668   5.178   7.092   4.330 -0.3465 -0.3245  0.5096
  596MOL0     H78669   5.185   7.245   4.242 -0.7769  2.7990  3.4260
  596MOL0     H78670   5.563   7.024   4.267 -0.6603 -1.0636 -2.3793
  596MOL0     H78671   5.552   7.395   4.897 -0.4430 -2.1878  0.9495
  596MOL0     H78672   5.793   7.320   4.897  0.6982  0.5051 -0.7597
  597MOL0     O78673   3.355   3.650   3.151 -0.0885  0.4824  0.2099
  597MOL0     C78674   3.442   3.596   3.219 -0.7981 -0.0200  0.7532
  597MOL0     O78675   3.579   3.618   3.203 -0.1661  0.4523  0.5730
  597MOL0     C78676   3.607   3.709   3.106  0.6915  0.2342 -0.0754
  597MOL0     C78677   3.564   3.844   3.104  0.1612  0.4981  0.4639
  597MOL0     C78678   3.631   3.944   3.031 -0.3388 -0.8686  0.2759
  597MOL0     C78679   3.748   3.920   2.957 -0.5235 -0.1986 -0.4035
  597MOL0     O78680   3.811   4.009   2.867  0.7455  0.4038 -0.9592
  597MOL0     C78681   3.758   4.141   2.866  0.1249  0.1810  0.2874
  597MOL0     C78682   3.815   4.227   2.760 -0.0278 -0.5853 -0.1386
  597MOL0     C78683   3.962   4.248   2.797  0.8752 -0.6024  0.6299
  597MOL0     C78684   4.004   4.362   2.701 -0.4700  0.4505  0.7055
  597MOL0     C78685   4.150   4.383   2.713 -0.6181 -0.0382 -0.2805
  597MOL0     C78686   4.199   4.506   2.629  0.6216 -0.0123  0.6530
  597MOL0     C78687   4.322   4.584   2.669  0.4864 -0.8193  0.3137
  597MOL0     C78688   4.351   4.611   2.810  0.7657 -0.7433 -0.1430
  597MOL0     N78689   4.276   4.735   2.841  0.6099  1.0095  0.1384
  597MOL0     C78690   4.139   4.735   2.871 -0.4013  0.1924 -0.1550
  597MOL0     C78691   4.088   4.857   2.853  0.4296  0.1956  0.0629
  597MOL0     C78692   3.942   4.907   2.862 -0.0979  0.2719 -0.1264
  597MOL0     C78693   3.897   4.968   2.724  0.1170 -0.0359 -0.0831
  597MOL0     C78694   3.775   5.060   2.760 -0.4700  0.4255  0.4340
  597MOL0     C78695   3.738   5.153   2.640  0.1574 -0.1014 -1.0147
  597MOL0     O78696   3.641   5.247   2.690  0.5045  0.5200 -0.0125
  597MOL0     C78697   3.564   5.307   2.598  0.5297 -0.1296  0.3858
  597MOL0     C78698   3.426   5.315   2.612  0.3435 -0.0742  0.7210
  597MOL0     C78699   3.345   5.385   2.521 -0.6558  0.1332  0.3357
  597MOL0     C78700   3.398   5.428   2.389  1.0153 -0.1575 -0.8820
  597MOL0     C78701   3.303   5.476   2.281 -0.7377  0.4517 -0.2657
  597MOL0     O78702   3.189   5.516   2.317 -0.3396  0.6632 -0.8344
  597MOL0     C78703   3.106   5.574   2.220 -1.6230  0.8480 -0.1778
  597MOL0     C78704   3.083   5.709   2.239 -0.4981 -0.1147  0.4043
  597MOL0     C78705   3.008   5.775   2.144 -0.3920 -0.0236  1.1982
  597MOL0     C78706   2.943   5.702   2.041  0.1388  0.9202  0.0339
  597MOL0     O78707   2.850   5.762   1.956  1.1262 -0.7334 -0.7985
  597MOL0     C78708   2.796   5.687   1.851  0.4807  0.6571 -0.4857
  597MOL0     C78709   2.655   5.638   1.886  0.1987  0.3494 -0.3162
  597MOL0     C78710   2.633   5.546   2.007  0.0105 -0.4420  0.2815
  597MOL0     C78711   2.489   5.540   2.065 -0.3913  0.6991 -0.7292
  597MOL0     C78712   2.469   5.418   2.157 -0.3584 -0.3943  0.1141
  597MOL0     C78713   2.323   5.411   2.207 -0.3023  0.1590 -0.7925
  597MOL0     C78714   2.304   5.500   2.333  1.2141 -0.0598  0.2495
  597MOL0     C78715   2.163   5.545   2.348 -0.6157 -0.1717  0.2320
  597MOL0    Cl78716   2.110   5.661   2.222 -0.6880 -0.2105 -0.6185
  597MOL0     C78717   2.963   5.559   2.032 -0.1946 -0.0547 -0.0157
  597MOL0     C78718   3.044   5.497   2.122 -0.1376 -0.3647  0.2251
  597MOL0     O78719   3.348   5.482   2.164 -0.9080  0.7075 -0.1138
  597MOL0     C78720   3.532   5.413   2.365 -0.1498 -0.3055  0.3778
  597MOL0     C78721   3.613   5.356   2.471  0.0763 -0.5503  0.2586
  597MOL0     N78722   4.194   4.929   2.793  0.4279  0.5293  0.1220
  597MOL0     N78723   4.298   4.856   2.786 -0.0258 -0.4714 -0.2595
  597MOL0     C78724   3.800   3.792   2.969 -0.1826  0.4085  0.7431
  597MOL0     C78725   3.722   3.690   3.032 -0.6912  0.3224 -0.2182
  597MOL0     C78726   3.415   3.523   3.339 -0.1558  0.4165  0.5220
  597MOL0     C78727   3.303   3.548   3.410  0.3856 -1.0859  0.5320
  597MOL0     C78728   3.273   3.490   3.531  1.1679 -0.8873  0.3905
  597MOL0     C78729   3.360   3.393   3.586  0.6963 -0.5502  0.1977
  597MOL0     O78730   3.325   3.318   3.697 -0.1488  0.1177  1.1337
  597MOL0     C78731   3.188   3.293   3.719  0.3448 -0.2821  0.9053
  597MOL0     C78732   3.122   3.223   3.605  0.3144  0.5001 -0.0176
  597MOL0     C78733   2.991   3.149   3.640  0.8604  0.0892 -0.2523
  597MOL0     C78734   2.945   3.035   3.542 -0.9292 -0.4155 -0.0159
  597MOL0     C78735   2.945   3.093   3.415  1.1171  0.8025 -0.5897
  597MOL0     C78736   2.921   3.113   3.293 -0.2002 -1.0699 -0.3079
  597MOL0     C78737   3.477   3.362   3.523  0.6996 -1.0173 -0.0453
  597MOL0     C78738   3.499   3.429   3.403 -0.1526 -1.0816  0.7821
  597MOL0     H78739   3.478   3.865   3.167 -0.4731 -1.7373  0.4468
  597MOL0     H78740   3.585   4.041   3.016 -2.1360 -1.9828 -2.0384
  597MOL0     H78741   3.790   4.195   2.956 -1.6877  0.8283  0.5842
  597MOL0     H78742   3.649   4.149   2.857  0.2455 -0.2800 -2.3288
  597MOL0     H78743   3.767   4.324   2.771  1.2663 -0.0209  0.6851
  597MOL0     H78744   3.799   4.182   2.661 -0.3498 -0.2677 -0.2326
  597MOL0     H78745   4.018   4.154   2.800 -1.3116 -1.9602  2.4414
  597MOL0     H78746   3.978   4.289   2.897 -0.4078  0.8768  0.2718
  597MOL0     H78747   3.991   4.352   2.592  1.7090  2.0885  0.2347
  597MOL0     H78748   3.946   4.450   2.730 -2.2545 -0.1202 -0.9117
  597MOL0     H78749   4.207   4.297   2.677 -0.0749  0.5055 -0.7221
  597MOL0     H78750   4.170   4.395   2.820  0.5590 -2.7242 -0.1160
  597MOL0     H78751   4.121   4.583   2.626 -0.3096 -0.8348 -3.6948
  597MOL0     H78752   4.212   4.472   2.526 -2.3578 -0.5096  0.3475
  597MOL0     H78753   4.406   4.524   2.634 -2.0865 -3.6866 -1.4646
  597MOL0     H78754   4.325   4.681   2.619  0.5595 -0.9644  0.0330
  597MOL0     H78755   4.457   4.634   2.820  0.1659  1.8670  1.2159
  597MOL0     H78756   4.323   4.525   2.871  0.6530 -2.9016 -3.0352
  597MOL0     H78757   4.068   4.658   2.901  1.4381 -1.6588 -0.3548
  597MOL0     H78758   3.934   4.979   2.945  1.2403 -1.7495  1.8926
  597MOL0     H78759   3.871   4.832   2.897 -2.5004  2.1077 -0.7589
  597MOL0     H78760   3.879   4.885   2.655 -0.2465  0.8925 -1.1383
  597MOL0     H78761   3.965   5.025   2.660 -2.8159 -0.0167 -3.5061
  597MOL0     H78762   3.694   4.989   2.781  1.9317 -2.1566  1.7579
  597MOL0     H78763   3.803   5.113   2.851 -1.4294 -0.1928  1.1049
  597MOL0     H78764   3.703   5.091   2.556 -0.3478 -0.5734 -0.4615
  597MOL0     H78765   3.825   5.212   2.609 -0.1384 -0.8241 -3.4484
  597MOL0     H78766   3.390   5.264   2.701 -0.7941  1.8239  1.4029
  597MOL0     H78767   3.243   5.393   2.556 -0.1123  0.6318  1.8829
  597MOL0     H78768   3.129   5.776   2.311  3.3139 -1.9198 -0.0689
  597MOL0     H78769   2.991   5.881   2.156  4.6665  0.9907  1.6014
  597MOL0     H78770   2.860   5.608   1.809 -2.7689 -1.4665 -1.7939
  597MOL0     H78771   2.797   5.758   1.768  2.7039  3.5598  1.7727
  597MOL0     H78772   2.614   5.590   1.796 -2.3943  0.0256  0.9507
  597MOL0     H78773   2.598   5.730   1.901  1.5707  1.3797 -1.1993
  597MOL0     H78774   2.690   5.594   2.088  0.3440 -0.5658  0.1208
  597MOL0     H78775   2.670   5.445   1.985  1.7322  0.1098  0.4679
  597MOL0     H78776   2.475   5.634   2.118 -0.3384  0.7147 -0.7427
  597MOL0     H78777   2.410   5.535   1.991 -1.7880  1.3504  0.6610
  597MOL0     H78778   2.545   5.412   2.236  0.1484 -3.3918 -0.5076
  597MOL0     H78779   2.485   5.333   2.091 -2.5509  0.6024 -1.8444
  597MOL0     H78780   2.295   5.312   2.243  1.4557  0.5092  1.7692
  597MOL0     H78781   2.261   5.443   2.123 -0.9303  1.4653  0.1491
  597MOL0     H78782   2.329   5.428   2.410  0.3399 -0.8573 -0.1845
  597MOL0     H78783   2.370   5.587   2.337 -0.8264  1.6677 -0.8299
  597MOL0     H78784   2.154   5.594   2.445 -2.5277  0.9066 -0.4396
  597MOL0     H78785   2.094   5.460   2.345 -1.4836  0.5390 -0.6251
  597MOL0     H78786   2.897   5.495   1.975 -1.0890 -0.5875  1.5732
  597MOL0     H78787   3.058   5.390   2.128 -0.0399 -0.3119  1.1743
  597MOL0     H78788   3.572   5.442   2.268 -3.0057  1.6333 -0.3340
  597MOL0     H78789   3.721   5.343   2.471  0.0799 -1.8973  4.6612
  597MOL0     H78790   3.885   3.769   2.905 -0.6702  1.6105 -0.3845
  597MOL0     H78791   3.769   3.592   3.037 -1.3074 -0.0147 -0.7877
  597MOL0     H78792   3.231   3.621   3.374  0.2236 -1.7951 -0.6198
  597MOL0     H78793   3.182   3.520   3.583 -0.7251 -3.5398 -1.1172
  597MOL0     H78794   3.131   3.384   3.736 -1.5331 -0.9405 -1.3988
  597MOL0     H78795   3.170   3.240   3.813 -3.6786 -0.7022  0.0963
  597MOL0     H78796   3.095   3.303   3.536  1.4671  0.8472 -0.0888
  597MOL0     H78797   3.185   3.145   3.561 -2.7150 -2.6597  0.8178
  597MOL0     H78798   2.922   3.233   3.651 -0.8296 -1.5473  3.8113
  597MOL0     H78799   2.992   3.099   3.738  1.7976 -0.6813 -0.6323
  597MOL0     H78800   3.021   2.957   3.552  2.2433  2.5729  1.0442
  597MOL0     H78801   2.845   3.010   3.576 -0.8350 -1.5570 -0.5439
  597MOL0     H78802   2.922   3.153   3.194 -1.1655  3.1463  1.1684
  597MOL0     H78803   3.544   3.286   3.561 -0.1716 -1.1942  1.1868
  597MOL0     H78804   3.589   3.410   3.346 -1.5572 -0.6427 -1.7402
  598MOL0     O78805   5.427   9.738   4.670  0.3469 -0.1296 -0.2551
  598MOL0     C78806   5.403   9.659   4.755  0.7293 -1.0059  0.3571
  598MOL0     O78807   5.433   9.531   4.745 -0.7246  0.2609 -0.8208
  598MOL0     C78808   5.543   9.483   4.684 -1.3105  0.8583  0.4627
  598MOL0     C78809   5.651   9.561   4.637  0.3318  1.0520 -0.2234
  598MOL0     C78810   5.756   9.502   4.562 -0.7591 -0.7888 -0.8335
  598MOL0     C78811   5.772   9.361   4.550  0.4258 -0.2456  0.0886
  598MOL0     O78812   5.884   9.322   4.487 -0.4602  0.5572  0.2903
  598MOL0     C78813   5.902   9.192   4.422 -0.3946  0.1874  0.0362
  598MOL0     C78814   5.871   9.190   4.272  0.5303  0.5491  0.8300
  598MOL0     C78815   5.927   9.301   4.178  0.4005 -0.8445  0.9517
  598MOL0     C78816   5.882   9.285   4.029 -0.4223  0.8343  0.0143
  598MOL0     C78817   5.729   9.257   4.018  0.5405 -0.4204  0.3810
  598MOL0     C78818   5.692   9.270   3.866 -0.6057 -0.5989  0.9529
  598MOL0     C78819   5.578   9.178   3.831  0.0420  0.4168 -0.8617
  598MOL0     C78820   5.441   9.243   3.852  0.6204 -0.6481  0.3721
  598MOL0     N78821   5.428   9.373   3.789  0.8393 -0.5843  0.1198
  598MOL0     C78822   5.464   9.407   3.667  0.2144  0.3809 -0.3421
  598MOL0     C78823   5.430   9.541   3.663  0.7811  0.1930 -0.5494
  598MOL0     C78824   5.442   9.635   3.548  0.3746  0.3132  0.9478
  598MOL0     C78825   5.410   9.578   3.407  0.4970 -0.4310  0.0523
  598MOL0     C78826   5.271   9.511   3.409  0.0094  0.1404 -0.1713
  598MOL0     C78827   5.156   9.608   3.425 -0.4450 -0.5082 -0.3632
  598MOL0     O78828   5.024   9.545   3.436 -0.3710 -0.6497  0.0787
  598MOL0     C78829   4.961   9.521   3.556 -0.3579 -0.3193 -0.1609
  598MOL0     C78830   4.833   9.476   3.555 -0.0033  0.5245  0.2418
  598MOL0     C78831   4.757   9.457   3.673 -0.4392 -0.7488 -0.6830
  598MOL0     C78832   4.820   9.479   3.803  0.3228 -0.8857  0.0522
  598MOL0     C78833   4.751   9.458   3.928 -0.5746  0.1360 -0.0426
  598MOL0     O78834   4.827   9.504   4.037  0.1363  0.1393  0.4068
  598MOL0     C78835   4.771   9.495   4.159 -0.4716 -0.3693 -0.7238
  598MOL0     C78836   4.815   9.401   4.253  0.4775  1.4788  0.1659
  598MOL0     C78837   4.761   9.395   4.379 -0.3926 -0.0323  0.2932
  598MOL0     C78838   4.667   9.496   4.417  0.3349 -0.6814  0.1810
  598MOL0     O78839   4.607   9.494   4.542  0.3145  0.2624 -0.2015
  598MOL0     C78840   4.548   9.373   4.585  0.8187 -0.8296  0.2064
  598MOL0     C78841   4.492   9.407   4.723  0.3743  1.0056 -0.8102
  598MOL0     C78842   4.381   9.314   4.784 -0.6239 -0.8040  0.9277
  598MOL0     C78843   4.354   9.336   4.927  0.4533 -0.9645  0.3647
  598MOL0     C78844   4.222   9.268   4.968 -0.7129  0.2836  0.0050
  598MOL0     C78845   4.228   9.114   4.961 -0.0143  0.6736 -0.1532
  598MOL0     C78846   4.334   9.039   5.049  1.0188  0.4647 -0.3459
  598MOL0     C78847   4.323   8.884   5.068  0.4937  0.6207  0.2172
  598MOL0    Cl78848   4.317   8.824   4.906 -0.2525 -0.5651 -0.1090
  598MOL0     C78849   4.626   9.596   4.322 -0.6675  0.7338 -0.5271
  598MOL0     C78850   4.675   9.588   4.190 -0.3701 -0.9481 -0.0239
  598MOL0     O78851   4.639   9.415   3.935 -0.2380  0.3886 -0.5654
  598MOL0     C78852   4.955   9.514   3.798  0.4509 -0.0866  1.0436
  598MOL0     C78853   5.024   9.538   3.678  0.6367 -1.3448  0.6394
  598MOL0     N78854   5.377   9.588   3.784 -0.0408  0.0536  0.4108
  598MOL0     N78855   5.376   9.481   3.852  0.1126 -0.1812 -0.0716
  598MOL0     C78856   5.666   9.278   4.612  0.6237 -0.2313 -0.4631
  598MOL0     C78857   5.554   9.345   4.671 -1.7531  0.0740  0.3212
  598MOL0     C78858   5.334   9.703   4.883 -0.6500  0.5568  0.2540
  598MOL0     C78859   5.272   9.836   4.893 -0.4455  0.6481 -0.7619
  598MOL0     C78860   5.192   9.871   5.004 -0.4621  0.0670 -0.1124
  598MOL0     C78861   5.179   9.781   5.113  0.8066  1.1719  0.5830
  598MOL0     O78862   5.112   9.811   5.227  0.6428 -0.2314 -0.3138
  598MOL0     C78863   5.047   9.943   5.253 -1.2650  0.3140  0.2018
  598MOL0     C78864   5.143  10.061   5.292 -0.0222 -0.4917  0.4586
  598MOL0     C78865   5.233  10.031   5.424 -0.3120 -0.8428 -0.0653
  598MOL0     C78866   5.159  10.044   5.559  0.4027 -0.7747 -0.6213
  598MOL0     C78867   5.106   9.912   5.597 -0.0973 -0.3327 -0.1343
  598MOL0     C78868   5.048   9.806   5.629  0.5977  0.9038 -0.7629
  598MOL0     C78869   5.246   9.652   5.107  0.1404  0.6213  0.4828
  598MOL0     C78870   5.320   9.606   4.994 -0.6661 -0.2790  0.3536
  598MOL0     H78871   5.656   9.668   4.653 -0.1018  0.8498  1.4171
  598MOL0     H78872   5.827   9.572   4.520 -0.3668 -0.7177 -0.0718
  598MOL0     H78873   5.843   9.118   4.477 -0.9558  0.1790 -0.5645
  598MOL0     H78874   6.009   9.168   4.427  0.1696  2.5213  0.7312
  598MOL0     H78875   5.763   9.204   4.274  0.8756  3.8633  1.6531
  598MOL0     H78876   5.909   9.095   4.232 -0.2363  1.1381 -1.4816
  598MOL0     H78877   6.036   9.304   4.180  0.4331 -0.6849 -0.2721
  598MOL0     H78878   5.889   9.399   4.208 -0.3860 -1.3829  1.7737
  598MOL0     H78879   5.915   9.372   3.971  2.9137 -0.4362 -0.2254
  598MOL0     H78880   5.948   9.206   3.993 -0.1357  0.4578  1.3290
  598MOL0     H78881   5.673   9.319   4.089 -0.7060 -1.6961  0.5647
  598MOL0     H78882   5.718   9.153   4.050  2.6434 -0.6820  0.3411
  598MOL0     H78883   5.784   9.246   3.813  1.2230  1.7036  2.8448
  598MOL0     H78884   5.666   9.371   3.833 -2.6483 -1.4171 -0.1151
  598MOL0     H78885   5.580   9.154   3.724 -2.3476  1.6489 -1.2575
  598MOL0     H78886   5.583   9.085   3.890  1.6334 -0.8980 -2.9345
  598MOL0     H78887   5.430   9.262   3.959  3.6698 -3.5773  1.3934
  598MOL0     H78888   5.356   9.188   3.810 -0.2071  0.7104  0.2203
  598MOL0     H78889   5.515   9.350   3.589 -1.4390 -1.5685 -0.0817
  598MOL0     H78890   5.547   9.667   3.548  0.0487  1.4416  0.4169
  598MOL0     H78891   5.378   9.724   3.554  0.6322  0.6972 -1.0694
  598MOL0     H78892   5.473   9.489   3.398  1.9332  0.5512 -0.0854
  598MOL0     H78893   5.421   9.639   3.317  1.4136 -0.8860 -0.1594
  598MOL0     H78894   5.264   9.464   3.311  1.6738  2.0710 -1.2840
  598MOL0     H78895   5.271   9.432   3.484  1.1207 -1.0963 -1.4230
  598MOL0     H78896   5.149   9.679   3.342  0.6261 -0.4500 -0.4131
  598MOL0     H78897   5.175   9.676   3.508  1.1264  0.1636 -1.2241
  598MOL0     H78898   4.784   9.468   3.458 -1.5574  0.1492  1.0232
  598MOL0     H78899   4.654   9.426   3.663 -0.4355 -0.2822 -2.5160
  598MOL0     H78900   4.890   9.337   4.207  2.3354  2.3507  1.8543
  598MOL0     H78901   4.797   9.342   4.467  0.2209 -0.0282  0.0481
  598MOL0     H78902   4.614   9.287   4.588  0.7893 -0.8502  0.3227
  598MOL0     H78903   4.465   9.339   4.522 -1.2151 -1.9810  3.2320
  598MOL0     H78904   4.446   9.507   4.723 -1.2961  0.2798  0.5236
  598MOL0     H78905   4.575   9.413   4.794  1.7476  0.2710 -2.2956
  598MOL0     H78906   4.411   9.210   4.769 -3.5872 -1.3854 -2.3189
  598MOL0     H78907   4.292   9.332   4.723  0.0546 -0.9307 -0.1238
  598MOL0     H78908   4.426   9.298   5.000 -1.8803 -0.9456  2.8789
  598MOL0     H78909   4.328   9.442   4.934 -0.0908 -1.0824  0.1793
  598MOL0     H78910   4.135   9.307   4.914 -1.3977 -1.5441 -0.2623
  598MOL0     H78911   4.198   9.289   5.073 -2.1588 -0.1826 -0.2149
  598MOL0     H78912   4.248   9.079   4.859 -0.4185 -1.0250  0.3324
  598MOL0     H78913   4.129   9.070   4.975  0.9783 -1.9274 -0.7553
  598MOL0     H78914   4.433   9.065   5.010  1.5664 -1.2395 -0.1723
  598MOL0     H78915   4.319   9.085   5.147  0.0034  0.2087 -0.3738
  598MOL0     H78916   4.234   8.857   5.127  0.9600  0.2459  0.7621
  598MOL0     H78917   4.406   8.837   5.122 -0.9309  0.0074  1.9877
  598MOL0     H78918   4.548   9.671   4.326  1.2800  2.8955 -0.4651
  598MOL0     H78919   4.632   9.650   4.111  2.7408  1.8720  0.2609
  598MOL0     H78920   5.013   9.508   3.890  2.2602 -0.9633 -0.0996
  598MOL0     H78921   5.129   9.566   3.676  0.2463  0.1558 -0.8850
  598MOL0     H78922   5.668   9.169   4.611 -1.8554 -0.3253 -0.6605
  598MOL0     H78923   5.484   9.272   4.711 -1.8290  0.5191  1.0110
  598MOL0     H78924   5.279   9.886   4.797  0.2038 -1.3472 -1.8331
  598MOL0     H78925   5.134   9.963   5.002  1.0319  1.0890  0.9276
  598MOL0     H78926   4.971   9.937   5.332 -1.7186  1.5285 -0.1204
  598MOL0     H78927   5.002   9.969   5.157 -2.7681  2.3084  1.3756
  598MOL0     H78928   5.223  10.084   5.221  0.2230  2.8649  1.6449
  598MOL0     H78929   5.083  10.151   5.307 -0.6796 -0.6944 -0.8729
  598MOL0     H78930   5.319  10.099   5.421 -3.3023  3.5215  1.7796
  598MOL0     H78931   5.265   9.928   5.412 -0.8722 -0.8239 -2.2526
  598MOL0     H78932   5.234  10.055   5.638 -3.9836  1.1120  3.8716
  598MOL0     H78933   5.093  10.130   5.575  1.7759 -0.2563  3.3616
  598MOL0     H78934   5.011   9.709   5.653 -0.3395  0.1784 -4.4952
  598MOL0     H78935   5.232   9.591   5.195 -5.6867  0.5007 -0.1021
  598MOL0     H78936   5.370   9.510   4.988  1.0367  0.4579  1.8817
  599MOL0     O78937   8.146   3.901   6.281 -0.3163  0.3662  0.2608
  599MOL0     C78938   8.157   3.835   6.177  0.5381  0.4587 -0.7668
  599MOL0     O78939   8.147   3.697   6.170 -0.2735  0.4440 -0.1373
  599MOL0     C78940   8.112   3.630   6.284  1.1381 -0.1197  0.0296
  599MOL0     C78941   8.205   3.585   6.378 -0.7614  0.0527  0.0405
  599MOL0     C78942   8.159   3.532   6.504  0.4345 -0.9012  0.2401
  599MOL0     C78943   8.025   3.520   6.524  0.0797  0.3669  0.2110
  599MOL0     O78944   7.963   3.481   6.643  0.7626  0.7972 -0.1647
  599MOL0     C78945   8.025   3.373   6.713 -0.4803  0.2091 -1.2255
  599MOL0     C78946   7.938   3.334   6.833  0.2109 -0.2776 -0.1644
  599MOL0     C78947   7.780   3.342   6.806 -0.0888 -0.0701 -0.5703
  599MOL0     C78948   7.687   3.315   6.930  0.6377 -1.3390 -0.4408
  599MOL0     C78949   7.547   3.265   6.901 -0.2716 -0.8281 -0.3041
  599MOL0     C78950   7.472   3.250   7.042 -0.0265 -0.1198 -0.4096
  599MOL0     C78951   7.334   3.182   7.031  0.5027 -0.5467  0.9029
  599MOL0     C78952   7.244   3.265   6.943 -0.6532  0.5255  0.2347
  599MOL0     N78953   7.111   3.205   6.921  0.2276  0.9250 -0.9569
  599MOL0     C78954   7.074   3.105   6.834 -0.7557  0.5278 -0.0920
  599MOL0     C78955   6.936   3.094   6.843 -0.7408 -1.2780 -0.9282
  599MOL0     C78956   6.852   2.988   6.771  0.2461 -0.4992 -0.2169
  599MOL0     C78957   6.834   2.847   6.836 -0.3794 -0.6941 -0.3515
  599MOL0     C78958   6.796   2.862   6.981 -0.0460  0.2147  0.3945
  599MOL0     C78959   6.681   2.954   7.001 -0.6955 -1.2493  1.2282
  599MOL0     O78960   6.570   2.942   6.913  0.1418  0.1849 -0.3247
  599MOL0     C78961   6.459   2.872   6.971 -0.0052 -0.4253  0.0319
  599MOL0     C78962   6.335   2.925   7.008 -0.4403  0.7617  0.9306
  599MOL0     C78963   6.246   2.850   7.090  0.8696  0.5399  1.1249
  599MOL0     C78964   6.261   2.707   7.100  0.2973 -0.9375 -0.7782
  599MOL0     C78965   6.155   2.616   7.147  0.6997  0.4608  0.5776
  599MOL0     O78966   6.071   2.668   7.241 -0.1975 -0.3125 -0.0888
  599MOL0     C78967   6.116   2.732   7.348  0.4879  0.2443 -0.0386
  599MOL0     C78968   6.040   2.846   7.386  0.9198  0.8032 -0.0363
  599MOL0     C78969   6.073   2.909   7.499  0.7417 -0.4567  0.4170
  599MOL0     C78970   6.178   2.864   7.579 -0.0146  0.2873  0.8077
  599MOL0     O78971   6.195   2.900   7.712 -0.3734 -0.8266 -0.1268
  599MOL0     C78972   6.178   3.036   7.751 -0.6162 -0.1064  0.7181
  599MOL0     C78973   6.280   3.072   7.863  0.4557 -0.4495 -0.7860
  599MOL0     C78974   6.281   3.206   7.920  0.3363 -0.4132  0.0404
  599MOL0     C78975   6.375   3.217   8.052 -0.1349  0.4395  0.1034
  599MOL0     C78976   6.320   3.330   8.139  0.6587 -0.1921 -0.4307
  599MOL0     C78977   6.415   3.348   8.261  1.2418  0.3672  0.3125
  599MOL0     C78978   6.382   3.492   8.317 -0.7715 -0.1447  0.6415
  599MOL0     C78979   6.506   3.524   8.411  0.6034  0.2764 -0.1007
  599MOL0    Cl78980   6.663   3.505   8.320  0.3349  0.4683  0.3977
  599MOL0     C78981   6.262   2.756   7.533 -0.0373 -0.8648  0.7904
  599MOL0     C78982   6.226   2.696   7.419  0.3273  0.2569  0.0100
  599MOL0     O78983   6.132   2.505   7.086 -0.1195 -0.6022 -0.0833
  599MOL0     C78984   6.379   2.657   7.051 -0.9386  0.0837  0.1112
  599MOL0     C78985   6.481   2.737   6.995 -0.3868  0.6157 -0.7065
  599MOL0     N78986   6.898   3.196   6.928  0.8923 -0.2592  0.0353
  599MOL0     N78987   7.000   3.257   6.978 -0.2314 -1.0031  0.4031
  599MOL0     C78988   7.933   3.550   6.419  0.5439 -1.2237 -0.3880
  599MOL0     C78989   7.975   3.608   6.296 -1.0398 -0.1117  0.5773
  599MOL0     C78990   8.186   3.899   6.052 -0.3044  0.8290  0.9977
  599MOL0     C78991   8.173   4.043   6.044 -0.2662  0.1140  0.1181
  599MOL0     C78992   8.234   4.104   5.930  0.2742  0.4114  0.2209
  599MOL0     C78993   8.290   4.029   5.821 -0.1689  0.7114  0.6206
  599MOL0     O78994   8.355   4.076   5.706 -0.7559 -0.3018  0.9053
  599MOL0     C78995   8.359   4.215   5.694  0.5176 -0.7950  0.2286
  599MOL0     C78996   8.466   4.279   5.781 -0.4665  0.8159 -0.2126
  599MOL0     C78997   8.538   4.391   5.710  0.7375 -0.2248 -0.7421
  599MOL0     C78998   8.445   4.514   5.705 -0.4699 -0.3113 -1.1575
  599MOL0     C78999   8.524   4.623   5.644 -0.9339 -0.5173 -0.4057
  599MOL0     C79000   8.575   4.716   5.585 -0.0072 -0.1749  0.1512
  599MOL0     C79001   8.287   3.889   5.830 -0.1323 -1.5116 -0.2981
  599MOL0     C79002   8.234   3.826   5.936 -0.6171 -0.5787 -0.7899
  599MOL0     H79003   8.312   3.586   6.361 -0.6727 -2.0050  0.2805
  599MOL0     H79004   8.236   3.509   6.576  2.0928 -0.1742 -1.2266
  599MOL0     H79005   8.122   3.414   6.741 -0.1615 -0.9599 -0.5649
  599MOL0     H79006   8.043   3.285   6.651 -1.7752 -0.2050 -1.0403
  599MOL0     H79007   7.954   3.399   6.919  0.1129 -1.3767  0.7042
  599MOL0     H79008   7.969   3.235   6.870  1.6922  0.9055  1.9277
  599MOL0     H79009   7.744   3.276   6.727 -2.1860  0.3963 -0.0426
  599MOL0     H79010   7.755   3.435   6.755 -0.9397 -0.5721 -1.0805
  599MOL0     H79011   7.719   3.238   7.001 -0.1116 -2.0608 -0.8571
  599MOL0     H79012   7.668   3.411   6.980  1.7090  0.0029 -2.4741
  599MOL0     H79013   7.560   3.165   6.858 -1.0783 -1.1222  0.1071
  599MOL0     H79014   7.492   3.330   6.833  1.6919  1.1262 -0.1209
  599MOL0     H79015   7.461   3.351   7.083  0.6621 -0.1265 -0.1900
  599MOL0     H79016   7.535   3.191   7.110 -1.5977 -1.4982 -0.0814
  599MOL0     H79017   7.350   3.089   6.975  0.6111 -0.4277  0.7341
  599MOL0     H79018   7.276   3.154   7.119 -4.1347 -1.0724 -1.9868
  599MOL0     H79019   7.289   3.283   6.845 -2.4598  2.7716 -0.2541
  599MOL0     H79020   7.216   3.362   6.985 -0.6161  1.4971 -1.8969
  599MOL0     H79021   7.132   3.044   6.765 -3.5493 -0.4289 -1.7336
  599MOL0     H79022   6.906   2.974   6.677 -0.5752  2.7400 -1.3213
  599MOL0     H79023   6.754   3.030   6.744  0.5129 -0.1924 -0.7230
  599MOL0     H79024   6.933   2.803   6.848 -0.2121 -0.6710 -1.5772
  599MOL0     H79025   6.769   2.790   6.769 -1.8108  3.8501 -3.3040
  599MOL0     H79026   6.759   2.773   7.032  0.8155  0.6489  1.8232
  599MOL0     H79027   6.885   2.888   7.038  2.8974 -2.7090 -2.4337
  599MOL0     H79028   6.718   3.056   7.002  2.7892 -2.3953  1.6038
  599MOL0     H79029   6.649   2.940   7.105 -2.9560 -2.7060  0.4388
  599MOL0     H79030   6.307   3.028   6.992 -1.1938  0.1289 -2.9209
  599MOL0     H79031   6.154   2.902   7.111 -1.4423 -1.3137 -3.0625
  599MOL0     H79032   5.950   2.876   7.334  0.2622  0.5371  0.9157
  599MOL0     H79033   6.011   2.991   7.534  0.3322 -0.7213  0.3179
  599MOL0     H79034   6.081   3.064   7.794 -1.6267 -2.5035  0.1510
  599MOL0     H79035   6.190   3.094   7.659 -2.4083 -3.1172 -1.6060
  599MOL0     H79036   6.378   3.041   7.828 -0.4120 -3.7254 -0.5897
  599MOL0     H79037   6.258   3.020   7.956  2.0554  0.6197  0.2390
  599MOL0     H79038   6.180   3.235   7.949  0.1001 -0.3282 -0.8514
  599MOL0     H79039   6.315   3.285   7.852  2.6308  0.1971  1.7635
  599MOL0     H79040   6.391   3.130   8.116 -0.1961  1.2399  1.2441
  599MOL0     H79041   6.476   3.252   8.030 -0.3992  1.3969  0.3733
  599MOL0     H79042   6.219   3.297   8.166  0.5777 -2.4511 -3.0309
  599MOL0     H79043   6.296   3.420   8.081 -5.4270 -2.2641 -1.8666
  599MOL0     H79044   6.516   3.334   8.224  1.5545 -1.7501  1.7529
  599MOL0     H79045   6.402   3.274   8.341 -2.0702  1.8432  1.3224
  599MOL0     H79046   6.357   3.572   8.247 -3.6120  1.2610  3.0708
  599MOL0     H79047   6.282   3.481   8.359 -1.6593 -1.4193 -1.6248
  599MOL0     H79048   6.508   3.452   8.494  0.5040  1.5442  1.0267
  599MOL0     H79049   6.485   3.626   8.443  0.7104  1.0292 -2.2267
  599MOL0     H79050   6.345   2.718   7.592  0.3651 -2.6776 -0.8469
  599MOL0     H79051   6.279   2.610   7.380  0.9946  0.8896 -0.5208
  599MOL0     H79052   6.391   2.549   7.052 -0.5561  0.1226  1.7079
  599MOL0     H79053   6.575   2.689   6.971 -1.2620 -0.0110 -3.1445
  599MOL0     H79054   7.827   3.537   6.438  0.7433 -1.8197  0.3492
  599MOL0     H79055   7.903   3.650   6.226 -0.4354  1.4247  0.8365
  599MOL0     H79056   8.118   4.106   6.113 -1.8251  1.3043 -2.1199
  599MOL0     H79057   8.231   4.212   5.920 -1.6159  0.3462 -0.2869
  599MOL0     H79058   8.262   4.263   5.709  0.3696 -1.4469  1.4701
  599MOL0     H79059   8.384   4.242   5.591 -0.5154  0.7355  0.3442
  599MOL0     H79060   8.416   4.309   5.874  0.7268 -1.9481  1.4313
  599MOL0     H79061   8.531   4.194   5.803 -3.6047 -1.4496  1.0754
  599MOL0     H79062   8.569   4.348   5.614 -3.3904 -0.3033 -2.2274
  599MOL0     H79063   8.626   4.421   5.767  0.2730 -1.9411  0.9679
  599MOL0     H79064   8.360   4.502   5.638  0.5551 -0.3398 -2.4739
  599MOL0     H79065   8.402   4.543   5.802 -1.8794 -0.1090 -1.8190
  599MOL0     H79066   8.621   4.795   5.529 -1.0450  1.7439  1.8952
  599MOL0     H79067   8.338   3.835   5.751  2.1438 -0.8591  0.6616
  599MOL0     H79068   8.249   3.719   5.945  2.1237 -0.1833  0.0603
  600MOL0     O79069   6.300   2.266   8.896  0.0224 -0.0292 -0.3663
  600MOL0     C79070   6.182   2.269   8.929  0.0286 -0.8458 -0.2089
  600MOL0     O79071   6.086   2.350   8.874 -0.2112  1.0788 -0.1194
  600MOL0     C79072   6.113   2.406   8.754  0.1040  0.6737  0.0054
  600MOL0     C79073   6.110   2.324   8.633 -0.6309  1.0096 -0.2365
  600MOL0     C79074   6.105   2.380   8.503  0.3369  0.2129  0.3379
  600MOL0     C79075   6.118   2.515   8.483  0.7648  0.0663 -0.2522
  600MOL0     O79076   6.128   2.564   8.355  0.3427  0.7085  0.1854
  600MOL0     C79077   6.253   2.539   8.283  0.1252  0.2619  0.8248
  600MOL0     C79078   6.287   2.644   8.169  0.1565  0.1013 -0.4407
  600MOL0     C79079   6.420   2.611   8.104  0.7315 -0.5387  0.0571
  600MOL0     C79080   6.451   2.712   7.992 -0.1184 -0.5456 -0.0126
  600MOL0     C79081   6.603   2.706   7.942 -0.2811  0.0053 -0.0888
  600MOL0     C79082   6.646   2.578   7.877  1.2180 -0.1153  0.3194
  600MOL0     C79083   6.796   2.547   7.865  0.5081  0.1791 -0.1735
  600MOL0     C79084   6.862   2.514   7.998  0.7851  0.3708 -0.7260
  600MOL0     N79085   6.989   2.586   8.015  0.4764 -0.8220  1.4267
  600MOL0     C79086   7.118   2.547   7.994  0.2615 -0.1132  0.3006
  600MOL0     C79087   7.185   2.658   8.001  0.1025  0.2444  0.6312
  600MOL0     C79088   7.332   2.688   7.960  0.3245 -0.4466 -0.1083
  600MOL0     C79089   7.360   2.825   7.892  0.3263 -0.7320  0.4914
  600MOL0     C79090   7.367   2.809   7.732  0.3436  0.4906 -0.4095
  600MOL0     C79091   7.512   2.801   7.683  0.1603 -0.3741  0.5051
  600MOL0     O79092   7.569   2.668   7.697  0.4403 -0.3719  0.0143
  600MOL0     C79093   7.664   2.619   7.613  0.4268  0.3423 -0.4895
  600MOL0     C79094   7.682   2.484   7.629  0.3551  0.0054 -0.9899
  600MOL0     C79095   7.785   2.422   7.558 -0.0339  0.1788 -0.9979
  600MOL0     C79096   7.867   2.487   7.462  0.4252  0.2435 -0.9024
  600MOL0     C79097   7.958   2.409   7.365  0.4237  1.3777 -0.4672
  600MOL0     O79098   7.932   2.270   7.352  0.3676  0.2682 -0.0756
  600MOL0     C79099   8.018   2.176   7.286 -0.4740  0.2003 -0.0870
  600MOL0     C79100   7.972   2.057   7.236 -0.5784  0.4850  0.9709
  600MOL0     C79101   8.059   1.966   7.182 -0.0951 -0.8470  0.7175
  600MOL0     C79102   8.197   2.004   7.161  0.0910  0.8228 -0.0006
  600MOL0     O79103   8.279   1.908   7.096 -0.1646 -0.0095 -0.2513
  600MOL0     C79104   8.420   1.934   7.117 -0.4523  1.1245  0.2249
  600MOL0     C79105   8.501   1.826   7.045  0.0444  0.0858 -0.5953
  600MOL0     C79106   8.494   1.838   6.885  0.7156 -0.3458 -0.2032
  600MOL0     C79107   8.563   1.741   6.801 -0.2072  0.6187 -0.2968
  600MOL0     C79108   8.699   1.781   6.744 -0.8768 -0.0718 -0.3746
  600MOL0     C79109   8.765   1.662   6.667  1.5092 -0.4538 -0.1524
  600MOL0     C79110   8.897   1.708   6.607 -0.1010 -0.5687  0.6740
  600MOL0     C79111   8.863   1.799   6.479 -0.0103 -0.4508  0.4671
  600MOL0    Cl79112   9.010   1.822   6.387 -0.1953 -0.0346  0.6625
  600MOL0     C79113   8.252   2.119   7.216 -0.1786 -0.0787  0.9494
  600MOL0     C79114   8.155   2.204   7.268 -0.7589  0.7498 -0.8641
  600MOL0     O79115   8.029   2.475   7.290  0.6151 -0.4992 -0.4823
  600MOL0     C79116   7.857   2.630   7.464  0.5707  0.2248  0.1993
  600MOL0     C79117   7.764   2.697   7.552 -0.5530  0.1588 -0.0298
  600MOL0     N79118   7.105   2.764   8.035  0.2209  0.6158 -0.0005
  600MOL0     N79119   6.988   2.720   8.036  0.3541 -0.0184  0.5247
  600MOL0     C79120   6.117   2.598   8.600  0.3169 -0.3360 -0.0992
  600MOL0     C79121   6.119   2.546   8.732 -0.4862 -0.3251 -0.0965
  600MOL0     C79122   6.136   2.165   9.023  0.8408  0.3317  0.5431
  600MOL0     C79123   5.999   2.146   9.057 -0.7201 -0.8021 -0.0200
  600MOL0     C79124   5.954   2.048   9.137  0.2963  0.8349 -0.5222
  600MOL0     C79125   6.047   1.961   9.195  0.2231 -0.6530  0.5299
  600MOL0     O79126   5.994   1.854   9.260 -0.3635  0.6439  0.2310
  600MOL0     C79127   6.057   1.720   9.269 -0.1394  0.4057 -0.9095
  600MOL0     C79128   6.040   1.663   9.412  0.2675 -0.8779  1.1074
  600MOL0     C79129   6.026   1.511   9.425 -0.7283  0.2589 -0.7020
  600MOL0     C79130   6.150   1.441   9.384  0.3283 -0.8366 -0.7792
  600MOL0     C79131   6.143   1.297   9.411 -0.0606 -0.4867 -1.0376
  600MOL0     C79132   6.128   1.178   9.422 -0.1402 -0.2248 -0.4730
  600MOL0     C79133   6.187   1.975   9.169  0.5048  0.4742  0.7993
  600MOL0     C79134   6.224   2.079   9.082 -0.4028 -0.8479  1.0554
  600MOL0     H79135   6.111   2.216   8.642 -0.6999  0.9138 -1.2072
  600MOL0     H79136   6.093   2.302   8.428 -0.5856 -2.7514  3.2835
  600MOL0     H79137   6.235   2.441   8.238  0.1783  0.3969  0.5066
  600MOL0     H79138   6.335   2.532   8.355  1.0848 -0.5175 -0.3118
  600MOL0     H79139   6.296   2.741   8.220 -2.0404  1.8604 -3.0984
  600MOL0     H79140   6.210   2.668   8.095  2.3261  1.8058 -2.3032
  600MOL0     H79141   6.427   2.511   8.059  2.9645  0.1164 -1.2052
  600MOL0     H79142   6.495   2.610   8.184  0.2129  1.4579  0.6134
  600MOL0     H79143   6.382   2.703   7.908  0.3725 -0.5369 -0.4249
  600MOL0     H79144   6.436   2.814   8.030  0.6064  0.1921 -1.5955
  600MOL0     H79145   6.681   2.730   8.015  3.4263 -0.4591 -3.5653
  600MOL0     H79146   6.613   2.793   7.876 -0.1594 -0.0136 -0.0954
  600MOL0     H79147   6.619   2.589   7.772 -2.2232 -0.1974  1.0655
  600MOL0     H79148   6.600   2.489   7.920  1.5234 -0.6619 -0.4641
  600MOL0     H79149   6.799   2.456   7.804  0.6010  0.9450 -1.3427
  600MOL0     H79150   6.858   2.623   7.816  2.9145 -1.1801  0.5945
  600MOL0     H79151   6.877   2.408   8.018  0.3061  0.3884 -0.2471
  600MOL0     H79152   6.783   2.549   8.065 -2.1347 -2.1107 -2.6446
  600MOL0     H79153   7.150   2.451   7.955 -0.3428  0.2257 -1.0816
  600MOL0     H79154   7.373   2.604   7.903 -2.6128 -1.0581 -1.5384
  600MOL0     H79155   7.387   2.704   8.053  1.3369  0.6071 -0.8660
  600MOL0     H79156   7.456   2.866   7.923  1.2669  0.2234 -3.2851
  600MOL0     H79157   7.280   2.896   7.915 -0.4490 -0.8370 -1.7036
  600MOL0     H79158   7.308   2.727   7.691 -1.3874  0.9935  0.9063
  600MOL0     H79159   7.317   2.898   7.691  2.1078  1.8666  0.2813
  600MOL0     H79160   7.576   2.873   7.734 -0.9710  0.5570  0.6508
  600MOL0     H79161   7.512   2.832   7.578 -0.8408 -1.9388  0.0036
  600MOL0     H79162   7.605   2.430   7.682  0.8610 -1.2364 -1.4956
  600MOL0     H79163   7.811   2.319   7.580 -2.0864 -1.0500 -3.6669
  600MOL0     H79164   7.870   2.023   7.251 -0.4133 -1.1608 -1.1974
  600MOL0     H79165   8.009   1.873   7.158 -2.9669 -0.4916  4.3979
  600MOL0     H79166   8.444   1.927   7.223 -0.6765 -0.6480  0.1886
  600MOL0     H79167   8.442   2.030   7.068  3.2580 -0.9674 -2.6887
  600MOL0     H79168   8.480   1.725   7.081 -2.7485  0.9350  0.4889
  600MOL0     H79169   8.607   1.839   7.067  1.0517 -1.5459 -3.7603
  600MOL0     H79170   8.512   1.943   6.858  1.2780 -0.4422 -0.2007
  600MOL0     H79171   8.388   1.821   6.863 -0.3814  1.3294  3.0625
  600MOL0     H79172   8.588   1.648   6.853  0.5987  0.9087 -0.1501
  600MOL0     H79173   8.507   1.722   6.710  0.7428 -3.5788 -0.2025
  600MOL0     H79174   8.763   1.813   6.826 -1.2202 -0.8171  0.1876
  600MOL0     H79175   8.682   1.859   6.668  1.9434 -1.0772 -2.2073
  600MOL0     H79176   8.693   1.615   6.599 -0.8869  0.7336  1.4222
  600MOL0     H79177   8.779   1.573   6.729 -0.8808 -2.0147 -1.6801
  600MOL0     H79178   8.961   1.763   6.676  0.7789 -0.7346  0.0022
  600MOL0     H79179   8.954   1.630   6.556  1.9958  1.5425 -0.3863
  600MOL0     H79180   8.819   1.897   6.501  0.4004  0.3985 -2.1412
  600MOL0     H79181   8.792   1.738   6.423 -0.2722  0.6458 -0.4422
  600MOL0     H79182   8.352   2.154   7.197 -1.0068  2.3245  0.6373
  600MOL0     H79183   8.195   2.303   7.289 -1.4837  0.6935  1.0000
  600MOL0     H79184   7.914   2.688   7.393 -1.6831  1.0514 -1.0521
  600MOL0     H79185   7.762   2.804   7.537  0.3718  0.0763 -0.9061
  600MOL0     H79186   6.137   2.705   8.589  2.5728 -0.7275 -0.3962
  600MOL0     H79187   6.115   2.612   8.818 -1.0933 -1.1627  0.5425
  600MOL0     H79188   5.932   2.219   9.011 -2.2600 -2.6514 -0.8346
  600MOL0     H79189   5.853   2.036   9.175  0.2862  0.4157 -0.6773
  600MOL0     H79190   6.164   1.734   9.250 -0.5123  1.1065 -2.6512
  600MOL0     H79191   6.016   1.656   9.191 -0.5856 -0.0736 -0.2900
  600MOL0     H79192   6.118   1.716   9.468  0.7744 -0.1905 -0.2163
  600MOL0     H79193   5.948   1.712   9.444  1.5722  0.1498  3.6299
  600MOL0     H79194   5.947   1.481   9.355  1.5167 -3.8473 -1.8517
  600MOL0     H79195   6.004   1.488   9.529 -1.2694  2.7317 -0.2136
  600MOL0     H79196   6.167   1.457   9.277 -3.1801  3.1103 -1.0193
  600MOL0     H79197   6.240   1.463   9.443  0.7058 -1.9332 -0.9157
  600MOL0     H79198   6.123   1.071   9.426  0.9565 -0.3521 -1.7848
  600MOL0     H79199   6.254   1.897   9.203 -1.0065 -1.0911  0.3555
  600MOL0     H79200   6.330   2.079   9.055 -0.6427 -0.1776  0.0284
  601MOL0     O79201   8.678   2.130   7.656  0.2754 -0.6609  0.5269
  601MOL0     C79202   8.584   2.099   7.584  0.5010 -0.5239  0.6581
  601MOL0     O79203   8.592   2.029   7.471  0.0377 -0.6011  0.1974
  601MOL0     C79204   8.707   1.971   7.417 -1.2239 -0.1470  0.3367
  601MOL0     C79205   8.748   2.002   7.292 -0.3709  0.1232  0.4439
  601MOL0     C79206   8.877   1.957   7.243 -0.0989 -0.4656  0.2588
  601MOL0     C79207   8.960   1.876   7.329  0.3530  0.6173  0.3472
  601MOL0     O79208   9.061   1.801   7.270 -0.4014 -0.8820  0.1290
  601MOL0     C79209   9.172   1.750   7.353 -0.2424 -0.1675  0.3944
  601MOL0     C79210   9.230   1.625   7.291 -0.3172  0.1869 -0.4658
  601MOL0     C79211   9.133   1.511   7.319  0.0502 -0.4078  0.2672
  601MOL0     C79212   9.174   1.373   7.254 -0.4235 -0.1484 -0.3141
  601MOL0     C79213   9.083   1.260   7.299 -0.3398  0.0640  0.9232
  601MOL0     C79214   9.105   1.210   7.449 -0.5875  0.6825  0.6308
  601MOL0     C79215   9.004   1.092   7.469 -0.2466  0.1766 -0.0450
  601MOL0     C79216   8.873   1.138   7.534  0.3837  0.2157  0.3245
  601MOL0     N79217   8.783   1.027   7.554  0.2155 -0.0032 -0.2593
  601MOL0     C79218   8.702   0.974   7.452 -0.0992 -0.7301  1.3233
  601MOL0     C79219   8.660   0.860   7.502  0.1839 -0.3571  0.1282
  601MOL0     C79220   8.565   0.766   7.439  1.3060  0.5084  0.4612
  601MOL0     C79221   8.609   0.616   7.440 -0.5580 -0.0282 -1.6528
  601MOL0     C79222   8.553   0.545   7.577  0.9334 -0.4008  0.3006
  601MOL0     C79223   8.590   0.393   7.573  0.7823  0.1754 -0.3636
  601MOL0     O79224   8.542   0.355   7.437 -1.2118  0.3595 -0.8421
  601MOL0     C79225   8.577   0.231   7.393  0.1691  0.7129  0.0789
  601MOL0     C79226   8.514   0.197   7.280 -0.2396  0.0154 -0.2522
  601MOL0     C79227   8.546   0.081   7.206 -0.5229 -0.5082  0.1670
  601MOL0     C79228   8.635  -0.014   7.255  0.3815  0.6780 -0.3527
  601MOL0     C79229   8.700  -0.111   7.167  0.1177 -0.1937 -0.0952
  601MOL0     O79230   8.780  -0.210   7.221  0.0395  0.0618 -0.6185
  601MOL0     C79231   8.859  -0.306   7.155  0.6096 -0.4755 -0.1741
  601MOL0     C79232   8.802  -0.405   7.081  0.7323  0.4632  1.9911
  601MOL0     C79233   8.889  -0.504   7.035  0.1235  1.1608 -0.8219
  601MOL0     C79234   9.031  -0.501   7.051  0.3885 -0.1854 -0.2049
  601MOL0     O79235   9.094  -0.605   6.987  0.0178 -1.1378  0.1315
  601MOL0     C79236   9.204  -0.675   7.046  0.9822 -0.0008 -0.2586
  601MOL0     C79237   9.211  -0.791   6.955  0.0779  1.3770 -0.2198
  601MOL0     C79238   9.104  -0.903   6.988 -0.7659  0.5845 -0.4621
  601MOL0     C79239   9.079  -0.987   6.861 -0.4881 -0.1775 -1.6750
  601MOL0     C79240   9.023  -1.117   6.923  0.6131  0.2925 -0.2706
  601MOL0     C79241   8.942  -1.191   6.821  0.0409 -0.3384  0.7029
  601MOL0     C79242   8.891  -1.319   6.891  0.6241  0.3872 -0.1475
  601MOL0     C79243   8.741  -1.317   6.928 -1.3231 -0.2575 -0.3286
  601MOL0    Cl79244   8.684  -1.425   7.055 -0.2276  0.3474 -0.0101
  601MOL0     C79245   9.092  -0.390   7.125  0.7574 -0.5476  0.9107
  601MOL0     C79246   9.001  -0.297   7.170  0.5813  0.5198  0.1368
  601MOL0     O79247   8.669  -0.105   7.050 -0.1174  0.3208 -0.5042
  601MOL0     C79248   8.683   0.003   7.386  0.5818  0.8350 -0.5784
  601MOL0     C79249   8.655   0.133   7.453 -0.3436 -0.0698  1.3360
  601MOL0     N79250   8.703   0.843   7.636 -0.3994 -0.1139  0.4953
  601MOL0     N79251   8.776   0.937   7.659  0.0905  0.0128 -0.0771
  601MOL0     C79252   8.914   1.856   7.457  0.3898  0.1206 -0.0272
  601MOL0     C79253   8.790   1.906   7.501 -0.5360 -0.4217 -0.5092
  601MOL0     C79254   8.448   2.122   7.642  0.3360  0.2141  0.1545
  601MOL0     C79255   8.339   2.060   7.590  0.5214 -0.5208  0.2332
  601MOL0     C79256   8.204   2.106   7.618 -0.8990  0.9454 -0.4122
  601MOL0     C79257   8.194   2.216   7.713  0.8436  0.0207 -0.6365
  601MOL0     O79258   8.062   2.249   7.752  0.3536 -0.4025 -0.1037
  601MOL0     C79259   8.034   2.354   7.847  0.1527 -0.7882 -0.7456
  601MOL0     C79260   8.048   2.307   7.995  0.2615  0.1665 -0.6342
  601MOL0     C79261   7.986   2.435   8.065  0.3643  0.5575  0.4603
  601MOL0     C79262   8.055   2.465   8.194  0.6710 -0.1038 -1.3523
  601MOL0     C79263   8.062   2.346   8.282  0.1871  0.4558  1.4864
  601MOL0     C79264   8.048   2.254   8.349 -0.5781 -0.5929 -1.1083
  601MOL0     C79265   8.306   2.260   7.791 -0.9238 -0.8184 -0.3552
  601MOL0     C79266   8.431   2.226   7.746 -0.6402 -0.1332  0.6846
  601MOL0     H79267   8.674   2.048   7.227 -2.7609 -3.1393  0.6418
  601MOL0     H79268   8.916   1.962   7.142 -1.0130  0.8405 -0.0431
  601MOL0     H79269   9.137   1.723   7.453 -0.1510 -5.2595 -0.6757
  601MOL0     H79270   9.251   1.825   7.361  1.1798 -0.9711 -3.5876
  601MOL0     H79271   9.317   1.599   7.352 -0.5447 -1.9784 -0.9952
  601MOL0     H79272   9.262   1.624   7.187  0.4053 -0.8505 -0.2464
  601MOL0     H79273   9.031   1.530   7.284 -0.7732  0.6511  2.9995
  601MOL0     H79274   9.122   1.501   7.427 -1.0794  0.2844  0.2391
  601MOL0     H79275   9.168   1.387   7.146 -1.0282 -1.3063 -0.4406
  601MOL0     H79276   9.276   1.342   7.280  0.3429  0.1680 -2.6885
  601MOL0     H79277   9.081   1.182   7.222  1.8745  0.3383  0.5247
  601MOL0     H79278   8.988   1.313   7.293  0.4352  1.3994 -0.0295
  601MOL0     H79279   9.097   1.288   7.525  1.6569 -0.4005  2.0626
  601MOL0     H79280   9.209   1.176   7.451 -0.5351  0.7909 -0.0668
  601MOL0     H79281   8.995   1.038   7.375  2.0490  0.3993 -0.4707
  601MOL0     H79282   9.051   1.019   7.535  0.4108  0.0211 -0.6691
  601MOL0     H79283   8.819   1.206   7.468  0.9387  0.9120  0.5763
  601MOL0     H79284   8.902   1.175   7.633  1.3915  2.9668 -0.9013
  601MOL0     H79285   8.694   1.015   7.352  0.8638 -0.9994  1.1184
  601MOL0     H79286   8.574   0.802   7.336  0.9107  3.2303  1.2912
  601MOL0     H79287   8.464   0.787   7.475  0.6715 -0.0083 -0.9328
  601MOL0     H79288   8.717   0.606   7.430 -0.4155  0.6615 -0.8731
  601MOL0     H79289   8.558   0.568   7.355 -0.2734 -0.6678 -1.4675
  601MOL0     H79290   8.608   0.579   7.666  1.1202 -3.0190  1.2923
  601MOL0     H79291   8.448   0.563   7.598  1.0714 -1.0089  1.6047
  601MOL0     H79292   8.528   0.347   7.650  0.9589 -1.5738 -1.2087
  601MOL0     H79293   8.696   0.377   7.594  0.4652  1.0732  2.3101
  601MOL0     H79294   8.443   0.262   7.231  0.9139  2.2618  0.8980
  601MOL0     H79295   8.507   0.090   7.105  1.5162  4.2992 -0.4599
  601MOL0     H79296   8.694  -0.415   7.076  0.8964 -0.7854 -0.0127
  601MOL0     H79297   8.850  -0.593   6.986  0.8864 -1.2887  2.6162
  601MOL0     H79298   9.198  -0.685   7.155  0.0336  2.1158 -0.0557
  601MOL0     H79299   9.293  -0.611   7.037  1.9504 -1.1998  0.4001
  601MOL0     H79300   9.306  -0.842   6.937 -1.2525 -0.8859 -1.2328
  601MOL0     H79301   9.177  -0.763   6.855  0.3723 -2.2230 -1.4924
  601MOL0     H79302   9.009  -0.852   7.006 -1.6326 -0.8144 -0.9400
  601MOL0     H79303   9.141  -0.949   7.080  0.1166 -0.5175 -1.3423
  601MOL0     H79304   9.010  -0.948   6.786 -0.4084 -0.7182 -2.0333
  601MOL0     H79305   9.174  -0.999   6.808 -1.0105 -1.4852 -2.3592
  601MOL0     H79306   8.955  -1.098   7.007  0.9236 -3.1111  0.9335
  601MOL0     H79307   9.098  -1.176   6.978 -0.7186 -0.7320  0.5085
  601MOL0     H79308   9.007  -1.216   6.737 -2.3956 -1.6989 -0.8974
  601MOL0     H79309   8.857  -1.128   6.792  0.0177  0.0760  1.6151
  601MOL0     H79310   8.917  -1.402   6.825  0.5909  1.7399 -1.9180
  601MOL0     H79311   8.938  -1.335   6.989  0.3542 -1.2927 -0.2615
  601MOL0     H79312   8.697  -1.331   6.829 -0.3836  2.7780 -1.2679
  601MOL0     H79313   8.713  -1.215   6.954 -0.3225  0.6511 -2.5824
  601MOL0     H79314   9.201  -0.391   7.129  0.8142 -0.5866 -0.2974
  601MOL0     H79315   9.030  -0.215   7.235 -1.3854  0.6539  0.9169
  601MOL0     H79316   8.756  -0.062   7.432  1.5122  2.6339  0.6121
  601MOL0     H79317   8.699   0.133   7.552 -1.3333  1.0179  1.8055
  601MOL0     H79318   8.958   1.782   7.523 -0.9761  0.8168  1.7541
  601MOL0     H79319   8.756   1.881   7.601  0.6759 -1.4438 -0.3202
  601MOL0     H79320   8.346   1.984   7.513  2.2300 -1.4774  1.2808
  601MOL0     H79321   8.115   2.065   7.573 -0.3926  1.3178 -1.8188
  601MOL0     H79322   7.934   2.396   7.828 -0.0222 -0.6795  0.3502
  601MOL0     H79323   8.101   2.439   7.830 -0.3807 -0.2620 -0.2977
  601MOL0     H79324   8.011   2.207   8.019  1.3758  0.2019  1.4583
  601MOL0     H79325   8.155   2.297   8.019  0.0787  2.7957  1.9073
  601MOL0     H79326   7.881   2.412   8.085  1.2684 -1.9669  2.8748
  601MOL0     H79327   7.991   2.526   8.005  3.7758  0.6225  0.6681
  601MOL0     H79328   8.160   2.488   8.172  1.5220  0.4598  2.5388
  601MOL0     H79329   8.004   2.545   8.249  0.5927  0.4532 -2.2119
  601MOL0     H79330   8.032   2.165   8.407  1.6578 -0.4666 -0.2118
  601MOL0     H79331   8.298   2.329   7.874  0.7319 -1.7965  0.6942
  601MOL0     H79332   8.519   2.250   7.804  0.5861 -0.5104 -0.9361
  602MOL0     O79333   5.147   0.136   0.551  0.0381 -0.2083  0.3027
  602MOL0     C79334   5.098   0.090   0.446 -0.0703  0.5322 -0.7762
  602MOL0     O79335   5.162   0.005   0.354 -0.0759  0.3236 -0.5146
  602MOL0     C79336   5.269  -0.062   0.411  0.2122 -1.3984  0.7320
  602MOL0     C79337   5.395   0.000   0.416 -0.5825 -0.5353 -0.4875
  602MOL0     C79338   5.508  -0.066   0.470  1.1842 -0.2429 -0.7226
  602MOL0     C79339   5.501  -0.208   0.490 -0.0178 -1.0740  0.2683
  602MOL0     O79340   5.615  -0.274   0.531  0.1193  0.1725  0.3681
  602MOL0     C79341   5.663  -0.371   0.431 -0.5363 -1.1778 -0.0843
  602MOL0     C79342   5.685  -0.306   0.290  0.3907 -0.1200 -0.3222
  602MOL0     C79343   5.759  -0.170   0.282  0.0174  0.3027  0.8400
  602MOL0     C79344   5.796  -0.117   0.141  0.4392 -0.3374  0.3071
  602MOL0     C79345   5.915  -0.024   0.160 -0.0705 -0.4633  0.4635
  602MOL0     C79346   5.885   0.100   0.251  0.1896 -0.0439  0.3365
  602MOL0     C79347   5.983   0.218   0.209  0.5372  0.7434 -0.1902
  602MOL0     C79348   6.006   0.310   0.336  0.8221 -0.9727  0.5226
  602MOL0     N79349   5.893   0.413   0.360 -0.1646  0.4907  0.6772
  602MOL0     C79350   5.782   0.387   0.451 -0.1007 -0.4046  0.7961
  602MOL0     C79351   5.695   0.462   0.384  0.3623 -0.5212  0.6513
  602MOL0     C79352   5.554   0.496   0.413  0.3996 -0.5019 -0.5422
  602MOL0     C79353   5.471   0.368   0.429  0.4610 -0.1380 -0.1084
  602MOL0     C79354   5.338   0.415   0.491  0.2426  0.2986 -0.6950
  602MOL0     C79355   5.237   0.498   0.410  0.7266  0.3140 -0.5728
  602MOL0     O79356   5.216   0.430   0.285  0.1784  0.5650  0.0796
  602MOL0     C79357   5.119   0.477   0.205 -0.2368 -0.3102 -0.4209
  602MOL0     C79358   5.124   0.601   0.153  0.2921  0.2908  0.5301
  602MOL0     C79359   5.010   0.652   0.091 -0.0068 -0.1971 -1.1885
  602MOL0     C79360   4.889   0.575   0.086  0.8354 -0.7409 -1.3087
  602MOL0     C79361   4.767   0.636   0.026  0.6216 -0.4352  0.2782
  602MOL0     O79362   4.772   0.759  -0.022  0.1457 -0.7389  0.5865
  602MOL0     C79363   4.660   0.844  -0.020 -1.1125  0.5148 -0.1931
  602MOL0     C79364   4.575   0.846   0.094  0.1133 -0.2346  0.4788
  602MOL0     C79365   4.466   0.945   0.105  0.0081  0.3457  0.3738
  602MOL0     C79366   4.457   1.050   0.015 -0.9022  0.1227  0.9035
  602MOL0     O79367   4.354   1.139   0.030 -0.4942  0.4648 -0.3813
  602MOL0     C79368   4.226   1.096   0.086  0.4556 -0.1681 -0.3549
  602MOL0     C79369   4.119   1.193   0.060  0.4207 -1.0900 -0.6589
  602MOL0     C79370   3.982   1.129   0.071 -0.0326  0.6044 -0.7454
  602MOL0     C79371   3.870   1.228   0.040  0.3789  1.0015  0.3793
  602MOL0     C79372   3.745   1.170   0.100  1.2268 -0.0366 -0.4020
  602MOL0     C79373   3.615   1.255   0.081 -1.0149 -0.0346  0.6055
  602MOL0     C79374   3.637   1.406   0.131 -0.0605  0.5802  0.6425
  602MOL0     C79375   3.507   1.480   0.172 -0.0231 -0.3106 -0.5390
  602MOL0    Cl79376   3.522   1.648   0.214  0.0990  0.2930 -0.4777
  602MOL0     C79377   4.548   1.050  -0.095 -0.0632 -0.5871  0.2314
  602MOL0     C79378   4.636   0.939  -0.120 -0.5213 -0.0478 -0.6304
  602MOL0     O79379   4.667   0.566   0.025  0.6795  0.0159  0.5962
  602MOL0     C79380   4.896   0.439   0.122  0.5530 -0.3881 -1.0465
  602MOL0     C79381   5.013   0.393   0.180 -0.6960 -0.5967 -0.0708
  602MOL0     N79382   5.752   0.535   0.276  0.2189  0.5449  0.9339
  602MOL0     N79383   5.874   0.510   0.266  0.1312  0.5202  0.1581
  602MOL0     C79384   5.379  -0.277   0.467  0.6107 -0.2600  0.6491
  602MOL0     C79385   5.264  -0.204   0.429  0.4641  0.0827 -0.3900
  602MOL0     C79386   4.969   0.142   0.399  0.5336 -0.1837 -0.0214
  602MOL0     C79387   4.902   0.080   0.288  0.6269  0.4843 -0.6401
  602MOL0     C79388   4.774   0.123   0.245 -0.6620 -0.6983  0.4336
  602MOL0     C79389   4.716   0.237   0.306  0.4256  0.7212 -0.2824
  602MOL0     O79390   4.590   0.277   0.261 -0.4078  0.7126 -0.8668
  602MOL0     C79391   4.502   0.347   0.348 -0.3354 -0.4426 -0.0239
  602MOL0     C79392   4.521   0.499   0.349 -0.8477  0.5059  0.9828
  602MOL0     C79393   4.456   0.553   0.480  0.1167 -0.4589 -0.4457
  602MOL0     C79394   4.452   0.705   0.470  0.4393 -1.0316  0.4141
  602MOL0     C79395   4.335   0.764   0.403  0.9637  0.2938 -0.2353
  602MOL0     C79396   4.243   0.819   0.338  0.1513  0.1649  0.1157
  602MOL0     C79397   4.766   0.292   0.423 -0.8918  0.4561 -0.6110
  602MOL0     C79398   4.901   0.246   0.456  0.6322 -0.6243 -0.5893
  602MOL0     H79399   5.401   0.108   0.402 -0.4688 -0.1933  1.8473
  602MOL0     H79400   5.603  -0.021   0.496  1.5985 -0.9335 -1.0135
  602MOL0     H79401   5.598  -0.459   0.434 -1.9776 -0.1870 -0.8010
  602MOL0     H79402   5.760  -0.402   0.470  0.7999 -1.4154 -3.2402
  602MOL0     H79403   5.587  -0.289   0.245 -0.0205  2.2405  1.2843
  602MOL0     H79404   5.727  -0.400   0.254 -0.4404 -1.4457  1.9207
  602MOL0     H79405   5.842  -0.155   0.352  1.1109  1.1604 -0.5705
  602MOL0     H79406   5.685  -0.092   0.301  1.5068  2.5447 -1.8009
  602MOL0     H79407   5.824  -0.201   0.076 -3.2534  2.3624 -5.5639
  602MOL0     H79408   5.711  -0.070   0.091  0.6133 -2.2630 -1.9669
  602MOL0     H79409   5.932   0.013   0.059 -2.8898 -0.7348 -0.2053
  602MOL0     H79410   6.005  -0.074   0.197 -0.8413 -3.1514 -1.0495
  602MOL0     H79411   5.904   0.064   0.352  2.1411 -2.1465 -0.6832
  602MOL0     H79412   5.783   0.136   0.236  1.0650  1.7228 -2.0246
  602MOL0     H79413   6.075   0.174   0.169  0.8122  1.0427  0.1093
  602MOL0     H79414   5.933   0.277   0.131  3.1707 -0.5104 -3.0345
  602MOL0     H79415   6.093   0.373   0.316 -0.2373  0.2126 -0.6008
  602MOL0     H79416   6.027   0.243   0.419  1.5766  1.0003  2.0175
  602MOL0     H79417   5.775   0.313   0.529 -1.2486 -0.7133  0.4204
  602MOL0     H79418   5.510   0.550   0.328 -0.9797  0.6171  0.8247
  602MOL0     H79419   5.539   0.557   0.502  2.5501 -2.4901  1.3066
  602MOL0     H79420   5.508   0.288   0.494  2.0318 -1.1386 -2.1226
  602MOL0     H79421   5.451   0.319   0.333 -2.4254  0.6151  0.0184
  602MOL0     H79422   5.286   0.322   0.516  3.5728 -1.0206  1.9381
  602MOL0     H79423   5.356   0.473   0.581  0.9109  2.8567 -2.3741
  602MOL0     H79424   5.281   0.596   0.390  2.5215 -0.0375  1.2910
  602MOL0     H79425   5.144   0.508   0.466  0.4929  0.5854 -1.0077
  602MOL0     H79426   5.212   0.664   0.152  1.0083 -0.6119  2.2634
  602MOL0     H79427   5.020   0.754   0.056  2.0523 -0.5618 -1.7855
  602MOL0     H79428   4.575   0.756   0.155 -1.4343 -1.2691 -0.9793
  602MOL0     H79429   4.403   0.943   0.194 -2.2463 -1.9788 -1.1406
  602MOL0     H79430   4.226   1.094   0.196 -0.4083  0.3823 -0.3356
  602MOL0     H79431   4.201   0.997   0.046  0.0775  0.6458 -2.2252
  602MOL0     H79432   4.124   1.243  -0.037  1.3054  3.0075  1.2795
  602MOL0     H79433   4.136   1.266   0.141 -0.5105 -1.7066  0.1144
  602MOL0     H79434   3.966   1.089   0.172  0.7075 -0.5424 -1.0658
  602MOL0     H79435   3.963   1.057  -0.009  1.0817 -0.5981  0.0257
  602MOL0     H79436   3.890   1.329   0.077  1.7940  2.4645 -3.7209
  602MOL0     H79437   3.859   1.243  -0.068  0.7747 -1.8850 -0.1467
  602MOL0     H79438   3.765   1.154   0.206 -0.4004 -0.4329 -0.1331
  602MOL0     H79439   3.726   1.071   0.056  0.2233  0.8773 -2.0956
  602MOL0     H79440   3.526   1.216   0.132 -2.5671  1.5715 -0.7404
  602MOL0     H79441   3.585   1.245  -0.024  0.2876 -0.6105  0.2733
  602MOL0     H79442   3.700   1.396   0.220  2.4011 -1.1057 -1.1439
  602MOL0     H79443   3.695   1.454   0.052 -0.4152  0.0530  0.0465
  602MOL0     H79444   3.451   1.427   0.249  3.2316 -0.1598  2.1305
  602MOL0     H79445   3.438   1.472   0.088 -2.7422 -2.2174  1.6967
  602MOL0     H79446   4.548   1.132  -0.166  0.4620 -0.0024  0.8843
  602MOL0     H79447   4.707   0.945  -0.202  0.9746 -2.1031  0.4181
  602MOL0     H79448   4.819   0.363   0.118  0.6960 -0.9964  3.1711
  602MOL0     H79449   5.027   0.287   0.199 -3.0406 -1.3373 -1.9439
  602MOL0     H79450   5.365  -0.385   0.465 -0.7655 -0.1372  1.9944
  602MOL0     H79451   5.170  -0.246   0.393  0.2566 -0.0714  0.3094
  602MOL0     H79452   4.954   0.003   0.232  1.5053  1.9463 -1.9152
  602MOL0     H79453   4.743   0.067   0.158  1.2681 -1.6117  0.2736
  602MOL0     H79454   4.514   0.320   0.453  2.5409  0.1815 -0.1098
  602MOL0     H79455   4.405   0.318   0.308  0.6559 -1.5328 -1.7652
  602MOL0     H79456   4.628   0.522   0.354 -0.5308 -0.1904 -1.1856
  602MOL0     H79457   4.482   0.540   0.255  0.4123 -3.1846 -1.3872
  602MOL0     H79458   4.513   0.513   0.564  0.9618  2.6280  0.5988
  602MOL0     H79459   4.359   0.504   0.493  1.2076 -2.0463  2.7979
  602MOL0     H79460   4.459   0.756   0.567 -3.3170  1.2970 -0.2940
  602MOL0     H79461   4.537   0.749   0.419  1.6471 -0.9374  2.4127
  602MOL0     H79462   4.173   0.871   0.276 -0.8671 -2.6437 -1.2934
  602MOL0     H79463   4.726   0.359   0.499  2.2732  1.3424  0.4169
  602MOL0     H79464   4.949   0.307   0.533 -0.2865  0.0314 -0.5239
  603MOL0     O79465   4.151   7.593   1.574  0.0714 -0.1311  0.5830
  603MOL0     C79466   4.079   7.494   1.586  1.4366  0.1292 -0.5405
  603MOL0     O79467   3.936   7.489   1.592 -0.2870 -0.4096  0.3119
  603MOL0     C79468   3.853   7.593   1.552  0.5105  0.7013 -0.0026
  603MOL0     C79469   3.723   7.553   1.549  1.4360  0.0983  0.8372
  603MOL0     C79470   3.618   7.637   1.521 -0.7178  0.3808  1.2287
  603MOL0     C79471   3.652   7.773   1.493 -0.1451 -0.5609  0.4558
  603MOL0     O79472   3.552   7.851   1.452  0.4509 -0.1202  0.4473
  603MOL0     C79473   3.576   7.972   1.371  0.3987 -0.0352  0.0819
  603MOL0     C79474   3.450   8.015   1.313 -0.2388 -0.7403  0.5153
  603MOL0     C79475   3.441   8.162   1.269  0.2178  0.0783 -0.4480
  603MOL0     C79476   3.496   8.165   1.126  0.9078 -0.0164 -0.0616
  603MOL0     C79477   3.457   8.299   1.063 -0.4101 -0.0646 -0.4669
  603MOL0     C79478   3.496   8.327   0.920  1.0125 -0.5497 -0.1226
  603MOL0     C79479   3.464   8.211   0.829  0.6535  0.5988 -0.0469
  603MOL0     C79480   3.451   8.249   0.673  0.3220 -0.2259 -0.3500
  603MOL0     N79481   3.400   8.133   0.591  0.5704 -0.1564 -0.3062
  603MOL0     C79482   3.319   8.029   0.636 -0.1570  0.4369  1.0469
  603MOL0     C79483   3.310   7.940   0.536 -0.4010 -0.4411 -0.1610
  603MOL0     C79484   3.238   7.819   0.536  0.7728 -0.4990  0.2504
  603MOL0     C79485   3.309   7.706   0.460  0.2891  0.6681  0.4247
  603MOL0     C79486   3.423   7.656   0.548 -0.2810 -0.9350  0.0823
  603MOL0     C79487   3.511   7.565   0.460  0.3351  0.6203  1.3638
  603MOL0     O79488   3.652   7.582   0.477  0.1544 -0.6893 -0.8724
  603MOL0     C79489   3.739   7.493   0.428 -0.1469  0.7574  0.7667
  603MOL0     C79490   3.729   7.369   0.489  0.6279 -1.1375 -0.3074
  603MOL0     C79491   3.812   7.267   0.461  0.3163 -0.0556 -0.8594
  603MOL0     C79492   3.929   7.296   0.385  0.7642  0.3594  0.5401
  603MOL0     C79493   4.023   7.182   0.340 -0.2402 -0.2796 -0.4817
  603MOL0     O79494   4.012   7.064   0.413  0.4529  0.0794  0.0114
  603MOL0     C79495   4.122   6.978   0.405 -0.0756 -0.5386 -0.6496
  603MOL0     C79496   4.154   6.888   0.295 -0.6751 -1.0783  0.7385
  603MOL0     C79497   4.266   6.812   0.305  0.1555  0.7386 -0.7865
  603MOL0     C79498   4.348   6.815   0.417  0.5799 -0.4889 -0.1459
  603MOL0     O79499   4.464   6.744   0.408  0.6759  0.4773  0.4276
  603MOL0     C79500   4.526   6.721   0.283 -0.0033 -0.5838 -0.0761
  603MOL0     C79501   4.680   6.695   0.314  0.9788  0.3642 -0.4423
  603MOL0     C79502   4.766   6.707   0.187 -0.5379  0.6087 -0.3994
  603MOL0     C79503   4.767   6.584   0.100 -0.2006  0.2107 -0.3236
  603MOL0     C79504   4.812   6.618  -0.044  0.4556  0.9264 -0.2891
  603MOL0     C79505   4.956   6.686  -0.061  0.0112  0.3099 -0.2937
  603MOL0     C79506   5.064   6.596  -0.019 -0.2823 -0.9332 -0.3796
  603MOL0     C79507   5.203   6.655  -0.021 -0.7160  0.2655  0.2258
  603MOL0    Cl79508   5.227   6.775   0.109 -0.3883 -0.2309 -0.5170
  603MOL0     C79509   4.314   6.894   0.525 -0.9289  0.8851  0.3948
  603MOL0     C79510   4.192   6.963   0.528  0.7344 -0.9441 -0.4393
  603MOL0     O79511   4.110   7.205   0.254  0.4901  0.0571  0.0638
  603MOL0     C79512   3.947   7.425   0.333  0.1897  0.3498  0.1539
  603MOL0     C79513   3.849   7.526   0.355 -0.9170  0.3183 -0.3349
  603MOL0     N79514   3.380   7.989   0.430  0.0757 -0.3638 -0.4609
  603MOL0     N79515   3.441   8.101   0.465  0.2868  0.2594 -0.2267
  603MOL0     C79516   3.789   7.819   1.501  0.0437  0.3829 -0.9870
  603MOL0     C79517   3.887   7.731   1.529 -0.3803  1.5830  0.3172
  603MOL0     C79518   4.146   7.369   1.599 -0.0587  0.6584 -0.8165
  603MOL0     C79519   4.075   7.260   1.660  0.9216 -0.2885  0.0274
  603MOL0     C79520   4.125   7.131   1.659  0.2239 -0.6310  0.3493
  603MOL0     C79521   4.252   7.102   1.599  0.9166 -0.1783  0.7986
  603MOL0     O79522   4.283   6.966   1.595 -0.2813 -0.0460 -1.1120
  603MOL0     C79523   4.416   6.922   1.641 -0.4391 -0.0667  0.7464
  603MOL0     C79524   4.501   6.908   1.514 -0.2558  0.5671 -0.7434
  603MOL0     C79525   4.632   6.862   1.547 -0.7531 -0.0607  0.6383
  603MOL0     C79526   4.659   6.717   1.598  0.8857 -0.1032 -0.6186
  603MOL0     C79527   4.799   6.681   1.593  0.1202  0.2643 -0.5063
  603MOL0     C79528   4.920   6.644   1.594  0.9491  0.3697 -0.0340
  603MOL0     C79529   4.327   7.208   1.560 -0.1940  0.0613  0.3853
  603MOL0     C79530   4.277   7.340   1.563  0.2716  0.2810  0.7375
  603MOL0     H79531   3.706   7.446   1.550  0.3179  0.2259 -0.6558
  603MOL0     H79532   3.520   7.592   1.526  1.0299 -4.1605 -0.3333
  603MOL0     H79533   3.649   7.968   1.290 -0.9977 -0.0498 -1.2107
  603MOL0     H79534   3.612   8.049   1.441 -1.5088  0.2559  0.8291
  603MOL0     H79535   3.376   8.004   1.393  0.6622  0.6717  1.5935
  603MOL0     H79536   3.412   7.946   1.237  0.4674 -0.0540 -0.4917
  603MOL0     H79537   3.487   8.232   1.340  3.1255 -1.6189 -0.5142
  603MOL0     H79538   3.336   8.190   1.280 -0.8090 -3.6223  0.6022
  603MOL0     H79539   3.604   8.178   1.128  0.8647  0.2535  0.7066
  603MOL0     H79540   3.461   8.073   1.078  0.3311 -0.3897  1.0363
  603MOL0     H79541   3.494   8.383   1.122  2.1620 -0.9968 -0.6325
  603MOL0     H79542   3.348   8.298   1.072 -0.3212 -0.6707  0.8418
  603MOL0     H79543   3.603   8.348   0.914  1.5761 -2.0419  2.8953
  603MOL0     H79544   3.428   8.402   0.878 -0.9105 -2.9807 -1.5964
  603MOL0     H79545   3.545   8.140   0.843  0.1702 -0.5259 -2.5290
  603MOL0     H79546   3.370   8.164   0.861  0.7766  1.1454  1.1744
  603MOL0     H79547   3.539   8.300   0.634 -3.0735  5.0068 -2.1214
  603MOL0     H79548   3.382   8.332   0.662 -0.2987 -0.3293  2.0209
  603MOL0     H79549   3.270   8.018   0.732 -0.7838 -0.7019  0.6199
  603MOL0     H79550   3.147   7.845   0.481 -0.0288 -1.9677  0.8230
  603MOL0     H79551   3.216   7.783   0.637 -0.1286 -2.0888 -0.4646
  603MOL0     H79552   3.339   7.744   0.362 -0.8596  1.8125  0.4933
  603MOL0     H79553   3.244   7.619   0.444  2.9213 -1.2675 -0.4807
  603MOL0     H79554   3.486   7.736   0.586 -3.1309  0.5103  2.1635
  603MOL0     H79555   3.381   7.607   0.637  1.5632 -0.1256  1.4489
  603MOL0     H79556   3.497   7.580   0.352 -0.0715  0.3161  1.3731
  603MOL0     H79557   3.475   7.466   0.489  0.6201 -0.0207 -0.3481
  603MOL0     H79558   3.642   7.351   0.551  0.6521  2.2810  0.9129
  603MOL0     H79559   3.803   7.171   0.512  1.5159  1.0184  1.5450
  603MOL0     H79560   4.099   6.895   0.202  2.8563 -0.3413 -1.4643
  603MOL0     H79561   4.302   6.756   0.219  1.5820 -1.9172  1.3832
  603MOL0     H79562   4.516   6.818   0.232  0.5306 -0.7471 -0.4967
  603MOL0     H79563   4.482   6.647   0.214  0.3709 -2.6760  1.8324
  603MOL0     H79564   4.683   6.594   0.357 -2.4466  0.1923 -0.3611
  603MOL0     H79565   4.710   6.775   0.382  1.0354 -0.3608  0.4065
  603MOL0     H79566   4.870   6.722   0.217 -0.8376  1.3802  0.2724
  603MOL0     H79567   4.744   6.794   0.125  3.3684  0.0500 -2.9659
  603MOL0     H79568   4.821   6.506   0.154 -2.5169  0.5194  2.7085
  603MOL0     H79569   4.669   6.536   0.095 -1.1401  2.1569 -2.6219
  603MOL0     H79570   4.733   6.681  -0.085 -3.9460 -3.2213  0.9191
  603MOL0     H79571   4.821   6.526  -0.102  0.0762  2.6681 -3.3174
  603MOL0     H79572   4.959   6.781  -0.007  0.6877  1.1050 -1.7009
  603MOL0     H79573   4.971   6.706  -0.167  2.1460 -0.9589 -0.2909
  603MOL0     H79574   5.042   6.542   0.073  0.1347 -0.8871 -0.2502
  603MOL0     H79575   5.071   6.528  -0.104  3.2333 -0.8938 -0.2512
  603MOL0     H79576   5.215   6.713  -0.113  1.8698  4.0394  2.6129
  603MOL0     H79577   5.276   6.575  -0.010 -0.0577  0.5620 -1.7100
  603MOL0     H79578   4.377   6.888   0.613 -0.3157 -2.4559 -0.1261
  603MOL0     H79579   4.156   7.014   0.617 -0.9523 -1.5931 -0.7226
  603MOL0     H79580   4.040   7.434   0.279 -0.3304 -0.1916 -0.8698
  603MOL0     H79581   3.862   7.623   0.308 -1.2341 -0.7149 -2.7249
  603MOL0     H79582   3.805   7.926   1.500  2.0871  0.2307  1.8015
  603MOL0     H79583   3.981   7.784   1.538 -0.6071  2.8501 -3.2598
  603MOL0     H79584   3.986   7.273   1.720  0.1089  1.8568 -1.5084
  603MOL0     H79585   4.068   7.061   1.719  0.1238 -0.0548  0.9427
  603MOL0     H79586   4.403   6.832   1.701 -0.1778 -0.0222  0.8697
  603MOL0     H79587   4.465   7.005   1.692  2.4125 -1.1052 -0.1194
  603MOL0     H79588   4.457   6.834   1.447  0.4198  0.6277 -1.2688
  603MOL0     H79589   4.511   6.995   1.449 -1.6427  1.3953  0.1227
  603MOL0     H79590   4.689   6.929   1.613  1.4076 -0.7883 -0.3957
  603MOL0     H79591   4.679   6.855   1.448  0.9519  0.6321  1.3588
  603MOL0     H79592   4.616   6.707   1.699  0.1646 -1.4404 -1.0269
  603MOL0     H79593   4.604   6.645   1.537 -0.5714  2.5146 -2.5825
  603MOL0     H79594   5.025   6.624   1.593  1.2903  1.6412 -3.0231
  603MOL0     H79595   4.426   7.190   1.520  0.0996 -1.0104  1.5323
  603MOL0     H79596   4.336   7.413   1.508 -2.1784  0.9692 -1.1728
  604MOL0     O79597   5.337   6.026   4.746 -0.4492  0.4353  0.1958
  604MOL0     C79598   5.321   5.902   4.757  0.3332  0.6464  0.0102
  604MOL0     O79599   5.274   5.839   4.863 -0.3188 -0.5352 -0.3880
  604MOL0     C79600   5.263   5.900   4.987  0.3401 -0.2453  0.1165
  604MOL0     C79601   5.322   6.024   5.021  0.1347  0.4320  0.3096
  604MOL0     C79602   5.308   6.091   5.150 -0.0387 -0.1999  0.6209
  604MOL0     C79603   5.232   6.025   5.251  0.4358 -1.2220  0.1629
  604MOL0     O79604   5.221   6.062   5.382 -0.8941  0.1302 -0.1226
  604MOL0     C79605   5.303   6.169   5.430  0.1684 -1.1806  0.1720
  604MOL0     C79606   5.241   6.310   5.423 -0.2438 -0.6553  0.0737
  604MOL0     C79607   5.101   6.318   5.475  1.0114  0.3182 -0.3264
  604MOL0     C79608   5.062   6.465   5.471  0.1439  0.7127 -0.3044
  604MOL0     C79609   4.923   6.490   5.532 -1.1457 -0.9221 -0.3069
  604MOL0     C79610   4.902   6.641   5.525 -0.1728 -0.3977  0.1262
  604MOL0     C79611   4.755   6.674   5.532  0.5235  0.1395 -0.1453
  604MOL0     C79612   4.683   6.626   5.667 -0.1733  0.0779  0.2944
  604MOL0     N79613   4.574   6.716   5.707 -0.5513 -0.0671 -0.3459
  604MOL0     C79614   4.505   6.804   5.626  0.0747 -0.1604 -0.0526
  604MOL0     C79615   4.427   6.879   5.703  1.9046  0.8175  0.1796
  604MOL0     C79616   4.319   6.984   5.656  0.1262  0.4008 -0.7605
  604MOL0     C79617   4.184   6.911   5.641  0.5190 -0.7442 -0.5993
  604MOL0     C79618   4.082   6.997   5.574 -0.4893 -0.2006 -0.0498
  604MOL0     C79619   4.092   6.987   5.425 -0.9938  0.5452  1.3403
  604MOL0     O79620   4.214   7.039   5.361  0.0182 -0.3945 -1.0379
  604MOL0     C79621   4.309   6.958   5.309  0.3785  1.2981 -0.1164
  604MOL0     C79622   4.413   7.018   5.250  0.0610  0.3319 -0.7965
  604MOL0     C79623   4.525   6.949   5.205 -1.0850  0.8907 -1.3496
  604MOL0     C79624   4.526   6.804   5.204 -0.7362  1.3179  0.4873
  604MOL0     C79625   4.642   6.727   5.144  0.5656  0.8991 -0.3540
  604MOL0     O79626   4.615   6.593   5.125  0.4880  0.3258  0.9849
  604MOL0     C79627   4.724   6.520   5.080  0.2134 -0.2238 -0.6846
  604MOL0     C79628   4.796   6.436   5.169  0.9664 -0.4451  0.0785
  604MOL0     C79629   4.910   6.385   5.134 -0.7753  0.2355  0.3440
  604MOL0     C79630   4.946   6.378   4.996 -0.2584 -0.5736  0.6402
  604MOL0     O79631   5.060   6.311   4.961 -0.2473  0.3058  0.1016
  604MOL0     C79632   5.132   6.354   4.849 -0.5079  0.2338 -0.2680
  604MOL0     C79633   5.284   6.352   4.873  0.2044 -0.2796 -0.6519
  604MOL0     C79634   5.349   6.487   4.913  0.7003 -0.3284  0.5847
  604MOL0     C79635   5.490   6.482   4.964 -0.4518  0.9606  0.4249
  604MOL0     C79636   5.560   6.621   4.981 -0.2649 -0.9771  0.2336
  604MOL0     C79637   5.561   6.704   4.847 -0.0266 -0.3652 -0.4932
  604MOL0     C79638   5.634   6.641   4.734 -0.0244  0.4601 -0.3926
  604MOL0     C79639   5.617   6.738   4.615  0.6356  0.3044  0.0009
  604MOL0    Cl79640   5.695   6.901   4.618  0.0433 -0.2181  0.1975
  604MOL0     C79641   4.866   6.443   4.897  0.1576  0.3324  0.2085
  604MOL0     C79642   4.758   6.522   4.937  0.2551  0.5212 -0.6168
  604MOL0     O79643   4.747   6.783   5.112 -0.2070  0.1390 -0.5813
  604MOL0     C79644   4.405   6.741   5.251 -0.0380  0.8620  0.1920
  604MOL0     C79645   4.305   6.816   5.310  0.1496  0.1858 -0.1751
  604MOL0     N79646   4.444   6.834   5.832  0.3370 -0.1812  0.1787
  604MOL0     N79647   4.546   6.752   5.832 -0.0815  0.0929 -0.7085
  604MOL0     C79648   5.175   5.901   5.214  0.2762 -0.8066 -0.5507
  604MOL0     C79649   5.193   5.840   5.088 -0.3365  0.5332 -0.1660
  604MOL0     C79650   5.363   5.817   4.643 -0.4629 -0.9055 -0.2400
  604MOL0     C79651   5.425   5.874   4.521 -0.6155  0.1382  0.0382
  604MOL0     C79652   5.433   5.794   4.404  0.1200 -0.6153 -0.0806
  604MOL0     C79653   5.394   5.668   4.398  1.2763 -0.7298 -0.2210
  604MOL0     O79654   5.410   5.598   4.278  0.4449  0.2481 -0.2475
  604MOL0     C79655   5.368   5.649   4.156  0.3534  0.4204 -0.2224
  604MOL0     C79656   5.495   5.701   4.076  0.0891  0.2397 -1.1283
  604MOL0     C79657   5.473   5.775   3.950  0.1363 -1.2557 -0.3707
  604MOL0     C79658   5.421   5.922   3.982 -0.0552 -0.7319  0.1733
  604MOL0     C79659   5.417   6.002   3.860 -0.3206 -0.0612  0.0994
  604MOL0     C79660   5.429   6.077   3.767  0.5688 -0.1903  0.0431
  604MOL0     C79661   5.358   5.610   4.522  1.0556  0.3045  1.5135
  604MOL0     C79662   5.341   5.679   4.642 -0.4826 -0.7726  0.6650
  604MOL0     H79663   5.389   6.080   4.957  1.0027  0.2831  1.0749
  604MOL0     H79664   5.356   6.188   5.165 -5.3117  3.2376 -1.6750
  604MOL0     H79665   5.398   6.172   5.376  0.8428 -1.7517  1.2845
  604MOL0     H79666   5.330   6.162   5.536  0.6768  0.9409  0.2196
  604MOL0     H79667   5.257   6.351   5.323  1.4134 -0.1254  0.5163
  604MOL0     H79668   5.305   6.373   5.486 -0.1722 -0.5191 -0.1324
  604MOL0     H79669   5.100   6.289   5.581  1.3952  2.5579  0.3503
  604MOL0     H79670   5.033   6.263   5.410  1.4401 -0.7598  0.1211
  604MOL0     H79671   5.136   6.526   5.524 -1.1109 -0.0484  2.4889
  604MOL0     H79672   5.072   6.494   5.366  1.5917 -2.6722 -1.2357
  604MOL0     H79673   4.938   6.473   5.639  0.9276  2.9439  0.2178
  604MOL0     H79674   4.853   6.427   5.477  1.8622 -2.4655 -2.6622
  604MOL0     H79675   4.929   6.670   5.423 -0.9138 -0.3099 -0.0501
  604MOL0     H79676   4.963   6.698   5.596 -1.3440  0.5705  0.3863
  604MOL0     H79677   4.743   6.783   5.526 -2.5849 -0.0714  0.4529
  604MOL0     H79678   4.715   6.627   5.442  2.4814  0.6732 -1.3584
  604MOL0     H79679   4.764   6.641   5.740  1.7477  0.3042 -1.7930
  604MOL0     H79680   4.644   6.524   5.674  1.3399 -0.7584 -2.1711
  604MOL0     H79681   4.500   6.802   5.517 -1.4982  0.4067 -0.0044
  604MOL0     H79682   4.351   7.039   5.568 -1.4369 -0.0159 -1.6253
  604MOL0     H79683   4.320   7.062   5.733 -0.7866 -0.0574 -0.2703
  604MOL0     H79684   4.142   6.884   5.738 -0.4900 -0.1507 -0.8476
  604MOL0     H79685   4.192   6.826   5.572  2.1374  0.5675 -2.1032
  604MOL0     H79686   3.980   6.963   5.597 -1.9783  2.8387 -1.4600
  604MOL0     H79687   4.103   7.100   5.604 -1.2092 -0.4016  1.2181
  604MOL0     H79688   4.005   7.035   5.380 -0.9768 -1.7132 -1.3761
  604MOL0     H79689   4.069   6.887   5.388 -2.2995  1.6939 -1.2558
  604MOL0     H79690   4.398   7.124   5.234  0.1163  1.1395  3.3440
  604MOL0     H79691   4.614   7.008   5.186 -0.9760  1.7985  1.3924
  604MOL0     H79692   4.752   6.433   5.268 -0.1714  2.4626 -0.2385
  604MOL0     H79693   4.960   6.322   5.206 -2.7495 -1.5574  0.2426
  604MOL0     H79694   5.092   6.446   4.807 -0.9800  1.7216  3.0605
  604MOL0     H79695   5.117   6.272   4.779 -0.4098 -1.5378  1.6801
  604MOL0     H79696   5.325   6.321   4.776 -1.1168  1.2155 -1.7400
  604MOL0     H79697   5.305   6.280   4.952 -1.8873 -1.4222 -1.0738
  604MOL0     H79698   5.284   6.529   4.990 -1.5302 -0.3115 -1.1757
  604MOL0     H79699   5.340   6.549   4.823 -1.0336  1.0631  1.6557
  604MOL0     H79700   5.481   6.439   5.064 -3.1514 -0.8095 -0.4800
  604MOL0     H79701   5.559   6.413   4.915 -0.0923 -0.2344  2.5111
  604MOL0     H79702   5.663   6.610   5.016 -0.2665  2.2053  1.5742
  604MOL0     H79703   5.505   6.681   5.054  1.5213 -0.7185  1.4439
  604MOL0     H79704   5.612   6.798   4.871 -0.2160 -0.3734 -0.0555
  604MOL0     H79705   5.460   6.741   4.827 -0.0657  0.4641  1.0606
  604MOL0     H79706   5.741   6.622   4.744 -0.2379  0.5142  4.2341
  604MOL0     H79707   5.585   6.545   4.716 -2.0106  1.0100  1.6485
  604MOL0     H79708   5.509   6.754   4.611 -0.0608 -2.6243  2.9003
  604MOL0     H79709   5.642   6.681   4.525 -3.2496 -1.5841 -0.0923
  604MOL0     H79710   4.874   6.429   4.790  1.9884 -3.7362  0.7002
  604MOL0     H79711   4.692   6.575   4.868 -0.1813  1.9274  0.7982
  604MOL0     H79712   4.391   6.634   5.240 -0.1605  1.0993 -2.6833
  604MOL0     H79713   4.226   6.754   5.351 -1.2931  1.7846 -0.4101
  604MOL0     H79714   5.104   5.850   5.278 -2.1781  0.8478 -1.8128
  604MOL0     H79715   5.136   5.752   5.059 -0.6635  0.3882  0.8820
  604MOL0     H79716   5.454   5.979   4.512  2.1673 -0.6996 -2.3034
  604MOL0     H79717   5.467   5.845   4.314 -0.0716 -1.9362 -0.9306
  604MOL0     H79718   5.299   5.733   4.167 -0.8414 -0.5333 -0.2938
  604MOL0     H79719   5.321   5.568   4.101  1.7033 -1.3077  1.0595
  604MOL0     H79720   5.555   5.752   4.151 -1.6815 -2.3082  2.3155
  604MOL0     H79721   5.550   5.612   4.043  0.2966  1.4218 -4.3581
  604MOL0     H79722   5.391   5.734   3.891 -1.0399 -0.0314  0.3426
  604MOL0     H79723   5.563   5.790   3.889  2.1439  0.3471  2.6617
  604MOL0     H79724   5.321   5.911   4.023 -1.1152 -1.3708 -2.3570
  604MOL0     H79725   5.485   5.971   4.056 -0.3141  2.0754 -1.3361
  604MOL0     H79726   5.450   6.129   3.676  2.9118 -3.4462 -1.4787
  604MOL0     H79727   5.337   5.504   4.518 -1.3502  0.6606  2.5416
  604MOL0     H79728   5.295   5.643   4.734  1.5908  1.4834  2.7401
  605MOL0     O79729   2.193   8.855   6.105 -0.1095 -0.1055  0.0049
  605MOL0     C79730   2.288   8.873   6.033  0.2832 -0.6974  0.5893
  605MOL0     O79731   2.281   8.916   5.909  0.0502 -0.0022 -0.2787
  605MOL0     C79732   2.156   8.923   5.843 -0.0876 -0.6957  0.2766
  605MOL0     C79733   2.047   9.010   5.877 -1.3931 -1.0153 -0.3368
  605MOL0     C79734   1.933   9.011   5.813 -0.1965  0.9202  0.8791
  605MOL0     C79735   1.908   8.913   5.712  0.0593  0.5696  0.5583
  605MOL0     O79736   1.781   8.906   5.652  0.0722  0.5705 -0.0602
  605MOL0     C79737   1.778   8.859   5.516 -0.2417  0.7119 -1.4157
  605MOL0     C79738   1.648   8.894   5.440 -0.0974 -0.6464  0.3093
  605MOL0     C79739   1.615   9.047   5.437  0.5660  0.3170  0.8674
  605MOL0     C79740   1.506   9.087   5.345  0.8369  1.2680  0.3785
  605MOL0     C79741   1.471   9.232   5.355  0.6658  0.0237 -0.2280
  605MOL0     C79742   1.341   9.259   5.272 -0.1793  1.0007 -0.6323
  605MOL0     C79743   1.313   9.405   5.270  0.9436  0.3850 -0.0446
  605MOL0     C79744   1.226   9.449   5.145  0.5913  0.4233  0.5626
  605MOL0     N79745   1.085   9.400   5.166  0.3363 -0.5668  0.7656
  605MOL0     C79746   1.023   9.288   5.116  0.5533  0.2438  0.2885
  605MOL0     C79747   0.894   9.277   5.161 -1.5769  0.0581  1.2329
  605MOL0     C79748   0.804   9.157   5.124 -0.9373  0.0419 -0.0376
  605MOL0     C79749   0.657   9.175   5.132  0.0582  0.2073 -0.4874
  605MOL0     C79750   0.582   9.047   5.115 -0.4305  0.8766 -0.0021
  605MOL0     C79751   0.499   9.019   5.234 -0.1766 -0.2029  0.1563
  605MOL0     O79752   0.402   9.121   5.276  0.5447  0.0852  0.1590
  605MOL0     C79753   0.343   9.102   5.395  0.7263 -0.6248 -0.9499
  605MOL0     C79754   0.364   8.989   5.491  0.0752  0.3044  0.3778
  605MOL0     C79755   0.298   8.986   5.611 -0.0152 -0.4484 -0.0869
  605MOL0     C79756   0.228   9.103   5.653 -0.1491 -0.1658  0.0484
  605MOL0     C79757   0.185   9.119   5.801  0.7808 -0.2240  0.7604
  605MOL0     O79758   0.076   9.195   5.836 -0.5506  0.0560  0.1492
  605MOL0     C79759   0.063   9.211   5.970 -0.1027 -0.1390  0.8060
  605MOL0     C79760   0.059   9.340   5.999  0.7587 -0.1314 -0.2892
  605MOL0     C79761   0.070   9.381   6.130 -1.3976 -0.1590  0.1603
  605MOL0     C79762   0.070   9.288   6.243 -0.6080 -0.0346 -0.0856
  605MOL0     O79763   0.060   9.335   6.373  0.2647  0.7289 -0.0932
  605MOL0     C79764  -0.020   9.454   6.385  0.3103 -0.0907  0.2386
  605MOL0     C79765  -0.060   9.460   6.538 -0.4077 -0.2383 -0.2609
  605MOL0     C79766  -0.141   9.584   6.564 -0.2069 -0.7183  0.1002
  605MOL0     C79767  -0.294   9.575   6.545  1.2180 -0.5872 -0.0489
  605MOL0     C79768  -0.348   9.702   6.613 -0.2563  0.1348  0.0858
  605MOL0     C79769  -0.478   9.761   6.557 -0.1590 -0.3042 -0.0489
  605MOL0     C79770  -0.599   9.666   6.557 -0.9668  0.0851  0.7635
  605MOL0     C79771  -0.667   9.649   6.695 -0.8368  1.1011  0.1149
  605MOL0    Cl79772  -0.833   9.576   6.661 -0.0756 -0.2613 -0.1507
  605MOL0     C79773   0.063   9.153   6.210 -0.2627  0.4467  0.4135
  605MOL0     C79774   0.064   9.118   6.074 -0.1861  0.5245  0.4637
  605MOL0     O79775   0.264   9.065   5.874  0.5340 -0.3586 -0.4275
  605MOL0     C79776   0.211   9.212   5.566  0.8618  0.1562 -0.1575
  605MOL0     C79777   0.272   9.216   5.439 -0.7087 -0.3557 -0.5809
  605MOL0     N79778   0.886   9.386   5.245  0.5736  0.3796  0.5878
  605MOL0     N79779   0.996   9.451   5.248  0.1471 -0.1339  0.1670
  605MOL0     C79780   2.016   8.827   5.683  0.2347 -0.2645 -0.3982
  605MOL0     C79781   2.139   8.838   5.741  0.3151  0.5734 -0.5809
  605MOL0     C79782   2.417   8.848   6.081 -0.5086  0.1080  0.3599
  605MOL0     C79783   2.462   8.901   6.199 -0.5747  0.8127 -0.2688
  605MOL0     C79784   2.594   8.879   6.252 -0.3256 -0.3465  0.3075
  605MOL0     C79785   2.690   8.808   6.161 -0.4084  0.2108 -0.2574
  605MOL0     O79786   2.825   8.789   6.189 -0.0431  0.2940 -0.0553
  605MOL0     C79787   2.844   8.739   6.320  0.0333  0.5747 -0.0655
  605MOL0     C79788   2.999   8.745   6.344 -0.3900  0.3980 -0.5415
  605MOL0     C79789   3.035   8.672   6.480 -1.1217  1.7938 -0.2198
  605MOL0     C79790   3.191   8.691   6.508  0.4811  0.3960  0.9096
  605MOL0     C79791   3.228   8.581   6.610  0.2850 -0.0290 -0.2350
  605MOL0     C79792   3.258   8.489   6.685 -0.8950 -0.6829  0.0956
  605MOL0     C79793   2.641   8.758   6.041 -0.2316 -0.9344  0.3735
  605MOL0     C79794   2.511   8.783   6.000 -0.3592  0.0998 -0.0614
  605MOL0     H79795   2.080   9.086   5.948 -0.7092  0.8696 -2.5490
  605MOL0     H79796   1.857   9.087   5.828 -1.4663 -0.3566  1.1511
  605MOL0     H79797   1.799   8.752   5.509  3.0167  0.9969  1.4126
  605MOL0     H79798   1.857   8.915   5.465  1.3235 -0.9704 -0.9513
  605MOL0     H79799   1.562   8.854   5.493 -0.1801 -0.8770  0.0001
  605MOL0     H79800   1.669   8.858   5.339  1.1504  1.7988 -0.3903
  605MOL0     H79801   1.701   9.100   5.396  0.1897 -0.8308 -1.5514
  605MOL0     H79802   1.610   9.088   5.538  2.2708  0.4505  0.9318
  605MOL0     H79803   1.537   9.063   5.243  2.1261 -2.0240  1.3966
  605MOL0     H79804   1.422   9.019   5.363  3.2542 -1.7096  1.2660
  605MOL0     H79805   1.551   9.290   5.309  1.3341 -0.2295  0.6080
  605MOL0     H79806   1.460   9.271   5.457  4.1303  2.7632 -0.7233
  605MOL0     H79807   1.255   9.206   5.314  0.6830 -0.5182 -0.7273
  605MOL0     H79808   1.353   9.213   5.174  2.0028 -1.6743  0.7475
  605MOL0     H79809   1.249   9.436   5.353 -1.0090 -0.2152 -1.2454
  605MOL0     H79810   1.398   9.473   5.279  2.0353 -1.2020  3.0003
  605MOL0     H79811   1.261   9.415   5.047  1.4391  0.9028  0.6860
  605MOL0     H79812   1.213   9.556   5.128  0.9478  0.3984  0.0949
  605MOL0     H79813   1.067   9.219   5.046 -1.3031 -0.3495 -0.3533
  605MOL0     H79814   0.839   9.081   5.195 -0.4457 -0.2997 -0.6322
  605MOL0     H79815   0.831   9.125   5.023  0.4219  4.6270 -1.3757
  605MOL0     H79816   0.638   9.248   5.052 -0.8656 -0.0478 -0.5000
  605MOL0     H79817   0.638   9.227   5.227 -1.3868  1.0650 -1.2154
  605MOL0     H79818   0.505   9.049   5.037  0.4069  0.1715 -0.8611
  605MOL0     H79819   0.660   8.972   5.099 -0.1619  1.5345 -2.0771
  605MOL0     H79820   0.576   8.984   5.302  1.8637  0.6862 -1.5501
  605MOL0     H79821   0.445   8.930   5.203  0.2545 -0.2423 -0.5019
  605MOL0     H79822   0.429   8.908   5.458  1.1072  1.3505 -0.2253
  605MOL0     H79823   0.316   8.896   5.669  0.6583 -0.7510 -0.7592
  605MOL0     H79824   0.047   9.403   5.912  0.5712 -3.1164 -2.5733
  605MOL0     H79825   0.057   9.488   6.143 -2.1029 -0.3497  1.2677
  605MOL0     H79826  -0.108   9.450   6.320 -0.4091 -3.1227  1.2582
  605MOL0     H79827   0.040   9.542   6.359 -1.2731  1.5128  1.7437
  605MOL0     H79828   0.035   9.465   6.592 -1.0395  2.6324  0.7364
  605MOL0     H79829  -0.113   9.367   6.561  0.1616 -0.6948 -0.7406
  605MOL0     H79830  -0.111   9.668   6.501  0.1683  0.4944  1.8208
  605MOL0     H79831  -0.121   9.611   6.669 -3.8356 -1.1864  1.0391
  605MOL0     H79832  -0.310   9.586   6.438 -1.6809  1.6011  0.5131
  605MOL0     H79833  -0.335   9.485   6.592  0.7525  1.6338  4.2798
  605MOL0     H79834  -0.275   9.783   6.607  1.3609 -0.9695  3.0224
  605MOL0     H79835  -0.352   9.683   6.720  2.2654  1.5953  0.4971
  605MOL0     H79836  -0.453   9.789   6.454 -0.8623 -1.1467 -0.4676
  605MOL0     H79837  -0.503   9.856   6.606 -3.1077  0.7385 -3.2011
  605MOL0     H79838  -0.664   9.710   6.481  0.8226  0.4119 -0.6259
  605MOL0     H79839  -0.564   9.566   6.530  0.5140 -0.1489  3.2707
  605MOL0     H79840  -0.673   9.733   6.764 -0.2568 -1.0468  2.9649
  605MOL0     H79841  -0.624   9.579   6.767 -2.9050  0.4680  0.8190
  605MOL0     H79842   0.049   9.082   6.291 -2.1953  0.0216 -0.2397
  605MOL0     H79843   0.076   9.014   6.045  1.8719  0.8912 -0.2280
  605MOL0     H79844   0.154   9.297   5.601 -0.6853  1.5567 -5.2858
  605MOL0     H79845   0.261   9.315   5.396 -3.9509 -0.2581  0.2173
  605MOL0     H79846   1.991   8.742   5.622 -2.0041  1.1442 -1.5644
  605MOL0     H79847   2.226   8.776   5.725 -0.7296 -1.3833  0.8108
  605MOL0     H79848   2.387   8.955   6.256 -0.3287  2.2091 -1.2000
  605MOL0     H79849   2.629   8.916   6.347 -1.6247 -1.0746  1.0951
  605MOL0     H79850   2.813   8.634   6.330 -1.1615  1.1632  4.4020
  605MOL0     H79851   2.781   8.785   6.396 -3.1592 -2.8653 -0.3380
  605MOL0     H79852   3.048   8.693   6.262  2.0855  2.2725 -0.3605
  605MOL0     H79853   3.039   8.847   6.336 -1.2650  0.8373  0.3758
  605MOL0     H79854   3.016   8.565   6.473 -0.0567  1.5203  0.6220
  605MOL0     H79855   2.970   8.703   6.562  0.3399 -1.6342  2.4757
  605MOL0     H79856   3.249   8.692   6.415 -2.9942 -1.1900 -1.5175
  605MOL0     H79857   3.198   8.789   6.555 -0.3335  1.7812 -1.7166
  605MOL0     H79858   3.279   8.408   6.752 -3.8064  0.4163  2.5891
  605MOL0     H79859   2.704   8.712   5.965 -1.5696  3.4748 -3.9350
  605MOL0     H79860   2.473   8.746   5.905 -3.2067 -0.5879  1.2161
  606MOL0     O79861   6.511   3.467  10.081 -0.0127 -0.3654  0.4088
  606MOL0     C79862   6.540   3.553   9.996 -0.8495  0.6148 -0.0172
  606MOL0     O79863   6.552   3.530   9.855 -0.2017 -0.0372 -0.6251
  606MOL0     C79864   6.502   3.412   9.802 -0.1707 -0.2361  0.3585
  606MOL0     C79865   6.564   3.368   9.683 -0.7365  0.3031  0.0094
  606MOL0     C79866   6.516   3.259   9.614  0.2000  0.9032  0.1842
  606MOL0     C79867   6.405   3.182   9.658 -0.4226  0.8273 -0.8413
  606MOL0     O79868   6.349   3.083   9.575 -1.4334  0.6367 -0.2366
  606MOL0     C79869   6.263   2.980   9.629 -0.8243  0.4695 -0.9989
  606MOL0     C79870   6.117   3.009   9.603  0.4827  0.3315 -0.3887
  606MOL0     C79871   6.097   3.116   9.487 -0.6932 -0.0643 -0.2516
  606MOL0     C79872   5.949   3.145   9.462 -0.6572  0.5080 -0.9185
  606MOL0     C79873   5.924   3.259   9.356 -0.5984  0.3796 -1.1939
  606MOL0     C79874   5.784   3.252   9.306 -0.4817 -0.1806 -0.7791
  606MOL0     C79875   5.732   3.379   9.231 -0.6585 -0.5383 -0.0961
  606MOL0     C79876   5.681   3.493   9.317 -0.0248 -0.2134 -0.7136
  606MOL0     N79877   5.548   3.469   9.373 -0.0924 -0.3235  1.4002
  606MOL0     C79878   5.442   3.477   9.292  0.3406  0.1347 -0.4842
  606MOL0     C79879   5.346   3.429   9.370 -0.5541 -0.1055  0.3727
  606MOL0     C79880   5.207   3.398   9.330 -0.2075 -0.0916 -0.7617
  606MOL0     C79881   5.104   3.495   9.389 -0.6349  0.7331  0.5154
  606MOL0     C79882   5.085   3.474   9.540 -0.2545 -0.4939  0.0058
  606MOL0     C79883   5.005   3.594   9.594  0.6196 -0.2256 -0.6680
  606MOL0     O79884   4.898   3.642   9.511 -0.6984 -0.0977  0.3234
  606MOL0     C79885   4.818   3.742   9.545 -0.1791 -1.0272  0.1491
  606MOL0     C79886   4.839   3.818   9.661  0.0842 -0.1342 -0.5327
  606MOL0     C79887   4.762   3.930   9.679  1.0180  0.0299 -0.6448
  606MOL0     C79888   4.678   3.984   9.576  0.9575  0.8844  0.3482
  606MOL0     C79889   4.618   4.118   9.586 -0.2024 -0.2807 -0.4798
  606MOL0     O79890   4.527   4.134   9.489  1.0201 -0.4665  0.1119
  606MOL0     C79891   4.450   4.245   9.485  0.5375  0.2260 -0.2039
  606MOL0     C79892   4.472   4.366   9.410 -0.2136 -0.7084 -0.2339
  606MOL0     C79893   4.367   4.463   9.414 -0.3114 -0.2959  0.8326
  606MOL0     C79894   4.245   4.437   9.469  0.4370  0.0178 -0.4368
  606MOL0     O79895   4.132   4.521   9.456 -0.6433  0.2340  0.1593
  606MOL0     C79896   4.154   4.662   9.442  0.2408 -0.2535  0.3213
  606MOL0     C79897   4.126   4.728   9.310 -1.0678  0.8553 -0.2300
  606MOL0     C79898   3.987   4.698   9.269 -0.6759  0.7173  0.9987
  606MOL0     C79899   3.968   4.755   9.127  0.4833  0.5169 -0.1509
  606MOL0     C79900   3.815   4.769   9.104 -0.6547  0.2244 -0.2716
  606MOL0     C79901   3.787   4.776   8.951  0.4699 -0.2987 -0.0136
  606MOL0     C79902   3.770   4.640   8.897 -0.4780 -0.3250 -0.2475
  606MOL0     C79903   3.777   4.645   8.746 -0.1892  0.2729 -0.0269
  606MOL0    Cl79904   3.655   4.753   8.657 -0.1791  0.2980 -0.0206
  606MOL0     C79905   4.218   4.319   9.540 -0.0553  0.6106  0.0511
  606MOL0     C79906   4.328   4.224   9.553  0.6364 -0.2354 -0.4549
  606MOL0     O79907   4.651   4.206   9.666  0.2614 -0.2379  0.9076
  606MOL0     C79908   4.667   3.904   9.458 -0.7740 -0.6439  0.0136
  606MOL0     C79909   4.724   3.779   9.444 -1.2243  0.8322 -0.8244
  606MOL0     N79910   5.400   3.401   9.493  0.4278  1.1680  0.5686
  606MOL0     N79911   5.522   3.430   9.489  0.4401  0.5154 -1.0539
  606MOL0     C79912   6.347   3.224   9.779  0.0218 -0.2131 -0.1870
  606MOL0     C79913   6.395   3.335   9.845 -0.8282 -0.6118 -0.4826
  606MOL0     C79914   6.545   3.694  10.042 -0.0248  0.3258 -1.8954
  606MOL0     C79915   6.545   3.727  10.179 -0.0261  0.8255  0.0891
  606MOL0     C79916   6.568   3.852  10.233  0.9653 -0.2833  0.8303
  606MOL0     C79917   6.588   3.954  10.138  0.2496  0.3606 -0.8873
  606MOL0     O79918   6.626   4.080  10.167  0.1302 -0.2445  0.1280
  606MOL0     C79919   6.606   4.135  10.297  0.6883 -0.5667 -0.2741
  606MOL0     C79920   6.552   4.277  10.267 -0.2836  0.6608 -0.4227
  606MOL0     C79921   6.415   4.265  10.203 -0.4159  0.7612  0.3761
  606MOL0     C79922   6.343   4.395  10.171  0.2518 -0.5206  1.0975
  606MOL0     C79923   6.213   4.355  10.121 -0.7808  0.0275 -0.8505
  606MOL0     C79924   6.097   4.338  10.090 -0.1671 -0.1447 -0.7824
  606MOL0     C79925   6.580   3.933  10.004 -0.5367  0.4386 -0.2867
  606MOL0     C79926   6.557   3.803   9.959  1.2903  0.4491  0.1316
  606MOL0     H79927   6.642   3.425   9.634  0.2621 -1.0111  0.0042
  606MOL0     H79928   6.558   3.224   9.520 -1.0164 -2.0393  0.6198
  606MOL0     H79929   6.276   2.974   9.738 -1.3792 -0.2165 -0.9551
  606MOL0     H79930   6.286   2.884   9.582  1.3304  0.5730 -0.2393
  606MOL0     H79931   6.073   3.056   9.692 -3.7116 -1.5037 -1.2320
  606MOL0     H79932   6.065   2.915   9.589 -0.0724  0.3196  1.4627
  606MOL0     H79933   6.145   3.078   9.396 -1.8606  2.3775 -1.9940
  606MOL0     H79934   6.142   3.211   9.518  0.1898 -0.3455 -0.6495
  606MOL0     H79935   5.896   3.055   9.429  1.0985 -0.2658 -1.7406
  606MOL0     H79936   5.904   3.175   9.558  0.4667 -1.7443  0.3955
  606MOL0     H79937   5.995   3.255   9.272 -0.5496  2.9094 -1.3424
  606MOL0     H79938   5.944   3.358   9.396  0.6724  0.3065 -1.6030
  606MOL0     H79939   5.725   3.239   9.397  1.7081 -0.8847  0.6269
  606MOL0     H79940   5.769   3.170   9.235 -2.4978 -0.7611  0.2493
  606MOL0     H79941   5.818   3.417   9.175  0.8782 -0.8284  1.9364
  606MOL0     H79942   5.648   3.356   9.165 -1.8188 -0.0513  1.1615
  606MOL0     H79943   5.678   3.587   9.261  0.0772  0.8577  1.0250
  606MOL0     H79944   5.752   3.516   9.396  0.2619 -1.4148 -0.5996
  606MOL0     H79945   5.420   3.510   9.191 -1.5286  1.1905  0.2235
  606MOL0     H79946   5.166   3.299   9.354 -1.7298  0.8758  0.8298
  606MOL0     H79947   5.203   3.408   9.221 -1.1313 -1.2948 -0.8616
  606MOL0     H79948   5.008   3.475   9.341 -0.2914 -0.4491  0.2951
  606MOL0     H79949   5.137   3.598   9.368 -0.1940  0.7934  1.4258
  606MOL0     H79950   5.033   3.379   9.556  0.6960 -0.8141  1.4266
  606MOL0     H79951   5.176   3.472   9.602 -1.7753 -0.2719  2.3927
  606MOL0     H79952   5.075   3.677   9.605  3.1481 -2.2147 -0.9321
  606MOL0     H79953   4.957   3.570   9.690  1.9449  0.2530  0.1318
  606MOL0     H79954   4.910   3.787   9.738 -0.6747  2.0142  1.1588
  606MOL0     H79955   4.768   3.991   9.769  0.0867  1.3814 -1.4623
  606MOL0     H79956   4.558   4.390   9.349 -1.5425  1.9058 -1.2053
  606MOL0     H79957   4.379   4.557   9.362  4.4723 -0.3733  1.3473
  606MOL0     H79958   4.255   4.695   9.469  1.6061  1.2098 -5.2644
  606MOL0     H79959   4.087   4.711   9.513 -0.8389 -0.8356 -0.2631
  606MOL0     H79960   4.196   4.695   9.233 -2.1987  1.7748 -1.7119
  606MOL0     H79961   4.130   4.836   9.330  0.2571  0.9091 -0.6609
  606MOL0     H79962   3.932   4.746   9.350  2.0113  4.2802  0.9205
  606MOL0     H79963   3.977   4.590   9.251  2.3952  0.7801 -1.9305
  606MOL0     H79964   4.028   4.844   9.104  0.3862  0.2430 -1.5549
  606MOL0     H79965   4.009   4.675   9.066  1.3300 -0.5932  1.7628
  606MOL0     H79966   3.774   4.857   9.155  0.0944 -0.6189  1.8706
  606MOL0     H79967   3.768   4.682   9.151  1.7621 -1.3953 -0.6790
  606MOL0     H79968   3.864   4.830   8.894  1.5225  0.7904  2.3213
  606MOL0     H79969   3.700   4.842   8.957  1.5111  1.0558  0.7656
  606MOL0     H79970   3.852   4.574   8.926 -0.8817 -1.2044 -1.0523
  606MOL0     H79971   3.676   4.598   8.934 -0.1730 -1.1705 -0.4098
  606MOL0     H79972   3.760   4.541   8.717  1.6955 -1.0583  3.0954
  606MOL0     H79973   3.876   4.666   8.706 -0.4853  1.8652  0.0055
  606MOL0     H79974   4.122   4.297   9.585  1.6241 -4.8708  1.6817
  606MOL0     H79975   4.313   4.128   9.601  2.8134 -0.4384 -0.0756
  606MOL0     H79976   4.599   3.926   9.376 -0.3961 -0.4291 -0.2465
  606MOL0     H79977   4.712   3.720   9.354  0.8034 -0.1611 -0.4988
  606MOL0     H79978   6.256   3.180   9.819  0.9559 -2.0883 -0.0086
  606MOL0     H79979   6.349   3.355   9.941  1.4216  1.9298  0.2036
  606MOL0     H79980   6.554   3.651  10.256  0.2946  1.2498  0.4726
  606MOL0     H79981   6.575   3.866  10.340 -1.5213 -3.2275  1.5260
  606MOL0     H79982   6.699   4.139  10.356 -0.8253 -0.7857  2.2753
  606MOL0     H79983   6.528   4.085  10.355  1.1193 -0.4487  0.4302
  606MOL0     H79984   6.540   4.322  10.366 -3.5613 -1.1048  0.1205
  606MOL0     H79985   6.626   4.329  10.206  3.0160  0.4159  2.9320
  606MOL0     H79986   6.353   4.224  10.283  0.4422 -0.3238  0.5106
  606MOL0     H79987   6.421   4.208  10.110  0.4156 -1.3167  1.6334
  606MOL0     H79988   6.328   4.455  10.262 -0.2371 -0.7509  1.1724
  606MOL0     H79989   6.401   4.447  10.095  1.5930 -0.4966  2.1018
  606MOL0     H79990   5.990   4.332  10.078 -0.4791  2.8474 -0.3328
  606MOL0     H79991   6.606   3.998   9.921  0.8552 -0.7555 -0.8371
  606MOL0     H79992   6.559   3.791   9.851 -0.3345 -0.1962  0.1580
  607MOL0     O79993   0.641   1.890   0.834  0.1789 -0.1585 -1.0593
  607MOL0     C79994   0.587   1.806   0.903  0.1849  0.3204 -0.4620
  607MOL0     O79995   0.451   1.800   0.941 -0.0065 -0.2104 -0.2007
  607MOL0     C79996   0.356   1.886   0.905  0.6499 -0.3613 -0.1520
  607MOL0     C79997   0.368   1.995   0.823 -0.4331  0.2520 -0.4061
  607MOL0     C79998   0.249   2.070   0.808 -0.9707  0.2931 -0.7835
  607MOL0     C79999   0.134   2.041   0.888 -0.9057 -0.2739 -0.1513
  607MOL0     O80000   0.022   2.110   0.874  0.0579 -0.1378 -0.3483
  607MOL0     C80001  -0.054   2.153   0.986 -0.2775  0.3219 -0.4386
  607MOL0     C80002  -0.185   2.084   1.006 -0.2710 -0.0560  0.4175
  607MOL0     C80003  -0.287   2.114   0.894 -0.9722 -0.8582 -0.5689
  607MOL0     C80004  -0.430   2.072   0.945  0.2712 -1.1620  1.1720
  607MOL0     C80005  -0.522   2.090   0.829 -0.2331 -0.6484 -0.2460
  607MOL0     C80006  -0.662   2.030   0.858  0.2872  0.0670  0.6628
  607MOL0     C80007  -0.763   2.009   0.737 -0.3084 -0.2964  0.2716
  607MOL0     C80008  -0.794   2.143   0.679  0.1193  0.0260  0.1680
  607MOL0     N80009  -0.894   2.151   0.575  0.3268 -0.0963 -0.1242
  607MOL0     C80010  -1.031   2.133   0.598 -0.0603 -0.0094 -0.1800
  607MOL0     C80011  -1.090   2.116   0.482 -1.3622 -0.7426  0.0891
  607MOL0     C80012  -1.228   2.072   0.463 -0.0824  0.0076  0.6559
  607MOL0     C80013  -1.326   2.129   0.555 -0.2020  1.1695  0.5633
  607MOL0     C80014  -1.454   2.040   0.562  0.0245 -0.2192  0.9628
  607MOL0     C80015  -1.550   2.061   0.451  0.8198 -0.8660 -0.2713
  607MOL0     O80016  -1.655   1.971   0.469  0.3887 -0.2792 -0.1004
  607MOL0     C80017  -1.762   1.970   0.385 -0.4325  0.6130  0.1810
  607MOL0     C80018  -1.857   1.876   0.407 -0.1098 -0.3115  0.0512
  607MOL0     C80019  -1.985   1.874   0.343  0.9142  1.1186  0.7745
  607MOL0     C80020  -2.017   1.982   0.251 -0.2074 -0.3356  0.1223
  607MOL0     C80021  -2.150   1.987   0.188 -0.2486  0.3187  0.9152
  607MOL0     O80022  -2.243   1.897   0.228 -0.3524  0.8927 -0.0821
  607MOL0     C80023  -2.374   1.900   0.185  0.5984  0.0711  0.7185
  607MOL0     C80024  -2.450   2.013   0.171  0.6009 -0.3445  0.7074
  607MOL0     C80025  -2.587   2.002   0.139  0.3856  0.5947  0.4678
  607MOL0     C80026  -2.650   1.883   0.132  0.1446 -0.4246  0.1581
  607MOL0     O80027  -2.787   1.881   0.102 -0.0597  0.9685  0.3874
  607MOL0     C80028  -2.869   1.910   0.210  0.4341 -1.1740 -0.6200
  607MOL0     C80029  -3.009   1.835   0.207 -0.2952  0.4597  0.0564
  607MOL0     C80030  -3.078   1.857   0.068  0.2350 -0.2949  0.0254
  607MOL0     C80031  -3.212   1.784   0.073  0.8308  0.4207 -0.5400
  607MOL0     C80032  -3.300   1.842  -0.035 -0.4914 -0.1671  0.8957
  607MOL0     C80033  -3.437   1.770  -0.045  0.7835  0.0546  0.4576
  607MOL0     C80034  -3.427   1.614  -0.074 -0.5793  0.0471 -0.3735
  607MOL0     C80035  -3.351   1.577  -0.195  0.2211  0.1927  0.2110
  607MOL0    Cl80036  -3.443   1.634  -0.339 -0.0338  0.3266  0.3282
  607MOL0     C80037  -2.582   1.771   0.162 -0.0476 -0.6203 -0.4958
  607MOL0     C80038  -2.444   1.776   0.176  0.5791 -0.7989 -0.4660
  607MOL0     O80039  -2.170   2.080   0.116  0.5072  0.5207 -0.0604
  607MOL0     C80040  -1.908   2.060   0.212  0.1893  0.3206  0.2142
  607MOL0     C80041  -1.784   2.053   0.273  0.8647  0.3404  0.5931
  607MOL0     N80042  -0.982   2.135   0.384  1.0942 -0.3354 -0.1799
  607MOL0     N80043  -0.875   2.167   0.446 -0.1312  0.2921 -0.3488
  607MOL0     C80044   0.133   1.938   0.979  0.7222  0.4497  0.0536
  607MOL0     C80045   0.247   1.860   0.986  0.3522  0.4281  0.2075
  607MOL0     C80046   0.684   1.704   0.962  0.6280  0.7724 -0.1851
  607MOL0     C80047   0.824   1.734   0.961 -0.0388  0.0807  0.3902
  607MOL0     C80048   0.902   1.645   1.041  0.3443  0.7071 -0.3671
  607MOL0     C80049   0.856   1.544   1.118  0.8546 -0.5417 -0.8586
  607MOL0     O80050   0.953   1.464   1.181 -0.2146 -0.6770 -0.1305
  607MOL0     C80051   0.898   1.344   1.242  0.8171  0.0554  0.3316
  607MOL0     C80052   1.016   1.256   1.265  0.3169 -0.0153 -0.1571
  607MOL0     C80053   0.971   1.127   1.340 -1.4386 -0.4085 -0.1750
  607MOL0     C80054   1.090   1.034   1.363  0.0774  0.1284  0.0592
  607MOL0     C80055   1.052   0.893   1.379  0.9619  0.9609 -0.2455
  607MOL0     C80056   1.025   0.777   1.406 -0.6081 -0.5139 -0.1416
  607MOL0     C80057   0.711   1.524   1.127 -0.1340  0.2657 -0.3603
  607MOL0     C80058   0.628   1.598   1.042 -0.1112  1.2788  1.0662
  607MOL0     H80059   0.457   2.016   0.764  3.3585 -1.2799  4.1881
  607MOL0     H80060   0.234   2.150   0.737  0.8556 -0.0899 -1.6609
  607MOL0     H80061  -0.067   2.261   0.995 -0.8978  0.2564 -0.5342
  607MOL0     H80062   0.002   2.127   1.076 -1.6716 -3.0002 -0.3880
  607MOL0     H80063  -0.230   2.112   1.101 -3.3928 -3.0258 -0.0093
  607MOL0     H80064  -0.168   1.977   1.018  2.7642  0.2129 -0.5527
  607MOL0     H80065  -0.263   2.067   0.799 -0.6664 -0.0727 -0.8891
  607MOL0     H80066  -0.288   2.222   0.874  4.8252 -0.7120 -1.6160
  607MOL0     H80067  -0.427   1.967   0.975  0.9568 -1.9128 -1.3597
  607MOL0     H80068  -0.480   2.136   1.019 -4.6148  0.3266 -2.8994
  607MOL0     H80069  -0.479   2.041   0.741 -1.6857 -2.3428 -0.0814
  607MOL0     H80070  -0.528   2.196   0.802 -1.0997 -0.4328  0.7089
  607MOL0     H80071  -0.705   2.075   0.947 -2.0219 -1.0824  0.2031
  607MOL0     H80072  -0.640   1.930   0.897 -1.1153  0.3877  2.3783
  607MOL0     H80073  -0.711   1.951   0.661  1.2897  2.6633 -1.0774
  607MOL0     H80074  -0.849   1.951   0.770  0.2132  0.1375  2.5944
  607MOL0     H80075  -0.699   2.182   0.641  0.5802 -1.7647 -0.5789
  607MOL0     H80076  -0.839   2.198   0.763 -1.5157 -1.3267  0.2368
  607MOL0     H80077  -1.078   2.121   0.695 -0.6309  1.0950 -0.3063
  607MOL0     H80078  -1.240   1.964   0.475 -1.3345  0.2185  1.4897
  607MOL0     H80079  -1.265   2.099   0.364  1.0957  0.1031  0.2251
  607MOL0     H80080  -1.352   2.225   0.508  0.3494  1.4371  0.8023
  607MOL0     H80081  -1.289   2.155   0.654  3.0301  1.2114 -0.5446
  607MOL0     H80082  -1.431   1.933   0.562  0.8782 -0.0560 -0.2085
  607MOL0     H80083  -1.495   2.076   0.657  0.0952  1.0105  0.5479
  607MOL0     H80084  -1.507   2.042   0.352 -1.7031  2.4996 -2.2429
  607MOL0     H80085  -1.582   2.165   0.445 -1.8948 -1.7230 -2.9826
  607MOL0     H80086  -1.851   1.801   0.485  1.3918  1.9478  2.2618
  607MOL0     H80087  -2.060   1.801   0.371  1.4692  0.1405 -0.2226
  607MOL0     H80088  -2.400   2.107   0.193  0.1439 -0.3512  1.8108
  607MOL0     H80089  -2.625   2.103   0.145  4.3826  2.3059  0.0017
  607MOL0     H80090  -2.891   2.017   0.217 -3.0103 -1.8938  2.4763
  607MOL0     H80091  -2.820   1.874   0.301  3.5566 -0.4416 -1.8783
  607MOL0     H80092  -3.077   1.857   0.290 -0.6077 -0.5457  0.0796
  607MOL0     H80093  -2.981   1.730   0.207  2.1414  1.0294 -0.5214
  607MOL0     H80094  -3.025   1.829  -0.024  1.0294  1.2950 -0.0250
  607MOL0     H80095  -3.109   1.961   0.061 -1.5117 -0.8820 -3.8098
  607MOL0     H80096  -3.200   1.678   0.049 -1.4834  0.1463 -0.7515
  607MOL0     H80097  -3.251   1.799   0.174 -1.3824 -0.9764 -1.1128
  607MOL0     H80098  -3.249   1.832  -0.131  0.2831  0.6854  1.2106
  607MOL0     H80099  -3.314   1.948  -0.011  1.9358 -0.4241  4.0504
  607MOL0     H80100  -3.492   1.823  -0.123  0.0810 -0.3997  0.6369
  607MOL0     H80101  -3.497   1.786   0.045  0.1346 -1.4928  0.3248
  607MOL0     H80102  -3.391   1.562   0.015 -0.8925 -0.8067 -0.7390
  607MOL0     H80103  -3.520   1.558  -0.088 -1.0021 -0.0426  2.2631
  607MOL0     H80104  -3.358   1.469  -0.205  0.0635  0.2196  0.0039
  607MOL0     H80105  -3.249   1.615  -0.207 -0.0660  1.7124  2.0312
  607MOL0     H80106  -2.634   1.676   0.157 -2.7162  0.5276  2.5710
  607MOL0     H80107  -2.390   1.682   0.178 -1.1724 -1.8429 -0.4006
  607MOL0     H80108  -1.908   2.136   0.134  0.3570 -1.3157 -1.4489
  607MOL0     H80109  -1.700   2.113   0.239  1.1128 -0.3538 -0.0480
  607MOL0     H80110   0.046   1.921   1.041  3.8206 -0.5162  4.6042
  607MOL0     H80111   0.251   1.781   1.059 -0.0447  0.7539  0.5872
  607MOL0     H80112   0.865   1.815   0.902 -0.1809 -1.0595 -1.3249
  607MOL0     H80113   1.009   1.664   1.037  0.1118  1.9405 -1.5465
  607MOL0     H80114   0.817   1.294   1.186  0.0910  0.0401  1.3623
  607MOL0     H80115   0.843   1.367   1.334 -1.3476  0.6943 -1.0227
  607MOL0     H80116   1.064   1.246   1.168  1.2569  4.5399 -0.3850
  607MOL0     H80117   1.090   1.308   1.326  0.8357 -1.0509  0.1050
  607MOL0     H80118   0.896   1.078   1.278  0.6230  1.9960 -5.0794
  607MOL0     H80119   0.932   1.163   1.436  0.0070 -0.2737  0.3926
  607MOL0     H80120   1.155   1.034   1.275 -0.1274  2.0564 -0.1381
  607MOL0     H80121   1.155   1.065   1.446 -0.1952  0.0441  0.3032
  607MOL0     H80122   1.023   0.671   1.417 -1.0932 -0.5928 -0.9014
  607MOL0     H80123   0.665   1.463   1.205  0.7297 -1.0105 -0.8172
  607MOL0     H80124   0.520   1.585   1.053  0.0090 -1.3309  0.0176
  608MOL0     O80125   5.366   4.104   3.295 -0.2904  0.0163 -0.7476
  608MOL0     C80126   5.426   4.006   3.349 -0.8908 -1.6190  0.0364
  608MOL0     O80127   5.496   3.906   3.283 -0.3295  0.7973 -0.1530
  608MOL0     C80128   5.481   3.890   3.147 -1.2492 -0.1424  0.0544
  608MOL0     C80129   5.492   3.763   3.090 -0.0476 -0.9531 -0.1613
  608MOL0     C80130   5.487   3.734   2.949  0.1827  0.3110 -0.0262
  608MOL0     C80131   5.466   3.840   2.860 -1.6968 -0.2509 -0.7853
  608MOL0     O80132   5.461   3.821   2.725 -0.2535 -0.1072 -0.9625
  608MOL0     C80133   5.571   3.884   2.654  0.9839 -0.6542 -0.7167
  608MOL0     C80134   5.585   3.802   2.523  0.4422 -0.5613  0.3973
  608MOL0     C80135   5.625   3.657   2.545  0.4399  0.4398 -0.5117
  608MOL0     C80136   5.662   3.590   2.413  0.2084 -0.2051  0.6213
  608MOL0     C80137   5.696   3.447   2.433  0.2694  0.2950 -0.2686
  608MOL0     C80138   5.727   3.377   2.289  0.1511  0.7308 -0.0241
  608MOL0     C80139   5.711   3.221   2.285  0.3470  0.4544 -0.2425
  608MOL0     C80140   5.730   3.171   2.147  0.5067 -0.7131 -0.5079
  608MOL0     N80141   5.723   3.031   2.142  0.0833 -0.0694  0.3990
  608MOL0     C80142   5.750   2.927   2.228 -0.0682 -0.5744  0.6208
  608MOL0     C80143   5.738   2.816   2.153 -0.6174  0.8482 -0.2292
  608MOL0     C80144   5.755   2.664   2.205 -0.3824 -0.4063  0.0406
  608MOL0     C80145   5.631   2.572   2.184  0.5589 -1.0853  0.6194
  608MOL0     C80146   5.641   2.434   2.235 -0.2485 -0.1928  0.0307
  608MOL0     C80147   5.651   2.424   2.393  0.9404 -1.4100 -0.4177
  608MOL0     O80148   5.545   2.501   2.457  0.1862  0.0315 -0.0447
  608MOL0     C80149   5.433   2.434   2.514 -0.7529  0.3308 -0.0372
  608MOL0     C80150   5.369   2.343   2.433 -0.4752  0.3004  0.3202
  608MOL0     C80151   5.260   2.275   2.484  0.4946  0.1621 -0.3822
  608MOL0     C80152   5.213   2.298   2.622 -0.7112 -0.1752  1.0656
  608MOL0     C80153   5.085   2.234   2.655  0.4265 -0.4622 -0.3604
  608MOL0     O80154   5.009   2.184   2.556  0.8174 -0.2763 -0.0352
  608MOL0     C80155   4.886   2.145   2.598  0.0252 -0.3329  0.0506
  608MOL0     C80156   4.858   2.010   2.605 -0.1186 -0.0005 -0.1753
  608MOL0     C80157   4.732   1.973   2.632  0.1700 -0.3769 -0.4513
  608MOL0     C80158   4.627   2.063   2.655 -0.5674  0.0898  0.4716
  608MOL0     O80159   4.496   2.022   2.670 -0.1510 -0.6598  0.0504
  608MOL0     C80160   4.447   1.901   2.626 -0.2770  0.2542 -0.0455
  608MOL0     C80161   4.302   1.918   2.598  0.7533 -0.2067 -0.2082
  608MOL0     C80162   4.204   1.867   2.706  0.7846 -0.4697 -0.2825
  608MOL0     C80163   4.066   1.871   2.650 -0.0482  0.9938 -0.4548
  608MOL0     C80164   3.967   1.816   2.750  0.4550 -0.0472  0.9698
  608MOL0     C80165   3.945   1.908   2.877  0.0663  0.3307 -0.1961
  608MOL0     C80166   3.817   1.867   2.963  0.3591  0.0697 -0.1271
  608MOL0     C80167   3.788   1.972   3.084 -0.8416  0.8883 -0.1547
  608MOL0    Cl80168   3.886   1.939   3.243 -0.0237  0.0317  0.1765
  608MOL0     C80169   4.661   2.195   2.655 -1.0980 -0.3386  1.0886
  608MOL0     C80170   4.792   2.239   2.625  0.0444  0.3314  0.2707
  608MOL0     O80171   5.055   2.250   2.772 -0.1017 -0.2688 -0.0739
  608MOL0     C80172   5.288   2.385   2.702  0.1595  0.6796 -0.3868
  608MOL0     C80173   5.393   2.456   2.650 -0.1365  0.1329  0.3897
  608MOL0     N80174   5.719   2.847   2.032  0.9061  0.5234  0.1135
  608MOL0     N80175   5.716   2.973   2.019 -0.3973  1.5136 -0.4531
  608MOL0     C80176   5.449   3.963   2.917  0.6213  0.7159 -0.7088
  608MOL0     C80177   5.462   3.992   3.058 -0.6601  0.1661  0.1026
  608MOL0     C80178   5.438   4.010   3.499 -0.6343 -0.3619 -0.7923
  608MOL0     C80179   5.494   3.901   3.561 -0.0843  0.6059 -0.3468
  608MOL0     C80180   5.511   3.903   3.704 -0.1302  0.4493 -0.0969
  608MOL0     C80181   5.479   4.017   3.771 -1.1889 -0.0095 -1.2025
  608MOL0     O80182   5.524   4.032   3.897 -0.2834 -0.5882 -0.8694
  608MOL0     C80183   5.622   4.129   3.912 -0.0230 -0.0237 -0.2043
  608MOL0     C80184   5.764   4.065   3.897  0.0019  0.1791 -0.2863
  608MOL0     C80185   5.865   4.181   3.887  0.8294  0.3449  0.1113
  608MOL0     C80186   5.990   4.154   3.819  0.6987 -0.2509 -0.9053
  608MOL0     C80187   5.960   4.120   3.676  0.2614  0.1514 -0.5139
  608MOL0     C80188   5.934   4.081   3.564 -0.3380 -0.9268 -0.1938
  608MOL0     C80189   5.411   4.125   3.713 -0.1517 -0.3951 -1.6500
  608MOL0     C80190   5.396   4.118   3.578  0.3231 -0.1897  0.8341
  608MOL0     H80191   5.515   3.683   3.159 -1.0128 -1.1835 -0.0878
  608MOL0     H80192   5.507   3.636   2.908 -0.1766 -0.5935  1.8781
  608MOL0     H80193   5.662   3.894   2.713  0.7978 -0.8938 -0.3841
  608MOL0     H80194   5.543   3.983   2.618  0.8183 -1.4766 -3.0140
  608MOL0     H80195   5.670   3.834   2.462 -1.4365  2.4194 -0.8412
  608MOL0     H80196   5.494   3.812   2.464  0.0152  0.8992  1.2505
  608MOL0     H80197   5.545   3.601   2.595  0.4713  1.2901  0.5327
  608MOL0     H80198   5.717   3.639   2.602 -2.6830 -3.1478  4.1250
  608MOL0     H80199   5.581   3.601   2.341  2.5926  1.8696 -1.9636
  608MOL0     H80200   5.752   3.644   2.383 -0.9189  1.5268  0.2089
  608MOL0     H80201   5.602   3.407   2.473 -0.5825 -0.6671 -3.0495
  608MOL0     H80202   5.770   3.423   2.510 -0.2992  0.2497  0.2723
  608MOL0     H80203   5.828   3.395   2.253  1.1152  0.9850  2.5531
  608MOL0     H80204   5.662   3.407   2.207  1.3570  1.2075 -0.8266
  608MOL0     H80205   5.785   3.176   2.352 -0.4863 -0.6001 -0.0013
  608MOL0     H80206   5.610   3.194   2.318  0.4505  0.7600  0.3284
  608MOL0     H80207   5.826   3.197   2.103  0.8450 -3.2720 -1.4373
  608MOL0     H80208   5.649   3.212   2.086  0.4225  0.1329  0.1417
  608MOL0     H80209   5.757   2.915   2.335  1.6198 -2.1534  0.3720
  608MOL0     H80210   5.779   2.676   2.311  1.1269  1.3195 -0.4369
  608MOL0     H80211   5.835   2.623   2.143 -0.4296 -0.9503  0.3397
  608MOL0     H80212   5.620   2.570   2.075 -1.9637  6.0325  0.2110
  608MOL0     H80213   5.538   2.622   2.214  1.5981  0.8762  0.7445
  608MOL0     H80214   5.550   2.385   2.199 -0.6110  0.1559  0.4726
  608MOL0     H80215   5.730   2.389   2.190 -0.6197  1.0404 -2.0555
  608MOL0     H80216   5.740   2.469   2.438 -0.4331  1.2681 -0.1620
  608MOL0     H80217   5.659   2.319   2.421  1.7011 -1.1591  0.3837
  608MOL0     H80218   5.387   2.339   2.326 -2.6404  5.2093 -0.5223
  608MOL0     H80219   5.205   2.203   2.424 -3.0941  1.9046  0.5354
  608MOL0     H80220   4.933   1.936   2.577  0.8294  1.3037 -1.2192
  608MOL0     H80221   4.709   1.868   2.637  0.9344 -0.4872  1.7913
  608MOL0     H80222   4.466   1.831   2.708  1.8491  2.9528  1.9784
  608MOL0     H80223   4.501   1.868   2.537 -3.4316  1.1996 -2.5253
  608MOL0     H80224   4.277   1.880   2.499 -2.2920  0.2765  0.2743
  608MOL0     H80225   4.282   2.026   2.595 -1.7179 -0.6249 -1.3644
  608MOL0     H80226   4.205   1.932   2.795  1.6364  0.9694 -1.2954
  608MOL0     H80227   4.247   1.768   2.724  0.0764 -0.6868  0.2887
  608MOL0     H80228   4.038   1.970   2.615  1.2374  1.5042 -0.0804
  608MOL0     H80229   4.063   1.806   2.562 -0.6575 -0.2744  0.4699
  608MOL0     H80230   3.996   1.713   2.773 -0.5792 -1.2848 -2.6328
  608MOL0     H80231   3.870   1.813   2.700  0.5979 -0.2190  0.7014
  608MOL0     H80232   3.913   2.005   2.839 -2.3187 -0.6161 -0.7884
  608MOL0     H80233   4.031   1.919   2.943 -0.5656  2.1946  0.3864
  608MOL0     H80234   3.737   1.880   2.890  0.5898  1.9117 -0.0828
  608MOL0     H80235   3.817   1.764   3.001  2.4641  0.5446  1.3478
  608MOL0     H80236   3.682   1.975   3.110 -0.5624  3.1348  0.8917
  608MOL0     H80237   3.811   2.072   3.047  0.0317  0.7368 -0.0402
  608MOL0     H80238   4.576   2.261   2.662 -1.9674 -1.2549 -0.2722
  608MOL0     H80239   4.808   2.346   2.635  0.9442  0.1682  0.6949
  608MOL0     H80240   5.267   2.396   2.808  0.1808 -0.6102 -0.2258
  608MOL0     H80241   5.437   2.537   2.707 -1.4141  0.4409  0.9546
  608MOL0     H80242   5.441   4.045   2.846 -1.2955 -0.0276 -1.4420
  608MOL0     H80243   5.451   4.095   3.088  1.5363  0.5686 -0.3024
  608MOL0     H80244   5.527   3.814   3.505  1.5287 -0.3352  1.9180
  608MOL0     H80245   5.552   3.824   3.766  1.6108  2.6238  1.7254
  608MOL0     H80246   5.613   4.187   4.005  1.3165  2.1116 -1.3325
  608MOL0     H80247   5.615   4.200   3.830  1.4465  0.2884 -0.0748
  608MOL0     H80248   5.773   4.010   3.991 -3.6355 -0.2463 -0.0664
  608MOL0     H80249   5.764   3.990   3.818 -2.3680 -1.8089  1.4397
  608MOL0     H80250   5.896   4.212   3.987  0.3417 -2.5848  1.2711
  608MOL0     H80251   5.817   4.267   3.839  1.2367 -0.5440 -1.9628
  608MOL0     H80252   6.055   4.242   3.818 -0.4138  0.7220  1.5207
  608MOL0     H80253   6.048   4.069   3.855  2.5792  1.3096 -0.0781
  608MOL0     H80254   5.910   4.027   3.475  1.1004 -2.0028  0.0268
  608MOL0     H80255   5.380   4.215   3.766 -0.5768 -1.5609  0.1553
  608MOL0     H80256   5.349   4.200   3.526  1.8043  0.4444  0.4604
  609MOL0     O80257   8.215   3.189   9.007 -0.2384  0.1407 -0.1595
  609MOL0     C80258   8.234   3.234   8.894 -0.4808 -0.1686  0.0532
  609MOL0     O80259   8.251   3.367   8.857  0.3940 -0.0616 -0.9311
  609MOL0     C80260   8.196   3.466   8.942  0.1992  0.0174  1.2798
  609MOL0     C80261   8.075   3.455   8.999  0.3006 -0.7632 -0.0686
  609MOL0     C80262   8.026   3.566   9.063  0.5237 -1.0819 -0.0326
  609MOL0     C80263   8.090   3.691   9.074 -0.1934 -0.0218  0.8447
  609MOL0     O80264   8.025   3.794   9.143  0.3531  0.2010  0.1407
  609MOL0     C80265   7.989   3.900   9.053 -0.4274  1.1467 -0.0056
  609MOL0     C80266   7.922   4.014   9.128  0.1915  0.3184 -0.0845
  609MOL0     C80267   7.855   4.122   9.038  0.2414  0.4303  0.0860
  609MOL0     C80268   7.806   4.230   9.123 -0.3360  0.2664 -0.7068
  609MOL0     C80269   7.743   4.340   9.043  0.1012 -0.5350  0.8652
  609MOL0     C80270   7.597   4.308   8.999 -0.3466 -0.2412  0.6856
  609MOL0     C80271   7.506   4.425   8.964 -0.8550 -0.6543  0.1182
  609MOL0     C80272   7.373   4.362   8.913  0.1245 -1.2636  0.3616
  609MOL0     N80273   7.305   4.468   8.829  0.3032  0.1457  0.8160
  609MOL0     C80274   7.340   4.498   8.701 -0.3814 -0.2823 -0.1901
  609MOL0     C80275   7.247   4.580   8.656 -0.5688 -0.6240 -0.3620
  609MOL0     C80276   7.257   4.652   8.525  0.5553 -0.1686 -0.4402
  609MOL0     C80277   7.339   4.784   8.551  0.9495 -0.2545  0.5325
  609MOL0     C80278   7.378   4.856   8.417 -0.7523  0.8204 -1.3513
  609MOL0     C80279   7.345   5.006   8.421 -0.0558 -0.6797 -0.4267
  609MOL0     O80280   7.204   5.044   8.391 -0.4183 -0.4844 -0.3011
  609MOL0     C80281   7.146   5.156   8.433  0.8050 -0.4715  0.5192
  609MOL0     C80282   7.011   5.165   8.422  0.2919 -0.1943 -0.3645
  609MOL0     C80283   6.932   5.283   8.468 -0.0024 -0.4652  0.4735
  609MOL0     C80284   7.006   5.385   8.525  0.2796 -0.2600 -0.1150
  609MOL0     C80285   6.937   5.519   8.574 -1.2184  0.3122  0.5727
  609MOL0     O80286   6.808   5.529   8.547 -0.2781  0.6199  0.7553
  609MOL0     C80287   6.737   5.644   8.551 -0.7340 -0.2250  0.1050
  609MOL0     C80288   6.793   5.769   8.531  0.4578 -0.2290  0.9141
  609MOL0     C80289   6.707   5.878   8.545 -0.8463 -0.1186 -0.3682
  609MOL0     C80290   6.563   5.864   8.544  0.4544  0.8263  0.7932
  609MOL0     O80291   6.494   5.981   8.544  0.0972 -0.9824 -0.3396
  609MOL0     C80292   6.357   6.002   8.578  0.8832 -0.2416  0.6851
  609MOL0     C80293   6.271   5.959   8.449  0.0069  0.7098  1.5885
  609MOL0     C80294   6.139   6.028   8.454  0.0848  0.2802  0.1962
  609MOL0     C80295   6.156   6.174   8.409 -0.1812  0.3692  0.0018
  609MOL0     C80296   6.023   6.255   8.410 -0.2880 -0.0377 -0.7487
  609MOL0     C80297   5.921   6.240   8.520  0.1544  0.4472  0.3406
  609MOL0     C80298   5.796   6.329   8.490 -0.1364 -0.3762  0.0724
  609MOL0     C80299   5.704   6.322   8.609  0.5837  0.1270 -0.0803
  609MOL0    Cl80300   5.550   6.373   8.534  0.3793  0.1454 -0.3063
  609MOL0     C80301   6.508   5.741   8.548 -0.1818 -0.5043 -0.6776
  609MOL0     C80302   6.600   5.635   8.566 -0.3381  0.5981  0.1594
  609MOL0     O80303   7.003   5.602   8.638  0.4340  0.1850 -0.7145
  609MOL0     C80304   7.147   5.378   8.534  0.1769 -0.9041  0.5764
  609MOL0     C80305   7.218   5.274   8.481 -0.1769 -0.1280  0.2084
  609MOL0     N80306   7.154   4.607   8.753  0.0066  0.6544 -0.2621
  609MOL0     N80307   7.185   4.529   8.860 -0.0179 -0.6838  0.0912
  609MOL0     C80308   8.228   3.699   9.021  0.5631  0.6668 -0.3116
  609MOL0     C80309   8.281   3.582   8.955 -0.1177  0.6614  0.1504
  609MOL0     C80310   8.267   3.131   8.789  0.3546 -1.2585  0.2023
  609MOL0     C80311   8.255   3.166   8.651  0.0351 -0.3269 -0.4554
  609MOL0     C80312   8.276   3.073   8.553 -0.3209  1.1175 -0.2140
  609MOL0     C80313   8.308   2.949   8.579 -0.5338  1.1556  0.0455
  609MOL0     O80314   8.299   2.855   8.472  0.7586 -0.2262 -0.5454
  609MOL0     C80315   8.239   2.737   8.502 -0.7513  0.2341 -0.4586
  609MOL0     C80316   8.357   2.646   8.500  0.2351 -0.1380  0.2653
  609MOL0     C80317   8.314   2.495   8.511  0.4930  0.7958 -0.2483
  609MOL0     C80318   8.426   2.400   8.570  0.7967 -0.9992 -0.2083
  609MOL0     C80319   8.416   2.256   8.551  0.7838  1.3406  0.5419
  609MOL0     C80320   8.393   2.137   8.540 -0.6074 -0.0838  0.0747
  609MOL0     C80321   8.321   2.905   8.719  1.2739 -0.6627  0.5538
  609MOL0     C80322   8.300   2.998   8.819  0.5031  0.7184 -0.9871
  609MOL0     H80323   8.016   3.363   9.000  2.2786 -2.1468  2.3824
  609MOL0     H80324   7.926   3.551   9.100  0.3712 -3.4112 -1.2255
  609MOL0     H80325   7.937   3.866   8.963 -0.0265 -1.2800  0.6125
  609MOL0     H80326   8.080   3.932   9.002  0.6240 -2.3608 -0.5423
  609MOL0     H80327   7.995   4.056   9.197  0.0527 -2.7144  2.1351
  609MOL0     H80328   7.843   3.976   9.194 -0.4301  1.3377 -0.2256
  609MOL0     H80329   7.773   4.070   8.987  1.3460  0.0679 -1.3880
  609MOL0     H80330   7.928   4.140   8.959  1.4011 -1.4646  0.6368
  609MOL0     H80331   7.740   4.196   9.203  0.0830 -2.2994 -1.3469
  609MOL0     H80332   7.893   4.274   9.174  0.8965 -2.8073  0.0603
  609MOL0     H80333   7.808   4.355   8.957  0.8781 -0.6285  1.4233
  609MOL0     H80334   7.752   4.434   9.098  0.3998  0.0003 -0.0908
  609MOL0     H80335   7.555   4.254   9.084  0.8934 -0.2860  1.2832
  609MOL0     H80336   7.598   4.235   8.918 -1.5671  0.7578 -0.2781
  609MOL0     H80337   7.498   4.500   9.043  4.7369  1.7414 -1.0647
  609MOL0     H80338   7.546   4.483   8.880  0.3795 -0.4757  0.8035
  609MOL0     H80339   7.314   4.324   8.997 -1.7853 -1.8807 -1.1865
  609MOL0     H80340   7.383   4.274   8.849 -1.0122 -1.5776  0.5842
  609MOL0     H80341   7.433   4.470   8.653 -0.2786  1.2417 -0.9233
  609MOL0     H80342   7.158   4.676   8.485  0.4913  1.1016  0.4420
  609MOL0     H80343   7.298   4.569   8.465  0.5893 -0.0680 -0.5569
  609MOL0     H80344   7.430   4.752   8.604  1.9479 -0.2742 -1.1323
  609MOL0     H80345   7.288   4.861   8.609  1.2968  3.2922 -3.4160
  609MOL0     H80346   7.485   4.843   8.400 -0.2233  0.0714  1.8428
  609MOL0     H80347   7.321   4.797   8.344 -0.7864 -1.6645  0.5541
  609MOL0     H80348   7.417   5.053   8.352  0.8787 -1.4474  0.0027
  609MOL0     H80349   7.361   5.054   8.518 -0.3741  0.0087 -0.7078
  609MOL0     H80350   6.960   5.074   8.393 -1.1514 -0.9309  3.7297
  609MOL0     H80351   6.825   5.283   8.451 -0.0410 -3.2842  0.3023
  609MOL0     H80352   6.901   5.773   8.523  0.7184 -1.4330  2.9900
  609MOL0     H80353   6.739   5.981   8.551  2.6180 -1.1595  1.7857
  609MOL0     H80354   6.334   6.107   8.598 -0.7637 -0.3747 -0.2611
  609MOL0     H80355   6.318   5.955   8.668 -2.2045  1.7885  0.5635
  609MOL0     H80356   6.259   5.850   8.442  0.5567  0.7346 -0.2169
  609MOL0     H80357   6.324   5.999   8.362 -1.1640  0.3176  0.6687
  609MOL0     H80358   6.096   6.001   8.551 -0.4194 -2.8796 -0.7803
  609MOL0     H80359   6.063   5.983   8.389  2.1382 -1.7796 -0.8832
  609MOL0     H80360   6.222   6.217   8.485  1.2244 -2.1235  0.2888
  609MOL0     H80361   6.206   6.173   8.312 -0.5733 -2.7705 -0.2775
  609MOL0     H80362   5.978   6.240   8.311 -0.0898  0.0702 -0.8556
  609MOL0     H80363   6.049   6.362   8.409  1.7156 -0.4896 -0.6135
  609MOL0     H80364   5.965   6.281   8.612  3.8775 -0.0879 -1.0168
  609MOL0     H80365   5.898   6.134   8.535 -1.8507  0.9803  1.3271
  609MOL0     H80366   5.846   6.426   8.481  1.3168 -1.2362 -2.0975
  609MOL0     H80367   5.750   6.299   8.396  0.1141 -2.0275  0.4394
  609MOL0     H80368   5.732   6.388   8.692 -1.7088 -1.4011  2.0506
  609MOL0     H80369   5.699   6.219   8.643  3.4676 -0.2678 -0.5947
  609MOL0     H80370   6.402   5.727   8.561 -0.5024  1.0589 -1.4344
  609MOL0     H80371   6.560   5.536   8.589 -1.5914  1.3658  1.4644
  609MOL0     H80372   7.202   5.462   8.575 -1.3800  1.8823 -2.4800
  609MOL0     H80373   7.327   5.276   8.479 -0.0814 -0.1886 -4.2241
  609MOL0     H80374   8.283   3.792   9.026  1.6716  0.0003  0.2296
  609MOL0     H80375   8.381   3.575   8.915 -0.9357 -0.5630 -1.8738
  609MOL0     H80376   8.225   3.262   8.610 -2.7335 -1.1231 -0.4481
  609MOL0     H80377   8.257   3.088   8.447  3.7481  2.6195 -0.9211
  609MOL0     H80378   8.170   2.715   8.420 -0.1628 -0.1362 -0.8571
  609MOL0     H80379   8.188   2.734   8.599  0.8565 -0.0987  0.4131
  609MOL0     H80380   8.408   2.668   8.405 -2.6179  1.9485 -0.9248
  609MOL0     H80381   8.421   2.670   8.585  2.7110  1.1525 -1.8154
  609MOL0     H80382   8.295   2.452   8.412  0.6396 -0.2368  0.1527
  609MOL0     H80383   8.228   2.479   8.576  1.1192 -1.0609  0.2015
  609MOL0     H80384   8.517   2.430   8.517 -1.9704  4.7207 -2.5381
  609MOL0     H80385   8.447   2.419   8.675  1.6514  1.1396 -0.7169
  609MOL0     H80386   8.398   2.031   8.526  4.7822 -0.2028  0.9822
  609MOL0     H80387   8.341   2.802   8.748  2.6257  0.1095  2.6274
  609MOL0     H80388   8.304   2.961   8.921  2.2974  1.7217 -0.6469
  610MOL0     O80389  10.695  10.691   3.934  0.3758  0.1248  0.5751
  610MOL0     C80390  10.794  10.619   3.959 -0.2428 -0.6191 -1.0710
  610MOL0     O80391  10.805  10.515   4.037  0.7400 -0.0322  0.7016
  610MOL0     C80392  10.702  10.478   4.116  0.0677 -1.3786  0.7324
  610MOL0     C80393  10.633  10.358   4.083 -0.9998 -0.2427  0.7023
  610MOL0     C80394  10.532  10.310   4.170  0.6342  1.1180  0.2954
  610MOL0     C80395  10.496  10.381   4.287  0.0437  0.1592  0.5953
  610MOL0     O80396  10.393  10.344   4.374  0.1755  0.2687  0.7240
  610MOL0     C80397  10.290  10.237   4.339 -0.2229  0.1696 -0.0794
  610MOL0     C80398  10.161  10.279   4.407  0.7626 -0.4559 -0.2603
  610MOL0     C80399  10.152  10.241   4.558  0.6787 -0.9093 -0.6308
  610MOL0     C80400  10.029  10.314   4.611 -0.4617  0.0697  0.3995
  610MOL0     C80401  10.015  10.301   4.765 -0.4539 -0.1767  0.9437
  610MOL0     C80402   9.914  10.411   4.818  0.3514  0.4952  2.0618
  610MOL0     C80403   9.905  10.436   4.969  0.1226  0.8911 -0.4840
  610MOL0     C80404   9.874  10.297   5.038 -0.6860  0.5318  0.2447
  610MOL0     N80405   9.855  10.327   5.181 -0.4755  0.0453 -0.8992
  610MOL0     C80406   9.768  10.413   5.245  0.0606 -0.2241 -0.2087
  610MOL0     C80407   9.823  10.430   5.370  0.5112 -0.6884 -0.2830
  610MOL0     C80408   9.769  10.501   5.498  0.0209  0.7223  0.3733
  610MOL0     C80409   9.740  10.647   5.471 -0.4464  0.7478 -0.1234
  610MOL0     C80410   9.854  10.719   5.401 -0.3923 -0.7721  0.5806
  610MOL0     C80411   9.829  10.865   5.389  0.3403 -0.4927 -0.3634
  610MOL0     O80412   9.699  10.913   5.346 -0.2744 -0.1669 -0.5959
  610MOL0     C80413   9.693  10.960   5.221 -0.2652 -0.0409 -0.6906
  610MOL0     C80414   9.740  10.897   5.109  0.7957 -0.7916 -0.4252
  610MOL0     C80415   9.758  10.971   4.993 -0.8245  0.3721  0.3000
  610MOL0     C80416   9.719  11.100   4.985  0.1920 -0.1310  0.4258
  610MOL0     C80417   9.740  11.175   4.855 -0.0168  0.3958 -0.4325
  610MOL0     O80418   9.857  11.149   4.785  0.4183 -0.6087 -0.7808
  610MOL0     C80419   9.887  11.221   4.673  0.7581  0.0338  0.6102
  610MOL0     C80420   9.828  11.180   4.550 -0.3461  0.9233  0.6581
  610MOL0     C80421   9.848  11.252   4.437 -0.0616  0.3299 -0.9060
  610MOL0     C80422   9.936  11.358   4.444 -0.5739 -0.4928  0.5367
  610MOL0     O80423   9.986  11.428   4.328 -0.2064 -0.1758 -0.1442
  610MOL0     C80424   9.929  11.385   4.208  0.7342 -0.5607 -0.4717
  610MOL0     C80425   9.982  11.458   4.094  1.3827 -0.2032  0.5042
  610MOL0     C80426   9.959  11.609   4.091 -0.7291  0.4397  0.7550
  610MOL0     C80427  10.050  11.671   3.987  0.3959 -0.0266 -0.5821
  610MOL0     C80428  10.012  11.816   3.949  0.1862  0.0142  0.2562
  610MOL0     C80429  10.097  11.906   4.027 -0.3783  0.0991 -0.1887
  610MOL0     C80430  10.053  12.046   4.021 -0.1801  0.5233  0.9094
  610MOL0     C80431  10.148  12.147   4.069 -0.0033  0.0681  0.6480
  610MOL0    Cl80432  10.296  12.158   3.972 -0.0754 -0.0396  0.0044
  610MOL0     C80433   9.994  11.397   4.564 -0.1631 -0.7465  0.6059
  610MOL0     C80434   9.968  11.331   4.682  0.2585  0.2736  0.4427
  610MOL0     O80435   9.669  11.268   4.832 -0.4823 -0.6013 -0.2216
  610MOL0     C80436   9.646  11.159   5.087 -0.5275  0.1792 -0.1712
  610MOL0     C80437   9.639  11.089   5.208  0.2947  0.0777  0.3270
  610MOL0     N80438   9.920  10.333   5.380 -0.3336  0.5135 -0.3813
  610MOL0     N80439   9.954  10.281   5.269  0.5311  0.3700 -0.4953
  610MOL0     C80440  10.561  10.508   4.317 -0.8129 -0.4615  1.1791
  610MOL0     C80441  10.666  10.556   4.227  0.3791 -1.0832 -0.5876
  610MOL0     C80442  10.927  10.661   3.907  1.1565 -0.7552  0.9002
  610MOL0     C80443  11.032  10.576   3.914 -0.0082  0.3874  0.1940
  610MOL0     C80444  11.153  10.609   3.851 -0.3559 -0.0713  0.5905
  610MOL0     C80445  11.166  10.733   3.793  0.0278  0.1895  0.3663
  610MOL0     O80446  11.290  10.762   3.736  0.6563  0.2012  0.1752
  610MOL0     C80447  11.369  10.837   3.835 -0.7555  0.5766 -0.8830
  610MOL0     C80448  11.487  10.743   3.872 -0.5749 -0.3672 -0.1507
  610MOL0     C80449  11.615  10.753   3.778  0.2994 -0.1683  0.1000
  610MOL0     C80450  11.742  10.680   3.845  0.0555 -0.6767 -0.8744
  610MOL0     C80451  11.765  10.739   3.979 -0.4097 -0.7389 -0.2021
  610MOL0     C80452  11.791  10.788   4.089 -0.0337 -0.1310  0.6785
  610MOL0     C80453  11.054  10.822   3.792  0.7354 -0.0104 -0.2837
  610MOL0     C80454  10.936  10.787   3.841  0.2914  0.6431  1.1088
  610MOL0     H80455  10.664  10.311   3.990  0.3287 -1.7528  1.8518
  610MOL0     H80456  10.480  10.221   4.138  0.9464 -0.9378  4.7458
  610MOL0     H80457  10.324  10.137   4.369 -0.4263  0.2978  0.5941
  610MOL0     H80458  10.277  10.239   4.231 -0.3347 -2.1966 -0.1528
  610MOL0     H80459  10.079  10.235   4.350 -0.7925  0.8124  0.8806
  610MOL0     H80460  10.156  10.387   4.391 -0.9326 -0.6110 -1.0349
  610MOL0     H80461  10.245  10.274   4.604 -0.2938  1.2223 -0.0471
  610MOL0     H80462  10.135  10.135   4.581 -1.9575  0.2319  4.1165
  610MOL0     H80463  10.026  10.418   4.577 -1.1556 -0.9191 -2.9089
  610MOL0     H80464   9.939  10.273   4.564 -0.7898  2.0964 -0.8771
  610MOL0     H80465  10.108  10.313   4.822  0.6160  0.5269 -0.8462
  610MOL0     H80466   9.976  10.201   4.782 -1.5937  0.0401 -0.2550
  610MOL0     H80467   9.813  10.386   4.782  0.6703  0.8290  0.8932
  610MOL0     H80468   9.929  10.506   4.765 -1.6144 -1.6265 -2.8560
  610MOL0     H80469  10.002  10.478   5.000  0.6043  1.0932 -2.1715
  610MOL0     H80470   9.839  10.515   5.007  0.4397  0.2047  1.6331
  610MOL0     H80471   9.964  10.236   5.039  3.1003  5.3835  3.4774
  610MOL0     H80472   9.788  10.246   4.994 -0.2799  0.5756 -0.6091
  610MOL0     H80473   9.681  10.462   5.203 -1.1921  0.2982  2.7717
  610MOL0     H80474   9.837  10.481   5.581 -3.2326 -0.1632  3.0280
  610MOL0     H80475   9.674  10.450   5.517 -0.1836  0.4770 -1.1548
  610MOL0     H80476   9.725  10.684   5.574  0.0888  0.8630 -0.0854
  610MOL0     H80477   9.644  10.656   5.419 -0.2385  0.6320 -0.5245
  610MOL0     H80478   9.949  10.703   5.452  1.5425  1.9395 -1.8596
  610MOL0     H80479   9.876  10.680   5.301  1.8961 -2.0927  1.5240
  610MOL0     H80480   9.912  10.915   5.337  1.1318  0.4032  1.6130
  610MOL0     H80481   9.852  10.907   5.488  7.5466 -0.2772 -1.5584
  610MOL0     H80482   9.774  10.794   5.102 -2.4619 -2.0254  0.1737
  610MOL0     H80483   9.812  10.931   4.907  1.2858 -0.0980  1.7700
  610MOL0     H80484   9.767  11.091   4.548 -0.6308  1.0902  1.5729
  610MOL0     H80485   9.788  11.221   4.353 -0.4947  0.9565 -0.8368
  610MOL0     H80486   9.821  11.402   4.210  0.9651  0.9440 -0.0452
  610MOL0     H80487   9.954  11.279   4.195  2.4573 -0.1758 -0.5053
  610MOL0     H80488   9.938  11.424   3.999  0.5775 -0.3091  0.9086
  610MOL0     H80489  10.089  11.438   4.094  1.8357  1.1160 -3.7559
  610MOL0     H80490   9.969  11.645   4.194 -2.8289 -1.9466  1.9158
  610MOL0     H80491   9.857  11.626   4.056 -0.2735 -1.3236 -1.6700
  610MOL0     H80492  10.151  11.653   4.025 -0.0611  3.4226  2.9852
  610MOL0     H80493  10.039  11.620   3.891  1.3140  4.3537 -3.3198
  610MOL0     H80494   9.906  11.829   3.973  0.3173 -3.3588  3.5056
  610MOL0     H80495  10.024  11.832   3.842 -2.7521 -0.2078 -0.1967
  610MOL0     H80496  10.199  11.906   3.986 -0.4996  0.7497 -0.5128
  610MOL0     H80497  10.082  11.879   4.132 -0.5889  0.2053 -0.1921
  610MOL0     H80498  10.029  12.069   3.917  0.6109  2.4074  1.1076
  610MOL0     H80499   9.954  12.054   4.069 -0.8715 -1.2532 -0.1355
  610MOL0     H80500  10.160  12.131   4.177 -4.8525 -1.2780  1.2268
  610MOL0     H80501  10.106  12.248   4.062  0.0921  0.0626 -0.0817
  610MOL0     H80502  10.049  11.490   4.569  0.1469 -0.8104 -0.9553
  610MOL0     H80503   9.994  11.369   4.780  0.4615 -0.7515  0.7973
  610MOL0     H80504   9.586  11.250   5.078 -3.3631 -1.4674  0.8748
  610MOL0     H80505   9.605  11.144   5.296 -2.0904  1.3196 -1.2613
  610MOL0     H80506  10.530  10.563   4.405  2.1741  1.5079  1.1532
  610MOL0     H80507  10.711  10.650   4.257  0.4008 -1.5297  0.8865
  610MOL0     H80508  11.029  10.480   3.965  0.6453  0.4994  0.4464
  610MOL0     H80509  11.243  10.548   3.863  0.4544  0.7160 -1.1824
  610MOL0     H80510  11.313  10.858   3.927  2.6006 -0.2435  1.5479
  610MOL0     H80511  11.391  10.935   3.791  0.0207  0.8303  0.0409
  610MOL0     H80512  11.510  10.761   3.978 -0.5666  0.3685 -0.2754
  610MOL0     H80513  11.435  10.647   3.866 -0.0242 -0.6095 -1.3031
  610MOL0     H80514  11.637  10.857   3.752 -1.9298 -0.4540 -3.5980
  610MOL0     H80515  11.607  10.706   3.679 -3.7395  0.8080 -0.2179
  610MOL0     H80516  11.720  10.573   3.845 -4.5777  0.0097  2.2603
  610MOL0     H80517  11.836  10.688   3.788  0.6857 -1.4566  0.0306
  610MOL0     H80518  11.820  10.836   4.180  2.8251  0.7762 -0.5860
  610MOL0     H80519  11.051  10.922   3.751 -0.6842  0.1815  0.2314
  610MOL0     H80520  10.852  10.852   3.820  1.2135  1.5535  0.0762
  611MOL0     O80521   3.332  10.923   8.279  0.1819  0.3315  0.0436
  611MOL0     C80522   3.331  11.011   8.190  0.3239 -0.5998 -0.8091
  611MOL0     O80523   3.242  11.029   8.089  0.5648 -0.0871  0.9245
  611MOL0     C80524   3.110  11.000   8.130  0.0990  0.7633 -0.5819
  611MOL0     C80525   3.038  10.905   8.061 -0.5950  0.1448 -0.4822
  611MOL0     C80526   2.911  10.877   8.088 -0.4907  0.9151  0.6835
  611MOL0     C80527   2.845  10.942   8.188  0.6448 -0.6409  0.6061
  611MOL0     O80528   2.717  10.910   8.202  0.8198 -0.7086 -0.1997
  611MOL0     C80529   2.697  10.803   8.290 -1.2005  0.1231  1.1770
  611MOL0     C80530   2.638  10.854   8.419 -0.6165  0.3015 -1.4034
  611MOL0     C80531   2.523  10.950   8.387 -0.5312  0.0475 -0.7128
  611MOL0     C80532   2.455  10.980   8.517  1.0824 -0.2724  0.3310
  611MOL0     C80533   2.341  11.080   8.500  0.4935  0.2744 -0.6152
  611MOL0     C80534   2.291  11.108   8.645 -0.7250 -0.5599 -0.7160
  611MOL0     C80535   2.206  11.245   8.652  0.0720  0.6936 -0.6632
  611MOL0     C80536   2.127  11.274   8.784  0.2218 -0.0202 -0.1322
  611MOL0     N80537   2.013  11.180   8.806 -0.2956 -0.0911 -0.9253
  611MOL0     C80538   1.921  11.197   8.907 -0.5256  0.6041 -0.7230
  611MOL0     C80539   1.826  11.107   8.875  0.6260  0.3121 -0.8825
  611MOL0     C80540   1.698  11.078   8.950 -0.2556  0.2012 -0.0362
  611MOL0     C80541   1.690  10.936   9.007  0.5819 -0.4106 -0.4272
  611MOL0     C80542   1.787  10.906   9.126 -0.2863 -0.1435 -0.7769
  611MOL0     C80543   1.814  10.765   9.169  0.3491  0.2276 -0.3016
  611MOL0     O80544   1.689  10.690   9.199  0.1118 -0.3665  0.8219
  611MOL0     C80545   1.721  10.571   9.252  0.2286  0.1744  0.3076
  611MOL0     C80546   1.668  10.459   9.187  0.4897  0.4634 -0.0219
  611MOL0     C80547   1.686  10.329   9.237 -0.4498 -0.5139 -0.2135
  611MOL0     C80548   1.754  10.313   9.361  0.2379 -0.3060 -0.2993
  611MOL0     C80549   1.786  10.178   9.409  1.3288  0.0297 -1.3662
  611MOL0     O80550   1.885  10.174   9.504  0.1150  0.4335 -0.3497
  611MOL0     C80551   1.951  10.057   9.517 -0.8363 -0.0839 -0.2150
  611MOL0     C80552   2.082  10.034   9.466 -0.2813  0.5400  1.2900
  611MOL0     C80553   2.140   9.909   9.470  0.2597 -0.7206  0.3303
  611MOL0     C80554   2.084   9.805   9.536  0.6302  0.6539 -0.6710
  611MOL0     O80555   2.157   9.701   9.523  0.2466  0.8735  1.0919
  611MOL0     C80556   2.107   9.578   9.582  0.2900  0.5243  0.0336
  611MOL0     C80557   2.148   9.563   9.727  0.0747  0.9933  0.4669
  611MOL0     C80558   2.165   9.416   9.777  0.6694 -0.0204 -0.1217
  611MOL0     C80559   2.198   9.396   9.925 -0.6411  0.5189 -0.0415
  611MOL0     C80560   2.342   9.440   9.967  0.5285 -0.6285 -0.5812
  611MOL0     C80561   2.365   9.401  10.117 -1.0707  0.3041 -0.3336
  611MOL0     C80562   2.509   9.441  10.151  0.9597  0.2852  0.0120
  611MOL0     C80563   2.574   9.369  10.271 -0.3740  0.1567  0.2376
  611MOL0    Cl80564   2.583   9.200  10.212 -0.1083 -0.5648 -0.1027
  611MOL0     C80565   1.961   9.822   9.598 -0.2924  0.3098  0.3908
  611MOL0     C80566   1.891   9.948   9.584  0.1626 -0.0248  0.0898
  611MOL0     O80567   1.715  10.084   9.373  0.0395  1.0367  0.3761
  611MOL0     C80568   1.799  10.430   9.430  1.4743 -0.2647  0.3695
  611MOL0     C80569   1.770  10.554   9.376 -0.6234 -0.3720 -0.6452
  611MOL0     N80570   1.865  11.037   8.763  0.4042 -0.4959 -0.1327
  611MOL0     N80571   1.981  11.072   8.727  0.5130  0.3748  0.8186
  611MOL0     C80572   2.912  11.033   8.270 -0.2622  0.6847 -0.5477
  611MOL0     C80573   3.035  11.067   8.234 -0.2170 -0.6262  0.4526
  611MOL0     C80574   3.448  11.104   8.198  0.5329  0.0001 -0.8382
  611MOL0     C80575   3.439  11.231   8.139 -0.4360  1.2403 -0.0745
  611MOL0     C80576   3.555  11.310   8.136  0.0278 -0.2462  0.2350
  611MOL0     C80577   3.672  11.269   8.196 -0.3717  0.1192  1.1972
  611MOL0     O80578   3.781  11.362   8.189  0.3391 -0.4651 -0.8348
  611MOL0     C80579   3.881  11.350   8.276  0.4826  0.0274 -0.2328
  611MOL0     C80580   3.956  11.481   8.291 -0.9028  0.7728 -0.7616
  611MOL0     C80581   3.994  11.535   8.165 -0.1960 -0.0638 -0.6569
  611MOL0     C80582   4.109  11.638   8.175  0.0419  0.1075 -1.0776
  611MOL0     C80583   4.106  11.731   8.290  1.2003 -0.1706 -0.0994
  611MOL0     C80584   4.084  11.800   8.395  0.5272 -0.7860  0.2559
  611MOL0     C80585   3.682  11.146   8.256  1.2485  0.5653  0.4879
  611MOL0     C80586   3.564  11.066   8.261 -0.6338  0.6351  0.6294
  611MOL0     H80587   3.097  10.848   7.989  0.1680 -2.3866  1.9570
  611MOL0     H80588   2.866  10.797   8.030 -1.2112  2.5266 -1.1281
  611MOL0     H80589   2.788  10.745   8.307  0.5051  1.1423 -3.1587
  611MOL0     H80590   2.629  10.732   8.242  1.4686 -1.7111 -0.1078
  611MOL0     H80591   2.710  10.912   8.477 -2.1172  1.0004 -0.1487
  611MOL0     H80592   2.620  10.771   8.488 -0.8512 -2.5699 -4.6322
  611MOL0     H80593   2.445  10.903   8.326 -0.7597 -1.9483  1.0250
  611MOL0     H80594   2.567  11.032   8.329  0.0722 -0.8315 -1.5112
  611MOL0     H80595   2.400  10.892   8.550  0.6834 -0.4818 -0.8377
  611MOL0     H80596   2.520  11.018   8.596 -1.1057  3.0870  0.6921
  611MOL0     H80597   2.268  11.041   8.429 -2.4710  0.0798  2.2973
  611MOL0     H80598   2.365  11.184   8.475  0.7800  1.7598  4.6156
  611MOL0     H80599   2.378  11.128   8.707 -1.2207 -2.4919  0.6822
  611MOL0     H80600   2.230  11.029   8.691 -2.5140  0.3465 -1.4310
  611MOL0     H80601   2.259  11.333   8.616 -0.7451  1.0475 -1.0441
  611MOL0     H80602   2.128  11.242   8.575 -0.3900  3.8085 -0.4311
  611MOL0     H80603   2.082  11.373   8.778 -4.2067 -1.9175 -3.1104
  611MOL0     H80604   2.206  11.268   8.859  1.1414  5.0233 -0.3866
  611MOL0     H80605   1.912  11.262   8.993  2.9971  0.7055 -0.2697
  611MOL0     H80606   1.606  11.090   8.891 -1.8743  0.7133  2.4304
  611MOL0     H80607   1.683  11.151   9.029 -1.8464  0.4497 -0.5257
  611MOL0     H80608   1.730  10.865   8.934  2.2424 -0.1763  0.2240
  611MOL0     H80609   1.589  10.913   9.041  0.6112 -0.9544 -0.6950
  611MOL0     H80610   1.884  10.944   9.093  0.6392 -1.4157  0.4050
  611MOL0     H80611   1.740  10.949   9.215 -2.0637 -4.3682  0.5581
  611MOL0     H80612   1.884  10.758   9.253  1.0595 -1.7989 -0.9997
  611MOL0     H80613   1.866  10.713   9.088 -3.9705 -1.7047 -2.1939
  611MOL0     H80614   1.600  10.473   9.104  0.8823 -1.5343 -0.7182
  611MOL0     H80615   1.650  10.242   9.183 -3.6928  0.2844  0.4570
  611MOL0     H80616   2.147  10.108   9.421  3.3431 -0.5345  4.2410
  611MOL0     H80617   2.240   9.900   9.428 -0.4654 -0.9485 -1.4388
  611MOL0     H80618   2.152   9.498   9.522  2.7099  2.7583 -1.3697
  611MOL0     H80619   2.003   9.552   9.560  0.5436 -0.9830  0.4695
  611MOL0     H80620   2.093   9.625   9.798 -2.3354 -1.1662  0.6609
  611MOL0     H80621   2.243   9.608   9.754 -0.6766  0.7001  4.1387
  611MOL0     H80622   2.250   9.366   9.730  3.5524  3.8503  0.4025
  611MOL0     H80623   2.072   9.363   9.755 -0.0848  0.6564  1.2778
  611MOL0     H80624   2.135   9.461   9.986 -0.7627 -0.2552  0.6680
  611MOL0     H80625   2.183   9.290   9.945 -0.5186  0.8071  1.7953
  611MOL0     H80626   2.335   9.548   9.949  1.1033 -0.6621 -1.0080
  611MOL0     H80627   2.414   9.384   9.907 -1.4167 -1.9643 -1.8038
  611MOL0     H80628   2.369   9.293  10.135 -0.8735  0.1878 -1.0768
  611MOL0     H80629   2.288   9.442  10.184 -2.0441 -0.4757 -0.9410
  611MOL0     H80630   2.573   9.414  10.066  1.5829  1.9980 -0.0881
  611MOL0     H80631   2.521   9.547  10.172  2.5027  1.3281 -4.8441
  611MOL0     H80632   2.506   9.407  10.349  1.2226  3.2166  0.2954
  611MOL0     H80633   2.673   9.412  10.287 -1.0214  2.7419 -1.9662
  611MOL0     H80634   1.919   9.741   9.658  0.3103 -0.1672  0.1776
  611MOL0     H80635   1.795   9.964   9.633  0.7717  2.9610  0.5224
  611MOL0     H80636   1.827  10.417   9.534 -2.6150 -2.0154  1.4366
  611MOL0     H80637   1.791  10.650   9.422  0.1736 -0.0169 -1.7121
  611MOL0     H80638   2.856  11.088   8.345  1.0126 -0.0201  0.9609
  611MOL0     H80639   3.077  11.141   8.302 -2.3428  2.1130 -1.0428
  611MOL0     H80640   3.346  11.264   8.094 -0.2993  1.6424 -0.0614
  611MOL0     H80641   3.546  11.412   8.102 -1.9781 -0.8476 -1.2868
  611MOL0     H80642   3.940  11.262   8.247  0.2077 -1.4712  3.2768
  611MOL0     H80643   3.846  11.323   8.376 -2.4372 -1.6865 -1.5862
  611MOL0     H80644   3.902  11.557   8.349  1.4096  2.4277 -0.6287
  611MOL0     H80645   4.048  11.457   8.344 -2.7317 -2.1250  1.4341
  611MOL0     H80646   3.914  11.586   8.110 -0.9762 -1.0640 -0.4976
  611MOL0     H80647   4.032  11.455   8.100 -1.4361  0.2840 -1.8616
  611MOL0     H80648   4.205  11.586   8.188  0.0725  0.3367 -0.3767
  611MOL0     H80649   4.126  11.697   8.085 -1.7539  1.5754 -0.5147
  611MOL0     H80650   4.068  11.857   8.485 -0.4739 -0.0924 -0.3387
  611MOL0     H80651   3.768  11.106   8.309 -0.9314 -2.9237  1.7241
  611MOL0     H80652   3.570  10.973   8.317 -0.5893 -0.9408 -1.8449
  612MOL0     O80653   4.292   9.995   4.518 -0.1028 -0.1082 -0.4056
  612MOL0     C80654   4.277   9.982   4.400  0.3469  0.4276  0.1490
  612MOL0     O80655   4.303  10.076   4.301  0.7161  0.7734  0.7204
  612MOL0     C80656   4.325  10.206   4.343 -0.9161  0.3856  0.0521
  612MOL0     C80657   4.455  10.261   4.334 -0.2634 -0.4500 -0.5966
  612MOL0     C80658   4.474  10.390   4.373  0.0439  0.5275 -0.6787
  612MOL0     C80659   4.370  10.480   4.396  0.8998  0.0852  0.4471
  612MOL0     O80660   4.410  10.612   4.410  0.6854  0.3421 -0.5673
  612MOL0     C80661   4.329  10.686   4.499  0.3105 -0.6711 -0.6377
  612MOL0     C80662   4.404  10.788   4.582 -1.2338 -0.7687 -0.1612
  612MOL0     C80663   4.465  10.899   4.502  0.0955  0.1062  0.4812
  612MOL0     C80664   4.522  11.003   4.594  0.6564  0.4446  0.0595
  612MOL0     C80665   4.626  11.083   4.515  0.2638 -0.4867 -0.4200
  612MOL0     C80666   4.712  11.166   4.609  0.6797  0.7112 -0.1895
  612MOL0     C80667   4.625  11.284   4.661  0.1188  0.1280  0.2642
  612MOL0     C80668   4.686  11.358   4.778  0.0257 -0.0219  0.2339
  612MOL0     N80669   4.592  11.459   4.835  0.3833 -1.1650 -0.0595
  612MOL0     C80670   4.585  11.460   4.971  0.9501 -0.0402  0.5024
  612MOL0     C80671   4.492  11.553   4.985 -0.4979 -0.2478 -0.2885
  612MOL0     C80672   4.422  11.616   5.103  0.1876  0.0899  0.2741
  612MOL0     C80673   4.305  11.536   5.160  0.3337 -0.4374 -0.6865
  612MOL0     C80674   4.179  11.527   5.072  0.6489  0.2155 -0.6702
  612MOL0     C80675   4.142  11.380   5.048 -0.0101  0.1837  0.7650
  612MOL0     O80676   4.244  11.312   4.966  0.9192  0.1492  0.3243
  612MOL0     C80677   4.217  11.176   4.940  0.0535 -0.5954 -0.4263
  612MOL0     C80678   4.093  11.108   4.972 -0.4737 -0.5606  0.3543
  612MOL0     C80679   4.092  10.971   4.955  0.0211  0.3256 -1.1886
  612MOL0     C80680   4.210  10.905   4.924 -1.5507  0.4765  0.3896
  612MOL0     C80681   4.215  10.756   4.933  0.4146 -0.4729  0.0080
  612MOL0     O80682   4.090  10.698   4.891  0.0702  0.5595 -0.0950
  612MOL0     C80683   4.088  10.557   4.868 -0.3550 -0.6905  0.1024
  612MOL0     C80684   4.110  10.469   4.975 -0.1025  0.3187 -0.3903
  612MOL0     C80685   4.097  10.330   4.959  0.3157  0.2848 -0.1179
  612MOL0     C80686   4.050  10.286   4.837 -0.0002  0.3603 -0.6089
  612MOL0     O80687   4.020  10.151   4.843 -0.2298 -0.4220  0.2822
  612MOL0     C80688   4.081  10.085   4.727  0.4510  0.0520 -0.2978
  612MOL0     C80689   4.048   9.937   4.733 -0.6011  0.1334 -0.2556
  612MOL0     C80690   4.117   9.871   4.847  0.1554 -0.0610 -0.0411
  612MOL0     C80691   4.109   9.714   4.836  0.4778  0.3948  0.5675
  612MOL0     C80692   3.971   9.641   4.819 -0.8127 -0.3322  0.2234
  612MOL0     C80693   3.875   9.665   4.938  1.0224 -0.4916 -1.3814
  612MOL0     C80694   3.924   9.608   5.073 -0.3483 -0.2631  0.8373
  612MOL0     C80695   3.840   9.658   5.188  0.3572  0.3862 -0.1371
  612MOL0    Cl80696   3.666   9.611   5.167  0.2858 -0.0627  0.5637
  612MOL0     C80697   4.062  10.367   4.722  0.3870 -1.2416 -1.3244
  612MOL0     C80698   4.070  10.505   4.738 -0.0235  0.5573  0.2996
  612MOL0     O80699   4.313  10.700   4.980  0.5902 -0.5269  0.5582
  612MOL0     C80700   4.330  10.979   4.881  0.8978  0.6426  0.1815
  612MOL0     C80701   4.327  11.118   4.885  0.2130  0.0167  0.3005
  612MOL0     N80702   4.454  11.605   4.857  0.2197  0.1112 -0.2111
  612MOL0     N80703   4.515  11.549   4.768  0.0897 -0.6806 -0.6579
  612MOL0     C80704   4.245  10.425   4.395  0.0748 -0.1390 -0.4785
  612MOL0     C80705   4.224  10.292   4.381  0.9114  1.2658  1.5649
  612MOL0     C80706   4.268   9.841   4.362  0.3679  0.1685  0.2155
  612MOL0     C80707   4.221   9.816   4.231  0.6404 -0.3662 -0.0203
  612MOL0     C80708   4.214   9.688   4.186 -0.1949  1.0689 -0.2665
  612MOL0     C80709   4.243   9.580   4.267  1.1335  0.2682  0.0458
  612MOL0     O80710   4.259   9.460   4.219 -0.1865  0.0159  0.0494
  612MOL0     C80711   4.376   9.431   4.146 -0.5907 -0.6513  0.0489
  612MOL0     C80712   4.350   9.303   4.067 -1.3377  0.5456 -0.6194
  612MOL0     C80713   4.355   9.185   4.168  0.3302 -0.4646 -0.1888
  612MOL0     C80714   4.504   9.140   4.210 -0.2166 -0.4261 -0.3364
  612MOL0     C80715   4.501   9.016   4.292  0.1977  0.4688  0.6235
  612MOL0     C80716   4.498   8.907   4.353 -0.9146 -0.5175 -0.3511
  612MOL0     C80717   4.277   9.603   4.405  0.2536 -0.3074 -0.3494
  612MOL0     C80718   4.292   9.734   4.457 -1.2271  0.0266  0.8349
  612MOL0     H80719   4.535  10.197   4.296  3.7435  1.8461  3.1357
  612MOL0     H80720   4.575  10.430   4.386 -0.6905  1.9292  1.1810
  612MOL0     H80721   4.272  10.619   4.564 -2.2154  0.2211 -1.7881
  612MOL0     H80722   4.253  10.747   4.449  1.0320 -1.2202 -2.4947
  612MOL0     H80723   4.468  10.730   4.649  0.1817 -0.8974 -1.5799
  612MOL0     H80724   4.339  10.843   4.651  2.8877  1.9978  1.9074
  612MOL0     H80725   4.399  10.950   4.431  1.0269  0.7985  0.0836
  612MOL0     H80726   4.538  10.848   4.438 -1.5235  0.2701 -1.5922
  612MOL0     H80727   4.429  11.051   4.624 -0.6375 -0.4170 -2.3112
  612MOL0     H80728   4.577  10.952   4.674 -0.4624  0.0753  0.6214
  612MOL0     H80729   4.577  11.139   4.435 -0.3514 -2.6212 -1.5990
  612MOL0     H80730   4.688  11.017   4.454  0.3217  0.0839 -0.9852
  612MOL0     H80731   4.795  11.211   4.555  0.1171  1.8119 -0.1582
  612MOL0     H80732   4.753  11.101   4.687  1.8045 -0.9724 -2.0825
  612MOL0     H80733   4.612  11.349   4.574 -0.3801  0.3120  0.4760
  612MOL0     H80734   4.536  11.237   4.703 -0.0048  2.2411  2.6360
  612MOL0     H80735   4.769  11.417   4.739 -1.3511  2.5279  0.9819
  612MOL0     H80736   4.722  11.283   4.849  0.4168 -0.5672 -0.5249
  612MOL0     H80737   4.642  11.400   5.042 -0.6960 -2.6677 -0.2443
  612MOL0     H80738   4.392  11.719   5.078 -0.5312 -0.7639 -2.9188
  612MOL0     H80739   4.500  11.612   5.179 -2.4863  0.8221  3.2738
  612MOL0     H80740   4.287  11.580   5.258  2.1116  0.4418 -0.7086
  612MOL0     H80741   4.348  11.436   5.175  2.8736  0.6230 -0.3030
  612MOL0     H80742   4.095  11.561   5.134 -0.0916 -0.8593 -1.0595
  612MOL0     H80743   4.185  11.571   4.972 -0.7297 -1.6414 -1.6220
  612MOL0     H80744   4.044  11.392   5.001 -0.2323  0.2801  1.2420
  612MOL0     H80745   4.128  11.321   5.139 -2.9977  0.8437  0.8356
  612MOL0     H80746   4.001  11.156   5.003 -0.3755  0.2769 -0.5831
  612MOL0     H80747   4.002  10.912   4.964  0.9792 -1.2926 -1.6825
  612MOL0     H80748   4.140  10.497   5.075 -0.2605 -1.6560  0.2410
  612MOL0     H80749   4.107  10.258   5.040 -2.7690 -0.5331 -0.3442
  612MOL0     H80750   4.190  10.084   4.735  0.3715  2.4188  2.8535
  612MOL0     H80751   4.044  10.129   4.635  3.0508  2.8649 -0.1747
  612MOL0     H80752   4.076   9.886   4.640 -2.8745 -0.9779 -0.4055
  612MOL0     H80753   3.939   9.925   4.737 -0.6779  0.5396 -0.9110
  612MOL0     H80754   4.085   9.911   4.944  0.6699  4.4553 -1.4877
  612MOL0     H80755   4.223   9.892   4.831 -0.2047  1.4705 -0.5200
  612MOL0     H80756   4.183   9.691   4.759  1.3652  0.1073  1.4774
  612MOL0     H80757   4.145   9.663   4.926  1.4114  2.6207  1.5139
  612MOL0     H80758   3.982   9.533   4.811 -1.1778 -0.3798  0.3153
  612MOL0     H80759   3.931   9.683   4.726  3.5606  0.8121 -1.3610
  612MOL0     H80760   3.778   9.617   4.923 -0.4627  0.6405  3.1259
  612MOL0     H80761   3.862   9.772   4.957 -1.1890 -0.7942 -0.9810
  612MOL0     H80762   3.903   9.501   5.065 -1.2265 -0.0179 -0.4973
  612MOL0     H80763   4.029   9.637   5.087 -0.2326 -1.2746  2.1328
  612MOL0     H80764   3.846   9.767   5.179  1.2276  0.4292  0.7585
  612MOL0     H80765   3.868   9.630   5.290 -0.0579 -0.9069 -0.3657
  612MOL0     H80766   4.048  10.327   4.622  1.1655  0.5777 -2.2084
  612MOL0     H80767   4.060  10.575   4.656  3.8710 -0.6711 -1.4423
  612MOL0     H80768   4.415  10.917   4.857  1.6808  2.1318 -1.0903
  612MOL0     H80769   4.411  11.173   4.844  1.3663 -0.8564  1.4145
  612MOL0     H80770   4.155  10.484   4.404 -0.7242 -1.4843  0.8251
  612MOL0     H80771   4.126  10.247   4.393  2.2256 -1.0821  5.4247
  612MOL0     H80772   4.210   9.899   4.162  0.7322  2.0654  2.6935
  612MOL0     H80773   4.190   9.670   4.081 -1.8941  0.9634  0.1040
  612MOL0     H80774   4.459   9.403   4.212  1.7605  2.2706 -1.4038
  612MOL0     H80775   4.400   9.516   4.081  0.0054 -0.9229 -0.0980
  612MOL0     H80776   4.257   9.307   4.009 -0.2637  0.8657 -2.3892
  612MOL0     H80777   4.433   9.293   3.998 -1.1483  1.7230 -0.5907
  612MOL0     H80778   4.298   9.095   4.141 -0.0757 -0.6507  1.1881
  612MOL0     H80779   4.310   9.210   4.265  1.4161 -3.5406  1.2546
  612MOL0     H80780   4.551   9.135   4.111 -0.2200  3.2174 -0.6452
  612MOL0     H80781   4.548   9.221   4.269  3.6432 -2.0423 -0.6716
  612MOL0     H80782   4.495   8.807   4.391  0.2575 -0.8941 -1.2117
  612MOL0     H80783   4.320   9.512   4.445  2.6514  0.1149 -1.7782
  612MOL0     H80784   4.332   9.749   4.556 -0.3455  0.1513  0.4683
  613MOL0     O80785   4.737  11.316   8.892  0.7816  0.0573 -0.3095
  613MOL0     C80786   4.766  11.285   9.005  0.9183  0.0657 -0.1510
  613MOL0     O80787   4.875  11.338   9.080  0.1051 -1.0128  0.6855
  613MOL0     C80788   4.946  11.439   9.022 -0.6725  0.1496 -0.1097
  613MOL0     C80789   4.896  11.552   8.957 -0.2213 -0.2366 -0.2969
  613MOL0     C80790   4.974  11.639   8.880 -0.0750  0.3556  1.4411
  613MOL0     C80791   5.119  11.618   8.873 -0.3919  0.0997 -0.7422
  613MOL0     O80792   5.210  11.713   8.814  0.2732  0.1475 -0.1964
  613MOL0     C80793   5.154  11.805   8.725  0.0254  0.5365 -0.1141
  613MOL0     C80794   5.276  11.889   8.692 -0.3728 -0.0954 -0.8448
  613MOL0     C80795   5.273  11.943   8.548  0.3495  0.5907  1.3323
  613MOL0     C80796   5.370  12.055   8.523 -1.0471  0.1966  0.0071
  613MOL0     C80797   5.308  12.186   8.460 -1.3503  0.0115 -0.8073
  613MOL0     C80798   5.292  12.157   8.322  0.1859  0.6593 -0.1456
  613MOL0     C80799   5.228  12.285   8.248 -0.4713  0.5857  0.4580
  613MOL0     C80800   5.280  12.301   8.109 -0.6933  0.2753  0.0739
  613MOL0     N80801   5.400  12.387   8.106  0.0076 -0.5750 -0.1263
  613MOL0     C80802   5.426  12.509   8.037 -0.1766 -0.2722  0.4662
  613MOL0     C80803   5.556  12.541   8.075  0.6882  0.2808  0.4270
  613MOL0     C80804   5.611  12.678   8.049 -0.5473  0.6584  0.3118
  613MOL0     C80805   5.765  12.661   8.012  0.7662  0.4828 -0.5204
  613MOL0     C80806   5.788  12.608   7.874 -0.1093  0.4439  0.1953
  613MOL0     C80807   5.939  12.617   7.838 -0.3248  0.4583 -0.3605
  613MOL0     O80808   5.953  12.747   7.786 -0.1032 -0.1872  0.1717
  613MOL0     C80809   6.052  12.786   7.703  0.1732 -0.3070  0.2457
  613MOL0     C80810   6.062  12.921   7.662  0.1378  0.0005 -0.2822
  613MOL0     C80811   6.179  12.959   7.597 -1.1434 -0.3829 -0.5073
  613MOL0     C80812   6.295  12.871   7.572  0.5489 -0.5548  0.2922
  613MOL0     C80813   6.414  12.916   7.491 -0.2061 -0.2081 -0.0725
  613MOL0     O80814   6.508  12.825   7.459  0.2342 -0.2782  0.8187
  613MOL0     C80815   6.617  12.864   7.376 -0.2998  0.2176  0.2333
  613MOL0     C80816   6.741  12.835   7.427 -0.4268  0.4489  0.3679
  613MOL0     C80817   6.849  12.877   7.352 -0.7811  0.1576 -0.0751
  613MOL0     C80818   6.853  12.924   7.223 -0.8774  0.4112  0.8356
  613MOL0     O80819   6.975  12.966   7.168  0.2921  0.1671  0.1789
  613MOL0     C80820   6.978  13.000   7.035  0.0923  0.1896  0.6542
  613MOL0     C80821   7.132  13.022   7.004  0.7457  1.3881 -0.2557
  613MOL0     C80822   7.141  13.102   6.885 -0.3282 -0.4419 -0.6259
  613MOL0     C80823   7.077  13.044   6.762  0.0052  0.2103  0.3382
  613MOL0     C80824   7.107  13.131   6.644  0.8916  0.1613  0.3573
  613MOL0     C80825   7.077  13.048   6.517  0.9732  0.7252 -0.6123
  613MOL0     C80826   7.069  13.141   6.389  0.0004  0.6340 -0.2692
  613MOL0     C80827   7.013  13.063   6.269  0.8112  0.1977  1.0015
  613MOL0    Cl80828   7.067  13.113   6.103 -0.1920  0.3821  0.0617
  613MOL0     C80829   6.720  12.941   7.170  0.6838 -0.3583  0.5482
  613MOL0     C80830   6.606  12.903   7.242 -0.7571  1.2713 -0.5698
  613MOL0     O80831   6.418  13.037   7.473 -0.1823  0.0496 -0.1658
  613MOL0     C80832   6.274  12.739   7.602 -0.3878  0.7835  0.7300
  613MOL0     C80833   6.160  12.699   7.669 -0.1646  0.3707  0.9475
  613MOL0     N80834   5.619  12.430   8.137  1.1273 -1.0453  0.1787
  613MOL0     N80835   5.516  12.353   8.164  0.0245 -0.2709  0.0010
  613MOL0     C80836   5.171  11.514   8.947 -0.4433  0.2736 -0.6090
  613MOL0     C80837   5.091  11.427   9.025  0.7553 -0.4269  0.9772
  613MOL0     C80838   4.700  11.158   9.061  0.3302 -1.0524 -0.0970
  613MOL0     C80839   4.729  11.090   9.184 -0.0438 -0.7461 -1.3776
  613MOL0     C80840   4.675  10.967   9.227  0.6006 -0.0631  1.3093
  613MOL0     C80841   4.572  10.914   9.140  0.9016  0.0763  1.1082
  613MOL0     O80842   4.503  10.803   9.170  0.4801  0.0659  0.1342
  613MOL0     C80843   4.571  10.674   9.164 -0.8047 -0.2794 -0.5948
  613MOL0     C80844   4.607  10.640   9.024 -0.0248 -0.4945 -0.7290
  613MOL0     C80845   4.475  10.601   8.958  0.1507  0.6297 -0.2156
  613MOL0     C80846   4.491  10.569   8.809 -0.1225  0.0397 -0.2491
  613MOL0     C80847   4.422  10.438   8.764 -0.3198  0.5942 -0.1287
  613MOL0     C80848   4.366  10.338   8.719 -0.5470  1.0369 -0.3825
  613MOL0     C80849   4.534  10.981   9.024 -1.2417 -1.2044  0.6184
  613MOL0     C80850   4.603  11.099   8.988 -0.6083 -0.8883  0.6618
  613MOL0     H80851   4.789  11.570   8.959 -1.1761 -4.4341 -2.2431
  613MOL0     H80852   4.926  11.730   8.846 -0.8178 -0.5387 -0.0069
  613MOL0     H80853   5.084  11.876   8.769 -2.2439 -1.3931 -0.4459
  613MOL0     H80854   5.117  11.765   8.630  3.2341 -2.4686 -0.3323
  613MOL0     H80855   5.375  11.843   8.707 -0.4720  0.5382  2.6416
  613MOL0     H80856   5.267  11.972   8.763  0.6575 -1.2261  0.6754
  613MOL0     H80857   5.170  11.980   8.540 -1.6597 -4.4232 -0.5267
  613MOL0     H80858   5.285  11.872   8.465  1.3867  2.6953 -0.4338
  613MOL0     H80859   5.423  12.075   8.617  0.8739 -1.9871 -0.5276
  613MOL0     H80860   5.453  12.017   8.463  0.1409  1.8918  0.5164
  613MOL0     H80861   5.384  12.261   8.483  0.4634 -2.1882  0.7797
  613MOL0     H80862   5.214  12.211   8.510  0.3074 -0.1119  2.6603
  613MOL0     H80863   5.223  12.074   8.300  3.4676 -1.9108 -1.5524
  613MOL0     H80864   5.387  12.133   8.275  0.4614  0.2597  0.6110
  613MOL0     H80865   5.119  12.282   8.248 -0.4626 -0.8888 -1.1268
  613MOL0     H80866   5.273  12.373   8.297  0.2422  0.6429 -0.2829
  613MOL0     H80867   5.210  12.349   8.039 -0.9949  3.2257  2.2105
  613MOL0     H80868   5.318  12.208   8.066 -0.6402 -0.4270  1.5727
  613MOL0     H80869   5.350  12.573   7.993 -2.1647 -2.9403 -0.2639
  613MOL0     H80870   5.605  12.735   8.142  2.5996  2.5530 -0.4897
  613MOL0     H80871   5.560  12.715   7.959  1.2924 -3.2428 -2.6579
  613MOL0     H80872   5.814  12.604   8.091  4.2712  0.7351 -2.2886
  613MOL0     H80873   5.814  12.759   8.006  1.9758 -0.1543 -3.7692
  613MOL0     H80874   5.749  12.506   7.877 -2.5440  1.3241  2.0664
  613MOL0     H80875   5.720  12.654   7.802  1.8166  1.3433 -1.1490
  613MOL0     H80876   5.962  12.547   7.758 -0.7306  0.0902 -0.1605
  613MOL0     H80877   6.008  12.622   7.923  1.8254 -0.4136 -1.9589
  613MOL0     H80878   5.981  12.989   7.683 -1.6099 -1.6500 -1.4295
  613MOL0     H80879   6.190  13.058   7.554  3.1349 -0.7152 -0.5758
  613MOL0     H80880   6.749  12.789   7.525 -1.7983 -0.8351 -0.0887
  613MOL0     H80881   6.945  12.866   7.402 -1.9434  1.0553  2.5467
  613MOL0     H80882   6.919  13.088   7.009  0.9894  1.2759  2.1921
  613MOL0     H80883   6.953  12.907   6.983  0.3161  0.7043 -0.3941
  613MOL0     H80884   7.187  12.928   6.996 -2.2253 -0.6758  1.6623
  613MOL0     H80885   7.179  13.081   7.083 -3.0101  2.8843  1.1319
  613MOL0     H80886   7.244  13.117   6.853  0.5616 -2.0041  1.3307
  613MOL0     H80887   7.087  13.195   6.907  2.1969  0.8008  0.8142
  613MOL0     H80888   7.125  12.946   6.753 -0.4442  0.1368 -1.6980
  613MOL0     H80889   6.968  13.037   6.767 -0.3990 -4.0596 -5.1604
  613MOL0     H80890   7.208  13.173   6.639  0.8793  0.1463 -4.4684
  613MOL0     H80891   7.033  13.211   6.646 -2.0413 -2.1265 -3.4636
  613MOL0     H80892   6.981  12.996   6.527  1.6180 -0.7051 -1.4680
  613MOL0     H80893   7.159  12.975   6.511  1.4010  1.2899 -2.1133
  613MOL0     H80894   7.001  13.224   6.410 -0.1513  0.6690 -0.8969
  613MOL0     H80895   7.170  13.171   6.363 -0.7246  1.6691 -2.0328
  613MOL0     H80896   6.907  13.039   6.270  0.9714 -0.8233 -0.9445
  613MOL0     H80897   7.062  12.965   6.270  1.3551  0.4567  2.5113
  613MOL0     H80898   6.715  12.988   7.072  3.3143  0.8966  0.9203
  613MOL0     H80899   6.506  12.912   7.201 -0.7737  0.3532 -0.7361
  613MOL0     H80900   6.359  12.673   7.589 -1.9054 -0.7619 -2.1990
  613MOL0     H80901   6.154  12.597   7.706 -1.7501 -0.4711 -1.4130
  613MOL0     H80902   5.279  11.504   8.948 -0.2001  2.4863 -0.9594
  613MOL0     H80903   5.140  11.352   9.086  2.7318 -0.0295 -0.0419
  613MOL0     H80904   4.806  11.134   9.246  0.0548 -1.5093 -0.9480
  613MOL0     H80905   4.703  10.920   9.320 -0.9627 -3.0509  0.4057
  613MOL0     H80906   4.509  10.596   9.208  0.9790 -1.8416 -0.7191
  613MOL0     H80907   4.663  10.685   9.222 -0.6435 -0.7881 -0.7448
  613MOL0     H80908   4.648  10.726   8.971 -0.7290 -1.1902 -2.4682
  613MOL0     H80909   4.682  10.560   9.027 -1.7512 -2.1715  1.5297
  613MOL0     H80910   4.398  10.679   8.959 -0.0361  0.4919 -1.6139
  613MOL0     H80911   4.437  10.516   9.017  1.1332  1.3129  1.4759
  613MOL0     H80912   4.434  10.648   8.757  0.1349  1.6343  1.7667
  613MOL0     H80913   4.596  10.554   8.784 -0.6421 -0.4636 -2.3520
  613MOL0     H80914   4.311  10.258   8.674  0.8113 -0.9138  1.2850
  613MOL0     H80915   4.455  10.938   8.963 -2.6481 -0.6776  1.9739
  613MOL0     H80916   4.562  11.152   8.902 -2.8800 -2.2313  0.8378
  614MOL0     O80917   5.596  11.455   7.640 -0.6473 -0.0658 -0.7641
  614MOL0     C80918   5.619  11.474   7.761 -0.2048 -0.3488 -1.0246
  614MOL0     O80919   5.714  11.561   7.822  0.7355  0.4148  0.0278
  614MOL0     C80920   5.807  11.617   7.735 -0.2055  0.5599 -0.1777
  614MOL0     C80921   5.788  11.750   7.687 -0.0490  0.0903  0.3724
  614MOL0     C80922   5.886  11.803   7.598 -0.1387  0.0510  1.1005
  614MOL0     C80923   6.007  11.735   7.558  0.8468 -0.0396 -0.8655
  614MOL0     O80924   6.083  11.798   7.456 -0.2264  0.2626 -0.0354
  614MOL0     C80925   6.166  11.718   7.380 -0.0079  1.0372  0.1367
  614MOL0     C80926   6.191  11.775   7.239  0.4097  0.2019 -0.1827
  614MOL0     C80927   6.073  11.762   7.154  1.3453 -0.2693  0.0883
  614MOL0     C80928   6.076  11.863   7.043  0.2308  0.6017  0.3663
  614MOL0     C80929   5.957  11.856   6.940 -0.1214 -0.3737  0.4842
  614MOL0     C80930   6.007  11.769   6.824 -0.2164 -0.0003  0.1471
  614MOL0     C80931   5.904  11.741   6.709 -0.8174 -0.4543 -0.5693
  614MOL0     C80932   5.968  11.667   6.589 -0.3512 -0.2360 -0.0165
  614MOL0     N80933   5.866  11.621   6.488  0.0514  0.5384  1.0009
  614MOL0     C80934   5.733  11.594   6.517  0.3674 -0.3633  0.6739
  614MOL0     C80935   5.695  11.521   6.406  0.4056  0.2794  0.0903
  614MOL0     C80936   5.557  11.470   6.395 -0.6964 -0.0937 -0.0402
  614MOL0     C80937   5.470  11.533   6.288  0.2154 -0.0544  0.1969
  614MOL0     C80938   5.434  11.682   6.322  0.0582  0.8827  0.0492
  614MOL0     C80939   5.329  11.698   6.420 -0.0796 -0.3161  0.1973
  614MOL0     O80940   5.207  11.657   6.352 -0.2968  0.0888 -0.3301
  614MOL0     C80941   5.118  11.618   6.440 -0.1929  0.2620 -0.4457
  614MOL0     C80942   5.001  11.701   6.451 -0.2585  0.2218 -0.0447
  614MOL0     C80943   4.897  11.663   6.540 -0.5883 -0.1035  0.2646
  614MOL0     C80944   4.894  11.532   6.595  0.0274 -0.2535  1.3453
  614MOL0     C80945   4.767  11.482   6.653  0.3992 -0.0856 -0.3508
  614MOL0     O80946   4.797  11.393   6.740 -0.3215  0.1788  0.5808
  614MOL0     C80947   4.690  11.330   6.803  0.7266  1.3824 -0.2870
  614MOL0     C80948   4.691  11.193   6.802  0.3232  1.1487  0.3745
  614MOL0     C80949   4.590  11.108   6.865 -0.3677 -0.2457 -0.1773
  614MOL0     C80950   4.494  11.168   6.937  0.2900 -0.8811 -0.6926
  614MOL0     O80951   4.400  11.088   6.995  0.4005  0.4763  0.5347
  614MOL0     C80952   4.263  11.138   7.013  0.6321 -0.7309  0.2915
  614MOL0     C80953   4.186  11.024   7.084  0.0518  0.2297 -0.0623
  614MOL0     C80954   4.232  11.002   7.228  0.1855 -0.4979 -0.1308
  614MOL0     C80955   4.108  10.955   7.304  0.3438  1.3597 -0.8589
  614MOL0     C80956   4.144  10.899   7.442  0.2064  0.0508 -0.0115
  614MOL0     C80957   4.024  10.863   7.536 -0.1171 -0.1262  0.0075
  614MOL0     C80958   4.058  10.792   7.669  0.1032  0.1375 -0.7102
  614MOL0     C80959   4.143  10.890   7.761 -0.4028  0.5404  0.4082
  614MOL0    Cl80960   4.319  10.883   7.724  0.0803  0.0019 -0.4414
  614MOL0     C80961   4.489  11.307   6.951 -0.8994  0.9446 -0.1981
  614MOL0     C80962   4.587  11.387   6.879  0.4590 -0.2639 -0.0235
  614MOL0     O80963   4.655  11.498   6.614  0.5053 -1.1913 -0.3785
  614MOL0     C80964   5.005  11.442   6.572  0.6689  0.4357  1.0792
  614MOL0     C80965   5.115  11.489   6.494  0.1907 -0.0205  0.4643
  614MOL0     N80966   5.805  11.493   6.323  0.6280 -0.2112 -0.5598
  614MOL0     N80967   5.901  11.555   6.376 -0.2912  0.4669  0.0301
  614MOL0     C80968   6.023  11.608   7.612  0.2394  0.0211 -0.4785
  614MOL0     C80969   5.927  11.552   7.697  0.3784 -0.7814 -0.3287
  614MOL0     C80970   5.551  11.392   7.851  0.2442  0.2446 -0.4098
  614MOL0     C80971   5.615  11.323   7.953  0.3277  1.0516 -0.5684
  614MOL0     C80972   5.542  11.247   8.043  0.7166  1.0321 -0.0445
  614MOL0     C80973   5.399  11.230   8.033  0.2702 -0.6569  0.2263
  614MOL0     O80974   5.309  11.175   8.119 -0.1282  0.6210  0.4464
  614MOL0     C80975   5.359  11.132   8.242  0.4483 -1.7816 -0.3733
  614MOL0     C80976   5.233  11.131   8.328 -0.7108  0.0878  0.6644
  614MOL0     C80977   5.132  11.030   8.277 -0.7820  0.5814 -0.2318
  614MOL0     C80978   5.162  10.887   8.320  0.4781 -0.0042  1.6927
  614MOL0     C80979   5.238  10.805   8.221 -0.2741 -0.4977 -0.5435
  614MOL0     C80980   5.306  10.763   8.134 -0.1331  0.1525  1.0836
  614MOL0     C80981   5.336  11.297   7.929  0.6978  0.0851 -0.0321
  614MOL0     C80982   5.410  11.374   7.840  0.0327 -0.4897  0.3500
  614MOL0     H80983   5.699  11.806   7.714 -1.8465 -0.0168 -4.3702
  614MOL0     H80984   5.869  11.900   7.553 -0.5333 -0.7342 -0.5413
  614MOL0     H80985   6.123  11.619   7.360 -0.9060  1.4496 -0.0567
  614MOL0     H80986   6.251  11.708   7.447  0.4413  1.0914 -0.4232
  614MOL0     H80987   6.274  11.721   7.191 -2.6865 -3.8820 -1.5390
  614MOL0     H80988   6.210  11.882   7.251  1.3867 -0.1500  1.8136
  614MOL0     H80989   5.990  11.792   7.218  2.1885  0.7047  0.7504
  614MOL0     H80990   6.048  11.668   7.104 -1.0953 -0.1419  0.9409
  614MOL0     H80991   6.086  11.968   7.074  1.9039  1.8444 -3.7057
  614MOL0     H80992   6.172  11.828   7.005  0.7105 -0.6300  2.5579
  614MOL0     H80993   5.934  11.961   6.920 -3.9411 -1.1719 -0.1168
  614MOL0     H80994   5.869  11.810   6.986 -1.3550  1.6039  0.2398
  614MOL0     H80995   6.019  11.671   6.871  0.6822 -0.0441 -0.1682
  614MOL0     H80996   6.093  11.822   6.784 -2.8916  4.4332 -0.4392
  614MOL0     H80997   5.825  11.675   6.747 -1.5496  1.0689  0.6358
  614MOL0     H80998   5.861  11.831   6.664  2.9402 -0.9323 -6.1786
  614MOL0     H80999   6.038  11.586   6.609  1.7112  1.6374  0.6693
  614MOL0     H81000   6.033  11.742   6.544 -2.8796  2.5765  0.6162
  614MOL0     H81001   5.674  11.616   6.605 -1.0865 -4.6367  1.0342
  614MOL0     H81002   5.499  11.463   6.488  0.5897 -0.3872  0.7608
  614MOL0     H81003   5.582  11.370   6.358  1.0998  0.2672  0.1160
  614MOL0     H81004   5.378  11.473   6.288  0.1011  0.1152  0.9618
  614MOL0     H81005   5.520  11.532   6.191  0.8389 -1.0613  0.5127
  614MOL0     H81006   5.521  11.744   6.350 -0.4107  3.3448 -3.2595
  614MOL0     H81007   5.405  11.728   6.227 -2.1634 -0.9644 -0.2458
  614MOL0     H81008   5.321  11.806   6.434  1.7883 -0.4091  2.6841
  614MOL0     H81009   5.346  11.644   6.514 -0.5677  1.8964  1.6128
  614MOL0     H81010   5.007  11.792   6.392 -0.1216  0.3636  0.1889
  614MOL0     H81011   4.814  11.732   6.552 -1.7113 -1.3168 -0.1755
  614MOL0     H81012   4.761  11.144   6.735 -0.6129  2.5567 -1.7298
  614MOL0     H81013   4.600  11.000   6.859 -1.2205 -0.2518 -2.5804
  614MOL0     H81014   4.230  11.163   6.912  1.4436  2.0248  0.6504
  614MOL0     H81015   4.258  11.219   7.086 -2.9440 -2.0247  1.7085
  614MOL0     H81016   4.208  10.927   7.039 -2.0554 -0.0735 -0.5387
  614MOL0     H81017   4.080  11.048   7.086 -0.0206  0.7634 -3.7475
  614MOL0     H81018   4.267  11.098   7.268  3.0399 -1.5610  0.1773
  614MOL0     H81019   4.317  10.933   7.232  0.6184  0.0752  1.9808
  614MOL0     H81020   4.027  11.026   7.319  1.6832  2.6593  0.6317
  614MOL0     H81021   4.060  10.874   7.249  0.6329 -1.1511  2.2769
  614MOL0     H81022   4.210  10.971   7.491  0.5429 -1.0509  1.1944
  614MOL0     H81023   4.195  10.805   7.419 -3.1602 -2.1386  0.7542
  614MOL0     H81024   3.977  10.781   7.481  1.4913 -0.4583 -0.9548
  614MOL0     H81025   3.955  10.943   7.565 -1.2536 -0.9087 -0.4788
  614MOL0     H81026   3.959  10.770   7.710  0.0678 -1.6477 -1.6327
  614MOL0     H81027   4.108  10.697   7.645  0.9375 -0.1280  1.7316
  614MOL0     H81028   4.126  10.863   7.866 -1.9708 -0.6426 -0.1140
  614MOL0     H81029   4.115  10.995   7.760  3.1115  1.6414 -2.0782
  614MOL0     H81030   4.416  11.361   7.011 -0.0794  1.7878  0.0702
  614MOL0     H81031   4.593  11.494   6.899 -2.0204 -0.1214  0.2439
  614MOL0     H81032   5.023  11.340   6.605 -0.6958  1.0884  4.2145
  614MOL0     H81033   5.199  11.422   6.476 -0.3919 -0.5311 -0.4180
  614MOL0     H81034   6.115  11.553   7.597  1.2885  0.4726  3.1959
  614MOL0     H81035   5.945  11.452   7.734 -1.7363  0.0154  3.3717
  614MOL0     H81036   5.722  11.340   7.961  0.2048  0.9464  2.0840
  614MOL0     H81037   5.598  11.207   8.127  2.5497 -1.3480 -2.2288
  614MOL0     H81038   5.432  11.202   8.283  0.9164 -1.2776 -1.9948
  614MOL0     H81039   5.393  11.029   8.233 -0.5176 -2.1244 -0.1829
  614MOL0     H81040   5.258  11.109   8.432 -0.6573 -1.9943  0.2484
  614MOL0     H81041   5.186  11.230   8.323  1.0559  0.8934 -1.0697
  614MOL0     H81042   5.129  11.039   8.168 -1.8565  3.2373 -0.0772
  614MOL0     H81043   5.029  11.048   8.310 -1.8630 -3.2603 -1.1076
  614MOL0     H81044   5.227  10.888   8.408  0.1838 -2.9842  2.0656
  614MOL0     H81045   5.070  10.832   8.342 -1.1189  2.1166  0.7057
  614MOL0     H81046   5.367  10.729   8.052 -3.5637 -0.0664 -1.6032
  614MOL0     H81047   5.228  11.303   7.928  0.7913  2.1530 -1.0830
  614MOL0     H81048   5.357  11.440   7.772 -1.9249  1.1673  3.2597
  615MOL0     O81049   9.325   1.563   1.633 -0.9989 -0.7559 -0.5750
  615MOL0     C81050   9.226   1.520   1.580  0.4826  0.1441  0.1092
  615MOL0     O81051   9.188   1.539   1.442  0.8139  0.4817  0.5650
  615MOL0     C81052   9.278   1.602   1.361  0.5243 -0.3401  0.4459
  615MOL0     C81053   9.254   1.724   1.310  0.2573 -0.0822 -1.2370
  615MOL0     C81054   9.341   1.796   1.219 -0.9429  0.1939  0.7760
  615MOL0     C81055   9.464   1.731   1.186 -0.1230  0.9799 -0.1213
  615MOL0     O81056   9.566   1.767   1.101  0.3417  0.1834 -0.8132
  615MOL0     C81057   9.542   1.859   0.990 -1.1120 -0.2758 -0.0142
  615MOL0     C81058   9.554   2.007   1.033 -0.6476 -0.9662  0.5814
  615MOL0     C81059   9.701   2.047   1.063 -0.3805  0.6803 -0.1460
  615MOL0     C81060   9.702   2.183   1.126  0.1579 -0.7763 -0.3921
  615MOL0     C81061   9.858   2.224   1.138  0.5153 -0.7483  0.2792
  615MOL0     C81062   9.857   2.365   1.212  1.1903  0.1168 -0.1255
  615MOL0     C81063   9.998   2.434   1.213 -0.1238 -0.0444 -0.5707
  615MOL0     C81064  10.093   2.361   1.311  0.5841  0.7262  0.0574
  615MOL0     N81065  10.223   2.415   1.338  0.4500 -0.4222  0.3789
  615MOL0     C81066  10.256   2.542   1.383  0.1730  0.3948 -0.1991
  615MOL0     C81067  10.389   2.533   1.416  1.3142  0.5797  0.1130
  615MOL0     C81068  10.474   2.644   1.457 -1.1904  0.4008 -0.4850
  615MOL0     C81069  10.540   2.626   1.594  0.0831  0.9922 -0.3740
  615MOL0     C81070  10.647   2.725   1.628  0.8809 -1.6702 -1.5734
  615MOL0     C81071  10.779   2.703   1.564  0.2516  0.9748  0.0554
  615MOL0     O81072  10.872   2.808   1.567 -0.0832  1.0969 -0.0083
  615MOL0     C81073  11.005   2.795   1.528  0.4128  0.7876  0.0938
  615MOL0     C81074  11.056   2.683   1.462 -1.0616  0.3744 -0.0873
  615MOL0     C81075  11.188   2.679   1.441 -0.6114  0.1429  0.1527
  615MOL0     C81076  11.279   2.789   1.459 -0.5828 -0.3706 -0.2807
  615MOL0     C81077  11.427   2.783   1.442 -0.1108 -0.5140  0.0909
  615MOL0     O81078  11.492   2.905   1.417  0.4444 -1.0667 -0.4569
  615MOL0     C81079  11.627   2.891   1.434 -0.1110 -0.1256  0.5587
  615MOL0     C81080  11.710   2.923   1.330 -0.2507 -0.7110 -0.5190
  615MOL0     C81081  11.851   2.929   1.344 -0.5598 -0.2584 -0.7991
  615MOL0     C81082  11.907   2.887   1.472 -0.2460 -0.9880  1.3332
  615MOL0     O81083  12.045   2.887   1.487 -0.0864 -0.3443  0.3533
  615MOL0     C81084  12.127   2.999   1.444  0.1255 -0.7703 -0.1949
  615MOL0     C81085  12.275   2.977   1.470  0.4413  0.3669 -0.2026
  615MOL0     C81086  12.311   2.997   1.623  0.9476  0.2315 -0.6498
  615MOL0     C81087  12.442   2.923   1.660  0.2618 -0.7472  0.5867
  615MOL0     C81088  12.469   2.938   1.804 -0.1257  0.1734 -0.2767
  615MOL0     C81089  12.568   2.836   1.858 -1.0808  0.1785 -0.3490
  615MOL0     C81090  12.512   2.704   1.912  0.9118  0.2159  1.0975
  615MOL0     C81091  12.403   2.715   2.016  0.1235 -0.3140 -0.9995
  615MOL0    Cl81092  12.356   2.568   2.107  0.0098 -0.0175 -0.5252
  615MOL0     C81093  11.822   2.830   1.568 -0.3285  0.2012  0.7870
  615MOL0     C81094  11.685   2.838   1.551  0.7823 -0.5284 -0.2328
  615MOL0     O81095  11.484   2.669   1.461  0.2450  0.0654 -0.3964
  615MOL0     C81096  11.224   2.905   1.510  0.7508 -0.7299 -0.5930
  615MOL0     C81097  11.087   2.903   1.552  0.2305  1.1242  1.1137
  615MOL0     N81098  10.430   2.399   1.394  0.5020  0.7680  0.1465
  615MOL0     N81099  10.334   2.327   1.346 -0.0939  1.3267 -0.4035
  615MOL0     C81100   9.485   1.603   1.241  0.5568 -0.1178 -0.6995
  615MOL0     C81101   9.389   1.542   1.326  0.5559  0.5320  0.4977
  615MOL0     C81102   9.111   1.479   1.673  0.0327  0.4397 -0.2312
  615MOL0     C81103   9.102   1.520   1.801 -0.4554 -0.0631  0.1718
  615MOL0     C81104   8.983   1.479   1.872  1.2371 -0.4481 -0.7686
  615MOL0     C81105   8.880   1.400   1.814 -0.3728  0.1795 -0.2365
  615MOL0     O81106   8.769   1.370   1.889  0.2145 -0.8076  0.2166
  615MOL0     C81107   8.783   1.312   2.016  0.2610  0.6819 -0.5085
  615MOL0     C81108   8.728   1.167   2.024  0.8893  0.2596 -0.4490
  615MOL0     C81109   8.774   1.068   1.909 -0.5815  0.0308  0.2775
  615MOL0     C81110   8.770   0.922   1.945  1.8893 -0.3438 -0.0127
  615MOL0     C81111   8.830   0.827   1.858  0.3679 -0.0963  0.2489
  615MOL0     C81112   8.890   0.749   1.784  0.4433 -0.4047 -0.0380
  615MOL0     C81113   8.900   1.359   1.682 -0.3379  1.5338  0.4787
  615MOL0     C81114   9.007   1.410   1.608  1.0767  0.6094  0.2367
  615MOL0     H81115   9.163   1.772   1.344  1.7868  1.4780  0.9108
  615MOL0     H81116   9.323   1.887   1.164  1.4404 -0.4205 -1.2242
  615MOL0     H81117   9.439   1.841   0.956 -1.0398  1.8690 -1.5008
  615MOL0     H81118   9.611   1.840   0.908  0.0847 -0.9340  1.1088
  615MOL0     H81119   9.488   2.013   1.120 -1.0041  1.1340  0.2210
  615MOL0     H81120   9.519   2.080   0.959 -0.3184 -2.2169 -0.8362
  615MOL0     H81121   9.758   2.043   0.970 -0.6454  2.4527 -0.4050
  615MOL0     H81122   9.740   1.970   1.131 -1.8544 -1.5583 -1.6775
  615MOL0     H81123   9.646   2.251   1.061  2.1589  2.1999  0.8081
  615MOL0     H81124   9.668   2.173   1.229  2.2790 -1.8271  0.2686
  615MOL0     H81125   9.899   2.231   1.037 -0.3360 -2.5361 -0.2345
  615MOL0     H81126   9.918   2.149   1.189  2.1652 -2.3288 -3.6255
  615MOL0     H81127   9.813   2.348   1.311 -1.3416  0.0193 -1.1810
  615MOL0     H81128   9.815   2.448   1.153  3.5440  1.8161  0.4620
  615MOL0     H81129  10.044   2.442   1.114 -3.3470  0.1644 -2.1626
  615MOL0     H81130   9.966   2.535   1.242 -0.8306 -0.2726 -0.5472
  615MOL0     H81131  10.109   2.258   1.279  2.0138  1.4205 -1.6490
  615MOL0     H81132  10.038   2.350   1.405 -1.3305  1.9031 -0.8501
  615MOL0     H81133  10.180   2.620   1.389 -0.8849 -0.4065 -1.9948
  615MOL0     H81134  10.426   2.743   1.451  0.5003  1.1903 -2.1908
  615MOL0     H81135  10.555   2.640   1.384  2.4639  0.8157  3.2053
  615MOL0     H81136  10.585   2.527   1.602 -3.8031 -0.8634  1.8463
  615MOL0     H81137  10.455   2.620   1.664 -1.7486 -2.8985 -2.6053
  615MOL0     H81138  10.601   2.823   1.612  0.5810 -1.3179  0.9181
  615MOL0     H81139  10.660   2.713   1.736  1.5214 -0.1127 -1.4569
  615MOL0     H81140  10.769   2.667   1.461 -2.5780  1.8293 -0.0321
  615MOL0     H81141  10.824   2.617   1.615 -0.6953  0.0759 -0.5987
  615MOL0     H81142  11.001   2.601   1.417  3.6975 -1.8938 -2.5448
  615MOL0     H81143  11.227   2.581   1.415 -1.2670  0.8691 -4.3824
  615MOL0     H81144  11.675   2.977   1.242  0.5945  2.3235  0.8634
  615MOL0     H81145  11.919   2.950   1.261 -0.4854 -2.6314 -1.4250
  615MOL0     H81146  12.088   3.089   1.491 -0.7825  0.1480 -2.5506
  615MOL0     H81147  12.122   3.003   1.335  1.2233  0.7997 -0.2152
  615MOL0     H81148  12.343   3.038   1.409 -1.0625 -0.2799 -2.6697
  615MOL0     H81149  12.295   2.873   1.442  0.5381  0.5884 -0.9676
  615MOL0     H81150  12.232   2.959   1.689  0.6738  4.9334  2.1657
  615MOL0     H81151  12.320   3.101   1.654  0.5984 -0.5063  2.2957
  615MOL0     H81152  12.423   2.821   1.627  1.4031 -0.1546 -2.2298
  615MOL0     H81153  12.517   2.964   1.591 -2.5712  2.2508 -1.0374
  615MOL0     H81154  12.378   2.930   1.865  0.2569 -0.1931  0.2514
  615MOL0     H81155  12.508   3.039   1.816  0.1288  0.2662 -1.6745
  615MOL0     H81156  12.621   2.890   1.936 -1.1731 -1.4213  0.8778
  615MOL0     H81157  12.641   2.827   1.777 -0.6112  0.2456  0.0614
  615MOL0     H81158  12.479   2.644   1.827 -0.6743  1.2370  0.9503
  615MOL0     H81159  12.592   2.641   1.950  2.3791  1.3383 -0.0428
  615MOL0     H81160  12.308   2.748   1.972  0.2383  0.7887 -0.4541
  615MOL0     H81161  12.437   2.775   2.101 -1.1134 -1.2803  0.2201
  615MOL0     H81162  11.865   2.782   1.654  0.6482 -1.6630 -0.6746
  615MOL0     H81163  11.616   2.801   1.626  0.6415 -0.6707 -0.4313
  615MOL0     H81164  11.286   2.990   1.539 -0.4933 -0.8699  3.0313
  615MOL0     H81165  11.038   2.987   1.601 -0.3700 -0.2695  3.0461
  615MOL0     H81166   9.577   1.550   1.221  1.2197 -1.8366  4.9838
  615MOL0     H81167   9.415   1.448   1.373 -3.0539 -0.6702  0.3836
  615MOL0     H81168   9.183   1.583   1.834 -1.9469  2.7877 -1.2271
  615MOL0     H81169   8.976   1.509   1.976 -1.6465 -1.7202 -0.4923
  615MOL0     H81170   8.746   1.379   2.094  0.9509 -2.1223  2.5173
  615MOL0     H81171   8.889   1.301   2.042 -0.0782 -3.7599 -0.2639
  615MOL0     H81172   8.760   1.130   2.122  1.4695  0.9825 -0.3532
  615MOL0     H81173   8.620   1.173   2.013  0.9892  0.3216 -1.5686
  615MOL0     H81174   8.866   1.105   1.863 -1.2643  0.0797 -1.0623
  615MOL0     H81175   8.701   1.068   1.828  1.5861  1.1587 -1.7909
  615MOL0     H81176   8.809   0.912   2.047 -3.2783 -0.8687  2.1741
  615MOL0     H81177   8.666   0.890   1.944  0.7241  2.9197  1.7673
  615MOL0     H81178   8.939   0.667   1.736  0.0269 -0.4127 -0.4584
  615MOL0     H81179   8.833   1.283   1.642  0.1403  0.5581  1.4682
  615MOL0     H81180   9.007   1.380   1.504 -2.3455 -0.3390  0.4127
  616MOL0     O81181  10.690   6.969   2.981 -0.1679 -0.3343 -0.5637
  616MOL0     C81182  10.657   6.942   3.099  0.0196  0.0885 -0.3716
  616MOL0     O81183  10.537   6.898   3.137  0.4348 -0.3976  0.2080
  616MOL0     C81184  10.443   6.853   3.049 -0.4975 -0.7788 -0.4841
  616MOL0     C81185  10.380   6.722   3.068 -0.0437 -0.3963  0.0183
  616MOL0     C81186  10.280   6.673   2.983 -0.4176  0.3187  0.2570
  616MOL0     C81187  10.249   6.742   2.869 -0.5467 -0.0403  0.5216
  616MOL0     O81188  10.145   6.698   2.786 -0.1292 -0.1338 -0.0747
  616MOL0     C81189  10.104   6.767   2.664 -1.0643 -0.0463 -0.1845
  616MOL0     C81190   9.996   6.871   2.699 -0.5819  0.4965  0.3795
  616MOL0     C81191   9.999   6.998   2.615  0.2323  0.0073  0.4658
  616MOL0     C81192  10.117   7.084   2.622  0.0712 -0.6619 -0.0385
  616MOL0     C81193  10.075   7.231   2.598 -0.3267 -0.8079  0.8607
  616MOL0     C81194  10.197   7.328   2.588 -0.3917 -0.1710  0.7911
  616MOL0     C81195  10.146   7.473   2.593 -0.2265 -1.6958 -0.3525
  616MOL0     C81196  10.238   7.588   2.547  0.3560 -0.1267  0.4864
  616MOL0     N81197  10.177   7.721   2.544 -0.3545  0.9868 -0.4353
  616MOL0     C81198  10.150   7.791   2.428 -0.4248  0.0636  0.1364
  616MOL0     C81199  10.125   7.916   2.463  0.4623 -0.0626 -0.0323
  616MOL0     C81200  10.066   8.010   2.366 -0.6599 -0.8282 -0.6639
  616MOL0     C81201   9.919   8.004   2.380  0.2822  0.0402  0.2272
  616MOL0     C81202   9.852   8.080   2.267 -0.9102 -0.1071 -0.4029
  616MOL0     C81203   9.703   8.070   2.272 -0.0443  0.2020  0.0439
  616MOL0     O81204   9.662   7.939   2.236 -0.0907 -0.2087  0.2482
  616MOL0     C81205   9.532   7.915   2.188 -0.0976  0.3216 -0.7831
  616MOL0     C81206   9.418   7.995   2.212  1.0194 -0.3751 -0.8806
  616MOL0     C81207   9.290   7.961   2.157 -0.0512  0.3140 -0.6259
  616MOL0     C81208   9.281   7.843   2.079  0.5766  0.6631 -0.0851
  616MOL0     C81209   9.150   7.799   2.044 -0.2798  0.4390 -0.0111
  616MOL0     O81210   9.050   7.894   2.021 -0.9104  0.2521  0.7337
  616MOL0     C81211   8.920   7.870   1.984 -0.1848  0.4626  0.1207
  616MOL0     C81212   8.853   7.975   1.920 -1.1708 -0.7765  0.3254
  616MOL0     C81213   8.722   7.959   1.874 -0.4850  0.2228 -0.2434
  616MOL0     C81214   8.651   7.842   1.896 -0.3960 -0.0426  0.0153
  616MOL0     O81215   8.522   7.824   1.838 -0.6076  0.6500  0.4666
  616MOL0     C81216   8.414   7.799   1.932  0.5598  0.7994 -0.0337
  616MOL0     C81217   8.318   7.688   1.883 -0.2580  0.2094  0.5194
  616MOL0     C81218   8.392   7.548   1.893 -0.0220 -0.0895 -0.0266
  616MOL0     C81219   8.284   7.451   1.855 -0.7921 -0.0050 -0.1288
  616MOL0     C81220   8.182   7.438   1.968  0.1556 -0.1270 -0.1001
  616MOL0     C81221   8.120   7.297   1.964 -0.2186  0.5028  0.1042
  616MOL0     C81222   8.015   7.299   2.073  0.6234 -0.3025 -0.3669
  616MOL0     C81223   7.952   7.162   2.063  0.0265  0.8024  0.3435
  616MOL0    Cl81224   8.064   7.024   2.075  0.3357 -0.0736 -0.1550
  616MOL0     C81225   8.712   7.737   1.969 -0.0658  0.2870  0.0810
  616MOL0     C81226   8.843   7.763   2.022  0.0500 -0.1722  0.9872
  616MOL0     O81227   9.139   7.683   2.014  1.4129 -0.7364 -0.6143
  616MOL0     C81228   9.397   7.765   2.056 -1.0236 -0.7496  0.1361
  616MOL0     C81229   9.525   7.806   2.101  0.5112 -0.0453  0.6222
  616MOL0     N81230  10.133   7.936   2.594 -0.3920  0.8567 -0.6031
  616MOL0     N81231  10.162   7.820   2.643 -0.2287  0.3379 -0.2957
  616MOL0     C81232  10.319   6.869   2.852  0.2230  0.1146  0.4381
  616MOL0     C81233  10.413   6.922   2.934  0.1522  0.6479 -1.0607
  616MOL0     C81234  10.760   6.967   3.200  0.1230 -0.1193 -0.0725
  616MOL0     C81235  10.764   6.904   3.324  1.3828 -0.1328  0.0603
  616MOL0     C81236  10.867   6.929   3.418  0.4693  0.0278  1.2429
  616MOL0     C81237  10.968   7.009   3.369  1.1685  0.4422  0.3466
  616MOL0     O81238  11.066   7.024   3.459 -0.3082 -0.1431 -1.1049
  616MOL0     C81239  11.195   7.009   3.398 -0.3095  0.6092 -0.3008
  616MOL0     C81240  11.284   6.905   3.476  0.0733  1.2161 -0.3222
  616MOL0     C81241  11.435   6.936   3.453  0.7841 -0.2437 -0.2614
  616MOL0     C81242  11.499   7.035   3.551  0.6097 -0.2938  0.6964
  616MOL0     C81243  11.595   6.979   3.646  1.0031  0.6410 -0.2181
  616MOL0     C81244  11.650   6.919   3.732  0.3764 -0.5233 -0.6526
  616MOL0     C81245  10.961   7.079   3.253  0.0683  1.6253 -0.5527
  616MOL0     C81246  10.860   7.061   3.172  0.2593  0.0679 -0.2830
  616MOL0     H81247  10.417   6.655   3.144  2.1944 -0.5933 -1.1599
  616MOL0     H81248  10.242   6.572   2.993 -2.0722  0.7318 -1.3210
  616MOL0     H81249  10.054   6.688   2.607 -2.0740 -1.7654  2.8505
  616MOL0     H81250  10.185   6.811   2.604 -1.5717  0.0039 -0.8429
  616MOL0     H81251  10.008   6.892   2.806 -0.1126 -4.7028  1.5833
  616MOL0     H81252   9.898   6.830   2.673  0.1998 -0.1706 -1.7084
  616MOL0     H81253   9.913   7.057   2.647 -0.4684  0.7060 -2.4106
  616MOL0     H81254   9.993   6.984   2.507 -2.3790  0.0904  0.5463
  616MOL0     H81255  10.160   7.078   2.722  1.7774 -0.0154 -0.7079
  616MOL0     H81256  10.194   7.057   2.550  1.0325  2.0730 -0.1648
  616MOL0     H81257  10.019   7.262   2.687  0.5182 -2.2682  1.9503
  616MOL0     H81258  10.022   7.240   2.503  0.7243  3.0575  0.4554
  616MOL0     H81259  10.260   7.303   2.502  1.3597 -1.2120  2.2924
  616MOL0     H81260  10.256   7.318   2.680 -2.0235  3.3340  2.3927
  616MOL0     H81261  10.055   7.478   2.532 -0.4105  0.3820 -0.0000
  616MOL0     H81262  10.113   7.496   2.694  2.1628 -3.7676  0.9980
  616MOL0     H81263  10.284   7.566   2.450  1.3389 -2.0261  1.3288
  616MOL0     H81264  10.315   7.591   2.625 -1.1298  0.4327  1.9860
  616MOL0     H81265  10.155   7.750   2.327  0.5193 -0.9349  0.5752
  616MOL0     H81266  10.109   7.982   2.269  4.7549 -0.5022  1.3295
  616MOL0     H81267  10.096   8.110   2.398  0.7014 -1.0364 -1.2391
  616MOL0     H81268   9.892   8.044   2.478  2.5535  1.1034  0.4941
  616MOL0     H81269   9.878   7.902   2.372 -2.9164  0.7801  4.0429
  616MOL0     H81270   9.883   8.185   2.274  0.1160 -0.3549 -1.0182
  616MOL0     H81271   9.885   8.025   2.178  1.3373 -0.1995  0.4247
  616MOL0     H81272   9.664   8.143   2.200 -1.9671 -0.6650  0.1467
  616MOL0     H81273   9.662   8.087   2.372 -0.9000 -2.2961  0.1942
  616MOL0     H81274   9.430   8.085   2.272  1.2054 -0.8194 -0.2399
  616MOL0     H81275   9.201   8.016   2.186 -1.3321 -1.9098 -0.1622
  616MOL0     H81276   8.911   8.067   1.912 -0.2776 -1.3776 -0.3243
  616MOL0     H81277   8.683   8.045   1.820  2.6624  3.0515  1.6046
  616MOL0     H81278   8.356   7.892   1.938 -2.2321 -0.9118  1.8768
  616MOL0     H81279   8.449   7.791   2.036  0.6906  3.6522  0.2229
  616MOL0     H81280   8.292   7.709   1.778 -0.5835  1.0210  0.7536
  616MOL0     H81281   8.228   7.687   1.946 -1.7353 -0.6062 -1.4789
  616MOL0     H81282   8.420   7.529   1.996 -2.1883 -1.4063  0.3761
  616MOL0     H81283   8.480   7.546   1.828  0.4923  0.4528  0.6403
  616MOL0     H81284   8.234   7.481   1.763  0.6240  0.3981 -0.8002
  616MOL0     H81285   8.337   7.360   1.824  2.1005  2.2833 -2.6103
  616MOL0     H81286   8.101   7.511   1.957 -0.3748 -1.1062 -5.3578
  616MOL0     H81287   8.229   7.458   2.065 -1.0441  0.6801  0.3428
  616MOL0     H81288   8.205   7.228   1.960  1.4674  2.3726  1.0858
  616MOL0     H81289   8.079   7.284   1.863  3.4145 -3.2777 -1.1852
  616MOL0     H81290   8.039   7.301   2.180 -0.5295 -0.7548 -0.0779
  616MOL0     H81291   7.932   7.367   2.050 -2.6373 -4.4857 -2.4222
  616MOL0     H81292   7.894   7.151   1.971  1.2738 -5.4109 -0.1480
  616MOL0     H81293   7.879   7.153   2.144  0.2933 -3.9955  0.3671
  616MOL0     H81294   8.672   7.640   1.998  2.1612  0.1908  3.3170
  616MOL0     H81295   8.884   7.693   2.093 -1.7039 -2.8231 -0.4512
  616MOL0     H81296   9.392   7.674   1.998 -1.5663 -2.5662  2.8267
  616MOL0     H81297   9.617   7.757   2.073  0.6336  0.4899  0.0666
  616MOL0     H81298  10.290   6.921   2.761  0.5165  0.8834  0.7826
  616MOL0     H81299  10.459   7.018   2.913  1.4218 -0.4946 -4.1626
  616MOL0     H81300  10.686   6.832   3.345  0.5801 -0.0075 -2.2076
  616MOL0     H81301  10.857   6.867   3.507  1.2060 -4.6866 -1.6114
  616MOL0     H81302  11.250   7.104   3.396  1.5189 -0.3863 -2.9272
  616MOL0     H81303  11.190   6.977   3.294  2.2053 -0.2961 -0.2192
  616MOL0     H81304  11.258   6.901   3.582 -2.5980 -1.7600 -0.9219
  616MOL0     H81305  11.266   6.800   3.453 -5.7972  1.3011  2.1303
  616MOL0     H81306  11.435   6.986   3.355  4.0389  2.2767  0.8301
  616MOL0     H81307  11.491   6.843   3.437  1.0584 -0.0678 -0.3296
  616MOL0     H81308  11.549   7.116   3.495 -1.8286 -0.5680 -2.1531
  616MOL0     H81309  11.422   7.083   3.612 -3.1336 -2.3967 -1.9667
  616MOL0     H81310  11.694   6.864   3.813 -0.2305 -0.7787 -0.4930
  616MOL0     H81311  11.037   7.153   3.231  0.4683  1.7042  0.9680
  616MOL0     H81312  10.857   7.110   3.076 -0.4396  0.4067 -0.0902
  617MOL0     O81313   5.037   5.731   2.275 -0.4851  0.3802 -0.2464
  617MOL0     C81314   5.154   5.763   2.257 -1.3845  0.3709 -0.2747
  617MOL0     O81315   5.234   5.835   2.345 -0.1652  0.0213 -0.6659
  617MOL0     C81316   5.184   5.917   2.444  1.0271  0.8618  0.2489
  617MOL0     C81317   5.242   5.899   2.570  0.5556 -0.5107  0.9121
  617MOL0     C81318   5.189   5.974   2.677 -0.2078 -0.1137 -0.9837
  617MOL0     C81319   5.078   6.064   2.660 -0.2207 -0.0720  0.0933
  617MOL0     O81320   5.021   6.100   2.780  0.0627  0.6401  0.1071
  617MOL0     C81321   4.879   6.139   2.775 -0.6744 -0.7595  0.2083
  617MOL0     C81322   4.842   6.235   2.889  0.6033  0.0882 -0.3850
  617MOL0     C81323   4.689   6.253   2.921 -0.6095 -0.0995 -0.6788
  617MOL0     C81324   4.652   6.333   3.041  0.2968  0.4144 -0.4471
  617MOL0     C81325   4.500   6.302   3.061 -0.0320  0.0810  0.0410
  617MOL0     C81326   4.462   6.337   3.205 -0.8628  0.5014 -0.1324
  617MOL0     C81327   4.312   6.317   3.224  0.8600  1.4099  0.2090
  617MOL0     C81328   4.216   6.398   3.128  0.6467 -0.5420 -0.0586
  617MOL0     N81329   4.156   6.314   3.023 -0.6024 -0.4613  0.1488
  617MOL0     C81330   4.106   6.184   3.036  0.5792 -0.7649  0.2910
  617MOL0     C81331   4.111   6.137   2.915  0.1600 -0.1834  0.7470
  617MOL0     C81332   4.047   5.997   2.875  0.2977  0.5923 -0.8204
  617MOL0     C81333   4.127   5.904   2.790  0.4103 -0.3748  0.7242
  617MOL0     C81334   4.210   5.808   2.868 -0.6124 -0.5151  0.9619
  617MOL0     C81335   4.325   5.877   2.951 -0.1580  0.2706  0.6170
  617MOL0     O81336   4.372   5.999   2.890 -0.2446  0.5774 -0.8112
  617MOL0     C81337   4.431   5.987   2.769  0.5061  0.1262  0.7086
  617MOL0     C81338   4.469   5.875   2.702 -0.1431 -0.2191 -0.5468
  617MOL0     C81339   4.537   5.873   2.573  0.6147  0.3070  1.0917
  617MOL0     C81340   4.579   5.996   2.518  0.4605  0.3890  0.0116
  617MOL0     C81341   4.665   5.999   2.400 -0.6205 -0.4485  0.4271
  617MOL0     O81342   4.681   5.877   2.330  0.1625  0.7177  0.8130
  617MOL0     C81343   4.706   5.885   2.193  0.4737 -0.7733 -0.5221
  617MOL0     C81344   4.650   5.993   2.112  0.5485  0.0879 -0.5029
  617MOL0     C81345   4.698   5.994   1.980  0.6093  0.1669  0.9228
  617MOL0     C81346   4.790   5.898   1.921  0.9080 -0.6613 -0.0209
  617MOL0     O81347   4.858   5.919   1.807  0.9177  0.3280 -0.0647
  617MOL0     C81348   4.831   5.812   1.718 -0.6995  0.0701  0.5325
  617MOL0     C81349   4.870   5.862   1.587  0.1074 -0.9942 -0.5853
  617MOL0     C81350   4.892   5.740   1.502 -0.0308 -1.0842  0.1121
  617MOL0     C81351   4.913   5.776   1.350  0.4847 -0.4650 -0.5535
  617MOL0     C81352   5.004   5.674   1.278  0.4291 -0.8004 -0.6685
  617MOL0     C81353   4.999   5.683   1.128 -0.1562  0.1912  0.2776
  617MOL0     C81354   5.048   5.810   1.062  0.0372  0.0000  1.1109
  617MOL0     C81355   5.116   5.766   0.935  0.3134 -1.1708  1.1474
  617MOL0    Cl81356   5.157   5.911   0.836 -0.0285  0.1280  0.1046
  617MOL0     C81357   4.811   5.780   1.990  0.9202 -0.1128 -0.3647
  617MOL0     C81358   4.771   5.783   2.129 -0.4598  0.4829  0.4900
  617MOL0     O81359   4.721   6.102   2.376 -0.8578 -0.1412  0.9220
  617MOL0     C81360   4.536   6.103   2.589 -0.7260 -0.3808 -0.2078
  617MOL0     C81361   4.457   6.112   2.703  0.4406  0.3003  0.2193
  617MOL0     N81362   4.164   6.232   2.823  0.5205 -0.5247 -0.7038
  617MOL0     N81363   4.185   6.338   2.894  0.1716 -0.5107  0.2087
  617MOL0     C81364   5.016   6.077   2.535 -1.0986  0.1299  0.2519
  617MOL0     C81365   5.071   6.003   2.424 -0.7071  0.5657  0.2924
  617MOL0     C81366   5.223   5.740   2.130 -0.3888 -1.2099 -1.1290
  617MOL0     C81367   5.169   5.652   2.040 -0.1506  0.0229 -0.2134
  617MOL0     C81368   5.235   5.633   1.914 -1.0108  1.0914  0.1645
  617MOL0     C81369   5.349   5.709   1.882 -0.1001  1.6005  0.7024
  617MOL0     O81370   5.425   5.704   1.765 -0.1818  0.8168 -0.1680
  617MOL0     C81371   5.350   5.653   1.653  0.9462 -0.5843  0.0910
  617MOL0     C81372   5.259   5.760   1.603 -0.6835  0.3201  0.4495
  617MOL0     C81373   5.330   5.875   1.543 -0.4853 -0.8905 -0.2930
  617MOL0     C81374   5.379   5.972   1.645 -0.4477 -0.1206  0.5251
  617MOL0     C81375   5.364   6.110   1.583  0.4547 -0.5884 -0.5793
  617MOL0     C81376   5.379   6.207   1.519 -0.8518 -0.1621  0.8494
  617MOL0     C81377   5.394   5.809   1.968 -0.4640  0.1724 -0.4658
  617MOL0     C81378   5.337   5.819   2.094 -0.7754 -0.8075 -0.4412
  617MOL0     H81379   5.322   5.826   2.577  1.0823  0.1570  2.2455
  617MOL0     H81380   5.219   5.941   2.776 -0.0164 -0.1595 -1.0555
  617MOL0     H81381   4.827   6.043   2.769 -0.3743 -0.8437 -1.2875
  617MOL0     H81382   4.848   6.185   2.681 -1.1074 -0.5905  0.4332
  617MOL0     H81383   4.889   6.331   2.866  0.2707  0.2867 -0.2581
  617MOL0     H81384   4.885   6.205   2.984 -0.6816 -1.7414 -0.3335
  617MOL0     H81385   4.659   6.151   2.944 -1.1385  0.7007  2.7485
  617MOL0     H81386   4.646   6.303   2.833 -1.0400  1.3361  0.3079
  617MOL0     H81387   4.710   6.311   3.131 -3.3282  0.8479  2.2209
  617MOL0     H81388   4.670   6.440   3.022  3.2792  0.0513 -0.1302
  617MOL0     H81389   4.481   6.199   3.032  3.4020 -0.1295 -1.9444
  617MOL0     H81390   4.457   6.367   2.984  2.6399 -1.9511 -3.4572
  617MOL0     H81391   4.482   6.443   3.219  2.2565  0.5745 -3.5215
  617MOL0     H81392   4.524   6.278   3.274 -3.3455 -2.3356 -0.1282
  617MOL0     H81393   4.284   6.211   3.220 -2.2266  2.0674  1.0451
  617MOL0     H81394   4.287   6.359   3.322  2.5327  0.8916  0.8903
  617MOL0     H81395   4.273   6.480   3.084 -0.2354 -0.7847 -1.7289
  617MOL0     H81396   4.142   6.458   3.182 -2.8090 -3.4783 -1.1162
  617MOL0     H81397   4.068   6.147   3.131 -1.9266  2.2437  0.6366
  617MOL0     H81398   3.947   6.012   2.832 -0.3121 -0.6921  0.0948
  617MOL0     H81399   4.035   5.948   2.972  0.9196  0.0229 -1.0265
  617MOL0     H81400   4.176   5.952   2.705 -1.1113  0.9094  0.5345
  617MOL0     H81401   4.045   5.859   2.733 -0.9567  4.3290 -1.5404
  617MOL0     H81402   4.134   5.753   2.923 -4.5581  1.0477 -2.4167
  617MOL0     H81403   4.258   5.737   2.799  1.3503  3.0868 -1.7766
  617MOL0     H81404   4.403   5.802   2.968  0.2238  0.6145  0.4126
  617MOL0     H81405   4.289   5.894   3.052  0.7955  1.8917  0.7175
  617MOL0     H81406   4.460   5.769   2.724 -1.2451  0.4557  2.7432
  617MOL0     H81407   4.560   5.783   2.517  1.6238 -0.5913  2.8598
  617MOL0     H81408   4.583   6.068   2.152 -2.7187 -2.6189 -0.4910
  617MOL0     H81409   4.663   6.073   1.916 -1.5470 -1.1895  0.3281
  617MOL0     H81410   4.737   5.757   1.724  1.2265 -3.5254  0.6609
  617MOL0     H81411   4.920   5.752   1.740 -1.8444 -2.0451 -0.3560
  617MOL0     H81412   4.962   5.922   1.589 -0.6702  0.2344  1.3591
  617MOL0     H81413   4.785   5.924   1.556 -0.3743 -1.5135 -0.3210
  617MOL0     H81414   4.811   5.667   1.509  1.3510 -2.5460  1.5194
  617MOL0     H81415   4.983   5.690   1.536  1.9818  1.4345 -1.1895
  617MOL0     H81416   4.813   5.774   1.307  0.5399 -0.3548 -0.6846
  617MOL0     H81417   4.954   5.877   1.342 -1.2162  0.2278 -0.9279
  617MOL0     H81418   4.983   5.573   1.316 -1.7240 -0.9297 -2.0179
  617MOL0     H81419   5.104   5.691   1.320 -0.8923  2.1199  1.7246
  617MOL0     H81420   4.896   5.666   1.094  1.3275  0.4819 -5.3066
  617MOL0     H81421   5.053   5.600   1.081 -0.8753 -0.5260  0.6830
  617MOL0     H81422   4.959   5.869   1.038  1.3958  0.6700 -3.0138
  617MOL0     H81423   5.118   5.872   1.119 -0.1727  0.0263  1.3412
  617MOL0     H81424   5.050   5.702   0.876  2.4055 -1.7921 -0.6710
  617MOL0     H81425   5.206   5.705   0.946  2.3304  0.9642 -1.8851
  617MOL0     H81426   4.857   5.689   1.952  0.5230 -0.0669 -0.9644
  617MOL0     H81427   4.787   5.691   2.184  3.6244 -0.5202 -1.9299
  617MOL0     H81428   4.568   6.202   2.558  0.7198  0.1522  2.6825
  617MOL0     H81429   4.423   6.204   2.749 -0.0973  1.7613 -2.8332
  617MOL0     H81430   4.922   6.129   2.518  0.1881  2.0313 -1.4689
  617MOL0     H81431   5.011   6.004   2.333 -1.2054  1.5687  0.6095
  617MOL0     H81432   5.084   5.590   2.068  1.5420 -2.4204 -0.1057
  617MOL0     H81433   5.193   5.559   1.847  0.2830 -0.4505  0.9934
  617MOL0     H81434   5.294   5.563   1.679  1.0970 -1.0066 -1.0193
  617MOL0     H81435   5.421   5.617   1.578  2.2906 -4.8861  2.9920
  617MOL0     H81436   5.202   5.714   1.523  0.5693 -1.3657  0.4690
  617MOL0     H81437   5.184   5.781   1.680 -1.2425 -2.1450  0.6565
  617MOL0     H81438   5.252   5.929   1.489 -1.1192  0.1199  1.5481
  617MOL0     H81439   5.415   5.848   1.480  2.2133  2.5719  1.5006
  617MOL0     H81440   5.320   5.969   1.737 -2.0604  2.2120 -0.3439
  617MOL0     H81441   5.482   5.947   1.675 -0.6010  0.1950  1.3644
  617MOL0     H81442   5.400   6.289   1.454 -1.1661 -1.2295 -0.6583
  617MOL0     H81443   5.488   5.861   1.949 -0.6084  0.7129  0.2452
  617MOL0     H81444   5.377   5.890   2.166 -2.9584 -0.7616  0.8186
  618MOL0     O81445   5.741   1.308   2.893 -0.6757 -0.1287 -0.4699
  618MOL0     C81446   5.671   1.279   2.796  0.6624 -0.1685  0.5522
  618MOL0     O81447   5.704   1.278   2.662  1.1237 -0.1517 -0.5784
  618MOL0     C81448   5.819   1.336   2.607 -0.7689  0.7527 -0.7577
  618MOL0     C81449   5.940   1.369   2.676  0.9001  0.6545 -0.9813
  618MOL0     C81450   6.057   1.408   2.601 -0.6156  0.0248  0.3320
  618MOL0     C81451   6.045   1.430   2.467  0.0420  0.0489 -0.0974
  618MOL0     O81452   6.161   1.475   2.408 -0.1648  0.6270  0.7092
  618MOL0     C81453   6.155   1.616   2.395 -0.2262  0.8652 -0.4867
  618MOL0     C81454   6.288   1.677   2.400 -0.0439  0.6643  0.4782
  618MOL0     C81455   6.290   1.821   2.353 -0.8062 -0.2678  0.1068
  618MOL0     C81456   6.427   1.875   2.332  0.5790 -1.4185  0.6883
  618MOL0     C81457   6.416   2.002   2.247  0.1510 -0.2562  0.4683
  618MOL0     C81458   6.546   2.087   2.264  1.2097  0.0712  0.4505
  618MOL0     C81459   6.531   2.222   2.184  0.1563  0.0466 -0.7770
  618MOL0     C81460   6.602   2.338   2.258 -0.8953 -0.0434  0.5932
  618MOL0     N81461   6.580   2.463   2.183  0.1405 -0.1659  0.4117
  618MOL0     C81462   6.682   2.521   2.120  0.1938 -0.1354  0.0958
  618MOL0     C81463   6.631   2.634   2.066  0.3662 -0.0066  0.0725
  618MOL0     C81464   6.695   2.747   1.985  0.3472 -0.0413 -0.5111
  618MOL0     C81465   6.838   2.741   1.970 -0.3559 -0.5562  0.2523
  618MOL0     C81466   6.930   2.813   2.076  0.9924 -0.0118  0.1633
  618MOL0     C81467   6.892   2.789   2.218 -1.3867  0.7703  0.1996
  618MOL0     O81468   6.919   2.653   2.262 -0.0263 -0.5113 -0.6409
  618MOL0     C81469   6.871   2.613   2.380  0.4868  0.3951 -0.5044
  618MOL0     C81470   6.923   2.490   2.429  0.7387 -0.7867 -0.3633
  618MOL0     C81471   6.879   2.438   2.549  0.2738  0.0232  0.0557
  618MOL0     C81472   6.780   2.508   2.623 -0.0402 -0.7074  0.7031
  618MOL0     C81473   6.717   2.445   2.734  0.6122  0.8721  0.5411
  618MOL0     O81474   6.790   2.403   2.836 -0.7631 -0.6294 -0.5236
  618MOL0     C81475   6.741   2.332   2.946 -0.2160 -0.9121 -0.3044
  618MOL0     C81476   6.844   2.319   3.034  0.2918 -1.3872 -0.3030
  618MOL0     C81477   6.840   2.231   3.143  0.5074  0.1193 -0.8304
  618MOL0     C81478   6.714   2.164   3.162  0.1687 -1.3069 -0.1562
  618MOL0     O81479   6.693   2.074   3.262  0.0600  0.9404  0.3701
  618MOL0     C81480   6.803   1.987   3.297  0.2498  0.2051  0.2275
  618MOL0     C81481   6.753   1.856   3.335  0.3238 -0.0932 -0.6098
  618MOL0     C81482   6.700   1.779   3.222 -0.3062 -0.3894  0.1376
  618MOL0     C81483   6.728   1.634   3.197 -1.5598 -0.9105  0.0419
  618MOL0     C81484   6.628   1.540   3.123 -0.2201 -0.2568  0.4663
  618MOL0     C81485   6.521   1.490   3.217 -0.7522  0.4429  0.4458
  618MOL0     C81486   6.442   1.588   3.308  0.5768  0.7804  0.3171
  618MOL0     C81487   6.310   1.526   3.347 -0.0160 -1.0287 -0.9776
  618MOL0    Cl81488   6.351   1.363   3.410 -0.2140 -0.4758  0.1888
  618MOL0     C81489   6.607   2.188   3.070  0.5144 -0.9839  0.1699
  618MOL0     C81490   6.620   2.267   2.956 -0.1486  0.5786 -0.2181
  618MOL0     O81491   6.589   2.432   2.715  0.0336  0.9863  0.3693
  618MOL0     C81492   6.734   2.631   2.576  0.5652  0.0427  0.3731
  618MOL0     C81493   6.781   2.684   2.459  0.2029 -0.0025 -0.2803
  618MOL0     N81494   6.495   2.645   2.102 -0.7467 -0.1358  0.4869
  618MOL0     N81495   6.463   2.532   2.157 -0.8235  0.0646 -0.1990
  618MOL0     C81496   5.929   1.377   2.392 -0.4878 -0.0782  0.2834
  618MOL0     C81497   5.816   1.336   2.467  0.9522  0.8759  0.4658
  618MOL0     C81498   5.547   1.204   2.834  0.3987 -0.2909 -0.2259
  618MOL0     C81499   5.519   1.141   2.958  0.1842 -0.1738  0.0156
  618MOL0     C81500   5.396   1.081   2.996 -0.4505  0.8892  0.1852
  618MOL0     C81501   5.294   1.062   2.898  0.1966 -0.2296  0.3415
  618MOL0     O81502   5.185   0.997   2.937 -0.5688 -0.6584  0.1079
  618MOL0     C81503   5.109   0.902   2.852  0.1681 -0.4489  0.5679
  618MOL0     C81504   4.986   0.873   2.942 -0.1670  1.4209 -0.0777
  618MOL0     C81505   4.869   0.809   2.872  0.7358 -0.1511  0.0478
  618MOL0     C81506   4.745   0.788   2.971 -0.7740 -0.3727 -0.6143
  618MOL0     C81507   4.745   0.664   3.042 -0.8715  1.1215  0.1676
  618MOL0     C81508   4.737   0.557   3.102 -1.5401 -0.7716  0.2000
  618MOL0     C81509   5.326   1.097   2.768 -0.3779  0.6066 -0.4337
  618MOL0     C81510   5.452   1.168   2.732  0.0463 -0.1206  0.6604
  618MOL0     H81511   5.957   1.354   2.782  0.4614  0.8057 -0.8913
  618MOL0     H81512   6.150   1.424   2.654 -0.2950  3.1040 -0.9741
  618MOL0     H81513   6.097   1.662   2.475  0.6208  0.7498  0.2043
  618MOL0     H81514   6.108   1.641   2.299 -1.1838 -1.3952 -0.6867
  618MOL0     H81515   6.361   1.617   2.343  2.2335 -0.4417  4.1839
  618MOL0     H81516   6.329   1.683   2.502  0.2793  4.4545  0.2530
  618MOL0     H81517   6.234   1.880   2.426  0.1155 -0.8008  1.2756
  618MOL0     H81518   6.241   1.818   2.255  1.6508  0.0540 -1.1997
  618MOL0     H81519   6.474   1.899   2.428 -1.3543 -0.6847  1.5031
  618MOL0     H81520   6.495   1.811   2.275 -0.7051 -0.8363 -1.6428
  618MOL0     H81521   6.334   2.057   2.293  0.6113  1.4823 -0.6902
  618MOL0     H81522   6.378   1.983   2.146 -1.7082 -0.0258  1.1019
  618MOL0     H81523   6.640   2.038   2.239  1.2480 -0.1613  1.0287
  618MOL0     H81524   6.550   2.112   2.370 -2.6260  3.6344  0.0148
  618MOL0     H81525   6.576   2.197   2.087 -3.8784  0.6234 -3.0664
  618MOL0     H81526   6.423   2.241   2.179  0.4232  1.8626 -0.3088
  618MOL0     H81527   6.708   2.320   2.274 -1.1322  0.5338  3.2488
  618MOL0     H81528   6.565   2.354   2.360  0.1768  3.2628  0.5909
  618MOL0     H81529   6.782   2.480   2.112 -0.6307 -2.5934  1.2147
  618MOL0     H81530   6.685   2.848   2.027  0.0911 -0.1310 -0.3531
  618MOL0     H81531   6.653   2.732   1.886  2.2648 -1.4225 -1.1826
  618MOL0     H81532   6.871   2.769   1.870  1.8320 -2.3198  0.3947
  618MOL0     H81533   6.866   2.635   1.977  1.1343 -0.0993  4.7637
  618MOL0     H81534   7.028   2.765   2.075  1.7245  1.4044  0.8284
  618MOL0     H81535   6.946   2.920   2.062 -0.9170  0.5909  2.1493
  618MOL0     H81536   6.790   2.823   2.239 -1.1180  1.4249  0.4640
  618MOL0     H81537   6.950   2.855   2.282 -1.2116 -0.4631  1.3644
  618MOL0     H81538   6.993   2.430   2.371  2.2986  0.7694 -0.1741
  618MOL0     H81539   6.932   2.351   2.588  0.9827  1.1355  1.6416
  618MOL0     H81540   6.937   2.371   3.013 -0.6199  0.8905  0.9362
  618MOL0     H81541   6.925   2.215   3.209 -0.0741 -1.9626 -0.4932
  618MOL0     H81542   6.864   2.031   3.377  0.8683  2.2848 -1.2930
  618MOL0     H81543   6.874   1.978   3.214  1.8168  2.7600  1.1798
  618MOL0     H81544   6.670   1.868   3.405 -2.2476 -1.5346 -3.2120
  618MOL0     H81545   6.841   1.808   3.380  0.8595  0.4303 -1.0772
  618MOL0     H81546   6.736   1.821   3.127  1.1016 -1.5625  0.1146
  618MOL0     H81547   6.591   1.783   3.212 -0.3899 -2.1788 -0.0130
  618MOL0     H81548   6.816   1.634   3.132 -1.3544 -2.0699  0.2871
  618MOL0     H81549   6.774   1.592   3.288 -1.3127  0.6066  0.6597
  618MOL0     H81550   6.687   1.458   3.081 -0.3196  0.6524 -1.5574
  618MOL0     H81551   6.591   1.598   3.038  3.3160  0.4295 -0.7729
  618MOL0     H81552   6.562   1.402   3.267  3.7993  1.4405 -1.0115
  618MOL0     H81553   6.451   1.439   3.150 -0.7205 -3.5586  3.0831
  618MOL0     H81554   6.515   1.615   3.385  1.5823  1.0012 -0.6897
  618MOL0     H81555   6.415   1.678   3.252 -0.6326  1.0195  1.2361
  618MOL0     H81556   6.232   1.527   3.269  0.6760  3.2964 -1.8456
  618MOL0     H81557   6.264   1.585   3.427  3.9520  0.5544  0.3566
  618MOL0     H81558   6.506   2.147   3.073 -0.7150  1.7694 -0.1223
  618MOL0     H81559   6.537   2.275   2.886  1.2360  2.3807 -1.7581
  618MOL0     H81560   6.666   2.697   2.630  1.9427  2.1350 -0.3306
  618MOL0     H81561   6.743   2.778   2.421  0.8278 -1.2475 -4.4382
  618MOL0     H81562   5.911   1.388   2.286 -1.1226  0.4731  0.4427
  618MOL0     H81563   5.728   1.310   2.410  1.3997  2.0854 -0.8215
  618MOL0     H81564   5.595   1.154   3.034 -0.4821  0.3596  0.6045
  618MOL0     H81565   5.390   1.049   3.100 -0.7794  3.9294  1.1987
  618MOL0     H81566   5.171   0.815   2.827 -0.2054 -0.1886 -1.4652
  618MOL0     H81567   5.086   0.944   2.754 -5.0642 -2.6464  0.5508
  618MOL0     H81568   5.019   0.815   3.028 -2.2452  1.2471  0.6759
  618MOL0     H81569   4.961   0.971   2.985 -0.9808  2.1020 -1.9584
  618MOL0     H81570   4.896   0.714   2.825 -1.7553 -0.5394 -0.7462
  618MOL0     H81571   4.836   0.878   2.794 -1.5386 -1.7984 -0.5764
  618MOL0     H81572   4.759   0.859   3.053  5.9809 -2.4001  0.6771
  618MOL0     H81573   4.651   0.808   2.919 -2.1305 -1.3861  1.3203
  618MOL0     H81574   4.728   0.466   3.160  1.0114 -2.0693 -1.2803
  618MOL0     H81575   5.249   1.087   2.692 -0.0757 -0.5653 -0.5948
  618MOL0     H81576   5.472   1.199   2.630 -0.4896  1.8245  1.1020
  619MOL0     O81577   9.518   3.411   0.349 -0.0064 -0.6640 -0.1898
  619MOL0     C81578   9.507   3.289   0.380 -0.1855 -0.2239  0.1849
  619MOL0     O81579   9.601   3.220   0.456 -0.4989 -0.1593  0.0668
  619MOL0     C81580   9.696   3.296   0.511 -0.5245  0.1417 -0.2255
  619MOL0     C81581   9.814   3.336   0.449  0.6550  0.2259 -0.0738
  619MOL0     C81582   9.910   3.421   0.516  0.0408  0.0688  0.3828
  619MOL0     C81583   9.883   3.472   0.642  0.7848 -1.0037  1.1904
  619MOL0     O81584   9.972   3.551   0.717 -0.2012 -0.7009 -0.1392
  619MOL0     C81585  10.066   3.629   0.642  0.3931 -0.0240 -0.5439
  619MOL0     C81586  10.204   3.555   0.651 -0.5588  0.4398  0.2713
  619MOL0     C81587  10.325   3.627   0.588 -0.0564  0.4508 -0.5241
  619MOL0     C81588  10.298   3.664   0.443  0.5215 -0.2315  0.2161
  619MOL0     C81589  10.406   3.751   0.379 -0.9772 -0.8529  0.4478
  619MOL0     C81590  10.541   3.672   0.366 -0.0305  0.0249  0.0904
  619MOL0     C81591  10.632   3.739   0.260  0.3717 -0.2436 -0.1306
  619MOL0     C81592  10.589   3.701   0.112 -0.1844  0.2223 -0.0934
  619MOL0     N81593  10.601   3.554   0.083  0.4915  0.1930  1.1773
  619MOL0     C81594  10.561   3.509  -0.044 -0.5213 -0.6308 -0.6328
  619MOL0     C81595  10.599   3.378  -0.054  0.2715 -0.4124 -0.4031
  619MOL0     C81596  10.587   3.298  -0.177 -0.1299  0.0322  0.0528
  619MOL0     C81597  10.449   3.322  -0.252 -0.0040  0.1558  0.2960
  619MOL0     C81598  10.398   3.215  -0.346  0.3789 -0.1107  0.8550
  619MOL0     C81599  10.283   3.272  -0.432  0.0432  0.1475 -0.2286
  619MOL0     O81600  10.245   3.181  -0.538  0.2529 -0.4423  0.2882
  619MOL0     C81601  10.153   3.246  -0.622 -0.4298  1.0720  1.3589
  619MOL0     C81602  10.157   3.209  -0.760  0.1292 -0.1697  0.3182
  619MOL0     C81603  10.066   3.261  -0.854 -0.7195 -0.4137  0.1924
  619MOL0     C81604   9.952   3.343  -0.811  0.6913  0.8984  0.0235
  619MOL0     C81605   9.833   3.369  -0.896  0.6893 -0.1724 -0.0206
  619MOL0     O81606   9.708   3.392  -0.832  0.0670 -0.9301 -0.3881
  619MOL0     C81607   9.593   3.413  -0.906  0.3114 -1.1572 -0.0317
  619MOL0     C81608   9.583   3.489  -1.026 -0.5998  0.7601  0.6397
  619MOL0     C81609   9.468   3.513  -1.106 -0.0708  0.6357  0.0261
  619MOL0     C81610   9.354   3.440  -1.072 -0.0406  0.0814  0.4436
  619MOL0     O81611   9.269   3.425  -1.185  0.7470  0.0621 -0.4778
  619MOL0     C81612   9.173   3.318  -1.182 -0.7011 -0.4097  0.5315
  619MOL0     C81613   9.091   3.322  -1.309  0.3094 -0.3671 -0.9846
  619MOL0     C81614   8.956   3.236  -1.299 -0.9241 -0.0458 -1.2249
  619MOL0     C81615   9.002   3.094  -1.300 -0.6265 -0.1080  0.2924
  619MOL0     C81616   8.876   3.001  -1.314 -0.3370 -0.4185  0.6335
  619MOL0     C81617   8.833   2.995  -1.462 -0.6782  1.2891 -0.1019
  619MOL0     C81618   8.712   2.906  -1.487 -0.0933 -0.4819  0.2148
  619MOL0     C81619   8.670   2.918  -1.639 -0.8133 -0.1045 -0.4385
  619MOL0    Cl81620   8.577   2.766  -1.683 -0.1021 -0.1606 -0.1327
  619MOL0     C81621   9.356   3.356  -0.959 -0.4572  1.0311 -1.1819
  619MOL0     C81622   9.466   3.356  -0.871  0.9596  0.5896  0.4173
  619MOL0     O81623   9.853   3.365  -1.019 -0.7742  0.4212  0.1323
  619MOL0     C81624   9.948   3.380  -0.669 -0.1017 -0.9086  0.4917
  619MOL0     C81625  10.052   3.337  -0.592 -0.3365 -1.5884  1.2418
  619MOL0     N81626  10.650   3.337   0.067  1.2255  0.4134  0.3815
  619MOL0     N81627  10.661   3.444   0.147 -0.4951  0.0747 -0.3054
  619MOL0     C81628   9.764   3.442   0.697  0.0868  0.8474  0.8104
  619MOL0     C81629   9.676   3.338   0.640 -0.6490  0.3803 -0.5818
  619MOL0     C81630   9.397   3.199   0.338 -0.2753  0.2358  0.5112
  619MOL0     C81631   9.400   3.055   0.346 -0.5776  0.4505 -0.5271
  619MOL0     C81632   9.306   2.979   0.291  0.5636  0.3148 -0.3336
  619MOL0     C81633   9.203   3.028   0.213  0.1260  0.5171  0.0119
  619MOL0     O81634   9.109   2.951   0.159 -0.8999 -0.1463  1.0962
  619MOL0     C81635   9.029   2.877   0.251  0.3462  0.3282 -0.7609
  619MOL0     C81636   8.931   2.784   0.181 -0.2459  0.2913 -0.6403
  619MOL0     C81637   8.950   2.779   0.033 -0.2175 -0.8469  0.0396
  619MOL0     C81638   8.844   2.696  -0.046  0.1915  0.3189  0.3388
  619MOL0     C81639   8.833   2.554  -0.013  0.2285  0.6680 -0.3707
  619MOL0     C81640   8.803   2.432  -0.002  0.4623  0.9630  0.9867
  619MOL0     C81641   9.196   3.163   0.191  0.1687  0.0871 -0.2171
  619MOL0     C81642   9.296   3.248   0.256  0.5185 -0.3617 -0.1661
  619MOL0     H81643   9.822   3.310   0.344  2.0909  2.6221 -0.6440
  619MOL0     H81644  10.001   3.440   0.460 -1.3749  1.3049 -1.6308
  619MOL0     H81645  10.074   3.726   0.691 -0.7106 -1.2655  2.3253
  619MOL0     H81646  10.036   3.643   0.538 -0.8076 -1.6707 -0.4705
  619MOL0     H81647  10.193   3.460   0.598 -2.8387  0.9230 -0.2671
  619MOL0     H81648  10.221   3.539   0.758 -1.4739  1.1698  0.5388
  619MOL0     H81649  10.401   3.548   0.590  0.1338  0.6365  1.3794
  619MOL0     H81650  10.360   3.709   0.651 -3.7035  2.8606 -1.3702
  619MOL0     H81651  10.280   3.577   0.379 -0.3561 -0.1471  0.3453
  619MOL0     H81652  10.207   3.725   0.446 -0.3115 -1.5023  1.7757
  619MOL0     H81653  10.431   3.824   0.457 -1.3438 -1.6797  1.3620
  619MOL0     H81654  10.372   3.803   0.289 -0.8048  1.5937  1.7207
  619MOL0     H81655  10.520   3.568   0.339 -0.6177  0.1214  0.1678
  619MOL0     H81656  10.584   3.671   0.467  0.1954  0.8182  0.0071
  619MOL0     H81657  10.632   3.847   0.276  2.1484  0.3081 -3.2383
  619MOL0     H81658  10.736   3.714   0.281  0.3111 -1.4599 -1.1556
  619MOL0     H81659  10.648   3.756   0.038 -2.3221  1.0029 -1.2953
  619MOL0     H81660  10.485   3.733   0.100 -0.6825  1.5818  5.2602
  619MOL0     H81661  10.529   3.582  -0.118 -0.6457 -0.1059 -0.0735
  619MOL0     H81662  10.611   3.195  -0.151 -0.1325 -0.2716 -1.1142
  619MOL0     H81663  10.669   3.324  -0.244  0.1095 -1.3765 -0.2158
  619MOL0     H81664  10.450   3.414  -0.312  1.0833 -0.2551 -0.3342
  619MOL0     H81665  10.373   3.341  -0.176 -0.0606  1.9312 -0.1540
  619MOL0     H81666  10.482   3.193  -0.412 -0.6835 -1.4185 -0.0996
  619MOL0     H81667  10.360   3.127  -0.293 -0.0356 -0.7351 -0.4498
  619MOL0     H81668  10.294   3.378  -0.457 -0.1397  0.6499  1.6484
  619MOL0     H81669  10.195   3.261  -0.367  0.5335 -1.7939  0.1784
  619MOL0     H81670  10.238   3.142  -0.785  1.1597  0.9738  0.5267
  619MOL0     H81671  10.073   3.246  -0.961  1.3121  1.5895 -0.0224
  619MOL0     H81672   9.676   3.530  -1.064  0.6696 -1.0466  1.6743
  619MOL0     H81673   9.463   3.574  -1.196 -2.6711 -0.1221 -0.4179
  619MOL0     H81674   9.110   3.335  -1.093  1.2667  2.4178  1.5256
  619MOL0     H81675   9.221   3.221  -1.164  0.3656  0.3997  2.3411
  619MOL0     H81676   9.153   3.304  -1.397  2.2931  0.2087  0.2035
  619MOL0     H81677   9.065   3.428  -1.316 -1.5076 -0.5520  1.5955
  619MOL0     H81678   8.895   3.260  -1.386  1.4602 -0.4140 -3.1116
  619MOL0     H81679   8.894   3.262  -1.213  1.5013 -0.3398  0.7197
  619MOL0     H81680   9.074   3.067  -1.376  2.0909  3.6375  1.2495
  619MOL0     H81681   9.053   3.068  -1.206  0.9101  1.8569  0.0626
  619MOL0     H81682   8.795   3.036  -1.249 -0.6850 -0.1183  0.0436
  619MOL0     H81683   8.896   2.898  -1.281 -3.0863 -2.7877 -4.0512
  619MOL0     H81684   8.913   2.945  -1.517 -1.8575 -0.1852 -0.5649
  619MOL0     H81685   8.807   3.091  -1.506 -0.1300  3.0310  3.0429
  619MOL0     H81686   8.753   2.805  -1.473 -1.0700 -1.2125 -1.7369
  619MOL0     H81687   8.628   2.926  -1.420 -0.0834 -0.1523  0.1275
  619MOL0     H81688   8.761   2.929  -1.698  0.0745 -0.4919  0.8247
  619MOL0     H81689   8.605   3.003  -1.662  0.2301  0.6547 -0.6368
  619MOL0     H81690   9.285   3.280  -0.929  2.2206 -0.1071  3.1749
  619MOL0     H81691   9.444   3.298  -0.782  1.3608 -1.1993 -0.5828
  619MOL0     H81692   9.871   3.444  -0.626 -0.5303 -0.7344 -0.5159
  619MOL0     H81693  10.050   3.398  -0.502  1.2073  2.8800 -1.4203
  619MOL0     H81694   9.740   3.489   0.792  0.1897  2.8648 -0.1210
  619MOL0     H81695   9.594   3.299   0.699  0.7229  1.1940  2.0021
  619MOL0     H81696   9.484   2.993   0.378 -1.1983 -1.5914 -2.5751
  619MOL0     H81697   9.315   2.871   0.294  4.6144  0.4882  2.7436
  619MOL0     H81698   8.971   2.950   0.310 -1.0160 -3.1831  2.6804
  619MOL0     H81699   9.098   2.812   0.305 -0.8234 -1.7850 -1.7017
  619MOL0     H81700   8.935   2.681   0.218  2.1558  0.0372 -1.4207
  619MOL0     H81701   8.833   2.831   0.192  0.6876  1.9464  1.0339
  619MOL0     H81702   9.044   2.742  -0.010 -0.8015 -2.3606  0.0244
  619MOL0     H81703   8.944   2.884   0.001 -2.0686 -0.5446  1.2810
  619MOL0     H81704   8.747   2.740  -0.021 -0.0730  0.0235 -0.1617
  619MOL0     H81705   8.853   2.709  -0.154 -2.4268  0.2452  0.0585
  619MOL0     H81706   8.785   2.327  -0.001 -1.1532  1.2041  2.8060
  619MOL0     H81707   9.110   3.201   0.137  0.7770  2.6814  0.4692
  619MOL0     H81708   9.291   3.357   0.249 -0.7748 -0.4645 -1.2788
  620MOL0     O81709  10.218   8.322   8.901  0.1329 -0.2412 -0.1146
  620MOL0     C81710  10.170   8.392   8.819  0.5821 -0.6148  0.6765
  620MOL0     O81711  10.152   8.528   8.816 -0.1609 -0.6167  0.7679
  620MOL0     C81712  10.193   8.602   8.922  0.2428  0.3770 -0.3359
  620MOL0     C81713  10.131   8.613   9.044  0.6657 -0.9278 -0.2907
  620MOL0     C81714  10.172   8.705   9.144 -0.7338  0.5610 -0.0414
  620MOL0     C81715  10.272   8.799   9.109  0.9890  0.1056 -0.6954
  620MOL0     O81716  10.295   8.897   9.196 -0.5893  0.2646 -0.4493
  620MOL0     C81717  10.435   8.945   9.229  0.1377  0.0177 -0.0333
  620MOL0     C81718  10.448   9.098   9.206  0.0017 -0.0207 -0.1704
  620MOL0     C81719  10.414   9.123   9.057 -0.4750 -0.6824 -0.2111
  620MOL0     C81720  10.468   9.258   9.010  0.3743 -0.5447  0.1683
  620MOL0     C81721  10.404   9.310   8.872 -0.5630  0.0392 -0.7478
  620MOL0     C81722  10.261   9.340   8.878  0.4377 -0.0804  0.9515
  620MOL0     C81723  10.209   9.412   8.752 -0.6325  0.2469 -0.4687
  620MOL0     C81724  10.229   9.562   8.756  0.0489  0.4747 -0.2935
  620MOL0     N81725  10.222   9.602   8.611 -0.3654 -0.2808  0.2025
  620MOL0     C81726  10.114   9.657   8.557 -0.4454  0.5743 -1.0021
  620MOL0     C81727  10.142   9.687   8.431 -1.0896  0.8161 -0.7816
  620MOL0     C81728  10.046   9.750   8.333  0.1254 -0.1964  0.7177
  620MOL0     C81729   9.944   9.644   8.290 -0.7723  0.6732 -0.4330
  620MOL0     C81730   9.924   9.655   8.132 -0.0817 -0.3346 -1.1519
  620MOL0     C81731   9.853   9.532   8.061 -1.3612 -0.2175  0.4830
  620MOL0     O81732   9.883   9.547   7.920 -0.4429 -0.0203 -0.0718
  620MOL0     C81733   9.842   9.447   7.833  0.5994 -0.5285  0.1913
  620MOL0     C81734   9.884   9.437   7.695  0.0047 -1.1903 -1.2490
  620MOL0     C81735   9.841   9.336   7.613  1.1622  0.4455 -0.1146
  620MOL0     C81736   9.764   9.226   7.664  0.5495 -1.1310 -0.3136
  620MOL0     C81737   9.727   9.108   7.586  0.3007 -0.0329  0.2384
  620MOL0     O81738   9.776   9.116   7.458 -0.0631  0.3650  0.1145
  620MOL0     C81739   9.767   9.010   7.373  0.5731 -0.4875  0.5939
  620MOL0     C81740   9.665   8.922   7.367  0.1158  1.3495  0.1722
  620MOL0     C81741   9.676   8.806   7.286 -0.4374 -0.7828  0.0035
  620MOL0     C81742   9.778   8.781   7.187  0.0156 -0.3690  0.3915
  620MOL0     O81743   9.766   8.672   7.106 -0.9035  0.0288 -0.2783
  620MOL0     C81744   9.888   8.602   7.066 -0.1324 -0.1803  0.8979
  620MOL0     C81745   9.935   8.626   6.930  0.0285  0.4216 -0.6964
  620MOL0     C81746   9.840   8.590   6.818  0.8992 -0.8753 -0.1533
  620MOL0     C81747   9.924   8.607   6.696  0.0495  0.2329 -0.9305
  620MOL0     C81748   9.840   8.591   6.563 -0.8840  0.2532 -0.4166
  620MOL0     C81749   9.817   8.452   6.508  0.6276  0.0760  0.7526
  620MOL0     C81750   9.700   8.451   6.406 -0.1846  0.5292 -0.0905
  620MOL0     C81751   9.654   8.307   6.361 -0.5347  0.3685  0.8977
  620MOL0    Cl81752   9.613   8.224   6.502  0.3115  0.5214  0.1018
  620MOL0     C81753   9.867   8.882   7.179 -0.6243  0.8266  1.1093
  620MOL0     C81754   9.865   8.989   7.271 -0.0611 -0.0574  0.4643
  620MOL0     O81755   9.656   9.022   7.638  0.1437 -0.3925 -0.5097
  620MOL0     C81756   9.718   9.244   7.794 -0.0929 -0.3061  0.1088
  620MOL0     C81757   9.748   9.347   7.876  0.0125 -0.8190  0.7064
  620MOL0     N81758  10.275   9.662   8.409  0.2127  0.8925 -0.4693
  620MOL0     N81759  10.319   9.608   8.521 -0.3654 -0.3276  0.4333
  620MOL0     C81760  10.336   8.799   8.985  0.0472  0.2373 -0.5810
  620MOL0     C81761  10.299   8.694   8.893  0.0824 -0.6474  0.4184
  620MOL0     C81762  10.110   8.325   8.699  1.0605 -0.1872 -0.2905
  620MOL0     C81763  10.076   8.188   8.715 -0.1231  0.4520  0.6463
  620MOL0     C81764   9.995   8.122   8.619 -0.4800 -0.2407 -0.8502
  620MOL0     C81765   9.952   8.180   8.504 -0.1105 -0.2449  0.3728
  620MOL0     O81766   9.892   8.101   8.408  0.7608 -0.3835 -0.0433
  620MOL0     C81767   9.776   8.174   8.361 -0.9943  0.5479 -0.5592
  620MOL0     C81768   9.693   8.064   8.288 -0.4586 -0.9699 -1.3096
  620MOL0     C81769   9.772   7.986   8.177 -0.9784 -0.3538 -0.1490
  620MOL0     C81770   9.700   7.994   8.042  0.4157  0.5915 -0.3043
  620MOL0     C81771   9.598   7.890   8.049  0.4623  0.2765  0.8994
  620MOL0     C81772   9.508   7.815   8.073 -1.1950 -0.2663  0.0936
  620MOL0     C81773   9.996   8.316   8.484  0.0118  0.9282  0.8811
  620MOL0     C81774  10.074   8.391   8.576  0.7101  0.2794  0.7036
  620MOL0     H81775  10.046   8.547   9.053  0.2808 -0.4889 -0.6188
  620MOL0     H81776  10.119   8.707   9.239 -2.9003  1.5539 -1.2010
  620MOL0     H81777  10.506   8.887   9.170 -0.3787  1.1605 -1.9001
  620MOL0     H81778  10.466   8.922   9.331 -0.0591  2.4737  0.6421
  620MOL0     H81779  10.552   9.133   9.215 -0.1950  1.3716 -2.4906
  620MOL0     H81780  10.372   9.156   9.260 -1.0905 -1.8450  0.3155
  620MOL0     H81781  10.307   9.111   9.039  0.0000 -2.5667 -2.2280
  620MOL0     H81782  10.468   9.041   9.008  0.0060  0.5403 -1.8406
  620MOL0     H81783  10.452   9.340   9.082  2.6742  0.6088 -0.5463
  620MOL0     H81784  10.577   9.256   8.999  0.6682 -0.2352  2.5472
  620MOL0     H81785  10.421   9.240   8.790 -2.5828  0.7736 -1.8497
  620MOL0     H81786  10.462   9.394   8.832  2.7743 -1.4160  0.6217
  620MOL0     H81787  10.240   9.408   8.961 -2.0328  0.8695 -0.3526
  620MOL0     H81788  10.197   9.252   8.883  0.9368 -0.3803  2.7144
  620MOL0     H81789  10.260   9.382   8.661  1.2424  3.6999 -0.7431
  620MOL0     H81790  10.103   9.389   8.746 -0.2970 -1.6829  0.2832
  620MOL0     H81791  10.328   9.582   8.798  0.7256 -5.2801  1.6904
  620MOL0     H81792  10.151   9.605   8.820 -0.6496  0.7351 -1.2920
  620MOL0     H81793  10.031   9.679   8.624  2.5693  0.4685  3.1140
  620MOL0     H81794  10.104   9.795   8.251  0.1193 -0.3018  0.6565
  620MOL0     H81795   9.976   9.824   8.372 -0.8698 -0.8658  0.2577
  620MOL0     H81796   9.848   9.649   8.342 -0.5225 -4.8502  1.2643
  620MOL0     H81797   9.991   9.545   8.293 -1.0185  0.5759  0.6479
  620MOL0     H81798   9.862   9.742   8.108 -1.5269 -2.1424 -4.5668
  620MOL0     H81799  10.023   9.667   8.088 -1.0316  1.2379 -3.0315
  620MOL0     H81800   9.750   9.548   8.092 -0.4685  1.8306  2.6421
  620MOL0     H81801   9.887   9.434   8.097 -1.6520 -1.1061 -1.5160
  620MOL0     H81802   9.948   9.512   7.649  0.6343 -1.3867 -0.7021
  620MOL0     H81803   9.883   9.331   7.512  1.9693 -0.3374  0.2493
  620MOL0     H81804   9.568   8.933   7.415  0.2024  1.1150  0.4069
  620MOL0     H81805   9.584   8.748   7.292 -0.7048 -0.3460  0.2118
  620MOL0     H81806   9.888   8.494   7.084  3.2595 -0.4798 -0.0603
  620MOL0     H81807   9.968   8.633   7.134 -0.5019  0.4152  1.0678
  620MOL0     H81808  10.024   8.565   6.913  3.7704  5.2419 -0.6182
  620MOL0     H81809   9.972   8.729   6.934  2.7400 -0.4074 -2.5492
  620MOL0     H81810   9.760   8.665   6.823  0.3516 -1.0714 -3.5396
  620MOL0     H81811   9.796   8.490   6.819 -1.0217 -0.0798  0.0692
  620MOL0     H81812   9.962   8.708   6.709 -3.1357  1.4690 -0.3512
  620MOL0     H81813  10.007   8.537   6.682 -0.6629 -0.5478 -1.3615
  620MOL0     H81814   9.894   8.643   6.483 -3.4973  1.9137 -1.2211
  620MOL0     H81815   9.744   8.641   6.579 -0.7757  0.2224  0.3836
  620MOL0     H81816   9.803   8.374   6.583 -3.8884  1.3229  1.5563
  620MOL0     H81817   9.909   8.431   6.452  0.2156  1.3315 -0.4571
  620MOL0     H81818   9.617   8.519   6.429 -0.2746  0.3876  0.0012
  620MOL0     H81819   9.734   8.493   6.310 -1.0683  2.0879  0.2406
  620MOL0     H81820   9.733   8.253   6.307 -3.3994 -2.3196 -1.0168
  620MOL0     H81821   9.567   8.309   6.295  1.3449 -0.0256 -1.7501
  620MOL0     H81822   9.935   8.878   7.094 -0.9412  0.9687  0.8490
  620MOL0     H81823   9.936   9.071   7.266 -1.9419  1.6344  0.5589
  620MOL0     H81824   9.651   9.171   7.839  0.3702 -0.7581  0.0630
  620MOL0     H81825   9.704   9.355   7.975 -0.3764  1.5408  0.4112
  620MOL0     H81826  10.413   8.868   8.951  3.2901 -2.1580  1.2794
  620MOL0     H81827  10.334   8.697   8.790  1.1708  1.9703  0.7826
  620MOL0     H81828  10.113   8.123   8.793 -0.2505  2.4706  2.4777
  620MOL0     H81829   9.979   8.019   8.650  1.3204  0.4966  3.1805
  620MOL0     H81830   9.787   8.254   8.288 -0.2663 -1.1477 -2.3839
  620MOL0     H81831   9.723   8.226   8.441  0.4368  1.7852 -0.3811
  620MOL0     H81832   9.652   8.001   8.368 -1.9427  4.1473  2.5126
  620MOL0     H81833   9.610   8.114   8.238  1.0905  2.6681 -0.5606
  620MOL0     H81834   9.783   7.885   8.218 -3.2252  0.2887  2.4034
  620MOL0     H81835   9.870   8.028   8.153 -0.9817  0.8200  1.6851
  620MOL0     H81836   9.664   8.096   8.026  3.5074  1.9646  0.8825
  620MOL0     H81837   9.773   7.986   7.961  0.5027 -0.0162 -0.1769
  620MOL0     H81838   9.431   7.745   8.103  1.1412 -2.5401  1.2008
  620MOL0     H81839   9.966   8.365   8.392  0.3118 -0.0990  0.2201
  620MOL0     H81840  10.112   8.485   8.537  1.2565 -0.2494 -0.0585
  621MOL0     O81841  10.908   8.315   6.597 -0.2317  0.0278 -0.1128
  621MOL0     C81842  10.797   8.337   6.549 -0.5882 -0.9093  0.0238
  621MOL0     O81843  10.727   8.451   6.576  0.0740  0.1606  0.5056
  621MOL0     C81844  10.802   8.546   6.651 -0.5885  0.9622  0.1516
  621MOL0     C81845  10.791   8.537   6.799  0.0436  0.9440 -0.2695
  621MOL0     C81846  10.862   8.631   6.876 -1.0241 -0.1057  1.0724
  621MOL0     C81847  10.961   8.715   6.820 -0.1649  0.0452  0.5571
  621MOL0     O81848  11.050   8.798   6.882 -0.4217 -0.0980  0.3414
  621MOL0     C81849  11.122   8.731   6.989 -0.4603 -0.7687 -1.5508
  621MOL0     C81850  11.063   8.779   7.125 -0.8092 -0.2920 -0.2994
  621MOL0     C81851  11.150   8.741   7.247 -0.9930 -0.1566 -1.5977
  621MOL0     C81852  11.123   8.814   7.380 -1.8850 -0.8636  0.2960
  621MOL0     C81853  11.207   8.750   7.490 -0.3606 -0.0363 -0.4718
  621MOL0     C81854  11.200   8.834   7.618 -0.0214 -0.6396  0.5254
  621MOL0     C81855  11.264   8.762   7.728  0.0506 -0.6450  0.6813
  621MOL0     C81856  11.333   8.842   7.837  0.6071 -0.1124 -0.6554
  621MOL0     N81857  11.408   8.758   7.924  0.3198 -0.1186 -1.4600
  621MOL0     C81858  11.533   8.717   7.895 -0.4430  0.4438 -0.1545
  621MOL0     C81859  11.568   8.615   7.988  0.5308 -0.0243 -0.2320
  621MOL0     C81860  11.701   8.546   8.002 -0.8892  0.1186  0.0981
  621MOL0     C81861  11.835   8.624   7.986  0.1375 -0.1111  0.3633
  621MOL0     C81862  11.943   8.539   8.048 -0.2865  0.6784  0.0869
  621MOL0     C81863  12.066   8.621   8.061  1.2246 -0.5726 -0.1527
  621MOL0     O81864  12.120   8.633   7.931 -0.6532 -0.1847  0.3394
  621MOL0     C81865  12.256   8.644   7.912 -0.1921  0.4377  0.0139
  621MOL0     C81866  12.340   8.709   8.002  0.7737 -0.5577 -0.6488
  621MOL0     C81867  12.467   8.734   7.965 -1.0972 -0.1819  0.1635
  621MOL0     C81868  12.526   8.675   7.845 -0.1709  0.4371  0.6137
  621MOL0     C81869  12.686   8.663   7.830  0.0674 -0.1003 -0.8387
  621MOL0     O81870  12.773   8.721   7.925  0.0197  0.6394 -0.8189
  621MOL0     C81871  12.906   8.687   7.916  0.2117  0.1957 -0.1734
  621MOL0     C81872  12.998   8.794   7.940  0.7025 -0.1126  0.0926
  621MOL0     C81873  13.131   8.761   7.962  1.2609 -1.1003  0.5382
  621MOL0     C81874  13.181   8.643   7.963 -0.3003  1.1058  0.0214
  621MOL0     O81875  13.308   8.616   7.986 -1.1406 -0.1353  0.0660
  621MOL0     C81876  13.356   8.581   8.108  0.5322 -0.1991  0.3060
  621MOL0     C81877  13.464   8.660   8.166 -0.3800 -0.1082 -0.3447
  621MOL0     C81878  13.604   8.630   8.104  0.6236  0.8264  0.3522
  621MOL0     C81879  13.715   8.711   8.172  0.6419 -0.2438 -0.9233
  621MOL0     C81880  13.732   8.710   8.328 -0.5127  0.0583 -0.7871
  621MOL0     C81881  13.865   8.770   8.384 -0.2815  0.1076  0.2040
  621MOL0     C81882  13.988   8.684   8.347  0.3014  0.5778 -0.4109
  621MOL0     C81883  14.115   8.732   8.408  0.4634 -0.1404 -0.2584
  621MOL0    Cl81884  14.250   8.620   8.366  0.1113  0.4894 -0.1084
  621MOL0     C81885  13.097   8.536   7.933  0.5637  0.4950 -0.8487
  621MOL0     C81886  12.956   8.553   7.911 -0.5412  0.0615 -0.0497
  621MOL0     O81887  12.720   8.601   7.729 -0.1541 -0.4172  0.2961
  621MOL0     C81888  12.436   8.625   7.749 -0.1316  0.7576  0.8948
  621MOL0     C81889  12.302   8.609   7.782 -0.3916 -0.3725 -0.5221
  621MOL0     N81890  11.453   8.613   8.076 -0.3194 -0.5091  0.7002
  621MOL0     N81891  11.366   8.706   8.044 -0.6031  0.3067 -0.0006
  621MOL0     C81892  10.971   8.725   6.684 -0.0389  0.5256  0.0156
  621MOL0     C81893  10.892   8.642   6.600 -0.4492 -0.2857  0.5473
  621MOL0     C81894  10.751   8.255   6.432 -1.0121  0.4920 -0.7742
  621MOL0     C81895  10.616   8.249   6.402  0.4202  0.0523 -0.7866
  621MOL0     C81896  10.571   8.160   6.301  0.2247  0.4474  0.4128
  621MOL0     C81897  10.666   8.075   6.233  0.2151 -0.1396 -0.4585
  621MOL0     O81898  10.651   7.990   6.133  0.4342  0.4810  0.4061
  621MOL0     C81899  10.540   8.022   6.040 -0.5778 -0.1059 -1.1418
  621MOL0     C81900  10.535   7.912   5.938  0.0743  0.5646  0.7034
  621MOL0     C81901  10.402   7.909   5.851 -0.0436 -0.1758  0.0150
  621MOL0     C81902  10.409   7.821   5.726  0.2530 -0.2232  0.6942
  621MOL0     C81903  10.288   7.740   5.695  0.2077 -0.3743 -0.7966
  621MOL0     C81904  10.208   7.661   5.671 -0.2029  0.0179 -0.2372
  621MOL0     C81905  10.800   8.093   6.258 -0.0103  0.4291 -0.6536
  621MOL0     C81906  10.839   8.181   6.359 -1.2168  0.4612 -0.6957
  621MOL0     H81907  10.719   8.472   6.848 -1.3504  3.0703  0.6308
  621MOL0     H81908  10.845   8.634   6.983  3.9994 -1.9029  2.1909
  621MOL0     H81909  11.223   8.774   6.987 -0.1506 -0.9880  2.2772
  621MOL0     H81910  11.130   8.622   6.983  3.4846 -1.0353  2.5897
  621MOL0     H81911  10.961   8.740   7.137 -1.2018  0.2839 -1.6006
  621MOL0     H81912  11.074   8.887   7.116  3.5061 -0.7191 -2.2784
  621MOL0     H81913  11.255   8.766   7.227  0.2466 -2.4169  1.3449
  621MOL0     H81914  11.140   8.632   7.258  2.0238 -0.3430  0.6312
  621MOL0     H81915  11.143   8.920   7.359  0.2684 -1.0516  1.1785
  621MOL0     H81916  11.020   8.804   7.415 -1.1501  1.4848  3.5397
  621MOL0     H81917  11.312   8.752   7.460  0.5657  1.0276  2.4254
  621MOL0     H81918  11.173   8.648   7.508  1.8024 -0.8403 -0.6886
  621MOL0     H81919  11.098   8.868   7.637  0.6464  0.1952  3.1329
  621MOL0     H81920  11.250   8.927   7.590  4.5289 -2.2890  2.1851
  621MOL0     H81921  11.194   8.689   7.772  1.7544 -1.9527  1.3171
  621MOL0     H81922  11.350   8.711   7.685 -0.1099 -1.9009  1.7828
  621MOL0     H81923  11.259   8.872   7.911  0.5575  1.3114 -1.2679
  621MOL0     H81924  11.393   8.923   7.795  0.0609  0.7631  0.2133
  621MOL0     H81925  11.597   8.769   7.824  0.3781  0.7486  0.7769
  621MOL0     H81926  11.715   8.469   7.925 -1.2739  0.6723 -0.5373
  621MOL0     H81927  11.699   8.475   8.084 -1.2736  1.7667  1.5710
  621MOL0     H81928  11.817   8.723   8.027  0.7450  1.2584 -2.4235
  621MOL0     H81929  11.863   8.629   7.880 -1.6655  0.7637 -0.1075
  621MOL0     H81930  11.917   8.514   8.151 -0.3358  0.1965 -0.0386
  621MOL0     H81931  11.965   8.451   7.986  2.1311  1.0380  0.3350
  621MOL0     H81932  12.139   8.568   8.123  0.3862 -1.7751 -0.1545
  621MOL0     H81933  12.055   8.728   8.079  3.1100 -0.6159  1.7166
  621MOL0     H81934  12.299   8.730   8.100  0.6043 -2.2275 -0.3313
  621MOL0     H81935  12.534   8.772   8.041 -1.3318 -0.4161  0.4938
  621MOL0     H81936  12.970   8.898   7.953  2.9475  0.2922  2.3765
  621MOL0     H81937  13.183   8.849   7.997 -1.1726  0.7264 -0.1356
  621MOL0     H81938  13.404   8.483   8.096  1.4355  0.2244  0.4344
  621MOL0     H81939  13.272   8.563   8.175  2.1952  2.5154  3.3858
  621MOL0     H81940  13.468   8.621   8.268  0.2659 -1.4588 -0.8639
  621MOL0     H81941  13.445   8.767   8.160  1.6554  0.2491 -4.5278
  621MOL0     H81942  13.604   8.665   8.001  0.6689  1.5756  0.6056
  621MOL0     H81943  13.631   8.524   8.109 -3.8156 -0.4551  0.7226
  621MOL0     H81944  13.807   8.689   8.117 -0.1884 -1.0519 -2.0596
  621MOL0     H81945  13.678   8.808   8.138 -1.8957 -1.1165 -0.8735
  621MOL0     H81946  13.732   8.602   8.347  3.2625 -0.8409 -4.4446
  621MOL0     H81947  13.642   8.750   8.376 -0.2413  0.3733 -0.5299
  621MOL0     H81948  13.866   8.782   8.493  2.6837 -1.3957  0.4487
  621MOL0     H81949  13.872   8.868   8.335  1.3904 -0.3221 -0.5064
  621MOL0     H81950  13.962   8.583   8.380 -2.0209  1.5002  0.7787
  621MOL0     H81951  14.003   8.691   8.239 -0.8264  0.6166 -0.5765
  621MOL0     H81952  14.105   8.724   8.516 -2.0604  0.3374 -0.3989
  621MOL0     H81953  14.137   8.837   8.386  4.4949 -0.3293  1.8218
  621MOL0     H81954  13.141   8.436   7.928  1.3178  0.8421 -1.2897
  621MOL0     H81955  12.907   8.458   7.892  0.5318 -0.3682 -0.7542
  621MOL0     H81956  12.478   8.593   7.654  2.8527  0.3407  2.2471
  621MOL0     H81957  12.248   8.554   7.706  1.1391 -1.8527 -0.6177
  621MOL0     H81958  11.050   8.783   6.638 -0.9145  1.6674 -0.0952
  621MOL0     H81959  10.894   8.658   6.493 -0.2281 -0.0667  0.5835
  621MOL0     H81960  10.550   8.315   6.458 -0.0431 -0.1674 -1.0731
  621MOL0     H81961  10.469   8.158   6.266  0.7620 -3.0003 -1.3729
  621MOL0     H81962  10.573   8.113   5.989  1.8806  1.2685  2.4470
  621MOL0     H81963  10.445   8.018   6.094  1.3540 -1.5243  2.5023
  621MOL0     H81964  10.624   7.932   5.878  0.0059  1.0041  0.7505
  621MOL0     H81965  10.537   7.809   5.975 -1.4275  1.0257  2.1809
  621MOL0     H81966  10.367   8.011   5.833  0.6486 -0.1446 -1.2740
  621MOL0     H81967  10.341   7.853   5.922 -0.4618  0.5565  0.2439
  621MOL0     H81968  10.436   7.879   5.637  0.4638  0.3526  1.1273
  621MOL0     H81969  10.490   7.751   5.749  1.0997  0.6947  0.5890
  621MOL0     H81970  10.127   7.591   5.673 -0.3118  0.0202 -2.3046
  621MOL0     H81971  10.881   8.033   6.217  0.0054  0.1195 -0.1727
  621MOL0     H81972  10.944   8.180   6.385 -1.2779  2.6952 -0.1740
  622MOL0     O81973   9.401   2.354   3.971 -0.5004  0.5549  0.1743
  622MOL0     C81974   9.329   2.279   4.034  0.7699  0.7140 -0.6857
  622MOL0     O81975   9.195   2.269   4.016  0.1074 -1.1421  0.4379
  622MOL0     C81976   9.140   2.358   3.936 -0.1154  0.2196  0.1033
  622MOL0     C81977   9.057   2.457   3.993  0.0007 -0.3419  1.5548
  622MOL0     C81978   8.989   2.571   3.916 -0.1568  1.2478  0.0282
  622MOL0     C81979   8.994   2.570   3.783 -0.0019  1.1930  0.9420
  622MOL0     O81980   8.915   2.666   3.730  0.3768  0.0355 -0.1305
  622MOL0     C81981   8.944   2.737   3.609 -0.1404 -0.7018  0.2431
  622MOL0     C81982   8.857   2.861   3.592 -0.2095  0.3300 -0.1557
  622MOL0     C81983   8.813   2.935   3.724 -0.6540  0.2398 -0.3316
  622MOL0     C81984   8.782   3.085   3.690 -0.3987  0.3116  0.5583
  622MOL0     C81985   8.694   3.156   3.795 -0.3359 -0.9187  0.9646
  622MOL0     C81986   8.647   3.292   3.735 -0.2311  0.0544 -0.3363
  622MOL0     C81987   8.758   3.384   3.667  0.4237  0.3810  0.8560
  622MOL0     C81988   8.707   3.532   3.684 -0.6703  0.6092 -0.2969
  622MOL0     N81989   8.786   3.617   3.592 -0.3758  0.8267  1.2030
  622MOL0     C81990   8.919   3.636   3.606 -0.4467  0.9656  0.6526
  622MOL0     C81991   8.960   3.712   3.500  0.2421 -0.5435  0.5840
  622MOL0     C81992   9.099   3.772   3.463 -0.1617 -0.7507  0.6682
  622MOL0     C81993   9.088   3.923   3.414 -0.1654 -0.7937 -0.4555
  622MOL0     C81994   9.224   3.964   3.369  0.3071 -0.4918 -0.7177
  622MOL0     C81995   9.251   4.112   3.386  0.4354  0.1952  0.4782
  622MOL0     O81996   9.372   4.109   3.316  0.6019 -0.1463  0.2651
  622MOL0     C81997   9.432   4.234   3.301 -0.3299  1.1992  0.0162
  622MOL0     C81998   9.537   4.237   3.206 -0.1008 -0.3922  0.0745
  622MOL0     C81999   9.605   4.359   3.189 -0.2373 -0.4938  0.0307
  622MOL0     C82000   9.565   4.481   3.263 -0.3151  0.4969 -0.6131
  622MOL0     C82001   9.656   4.602   3.264 -0.3649  0.2096  0.2260
  622MOL0     O82002   9.586   4.714   3.312 -0.4235 -0.1757 -0.5457
  622MOL0     C82003   9.648   4.798   3.388  0.2209 -0.2721  0.0121
  622MOL0     C82004   9.636   4.790   3.523  0.6844 -0.0733 -0.0600
  622MOL0     C82005   9.695   4.873   3.617  1.0230  0.1144 -0.2101
  622MOL0     C82006   9.796   4.965   3.570 -0.3289 -0.0584 -0.1425
  622MOL0     O82007   9.866   5.045   3.654  0.3283  0.5257 -0.5452
  622MOL0     C82008   9.888   5.173   3.614  0.0650 -1.2632  0.8380
  622MOL0     C82009   9.934   5.267   3.733  0.1618  0.7392  0.4188
  622MOL0     C82010   9.837   5.246   3.847  0.8996  0.5332 -0.7524
  622MOL0     C82011   9.870   5.329   3.976  0.3451 -1.1831 -0.7523
  622MOL0     C82012   9.798   5.466   3.981 -0.5006  0.1212  0.1532
  622MOL0     C82013   9.810   5.561   3.866  0.2675 -0.6562  0.3446
  622MOL0     C82014   9.723   5.687   3.899 -0.9110  0.2719 -1.0120
  622MOL0     C82015   9.745   5.804   3.793 -0.9905 -0.2467  0.2555
  622MOL0    Cl82016   9.610   5.929   3.832 -0.0966  0.0278  0.8182
  622MOL0     C82017   9.814   4.973   3.433 -1.2937  0.7632 -0.7402
  622MOL0     C82018   9.737   4.894   3.342  0.4432  0.0500  0.3439
  622MOL0     O82019   9.776   4.599   3.231  0.7739 -0.2411 -0.4324
  622MOL0     C82020   9.458   4.474   3.346  0.7043 -0.7789 -0.3102
  622MOL0     C82021   9.381   4.354   3.361 -0.3695 -0.1316  0.0122
  622MOL0     N82022   8.840   3.735   3.424  0.6053 -1.0491  0.4148
  622MOL0     N82023   8.741   3.679   3.483  0.1590 -0.0452 -0.6553
  622MOL0     C82024   9.071   2.463   3.725 -0.5899 -0.5971 -0.1973
  622MOL0     C82025   9.144   2.366   3.793  0.3566 -0.7332 -0.4681
  622MOL0     C82026   9.385   2.201   4.143  0.5151  0.4133 -0.4453
  622MOL0     C82027   9.331   2.082   4.185  0.0564 -0.5916 -0.1528
  622MOL0     C82028   9.390   2.003   4.286  1.0533 -0.1327 -0.3156
  622MOL0     C82029   9.514   2.039   4.345 -0.1317 -0.8583  0.2424
  622MOL0     O82030   9.574   1.979   4.450  0.8965  0.8372 -0.1432
  622MOL0     C82031   9.569   1.837   4.468 -0.3358  0.2155  0.7802
  622MOL0     C82032   9.700   1.784   4.393 -1.0456  0.3126 -0.2107
  622MOL0     C82033   9.753   1.636   4.402 -0.2453 -0.6230  0.4007
  622MOL0     C82034   9.801   1.583   4.545  0.1696  0.1145  1.0886
  622MOL0     C82035   9.914   1.658   4.593  0.5936 -0.1854 -0.3039
  622MOL0     C82036  10.004   1.721   4.640  0.2220 -0.7962  0.0558
  622MOL0     C82037   9.565   2.158   4.301 -0.1630  0.4626  0.0129
  622MOL0     C82038   9.507   2.236   4.200  1.0083  0.1689 -0.5419
  622MOL0     H82039   9.043   2.458   4.100 -0.7996 -0.5334  1.4563
  622MOL0     H82040   8.924   2.638   3.972  0.1707  0.1135  1.8747
  622MOL0     H82041   8.955   2.682   3.515  3.0629 -0.1140  0.1803
  622MOL0     H82042   9.047   2.771   3.625 -0.7086  0.9718  0.6336
  622MOL0     H82043   8.772   2.854   3.524  0.6459 -2.1962 -1.0800
  622MOL0     H82044   8.919   2.934   3.539 -1.5577  1.4780 -0.1974
  622MOL0     H82045   8.892   2.947   3.799 -4.0029  1.7429  3.3304
  622MOL0     H82046   8.732   2.883   3.775 -0.1679  0.6814  0.9335
  622MOL0     H82047   8.884   3.123   3.684  2.2863 -5.6184  1.6431
  622MOL0     H82048   8.728   3.080   3.595 -0.2564  0.4006  0.4744
  622MOL0     H82049   8.752   3.158   3.887  0.3509  2.3302  0.5651
  622MOL0     H82050   8.603   3.098   3.812  0.1559 -1.2989  2.4082
  622MOL0     H82051   8.610   3.356   3.815  2.8106  3.9086 -1.7129
  622MOL0     H82052   8.566   3.272   3.664  0.6919 -1.7877 -0.9409
  622MOL0     H82053   8.859   3.384   3.709  1.3658  4.0980 -0.9814
  622MOL0     H82054   8.764   3.357   3.562  4.8101 -0.4032  1.0958
  622MOL0     H82055   8.721   3.553   3.790 -2.1542 -1.6165  0.4110
  622MOL0     H82056   8.601   3.545   3.660 -0.8634  0.0216  0.2306
  622MOL0     H82057   8.983   3.594   3.683  1.8032  3.0113  0.0030
  622MOL0     H82058   9.128   3.713   3.376 -0.6613  2.8097 -2.1678
  622MOL0     H82059   9.161   3.772   3.553 -2.7053 -0.9003  2.5094
  622MOL0     H82060   9.060   3.982   3.502 -1.1857 -0.6922 -0.8436
  622MOL0     H82061   9.015   3.943   3.335  0.1584 -0.0091 -0.5682
  622MOL0     H82062   9.298   3.908   3.427 -2.3329 -2.3940  1.0466
  622MOL0     H82063   9.223   3.935   3.263 -0.8016  1.0394 -1.1662
  622MOL0     H82064   9.261   4.137   3.492  0.7967  0.2845  0.4261
  622MOL0     H82065   9.180   4.184   3.344  1.2507  1.2539  0.8599
  622MOL0     H82066   9.576   4.152   3.151  2.3125  0.3658  0.5050
  622MOL0     H82067   9.682   4.361   3.112 -0.9934 -1.1628 -0.7575
  622MOL0     H82068   9.562   4.723   3.566  2.2865 -0.3384  2.4540
  622MOL0     H82069   9.684   4.877   3.725 -0.4463  1.4104 -0.3732
  622MOL0     H82070   9.796   5.217   3.574  0.7803  2.3424  2.8141
  622MOL0     H82071   9.964   5.193   3.538 -0.1350  0.9306  1.1791
  622MOL0     H82072   9.942   5.371   3.703  2.0544  0.7868  0.9681
  622MOL0     H82073  10.031   5.236   3.772 -0.1744  2.4179  2.7426
  622MOL0     H82074   9.844   5.146   3.890 -1.7352  0.2418 -0.8863
  622MOL0     H82075   9.732   5.254   3.820  1.4325  0.0490 -3.2165
  622MOL0     H82076   9.831   5.277   4.064  0.7272  0.5795  0.5170
  622MOL0     H82077   9.978   5.347   3.981  0.1296  0.7909 -2.4229
  622MOL0     H82078   9.847   5.512   4.068 -0.3490  0.9955 -0.3856
  622MOL0     H82079   9.692   5.446   3.997 -0.6577 -0.0225 -0.9772
  622MOL0     H82080   9.755   5.509   3.787 -0.5614 -1.8417  1.6611
  622MOL0     H82081   9.913   5.588   3.839  0.7733 -1.0619  1.7657
  622MOL0     H82082   9.622   5.643   3.899  0.6538 -4.1308  2.5164
  622MOL0     H82083   9.731   5.727   4.000  3.8271 -0.1805 -1.0026
  622MOL0     H82084   9.735   5.778   3.687 -0.5478  0.7744 -0.0451
  622MOL0     H82085   9.844   5.847   3.808 -0.6889 -0.5906 -0.6913
  622MOL0     H82086   9.895   5.033   3.394  0.9432  1.4608  4.2768
  622MOL0     H82087   9.745   4.924   3.238  0.9020  5.0393  1.5542
  622MOL0     H82088   9.429   4.561   3.404 -1.0665 -0.7481 -1.1712
  622MOL0     H82089   9.310   4.332   3.439 -2.2140  1.8076 -1.0198
  622MOL0     H82090   9.063   2.459   3.617 -0.5037 -2.0914 -0.1657
  622MOL0     H82091   9.190   2.277   3.750 -0.6766 -1.2945 -0.4507
  622MOL0     H82092   9.240   2.046   4.138 -1.0630  0.7215  0.9444
  622MOL0     H82093   9.346   1.909   4.317  4.6355 -1.5401  0.9234
  622MOL0     H82094   9.468   1.807   4.441 -0.9701  2.0790  0.9385
  622MOL0     H82095   9.580   1.823   4.576 -0.3812 -2.7026  0.4724
  622MOL0     H82096   9.660   1.787   4.291  0.2482  0.8033 -0.7283
  622MOL0     H82097   9.786   1.851   4.386  0.0027 -0.7310  1.8125
  622MOL0     H82098   9.836   1.627   4.332  0.9099  3.3539  1.0365
  622MOL0     H82099   9.674   1.577   4.356 -1.0226  0.8680 -0.2172
  622MOL0     H82100   9.711   1.592   4.606 -0.7246  1.1389 -0.3099
  622MOL0     H82101   9.830   1.478   4.542  0.8840  0.3110 -1.0528
  622MOL0     H82102  10.095   1.774   4.658 -0.9123  1.4715 -0.5042
  622MOL0     H82103   9.647   2.203   4.356 -0.1088 -1.6611  1.8287
  622MOL0     H82104   9.548   2.330   4.163 -2.1280 -0.0701 -5.5475
  623MOL0     O82105   4.060   4.717   1.235 -0.2634  0.2718  0.9632
  623MOL0     C82106   4.037   4.780   1.127  0.2435  0.7015 -0.4265
  623MOL0     O82107   3.915   4.800   1.070  1.0174  0.1907 -0.1888
  623MOL0     C82108   3.800   4.745   1.135 -0.3908  0.0361 -0.4213
  623MOL0     C82109   3.696   4.829   1.176 -0.3092 -0.8745  1.1688
  623MOL0     C82110   3.575   4.772   1.208  0.7316  0.5517 -0.6512
  623MOL0     C82111   3.554   4.633   1.199  0.5035 -0.1418 -0.3581
  623MOL0     O82112   3.438   4.581   1.240  0.1498  0.7456 -0.3429
  623MOL0     C82113   3.437   4.436   1.269 -0.9397  0.8907 -0.1588
  623MOL0     C82114   3.293   4.387   1.282  0.3401  0.1762 -0.3001
  623MOL0     C82115   3.227   4.461   1.407  0.3634 -0.2357  1.6319
  623MOL0     C82116   3.082   4.409   1.427 -0.3283 -0.7277 -0.4392
  623MOL0     C82117   3.011   4.482   1.543  0.2325 -0.1724 -0.1415
  623MOL0     C82118   2.979   4.626   1.502  0.4051  0.1153 -0.1128
  623MOL0     C82119   2.908   4.701   1.614 -0.2520  1.3293  0.4050
  623MOL0     C82120   2.857   4.839   1.569  0.3269  0.4774 -0.0467
  623MOL0     N82121   2.724   4.833   1.500  0.0327  0.0170 -0.0679
  623MOL0     C82122   2.598   4.862   1.557  0.1656  0.7601  0.4450
  623MOL0     C82123   2.509   4.863   1.455 -0.2607  0.0267 -0.9997
  623MOL0     C82124   2.366   4.905   1.480 -0.1462  0.5585  0.1785
  623MOL0     C82125   2.299   4.979   1.360 -0.3142  1.5981 -0.1902
  623MOL0     C82126   2.223   4.874   1.276  0.9003 -0.0962  0.5168
  623MOL0     C82127   2.087   4.826   1.334 -0.6109  0.4613  0.4202
  623MOL0     O82128   2.012   4.767   1.224  0.5127 -0.5660 -0.5134
  623MOL0     C82129   1.921   4.846   1.152 -0.0940  0.3221  0.0957
  623MOL0     C82130   1.874   4.967   1.202  0.0549 -0.1666  0.0715
  623MOL0     C82131   1.793   5.056   1.121 -0.0969 -1.2958  0.6551
  623MOL0     C82132   1.763   5.019   0.989  0.4149 -0.1419 -0.0335
  623MOL0     C82133   1.650   5.096   0.927  0.2147 -0.2322  0.2210
  623MOL0     O82134   1.618   5.043   0.810 -0.4009  0.1469  0.0986
  623MOL0     C82135   1.506   5.074   0.752 -1.1725 -0.6717  0.0636
  623MOL0     C82136   1.383   5.126   0.809 -0.1418 -0.5334  0.1232
  623MOL0     C82137   1.279   5.148   0.721  0.0848  0.6356 -0.1118
  623MOL0     C82138   1.285   5.135   0.583 -0.3728  0.2039  0.3831
  623MOL0     O82139   1.165   5.155   0.516  0.2929  0.8507 -0.3446
  623MOL0     C82140   1.168   5.166   0.374 -0.3352 -0.0321  0.4665
  623MOL0     C82141   1.023   5.185   0.333 -0.0182  0.5717  0.2332
  623MOL0     C82142   0.981   5.330   0.317 -0.5267 -0.9912 -0.0361
  623MOL0     C82143   0.855   5.335   0.237 -0.0687 -0.5720  0.7776
  623MOL0     C82144   0.822   5.478   0.213  0.1186 -0.6203 -0.1151
  623MOL0     C82145   0.813   5.578   0.331 -0.9913 -0.9786 -0.4525
  623MOL0     C82146   0.688   5.659   0.313  0.0743 -0.3025  0.0805
  623MOL0     C82147   0.699   5.792   0.384 -0.6564  0.7568 -0.4712
  623MOL0    Cl82148   0.705   5.787   0.568 -0.0304 -0.1974 -0.3046
  623MOL0     C82149   1.405   5.083   0.534  0.8827  0.6547 -0.6181
  623MOL0     C82150   1.504   5.048   0.617 -0.6328  0.2358 -0.4513
  623MOL0     O82151   1.602   5.194   0.983 -0.1419 -0.6340  0.6317
  623MOL0     C82152   1.810   4.897   0.940 -0.4705  0.1016  0.0267
  623MOL0     C82153   1.898   4.815   1.014 -0.4253 -0.7842 -1.1843
  623MOL0     N82154   2.584   4.837   1.347 -0.1053  0.1098  0.3518
  623MOL0     N82155   2.705   4.808   1.369  0.0288  0.1744 -0.2966
  623MOL0     C82156   3.657   4.555   1.147 -1.4842 -0.8910  0.0909
  623MOL0     C82157   3.774   4.609   1.113 -0.1164 -1.0807 -0.2725
  623MOL0     C82158   4.152   4.842   1.058  0.5076 -0.4188 -0.2272
  623MOL0     C82159   4.280   4.853   1.114 -0.0003  0.1951  0.2432
  623MOL0     C82160   4.387   4.918   1.052  0.3166  1.0332  0.1813
  623MOL0     C82161   4.366   4.978   0.927 -0.9694 -1.6445  0.6660
  623MOL0     O82162   4.461   5.042   0.851  0.2667  0.3000 -0.8488
  623MOL0     C82163   4.583   5.081   0.925 -0.0976  0.1601  0.3828
  623MOL0     C82164   4.679   5.145   0.820 -0.1129 -0.0141 -0.1355
  623MOL0     C82165   4.819   5.163   0.887  0.7371 -0.9843  0.0287
  623MOL0     C82166   4.833   5.270   0.998 -0.0236 -0.3663  0.4532
  623MOL0     C82167   4.751   5.393   0.982  0.4340 -0.1558  0.0855
  623MOL0     C82168   4.660   5.475   0.983 -0.0984 -0.9823 -0.3929
  623MOL0     C82169   4.236   4.982   0.871 -0.1641  0.0435 -0.6440
  623MOL0     C82170   4.133   4.899   0.925 -0.5118  0.0391 -0.6058
  623MOL0     H82171   3.706   4.937   1.171 -0.2045 -0.8765 -4.2882
  623MOL0     H82172   3.490   4.834   1.235  2.5343  3.2382 -0.7362
  623MOL0     H82173   3.487   4.399   1.359  1.9537 -2.5186 -2.8666
  623MOL0     H82174   3.486   4.388   1.184 -2.1004 -2.2990  0.7978
  623MOL0     H82175   3.302   4.282   1.309 -1.1341 -0.5847 -2.4510
  623MOL0     H82176   3.236   4.399   1.189 -0.6711  1.2812  0.4413
  623MOL0     H82177   3.225   4.568   1.383 -0.5175 -0.7054 -0.6779
  623MOL0     H82178   3.291   4.459   1.496  3.1830 -0.9048 -0.2884
  623MOL0     H82179   3.020   4.424   1.338 -0.4199 -1.2173 -0.4606
  623MOL0     H82180   3.077   4.303   1.451  1.8432 -0.4728  1.4923
  623MOL0     H82181   3.073   4.485   1.633 -1.0956  1.6223  0.7874
  623MOL0     H82182   2.916   4.435   1.568 -2.8694  5.2850 -0.1100
  623MOL0     H82183   2.921   4.635   1.410 -0.2752 -0.4402  0.2535
  623MOL0     H82184   3.071   4.680   1.477  0.7764 -0.4223  0.0824
  623MOL0     H82185   2.827   4.641   1.656 -1.9282  2.7466 -0.6991
  623MOL0     H82186   2.983   4.718   1.692  0.7098 -2.4805  0.5089
  623MOL0     H82187   2.928   4.897   1.509 -0.0020  0.0287 -0.8898
  623MOL0     H82188   2.834   4.889   1.663 -0.3709 -1.1504  0.6758
  623MOL0     H82189   2.588   4.884   1.663  1.9277  0.4745  0.7028
  623MOL0     H82190   2.364   4.982   1.558  1.3308 -0.3458  1.1693
  623MOL0     H82191   2.311   4.812   1.498  1.5862 -0.7845 -1.2367
  623MOL0     H82192   2.375   5.026   1.297 -0.6685  0.4857 -1.4870
  623MOL0     H82193   2.231   5.057   1.397 -1.3524  2.0122 -2.7630
  623MOL0     H82194   2.205   4.923   1.180  3.3752 -0.6194 -0.2791
  623MOL0     H82195   2.287   4.789   1.253 -1.1747 -1.1528 -1.8330
  623MOL0     H82196   2.037   4.911   1.382  0.8938 -0.2806  3.5712
  623MOL0     H82197   2.106   4.749   1.408  0.5422 -4.3955 -4.2965
  623MOL0     H82198   1.897   5.011   1.298  0.5593 -1.2087  0.4437
  623MOL0     H82199   1.769   5.155   1.158  0.8901  0.5888 -3.2237
  623MOL0     H82200   1.377   5.162   0.911  0.5501  4.2009 -1.2671
  623MOL0     H82201   1.183   5.193   0.743  1.2054  2.4056  1.5684
  623MOL0     H82202   1.219   5.086   0.320  0.3328  0.3621  0.5110
  623MOL0     H82203   1.220   5.260   0.353  0.9348 -0.9960 -0.9016
  623MOL0     H82204   0.961   5.124   0.398 -0.9601  0.6410 -0.5728
  623MOL0     H82205   1.004   5.131   0.240 -0.1825 -0.5614  0.9151
  623MOL0     H82206   1.053   5.379   0.250  0.5601 -0.8878  1.1544
  623MOL0     H82207   0.973   5.387   0.410  5.0400  1.2785 -0.5633
  623MOL0     H82208   0.868   5.278   0.145 -2.0390 -1.2973  0.8980
  623MOL0     H82209   0.772   5.297   0.298  0.2210 -2.0506  0.2831
  623MOL0     H82210   0.723   5.482   0.166  0.6505  0.5098 -1.1862
  623MOL0     H82211   0.893   5.527   0.146 -0.7655  0.4824 -0.2814
  623MOL0     H82212   0.903   5.641   0.333 -1.8664  0.5155 -3.1917
  623MOL0     H82213   0.809   5.514   0.419  1.1272 -3.8239 -2.2671
  623MOL0     H82214   0.687   5.686   0.207 -0.3161  1.2156  0.4506
  623MOL0     H82215   0.601   5.607   0.355  1.1868 -1.4884  1.0294
  623MOL0     H82216   0.603   5.843   0.374 -0.8126  0.4917 -0.3181
  623MOL0     H82217   0.774   5.862   0.345  0.0781  0.1258 -0.2254
  623MOL0     H82218   1.412   5.076   0.426  1.8954  2.0802 -0.6679
  623MOL0     H82219   1.589   5.001   0.569  0.2306  0.8713  0.4086
  623MOL0     H82220   1.785   4.855   0.843  0.4180  1.3374 -0.7832
  623MOL0     H82221   1.940   4.720   0.982  0.1209 -0.9051 -0.1453
  623MOL0     H82222   3.645   4.453   1.112 -1.7290 -1.6673  2.2465
  623MOL0     H82223   3.854   4.550   1.069  0.6076 -1.5268  1.5524
  623MOL0     H82224   4.296   4.827   1.218  0.7484  0.1846  0.1334
  623MOL0     H82225   4.485   4.909   1.098  0.0333 -2.1847  0.3196
  623MOL0     H82226   4.637   4.996   0.967 -0.8637 -2.6266 -3.7008
  623MOL0     H82227   4.567   5.154   1.005 -0.6839 -1.9580  2.3193
  623MOL0     H82228   4.691   5.078   0.734 -1.1069 -2.6013  1.6357
  623MOL0     H82229   4.627   5.237   0.790  1.0070  0.2901 -1.2408
  623MOL0     H82230   4.887   5.193   0.807 -1.4589  1.5279 -1.0215
  623MOL0     H82231   4.862   5.070   0.926  1.4929  0.7221  3.7320
  623MOL0     H82232   4.795   5.220   1.088  0.9336 -1.4480  0.2729
  623MOL0     H82233   4.940   5.292   1.003  0.2393 -0.7159 -2.2992
  623MOL0     H82234   4.581   5.548   0.979  1.4149  0.6691 -1.9668
  623MOL0     H82235   4.220   5.030   0.775  1.3398 -0.7049 -1.2993
  623MOL0     H82236   4.044   4.900   0.862  0.9565  0.6124 -2.7803
  624MOL0     O82237   9.915   2.250  10.254 -0.1298 -0.1849 -0.8208
  624MOL0     C82238   9.891   2.313  10.358 -0.9560 -0.0439  1.0706
  624MOL0     O82239   9.782   2.290  10.436 -0.8534 -0.7413 -1.0005
  624MOL0     C82240   9.703   2.182  10.403 -0.1132  0.1097 -0.8943
  624MOL0     C82241   9.637   2.174  10.283  0.1448 -1.0945 -0.4897
  624MOL0     C82242   9.535   2.079  10.265 -0.3083 -0.0790 -0.1733
  624MOL0     C82243   9.508   1.984  10.366  0.7993  0.4670  0.1552
  624MOL0     O82244   9.412   1.890  10.367 -0.4923  0.6280 -0.0274
  624MOL0     C82245   9.371   1.855  10.232  0.7413  0.0335 -0.2261
  624MOL0     C82246   9.229   1.774  10.252 -0.2851 -0.7231  0.0178
  624MOL0     C82247   9.189   1.705  10.127  0.6377  1.1515 -0.0612
  624MOL0     C82248   9.079   1.597  10.150  0.4825 -0.1295  0.5232
  624MOL0     C82249   9.085   1.496  10.263 -0.3174 -0.1065 -0.6793
  624MOL0     C82250   8.963   1.409  10.272 -0.2592 -0.0506 -0.9474
  624MOL0     C82251   8.971   1.298  10.382 -0.0791 -0.1576  0.5412
  624MOL0     C82252   9.059   1.179  10.330 -0.6992 -0.3286  1.0197
  624MOL0     N82253   9.101   1.080  10.428  0.0262 -0.0235  0.0575
  624MOL0     C82254   9.017   1.000  10.497 -0.2778  0.6348  0.4052
  624MOL0     C82255   9.099   0.901  10.558  0.3619  0.4179  0.1554
  624MOL0     C82256   9.037   0.791  10.649  0.4159  0.0902 -0.2084
  624MOL0     C82257   8.932   0.708  10.567  0.6669 -0.2460  0.4304
  624MOL0     C82258   8.976   0.676  10.426  0.2379  0.4628 -0.3751
  624MOL0     C82259   9.108   0.591  10.431  0.3214 -0.1303  0.7170
  624MOL0     O82260   9.078   0.462  10.498 -0.1479 -0.2978 -0.1003
  624MOL0     C82261   9.188   0.385  10.522  0.1257  0.2196  0.0556
  624MOL0     C82262   9.272   0.325  10.417  0.0067  0.6486 -0.4837
  624MOL0     C82263   9.378   0.246  10.448 -0.1403 -0.0216 -0.0804
  624MOL0     C82264   9.416   0.236  10.583  0.2155 -0.9391  0.2100
  624MOL0     C82265   9.530   0.159  10.622  0.0615  0.6742 -1.0124
  624MOL0     O82266   9.566   0.165  10.762  0.5083  0.6298 -0.7639
  624MOL0     C82267   9.669   0.072  10.799 -0.2447 -0.9765  0.0766
  624MOL0     C82268   9.652  -0.067  10.827 -0.1250  0.9038  0.3360
  624MOL0     C82269   9.754  -0.146  10.866 -0.2070 -0.1153  0.1098
  624MOL0     C82270   9.881  -0.101  10.880 -0.1655 -0.8162  0.4260
  624MOL0     O82271   9.987  -0.182  10.901 -0.1475  1.0197 -0.2724
  624MOL0     C82272  10.004  -0.296  10.812  0.5894  0.4299  1.3925
  624MOL0     C82273  10.141  -0.378  10.842 -0.2186  0.6917  0.2090
  624MOL0     C82274  10.151  -0.496  10.755 -0.0819  0.9401 -0.0775
  624MOL0     C82275  10.286  -0.555  10.770 -0.2991 -0.7661  0.3949
  624MOL0     C82276  10.311  -0.675  10.673 -0.6648  0.4992  0.5421
  624MOL0     C82277  10.239  -0.801  10.704  0.5123  0.2257 -0.5777
  624MOL0     C82278  10.288  -0.878  10.827  0.3364  0.4468  0.0303
  624MOL0     C82279  10.189  -0.985  10.871 -0.0172  1.1037  0.2406
  624MOL0    Cl82280  10.159  -1.114  10.753 -0.4054  0.2376  0.7473
  624MOL0     C82281   9.906   0.034  10.870 -0.0045 -0.2414  1.3017
  624MOL0     C82282   9.802   0.124  10.824  0.9590  0.8520  0.1977
  624MOL0     O82283   9.600   0.107  10.534  0.2578  0.1133  0.0348
  624MOL0     C82284   9.346   0.303  10.682 -0.2885  0.1633 -0.1011
  624MOL0     C82285   9.235   0.381  10.653 -0.3016  0.5586  0.0930
  624MOL0     N82286   9.232   0.942  10.526  0.2507 -0.6704  0.3721
  624MOL0     N82287   9.226   1.050  10.456  0.1907 -0.7080 -1.2091
  624MOL0     C82288   9.580   1.995  10.480 -0.0742 -0.0519  0.1640
  624MOL0     C82289   9.677   2.088  10.501 -1.1435  0.4083  0.1436
  624MOL0     C82290  10.007   2.395  10.405  0.1129  0.9115 -0.2621
  624MOL0     C82291  10.105   2.439  10.320  0.7929 -0.2425 -0.0722
  624MOL0     C82292  10.205   2.521  10.362  0.3350 -0.4980 -0.4666
  624MOL0     C82293  10.204   2.568  10.493  0.4667  0.0750  0.6314
  624MOL0     O82294  10.297   2.666  10.516 -0.6013 -0.6322  0.1604
  624MOL0     C82295  10.299   2.737  10.645 -0.5970  0.2585  0.4397
  624MOL0     C82296  10.434   2.809  10.679  0.2736 -0.9032  0.0097
  624MOL0     C82297  10.559   2.713  10.707  0.6659  0.2766 -0.0794
  624MOL0     C82298  10.554   2.644  10.846  0.5214  0.4314  0.0822
  624MOL0     C82299  10.527   2.737  10.953  0.0453  1.3318 -0.7363
  624MOL0     C82300  10.512   2.829  11.037  0.7484  0.6626  0.3037
  624MOL0     C82301  10.105   2.524  10.579 -0.2869 -0.0538  0.5893
  624MOL0     C82302  10.012   2.430  10.540  0.9665  0.8094  0.3427
  624MOL0     H82303   9.668   2.244  10.206 -0.6432  0.6813  0.7407
  624MOL0     H82304   9.477   2.083  10.173  0.3170 -1.6247 -0.6683
  624MOL0     H82305   9.443   1.805  10.166 -1.1197  1.7631 -3.8933
  624MOL0     H82306   9.337   1.945  10.180 -0.7391 -1.5703 -2.2588
  624MOL0     H82307   9.148   1.838  10.289 -0.4475 -1.6271  1.2582
  624MOL0     H82308   9.250   1.712  10.339 -3.9917  0.1868  1.7575
  624MOL0     H82309   9.284   1.662  10.094  0.3001 -0.2515  0.7260
  624MOL0     H82310   9.164   1.779  10.050  2.8776  1.2054 -0.7964
  624MOL0     H82311   8.981   1.645  10.158  0.3081  0.1227 -2.1264
  624MOL0     H82312   9.077   1.541  10.056 -0.1201 -0.5195  0.7630
  624MOL0     H82313   9.099   1.544  10.360  0.2655 -0.5065 -0.5579
  624MOL0     H82314   9.175   1.441  10.234 -2.2533 -3.0724 -1.5417
  624MOL0     H82315   8.957   1.359  10.175  0.9603 -1.0095 -0.5528
  624MOL0     H82316   8.871   1.462  10.300  0.9806  1.9493 -0.4942
  624MOL0     H82317   9.013   1.333  10.477 -0.2749  1.4780  0.0584
  624MOL0     H82318   8.876   1.254  10.412 -0.3902 -0.1654 -0.4212
  624MOL0     H82319   9.150   1.227  10.294 -1.1803  0.2150  0.5046
  624MOL0     H82320   9.009   1.144  10.239  1.5074 -0.3834 -0.2160
  624MOL0     H82321   8.909   1.008  10.493 -0.1956  1.1123 -1.9747
  624MOL0     H82322   8.984   0.831  10.736 -0.0602 -1.8633  0.4382
  624MOL0     H82323   9.110   0.727  10.697 -0.3111  0.3297  1.2589
  624MOL0     H82324   8.836   0.760  10.555  0.4532 -1.1781 -2.8023
  624MOL0     H82325   8.915   0.620  10.630 -0.9051 -0.4434 -0.2224
  624MOL0     H82326   8.895   0.624  10.374  1.0046 -1.3798  0.1975
  624MOL0     H82327   9.003   0.767  10.372  0.6570  0.1495 -0.6991
  624MOL0     H82328   9.184   0.644  10.489 -1.6160  2.5138  1.0058
  624MOL0     H82329   9.138   0.581  10.326 -1.1557  0.1315  0.2513
  624MOL0     H82330   9.257   0.342  10.311  1.8026  3.7418 -0.3868
  624MOL0     H82331   9.450   0.186  10.395 -0.1796 -1.4894  1.4509
  624MOL0     H82332   9.553  -0.113  10.822 -0.3725  1.4428  0.1791
  624MOL0     H82333   9.730  -0.248  10.895 -0.3211 -1.5146 -4.1708
  624MOL0     H82334   9.999  -0.267  10.707 -0.0336  4.1192  2.2852
  624MOL0     H82335   9.921  -0.366  10.831  0.5527  0.7179  2.3166
  624MOL0     H82336  10.153  -0.410  10.946 -0.7764  1.0249  0.3828
  624MOL0     H82337  10.217  -0.303  10.820  1.9375 -1.4304 -0.0363
  624MOL0     H82338  10.137  -0.477  10.648 -1.7314  0.7244  0.0805
  624MOL0     H82339  10.074  -0.569  10.782 -1.4845  2.4850  0.2549
  624MOL0     H82340  10.357  -0.474  10.750 -1.5136 -0.1245 -1.6289
  624MOL0     H82341  10.295  -0.582  10.875 -2.4926 -3.7043 -0.0491
  624MOL0     H82342  10.418  -0.694  10.677 -0.7980 -0.5541 -0.4314
  624MOL0     H82343  10.295  -0.638  10.572  2.3413  1.1794  0.2342
  624MOL0     H82344  10.258  -0.869  10.620 -2.1243 -1.3099 -0.0705
  624MOL0     H82345  10.132  -0.777  10.708  0.5389  0.1293  1.3249
  624MOL0     H82346  10.389  -0.906  10.797  0.5497 -0.9353  1.8647
  624MOL0     H82347  10.302  -0.808  10.910 -0.2580  2.3018 -1.3525
  624MOL0     H82348  10.098  -0.931  10.899 -0.0342  0.2322  1.9808
  624MOL0     H82349  10.224  -1.027  10.966 -1.6390 -0.1120  0.3502
  624MOL0     H82350  10.008   0.071  10.876 -1.1539  3.3624  0.8536
  624MOL0     H82351   9.825   0.230  10.819 -2.7809  1.8909  1.6950
  624MOL0     H82352   9.361   0.283  10.788  0.5659 -1.3540 -0.4805
  624MOL0     H82353   9.191   0.430  10.739  0.1327  0.8046  0.1800
  624MOL0     H82354   9.541   1.929  10.557  1.7823 -1.8777 -0.3784
  624MOL0     H82355   9.720   2.101  10.600 -2.7620 -0.6745  1.0315
  624MOL0     H82356  10.093   2.416  10.214  0.0400 -2.5255  0.4537
  624MOL0     H82357  10.289   2.537  10.296  2.8687  3.1769  3.1538
  624MOL0     H82358  10.270   2.670  10.726  1.8455 -0.1500  1.0454
  624MOL0     H82359  10.227   2.819  10.635 -0.1913  0.5442 -0.1671
  624MOL0     H82360  10.453   2.874  10.593 -4.0856 -2.5868 -2.5946
  624MOL0     H82361  10.414   2.870  10.768  1.1814  0.8207 -0.9140
  624MOL0     H82362  10.649   2.774  10.701  0.6242  0.1851 -3.0626
  624MOL0     H82363  10.568   2.641  10.624 -0.7893 -0.4437  0.3568
  624MOL0     H82364  10.468   2.577  10.839  0.7471  0.2756 -3.5805
  624MOL0     H82365  10.644   2.591  10.879 -0.9826 -1.2210  1.7321
  624MOL0     H82366  10.478   2.916  11.089  0.0219  0.0871  0.8197
  624MOL0     H82367  10.102   2.540  10.687 -1.8893 -1.9990  0.8967
  624MOL0     H82368   9.938   2.383  10.604 -0.9314 -2.3355 -3.6767
  625MOL0     O82369  10.329   4.579   0.244  0.1698 -0.5776  0.4887
  625MOL0     C82370  10.347   4.479   0.179 -0.4819 -0.8320  0.0163
  625MOL0     O82371  10.275   4.439   0.069 -0.2048  0.3229 -0.9073
  625MOL0     C82372  10.196   4.538   0.011 -0.7139  0.3176 -0.4900
  625MOL0     C82373  10.267   4.646  -0.045 -0.2057 -0.0910 -1.0020
  625MOL0     C82374  10.197   4.743  -0.108  0.7987 -0.0964 -0.1410
  625MOL0     C82375  10.058   4.723  -0.141 -0.7055 -0.5389  0.7841
  625MOL0     O82376   9.999   4.810  -0.227  0.2904  1.0104 -0.4981
  625MOL0     C82377   9.957   4.928  -0.162 -0.0033  0.6923 -0.1862
  625MOL0     C82378   9.868   4.993  -0.262 -0.1846 -0.8426 -0.0740
  625MOL0     C82379   9.885   5.141  -0.291 -0.5010 -0.5110  0.6203
  625MOL0     C82380   9.870   5.229  -0.174  0.2528 -0.3176  0.3065
  625MOL0     C82381   9.885   5.374  -0.222  0.0420  1.1995  0.1755
  625MOL0     C82382   9.894   5.462  -0.101 -0.1918  1.0759  0.2752
  625MOL0     C82383   9.871   5.610  -0.131 -0.0946  0.8199  0.6650
  625MOL0     C82384   9.991   5.670  -0.217  0.0033  0.2993 -0.5146
  625MOL0     N82385   9.941   5.782  -0.283  0.1823 -1.3811  0.5408
  625MOL0     C82386   9.936   5.818  -0.417 -0.7916  0.4904  0.7049
  625MOL0     C82387   9.929   5.948  -0.435  0.7742 -0.2893  0.0542
  625MOL0     C82388   9.964   6.032  -0.560  0.1038 -0.0410  0.0078
  625MOL0     C82389   9.822   6.079  -0.618 -0.5431 -0.2513  0.9201
  625MOL0     C82390   9.848   6.159  -0.746 -0.4706 -0.1386 -0.0429
  625MOL0     C82391   9.733   6.222  -0.828 -0.2056 -0.9116  0.1178
  625MOL0     O82392   9.637   6.289  -0.744  0.1524  0.0325  0.7004
  625MOL0     C82393   9.657   6.414  -0.704  0.0784  0.3086  0.3622
  625MOL0     C82394   9.568   6.464  -0.602  1.2714  1.1859  0.4212
  625MOL0     C82395   9.584   6.590  -0.548 -0.8348 -0.2052  0.3165
  625MOL0     C82396   9.701   6.661  -0.581  0.4904  0.5098  0.0993
  625MOL0     C82397   9.725   6.789  -0.518  0.5211 -0.4616 -0.1580
  625MOL0     O82398   9.778   6.889  -0.595 -0.2413  0.5265  0.4499
  625MOL0     C82399   9.760   7.017  -0.560 -1.5339  0.4303  1.1943
  625MOL0     C82400   9.639   7.072  -0.565  0.6128  0.5145 -0.9002
  625MOL0     C82401   9.617   7.208  -0.543 -0.6209 -0.7022  1.2077
  625MOL0     C82402   9.721   7.296  -0.522 -0.0960  0.5735 -0.0678
  625MOL0     O82403   9.718   7.424  -0.510 -0.1128  0.2519 -0.0891
  625MOL0     C82404   9.598   7.498  -0.537 -0.1002 -0.3785  0.3396
  625MOL0     C82405   9.635   7.642  -0.501 -0.7688  0.6066 -1.1991
  625MOL0     C82406   9.505   7.729  -0.486 -0.6701  0.2292  0.6533
  625MOL0     C82407   9.525   7.856  -0.400  0.8811 -0.2235 -0.3397
  625MOL0     C82408   9.617   7.960  -0.465 -0.1070  0.9596  0.3302
  625MOL0     C82409   9.658   8.072  -0.354 -0.5827  0.5628  0.1480
  625MOL0     C82410   9.795   8.122  -0.400  0.5078  0.8602  0.3956
  625MOL0     C82411   9.875   8.208  -0.303 -0.0210  0.5117  0.3864
  625MOL0    Cl82412   9.804   8.376  -0.285  0.0419  0.0878 -0.2790
  625MOL0     C82413   9.849   7.234  -0.516 -0.7677 -0.6566  0.5169
  625MOL0     C82414   9.869   7.102  -0.549 -0.3072  0.3832  0.5770
  625MOL0     O82415   9.690   6.801  -0.403 -0.0268  0.0609  0.8543
  625MOL0     C82416   9.789   6.612  -0.676 -0.0594  0.8548  0.1205
  625MOL0     C82417   9.762   6.494  -0.742 -0.1550  0.0367 -0.5053
  625MOL0     N82418   9.907   5.999  -0.312  0.6933 -0.7908  0.0409
  625MOL0     N82419   9.897   5.902  -0.226 -0.3751 -0.3021 -0.5199
  625MOL0     C82420   9.988   4.608  -0.097 -0.5223 -0.7951  0.0596
  625MOL0     C82421  10.062   4.520  -0.011 -1.1115 -0.5655 -0.3911
  625MOL0     C82422  10.430   4.380   0.245 -0.1320 -0.2232  0.2241
  625MOL0     C82423  10.418   4.243   0.218  0.7159  0.0620  1.1219
  625MOL0     C82424  10.485   4.149   0.296 -1.0715 -0.8537  0.3331
  625MOL0     C82425  10.581   4.194   0.385 -0.2177  1.5209  0.7529
  625MOL0     O82426  10.656   4.097   0.450  0.2947  0.5132  0.7822
  625MOL0     C82427  10.755   4.129   0.551  0.9900  0.0083 -0.1465
  625MOL0     C82428  10.890   4.122   0.469  0.1523  0.2529 -0.3483
  625MOL0     C82429  10.918   3.980   0.401  0.5986 -0.9492 -0.8940
  625MOL0     C82430  10.920   3.868   0.494 -0.3310  0.2574 -0.2596
  625MOL0     C82431  10.970   3.743   0.437  0.6030 -0.2665  0.0860
  625MOL0     C82432  11.019   3.649   0.377  0.0279 -0.1435 -0.9022
  625MOL0     C82433  10.601   4.330   0.405 -0.5705  0.9762  0.0665
  625MOL0     C82434  10.527   4.418   0.330 -0.4897  0.4982 -0.2317
  625MOL0     H82435  10.373   4.666  -0.037 -0.0070 -1.0148 -1.2217
  625MOL0     H82436  10.246   4.824  -0.160 -0.1609  0.8621  0.4037
  625MOL0     H82437  10.051   4.982  -0.145  1.2549 -1.6821  0.8506
  625MOL0     H82438   9.906   4.924  -0.066 -0.6336  0.5574 -0.5237
  625MOL0     H82439   9.769   4.973  -0.221 -0.2714 -3.0365 -1.2119
  625MOL0     H82440   9.863   4.944  -0.360  2.8444  0.0111 -0.7825
  625MOL0     H82441   9.811   5.167  -0.367 -0.0155  1.4973  0.7795
  625MOL0     H82442   9.984   5.152  -0.336 -0.2944 -2.8595  0.3615
  625MOL0     H82443   9.774   5.211  -0.125 -0.0895  1.1828  0.2353
  625MOL0     H82444   9.952   5.218  -0.103  1.9563  2.4969 -1.0350
  625MOL0     H82445   9.805   5.398  -0.292 -0.9369 -0.4929  0.6585
  625MOL0     H82446   9.979   5.392  -0.275  0.7869  0.3245  1.1501
  625MOL0     H82447   9.989   5.433  -0.054  2.8185  0.1707 -5.3918
  625MOL0     H82448   9.810   5.431  -0.039 -1.1506 -0.5376 -1.7255
  625MOL0     H82449   9.777   5.626  -0.186  0.2164 -0.1541 -0.1759
  625MOL0     H82450   9.856   5.660  -0.035 -0.7510  0.0146  0.9911
  625MOL0     H82451  10.019   5.603  -0.299 -1.8906  0.2548 -1.1743
  625MOL0     H82452  10.084   5.698  -0.166  3.7072 -1.7085 -5.2996
  625MOL0     H82453   9.945   5.751  -0.501 -0.6540  0.0826  1.0414
  625MOL0     H82454  10.034   5.981  -0.626  0.2346 -0.2519  0.3066
  625MOL0     H82455  10.018   6.123  -0.532 -0.1426 -0.7193  3.0520
  625MOL0     H82456   9.799   6.155  -0.543 -0.8276 -1.6306  2.2832
  625MOL0     H82457   9.743   6.004  -0.619 -2.3305  1.4917 -1.7141
  625MOL0     H82458   9.925   6.231  -0.716 -0.7833  0.4846 -0.7099
  625MOL0     H82459   9.896   6.090  -0.816 -1.5553 -1.7194  0.7042
  625MOL0     H82460   9.678   6.142  -0.879 -0.4929 -0.1727 -0.7485
  625MOL0     H82461   9.770   6.289  -0.906 -1.7886 -2.9949 -2.5922
  625MOL0     H82462   9.483   6.399  -0.588  2.1040  0.0092  0.1109
  625MOL0     H82463   9.511   6.621  -0.474 -0.9280 -1.6989  0.9006
  625MOL0     H82464   9.550   7.010  -0.568  0.4571  0.4538  2.1094
  625MOL0     H82465   9.517   7.249  -0.553 -0.3686 -0.5143 -0.9918
  625MOL0     H82466   9.527   7.462  -0.462 -1.4204  1.3312 -0.0399
  625MOL0     H82467   9.564   7.493  -0.641  0.0482  3.1253  0.0019
  625MOL0     H82468   9.696   7.682  -0.582  1.2879  0.1050  0.0327
  625MOL0     H82469   9.697   7.641  -0.411 -0.6574 -0.5539 -1.2749
  625MOL0     H82470   9.432   7.664  -0.437  0.4666 -2.7252 -1.2942
  625MOL0     H82471   9.460   7.765  -0.579  1.3569  1.7233  0.1864
  625MOL0     H82472   9.429   7.900  -0.372  3.3577  3.4210  3.6494
  625MOL0     H82473   9.564   7.830  -0.301  1.7664 -1.2744 -0.9427
  625MOL0     H82474   9.562   8.006  -0.548  0.9476  2.5758  0.4801
  625MOL0     H82475   9.706   7.904  -0.494  0.1300  0.6698  1.5761
  625MOL0     H82476   9.664   8.023  -0.256  0.9051 -0.1339 -0.2601
  625MOL0     H82477   9.585   8.154  -0.353 -1.8773 -0.2928 -4.0890
  625MOL0     H82478   9.848   8.031  -0.432 -0.0087  1.5852 -2.8308
  625MOL0     H82479   9.783   8.185  -0.488 -0.2284  2.6095  1.6989
  625MOL0     H82480   9.969   8.233  -0.353 -2.1777  3.0491 -2.8919
  625MOL0     H82481   9.889   8.165  -0.204 -3.1532  2.8379  2.0142
  625MOL0     H82482   9.936   7.297  -0.500 -1.8482  2.3373 -3.5092
  625MOL0     H82483   9.971   7.066  -0.548 -0.6655 -0.6593  1.4293
  625MOL0     H82484   9.873   6.675  -0.702 -0.3141  0.7826 -0.8942
  625MOL0     H82485   9.832   6.458  -0.816  0.7001 -0.9550  0.7291
  625MOL0     H82486   9.880   4.610  -0.106 -0.5138  0.9135 -0.0540
  625MOL0     H82487  10.011   4.441   0.043 -2.3129  1.2857  1.3230
  625MOL0     H82488  10.335   4.206   0.157 -0.9609  1.8694  2.1923
  625MOL0     H82489  10.455   4.044   0.289 -0.0731 -1.2594  1.6385
  625MOL0     H82490  10.756   4.056   0.632 -0.5041 -0.2342 -0.3049
  625MOL0     H82491  10.734   4.225   0.597 -2.2555 -0.4654 -0.3321
  625MOL0     H82492  10.889   4.208   0.402 -1.8883  0.3666 -0.2479
  625MOL0     H82493  10.973   4.135   0.539  1.3662 -0.4709 -1.6133
  625MOL0     H82494  11.014   3.976   0.348  0.2180  3.2044 -2.2360
  625MOL0     H82495  10.839   3.975   0.325 -2.7118  2.5249  1.9631
  625MOL0     H82496  10.984   3.899   0.578  0.7643  0.4475 -1.1404
  625MOL0     H82497  10.819   3.841   0.527 -0.3629 -1.5482 -1.6676
  625MOL0     H82498  11.076   3.573   0.329 -0.7080 -0.5520 -1.1440
  625MOL0     H82499  10.682   4.368   0.467  1.1606 -1.8064 -0.3338
  625MOL0     H82500  10.549   4.524   0.341  0.8728 -0.0572  5.3852
  626MOL0     O82501   9.536   7.599   0.976 -0.6554 -0.0776  0.0717
  626MOL0     C82502   9.533   7.658   0.868 -0.4334  0.0013  0.0907
  626MOL0     O82503   9.473   7.606   0.758  0.0281  0.1710  0.2332
  626MOL0     C82504   9.425   7.472   0.767  0.4904 -0.4350 -0.0787
  626MOL0     C82505   9.508   7.357   0.772 -0.7339  0.0114 -0.7841
  626MOL0     C82506   9.445   7.228   0.783  0.1123 -0.2310  0.1971
  626MOL0     C82507   9.306   7.219   0.778 -1.3088  0.4260  0.1275
  626MOL0     O82508   9.260   7.092   0.802 -1.0126 -0.1581 -0.5492
  626MOL0     C82509   9.123   7.074   0.767 -0.2400  0.0529  0.4389
  626MOL0     C82510   9.041   7.120   0.884 -0.2557 -0.3291 -0.0876
  626MOL0     C82511   8.948   7.013   0.947  0.5163  0.4082  0.3308
  626MOL0     C82512   8.862   7.058   1.080  0.0143 -0.0128 -0.0549
  626MOL0     C82513   8.775   6.955   1.157  0.0731  0.1294  0.7872
  626MOL0     C82514   8.839   6.821   1.214  0.4280  0.3253 -0.6241
  626MOL0     C82515   8.935   6.849   1.335  1.1319  0.6034  0.7693
  626MOL0     C82516   8.981   6.715   1.409  0.0886 -1.1066  0.0378
  626MOL0     N82517   8.869   6.622   1.436  0.9917 -0.6497  0.0554
  626MOL0     C82518   8.747   6.653   1.504 -0.4431 -0.0335  0.0732
  626MOL0     C82519   8.674   6.541   1.487  0.2261  0.3999 -1.0535
  626MOL0     C82520   8.545   6.513   1.564  0.1154 -0.3837  0.5405
  626MOL0     C82521   8.418   6.504   1.472  0.5650 -0.3493  0.1219
  626MOL0     C82522   8.291   6.537   1.543  0.5268 -1.0565  0.2784
  626MOL0     C82523   8.170   6.521   1.449  0.3615 -0.3053  0.4430
  626MOL0     O82524   8.062   6.610   1.497 -0.7651  0.1051  0.7542
  626MOL0     C82525   7.942   6.587   1.431 -0.0360  0.1614 -0.3562
  626MOL0     C82526   7.909   6.519   1.315 -0.4045 -0.2763 -0.7113
  626MOL0     C82527   7.776   6.517   1.266  0.4700 -0.4971 -0.2939
  626MOL0     C82528   7.679   6.577   1.347 -1.0303  0.3804  0.6050
  626MOL0     C82529   7.534   6.573   1.302 -0.0189  0.0458 -0.4207
  626MOL0     O82530   7.447   6.613   1.398  0.4469  0.1584  0.1397
  626MOL0     C82531   7.317   6.582   1.373 -0.1526  0.3344 -0.1021
  626MOL0     C82532   7.278   6.446   1.378 -0.0426  0.0414 -0.4673
  626MOL0     C82533   7.146   6.404   1.364 -0.1944 -0.0428 -0.7394
  626MOL0     C82534   7.051   6.509   1.337  0.2540 -0.4665  0.8822
  626MOL0     O82535   6.913   6.481   1.327  0.0374 -0.0421  0.4270
  626MOL0     C82536   6.869   6.345   1.326 -0.7737 -0.1375  0.5527
  626MOL0     C82537   6.713   6.356   1.319 -0.1472  0.3864 -0.3706
  626MOL0     C82538   6.652   6.356   1.456 -0.2803 -0.6987 -0.6909
  626MOL0     C82539   6.502   6.367   1.443  0.6834 -0.3890  0.6037
  626MOL0     C82540   6.437   6.221   1.438 -0.8283  0.6026 -0.2544
  626MOL0     C82541   6.288   6.221   1.419  0.0818 -0.1147 -0.4193
  626MOL0     C82542   6.231   6.084   1.403 -0.4964  0.6845  0.1565
  626MOL0     C82543   6.080   6.091   1.433 -0.5646  0.1204 -0.5194
  626MOL0    Cl82544   6.018   5.925   1.391  0.4360 -0.0870 -0.8483
  626MOL0     C82545   7.080   6.640   1.333 -0.1762 -0.7602  0.9791
  626MOL0     C82546   7.216   6.679   1.337 -0.6235 -0.6542 -0.3825
  626MOL0     O82547   7.508   6.548   1.185 -0.2438 -0.5713  0.6399
  626MOL0     C82548   7.715   6.643   1.462 -0.0488 -0.6556 -0.2212
  626MOL0     C82549   7.847   6.654   1.496 -0.0988  0.0528 -0.5994
  626MOL0     N82550   8.729   6.460   1.394 -0.0659  0.3148  0.2183
  626MOL0     N82551   8.849   6.512   1.368  0.5758 -1.4387  0.2809
  626MOL0     C82552   9.226   7.334   0.753 -1.0983  0.9294 -1.1819
  626MOL0     C82553   9.291   7.461   0.752 -0.3856 -0.2418 -0.3342
  626MOL0     C82554   9.552   7.809   0.874 -0.4173 -0.9476  0.0111
  626MOL0     C82555   9.626   7.868   0.978 -0.4538 -0.0815 -0.0429
  626MOL0     C82556   9.661   8.009   0.966  0.7260 -1.1926 -0.8240
  626MOL0     C82557   9.599   8.092   0.870  0.2320  0.3375  1.4085
  626MOL0     O82558   9.628   8.224   0.855 -0.8523  0.2460 -0.9141
  626MOL0     C82559   9.719   8.286   0.942  0.7593 -0.5954  0.0357
  626MOL0     C82560   9.757   8.417   0.879  0.3341 -0.0632  0.4869
  626MOL0     C82561   9.854   8.405   0.755  0.2104  0.8613 -0.1973
  626MOL0     C82562   9.955   8.510   0.749 -0.0988 -0.2384  0.8553
  626MOL0     C82563  10.059   8.482   0.647 -0.5077 -0.9133  0.3752
  626MOL0     C82564  10.156   8.470   0.573  0.0502 -0.3484 -0.1217
  626MOL0     C82565   9.524   8.024   0.772 -0.4473  0.6832  0.6622
  626MOL0     C82566   9.503   7.891   0.777  0.5315  0.3952 -0.6866
  626MOL0     H82567   9.613   7.378   0.787 -0.7142  2.9000 -3.7666
  626MOL0     H82568   9.505   7.148   0.825  0.3856  0.6318  1.5135
  626MOL0     H82569   9.118   6.966   0.750 -0.1634  0.0730  0.2859
  626MOL0     H82570   9.100   7.119   0.670  1.2131 -0.7987 -0.3373
  626MOL0     H82571   8.978   7.208   0.863 -2.4508 -0.8414  3.5278
  626MOL0     H82572   9.106   7.164   0.960  1.2081 -3.6872  0.7793
  626MOL0     H82573   8.994   6.916   0.970 -1.0021 -0.3247  0.3895
  626MOL0     H82574   8.871   6.973   0.880 -0.6561  0.3435  1.6632
  626MOL0     H82575   8.921   7.117   1.150 -0.2854  0.9762 -0.6072
  626MOL0     H82576   8.798   7.134   1.034 -0.6132 -1.2235 -1.2901
  626MOL0     H82577   8.692   6.912   1.101  0.5517 -6.5904  4.1932
  626MOL0     H82578   8.730   7.000   1.247  0.7110  0.0335  1.1632
  626MOL0     H82579   8.902   6.772   1.139 -0.2025  1.2686 -1.8188
  626MOL0     H82580   8.759   6.751   1.241  1.6259 -0.3122  1.4783
  626MOL0     H82581   9.025   6.901   1.299  4.1781 -4.7733 -0.4542
  626MOL0     H82582   8.881   6.916   1.403  0.4225  0.7201  0.1080
  626MOL0     H82583   9.031   6.739   1.503 -1.0684 -2.3600  1.0160
  626MOL0     H82584   9.055   6.662   1.349 -0.2855 -0.9576 -0.5633
  626MOL0     H82585   8.732   6.739   1.568  1.3189  0.7338 -0.4590
  626MOL0     H82586   8.521   6.577   1.649 -2.0709  0.2602 -0.4768
  626MOL0     H82587   8.552   6.413   1.607 -1.2410  0.3021  2.5027
  626MOL0     H82588   8.409   6.405   1.428  0.1774 -0.3964  0.3027
  626MOL0     H82589   8.432   6.585   1.400  2.6729  0.0492  0.8836
  626MOL0     H82590   8.274   6.476   1.632  1.5733  2.7185  3.2977
  626MOL0     H82591   8.305   6.640   1.575 -0.2919 -1.5339  2.3535
  626MOL0     H82592   8.136   6.418   1.440  2.9833 -1.0626 -2.1716
  626MOL0     H82593   8.185   6.559   1.348 -0.5072  2.5922  1.3033
  626MOL0     H82594   7.993   6.490   1.253 -1.2301 -2.5702 -0.8263
  626MOL0     H82595   7.754   6.470   1.170  0.3716 -0.1994 -0.4190
  626MOL0     H82596   7.357   6.378   1.411 -0.5140 -0.5766 -0.5953
  626MOL0     H82597   7.118   6.300   1.374  1.2888 -0.3192  1.2446
  626MOL0     H82598   6.890   6.276   1.409  0.8813 -0.1207  0.1773
  626MOL0     H82599   6.900   6.293   1.235  0.0674 -1.5525  1.5979
  626MOL0     H82600   6.680   6.274   1.255  3.2839 -0.1723 -1.6655
  626MOL0     H82601   6.693   6.452   1.270  2.3421  0.2644 -1.8130
  626MOL0     H82602   6.687   6.449   1.501 -3.0163  0.7691 -1.3626
  626MOL0     H82603   6.679   6.270   1.518 -0.3086  0.0016  0.3181
  626MOL0     H82604   6.454   6.416   1.529  0.2413 -0.1323  0.2127
  626MOL0     H82605   6.476   6.420   1.351 -2.2052 -3.3587 -0.4629
  626MOL0     H82606   6.473   6.164   1.525  0.2911 -1.5610 -2.0351
  626MOL0     H82607   6.469   6.167   1.348  1.5352  0.3620  0.6436
  626MOL0     H82608   6.265   6.266   1.322  1.4927  0.6223 -0.4536
  626MOL0     H82609   6.233   6.264   1.503 -0.2601  0.2797 -0.8406
  626MOL0     H82610   6.244   6.024   1.313 -1.4180 -1.9886  1.6825
  626MOL0     H82611   6.261   6.017   1.484 -2.3085 -1.4118 -0.7991
  626MOL0     H82612   6.024   6.166   1.376  0.2987  0.4811 -0.9142
  626MOL0     H82613   6.061   6.124   1.535 -0.0449 -1.6481  0.1887
  626MOL0     H82614   6.995   6.701   1.306 -2.6756 -4.3790 -0.1199
  626MOL0     H82615   7.236   6.785   1.326 -1.7718 -0.6256 -2.7778
  626MOL0     H82616   7.642   6.682   1.532 -0.6067 -1.6456 -0.2216
  626MOL0     H82617   7.868   6.709   1.587  0.4542  0.8986 -1.2302
  626MOL0     H82618   9.119   7.334   0.733 -0.8552  0.6582 -2.5627
  626MOL0     H82619   9.238   7.556   0.746  0.5084  0.4663  2.0539
  626MOL0     H82620   9.686   7.804   1.042  1.8827  1.1689 -0.8634
  626MOL0     H82621   9.733   8.046   1.038 -1.5333 -1.4900  1.7673
  626MOL0     H82622   9.810   8.229   0.963  0.8220  0.1147  1.8751
  626MOL0     H82623   9.661   8.302   1.034 -0.1051  2.4119 -0.9321
  626MOL0     H82624   9.668   8.475   0.851  0.5583  0.8506  1.5513
  626MOL0     H82625   9.814   8.467   0.958  1.6673 -1.3972  0.4076
  626MOL0     H82626   9.801   8.389   0.661  1.9210 -0.8961 -0.9328
  626MOL0     H82627   9.904   8.309   0.771 -2.4987 -0.9074 -1.5757
  626MOL0     H82628   9.900   8.603   0.729 -0.1712 -0.6698 -1.2733
  626MOL0     H82629  10.001   8.511   0.848 -0.1113  2.1125  0.9050
  626MOL0     H82630  10.242   8.453   0.511 -0.6448  0.8473 -1.4810
  626MOL0     H82631   9.481   8.074   0.686 -0.7398 -3.0400 -1.5600
  626MOL0     H82632   9.435   7.856   0.700  0.9887 -2.8885  0.2422
  627MOL0     O82633   5.575   7.892   2.576  0.1483 -0.2706  0.6821
  627MOL0     C82634   5.617   7.828   2.678  0.7135  0.6947  0.1947
  627MOL0     O82635   5.730   7.742   2.677  0.3779  0.4759  0.1757
  627MOL0     C82636   5.824   7.745   2.576  0.3451  0.3124 -0.0265
  627MOL0     C82637   5.881   7.637   2.534 -0.6587 -0.3050 -0.2232
  627MOL0     C82638   5.977   7.645   2.438 -0.5208 -0.5863  0.3699
  627MOL0     C82639   6.030   7.760   2.388 -1.2616 -0.1873 -0.0217
  627MOL0     O82640   6.116   7.749   2.280  0.4742 -0.1041 -0.4660
  627MOL0     C82641   6.197   7.859   2.239  0.3000  0.1204  0.2485
  627MOL0     C82642   6.332   7.782   2.209 -0.4825 -0.1489  0.4425
  627MOL0     C82643   6.434   7.891   2.172  0.3708  0.1516 -1.0781
  627MOL0     C82644   6.411   7.934   2.017 -1.3448  1.2873 -0.1281
  627MOL0     C82645   6.502   8.046   1.979 -0.3730 -0.3625 -0.7521
  627MOL0     C82646   6.485   8.179   2.062 -0.6685 -0.0784  0.2432
  627MOL0     C82647   6.527   8.317   2.004  0.5927  0.5316  0.7359
  627MOL0     C82648   6.664   8.327   1.939 -0.2945 -0.1748 -0.1369
  627MOL0     N82649   6.775   8.307   2.018 -0.1048  0.4502  0.1728
  627MOL0     C82650   6.841   8.187   2.034  0.0490 -0.6466 -0.3803
  627MOL0     C82651   6.936   8.203   2.121  0.2211  1.0781 -0.0935
  627MOL0     C82652   7.039   8.104   2.177 -0.2001  0.3455  0.7486
  627MOL0     C82653   6.981   7.975   2.219 -0.4172 -0.2285 -0.2720
  627MOL0     C82654   6.896   7.993   2.344 -0.1826 -0.4062  0.2450
  627MOL0     C82655   6.898   7.853   2.418 -0.1305 -0.3966 -0.8967
  627MOL0     O82656   6.847   7.884   2.552 -0.3214 -0.3478 -0.5254
  627MOL0     C82657   6.863   7.785   2.649 -0.4088 -0.8908  0.5132
  627MOL0     C82658   6.833   7.820   2.777 -0.0245 -0.8314  0.4440
  627MOL0     C82659   6.839   7.725   2.875 -0.0653  0.3780 -0.0175
  627MOL0     C82660   6.893   7.598   2.857  0.1740  0.1657  0.0791
  627MOL0     C82661   6.887   7.489   2.957 -0.1672  0.7532  0.6780
  627MOL0     O82662   6.771   7.406   2.947 -0.2150  0.3120  0.7147
  627MOL0     C82663   6.739   7.325   3.053  0.4236  0.6544 -0.1309
  627MOL0     C82664   6.662   7.211   3.013 -0.0089 -0.0970 -0.5231
  627MOL0     C82665   6.601   7.130   3.114  0.3206 -1.4176 -1.2535
  627MOL0     C82666   6.614   7.154   3.249 -0.7217 -0.4631 -0.0910
  627MOL0     O82667   6.556   7.080   3.342 -0.5926 -0.3744  0.6117
  627MOL0     C82668   6.420   7.105   3.364  0.4962  0.2448 -0.1757
  627MOL0     C82669   6.374   6.978   3.447 -0.0641 -1.1336  0.1079
  627MOL0     C82670   6.427   6.956   3.599 -0.0911  0.2373  0.3194
  627MOL0     C82671   6.384   6.817   3.649  0.2529 -0.0200 -0.8230
  627MOL0     C82672   6.458   6.773   3.778 -0.3352  0.8616  1.0310
  627MOL0     C82673   6.455   6.873   3.891 -0.5545 -0.3260 -0.2969
  627MOL0     C82674   6.456   6.811   4.029  0.2588  0.4920 -0.3642
  627MOL0     C82675   6.373   6.872   4.141  0.1713  0.3652  0.6253
  627MOL0    Cl82676   6.196   6.818   4.131  0.0728  0.1550  0.5648
  627MOL0     C82677   6.696   7.259   3.287 -0.8972  1.0615  0.2095
  627MOL0     C82678   6.763   7.340   3.190  0.1485  0.1983  0.3980
  627MOL0     O82679   6.989   7.456   3.018 -0.6423  0.3495 -0.3433
  627MOL0     C82680   6.931   7.563   2.725  0.2882  0.4525 -0.6351
  627MOL0     C82681   6.912   7.656   2.619 -0.7148  0.7707  0.0874
  627MOL0     N82682   6.930   8.341   2.167  0.1920 -0.6579 -0.5846
  627MOL0     N82683   6.832   8.402   2.098 -0.7579 -0.2158  0.7673
  627MOL0     C82684   5.980   7.879   2.443  0.2774 -0.2462 -0.1662
  627MOL0     C82685   5.873   7.870   2.538  0.2616  1.6394  0.6332
  627MOL0     C82686   5.529   7.823   2.796  0.5776  0.8023 -0.0803
  627MOL0     C82687   5.412   7.902   2.812 -0.8218 -0.3516  0.3226
  627MOL0     C82688   5.342   7.883   2.931  0.8304 -0.2369  0.5440
  627MOL0     C82689   5.381   7.794   3.029  0.0165 -0.3067  0.2695
  627MOL0     O82690   5.298   7.794   3.136  0.4176 -0.1656 -0.0171
  627MOL0     C82691   5.358   7.765   3.265 -0.1780 -0.5471  0.3381
  627MOL0     C82692   5.368   7.883   3.357 -0.1433 -0.0162  0.4743
  627MOL0     C82693   5.413   7.831   3.496 -0.4895  0.7894 -0.1450
  627MOL0     C82694   5.448   7.955   3.590 -0.6934 -0.0928  0.5030
  627MOL0     C82695   5.463   7.888   3.717 -0.0180 -0.1575 -0.2467
  627MOL0     C82696   5.495   7.817   3.809 -0.0937 -0.0362  0.2494
  627MOL0     C82697   5.483   7.706   2.998 -0.4860  0.2241 -0.8448
  627MOL0     C82698   5.573   7.747   2.904  0.4451  0.8553 -0.0553
  627MOL0     H82699   5.868   7.536   2.572 -0.0632 -0.7825 -1.2480
  627MOL0     H82700   6.019   7.553   2.399  2.0323 -0.8706  3.3306
  627MOL0     H82701   6.207   7.930   2.321  0.8182  0.5569 -0.1818
  627MOL0     H82702   6.171   7.906   2.144 -1.7908  0.7216  1.0740
  627MOL0     H82703   6.311   7.721   2.121 -2.0900  1.2528 -0.2186
  627MOL0     H82704   6.365   7.727   2.297  0.8110 -1.1397 -0.6133
  627MOL0     H82705   6.529   7.840   2.185 -0.1022 -0.6351 -0.6621
  627MOL0     H82706   6.430   7.978   2.239  4.3925 -0.5157  0.2937
  627MOL0     H82707   6.439   7.853   1.948 -2.5504  1.9548 -1.4541
  627MOL0     H82708   6.308   7.956   1.987 -2.0153 -0.7196  0.5173
  627MOL0     H82709   6.483   8.065   1.873  1.1367 -1.2934 -1.2179
  627MOL0     H82710   6.608   8.023   1.992 -0.4688  0.4528  2.0651
  627MOL0     H82711   6.537   8.175   2.158  1.2185  1.8986 -0.6235
  627MOL0     H82712   6.379   8.189   2.089 -1.6445 -1.6822 -2.5359
  627MOL0     H82713   6.449   8.336   1.930  1.0431 -0.9142 -0.1596
  627MOL0     H82714   6.510   8.387   2.086  1.2754  0.2035  1.1673
  627MOL0     H82715   6.680   8.424   1.891 -0.2420  0.2864  0.7819
  627MOL0     H82716   6.667   8.256   1.856 -0.7379  0.0178 -0.3213
  627MOL0     H82717   6.838   8.100   1.970 -0.9242  1.3122 -3.2174
  627MOL0     H82718   7.086   8.144   2.267 -1.7396  2.1015  0.8158
  627MOL0     H82719   7.111   8.089   2.095 -1.2491 -0.3092 -0.0751
  627MOL0     H82720   7.056   7.898   2.236 -1.5854 -1.5055 -0.6670
  627MOL0     H82721   6.916   7.927   2.145  0.2404 -1.3136 -0.1733
  627MOL0     H82722   6.942   8.060   2.419 -2.3463 -2.0904  3.2928
  627MOL0     H82723   6.794   8.027   2.328 -0.9328 -2.5843  0.1145
  627MOL0     H82724   6.999   7.817   2.436 -0.4790 -0.7415  0.4649
  627MOL0     H82725   6.840   7.780   2.360 -2.1965 -0.4926  1.1242
  627MOL0     H82726   6.800   7.920   2.800  1.9876  0.8423 -3.0787
  627MOL0     H82727   6.814   7.743   2.980 -2.0911 -1.0608 -0.1976
  627MOL0     H82728   6.649   7.194   2.906 -2.4577 -0.5861 -0.2032
  627MOL0     H82729   6.541   7.046   3.079  0.1897 -1.0980 -1.7974
  627MOL0     H82730   6.352   7.109   3.279 -1.0467  0.6728  1.0246
  627MOL0     H82731   6.406   7.190   3.431  1.0086  0.0373  0.2125
  627MOL0     H82732   6.408   6.888   3.395 -2.0686 -1.7567 -0.1886
  627MOL0     H82733   6.266   6.969   3.458  0.1963 -1.7166  2.8645
  627MOL0     H82734   6.395   7.039   3.662  0.4332 -0.0119  0.9226
  627MOL0     H82735   6.535   6.941   3.610 -0.0056  0.1751 -0.5712
  627MOL0     H82736   6.277   6.819   3.670  0.1157  0.9018 -1.5011
  627MOL0     H82737   6.390   6.741   3.571 -2.7511  2.8666 -4.2751
  627MOL0     H82738   6.565   6.764   3.760 -0.9606 -0.7888 -2.6885
  627MOL0     H82739   6.411   6.680   3.811  1.6831 -0.1278  1.2852
  627MOL0     H82740   6.360   6.927   3.890 -0.3256  0.1792  1.6123
  627MOL0     H82741   6.532   6.950   3.887  0.8152 -1.6703 -1.3608
  627MOL0     H82742   6.441   6.703   4.026 -1.5678  0.6075  1.8562
  627MOL0     H82743   6.561   6.817   4.058  0.3846  0.7245 -0.8552
  627MOL0     H82744   6.377   6.981   4.135 -0.2046  0.3661  0.3835
  627MOL0     H82745   6.408   6.846   4.242  0.7419 -1.6281 -0.0348
  627MOL0     H82746   6.714   7.280   3.392  2.5028 -1.3751  0.3013
  627MOL0     H82747   6.828   7.417   3.229  0.7407  0.0921 -0.3499
  627MOL0     H82748   6.977   7.465   2.714 -3.7709 -1.4894 -2.1840
  627MOL0     H82749   6.933   7.605   2.526  0.9930  1.3865  0.1078
  627MOL0     H82750   6.019   7.978   2.423  3.1952 -1.3670 -0.5324
  627MOL0     H82751   5.817   7.957   2.572 -1.4184  0.3236  1.4020
  627MOL0     H82752   5.381   7.973   2.736 -0.0003  0.6351  0.8848
  627MOL0     H82753   5.248   7.938   2.937  0.9002  0.6966 -3.7177
  627MOL0     H82754   5.458   7.722   3.250  0.1685  0.5549 -0.6966
  627MOL0     H82755   5.298   7.692   3.319 -1.8757  1.4466  1.2771
  627MOL0     H82756   5.449   7.948   3.323  3.1937 -1.3260  4.9351
  627MOL0     H82757   5.273   7.936   3.360  0.7557  1.9052 -1.6481
  627MOL0     H82758   5.501   7.769   3.479 -0.8753  0.8574 -2.7294
  627MOL0     H82759   5.331   7.770   3.534 -0.5990 -0.3021 -2.0154
  627MOL0     H82760   5.542   8.003   3.564 -1.0923  0.1850 -0.5208
  627MOL0     H82761   5.364   8.026   3.590  1.9737  3.4615 -2.2991
  627MOL0     H82762   5.510   7.751   3.892 -1.3460 -0.8998 -0.1781
  627MOL0     H82763   5.530   7.628   3.057  2.6319  1.5636 -1.3458
  627MOL0     H82764   5.663   7.689   2.890  0.5268  1.1274 -0.7117
  628MOL0     O82765   8.485   9.984   6.577 -0.5972 -0.6171  0.2425
  628MOL0     C82766   8.463   9.863   6.557  1.2103  0.0235  0.9234
  628MOL0     O82767   8.546   9.754   6.582 -0.5127  0.2513  0.1608
  628MOL0     C82768   8.668   9.768   6.646 -0.2617 -0.3001  0.5946
  628MOL0     C82769   8.691   9.824   6.774  0.8235  0.7566 -0.4991
  628MOL0     C82770   8.818   9.806   6.836  0.2694 -0.1818  0.9469
  628MOL0     C82771   8.926   9.746   6.765  1.1250 -0.1773  0.1630
  628MOL0     O82772   9.044   9.729   6.832 -0.3322  0.0650 -0.3085
  628MOL0     C82773   9.107   9.839   6.895 -0.1600  1.1625 -0.7587
  628MOL0     C82774   9.203   9.775   6.999  0.5280 -0.3818  0.3367
  628MOL0     C82775   9.313   9.869   7.045  0.3198 -0.1486 -0.3807
  628MOL0     C82776   9.435   9.853   6.942  0.6361  0.2817  0.6249
  628MOL0     C82777   9.525   9.968   6.960 -0.1271 -1.0263 -0.2101
  628MOL0     C82778   9.629   9.925   7.063  0.0129 -0.2567 -0.3578
  628MOL0     C82779   9.719  10.039   7.120 -0.0109 -0.1417  0.6525
  628MOL0     C82780   9.783  10.140   7.019  0.4057  0.3270 -0.0988
  628MOL0     N82781   9.863  10.248   7.060 -0.2532  0.4610  0.3317
  628MOL0     C82782   9.879  10.282   7.193  0.0571  0.3243 -0.3084
  628MOL0     C82783   9.973  10.378   7.196 -0.0816  0.1190 -0.9655
  628MOL0     C82784  10.001  10.464   7.311 -1.2747 -0.4661 -0.5447
  628MOL0     C82785  10.142  10.517   7.319 -0.4640  0.5009  0.0535
  628MOL0     C82786  10.237  10.398   7.351  0.3377 -0.1650  0.7002
  628MOL0     C82787  10.250  10.347   7.491 -0.8953  0.5642 -0.6088
  628MOL0     O82788  10.308  10.207   7.500  0.4260 -0.0340  0.4245
  628MOL0     C82789  10.238  10.100   7.454  0.9307 -0.2602  0.5864
  628MOL0     C82790  10.104  10.098   7.415  0.0207  0.4146  0.4036
  628MOL0     C82791  10.037   9.975   7.399 -0.0774 -0.3774 -0.2957
  628MOL0     C82792  10.092   9.852   7.422  0.2014 -0.4557 -0.5459
  628MOL0     C82793  10.019   9.730   7.401 -1.0285  0.4914 -0.1668
  628MOL0     O82794   9.899   9.728   7.338  0.2026 -0.0863 -0.3224
  628MOL0     C82795   9.851   9.615   7.267 -0.2427 -0.1151 -1.0507
  628MOL0     C82796   9.717   9.586   7.290 -0.6149  0.2032 -0.6043
  628MOL0     C82797   9.656   9.466   7.238 -0.5508 -0.4507  0.8520
  628MOL0     C82798   9.735   9.381   7.159  0.1909  0.0792 -0.0382
  628MOL0     O82799   9.673   9.274   7.097 -0.0255  0.3036  0.8224
  628MOL0     C82800   9.743   9.218   6.980  0.3138 -0.2264 -0.7005
  628MOL0     C82801   9.650   9.136   6.896  0.0530  1.2135 -0.1934
  628MOL0     C82802   9.546   9.220   6.824  1.2826 -0.5162  0.0247
  628MOL0     C82803   9.598   9.320   6.719 -0.3989  0.2433 -0.4017
  628MOL0     C82804   9.486   9.358   6.612  0.0951 -0.0273  0.1172
  628MOL0     C82805   9.465   9.232   6.512 -1.0440 -0.0386  0.1010
  628MOL0     C82806   9.361   9.258   6.402  0.1915  0.1565  0.0267
  628MOL0     C82807   9.426   9.298   6.270  0.3887  0.6945  0.6043
  628MOL0    Cl82808   9.295   9.324   6.148  0.2626  0.1631 -0.6002
  628MOL0     C82809   9.869   9.421   7.129 -0.8825 -0.5784 -0.5240
  628MOL0     C82810   9.923   9.531   7.186  0.0172  0.2653 -0.4869
  628MOL0     O82811  10.077   9.629   7.447  0.5644 -0.3252 -0.2097
  628MOL0     C82812  10.225   9.856   7.469  0.5190  0.3050 -0.8823
  628MOL0     C82813  10.297   9.973   7.483  0.4650 -1.1814  0.7451
  628MOL0     N82814  10.019  10.397   7.071  0.7547 -1.2055 -0.0485
  628MOL0     N82815   9.950  10.323   6.987 -0.4180  1.0955 -0.0635
  628MOL0     C82816   8.899   9.693   6.635 -0.6756  0.5699  0.1363
  628MOL0     C82817   8.771   9.694   6.589 -0.2683 -0.0469 -0.4362
  628MOL0     C82818   8.325   9.813   6.516  0.3703 -0.2212 -0.2089
  628MOL0     C82819   8.289   9.680   6.549  0.7697 -0.2131 -0.2598
  628MOL0     C82820   8.165   9.639   6.520  0.3118  0.0169  0.2926
  628MOL0     C82821   8.077   9.713   6.452 -0.0371  0.8517 -0.4968
  628MOL0     O82822   7.960   9.636   6.438 -0.0230 -0.4923  0.3933
  628MOL0     C82823   7.864   9.704   6.360  0.3927  0.4242 -0.6844
  628MOL0     C82824   7.893   9.690   6.216 -0.5303  0.7616  0.4298
  628MOL0     C82825   7.782   9.726   6.124  0.0291  0.3653 -1.0832
  628MOL0     C82826   7.666   9.627   6.123 -1.0236  0.0610  0.0707
  628MOL0     C82827   7.566   9.669   6.218  0.0103  0.1791  0.2210
  628MOL0     C82828   7.482   9.686   6.309  0.6939  0.8557  0.3204
  628MOL0     C82829   8.113   9.849   6.414 -0.1571 -0.4308 -0.1001
  628MOL0     C82830   8.239   9.896   6.458 -0.6318 -0.4404  0.3269
  628MOL0     H82831   8.612   9.879   6.826 -0.9347 -0.7739 -1.4140
  628MOL0     H82832   8.834   9.833   6.940 -1.4296 -2.7431  1.9914
  628MOL0     H82833   9.037   9.904   6.950  1.2520 -0.2273  2.9743
  628MOL0     H82834   9.164   9.901   6.825 -0.5011 -2.2711 -4.4174
  628MOL0     H82835   9.243   9.687   6.949 -1.3345 -1.4493  0.6200
  628MOL0     H82836   9.141   9.746   7.085  1.5951 -4.2724 -0.0233
  628MOL0     H82837   9.336   9.848   7.150  0.9200 -4.2299 -1.1608
  628MOL0     H82838   9.284   9.974   7.046  2.1026  0.4328 -1.8644
  628MOL0     H82839   9.472   9.751   6.957 -3.6503 -1.3472  1.5801
  628MOL0     H82840   9.391   9.851   6.842 -1.3790  2.0869  1.4033
  628MOL0     H82841   9.470  10.059   6.986 -0.6213 -1.0395 -1.1546
  628MOL0     H82842   9.580   9.982   6.866  0.1884  1.0952  0.2403
  628MOL0     H82843   9.695   9.864   7.001  1.7291  1.1098  0.0604
  628MOL0     H82844   9.590   9.864   7.144 -0.0555 -1.2010 -1.0855
  628MOL0     H82845   9.658  10.107   7.179 -0.2408  0.3563 -0.1482
  628MOL0     H82846   9.798  10.002   7.187  1.5093  1.5754 -0.1055
  628MOL0     H82847   9.701  10.176   6.957 -0.0890  2.8605  1.8650
  628MOL0     H82848   9.847  10.082   6.952 -1.5425 -1.2614 -0.6701
  628MOL0     H82849   9.817  10.248   7.275  0.0172  0.6414 -0.2041
  628MOL0     H82850   9.971  10.419   7.406  0.0368  2.0393  1.1708
  628MOL0     H82851   9.947  10.558   7.303 -0.2312  0.1750 -0.2693
  628MOL0     H82852  10.164  10.598   7.388 -0.2133  0.2591  0.2596
  628MOL0     H82853  10.169  10.556   7.220  3.1769 -3.1176 -0.6533
  628MOL0     H82854  10.222  10.320   7.276  2.3886 -0.5472  0.6154
  628MOL0     H82855  10.334  10.444   7.329  0.6137 -2.4109 -4.0545
  628MOL0     H82856  10.148  10.335   7.527 -0.7740  1.9849  0.2806
  628MOL0     H82857  10.316  10.413   7.549  0.2220 -1.1280  0.1393
  628MOL0     H82858  10.054  10.194   7.406 -1.9471 -0.3002  2.6055
  628MOL0     H82859   9.936   9.979   7.362 -0.7640 -0.9378  1.3920
  628MOL0     H82860   9.644   9.644   7.346  0.5669  1.6662 -0.4856
  628MOL0     H82861   9.552   9.433   7.239 -0.2558 -1.5469 -0.8772
  628MOL0     H82862   9.808   9.142   7.026 -1.0379 -0.8820  0.1877
  628MOL0     H82863   9.799   9.289   6.918  2.4794 -1.0604  0.1908
  628MOL0     H82864   9.597   9.063   6.959  4.3289 -2.2275 -0.1251
  628MOL0     H82865   9.703   9.079   6.820  2.0156 -0.0682  2.0045
  628MOL0     H82866   9.500   9.280   6.903 -0.9913  1.0694 -2.3255
  628MOL0     H82867   9.467   9.160   6.778 -4.2045  2.4949  4.2943
  628MOL0     H82868   9.622   9.416   6.765  0.1083 -0.6308  1.2264
  628MOL0     H82869   9.680   9.263   6.675  0.5287  1.2400  0.0138
  628MOL0     H82870   9.526   9.440   6.552 -1.9392  1.3798  0.5776
  628MOL0     H82871   9.394   9.394   6.658  0.0998  0.4066 -0.2067
  628MOL0     H82872   9.428   9.141   6.561 -0.4480 -0.9767 -1.1046
  628MOL0     H82873   9.566   9.209   6.477 -1.0879 -0.3407  0.1693
  628MOL0     H82874   9.284   9.182   6.383  1.1496 -0.5822 -1.0911
  628MOL0     H82875   9.310   9.352   6.421  2.7117  1.1726  2.3705
  628MOL0     H82876   9.497   9.222   6.238 -3.0402 -1.0427 -4.0339
  628MOL0     H82877   9.484   9.390   6.284 -0.4386  1.0042  2.2648
  628MOL0     H82878   9.942   9.366   7.071  2.1043  2.9909 -0.4910
  628MOL0     H82879  10.023   9.559   7.156  0.0374 -0.9875 -1.6816
  628MOL0     H82880  10.264   9.758   7.493 -4.0102 -2.2226 -2.5420
  628MOL0     H82881  10.399   9.968   7.520  1.6469  2.7706 -1.4277
  628MOL0     H82882   8.972   9.638   6.577  0.7802  0.2574  2.1346
  628MOL0     H82883   8.758   9.650   6.491  0.9414 -1.6458  0.0834
  628MOL0     H82884   8.357   9.607   6.590 -2.0131 -2.7443  0.1788
  628MOL0     H82885   8.146   9.533   6.533  0.4382  0.0785  1.0669
  628MOL0     H82886   7.872   9.808   6.391 -0.8491 -0.2459  2.2293
  628MOL0     H82887   7.767   9.661   6.386  0.5065  0.9870  0.7607
  628MOL0     H82888   7.986   9.737   6.184 -0.9920  0.6530 -1.1436
  628MOL0     H82889   7.917   9.585   6.195  2.2794  1.8368 -2.6117
  628MOL0     H82890   7.825   9.738   6.024  2.1913  2.0952 -0.0283
  628MOL0     H82891   7.740   9.821   6.157 -2.1268 -1.2370  1.1168
  628MOL0     H82892   7.620   9.638   6.024 -0.3792 -2.5486 -0.5799
  628MOL0     H82893   7.691   9.521   6.133 -0.0418 -0.1464 -3.1932
  628MOL0     H82894   7.413   9.697   6.390  0.4395  0.7230  0.1233
  628MOL0     H82895   8.055   9.917   6.353  1.4406 -0.2397 -1.4771
  628MOL0     H82896   8.257  10.000   6.434 -0.3150 -0.8747 -1.4449
  629MOL0     O82897  10.110   1.227  10.074  0.2045  0.3903  0.4367
  629MOL0     C82898  10.105   1.211  10.197 -0.1168 -0.3363  1.6058
  629MOL0     O82899  10.168   1.275  10.292 -0.2530 -0.3697  0.6494
  629MOL0     C82900  10.284   1.340  10.252  0.1850 -0.6595  0.0065
  629MOL0     C82901  10.406   1.312  10.319 -0.1778  0.5644 -0.3163
  629MOL0     C82902  10.516   1.382  10.299  0.5783  0.2224  0.3778
  629MOL0     C82903  10.511   1.492  10.207  0.2040 -0.0154 -0.4935
  629MOL0     O82904  10.617   1.577  10.192  0.5713 -0.7090 -0.1302
  629MOL0     C82905  10.715   1.533  10.098  0.0353  0.3186 -0.2799
  629MOL0     C82906  10.671   1.591   9.957 -1.0055 -0.1168  0.1488
  629MOL0     C82907  10.776   1.565   9.849  0.0604  1.2247 -0.6768
  629MOL0     C82908  10.801   1.417   9.814  0.9382  0.0138  0.3519
  629MOL0     C82909  10.896   1.400   9.706  1.4101 -0.4455  1.1566
  629MOL0     C82910  10.948   1.260   9.680 -0.7441  0.0909 -1.0985
  629MOL0     C82911  10.853   1.154   9.631  1.2733 -0.3332  0.2925
  629MOL0     C82912  10.825   1.146   9.470 -0.7545  0.2818  0.9321
  629MOL0     N82913  10.863   1.272   9.401 -0.3017 -0.1937  0.0263
  629MOL0     C82914  10.771   1.337   9.318  0.6175  0.4276 -0.3607
  629MOL0     C82915  10.845   1.421   9.238  0.2253 -0.6202 -0.8525
  629MOL0     C82916  10.804   1.514   9.115 -0.1739  0.4160 -0.0738
  629MOL0     C82917  10.814   1.651   9.180  0.7769 -0.0491  0.9747
  629MOL0     C82918  10.748   1.675   9.316  0.0029  0.5502  0.4559
  629MOL0     C82919  10.752   1.829   9.345  0.0461 -0.5451 -0.2474
  629MOL0     O82920  10.883   1.885   9.340  0.0850 -0.3877 -0.0517
  629MOL0     C82921  10.970   1.825   9.433  0.8771 -0.2621 -2.2413
  629MOL0     C82922  10.951   1.823   9.568  0.7349  0.7943  0.1475
  629MOL0     C82923  11.042   1.779   9.659 -0.0783  0.0690 -0.4089
  629MOL0     C82924  11.150   1.707   9.619 -1.2200  0.1823 -0.8976
  629MOL0     C82925  11.229   1.635   9.721  0.1730  0.2389  0.4314
  629MOL0     O82926  11.202   1.658   9.853  0.3691 -0.4667  0.8655
  629MOL0     C82927  11.245   1.576   9.959 -1.0661  0.1185  0.0015
  629MOL0     C82928  11.377   1.545   9.972  0.4365 -0.2937 -0.1265
  629MOL0     C82929  11.422   1.456  10.071 -0.1255  0.5491 -0.3115
  629MOL0     C82930  11.330   1.384  10.154  0.4684  0.3992 -0.4252
  629MOL0     O82931  11.370   1.293  10.262  0.2872  0.0913 -0.8273
  629MOL0     C82932  11.506   1.254  10.283  0.3855  0.0393 -0.7911
  629MOL0     C82933  11.546   1.156  10.187  0.2226  0.7503  0.4986
  629MOL0     C82934  11.699   1.114  10.185  0.0935  1.1658  0.4854
  629MOL0     C82935  11.741   0.995  10.279  0.7157  0.2361 -0.6408
  629MOL0     C82936  11.887   1.004  10.325  0.7053  0.7808 -0.1180
  629MOL0     C82937  11.924   0.918  10.440 -0.2559  1.2366  0.8477
  629MOL0     C82938  12.077   0.908  10.448  0.0704 -0.1697 -1.2358
  629MOL0     C82939  12.106   0.785  10.544 -1.0729 -0.9887 -0.1478
  629MOL0    Cl82940  12.079   0.622  10.461  0.0953  0.1166 -0.0023
  629MOL0     C82941  11.191   1.412  10.128 -1.4026  1.6455 -0.0647
  629MOL0     C82942  11.155   1.512  10.036 -0.2100 -0.0526  1.0007
  629MOL0     O82943  11.300   1.547   9.678  0.3903 -0.0390  0.0991
  629MOL0     C82944  11.170   1.702   9.474 -0.0205  1.0677  0.6323
  629MOL0     C82945  11.086   1.765   9.379  0.1031  0.1154 -0.4002
  629MOL0     N82946  10.979   1.405   9.288 -0.7196  0.6978 -0.5782
  629MOL0     N82947  10.985   1.313   9.378 -0.0837  0.7020 -0.3480
  629MOL0     C82948  10.391   1.525  10.143 -0.9632  0.2470 -0.5679
  629MOL0     C82949  10.275   1.442  10.153 -0.2878  0.0467 -0.5892
  629MOL0     C82950  10.027   1.089  10.235 -0.3713 -0.5598 -0.4347
  629MOL0     C82951   9.930   1.044  10.147 -0.1441 -0.0339  0.0988
  629MOL0     C82952   9.864   0.925  10.160  0.0096  0.0867 -0.7766
  629MOL0     C82953   9.886   0.846  10.271 -0.0051 -1.4421  0.3253
  629MOL0     O82954   9.815   0.731  10.295  0.5402 -0.3664 -0.1749
  629MOL0     C82955   9.730   0.687  10.195  0.4204 -0.5317  0.0032
  629MOL0     C82956   9.708   0.535  10.217  0.1283  0.5832  0.8167
  629MOL0     C82957   9.842   0.466  10.199  0.5533 -0.0784  0.0937
  629MOL0     C82958   9.848   0.302  10.207  0.5986 -0.5829  0.2187
  629MOL0     C82959   9.980   0.263  10.162  0.1384 -0.1398 -0.9758
  629MOL0     C82960  10.084   0.230  10.114 -0.1227 -0.0865 -0.0618
  629MOL0     C82961   9.980   0.887  10.359 -0.1128  0.1722 -1.1562
  629MOL0     C82962  10.053   1.010  10.346  0.6389  0.4594 -0.0255
  629MOL0     H82963  10.402   1.231  10.391  0.3915 -1.3457 -2.3342
  629MOL0     H82964  10.607   1.380  10.359  2.6883  0.0768 -2.6319
  629MOL0     H82965  10.712   1.424  10.089 -3.6880 -0.2085  3.7245
  629MOL0     H82966  10.803   1.589  10.129 -0.3063  2.4900 -2.8753
  629MOL0     H82967  10.662   1.699   9.965 -0.6324 -0.0659 -0.0796
  629MOL0     H82968  10.574   1.551   9.926 -0.7287  0.0823 -1.0059
  629MOL0     H82969  10.863   1.616   9.892 -1.0215  0.6495  2.4277
  629MOL0     H82970  10.744   1.618   9.759 -0.6567  0.6998 -0.7391
  629MOL0     H82971  10.840   1.358   9.897  0.2656 -2.0320 -0.7130
  629MOL0     H82972  10.706   1.367   9.793 -0.9112  2.5728  1.9783
  629MOL0     H82973  10.972   1.479   9.709 -0.1176  1.0645  2.4600
  629MOL0     H82974  10.847   1.437   9.616 -1.4041 -1.1528  2.2851
  629MOL0     H82975  10.996   1.221   9.771  0.7117  0.8663 -1.5125
  629MOL0     H82976  11.035   1.267   9.614  0.8939  2.3252  1.0842
  629MOL0     H82977  10.903   1.060   9.656 -0.4407 -1.1231  0.9212
  629MOL0     H82978  10.760   1.171   9.686  5.2301  4.9461  7.0203
  629MOL0     H82979  10.720   1.122   9.448 -0.2175  0.6898 -2.6493
  629MOL0     H82980  10.878   1.067   9.416 -1.1749  0.1064  0.7677
  629MOL0     H82981  10.664   1.325   9.313  0.7061 -0.0410 -2.3188
  629MOL0     H82982  10.703   1.494   9.078 -1.1188  0.6212  2.2132
  629MOL0     H82983  10.869   1.499   9.029  0.4723 -1.4123  0.6930
  629MOL0     H82984  10.772   1.728   9.114  0.7255  0.0259  1.0947
  629MOL0     H82985  10.918   1.679   9.196 -0.0859  2.8747  2.1322
  629MOL0     H82986  10.648   1.632   9.308  0.4455 -0.5519  0.6077
  629MOL0     H82987  10.794   1.617   9.396 -1.9947 -2.9511 -0.7203
  629MOL0     H82988  10.703   1.855   9.439  0.5665 -5.2177  1.5932
  629MOL0     H82989  10.690   1.882   9.272  1.4450  2.0280  0.3114
  629MOL0     H82990  10.862   1.867   9.612  1.1259  0.6681  1.0893
  629MOL0     H82991  11.018   1.785   9.765  1.2581 -3.4335  0.2268
  629MOL0     H82992  11.453   1.593   9.911 -0.0775 -1.4058 -1.6967
  629MOL0     H82993  11.527   1.432  10.084 -1.0261 -3.1084  1.4546
  629MOL0     H82994  11.516   1.208  10.382  0.2785  0.3706 -0.6237
  629MOL0     H82995  11.571   1.340  10.269  1.0194 -0.9012 -4.9942
  629MOL0     H82996  11.532   1.199  10.088  1.5159 -0.1507 -0.1043
  629MOL0     H82997  11.483   1.066  10.190 -1.5523  1.8453 -1.2754
  629MOL0     H82998  11.754   1.205  10.210  1.2564  0.1094  1.8870
  629MOL0     H82999  11.725   1.087  10.082 -2.7264  0.5159 -0.1475
  629MOL0     H83000  11.674   0.999  10.366  1.8073 -3.2886  0.5590
  629MOL0     H83001  11.704   0.906  10.226 -0.2891  0.7313 -0.8098
  629MOL0     H83002  11.896   1.109  10.357  0.0238  0.0859  2.5958
  629MOL0     H83003  11.957   0.986  10.243 -1.6607  1.9329 -2.5727
  629MOL0     H83004  11.881   0.820  10.415  2.6788  0.3338 -1.1918
  629MOL0     H83005  11.874   0.952  10.531 -5.2960 -0.9875 -0.7242
  629MOL0     H83006  12.118   0.889  10.348  2.5363 -1.3827 -0.0941
  629MOL0     H83007  12.123   1.000  10.484  2.0758 -1.3189 -0.6703
  629MOL0     H83008  12.046   0.790  10.636  2.5134 -0.7321  2.3709
  629MOL0     H83009  12.207   0.805  10.580 -1.9024  1.3186  1.1760
  629MOL0     H83010  11.112   1.350  10.169  0.0334 -0.5274 -0.4115
  629MOL0     H83011  11.048   1.532  10.041 -0.3490 -0.9369  2.1037
  629MOL0     H83012  11.263   1.656   9.441 -1.6966 -0.8391 -1.7883
  629MOL0     H83013  11.117   1.743   9.277 -0.9471  0.0478 -0.7085
  629MOL0     H83014  10.393   1.616  10.085  3.6675  2.4212  2.3867
  629MOL0     H83015  10.179   1.473  10.113 -0.7048 -0.9162 -0.3616
  629MOL0     H83016   9.906   1.118  10.072  2.6488  3.2137  2.1498
  629MOL0     H83017   9.780   0.903  10.095 -0.1685 -1.5382 -0.0348
  629MOL0     H83018   9.782   0.704  10.100 -0.0424 -0.4238 -0.2317
  629MOL0     H83019   9.630   0.730  10.199  0.3902 -0.4371 -1.2428
  629MOL0     H83020   9.658   0.500  10.307 -0.9252 -0.4603 -0.1511
  629MOL0     H83021   9.647   0.493  10.137 -0.0996 -1.6412  2.0954
  629MOL0     H83022   9.901   0.513  10.279 -0.9587  4.3204 -1.0921
  629MOL0     H83023   9.883   0.500  10.103 -0.5419 -0.3598 -0.4833
  629MOL0     H83024   9.829   0.278  10.312  0.7988 -1.1433  0.1329
  629MOL0     H83025   9.768   0.253  10.150  0.9987  1.5293 -2.3547
  629MOL0     H83026  10.179   0.196  10.076 -0.0082  0.0055  0.1380
  629MOL0     H83027  10.001   0.824  10.445  1.5086  1.5640 -0.4767
  629MOL0     H83028  10.136   1.039  10.411  1.0530  2.6191 -1.4193
  630MOL0     O83029   3.927   9.785   8.867  0.3333 -0.0591 -0.2281
  630MOL0     C83030   3.891   9.675   8.831  0.3485 -0.5003  0.1521
  630MOL0     O83031   3.773   9.608   8.849  0.3531 -0.4251  0.1111
  630MOL0     C83032   3.684   9.673   8.932  0.5775 -0.5001  0.4182
  630MOL0     C83033   3.541   9.670   8.886 -0.1576  0.6182 -0.1985
  630MOL0     C83034   3.445   9.735   8.950 -0.3315  0.9808 -0.3744
  630MOL0     C83035   3.482   9.790   9.073 -0.0754 -0.7009  0.0031
  630MOL0     O83036   3.385   9.861   9.134  0.6823 -0.2142  0.7170
  630MOL0     C83037   3.305   9.794   9.236 -0.4545 -0.0767  0.1386
  630MOL0     C83038   3.217   9.904   9.312 -0.2339 -0.0506 -0.4354
  630MOL0     C83039   3.102   9.854   9.405 -0.7185 -0.0884 -0.5926
  630MOL0     C83040   3.149   9.811   9.542  0.8071  0.2816  0.8683
  630MOL0     C83041   3.145   9.925   9.640 -0.3788 -0.6163 -0.2249
  630MOL0     C83042   3.015   9.989   9.683  0.3798 -0.6167 -0.0654
  630MOL0     C83043   2.906   9.897   9.730 -0.1906  0.6218  0.4210
  630MOL0     C83044   2.805   9.956   9.825  0.0793  0.5808 -0.6175
  630MOL0     N83045   2.671   9.895   9.828 -0.2782 -0.4433  1.1642
  630MOL0     C83046   2.550   9.963   9.830  0.5185  0.8263  0.0146
  630MOL0     C83047   2.455   9.864   9.839  0.5117  0.2060 -0.1369
  630MOL0     C83048   2.310   9.875   9.837  0.5832 -0.1263  0.9405
  630MOL0     C83049   2.249  10.013   9.861  0.8437  0.0110  0.1654
  630MOL0     C83050   2.099   9.995   9.873  0.4951  0.2124 -0.3731
  630MOL0     C83051   2.027  10.127   9.829 -0.7382 -0.1252 -0.1200
  630MOL0     O83052   2.017  10.221   9.942  0.4966 -0.1129  0.6266
  630MOL0     C83053   1.931  10.321   9.932  0.7365  0.2267  0.5441
  630MOL0     C83054   1.854  10.356   9.821 -0.0002  0.4900 -0.1056
  630MOL0     C83055   1.759  10.463   9.834  0.9785  0.2875 -0.4511
  630MOL0     C83056   1.731  10.523   9.954 -0.2203  0.0209 -0.0156
  630MOL0     C83057   1.608  10.605   9.975 -0.1613  0.1626  0.3117
  630MOL0     O83058   1.585  10.655  10.097  0.8733 -0.1852  0.0983
  630MOL0     C83059   1.461  10.721  10.116 -0.4264 -0.8357  0.1401
  630MOL0     C83060   1.335  10.650  10.107 -0.7436  0.1147 -1.0186
  630MOL0     C83061   1.219  10.720  10.134 -0.1245 -0.5924  0.5265
  630MOL0     C83062   1.216  10.852  10.150 -0.5075  0.2294  0.2535
  630MOL0     O83063   1.105  10.935  10.154 -0.0279  0.4081 -0.8041
  630MOL0     C83064   0.986  10.887  10.087  0.1433  0.2968 -1.0694
  630MOL0     C83065   0.905  11.005  10.022 -0.5580  0.2216 -0.7213
  630MOL0     C83066   0.813  11.076  10.127  0.0458 -0.9028 -0.6292
  630MOL0     C83067   0.789  11.225  10.083 -0.3939 -0.7085  0.0882
  630MOL0     C83068   0.882  11.323  10.147 -1.4437 -0.5819 -0.6277
  630MOL0     C83069   1.032  11.286  10.134 -0.7839 -0.7441 -0.3193
  630MOL0     C83070   1.122  11.409  10.181 -0.2291 -0.1923 -1.1232
  630MOL0     C83071   1.268  11.397  10.130  0.3224  0.0906 -0.4623
  630MOL0    Cl83072   1.318  11.572  10.092 -0.0161  0.1138 -0.6118
  630MOL0     C83073   1.340  10.921  10.164  0.3647  0.2882  1.3181
  630MOL0     C83074   1.461  10.851  10.156  0.7353 -0.6819 -0.4715
  630MOL0     O83075   1.531  10.621   9.875 -0.5930 -0.6901 -0.5727
  630MOL0     C83076   1.815  10.493  10.060  0.4475  0.7448  0.0534
  630MOL0     C83077   1.906  10.383  10.057  0.2365  0.0964  0.3319
  630MOL0     N83078   2.525   9.748   9.849 -0.9492  0.0241  0.1524
  630MOL0     N83079   2.653   9.772   9.856  0.2794  0.1179  0.9285
  630MOL0     C83080   3.615   9.797   9.122 -0.1580 -0.9872  0.4650
  630MOL0     C83081   3.707   9.729   9.055  0.1423 -0.6044  1.2585
  630MOL0     C83082   3.990   9.607   8.745  0.0371 -0.2650  0.4992
  630MOL0     C83083   4.013   9.470   8.757 -0.5226 -0.1532 -0.5534
  630MOL0     C83084   4.112   9.410   8.678 -0.2324  0.2371  0.3327
  630MOL0     C83085   4.185   9.481   8.569  0.0469  0.7307 -0.2306
  630MOL0     O83086   4.282   9.428   8.493  0.0146 -0.5319  0.5558
  630MOL0     C83087   4.329   9.292   8.490  0.8860  0.7613 -0.2810
  630MOL0     C83088   4.236   9.210   8.395  1.4081 -0.0237 -0.3680
  630MOL0     C83089   4.304   9.122   8.291  0.4934 -0.4331  0.5694
  630MOL0     C83090   4.350   8.992   8.347 -0.1084 -0.6760  0.7787
  630MOL0     C83091   4.239   8.889   8.365 -0.0939 -0.0005  0.3021
  630MOL0     C83092   4.147   8.815   8.348  0.1599  0.4694  0.4927
  630MOL0     C83093   4.153   9.617   8.561  0.0867  0.0926 -0.0581
  630MOL0     C83094   4.067   9.683   8.653  0.3198 -1.3470 -0.3071
  630MOL0     H83095   3.511   9.630   8.790 -0.8678 -0.3759  0.4202
  630MOL0     H83096   3.346   9.760   8.914 -0.7827  1.1800  0.9505
  630MOL0     H83097   3.372   9.747   9.308  0.8772 -0.4445 -1.2849
  630MOL0     H83098   3.242   9.712   9.199 -0.9210 -0.4395  1.6888
  630MOL0     H83099   3.189   9.981   9.240  5.8558  0.2482 -3.1115
  630MOL0     H83100   3.296   9.949   9.372  0.9454 -3.4430  0.8289
  630MOL0     H83101   3.058   9.765   9.359 -0.5981 -0.4538 -0.0092
  630MOL0     H83102   3.026   9.932   9.414  1.0620  1.5920  0.5496
  630MOL0     H83103   3.079   9.734   9.575 -1.6604  3.4495  3.7437
  630MOL0     H83104   3.254   9.778   9.541  0.5785 -0.4613 -0.7357
  630MOL0     H83105   3.208  10.004   9.598 -0.3636  0.0515  1.0014
  630MOL0     H83106   3.200   9.903   9.733 -2.1369  1.1215  1.3182
  630MOL0     H83107   2.969  10.036   9.595 -3.6058 -2.6146  0.7356
  630MOL0     H83108   3.025  10.073   9.753 -2.5549  0.7052 -1.0456
  630MOL0     H83109   2.855   9.846   9.648  1.0414  0.4477 -0.2662
  630MOL0     H83110   2.957   9.818   9.785  0.2223 -0.4032 -1.3549
  630MOL0     H83111   2.804  10.064   9.810  0.6152  0.7737  0.6566
  630MOL0     H83112   2.853   9.939   9.922  0.5153  0.6533 -0.8155
  630MOL0     H83113   2.537  10.071   9.823 -1.4648  0.5415 -1.4812
  630MOL0     H83114   2.278   9.806   9.917 -0.9348  0.3390  0.7619
  630MOL0     H83115   2.280   9.838   9.739  1.9937 -1.0835  0.8347
  630MOL0     H83116   2.256  10.074   9.770 -0.5046  1.7387  1.1521
  630MOL0     H83117   2.293  10.067   9.945  0.4644  2.5284 -1.1490
  630MOL0     H83118   2.066   9.916   9.804  0.3459  0.2611 -0.3601
  630MOL0     H83119   2.079   9.964   9.976 -0.3004  0.6543 -0.3784
  630MOL0     H83120   1.927  10.087   9.806 -0.3850 -2.2704  1.7549
  630MOL0     H83121   2.069  10.177   9.742  1.6023 -0.7730  0.5595
  630MOL0     H83122   1.840  10.294   9.733  2.2415 -2.5705  1.4535
  630MOL0     H83123   1.696  10.486   9.748 -1.5902  1.5969  1.6167
  630MOL0     H83124   1.325  10.545  10.082 -0.7064 -0.0181 -0.4876
  630MOL0     H83125   1.123  10.670  10.141  0.6980 -2.0004  3.7927
  630MOL0     H83126   0.918  10.830  10.152 -0.3127  0.5652 -1.3019
  630MOL0     H83127   1.013  10.823  10.003  0.4236 -3.4736  1.6481
  630MOL0     H83128   0.848  10.957   9.943 -1.1963 -1.9333  0.9442
  630MOL0     H83129   0.980  11.070   9.976  3.7687 -1.9104  2.4620
  630MOL0     H83130   0.875  11.079  10.218 -1.4644 -0.1688  0.4241
  630MOL0     H83131   0.718  11.026  10.149  0.3629  0.0749  3.9687
  630MOL0     H83132   0.810  11.230   9.976 -1.5919 -2.4497 -0.2814
  630MOL0     H83133   0.682  11.241  10.093 -0.7660  0.2019 -3.8358
  630MOL0     H83134   0.863  11.333  10.254  2.7071  2.7565  0.0675
  630MOL0     H83135   0.852  11.421  10.109 -0.5117  0.0649  0.2502
  630MOL0     H83136   1.055  11.261  10.030  0.0659 -1.3166 -0.0034
  630MOL0     H83137   1.057  11.204  10.202 -1.0298 -0.2208  0.4163
  630MOL0     H83138   1.064  11.494  10.144 -0.7484 -0.1039 -0.1308
  630MOL0     H83139   1.116  11.425  10.289 -0.6476 -0.2626 -1.1342
  630MOL0     H83140   1.282  11.336  10.041  0.5077  1.0669 -1.1257
  630MOL0     H83141   1.330  11.369  10.215 -0.9007  1.3082  0.9020
  630MOL0     H83142   1.341  11.027  10.186 -0.1719  1.4254 -3.0946
  630MOL0     H83143   1.560  10.890  10.180  0.6124 -0.8294  0.3120
  630MOL0     H83144   1.802  10.546  10.154 -1.1784  0.5262 -0.0239
  630MOL0     H83145   1.970  10.360  10.141 -0.9978  0.3221  1.3569
  630MOL0     H83146   3.649   9.861   9.204 -2.2705  2.1292 -0.8954
  630MOL0     H83147   3.808   9.741   9.094 -0.7810  0.4592  3.5112
  630MOL0     H83148   3.958   9.405   8.825  1.4772  2.4542  4.0305
  630MOL0     H83149   4.142   9.311   8.709  3.8670  1.0829 -0.2899
  630MOL0     H83150   4.330   9.243   8.589  1.1180  2.8741  0.8106
  630MOL0     H83151   4.430   9.273   8.452  1.0685 -2.5031  1.4608
  630MOL0     H83152   4.172   9.138   8.448  1.4478 -0.5413 -1.0091
  630MOL0     H83153   4.177   9.289   8.347  2.6149 -0.4424 -2.6518
  630MOL0     H83154   4.393   9.169   8.250 -1.3195  1.9942 -0.8860
  630MOL0     H83155   4.230   9.111   8.210 -1.3126  0.0615  2.0756
  630MOL0     H83156   4.425   8.951   8.279  0.1680  0.7036  0.2196
  630MOL0     H83157   4.407   9.007   8.439 -1.7841 -0.9865  1.8935
  630MOL0     H83158   4.069   8.744   8.329  1.4155 -0.4358 -1.6661
  630MOL0     H83159   4.198   9.670   8.479  1.0725 -1.2728 -0.4363
  630MOL0     H83160   4.039   9.787   8.657  1.7991 -0.9103 -0.7833
  631MOL0     O83161   3.725  11.241   9.214 -0.4484  0.3374 -0.1124
  631MOL0     C83162   3.603  11.241   9.200  0.2075  1.2751  0.9923
  631MOL0     O83163   3.515  11.326   9.264  0.1972 -0.4333 -0.9936
  631MOL0     C83164   3.581  11.420   9.341 -0.4412  0.4239 -0.7466
  631MOL0     C83165   3.576  11.401   9.480  0.3995  0.7287 -0.5670
  631MOL0     C83166   3.642  11.483   9.569 -0.1592 -0.1689  0.7085
  631MOL0     C83167   3.712  11.596   9.523 -0.2703  0.2300 -0.1982
  631MOL0     O83168   3.758  11.686   9.613 -0.7485 -0.6045 -0.6559
  631MOL0     C83169   3.788  11.822   9.579  0.0764  1.6948  0.1738
  631MOL0     C83170   3.849  11.895   9.686  0.4267 -0.3294  0.1840
  631MOL0     C83171   3.872  12.046   9.631  0.6492  0.1685  0.2304
  631MOL0     C83172   3.945  12.107   9.759 -1.0638 -0.0498  0.5225
  631MOL0     C83173   3.988  12.254   9.743  1.0115  0.7537  0.3635
  631MOL0     C83174   3.873  12.351   9.766 -0.9219  0.7236  0.0231
  631MOL0     C83175   3.915  12.495   9.741 -0.5867 -1.1518  0.1240
  631MOL0     C83176   3.809  12.593   9.702 -0.5535 -0.5785  0.3739
  631MOL0     N83177   3.708  12.593   9.805 -0.2083 -0.5723 -0.2320
  631MOL0     C83178   3.707  12.661   9.919  1.1610  0.7288  0.0714
  631MOL0     C83179   3.575  12.665   9.961  0.4672  0.4910 -0.4643
  631MOL0     C83180   3.535  12.731  10.088 -0.6231 -0.5509 -0.0709
  631MOL0     C83181   3.500  12.611  10.187 -0.3999  0.2683  0.0847
  631MOL0     C83182   3.352  12.561  10.180 -0.0110 -0.0207 -0.0625
  631MOL0     C83183   3.340  12.441  10.269 -0.2320  0.6542  0.3959
  631MOL0     O83184   3.262  12.461  10.387  0.0956 -0.4987  0.3859
  631MOL0     C83185   3.241  12.356  10.469 -0.5871 -0.3556  0.1214
  631MOL0     C83186   3.268  12.218  10.439 -0.5277  0.9714  0.1225
  631MOL0     C83187   3.255  12.127  10.537 -0.2677  1.0947 -0.8720
  631MOL0     C83188   3.218  12.170  10.666 -0.2895 -0.7865 -0.1700
  631MOL0     C83189   3.205  12.065  10.775  0.1441 -0.5027 -0.2764
  631MOL0     O83190   3.157  12.105  10.898 -0.7729  0.4672  0.2137
  631MOL0     C83191   3.100  12.010  10.979  0.2873 -0.4306 -0.7587
  631MOL0     C83192   3.005  11.906  10.945 -0.5022 -0.8834  0.5261
  631MOL0     C83193   2.953  11.820  11.039  0.3126 -0.6644 -0.5591
  631MOL0     C83194   2.968  11.844  11.176  0.2066 -0.9654  0.0741
  631MOL0     O83195   2.903  11.765  11.272  0.1735 -0.4218  0.2636
  631MOL0     C83196   2.981  11.726  11.386  0.3642 -0.8755  0.1713
  631MOL0     C83197   2.910  11.599  11.420  0.0685 -0.0122  0.2065
  631MOL0     C83198   2.958  11.526  11.542 -0.2829 -0.0993 -0.2138
  631MOL0     C83199   3.116  11.493  11.548  0.4151 -0.1395 -0.7946
  631MOL0     C83200   3.183  11.416  11.443  0.1751  0.7403 -0.3326
  631MOL0     C83201   3.159  11.263  11.463 -0.4771 -0.1774 -0.6360
  631MOL0     C83202   3.261  11.190  11.379  0.2239 -0.1425  1.1832
  631MOL0     C83203   3.230  11.039  11.381 -0.0035 -0.3319 -0.2336
  631MOL0    Cl83204   3.277  10.974  11.220  0.2590  0.1277 -0.1038
  631MOL0     C83205   3.068  11.927  11.207  0.6214 -0.1401  0.1852
  631MOL0     C83206   3.133  12.016  11.114 -0.8040 -0.8638  0.7530
  631MOL0     O83207   3.237  11.945  10.755 -0.5083  0.0839  0.0227
  631MOL0     C83208   3.191  12.306  10.696  0.0764  0.6218 -0.7196
  631MOL0     C83209   3.199  12.395  10.596 -0.0496  0.5224 -0.2282
  631MOL0     N83210   3.498  12.608   9.861 -0.0947  0.2071 -0.1694
  631MOL0     N83211   3.580  12.563   9.771 -0.7373  0.5570 -0.4370
  631MOL0     C83212   3.713  11.624   9.388  0.9670  0.3270  0.3809
  631MOL0     C83213   3.638  11.537   9.297  0.2251  0.0900  0.6587
  631MOL0     C83214   3.543  11.135   9.110 -0.8424 -0.8815  0.8564
  631MOL0     C83215   3.409  11.111   9.117  0.1031  0.4569  0.2742
  631MOL0     C83216   3.349  11.005   9.045  0.2390 -0.0467  0.0611
  631MOL0     C83217   3.428  10.920   8.969  0.4813 -1.0698 -0.4405
  631MOL0     O83218   3.375  10.816   8.906 -0.6433  0.0230 -0.3960
  631MOL0     C83219   3.414  10.774   8.769  1.1407 -0.2808  0.7253
  631MOL0     C83220   3.330  10.651   8.722  0.0843  0.2413  0.0304
  631MOL0     C83221   3.343  10.608   8.577  0.2869  1.6496 -0.5164
  631MOL0     C83222   3.489  10.629   8.538  0.2464  0.1060  0.6387
  631MOL0     C83223   3.530  10.558   8.418  0.0405 -1.1426  0.6291
  631MOL0     C83224   3.554  10.508   8.308 -0.2425 -0.0134  0.1347
  631MOL0     C83225   3.572  10.952   8.963 -0.7574  0.3142  0.2256
  631MOL0     C83226   3.633  11.064   9.022  0.7916 -0.2254 -0.7126
  631MOL0     H83227   3.519  11.313   9.511  0.4461  0.7203 -0.5026
  631MOL0     H83228   3.620  11.463   9.673 -2.5844 -2.0648 -0.0738
  631MOL0     H83229   3.688  11.862   9.563 -0.1416  2.0401  2.2153
  631MOL0     H83230   3.848  11.844   9.490 -0.1829  1.9812  0.0703
  631MOL0     H83231   3.941  11.842   9.711  1.5809  0.9031 -1.2970
  631MOL0     H83232   3.780  11.902   9.771 -0.8952 -1.2099 -0.7655
  631MOL0     H83233   3.775  12.091   9.605  1.2411  0.0941 -2.2849
  631MOL0     H83234   3.943  12.052   9.549  0.6650 -1.2300  0.1156
  631MOL0     H83235   3.887  12.095   9.851 -1.9155 -0.7550 -0.0866
  631MOL0     H83236   4.031  12.040   9.772 -2.5712 -1.5310  4.5447
  631MOL0     H83237   4.030  12.256   9.642 -0.3580  0.9399 -0.2265
  631MOL0     H83238   4.062  12.282   9.819  2.1004  0.0674 -0.4129
  631MOL0     H83239   3.834  12.353   9.869  0.9261  2.7673  0.7648
  631MOL0     H83240   3.792  12.318   9.701  1.0863  1.0910 -2.8610
  631MOL0     H83241   3.971  12.533   9.827  2.5216  0.2218 -2.2912
  631MOL0     H83242   3.979  12.500   9.652  1.3606 -1.8322  1.4174
  631MOL0     H83243   3.774  12.562   9.603 -0.5679 -1.8618  0.7558
  631MOL0     H83244   3.852  12.693   9.694  1.3138 -1.3913 -0.4028
  631MOL0     H83245   3.792  12.701   9.973  0.7208  0.0880  1.2582
  631MOL0     H83246   3.440  12.786  10.086 -0.1132  0.4513  1.2733
  631MOL0     H83247   3.612  12.794  10.134 -0.0695  1.8911 -3.8977
  631MOL0     H83248   3.531  12.627  10.290 -3.3471 -4.2810  1.9660
  631MOL0     H83249   3.564  12.530  10.151 -0.6200 -0.1530  0.6306
  631MOL0     H83250   3.283  12.629  10.231 -3.1911 -1.4705 -2.0391
  631MOL0     H83251   3.326  12.544  10.074  5.3850  1.5383 -1.9483
  631MOL0     H83252   3.441  12.407  10.294 -0.5740 -0.4740  0.2996
  631MOL0     H83253   3.281  12.368  10.212 -0.9679  0.5388  1.2826
  631MOL0     H83254   3.293  12.193  10.336  0.2060  0.5155  0.4065
  631MOL0     H83255   3.274  12.021  10.521 -1.2450  0.3590  2.1267
  631MOL0     H83256   2.985  11.894  10.839 -3.0283 -3.5011  1.1901
  631MOL0     H83257   2.904  11.729  11.006  1.2742 -0.4025 -2.8398
  631MOL0     H83258   2.982  11.801  11.465  0.2730 -1.5441  0.8226
  631MOL0     H83259   3.086  11.708  11.360  0.4571  1.5612 -1.4317
  631MOL0     H83260   2.928  11.542  11.328  0.3444  3.0084 -1.7799
  631MOL0     H83261   2.804  11.624  11.425 -0.4189 -2.0243  0.5152
  631MOL0     H83262   2.911  11.427  11.547  2.0658 -1.2278  1.7351
  631MOL0     H83263   2.935  11.590  11.627  0.2609 -0.4224  0.1772
  631MOL0     H83264   3.171  11.587  11.551  3.2231 -1.6726 -0.2946
  631MOL0     H83265   3.132  11.441  11.642  1.3915  0.0972 -0.8232
  631MOL0     H83266   3.290  11.439  11.436  0.4402 -0.5417 -0.6915
  631MOL0     H83267   3.161  11.443  11.340  4.1383  1.3551 -1.2116
  631MOL0     H83268   3.054  11.239  11.445 -0.5728 -1.7133  1.6449
  631MOL0     H83269   3.185  11.235  11.565 -3.0668 -0.1985  0.0930
  631MOL0     H83270   3.254  11.214  11.272 -0.3573 -3.0263  0.4701
  631MOL0     H83271   3.361  11.213  11.415  0.5692 -2.3852  1.8155
  631MOL0     H83272   3.124  11.016  11.392 -0.0413  0.6267  1.6885
  631MOL0     H83273   3.273  10.984  11.465 -2.4693 -1.4552  0.3679
  631MOL0     H83274   3.101  11.932  11.310  1.5505  3.0367 -0.1553
  631MOL0     H83275   3.213  12.084  11.139  1.3691 -0.6135 -5.2682
  631MOL0     H83276   3.157  12.332  10.796 -2.7424  1.9412 -1.9056
  631MOL0     H83277   3.181  12.502  10.604  2.5040  1.0781 -1.0231
  631MOL0     H83278   3.777  11.707   9.361 -0.1624  1.4121  0.9575
  631MOL0     H83279   3.638  11.554   9.190 -2.8732 -0.5813  0.4591
  631MOL0     H83280   3.352  11.166   9.191 -0.1889  1.3570 -0.5816
  631MOL0     H83281   3.243  10.984   9.045  0.3982 -0.8976 -0.5403
  631MOL0     H83282   3.522  10.757   8.778  1.2538  0.4672  0.9225
  631MOL0     H83283   3.398  10.848   8.689 -1.4202 -3.8272 -2.3563
  631MOL0     H83284   3.344  10.566   8.789  0.0130 -1.0865 -1.5868
  631MOL0     H83285   3.225  10.682   8.728 -0.3439 -0.3785 -2.9381
  631MOL0     H83286   3.280  10.663   8.507 -0.3966  1.7343  0.1613
  631MOL0     H83287   3.317  10.502   8.568  0.8507  1.3804  0.7347
  631MOL0     H83288   3.499  10.735   8.515  2.1638  0.1984  1.7055
  631MOL0     H83289   3.563  10.599   8.613  0.0778 -0.1909  0.6878
  631MOL0     H83290   3.569  10.457   8.215 -2.4402 -0.6633  0.0943
  631MOL0     H83291   3.640  10.884   8.914  0.5026  0.3581  1.8199
  631MOL0     H83292   3.736  11.090   8.999  0.0290  2.2819 -1.6761
  632MOL0     O83293   8.444   3.222   4.724  0.0565 -0.6357 -0.2912
  632MOL0     C83294   8.386   3.260   4.620  1.0866 -0.1517  0.6110
  632MOL0     O83295   8.251   3.278   4.599 -0.3383 -0.0289 -0.2353
  632MOL0     C83296   8.158   3.216   4.679  0.0214 -0.1761  0.1303
  632MOL0     C83297   8.046   3.293   4.732 -0.8519 -0.6165  0.2830
  632MOL0     C83298   7.947   3.233   4.802 -0.1542 -0.0593 -0.2676
  632MOL0     C83299   7.963   3.098   4.840 -0.2156 -0.4316  0.3412
  632MOL0     O83300   7.863   3.036   4.912  0.8169  0.4582  0.2033
  632MOL0     C83301   7.906   2.986   5.038 -0.3744 -0.2662  0.8522
  632MOL0     C83302   7.894   3.102   5.141 -0.1219  0.7152  0.4086
  632MOL0     C83303   7.872   3.060   5.287 -0.6761 -0.4888  0.8848
  632MOL0     C83304   7.832   3.173   5.380 -0.7592  0.7331 -0.6743
  632MOL0     C83305   7.778   3.111   5.513  0.7129  0.3036  0.0265
  632MOL0     C83306   7.622   3.078   5.509 -1.1924 -0.7440  0.6928
  632MOL0     C83307   7.563   3.052   5.649  0.1963  0.7948 -0.2231
  632MOL0     C83308   7.608   3.146   5.760  0.5448  1.4140  0.3798
  632MOL0     N83309   7.526   3.153   5.877 -0.2848 -0.1189 -0.1116
  632MOL0     C83310   7.537   3.063   5.975  0.8722 -0.0593  0.1706
  632MOL0     C83311   7.413   3.069   6.025 -0.3308  0.9262 -0.2151
  632MOL0     C83312   7.362   2.966   6.131 -0.1617  0.6793  0.2141
  632MOL0     C83313   7.271   2.862   6.060  0.6694 -0.5324 -0.3894
  632MOL0     C83314   7.124   2.907   6.061 -0.1525 -0.0540 -0.0676
  632MOL0     C83315   7.064   2.865   5.921 -0.2809 -0.0158 -0.6831
  632MOL0     O83316   6.933   2.929   5.905  0.2911  0.2860  0.5426
  632MOL0     C83317   6.841   2.891   5.808  0.1852 -0.3138  0.4671
  632MOL0     C83318   6.876   2.857   5.674  0.7090  0.2469  1.1167
  632MOL0     C83319   6.777   2.810   5.592  0.1684  0.3261 -0.5122
  632MOL0     C83320   6.645   2.785   5.645  1.4374 -0.1937 -1.2343
  632MOL0     C83321   6.550   2.717   5.560 -0.0689 -0.0133  0.1645
  632MOL0     O83322   6.443   2.653   5.625 -0.6678  0.4466  0.2414
  632MOL0     C83323   6.347   2.592   5.543 -0.0661  0.4124 -0.3163
  632MOL0     C83324   6.222   2.584   5.597 -0.1361 -1.0064 -0.0420
  632MOL0     C83325   6.111   2.505   5.546  1.3352  0.1404 -0.3018
  632MOL0     C83326   6.138   2.432   5.427  0.0039  0.8017 -0.3820
  632MOL0     O83327   6.037   2.364   5.367 -0.4801  0.3309  0.0088
  632MOL0     C83328   6.049   2.334   5.231  0.9820 -0.0006  0.4588
  632MOL0     C83329   5.910   2.312   5.171 -0.6917  0.0972 -0.2993
  632MOL0     C83330   5.933   2.252   5.027  0.0217 -0.2711  0.5222
  632MOL0     C83331   5.803   2.247   4.938  0.2197 -0.7963  0.2252
  632MOL0     C83332   5.812   2.213   4.792 -0.1733 -1.0871 -0.1434
  632MOL0     C83333   5.910   2.298   4.708 -0.4366  0.2761 -1.2598
  632MOL0     C83334   5.936   2.245   4.574  0.5260 -0.3355  0.1273
  632MOL0     C83335   5.813   2.247   4.483 -1.2746  1.0026  0.2688
  632MOL0    Cl83336   5.849   2.215   4.299  0.0631 -0.1683 -0.5068
  632MOL0     C83337   6.275   2.432   5.372 -0.0046 -0.9079  0.2432
  632MOL0     C83338   6.367   2.515   5.425 -0.6015  0.0510 -0.3171
  632MOL0     O83339   6.578   2.720   5.440 -0.3313  0.7390 -0.1764
  632MOL0     C83340   6.607   2.834   5.777 -0.2030  0.0509 -0.0160
  632MOL0     C83341   6.710   2.882   5.857 -1.0476 -0.6533  0.9141
  632MOL0     N83342   7.331   3.156   5.958 -0.3119  0.5171 -0.5517
  632MOL0     N83343   7.406   3.207   5.864 -0.0862 -0.2380 -0.0209
  632MOL0     C83344   8.067   3.019   4.792 -0.2727  0.3332 -0.2560
  632MOL0     C83345   8.168   3.075   4.709  0.2336  0.1311 -0.1599
  632MOL0     C83346   8.469   3.279   4.504  0.0915  0.4564 -1.0403
  632MOL0     C83347   8.613   3.269   4.527  0.6286 -0.5945  0.4218
  632MOL0     C83348   8.696   3.270   4.416  0.2831 -0.8483  0.7239
  632MOL0     C83349   8.649   3.290   4.285 -0.1850 -0.3276 -0.0578
  632MOL0     O83350   8.734   3.288   4.168  0.9629 -0.3988 -0.7379
  632MOL0     C83351   8.846   3.376   4.170 -0.1440 -0.5595  0.4948
  632MOL0     C83352   8.980   3.303   4.144 -0.4653 -0.3375 -0.1732
  632MOL0     C83353   9.109   3.382   4.142 -0.0114  0.3334 -0.3798
  632MOL0     C83354   9.132   3.478   4.022  1.1621 -1.4574 -0.8459
  632MOL0     C83355   9.145   3.406   3.899  1.0821  0.7427 -0.4355
  632MOL0     C83356   9.161   3.341   3.796  1.1038 -0.2145 -0.3471
  632MOL0     C83357   8.511   3.303   4.276 -0.0663  0.7961 -0.2626
  632MOL0     C83358   8.417   3.295   4.379  1.0200 -0.2777 -0.0357
  632MOL0     H83359   8.054   3.398   4.705  1.4723 -1.1937 -1.6840
  632MOL0     H83360   7.866   3.289   4.848 -0.9517 -0.4583 -1.1675
  632MOL0     H83361   8.009   2.948   5.039 -1.2981 -2.9842  2.5472
  632MOL0     H83362   7.848   2.895   5.059  1.4079 -1.4728  0.8095
  632MOL0     H83363   7.801   3.156   5.119 -0.5900 -0.9213 -2.0139
  632MOL0     H83364   7.973   3.177   5.141  2.5729 -1.8584 -1.9733
  632MOL0     H83365   7.959   3.013   5.332 -1.2227  0.5948  3.2727
  632MOL0     H83366   7.790   2.988   5.281 -1.0557  0.0376 -1.2199
  632MOL0     H83367   7.916   3.235   5.413 -0.7461 -0.4219  1.6993
  632MOL0     H83368   7.754   3.242   5.346  0.4390  4.8240  3.7984
  632MOL0     H83369   7.798   3.186   5.589 -2.5862 -1.1129  2.5148
  632MOL0     H83370   7.847   3.027   5.527  1.6175  0.9487 -0.4698
  632MOL0     H83371   7.606   2.977   5.469  2.6067 -2.1258  2.2084
  632MOL0     H83372   7.573   3.144   5.437 -1.9094 -1.5924  0.3863
  632MOL0     H83373   7.455   3.035   5.649  0.3504 -1.3433 -4.0313
  632MOL0     H83374   7.597   2.952   5.678  3.0613  1.7638  0.0692
  632MOL0     H83375   7.615   3.249   5.725 -1.6590  1.4472 -0.1217
  632MOL0     H83376   7.710   3.113   5.781  0.5260  0.1119 -1.3045
  632MOL0     H83377   7.610   2.989   6.005 -1.2509 -2.6600 -0.6401
  632MOL0     H83378   7.301   3.019   6.204  0.4093 -0.4238  1.5474
  632MOL0     H83379   7.448   2.913   6.175 -1.0311 -0.7963  0.1783
  632MOL0     H83380   7.290   2.766   6.108  0.0531 -0.9903 -1.0405
  632MOL0     H83381   7.312   2.861   5.958  3.4036  0.2670  0.5993
  632MOL0     H83382   7.083   2.856   6.149  0.7368  1.4378  1.2818
  632MOL0     H83383   7.110   3.015   6.070  2.6067  0.3715 -0.0050
  632MOL0     H83384   7.042   2.758   5.914  0.4021 -0.2010 -0.1418
  632MOL0     H83385   7.138   2.882   5.843 -0.5892 -1.7209 -1.3891
  632MOL0     H83386   6.976   2.867   5.633  1.3605 -0.8409  2.3558
  632MOL0     H83387   6.813   2.783   5.493  1.1367 -2.5032  0.5138
  632MOL0     H83388   6.207   2.630   5.694  1.1916  1.4824 -0.9162
  632MOL0     H83389   6.008   2.515   5.579  0.0272 -3.3082 -2.7277
  632MOL0     H83390   6.110   2.246   5.214 -1.1141 -1.6553  1.0529
  632MOL0     H83391   6.103   2.419   5.187 -0.3053  1.0053  0.7275
  632MOL0     H83392   5.855   2.406   5.163 -4.3989 -1.8369  0.5379
  632MOL0     H83393   5.856   2.249   5.242  0.0951  1.1383  1.2726
  632MOL0     H83394   5.984   2.157   5.037  1.1474  0.5094  2.8117
  632MOL0     H83395   6.008   2.309   4.971  0.0308 -1.5013 -0.7641
  632MOL0     H83396   5.734   2.187   4.998 -1.0636 -1.0233 -1.3858
  632MOL0     H83397   5.763   2.349   4.940  0.7233 -0.5273 -1.3555
  632MOL0     H83398   5.711   2.221   4.749 -1.8622 -0.9032  3.5001
  632MOL0     H83399   5.842   2.108   4.786 -0.6049 -1.2094 -0.2051
  632MOL0     H83400   6.007   2.292   4.760 -1.3532 -1.1410  0.4174
  632MOL0     H83401   5.872   2.400   4.704 -1.1381 -0.0211 -2.3945
  632MOL0     H83402   6.004   2.320   4.532 -1.9267  2.6083  1.0901
  632MOL0     H83403   5.974   2.143   4.584  3.4616  0.6464 -0.0342
  632MOL0     H83404   5.762   2.343   4.490 -1.0902  1.2347 -1.1214
  632MOL0     H83405   5.739   2.169   4.502  1.4767 -1.5968  1.0401
  632MOL0     H83406   6.301   2.390   5.275  0.3557 -1.3935  0.5447
  632MOL0     H83407   6.465   2.517   5.378 -0.5503  1.4677 -0.1879
  632MOL0     H83408   6.503   2.823   5.803 -0.1562 -0.0164  0.1418
  632MOL0     H83409   6.698   2.914   5.960 -1.8090 -1.7582  1.1848
  632MOL0     H83410   8.053   2.914   4.811 -2.1295  0.4432 -0.7853
  632MOL0     H83411   8.246   3.017   4.660  2.0432  0.7370  1.8817
  632MOL0     H83412   8.653   3.271   4.628 -4.4567  1.2262  2.7335
  632MOL0     H83413   8.798   3.255   4.451 -0.4649 -1.8525  2.6324
  632MOL0     H83414   8.859   3.436   4.260  1.8958  3.4836 -2.2351
  632MOL0     H83415   8.831   3.446   4.087 -0.7917 -2.4217 -1.0473
  632MOL0     H83416   8.991   3.247   4.237 -0.6148 -0.4091 -0.1987
  632MOL0     H83417   8.982   3.226   4.067 -1.0510  1.0847 -1.6837
  632MOL0     H83418   9.192   3.311   4.150 -0.4850 -0.2583 -0.6349
  632MOL0     H83419   9.108   3.440   4.234 -1.4558  0.3014 -0.3608
  632MOL0     H83420   9.056   3.555   4.002  1.4921 -1.4467 -2.1500
  632MOL0     H83421   9.228   3.528   4.035  0.6629 -0.3777 -1.1698
  632MOL0     H83422   9.163   3.294   3.700  2.5035  2.5223 -1.7699
  632MOL0     H83423   8.477   3.332   4.177  3.1113 -0.5615 -1.8856
  632MOL0     H83424   8.313   3.298   4.350  0.6894  2.9246  1.1123
  633MOL0     O83425   5.939   1.828   5.606  0.1953  0.4847 -1.3578
  633MOL0     C83426   5.877   1.896   5.686  0.2705  0.1104  0.1163
  633MOL0     O83427   5.751   1.947   5.652  0.1943 -0.4604 -1.4217
  633MOL0     C83428   5.665   1.899   5.561 -0.5092  0.2504  0.0450
  633MOL0     C83429   5.683   1.775   5.500 -0.4062 -0.4243 -0.0387
  633MOL0     C83430   5.595   1.731   5.397 -0.8255 -0.6928  0.0868
  633MOL0     C83431   5.492   1.817   5.351 -0.8340  0.2268 -0.3977
  633MOL0     O83432   5.412   1.773   5.249 -0.5245 -0.5380  0.2757
  633MOL0     C83433   5.275   1.753   5.282  0.0873 -0.3366 -0.7859
  633MOL0     C83434   5.198   1.689   5.162 -0.2048 -0.2302 -0.4574
  633MOL0     C83435   5.260   1.560   5.114 -0.6599  0.7007 -1.0590
  633MOL0     C83436   5.217   1.544   4.974  0.4465  0.2298 -0.4158
  633MOL0     C83437   5.256   1.407   4.924 -0.4828 -0.7795  0.2472
  633MOL0     C83438   5.185   1.365   4.806 -0.3543  0.1384  0.3072
  633MOL0     C83439   5.223   1.220   4.758 -0.0605 -0.5793  0.0586
  633MOL0     C83440   5.372   1.176   4.723 -0.1272  0.5845 -0.2619
  633MOL0     N83441   5.463   1.189   4.842 -0.0593  0.7697 -0.1388
  633MOL0     C83442   5.585   1.249   4.829 -0.5689  0.0585  0.1769
  633MOL0     C83443   5.636   1.260   4.956 -0.1765 -0.7270 -0.4188
  633MOL0     C83444   5.766   1.338   4.992  0.4844  0.0458 -0.0449
  633MOL0     C83445   5.882   1.234   4.998 -0.4083 -0.0055 -0.4294
  633MOL0     C83446   6.030   1.284   4.972 -0.5104  0.0723 -0.4896
  633MOL0     C83447   6.085   1.379   5.079 -0.5462  1.0067  0.0751
  633MOL0     O83448   6.091   1.322   5.213  0.1469  0.3195 -0.2655
  633MOL0     C83449   6.136   1.405   5.308 -1.1073 -0.2068  0.9744
  633MOL0     C83450   6.218   1.349   5.404 -0.0946 -1.0476  0.0314
  633MOL0     C83451   6.276   1.418   5.504  0.1244  0.0603 -0.2937
  633MOL0     C83452   6.264   1.555   5.507 -0.1015  0.5056  0.1236
  633MOL0     C83453   6.336   1.637   5.603 -0.7721 -0.2314  0.6050
  633MOL0     O83454   6.380   1.575   5.716  0.3760  0.8428 -0.3157
  633MOL0     C83455   6.429   1.641   5.828 -0.2797  0.3405 -1.2072
  633MOL0     C83456   6.427   1.777   5.852 -0.4160  0.2292  0.3377
  633MOL0     C83457   6.496   1.839   5.953  0.6194 -0.6234  0.2780
  633MOL0     C83458   6.568   1.764   6.051 -0.0536  0.2273  0.0631
  633MOL0     O83459   6.646   1.813   6.150 -0.0993 -0.1459 -0.0215
  633MOL0     C83460   6.702   1.952   6.149 -0.0315  0.5015  0.2529
  633MOL0     C83461   6.792   1.980   6.265 -0.0208  0.2136  1.3085
  633MOL0     C83462   6.735   2.064   6.386  0.1330 -0.1064  0.4867
  633MOL0     C83463   6.840   2.141   6.462  0.0460 -0.0211  0.1211
  633MOL0     C83464   6.908   2.051   6.567 -0.2688 -0.9342 -0.0962
  633MOL0     C83465   7.035   2.122   6.634 -0.1273  0.4259  0.0287
  633MOL0     C83466   7.108   2.017   6.712 -0.6810 -0.5780  0.3050
  633MOL0     C83467   7.229   2.063   6.796 -1.0829 -0.1858 -0.2148
  633MOL0    Cl83468   7.185   2.208   6.883 -0.1916 -0.3790  0.0711
  633MOL0     C83469   6.569   1.625   6.029 -0.0464  0.0668  0.2074
  633MOL0     C83470   6.500   1.561   5.916  0.5734  0.5789  0.0410
  633MOL0     O83471   6.333   1.757   5.574  0.2358 -0.1297 -0.4142
  633MOL0     C83472   6.170   1.619   5.422  0.2714 -1.5986 -0.2175
  633MOL0     C83473   6.105   1.546   5.322  0.1325  0.8213  0.3001
  633MOL0     N83474   5.546   1.196   5.038  0.0318  0.3151  0.1647
  633MOL0     N83475   5.450   1.152   4.974 -0.1901 -0.0338  0.7207
  633MOL0     C83476   5.473   1.943   5.420 -0.1526 -0.1938 -0.0273
  633MOL0     C83477   5.552   1.980   5.528  0.3678  0.0114 -0.0058
  633MOL0     C83478   5.957   1.947   5.796 -0.4176 -0.8345  0.4990
  633MOL0     C83479   5.909   2.055   5.864 -1.5450 -0.4096 -0.5176
  633MOL0     C83480   5.972   2.111   5.975 -0.4158  0.4497 -0.9204
  633MOL0     C83481   6.100   2.055   6.018  0.1428 -0.1062 -0.1702
  633MOL0     O83482   6.148   2.112   6.130 -0.0685  0.4633 -0.5159
  633MOL0     C83483   6.280   2.084   6.173 -0.4283 -0.4966  0.4710
  633MOL0     C83484   6.348   2.218   6.195  0.9282  0.4972 -0.7478
  633MOL0     C83485   6.275   2.311   6.291 -0.4652 -0.3720  1.4577
  633MOL0     C83486   6.358   2.439   6.328 -0.5665 -0.3875  0.8046
  633MOL0     C83487   6.329   2.499   6.457 -0.6432 -0.2419  0.6855
  633MOL0     C83488   6.288   2.554   6.551 -0.5312 -1.1742 -0.7280
  633MOL0     C83489   6.151   1.938   5.955  0.4531 -0.4723  0.3818
  633MOL0     C83490   6.082   1.886   5.846 -0.0724  0.3005 -0.1892
  633MOL0     H83491   5.771   1.712   5.506  0.5452  0.9244  0.9712
  633MOL0     H83492   5.597   1.632   5.355 -2.9042 -0.2036 -1.2739
  633MOL0     H83493   5.234   1.848   5.317 -0.4258 -0.3790 -1.2757
  633MOL0     H83494   5.268   1.679   5.363  0.9222  0.2624 -0.1435
  633MOL0     H83495   5.189   1.770   5.089 -0.7167 -0.4223 -0.6160
  633MOL0     H83496   5.091   1.672   5.179 -0.6683  0.9029 -1.9720
  633MOL0     H83497   5.214   1.480   5.173  0.8299 -0.0110 -0.8215
  633MOL0     H83498   5.368   1.569   5.123 -0.5938 -1.2184  0.8883
  633MOL0     H83499   5.108   1.543   4.972  0.3000  1.9074  2.3735
  633MOL0     H83500   5.255   1.624   4.910 -1.9609  2.0524  0.2697
  633MOL0     H83501   5.238   1.329   4.999  2.0385 -1.2166  0.4790
  633MOL0     H83502   5.361   1.416   4.893  0.0084 -0.4911  1.9069
  633MOL0     H83503   5.200   1.446   4.734  1.3753  1.1138  1.6772
  633MOL0     H83504   5.078   1.359   4.824 -0.5565  2.1713  0.0730
  633MOL0     H83505   5.195   1.154   4.841 -2.4969  0.5312  0.2175
  633MOL0     H83506   5.164   1.196   4.669  0.2375  2.1240 -0.9817
  633MOL0     H83507   5.402   1.230   4.633 -0.7037 -4.1120 -3.6360
  633MOL0     H83508   5.370   1.073   4.687 -0.0658  0.2393  0.6816
  633MOL0     H83509   5.628   1.301   4.744  2.8027  2.8738  3.2517
  633MOL0     H83510   5.745   1.381   5.090 -3.8812 -1.4221 -0.0962
  633MOL0     H83511   5.794   1.404   4.909  3.1417  0.3907  1.0293
  633MOL0     H83512   5.858   1.145   4.938  2.6588 -2.4940  1.6703
  633MOL0     H83513   5.890   1.197   5.101 -0.4062 -1.3780 -0.8955
  633MOL0     H83514   6.103   1.204   4.959  1.5782  1.2721  2.6437
  633MOL0     H83515   6.033   1.333   4.874  1.4044  0.9093 -0.0641
  633MOL0     H83516   6.025   1.470   5.078 -0.2340  1.2380  1.3847
  633MOL0     H83517   6.184   1.393   5.036 -0.3871 -1.0617 -0.3619
  633MOL0     H83518   6.239   1.243   5.409 -1.1346 -1.2006  3.3094
  633MOL0     H83519   6.349   1.367   5.566 -1.1739 -0.8920  0.4886
  633MOL0     H83520   6.370   1.849   5.792  1.8499  3.1685  1.4576
  633MOL0     H83521   6.479   1.946   5.966  0.7641 -0.4303 -1.0309
  633MOL0     H83522   6.621   2.023   6.134  0.7936  0.8102 -4.1372
  633MOL0     H83523   6.761   1.964   6.057 -1.7256  1.5614 -0.7545
  633MOL0     H83524   6.878   2.041   6.233 -0.8764  0.6770 -0.2270
  633MOL0     H83525   6.827   1.882   6.299  0.4007 -0.2494 -0.3505
  633MOL0     H83526   6.668   2.007   6.452 -1.4353  0.6153 -0.4073
  633MOL0     H83527   6.673   2.142   6.342  0.1989 -0.6512 -0.6162
  633MOL0     H83528   6.916   2.187   6.399 -0.2518  0.3896  0.0574
  633MOL0     H83529   6.792   2.225   6.513  2.2425  2.3393 -1.4680
  633MOL0     H83530   6.942   1.964   6.510 -2.8941 -1.1376 -1.5037
  633MOL0     H83531   6.833   2.007   6.634  0.3138  0.2823  1.4159
  633MOL0     H83532   6.996   2.204   6.695 -1.9341  1.4429 -2.3217
  633MOL0     H83533   7.095   2.161   6.551 -0.9901  0.5507 -0.5541
  633MOL0     H83534   7.047   1.968   6.788 -0.3701 -0.0783  0.8788
  633MOL0     H83535   7.152   1.942   6.645  1.8812  1.7634 -0.8149
  633MOL0     H83536   7.323   2.085   6.745 -0.8593  0.0861  0.3011
  633MOL0     H83537   7.241   1.985   6.872 -1.8847  0.8864  1.0497
  633MOL0     H83538   6.616   1.561   6.103 -0.9857  0.7661  1.4690
  633MOL0     H83539   6.505   1.452   5.913  0.0261  0.4114  2.5599
  633MOL0     H83540   6.144   1.724   5.422  3.1060 -0.8090  0.1842
  633MOL0     H83541   6.029   1.589   5.258  2.6431  0.8257 -2.9341
  633MOL0     H83542   5.395   2.012   5.389  0.1142 -0.6337 -1.7883
  633MOL0     H83543   5.532   2.080   5.562 -0.4851  0.3646 -1.4449
  633MOL0     H83544   5.825   2.102   5.813 -0.5460  1.2788 -0.6557
  633MOL0     H83545   5.938   2.200   6.028  0.7966 -0.1477  0.9648
  633MOL0     H83546   6.337   2.029   6.097  1.9868  4.1803 -1.5135
  633MOL0     H83547   6.265   2.026   6.265 -2.0277  0.2763  0.7376
  633MOL0     H83548   6.453   2.226   6.225  1.5312 -1.0650 -2.2477
  633MOL0     H83549   6.362   2.256   6.094  3.9640  0.8684 -0.2763
  633MOL0     H83550   6.253   2.249   6.379  1.4819 -1.1571  1.4363
  633MOL0     H83551   6.187   2.349   6.238  1.9758  1.4699 -1.6213
  633MOL0     H83552   6.467   2.426   6.335  0.1310  3.9390  0.5531
  633MOL0     H83553   6.337   2.514   6.251  2.5621 -3.1188 -3.1451
  633MOL0     H83554   6.266   2.612   6.638 -1.9623 -2.3734 -0.2590
  633MOL0     H83555   6.232   1.881   5.999  4.3636  2.8415 -1.7640
  633MOL0     H83556   6.122   1.796   5.801  1.3303 -0.5436  2.5515
  634MOL0     O83557   1.876   0.212  10.054  0.9734  0.2839  0.4377
  634MOL0     C83558   1.919   0.219  10.170 -0.4563 -0.2585  0.6033
  634MOL0     O83559   1.981   0.125  10.231 -0.5672 -0.2873 -0.3897
  634MOL0     C83560   2.038   0.029  10.151 -1.1999  0.1399  1.4206
  634MOL0     C83561   1.958  -0.074  10.098  0.1131  0.6097  0.3607
  634MOL0     C83562   2.021  -0.184  10.032  0.3791  0.2593 -0.3105
  634MOL0     C83563   2.159  -0.186  10.020  0.2780 -0.8853 -1.0592
  634MOL0     O83564   2.216  -0.297   9.986  0.3810  0.1548 -0.4863
  634MOL0     C83565   2.353  -0.319  10.026  0.1100  0.1396  0.3232
  634MOL0     C83566   2.394  -0.469  10.016  0.9410  0.0630 -0.1376
  634MOL0     C83567   2.546  -0.484  10.039  0.5456 -0.2762 -0.7493
  634MOL0     C83568   2.574  -0.633  10.033 -0.6058  0.2511  0.6804
  634MOL0     C83569   2.728  -0.663  10.052  0.9094  0.0070  0.1004
  634MOL0     C83570   2.772  -0.780   9.964 -0.2728 -0.4597 -0.0477
  634MOL0     C83571   2.831  -0.736   9.834  0.2919 -0.0468  0.0439
  634MOL0     C83572   2.928  -0.837   9.762  0.1704  0.0070  0.6836
  634MOL0     N83573   2.859  -0.964   9.728 -0.2031  0.9732 -0.2186
  634MOL0     C83574   2.780  -1.001   9.630  0.0374 -0.5085 -0.7351
  634MOL0     C83575   2.778  -1.135   9.632  1.2984 -0.5430 -0.2620
  634MOL0     C83576   2.700  -1.223   9.537  0.1078  0.9025  0.9638
  634MOL0     C83577   2.556  -1.206   9.564 -0.1938 -0.5106  0.4380
  634MOL0     C83578   2.472  -1.311   9.498  0.3735  0.1105  0.5822
  634MOL0     C83579   2.473  -1.302   9.348 -0.2481  0.9922 -0.2808
  634MOL0     O83580   2.369  -1.211   9.296 -0.2149  0.1829  0.0859
  634MOL0     C83581   2.401  -1.097   9.229  0.3732  0.0275  0.9799
  634MOL0     C83582   2.520  -1.024   9.236  0.7092  0.8841 -1.9212
  634MOL0     C83583   2.543  -0.889   9.175  0.4581  0.5883  0.1193
  634MOL0     C83584   2.439  -0.833   9.108  1.2822  0.7533  0.3443
  634MOL0     C83585   2.437  -0.693   9.071 -0.5069 -0.7955 -0.3742
  634MOL0     O83586   2.518  -0.607   9.142  0.5026  0.5702  0.5818
  634MOL0     C83587   2.532  -0.489   9.088  0.1164 -0.5159 -0.5933
  634MOL0     C83588   2.426  -0.393   9.109 -0.3694  0.1401 -1.0596
  634MOL0     C83589   2.435  -0.267   9.051 -0.4627 -0.8600 -0.0639
  634MOL0     C83590   2.551  -0.225   8.972  0.2304 -0.1579 -0.5231
  634MOL0     O83591   2.579  -0.099   8.932  0.4795 -0.0469  0.3788
  634MOL0     C83592   2.465  -0.017   8.918  0.1386  0.2935  0.3570
  634MOL0     C83593   2.424   0.040   9.058  0.0003 -0.3653 -0.1656
  634MOL0     C83594   2.269   0.072   9.069 -0.1360  0.3804 -0.5514
  634MOL0     C83595   2.208   0.147   8.944 -0.7140  0.4724 -0.9070
  634MOL0     C83596   2.079   0.214   8.974  0.0250  0.3248  0.1436
  634MOL0     C83597   1.971   0.121   9.033  0.6830 -0.5441 -0.6158
  634MOL0     C83598   1.841   0.198   9.056 -0.3135 -0.7040  0.6384
  634MOL0     C83599   1.748   0.108   9.137  0.5932 -0.7778 -0.2673
  634MOL0    Cl83600   1.724  -0.050   9.046 -0.2486  0.1455  0.3589
  634MOL0     C83601   2.654  -0.323   8.954  0.5745 -0.9791 -0.9258
  634MOL0     C83602   2.636  -0.447   9.015  0.3990 -0.1810  0.7862
  634MOL0     O83603   2.373  -0.661   8.968 -0.3610 -0.4774  0.0142
  634MOL0     C83604   2.326  -0.910   9.092  0.6532  0.1783  0.4902
  634MOL0     C83605   2.303  -1.037   9.152 -0.2359 -0.1440 -0.7121
  634MOL0     N83606   2.853  -1.173   9.742 -1.1753  0.6418 -0.5728
  634MOL0     N83607   2.912  -1.073   9.796 -1.1574 -0.3561 -0.0823
  634MOL0     C83608   2.236  -0.071  10.046  0.7872  0.7975 -0.3646
  634MOL0     C83609   2.175   0.032  10.114 -0.0570  0.5226  0.4700
  634MOL0     C83610   1.893   0.343  10.234 -0.5594  0.2406  0.0564
  634MOL0     C83611   1.852   0.454  10.153  0.2436  0.0281 -0.6402
  634MOL0     C83612   1.811   0.581  10.209  0.0436 -0.4698  0.4367
  634MOL0     C83613   1.806   0.586  10.347 -0.4782  0.2473  0.8357
  634MOL0     O83614   1.801   0.712  10.397 -0.0662  0.6043 -0.1300
  634MOL0     C83615   1.701   0.733  10.497 -0.1328 -0.7818 -0.8027
  634MOL0     C83616   1.751   0.857  10.569 -0.4726  0.0939 -0.0124
  634MOL0     C83617   1.680   0.886  10.702 -0.0707  0.9238  0.5107
  634MOL0     C83618   1.524   0.908  10.684  0.5556 -0.2262  0.2637
  634MOL0     C83619   1.473   1.037  10.732  0.0791  0.4379  0.3076
  634MOL0     C83620   1.443   1.150  10.770  0.2140  0.1707 -0.1150
  634MOL0     C83621   1.837   0.478  10.430  0.9255 -0.7349  0.0882
  634MOL0     C83622   1.883   0.360  10.374  0.5118 -0.0081 -0.7092
  634MOL0     H83623   1.854  -0.063  10.127 -0.6405  1.8211 -2.4534
  634MOL0     H83624   1.956  -0.269  10.009 -2.2964  1.3649  2.4913
  634MOL0     H83625   2.366  -0.300  10.133  0.0566 -1.0400  0.5471
  634MOL0     H83626   2.435  -0.273   9.970  1.2247 -2.5866 -0.4189
  634MOL0     H83627   2.360  -0.508   9.920 -1.1718  0.8302  0.2259
  634MOL0     H83628   2.336  -0.519  10.095  1.0148  3.5410  2.3411
  634MOL0     H83629   2.581  -0.437  10.131 -3.0269 -1.4017  1.3913
  634MOL0     H83630   2.586  -0.443   9.946 -0.1569 -2.6651 -2.1822
  634MOL0     H83631   2.513  -0.683  10.110 -1.6407  1.7390  0.8726
  634MOL0     H83632   2.533  -0.669   9.938  0.0253 -1.6103  1.0671
  634MOL0     H83633   2.729  -0.692  10.157 -1.1801 -0.7044 -0.0073
  634MOL0     H83634   2.777  -0.567  10.037  0.0558  0.6538  1.2522
  634MOL0     H83635   2.696  -0.852   9.930 -0.0700 -0.3207 -0.8162
  634MOL0     H83636   2.833  -0.851  10.021  0.0461 -1.2797 -1.3597
  634MOL0     H83637   2.748  -0.720   9.764 -1.0526 -0.5323  1.4751
  634MOL0     H83638   2.888  -0.644   9.849  2.8476 -1.1676 -1.9569
  634MOL0     H83639   3.009  -0.856   9.833  1.5176  0.0256 -0.7761
  634MOL0     H83640   2.977  -0.779   9.683 -2.2600  0.1438 -0.8327
  634MOL0     H83641   2.733  -0.924   9.570 -3.1246 -1.7845 -0.0733
  634MOL0     H83642   2.733  -1.326   9.556  1.1104  1.4935  2.6897
  634MOL0     H83643   2.715  -1.206   9.430  1.0816 -1.5570  0.6407
  634MOL0     H83644   2.509  -1.113   9.530 -1.9154 -1.2835  0.6189
  634MOL0     H83645   2.542  -1.209   9.672  3.0131 -2.3765  0.9292
  634MOL0     H83646   2.501  -1.410   9.534  3.1957 -0.4862 -2.7349
  634MOL0     H83647   2.371  -1.290   9.533 -0.9578 -2.4509 -1.3586
  634MOL0     H83648   2.445  -1.406   9.330 -3.2378  1.1899  2.3538
  634MOL0     H83649   2.572  -1.277   9.307  0.8102 -0.9916  0.9477
  634MOL0     H83650   2.604  -1.049   9.299  0.2208  1.9622 -0.8078
  634MOL0     H83651   2.637  -0.839   9.195  0.7496 -0.8400  2.7605
  634MOL0     H83652   2.338  -0.427   9.162 -2.6089  2.5782 -2.9166
  634MOL0     H83653   2.347  -0.205   9.064  1.4742  2.2730 -0.9277
  634MOL0     H83654   2.379  -0.072   8.880  1.9226 -1.8534 -0.8280
  634MOL0     H83655   2.490   0.056   8.840  2.0139 -0.4658  0.1917
  634MOL0     H83656   2.468   0.139   9.077 -1.1970  0.7243 -2.5889
  634MOL0     H83657   2.462  -0.017   9.143  0.8625  1.1752  0.5269
  634MOL0     H83658   2.257   0.128   9.162  3.1218 -0.3094  0.4078
  634MOL0     H83659   2.203  -0.013   9.087  1.0920  0.0456  3.0631
  634MOL0     H83660   2.280   0.221   8.910  0.3766 -0.5141 -0.8415
  634MOL0     H83661   2.195   0.075   8.862  0.1377  0.2555 -0.8701
  634MOL0     H83662   2.033   0.244   8.880  1.9824 -3.0945 -2.1236
  634MOL0     H83663   2.085   0.300   9.041 -0.2401  1.1109 -0.8202
  634MOL0     H83664   1.991   0.075   9.130 -1.7073 -0.5759 -0.0668
  634MOL0     H83665   1.953   0.041   8.960  1.4016 -1.5883  0.3191
  634MOL0     H83666   1.867   0.293   9.104 -0.4454 -1.8465  3.0743
  634MOL0     H83667   1.800   0.229   8.959  0.0077  0.4722  0.8564
  634MOL0     H83668   1.649   0.153   9.154  0.7767 -1.6286  4.0872
  634MOL0     H83669   1.786   0.081   9.236 -3.2739 -1.1267  1.2979
  634MOL0     H83670   2.736  -0.310   8.885  1.0685 -3.3795 -0.8761
  634MOL0     H83671   2.722  -0.510   8.993 -0.5610 -1.2699  0.0190
  634MOL0     H83672   2.251  -0.855   9.036 -0.3161 -0.9526  0.6381
  634MOL0     H83673   2.206  -1.084   9.139  0.3554 -1.2667 -1.2569
  634MOL0     H83674   2.341  -0.062  10.021  0.4897  1.4680 -1.4506
  634MOL0     H83675   2.241   0.106  10.157 -0.6919  0.7744  1.0431
  634MOL0     H83676   1.854   0.446  10.045  0.5070 -0.3518 -0.6093
  634MOL0     H83677   1.806   0.675  10.156  2.5253 -0.8514 -0.6146
  634MOL0     H83678   1.689   0.657  10.575  0.2797 -1.2910 -1.2191
  634MOL0     H83679   1.603   0.748  10.452 -0.5180  3.4464  1.0157
  634MOL0     H83680   1.857   0.838  10.588 -0.4360  0.3684  0.0694
  634MOL0     H83681   1.737   0.950  10.513 -0.9643  0.1617  0.2173
  634MOL0     H83682   1.721   0.973  10.754  1.7021 -0.4552  1.5443
  634MOL0     H83683   1.694   0.791  10.756  0.9106  1.9283  2.1042
  634MOL0     H83684   1.507   0.911  10.575  0.3439  1.8231  0.3196
  634MOL0     H83685   1.474   0.819  10.723 -0.6706  0.6664  0.8154
  634MOL0     H83686   1.402   1.242  10.806 -1.5777 -0.1425 -1.2130
  634MOL0     H83687   1.851   0.487  10.538  0.3474 -2.8581  0.3938
  634MOL0     H83688   1.896   0.275  10.440 -2.6435  2.0801  2.9930
  635MOL0     O83689   2.971   7.324   2.142  0.2358 -0.5716  0.3035
  635MOL0     C83690   2.850   7.343   2.114  1.3603 -0.7306 -0.1116
  635MOL0     O83691   2.788   7.307   2.007  0.0725 -0.3555 -0.0195
  635MOL0     C83692   2.868   7.240   1.908  0.5572 -0.9925 -1.1457
  635MOL0     C83693   2.924   7.313   1.810  0.5421 -0.1299  0.6877
  635MOL0     C83694   2.998   7.240   1.704  0.0203 -0.8927  0.1255
  635MOL0     C83695   2.992   7.103   1.706 -1.2110  1.2927  0.2381
  635MOL0     O83696   3.034   7.045   1.592  0.2805 -0.7339  0.2307
  635MOL0     C83697   3.110   6.918   1.587  0.4046  0.4899 -0.6494
  635MOL0     C83698   3.163   6.884   1.439 -0.8124  0.0105  0.0266
  635MOL0     C83699   3.260   6.763   1.456  0.5598  0.6756  0.3315
  635MOL0     C83700   3.228   6.643   1.545 -0.2510  0.6137 -0.5802
  635MOL0     C83701   3.333   6.536   1.539  0.0923 -0.3657 -0.8192
  635MOL0     C83702   3.304   6.419   1.621  0.2496 -0.0692 -0.3651
  635MOL0     C83703   3.436   6.335   1.609 -0.7602 -0.3886 -0.2888
  635MOL0     C83704   3.474   6.277   1.470 -0.1892 -0.0660 -0.2846
  635MOL0     N83705   3.357   6.197   1.432 -0.2735  0.1231  0.9183
  635MOL0     C83706   3.315   6.084   1.506  0.0919  0.3036 -0.2431
  635MOL0     C83707   3.193   6.042   1.447 -1.0079  0.2942 -0.8981
  635MOL0     C83708   3.096   5.934   1.481  0.1307  0.7490  0.7365
  635MOL0     C83709   3.179   5.834   1.556 -0.2784  0.2035  0.5056
  635MOL0     C83710   3.096   5.711   1.597 -0.6451 -0.2032  0.0040
  635MOL0     C83711   3.171   5.638   1.704 -0.0787 -0.0395  0.4643
  635MOL0     O83712   3.260   5.551   1.634  0.4788 -0.3620  0.7939
  635MOL0     C83713   3.350   5.472   1.697  1.1425  0.8259 -0.5326
  635MOL0     C83714   3.347   5.443   1.830 -0.9647  0.0629 -0.2722
  635MOL0     C83715   3.450   5.375   1.899  0.1941 -1.0244 -0.5450
  635MOL0     C83716   3.560   5.326   1.823 -0.0887  1.0599 -0.1673
  635MOL0     C83717   3.673   5.261   1.898 -0.4706  0.8437 -0.0030
  635MOL0     O83718   3.673   5.275   2.036 -0.0556 -0.7852  0.2046
  635MOL0     C83719   3.783   5.224   2.100  0.8905  0.4380  1.1201
  635MOL0     C83720   3.770   5.156   2.220  0.5642 -0.0889 -0.1624
  635MOL0     C83721   3.879   5.089   2.282 -0.5211  0.3214 -1.4021
  635MOL0     C83722   4.012   5.119   2.234 -0.0195  0.0454  0.5324
  635MOL0     O83723   4.117   5.057   2.300 -0.6410  0.3980 -0.3170
  635MOL0     C83724   4.242   5.026   2.230  1.5548  0.0582 -0.3868
  635MOL0     C83725   4.325   4.949   2.327 -1.2474 -0.2991 -0.4969
  635MOL0     C83726   4.444   4.879   2.258 -1.7042 -0.2831 -0.9853
  635MOL0     C83727   4.510   4.791   2.372  0.6752  0.3753 -0.6203
  635MOL0     C83728   4.554   4.860   2.497  1.0164 -0.6045 -0.1107
  635MOL0     C83729   4.637   4.769   2.585 -0.5908  0.9696 -0.2333
  635MOL0     C83730   4.745   4.844   2.675  0.6859  0.5843 -0.1328
  635MOL0     C83731   4.840   4.756   2.753 -1.7839  0.0050  0.3454
  635MOL0    Cl83732   4.996   4.853   2.788 -0.2553  0.0260  0.1855
  635MOL0     C83733   4.024   5.196   2.110 -0.0921  0.1333 -0.0667
  635MOL0     C83734   3.911   5.253   2.059 -1.1388 -0.3865 -0.4472
  635MOL0     O83735   3.761   5.206   1.828 -0.5362  0.5164 -0.2003
  635MOL0     C83736   3.566   5.351   1.683  0.5332  0.4095  0.1160
  635MOL0     C83737   3.460   5.425   1.625  0.1862  0.3540  0.1017
  635MOL0     N83738   3.168   6.126   1.340 -0.6687  0.3041 -1.1068
  635MOL0     N83739   3.262   6.218   1.336  0.4214  0.4761 -0.1993
  635MOL0     C83740   2.928   7.046   1.806 -0.3655  0.4506 -1.0244
  635MOL0     C83741   2.860   7.105   1.908  0.0319  0.1049  0.2969
  635MOL0     C83742   2.763   7.403   2.222 -0.5778 -0.8742  0.8613
  635MOL0     C83743   2.809   7.410   2.356 -0.3884 -0.5073  0.4345
  635MOL0     C83744   2.725   7.475   2.444 -0.1660  0.5719 -0.3423
  635MOL0     C83745   2.609   7.542   2.405 -0.8239  1.4195  0.4667
  635MOL0     O83746   2.540   7.623   2.505 -0.0690  0.0546 -0.3557
  635MOL0     C83747   2.453   7.731   2.473  0.3828 -0.2208 -0.3136
  635MOL0     C83748   2.535   7.838   2.400  0.1415  0.6111  0.5267
  635MOL0     C83749   2.593   7.952   2.489 -0.6351 -0.4073  0.1146
  635MOL0     C83750   2.701   7.899   2.593  0.4109 -0.0724 -0.1418
  635MOL0     C83751   2.772   8.005   2.663  0.8786  0.1245  0.4756
  635MOL0     C83752   2.838   8.081   2.737  1.4116 -1.2516 -0.4218
  635MOL0     C83753   2.566   7.529   2.268 -0.2753 -0.1478 -0.8480
  635MOL0     C83754   2.645   7.464   2.176 -0.2134  0.2243  1.1620
  635MOL0     H83755   2.916   7.421   1.806  0.7722 -0.0425  2.0286
  635MOL0     H83756   3.044   7.292   1.621  4.2386  2.2076  3.8633
  635MOL0     H83757   3.054   6.834   1.630  1.1129 -0.1927 -1.0398
  635MOL0     H83758   3.200   6.944   1.642  0.7545 -0.9012 -0.5246
  635MOL0     H83759   3.198   6.974   1.388 -0.5020 -0.6990 -1.0466
  635MOL0     H83760   3.084   6.832   1.384 -0.0559 -0.3215 -0.7653
  635MOL0     H83761   3.361   6.786   1.492  0.8833 -1.7478  1.1834
  635MOL0     H83762   3.272   6.717   1.357 -0.6207 -1.2857  1.0366
  635MOL0     H83763   3.212   6.673   1.649 -1.1228 -2.5925  0.3519
  635MOL0     H83764   3.129   6.604   1.518 -0.1318  1.5293 -2.4689
  635MOL0     H83765   3.423   6.585   1.577 -1.8881  3.5578 -0.6431
  635MOL0     H83766   3.353   6.505   1.436  1.1588 -1.7194 -0.2432
  635MOL0     H83767   3.213   6.368   1.588  0.9274 -0.3041 -1.9566
  635MOL0     H83768   3.291   6.456   1.724 -0.8773  0.9131 -0.8287
  635MOL0     H83769   3.521   6.402   1.627 -2.9497  1.9633  2.0829
  635MOL0     H83770   3.440   6.265   1.693  0.6970  0.6006  0.5342
  635MOL0     H83771   3.563   6.217   1.491 -0.2134  0.5468  1.7590
  635MOL0     H83772   3.512   6.347   1.394 -1.6270  2.4505  1.1653
  635MOL0     H83773   3.367   6.040   1.590 -0.2076 -1.1962 -0.8041
  635MOL0     H83774   3.048   5.881   1.399  2.5669 -0.4611  0.0238
  635MOL0     H83775   3.026   5.978   1.554  1.7072  1.8582  1.6341
  635MOL0     H83776   3.219   5.889   1.642  3.3607  2.7343 -2.4477
  635MOL0     H83777   3.257   5.807   1.484 -2.4197 -0.4300 -1.7163
  635MOL0     H83778   2.998   5.737   1.639  0.3177 -0.6794  2.7972
  635MOL0     H83779   3.081   5.648   1.509 -2.1592 -1.9138  1.3953
  635MOL0     H83780   3.104   5.565   1.750  0.1658 -1.1798 -0.8961
  635MOL0     H83781   3.225   5.704   1.773  2.5332 -0.0018 -1.4344
  635MOL0     H83782   3.263   5.483   1.884  0.7275  2.5931  0.6638
  635MOL0     H83783   3.449   5.351   2.005 -1.9379 -1.0090 -0.5032
  635MOL0     H83784   3.668   5.134   2.251  0.3957 -0.3346 -0.8739
  635MOL0     H83785   3.877   5.032   2.374 -2.0079 -0.7485 -2.0578
  635MOL0     H83786   4.294   5.118   2.202  1.9226  0.4202  1.3675
  635MOL0     H83787   4.227   4.962   2.142 -0.1963 -2.0694  1.3544
  635MOL0     H83788   4.262   4.876   2.379  0.1230 -1.0890  0.0948
  635MOL0     H83789   4.375   5.004   2.406  1.2985 -0.7243 -1.6989
  635MOL0     H83790   4.525   4.946   2.229  1.1871 -2.6965  0.9262
  635MOL0     H83791   4.417   4.809   2.179  0.5351 -2.0376 -0.2971
  635MOL0     H83792   4.443   4.708   2.397  1.0909 -0.0822 -1.0191
  635MOL0     H83793   4.601   4.756   2.322  1.8195 -1.8083  2.6826
  635MOL0     H83794   4.462   4.884   2.551  0.1719  0.7212 -2.0077
  635MOL0     H83795   4.606   4.954   2.472  1.1685  1.0238  5.0927
  635MOL0     H83796   4.696   4.702   2.521 -0.7281  1.3307 -0.7486
  635MOL0     H83797   4.578   4.711   2.656  0.2469  1.7745  1.1829
  635MOL0     H83798   4.790   4.903   2.595 -5.3212  3.0162 -2.3403
  635MOL0     H83799   4.706   4.925   2.738  1.3542  0.2584  0.7170
  635MOL0     H83800   4.855   4.670   2.687 -2.8834 -2.3000  2.8874
  635MOL0     H83801   4.785   4.710   2.837 -0.5664 -0.9904  0.6251
  635MOL0     H83802   4.122   5.225   2.072  1.1666  0.1152  2.8265
  635MOL0     H83803   3.905   5.323   1.976 -3.2754 -0.2862 -0.2863
  635MOL0     H83804   3.658   5.329   1.630  0.8734 -0.3390  0.9845
  635MOL0     H83805   3.468   5.465   1.524  0.7913 -1.0774 -0.4427
  635MOL0     H83806   2.915   6.939   1.798 -3.4279  0.6528  0.0735
  635MOL0     H83807   2.809   7.055   1.989  2.6673 -0.4061  1.7674
  635MOL0     H83808   2.905   7.372   2.387  0.9630  2.8618  0.8054
  635MOL0     H83809   2.756   7.485   2.548  1.7674  1.3747 -0.9467
  635MOL0     H83810   2.395   7.760   2.562 -0.4639 -4.8423  0.9013
  635MOL0     H83811   2.374   7.699   2.405 -1.4826  0.7315  1.2761
  635MOL0     H83812   2.601   7.792   2.326 -0.8483 -0.5648  0.3268
  635MOL0     H83813   2.464   7.886   2.332 -1.0054 -3.1298 -1.1606
  635MOL0     H83814   2.513   7.995   2.550 -0.7775  0.7159 -0.8345
  635MOL0     H83815   2.628   8.027   2.418  1.8271 -0.6833  0.9372
  635MOL0     H83816   2.654   7.834   2.667  0.2711  0.2686  0.0706
  635MOL0     H83817   2.775   7.839   2.541 -0.2281 -0.0909 -1.0576
  635MOL0     H83818   2.897   8.137   2.807 -1.8081 -1.7679  3.0357
  635MOL0     H83819   2.467   7.556   2.232 -0.3610  0.0941 -0.4392
  635MOL0     H83820   2.601   7.462   2.077 -4.9574  1.2914  2.9369
  636MOL0     O83821   5.227   1.649   2.786  0.2117 -0.0168  0.1034
  636MOL0     C83822   5.229   1.769   2.786 -0.3964 -0.0551 -0.6414
  636MOL0     O83823   5.137   1.851   2.848 -0.0639  0.7608  0.3878
  636MOL0     C83824   5.051   1.800   2.939  0.7508 -0.3513  0.2312
  636MOL0     C83825   5.056   1.693   3.030 -0.0445 -0.0592 -0.6817
  636MOL0     C83826   4.955   1.670   3.134  0.3009  0.2860  0.3851
  636MOL0     C83827   4.849   1.761   3.149 -0.4603 -0.1725  0.1636
  636MOL0     O83828   4.748   1.757   3.241 -0.4087 -0.3820  0.5580
  636MOL0     C83829   4.787   1.723   3.369 -0.3113 -0.2612  0.4710
  636MOL0     C83830   4.670   1.716   3.464  0.2856 -0.4367 -0.5492
  636MOL0     C83831   4.562   1.615   3.423  0.6470  0.5321 -0.0336
  636MOL0     C83832   4.609   1.473   3.418 -0.5828 -0.6374 -0.2871
  636MOL0     C83833   4.498   1.380   3.393 -0.4776  0.4495 -0.2030
  636MOL0     C83834   4.539   1.264   3.291  0.8485  0.6422  0.1386
  636MOL0     C83835   4.448   1.147   3.289 -0.0611 -0.5321  0.5136
  636MOL0     C83836   4.500   1.052   3.178 -1.1795  0.9625 -1.2358
  636MOL0     N83837   4.407   0.942   3.157  0.0251 -0.2355 -0.1965
  636MOL0     C83838   4.403   0.834   3.237 -0.2089  0.0911  0.7362
  636MOL0     C83839   4.306   0.756   3.173  0.1171 -0.3982 -0.3779
  636MOL0     C83840   4.276   0.610   3.213  0.1171 -0.5735 -0.2598
  636MOL0     C83841   4.351   0.505   3.143 -0.0030 -0.3831 -0.4189
  636MOL0     C83842   4.332   0.495   2.991  0.4428 -0.8206  1.1985
  636MOL0     C83843   4.414   0.396   2.914 -0.2468  0.0727  0.5370
  636MOL0     O83844   4.417   0.253   2.965 -0.1614 -0.4763  0.1226
  636MOL0     C83845   4.501   0.178   2.887  0.3049 -0.1736  0.2057
  636MOL0     C83846   4.637   0.168   2.909  1.0077  0.2164 -0.8692
  636MOL0     C83847   4.720   0.118   2.818  0.1916 -0.0424 -0.8389
  636MOL0     C83848   4.674   0.053   2.702 -0.6965  0.2811 -0.3050
  636MOL0     C83849   4.768  -0.020   2.610  0.8099 -0.8696  0.1923
  636MOL0     O83850   4.898  -0.006   2.630  0.1474 -0.2011 -0.2309
  636MOL0     C83851   5.001  -0.052   2.557  0.5427  0.0359  0.0661
  636MOL0     C83852   5.124   0.025   2.554  1.1081 -0.3908 -0.7510
  636MOL0     C83853   5.240  -0.026   2.496 -0.6817 -0.0734  0.0150
  636MOL0     C83854   5.230  -0.154   2.429  0.2643 -0.3449  0.0454
  636MOL0     O83855   5.342  -0.219   2.386  0.1362  0.4166 -0.4498
  636MOL0     C83856   5.435  -0.250   2.491 -0.4597  0.1880  0.7228
  636MOL0     C83857   5.445  -0.404   2.494 -0.6131 -0.0470 -0.3079
  636MOL0     C83858   5.566  -0.465   2.408 -0.5078 -0.4377 -0.6936
  636MOL0     C83859   5.616  -0.586   2.478 -0.2925  1.2204 -0.2108
  636MOL0     C83860   5.513  -0.702   2.466 -0.0032  0.3854 -0.8359
  636MOL0     C83861   5.493  -0.742   2.317  0.4633 -0.2352  0.2969
  636MOL0     C83862   5.386  -0.851   2.308 -0.5339  0.1457 -0.2109
  636MOL0     C83863   5.280  -0.816   2.203 -0.2332 -0.1780  1.4283
  636MOL0    Cl83864   5.180  -0.684   2.246 -0.5692 -0.6563  0.0519
  636MOL0     C83865   5.106  -0.220   2.411 -0.2220  1.2552 -0.0556
  636MOL0     C83866   4.993  -0.173   2.473  0.4080  0.7605 -1.1624
  636MOL0     O83867   4.720  -0.098   2.526  0.4520 -0.9342  0.8143
  636MOL0     C83868   4.537   0.068   2.678  0.7460 -1.0720  0.2696
  636MOL0     C83869   4.447   0.122   2.769  0.2815 -0.0766 -0.2649
  636MOL0     N83870   4.250   0.824   3.075  0.6067  0.2124  1.2178
  636MOL0     N83871   4.311   0.933   3.056  0.0369  0.0961 -0.0350
  636MOL0     C83872   4.838   1.864   3.048 -0.3014 -0.8273 -1.0250
  636MOL0     C83873   4.942   1.886   2.948  0.3658 -0.7316 -0.1707
  636MOL0     C83874   5.340   1.834   2.735 -0.1951  0.3671 -0.7193
  636MOL0     C83875   5.437   1.768   2.660 -0.2089  0.2070  0.3651
  636MOL0     C83876   5.557   1.836   2.611 -0.9648  0.2319 -0.3138
  636MOL0     C83877   5.586   1.971   2.647  0.1583 -0.1244  0.5818
  636MOL0     O83878   5.709   2.011   2.609  0.3915  0.8029 -0.4377
  636MOL0     C83879   5.752   2.129   2.675  0.3555  0.1204  0.6136
  636MOL0     C83880   5.877   2.188   2.616  0.0669  0.5531 -0.7799
  636MOL0     C83881   5.998   2.096   2.612  0.4432  0.2509  0.3873
  636MOL0     C83882   6.124   2.152   2.537 -0.6071 -0.3618 -1.2543
  636MOL0     C83883   6.233   2.137   2.624  0.2411  0.5613  1.2627
  636MOL0     C83884   6.316   2.126   2.713 -1.4465  0.2744  0.2153
  636MOL0     C83885   5.487   2.045   2.710 -0.1290  0.4920 -0.6352
  636MOL0     C83886   5.358   1.984   2.748 -0.5204 -1.2425  0.7430
  636MOL0     H83887   5.142   1.627   3.020  0.2568  0.3141 -0.5748
  636MOL0     H83888   4.956   1.572   3.181  0.4995 -0.7877 -1.7240
  636MOL0     H83889   4.864   1.798   3.389  4.0514 -3.6124 -1.8915
  636MOL0     H83890   4.848   1.633   3.382  1.9553  1.2638  1.0470
  636MOL0     H83891   4.616   1.811   3.467  0.1097 -0.5493 -0.0652
  636MOL0     H83892   4.704   1.692   3.565 -0.7623  0.4623  0.0290
  636MOL0     H83893   4.512   1.646   3.331  0.6515 -1.0129 -0.5847
  636MOL0     H83894   4.480   1.612   3.495  1.5121  1.5912  1.0267
  636MOL0     H83895   4.675   1.468   3.330 -1.0407 -1.7071 -0.5921
  636MOL0     H83896   4.673   1.450   3.503  2.9014  1.7375 -1.9937
  636MOL0     H83897   4.413   1.441   3.361 -1.1223  0.0932  0.7501
  636MOL0     H83898   4.465   1.329   3.485 -2.8399 -1.3330 -1.9196
  636MOL0     H83899   4.633   1.215   3.317 -1.4913 -2.2474  4.3386
  636MOL0     H83900   4.533   1.300   3.187 -3.0912 -1.9040 -0.7318
  636MOL0     H83901   4.447   1.100   3.388  6.7398 -3.7969 -0.3830
  636MOL0     H83902   4.352   1.186   3.255  0.3644  2.7877  2.5852
  636MOL0     H83903   4.597   1.021   3.220 -0.4469  1.0015 -2.8400
  636MOL0     H83904   4.528   1.096   3.082 -1.5200  2.5610 -0.6363
  636MOL0     H83905   4.481   0.811   3.308  1.8448 -0.3438 -1.5258
  636MOL0     H83906   4.170   0.585   3.214  0.1163 -0.6059  1.2515
  636MOL0     H83907   4.310   0.607   3.317  0.8941  0.2308 -0.4698
  636MOL0     H83908   4.309   0.413   3.185 -0.7534 -0.1212 -0.5712
  636MOL0     H83909   4.456   0.506   3.172  0.0661 -0.4615 -0.6699
  636MOL0     H83910   4.230   0.465   2.964  0.3393  1.0075 -0.7386
  636MOL0     H83911   4.333   0.594   2.944  0.1302 -2.2728 -2.1709
  636MOL0     H83912   4.515   0.438   2.907 -1.6136  3.4229 -2.0644
  636MOL0     H83913   4.373   0.389   2.813  0.4165  1.5053  0.1385
  636MOL0     H83914   4.686   0.209   2.997 -5.7769  1.9567  2.7764
  636MOL0     H83915   4.828   0.116   2.832 -0.1164 -3.2275  2.5943
  636MOL0     H83916   5.131   0.118   2.610 -0.2176 -0.1202 -1.0084
  636MOL0     H83917   5.336   0.024   2.503 -0.3328 -0.8615  1.1374
  636MOL0     H83918   5.400  -0.217   2.589 -2.6297 -0.9731  0.3794
  636MOL0     H83919   5.533  -0.217   2.454 -0.6121 -0.7514 -0.5742
  636MOL0     H83920   5.346  -0.446   2.472 -1.7848  3.3688 -2.2737
  636MOL0     H83921   5.476  -0.422   2.598  1.1232  1.3314 -0.5311
  636MOL0     H83922   5.653  -0.400   2.418  2.8833 -4.6930  0.3150
  636MOL0     H83923   5.528  -0.477   2.306 -3.7429 -5.3227  0.7208
  636MOL0     H83924   5.707  -0.616   2.425 -1.3798  0.3186 -1.6469
  636MOL0     H83925   5.641  -0.562   2.581  1.7874 -1.3370 -0.0066
  636MOL0     H83926   5.421  -0.668   2.514  0.8408 -0.0752  1.1719
  636MOL0     H83927   5.555  -0.786   2.522  1.9726  1.5587 -0.4628
  636MOL0     H83928   5.580  -0.784   2.266  1.5791  2.7964 -0.4650
  636MOL0     H83929   5.457  -0.659   2.255 -2.1752  0.1714  2.2145
  636MOL0     H83930   5.445  -0.939   2.281 -1.0488  0.0011 -0.9215
  636MOL0     H83931   5.335  -0.867   2.403 -0.4466  0.0098 -0.1883
  636MOL0     H83932   5.205  -0.894   2.190 -2.7919  2.6014 -4.5538
  636MOL0     H83933   5.320  -0.789   2.104 -0.3467 -0.2451  1.3645
  636MOL0     H83934   5.106  -0.319   2.366 -4.4055  0.7435  0.6385
  636MOL0     H83935   4.903  -0.229   2.451 -0.8596  2.3205 -0.1859
  636MOL0     H83936   4.493   0.037   2.583  1.7468  2.1249 -1.4216
  636MOL0     H83937   4.343   0.133   2.738  0.3670 -1.9254 -1.3601
  636MOL0     H83938   4.759   1.935   3.068 -2.8292 -3.9493  0.8858
  636MOL0     H83939   4.946   1.973   2.883  1.3754 -1.6507 -1.3829
  636MOL0     H83940   5.436   1.660   2.652 -0.2364  0.0887  1.7174
  636MOL0     H83941   5.633   1.786   2.552  0.2948 -1.0604  2.1983
  636MOL0     H83942   5.762   2.114   2.783  2.6404 -0.0968  0.4164
  636MOL0     H83943   5.679   2.209   2.660  0.1398  0.3203  2.4257
  636MOL0     H83944   5.857   2.223   2.515  1.5123  2.3420 -0.4975
  636MOL0     H83945   5.904   2.276   2.675  2.9234  1.3891 -3.0572
  636MOL0     H83946   5.970   2.004   2.560 -0.0330  1.4070 -1.4963
  636MOL0     H83947   6.019   2.061   2.714 -1.1382  0.3727  0.7737
  636MOL0     H83948   6.148   2.083   2.456  2.7547 -2.9896  1.6704
  636MOL0     H83949   6.118   2.258   2.508  1.4025 -0.4512 -2.1770
  636MOL0     H83950   6.383   2.120   2.796 -1.8102 -1.6554  0.4324
  636MOL0     H83951   5.493   2.151   2.733 -0.9967  0.1476  1.4670
  636MOL0     H83952   5.274   2.034   2.795 -1.1116 -0.0559 -1.4620
  637MOL0     O83953   3.004   7.113   5.359 -0.0824 -0.6687  0.2363
  637MOL0     C83954   3.117   7.109   5.304 -0.0732  0.1884 -0.5559
  637MOL0     O83955   3.160   7.018   5.206 -0.9669 -0.2124  0.2373
  637MOL0     C83956   3.081   6.938   5.129 -0.1248  0.0066 -0.1127
  637MOL0     C83957   2.939   6.966   5.125 -0.3435 -0.0413  0.4151
  637MOL0     C83958   2.860   6.878   5.046  0.5569 -0.3548 -0.0467
  637MOL0     C83959   2.910   6.772   4.976 -0.2628  0.6324  0.1704
  637MOL0     O83960   2.827   6.685   4.913 -0.1989 -0.5729  0.7948
  637MOL0     C83961   2.885   6.595   4.813  0.3584 -0.4054  0.1566
  637MOL0     C83962   2.881   6.660   4.676 -0.1903 -0.2330  1.2416
  637MOL0     C83963   2.738   6.659   4.606  0.4070 -0.2068 -0.0137
  637MOL0     C83964   2.746   6.634   4.450 -0.3078  0.1563  0.7530
  637MOL0     C83965   2.614   6.620   4.380  0.4422  0.4048  0.0593
  637MOL0     C83966   2.613   6.549   4.243  0.3459 -0.0761 -0.0561
  637MOL0     C83967   2.695   6.632   4.142  0.0028  0.0010  0.0207
  637MOL0     C83968   2.666   6.569   4.006 -0.3639 -0.6644 -0.0738
  637MOL0     N83969   2.717   6.660   3.906  0.0955 -0.5508  0.2581
  637MOL0     C83970   2.654   6.775   3.870  0.1136 -0.7169  0.6733
  637MOL0     C83971   2.738   6.843   3.788 -0.1068 -0.9008 -0.8980
  637MOL0     C83972   2.706   6.972   3.709  0.3328  0.1361  0.0804
  637MOL0     C83973   2.702   6.923   3.562 -0.7375 -0.0935 -0.0837
  637MOL0     C83974   2.671   7.039   3.471 -0.2590  0.4191  0.2910
  637MOL0     C83975   2.657   6.987   3.328 -0.3294 -0.2454  0.2273
  637MOL0     O83976   2.526   6.932   3.298  0.4201 -0.6033 -0.2863
  637MOL0     C83977   2.522   6.849   3.202 -0.6485 -1.0255  0.5294
  637MOL0     C83978   2.429   6.742   3.211 -0.7426 -0.2937 -0.5591
  637MOL0     C83979   2.419   6.657   3.100  0.5006  0.4642  0.1086
  637MOL0     C83980   2.487   6.675   2.977  0.7011  0.4075 -1.1242
  637MOL0     C83981   2.461   6.595   2.848 -0.6810  0.1397 -0.3803
  637MOL0     O83982   2.389   6.484   2.871 -0.3513  0.7967 -0.0412
  637MOL0     C83983   2.326   6.425   2.768 -0.5872 -0.0373  0.3671
  637MOL0     C83984   2.344   6.288   2.760  0.7947 -0.8030  0.3851
  637MOL0     C83985   2.293   6.218   2.649  0.1374  0.0411  0.8582
  637MOL0     C83986   2.229   6.285   2.540 -0.8116  0.7841  0.9376
  637MOL0     O83987   2.190   6.227   2.423 -0.1316 -0.6187 -0.2894
  637MOL0     C83988   2.168   6.094   2.393  0.4327  0.2938 -0.5455
  637MOL0     C83989   2.264   6.024   2.298  1.0357 -0.1657 -0.2607
  637MOL0     C83990   2.388   5.978   2.369  0.4293 -0.5487 -0.4714
  637MOL0     C83991   2.504   5.944   2.280 -0.0658  0.2509  0.6849
  637MOL0     C83992   2.645   5.906   2.352 -0.0415 -0.6617  0.1609
  637MOL0     C83993   2.736   6.025   2.367  0.3310 -0.7324  0.3533
  637MOL0     C83994   2.769   6.097   2.232 -0.5326 -0.0515 -0.2250
  637MOL0     C83995   2.891   6.186   2.232  1.0726 -0.7389 -0.3520
  637MOL0    Cl83996   2.873   6.316   2.367  0.2357 -0.4518 -0.1460
  637MOL0     C83997   2.216   6.426   2.544  0.0096 -0.0383 -1.1524
  637MOL0     C83998   2.256   6.494   2.667 -0.2008  1.0452  0.2283
  637MOL0     O83999   2.495   6.640   2.742 -0.1732 -0.8604  0.1737
  637MOL0     C84000   2.580   6.780   2.975  0.8818  1.6676  0.4676
  637MOL0     C84001   2.594   6.864   3.078  0.1645 -0.1526 -0.9734
  637MOL0     N84002   2.851   6.769   3.779  0.0627  0.8428  0.1981
  637MOL0     N84003   2.840   6.657   3.842  0.4484  0.1668  0.4000
  637MOL0     C84004   3.048   6.746   4.990 -0.1894 -0.5992 -0.8467
  637MOL0     C84005   3.135   6.833   5.057  0.2818  0.1394  0.0254
  637MOL0     C84006   3.203   7.225   5.340 -0.0634  0.5904 -0.0182
  637MOL0     C84007   3.149   7.327   5.419  0.5127 -0.9932  1.4946
  637MOL0     C84008   3.215   7.442   5.446 -0.4701  0.0026 -0.1639
  637MOL0     C84009   3.348   7.446   5.413 -0.1635 -0.2507 -0.3257
  637MOL0     O84010   3.428   7.551   5.445  0.2250 -0.6275 -0.4852
  637MOL0     C84011   3.453   7.573   5.596 -0.1998 -1.1825  0.5064
  637MOL0     C84012   3.546   7.471   5.671 -0.5699  0.2626 -0.6698
  637MOL0     C84013   3.690   7.482   5.612 -0.8843 -0.9734 -1.0492
  637MOL0     C84014   3.785   7.389   5.685 -0.6617 -0.6648  0.2814
  637MOL0     C84015   3.910   7.367   5.615 -0.0739  0.6573  0.7033
  637MOL0     C84016   4.013   7.355   5.550  0.6765  0.9274  0.0864
  637MOL0     C84017   3.411   7.338   5.331  0.8354 -0.6672 -0.2624
  637MOL0     C84018   3.333   7.233   5.287  0.0038  0.5932  0.7215
  637MOL0     H84019   2.874   7.030   5.184 -3.9582 -1.8750 -1.2482
  637MOL0     H84020   2.754   6.897   5.055  0.2062 -1.1227 -1.9904
  637MOL0     H84021   2.818   6.508   4.811  0.0154 -0.4164  3.8557
  637MOL0     H84022   2.972   6.535   4.842 -1.1596 -2.7222  0.1532
  637MOL0     H84023   2.954   6.600   4.621  0.5234  1.6832 -0.0202
  637MOL0     H84024   2.914   6.763   4.661  1.1899 -1.0347 -2.4836
  637MOL0     H84025   2.687   6.754   4.623  1.8310  0.7234 -0.7009
  637MOL0     H84026   2.675   6.580   4.648 -0.2888  0.2806 -0.1151
  637MOL0     H84027   2.801   6.720   4.412 -0.2868  0.0854  0.6238
  637MOL0     H84028   2.806   6.546   4.427 -3.9158 -2.2994 -0.1907
  637MOL0     H84029   2.558   6.712   4.361 -1.8698 -0.9344 -0.0634
  637MOL0     H84030   2.555   6.554   4.445 -4.6090  1.2922 -3.0175
  637MOL0     H84031   2.516   6.516   4.202  0.4501  0.2517 -0.5790
  637MOL0     H84032   2.673   6.459   4.260 -0.5484 -0.7259 -0.2278
  637MOL0     H84033   2.669   6.738   4.137  1.2970  0.2858 -1.0686
  637MOL0     H84034   2.803   6.627   4.158  0.6695 -0.2818 -3.6442
  637MOL0     H84035   2.558   6.557   4.001 -0.7521 -0.4032  3.9251
  637MOL0     H84036   2.725   6.478   3.990 -1.4534 -1.1474 -1.5428
  637MOL0     H84037   2.550   6.801   3.887  0.1031 -0.2531 -0.0574
  637MOL0     H84038   2.781   7.050   3.727 -0.7987  1.7174 -1.6757
  637MOL0     H84039   2.609   7.014   3.735 -1.2035 -2.4759 -1.0160
  637MOL0     H84040   2.629   6.842   3.559  0.9191 -1.6434 -0.7962
  637MOL0     H84041   2.805   6.889   3.546 -0.5426 -0.1205  1.1521
  637MOL0     H84042   2.575   7.086   3.493  0.0936  2.5429 -2.2400
  637MOL0     H84043   2.747   7.118   3.471  1.4614 -1.0870  2.6919
  637MOL0     H84044   2.743   6.924   3.305 -0.0541 -0.1097  0.8699
  637MOL0     H84045   2.667   7.073   3.260 -1.4337  0.3298  0.7623
  637MOL0     H84046   2.346   6.745   3.282  1.2654 -1.1076  1.9743
  637MOL0     H84047   2.347   6.576   3.111  0.1417  1.0569  3.1585
  637MOL0     H84048   2.386   6.238   2.846 -2.0641 -2.3381  0.9991
  637MOL0     H84049   2.312   6.111   2.647  0.4114  0.0977  0.3734
  637MOL0     H84050   2.073   6.099   2.339  0.3528  3.9875 -0.3286
  637MOL0     H84051   2.144   6.037   2.484 -4.6607  1.5860 -0.7694
  637MOL0     H84052   2.310   6.099   2.233  0.2010  3.6284  3.1023
  637MOL0     H84053   2.214   5.940   2.250 -1.2707  0.7752  0.3631
  637MOL0     H84054   2.353   5.896   2.432 -4.3180  0.3822 -1.5338
  637MOL0     H84055   2.419   6.060   2.435 -0.5797 -0.4926 -0.0368
  637MOL0     H84056   2.467   5.851   2.236 -1.8394  1.5197 -0.6778
  637MOL0     H84057   2.517   6.029   2.212  1.3993  0.4473  1.1659
  637MOL0     H84058   2.700   5.845   2.280 -0.3681  0.5993 -1.2008
  637MOL0     H84059   2.623   5.858   2.448  1.2632 -0.4954  0.5565
  637MOL0     H84060   2.827   5.986   2.411 -0.2925 -1.5872  0.9008
  637MOL0     H84061   2.701   6.103   2.436 -2.2276 -1.3685 -0.1179
  637MOL0     H84062   2.796   6.022   2.157  0.5703 -0.6412  0.7161
  637MOL0     H84063   2.683   6.164   2.220 -2.2569 -1.2701  3.5040
  637MOL0     H84064   2.910   6.237   2.137 -1.4955  0.3809 -0.3434
  637MOL0     H84065   2.978   6.122   2.247 -0.3182 -2.6491  0.0527
  637MOL0     H84066   2.164   6.482   2.467 -0.8693  1.5124  0.4870
  637MOL0     H84067   2.245   6.601   2.678 -4.0274  0.9296 -0.8574
  637MOL0     H84068   2.637   6.800   2.885 -2.1254  4.0262 -1.0627
  637MOL0     H84069   2.672   6.937   3.056  1.9353 -1.4930  0.5631
  637MOL0     H84070   3.093   6.653   4.957  1.2913 -0.5166  0.7848
  637MOL0     H84071   3.239   6.804   5.062  0.8761  1.6059 -2.1445
  637MOL0     H84072   3.048   7.320   5.457 -0.0811 -4.8752 -0.2322
  637MOL0     H84073   3.173   7.521   5.508  1.3287 -1.9350  3.9151
  637MOL0     H84074   3.359   7.581   5.651  0.0464  0.5446  0.7487
  637MOL0     H84075   3.500   7.671   5.584 -1.5195 -0.7590 -1.9881
  637MOL0     H84076   3.544   7.498   5.777 -1.7364  1.0145 -0.8605
  637MOL0     H84077   3.523   7.365   5.667  4.5962 -1.1303 -0.5342
  637MOL0     H84078   3.729   7.584   5.614  0.1277 -1.3149  1.7778
  637MOL0     H84079   3.686   7.449   5.508  2.3573  0.1714 -1.6466
  637MOL0     H84080   3.801   7.404   5.793  4.4612 -0.9440 -0.1879
  637MOL0     H84081   3.740   7.290   5.678  0.3245 -1.3882  2.9233
  637MOL0     H84082   4.087   7.334   5.475 -0.3814  0.9459 -0.9840
  637MOL0     H84083   3.516   7.342   5.305  0.2005  1.4711 -3.0109
  637MOL0     H84084   3.379   7.152   5.232 -1.8699  0.5956 -0.9441
  638MOL0     O84085   0.640   3.453   5.212  0.2481  0.4611  0.1670
  638MOL0     C84086   0.745   3.512   5.236  0.5070 -0.2541 -0.3711
  638MOL0     O84087   0.856   3.485   5.190  0.0273  0.1856 -0.6288
  638MOL0     C84088   0.884   3.356   5.152 -0.2305 -0.5405 -0.0615
  638MOL0     C84089   0.867   3.338   5.015 -0.3227 -0.0287  0.9851
  638MOL0     C84090   0.900   3.214   4.952 -0.3260  0.1189 -0.8467
  638MOL0     C84091   0.949   3.113   5.032  0.0846 -0.1062 -0.6457
  638MOL0     O84092   1.009   3.010   4.966  0.0922 -0.8095 -0.0150
  638MOL0     C84093   1.122   3.032   4.884 -0.0096  0.2923  0.0843
  638MOL0     C84094   1.224   3.141   4.926 -0.0664  0.1872  0.5732
  638MOL0     C84095   1.338   3.088   5.016  0.3693 -0.1278 -0.5152
  638MOL0     C84096   1.430   3.204   5.061  0.1206 -0.3925  0.2246
  638MOL0     C84097   1.563   3.152   5.126 -0.1576  0.0243 -0.6218
  638MOL0     C84098   1.545   3.024   5.206  0.2676 -0.1361  0.0021
  638MOL0     C84099   1.666   2.977   5.297  0.0801 -0.7814 -0.0380
  638MOL0     C84100   1.778   2.938   5.206  0.7717 -0.4880  1.7744
  638MOL0     N84101   1.882   2.865   5.285 -0.3889  0.1372 -0.3845
  638MOL0     C84102   1.986   2.925   5.350 -0.2519 -0.5516  0.1529
  638MOL0     C84103   2.064   2.826   5.388 -0.0816  0.0849  0.5749
  638MOL0     C84104   2.214   2.837   5.430  0.1228 -0.2217 -0.3305
  638MOL0     C84105   2.296   2.921   5.330 -0.1232  0.6898  0.1218
  638MOL0     C84106   2.341   2.820   5.224  0.0894 -0.4653 -0.3217
  638MOL0     C84107   2.453   2.868   5.130  0.6426  0.2135  0.0290
  638MOL0     O84108   2.480   2.766   5.037  0.0795 -0.0603  0.1000
  638MOL0     C84109   2.604   2.755   4.988  0.0326 -0.2689  0.5867
  638MOL0     C84110   2.619   2.654   4.893 -0.6616  0.0097  1.0357
  638MOL0     C84111   2.747   2.620   4.841 -0.8069 -1.3889 -0.2029
  638MOL0     C84112   2.862   2.687   4.894  1.1055  0.7024  0.5275
  638MOL0     C84113   2.998   2.662   4.835 -0.8521  0.4217 -0.5046
  638MOL0     O84114   3.110   2.738   4.889 -0.2710  0.2078  0.0799
  638MOL0     C84115   3.235   2.712   4.840  0.4721  0.6991 -0.0884
  638MOL0     C84116   3.301   2.814   4.776  0.7693  0.2611 -0.1509
  638MOL0     C84117   3.433   2.798   4.716  0.1945 -0.6902 -0.8175
  638MOL0     C84118   3.499   2.672   4.738  0.4410  0.6670  0.0880
  638MOL0     O84119   3.624   2.669   4.692 -0.2264 -0.7687 -0.1360
  638MOL0     C84120   3.684   2.537   4.682  0.3289 -1.2780  0.0668
  638MOL0     C84121   3.813   2.549   4.604 -0.3495 -0.6066 -0.2623
  638MOL0     C84122   3.916   2.624   4.691 -0.8849 -0.0419 -0.3285
  638MOL0     C84123   4.049   2.549   4.693 -0.5253  0.7571  0.1676
  638MOL0     C84124   4.165   2.649   4.712  0.1656 -0.7666 -0.3067
  638MOL0     C84125   4.198   2.747   4.601  0.1899 -0.3639 -0.2354
  638MOL0     C84126   4.338   2.809   4.613  0.9141 -0.3657 -0.1767
  638MOL0     C84127   4.356   2.926   4.532  0.6661 -0.1523  0.0536
  638MOL0    Cl84128   4.506   3.000   4.592 -0.2381 -0.2050 -0.2285
  638MOL0     C84129   3.434   2.575   4.815  0.0320 -0.2153 -0.2006
  638MOL0     C84130   3.304   2.597   4.868 -0.5130 -0.7480  0.9622
  638MOL0     O84131   3.002   2.578   4.747 -0.3082  0.2149  0.0259
  638MOL0     C84132   2.848   2.780   4.997  0.5136  0.1810  0.5416
  638MOL0     C84133   2.720   2.817   5.037  0.3971 -0.4514  0.5799
  638MOL0     N84134   2.021   2.708   5.334 -0.1433 -0.2081  0.1378
  638MOL0     N84135   1.905   2.733   5.278 -0.3609  0.3990 -0.7046
  638MOL0     C84136   0.954   3.125   5.177 -0.2009 -0.1732  0.5317
  638MOL0     C84137   0.922   3.251   5.242 -0.5976  0.0503 -0.3575
  638MOL0     C84138   0.728   3.634   5.318 -0.0867  0.1801  0.0680
  638MOL0     C84139   0.611   3.643   5.395  1.1751 -1.3612  0.8494
  638MOL0     C84140   0.597   3.762   5.476  0.2167 -0.9898  0.1285
  638MOL0     C84141   0.700   3.856   5.493  0.1141  0.1535  0.0162
  638MOL0     O84142   0.682   3.960   5.580  0.0872  0.7735  0.2105
  638MOL0     C84143   0.786   4.059   5.600  0.3821  0.4584  0.4162
  638MOL0     C84144   0.746   4.181   5.677 -0.0885  0.3796  0.2791
  638MOL0     C84145   0.718   4.159   5.817  0.0652 -0.6617  0.5162
  638MOL0     C84146   0.844   4.159   5.893  0.2140 -0.2204  0.9536
  638MOL0     C84147   0.870   4.278   5.981 -0.4028 -1.3791 -0.5805
  638MOL0     C84148   0.894   4.380   6.051  0.1054  0.0510  0.1115
  638MOL0     C84149   0.811   3.849   5.407  1.0539 -0.7522 -0.4317
  638MOL0     C84150   0.820   3.746   5.321  0.7980  1.0932  0.6821
  638MOL0     H84151   0.832   3.418   4.951 -0.5875  1.0332  2.4019
  638MOL0     H84152   0.893   3.199   4.845  0.8681 -2.6356 -0.6153
  638MOL0     H84153   1.087   3.050   4.782 -1.1243 -1.8027  0.0308
  638MOL0     H84154   1.173   2.935   4.881 -1.7992 -0.8421  2.6411
  638MOL0     H84155   1.165   3.217   4.977  0.3725  1.8186 -1.2488
  638MOL0     H84156   1.275   3.201   4.850 -1.6263  3.1416  1.7342
  638MOL0     H84157   1.379   3.007   4.956 -0.9373 -1.2562  0.0665
  638MOL0     H84158   1.307   3.038   5.108 -0.5577 -0.4213 -0.9731
  638MOL0     H84159   1.456   3.283   4.990 -1.3514 -0.4442 -0.4019
  638MOL0     H84160   1.378   3.265   5.136  1.2519  0.5550  0.2781
  638MOL0     H84161   1.609   3.227   5.192  1.0384 -1.4898  0.3345
  638MOL0     H84162   1.636   3.128   5.048  1.4994 -0.3777  0.9695
  638MOL0     H84163   1.514   2.942   5.142  2.1556  0.8336 -2.2853
  638MOL0     H84164   1.459   3.035   5.273 -0.5135 -1.8554 -0.6863
  638MOL0     H84165   1.693   3.048   5.376  0.3743 -1.9900  0.9681
  638MOL0     H84166   1.624   2.885   5.338 -1.0176 -0.1208  0.3750
  638MOL0     H84167   1.830   3.028   5.174 -0.8211 -0.0354  0.3049
  638MOL0     H84168   1.746   2.879   5.119 -0.1444  1.6553  0.5960
  638MOL0     H84169   2.009   3.030   5.365  3.4927 -1.1496 -0.4226
  638MOL0     H84170   2.267   2.744   5.448 -2.6332 -1.4500  2.5259
  638MOL0     H84171   2.211   2.893   5.524  1.5717 -0.2703 -0.2376
  638MOL0     H84172   2.377   2.971   5.383 -0.2162  1.1071 -0.1301
  638MOL0     H84173   2.238   3.001   5.284  0.3207  0.7131 -0.4104
  638MOL0     H84174   2.398   2.738   5.269  0.8215 -1.8492 -3.5027
  638MOL0     H84175   2.246   2.784   5.183 -1.4753 -1.0499  3.3743
  638MOL0     H84176   2.543   2.887   5.190  0.8624  0.4310 -0.3636
  638MOL0     H84177   2.432   2.956   5.068  3.3430  0.4250 -0.7284
  638MOL0     H84178   2.539   2.584   4.869 -2.3110  1.6474  1.5081
  638MOL0     H84179   2.754   2.547   4.761 -2.4361  1.2304 -2.9610
  638MOL0     H84180   3.258   2.913   4.765 -1.8697 -0.6724  0.9891
  638MOL0     H84181   3.470   2.883   4.660 -1.5895  0.7192  0.0620
  638MOL0     H84182   3.613   2.477   4.624  1.3801  2.0073 -5.3969
  638MOL0     H84183   3.722   2.481   4.768  2.1938 -4.2211 -2.4455
  638MOL0     H84184   3.798   2.600   4.508  1.5713  0.7857  0.1324
  638MOL0     H84185   3.850   2.447   4.592 -0.8762 -0.7222 -0.9882
  638MOL0     H84186   3.878   2.641   4.792 -4.6983 -4.5492 -0.6415
  638MOL0     H84187   3.929   2.723   4.648  1.7230  0.3761  1.2030
  638MOL0     H84188   4.051   2.472   4.770 -0.5617  2.3765  1.8745
  638MOL0     H84189   4.073   2.501   4.598 -2.6580  0.8537 -0.4643
  638MOL0     H84190   4.257   2.590   4.720 -0.8135 -2.4027 -0.6707
  638MOL0     H84191   4.153   2.699   4.809  3.1232  0.0693 -0.2799
  638MOL0     H84192   4.124   2.825   4.583  1.3262  0.6755 -0.5556
  638MOL0     H84193   4.191   2.692   4.506  0.2625 -1.7168  0.5208
  638MOL0     H84194   4.356   2.849   4.713  0.7451 -0.7004 -0.0091
  638MOL0     H84195   4.415   2.733   4.597 -2.6623 -4.6463  0.6757
  638MOL0     H84196   4.265   2.987   4.544  1.2765  0.5398  1.4822
  638MOL0     H84197   4.368   2.895   4.428  1.5113 -3.2851  0.9808
  638MOL0     H84198   3.488   2.484   4.840  1.1107  0.0436 -1.4699
  638MOL0     H84199   3.257   2.516   4.923  0.3328 -1.2409  0.9798
  638MOL0     H84200   2.916   2.850   5.044  0.0876  0.0012  1.4725
  638MOL0     H84201   2.720   2.898   5.110  2.8941 -0.1658  0.3786
  638MOL0     H84202   1.002   3.046   5.234  0.8798  1.2381  1.6301
  638MOL0     H84203   0.942   3.274   5.346 -0.8337  3.6028 -0.9740
  638MOL0     H84204   0.525   3.579   5.383  1.3880 -1.5027 -0.0432
  638MOL0     H84205   0.503   3.789   5.524  1.0233 -1.5456  2.1351
  638MOL0     H84206   0.821   4.094   5.503 -1.3421  0.4008 -0.2710
  638MOL0     H84207   0.864   4.000   5.649 -0.6479 -2.7980 -1.5676
  638MOL0     H84208   0.822   4.257   5.658 -0.6362  0.1565 -3.5238
  638MOL0     H84209   0.655   4.217   5.627 -0.9805 -2.1121 -0.0579
  638MOL0     H84210   0.663   4.064   5.823 -0.6095 -0.5610 -2.4901
  638MOL0     H84211   0.650   4.240   5.844 -1.2263 -0.9499 -1.5959
  638MOL0     H84212   0.835   4.075   5.962  0.6588 -0.5017  0.6760
  638MOL0     H84213   0.931   4.136   5.831  0.2965 -0.3375  1.1134
  638MOL0     H84214   0.924   4.470   6.100  2.3696 -0.9144  0.6548
  638MOL0     H84215   0.892   3.921   5.406  1.8971 -1.6762 -0.3742
  638MOL0     H84216   0.904   3.748   5.251  2.6448  5.7257  2.5853
  639MOL0     O84217   6.419   6.306   0.021  0.4734  0.0722  0.6688
  639MOL0     C84218   6.423   6.186   0.047 -0.9114 -0.1915 -0.3876
  639MOL0     O84219   6.498   6.095  -0.022 -0.6263  0.1799  0.1843
  639MOL0     C84220   6.570   6.135  -0.124  0.3683  0.0327 -0.0846
  639MOL0     C84221   6.703   6.086  -0.121  0.0096  0.1329 -0.4426
  639MOL0     C84222   6.792   6.108  -0.231  0.1313  0.3544 -0.6033
  639MOL0     C84223   6.751   6.172  -0.348  0.5478  0.0886 -0.3897
  639MOL0     O84224   6.831   6.180  -0.456 -0.3773  0.2609  1.0825
  639MOL0     C84225   6.780   6.190  -0.597 -0.3380  0.2920  0.3397
  639MOL0     C84226   6.833   6.080  -0.697 -0.1404 -0.7358  0.2905
  639MOL0     C84227   6.988   6.098  -0.722  0.4420 -0.8202 -0.2740
  639MOL0     C84228   7.046   5.982  -0.800  1.1031  0.9822  0.2234
  639MOL0     C84229   7.189   6.012  -0.837 -0.0327  0.3609  0.5072
  639MOL0     C84230   7.190   6.113  -0.953 -0.1044 -0.7785 -0.2376
  639MOL0     C84231   7.319   6.107  -1.038  0.8203  0.5859 -0.6363
  639MOL0     C84232   7.346   6.232  -1.117  0.2843 -0.2649  0.4315
  639MOL0     N84233   7.305   6.218  -1.260 -0.2497 -0.2025 -0.2775
  639MOL0     C84234   7.180   6.200  -1.312 -0.3231 -0.6775  1.1106
  639MOL0     C84235   7.180   6.224  -1.446 -0.7586 -0.1394 -0.2859
  639MOL0     C84236   7.065   6.196  -1.549 -0.9522 -0.0028  0.8181
  639MOL0     C84237   7.102   6.102  -1.658 -0.5772 -0.1918  0.3964
  639MOL0     C84238   7.144   5.961  -1.611 -0.0814 -0.4443 -0.7617
  639MOL0     C84239   7.185   5.875  -1.724  0.6504  1.0083 -0.0218
  639MOL0     O84240   7.255   5.758  -1.670  0.9723  0.0462  0.2586
  639MOL0     C84241   7.316   5.676  -1.766  0.4292  0.3907 -0.5311
  639MOL0     C84242   7.403   5.575  -1.716 -0.1270 -0.2932  0.4541
  639MOL0     C84243   7.458   5.488  -1.816  0.2133  0.0585 -0.8400
  639MOL0     C84244   7.442   5.503  -1.954  0.5717 -0.1059  0.0452
  639MOL0     C84245   7.527   5.423  -2.040  0.9051 -0.0839  0.2208
  639MOL0     O84246   7.554   5.473  -2.162 -0.0769  0.4881 -0.2473
  639MOL0     C84247   7.635   5.398  -2.242  1.0328  1.2166 -0.3681
  639MOL0     C84248   7.759   5.437  -2.299 -0.0047 -0.0458  0.6166
  639MOL0     C84249   7.830   5.356  -2.388 -0.5595 -0.1319 -0.2598
  639MOL0     C84250   7.782   5.235  -2.437 -0.0406  0.1182 -0.1477
  639MOL0     O84251   7.843   5.170  -2.531 -0.0929 -0.0004 -0.5829
  639MOL0     C84252   7.986   5.182  -2.533 -0.1239  0.4045 -0.1657
  639MOL0     C84253   8.048   5.062  -2.611  0.1667 -0.0308  0.5296
  639MOL0     C84254   8.056   4.943  -2.517  0.9241 -0.3356  0.4557
  639MOL0     C84255   8.100   4.821  -2.588 -0.6933 -0.2418 -0.8367
  639MOL0     C84256   8.083   4.687  -2.507  0.0227 -0.3969  0.6254
  639MOL0     C84257   8.184   4.675  -2.383  0.5141  0.0686  1.0875
  639MOL0     C84258   8.130   4.569  -2.287  0.0503  0.0737  0.2638
  639MOL0     C84259   8.232   4.537  -2.177  0.1169 -0.1130  0.1854
  639MOL0    Cl84260   8.389   4.485  -2.253  0.5310 -0.0053 -0.7042
  639MOL0     C84261   7.653   5.196  -2.386 -0.3943  0.1847  1.2781
  639MOL0     C84262   7.583   5.269  -2.287  0.5183  0.6101 -0.4586
  639MOL0     O84263   7.564   5.317  -1.988  0.2474  0.5392  0.1125
  639MOL0     C84264   7.359   5.600  -1.998  0.2645  0.3108  0.5182
  639MOL0     C84265   7.292   5.689  -1.910 -0.3570 -0.4757 -0.1960
  639MOL0     N84266   7.311   6.261  -1.472  0.2488 -0.3371  0.7818
  639MOL0     N84267   7.389   6.250  -1.363  0.4005  0.9761 -0.1790
  639MOL0     C84268   6.620   6.215  -0.347 -0.2454 -1.1830  0.3067
  639MOL0     C84269   6.529   6.203  -0.242 -0.4298  0.8089 -1.4268
  639MOL0     C84270   6.331   6.140   0.153  0.0708  0.7978  0.3980
  639MOL0     C84271   6.359   6.016   0.220 -0.8468  0.6592  0.5120
  639MOL0     C84272   6.285   5.977   0.329  0.9307 -0.4279  0.3924
  639MOL0     C84273   6.168   6.045   0.368 -0.1050 -0.1381  0.8116
  639MOL0     O84274   6.093   6.008   0.474  0.7640 -0.1361 -0.0851
  639MOL0     C84275   6.100   5.868   0.504  0.8603  0.2846  0.4725
  639MOL0     C84276   5.981   5.825   0.577 -0.0245 -0.0932  0.6932
  639MOL0     C84277   5.979   5.873   0.729  0.1280  0.7762 -0.0371
  639MOL0     C84278   6.080   5.806   0.822 -0.2560 -0.0549  0.7405
  639MOL0     C84279   6.046   5.664   0.838 -0.1997  0.2585  0.0043
  639MOL0     C84280   5.999   5.549   0.852  0.0469  0.1427  0.1345
  639MOL0     C84281   6.136   6.165   0.303 -0.1375 -0.6647 -0.1635
  639MOL0     C84282   6.222   6.217   0.201  0.1221 -0.5991  0.7844
  639MOL0     H84283   6.741   6.026  -0.039  1.2267 -1.0492 -1.8144
  639MOL0     H84284   6.897   6.082  -0.231 -0.1629 -0.8927 -0.7741
  639MOL0     H84285   6.806   6.283  -0.647 -0.0167  0.6219  1.0968
  639MOL0     H84286   6.671   6.185  -0.604 -0.4684 -1.8800  2.4520
  639MOL0     H84287   6.764   6.089  -0.781 -0.0452  1.7366  0.3827
  639MOL0     H84288   6.821   5.985  -0.645  0.4211  0.7072  3.3147
  639MOL0     H84289   7.043   6.108  -0.627  1.9025  0.4276 -1.2089
  639MOL0     H84290   7.005   6.188  -0.781  1.5266  0.7322  2.2552
  639MOL0     H84291   7.029   5.896  -0.735 -0.1381 -1.3822 -2.9976
  639MOL0     H84292   6.972   5.964  -0.879 -1.7711 -1.2138  3.1321
  639MOL0     H84293   7.231   5.917  -0.870 -1.0229  0.3475 -0.8044
  639MOL0     H84294   7.242   6.044  -0.747 -3.8436  0.4394  2.9593
  639MOL0     H84295   7.174   6.212  -0.910  1.1342 -0.6465 -0.0471
  639MOL0     H84296   7.109   6.098  -1.025 -0.6189  1.4681 -0.1967
  639MOL0     H84297   7.409   6.079  -0.983  0.6035  2.4288  0.7423
  639MOL0     H84298   7.306   6.027  -1.112  1.3911 -0.0888 -0.0221
  639MOL0     H84299   7.451   6.260  -1.111 -0.0150  0.9521  0.3725
  639MOL0     H84300   7.282   6.312  -1.076 -0.6547 -0.7751 -0.0057
  639MOL0     H84301   7.093   6.173  -1.254 -0.6408 -0.9512  0.5077
  639MOL0     H84302   7.033   6.290  -1.596 -0.7432 -1.8180 -3.3576
  639MOL0     H84303   6.979   6.154  -1.496 -4.8466  2.1937 -3.0940
  639MOL0     H84304   7.176   6.143  -1.728 -2.4398 -1.4279 -2.4841
  639MOL0     H84305   7.013   6.092  -1.721 -0.1535  3.1827 -0.9670
  639MOL0     H84306   7.225   5.961  -1.537 -0.5338 -0.1877 -0.2599
  639MOL0     H84307   7.059   5.916  -1.560 -0.0613  1.3347  0.9928
  639MOL0     H84308   7.252   5.924  -1.796  1.4969 -0.9491 -0.6298
  639MOL0     H84309   7.102   5.835  -1.782  0.0697  3.0996 -0.7069
  639MOL0     H84310   7.438   5.579  -1.613  2.0733  1.4226 -0.2981
  639MOL0     H84311   7.540   5.432  -1.771  1.9884  2.8324 -0.3986
  639MOL0     H84312   7.794   5.536  -2.271 -0.1157  0.6075 -1.3747
  639MOL0     H84313   7.919   5.401  -2.431 -2.6038  4.3023 -0.3778
  639MOL0     H84314   8.017   5.176  -2.429  0.7120  0.6558 -0.3912
  639MOL0     H84315   8.027   5.271  -2.583 -0.8228  0.9798  0.2696
  639MOL0     H84316   8.146   5.100  -2.641 -0.2102  2.6729  2.3096
  639MOL0     H84317   7.997   5.044  -2.706  0.9128  4.3336 -0.9341
  639MOL0     H84318   7.963   4.924  -2.462  2.4353  0.1348  3.3819
  639MOL0     H84319   8.122   4.957  -2.431 -1.8076 -1.0862  2.8221
  639MOL0     H84320   8.028   4.806  -2.670 -1.8211 -3.0421  0.5481
  639MOL0     H84321   8.202   4.852  -2.611 -0.4552  0.9299  1.5406
  639MOL0     H84322   8.107   4.605  -2.576  2.3464  0.9752 -0.3101
  639MOL0     H84323   7.981   4.681  -2.466  0.5796 -2.1728  1.8638
  639MOL0     H84324   8.190   4.773  -2.334  1.0388  0.7627 -0.3077
  639MOL0     H84325   8.284   4.647  -2.416  1.1518  1.6196  1.5793
  639MOL0     H84326   8.033   4.601  -2.247 -0.3339 -2.3945  1.5271
  639MOL0     H84327   8.092   4.486  -2.348  0.3505  0.4852 -0.4976
  639MOL0     H84328   8.197   4.470  -2.097  0.3256 -0.4512 -0.0092
  639MOL0     H84329   8.247   4.634  -2.128  1.3568 -0.3855  0.3645
  639MOL0     H84330   7.622   5.097  -2.419  2.9647 -0.1928 -1.2674
  639MOL0     H84331   7.489   5.234  -2.245  0.0567  1.3583 -0.8291
  639MOL0     H84332   7.343   5.614  -2.104 -5.2426  1.0020  1.1496
  639MOL0     H84333   7.217   5.758  -1.945  0.7828  0.6618 -0.4816
  639MOL0     H84334   6.582   6.280  -0.425  0.8466 -0.1987  0.5641
  639MOL0     H84335   6.426   6.233  -0.256 -0.0735  0.5958 -6.2175
  639MOL0     H84336   6.439   5.946   0.200  0.4781  1.7366  1.7871
  639MOL0     H84337   6.311   5.883   0.378 -2.6526 -2.3951 -1.0503
  639MOL0     H84338   6.183   5.838   0.568 -2.1233  3.2484  6.6310
  639MOL0     H84339   6.104   5.815   0.408  3.3729 -0.0490  0.7027
  639MOL0     H84340   5.888   5.866   0.535 -0.1488 -0.1836  0.8837
  639MOL0     H84341   5.978   5.716   0.585  1.1684  0.0070  3.1557
  639MOL0     H84342   5.882   5.847   0.773  0.0430  2.0396  0.5457
  639MOL0     H84343   5.985   5.982   0.736  2.0294  0.6349  1.2377
  639MOL0     H84344   6.182   5.811   0.783  0.4870  0.3246  2.6081
  639MOL0     H84345   6.077   5.852   0.921 -3.5520 -1.2997  1.3442
  639MOL0     H84346   5.974   5.449   0.880  0.2570 -1.3365 -4.2257
  639MOL0     H84347   6.056   6.225   0.346  0.3409 -0.8367  1.0098
  639MOL0     H84348   6.201   6.313   0.155  0.5041 -0.8170  0.1391
  640MOL0     O84349   7.670   9.933   0.863  0.7559  0.8963 -0.6319
  640MOL0     C84350   7.721   9.960   0.750  0.6126 -0.3393 -0.2449
  640MOL0     O84351   7.699   9.893   0.633  0.3773  0.1854 -0.2561
  640MOL0     C84352   7.609   9.796   0.609  0.5497  0.8631 -0.0657
  640MOL0     C84353   7.597   9.739   0.478  0.1623 -0.3044  0.5945
  640MOL0     C84354   7.518   9.629   0.443  0.1029  0.0076  0.2431
  640MOL0     C84355   7.454   9.559   0.543  0.0959 -0.0053 -0.4266
  640MOL0     O84356   7.384   9.450   0.507  0.3553 -0.3500  0.5939
  640MOL0     C84357   7.255   9.420   0.571  0.5301  0.5419 -0.3895
  640MOL0     C84358   7.152   9.513   0.515 -0.7538 -0.9736  0.9079
  640MOL0     C84359   7.018   9.496   0.586 -0.9015  0.2681 -0.0121
  640MOL0     C84360   7.011   9.578   0.723 -0.5659 -0.5592  1.0557
  640MOL0     C84361   6.868   9.566   0.795 -0.5583  0.1220 -0.0225
  640MOL0     C84362   6.874   9.616   0.941 -0.8170 -0.3345  0.8173
  640MOL0     C84363   6.743   9.618   1.004  0.0735 -0.1603  0.3851
  640MOL0     C84364   6.761   9.706   1.130 -0.0827  0.2782 -0.1498
  640MOL0     N84365   6.831   9.622   1.225 -0.6458  0.2195 -0.1852
  640MOL0     C84366   6.796   9.504   1.279  0.2990 -0.2101  0.0242
  640MOL0     C84367   6.909   9.461   1.347  1.1416  0.5804  0.3037
  640MOL0     C84368   6.926   9.338   1.435 -0.0319 -0.5163  0.6520
  640MOL0     C84369   6.903   9.199   1.356  0.6913 -0.4362  0.2184
  640MOL0     C84370   6.980   9.073   1.407  0.1573 -0.6460  0.2339
  640MOL0     C84371   6.930   8.946   1.333 -0.6066 -0.0765 -0.8836
  640MOL0     O84372   6.791   8.919   1.370  0.1572  0.7701  0.5141
  640MOL0     C84373   6.730   8.812   1.303 -0.1704  0.3789 -0.0950
  640MOL0     C84374   6.790   8.736   1.199 -0.2296 -0.8318 -0.3318
  640MOL0     C84375   6.714   8.645   1.128  0.5067  0.7975 -0.6638
  640MOL0     C84376   6.579   8.617   1.163 -0.6121 -0.1416  0.9278
  640MOL0     C84377   6.498   8.531   1.085 -0.0491 -0.1114  1.0516
  640MOL0     O84378   6.570   8.447   1.007  0.4106  0.9176 -0.2004
  640MOL0     C84379   6.524   8.340   0.931 -0.6226  0.1898  0.1425
  640MOL0     C84380   6.400   8.285   0.914 -0.2845 -0.1892  0.2145
  640MOL0     C84381   6.377   8.178   0.828  0.3891  0.0037 -0.5784
  640MOL0     C84382   6.475   8.124   0.746  0.7145 -0.2611 -0.5738
  640MOL0     O84383   6.455   8.026   0.651  0.2028 -0.4702 -0.8040
  640MOL0     C84384   6.344   7.938   0.655  0.0557 -0.0898  0.3534
  640MOL0     C84385   6.370   7.833   0.550  0.4565  0.2418 -0.5114
  640MOL0     C84386   6.256   7.818   0.445  0.2220  0.4265  0.2238
  640MOL0     C84387   6.298   7.744   0.318  0.5855 -0.1813 -0.0760
  640MOL0     C84388   6.185   7.711   0.217  0.6152 -0.0887  1.1280
  640MOL0     C84389   6.250   7.668   0.089  0.1043 -0.4104 -0.0798
  640MOL0     C84390   6.304   7.779  -0.006  0.0690 -0.2746  0.2336
  640MOL0     C84391   6.192   7.816  -0.107  0.3850 -0.6039 -0.8523
  640MOL0    Cl84392   6.057   7.880  -0.022  0.1962 -0.0277 -0.1296
  640MOL0     C84393   6.598   8.178   0.763 -0.4117  0.1604 -0.0115
  640MOL0     C84394   6.628   8.285   0.851 -0.1544  0.2642  0.0727
  640MOL0     O84395   6.380   8.534   1.102  0.0233 -0.4115  0.0177
  640MOL0     C84396   6.514   8.696   1.257 -0.6898  1.1233  0.6843
  640MOL0     C84397   6.587   8.792   1.322  0.1825 -0.8662 -0.0356
  640MOL0     N84398   7.002   9.558   1.319 -0.3746  0.2861  0.2915
  640MOL0     N84399   6.957   9.654   1.250 -0.3111  0.3616  0.1370
  640MOL0     C84400   7.459   9.610   0.675  0.8355 -0.5509 -0.5514
  640MOL0     C84401   7.532   9.723   0.707  0.4736  0.9465 -0.0685
  640MOL0     C84402   7.850  10.034   0.751  0.3315  0.8047  0.3055
  640MOL0     C84403   7.941  10.027   0.636 -0.0646  0.0913 -0.0984
  640MOL0     C84404   8.047  10.111   0.636 -0.0043  1.6104  0.0116
  640MOL0     C84405   8.082  10.188   0.748  0.3007  0.2119 -0.1200
  640MOL0     O84406   8.191  10.274   0.773 -0.7148  0.4265 -0.2523
  640MOL0     C84407   8.289  10.308   0.678  0.0968 -0.8398  0.4641
  640MOL0     C84408   8.428  10.265   0.726 -0.3782 -0.3848  0.5440
  640MOL0     C84409   8.519  10.271   0.606  1.1036  0.9058  0.6124
  640MOL0     C84410   8.663  10.301   0.653 -0.1107  0.0873 -0.9014
  640MOL0     C84411   8.732  10.373   0.542 -0.0307 -0.4484  0.0190
  640MOL0     C84412   8.791  10.430   0.457 -0.4343  0.6441  0.2031
  640MOL0     C84413   7.977  10.192   0.848  0.4754 -0.0766 -1.1912
  640MOL0     C84414   7.867  10.123   0.859  0.3356  0.0778  0.2325
  640MOL0     H84415   7.643   9.796   0.398 -0.7137  0.7690  0.8438
  640MOL0     H84416   7.516   9.594   0.340 -0.6078  1.3785 -0.2454
  640MOL0     H84417   7.263   9.426   0.680  4.0780  1.9117 -0.5933
  640MOL0     H84418   7.241   9.313   0.553  0.8991  0.3652  0.3179
  640MOL0     H84419   7.154   9.492   0.408 -0.0690 -0.2690  0.7715
  640MOL0     H84420   7.182   9.619   0.513  1.9243 -1.6760 -0.6838
  640MOL0     H84421   6.998   9.393   0.617 -5.2745 -0.0075 -2.9292
  640MOL0     H84422   6.935   9.535   0.527 -0.9377  4.7821  2.5580
  640MOL0     H84423   7.104   9.571   0.780  1.4846  2.9671 -1.4158
  640MOL0     H84424   7.021   9.683   0.695 -0.3797 -0.8322  0.0554
  640MOL0     H84425   6.838   9.462   0.783 -1.3954  0.3728 -0.1021
  640MOL0     H84426   6.793   9.623   0.740  0.5422  1.3195 -0.3574
  640MOL0     H84427   6.911   9.719   0.934  1.1506 -1.0948 -1.5485
  640MOL0     H84428   6.947   9.555   0.995 -1.9046 -0.4962  2.1529
  640MOL0     H84429   6.665   9.664   0.943 -0.3841 -0.9936  0.3293
  640MOL0     H84430   6.713   9.515   1.024  0.6167 -0.6319 -1.0642
  640MOL0     H84431   6.661   9.718   1.172 -1.3442 -1.7122 -2.3132
  640MOL0     H84432   6.803   9.807   1.120 -0.4193  0.8034  2.9743
  640MOL0     H84433   6.698   9.457   1.283 -1.5705  3.3528  1.7856
  640MOL0     H84434   6.854   9.344   1.517 -1.2065  1.3596 -0.4632
  640MOL0     H84435   7.022   9.337   1.488 -0.4812 -2.1323  1.5109
  640MOL0     H84436   6.931   9.213   1.252  4.3174 -0.2012  1.1030
  640MOL0     H84437   6.797   9.174   1.361  0.0923  1.8091 -0.2356
  640MOL0     H84438   7.087   9.081   1.385 -0.0997  1.6756 -0.3939
  640MOL0     H84439   6.976   9.067   1.516  0.2665 -2.8355  0.1554
  640MOL0     H84440   6.990   8.862   1.367  1.3417  2.2351  1.7993
  640MOL0     H84441   6.944   8.970   1.227  2.5140  0.2173 -0.4843
  640MOL0     H84442   6.890   8.747   1.159  0.6832  0.8132  2.1706
  640MOL0     H84443   6.746   8.610   1.031  1.7016  1.7636 -0.6420
  640MOL0     H84444   6.316   8.328   0.967 -2.5764 -1.5927 -2.0156
  640MOL0     H84445   6.276   8.156   0.794 -0.3154  2.2531 -0.1125
  640MOL0     H84446   6.260   7.996   0.615 -0.3411 -0.4225  0.6951
  640MOL0     H84447   6.321   7.897   0.754 -0.6831  0.1932  0.3082
  640MOL0     H84448   6.378   7.740   0.606  1.5542  1.7171  1.9498
  640MOL0     H84449   6.461   7.853   0.493  0.0945 -0.2569 -1.2856
  640MOL0     H84450   6.216   7.916   0.418  3.0464  2.7330  3.4395
  640MOL0     H84451   6.173   7.771   0.499 -0.3775  2.3523  1.0552
  640MOL0     H84452   6.359   7.816   0.263 -3.6283  4.8456  1.0102
  640MOL0     H84453   6.337   7.644   0.339 -0.7686 -0.3849  1.7624
  640MOL0     H84454   6.109   7.789   0.210  0.7026 -0.0868  0.0252
  640MOL0     H84455   6.124   7.627   0.251  1.4720 -0.8366  0.8512
  640MOL0     H84456   6.184   7.601   0.034  0.5579 -2.0206  1.2652
  640MOL0     H84457   6.334   7.601   0.111  1.7928  1.8720  0.8081
  640MOL0     H84458   6.354   7.857   0.051  1.4390 -1.7199  1.0901
  640MOL0     H84459   6.379   7.726  -0.066  0.2356 -0.1550  0.3391
  640MOL0     H84460   6.170   7.726  -0.165 -2.7846  2.2574 -4.5830
  640MOL0     H84461   6.248   7.887  -0.168 -1.4161  2.9478  1.2923
  640MOL0     H84462   6.680   8.144   0.700  0.1650  0.4460  0.5844
  640MOL0     H84463   6.724   8.335   0.855  0.7739 -1.5162  1.4483
  640MOL0     H84464   6.413   8.675   1.292 -1.2495  0.7749 -1.0693
  640MOL0     H84465   6.532   8.848   1.397  2.3909  3.0264 -1.0203
  640MOL0     H84466   7.415   9.559   0.761  1.5870 -3.7841 -1.9382
  640MOL0     H84467   7.542   9.757   0.810  0.1295  0.4598  0.1273
  640MOL0     H84468   7.937   9.975   0.541  0.9958 -0.4116  0.1168
  640MOL0     H84469   8.121  10.117   0.556 -1.1945 -1.7004 -1.5021
  640MOL0     H84470   8.287  10.417   0.671  1.2844 -0.8734 -0.8396
  640MOL0     H84471   8.265  10.280   0.575 -0.5673  0.3168  0.2866
  640MOL0     H84472   8.468  10.313   0.816  2.0614 -1.7274  0.2297
  640MOL0     H84473   8.423  10.159   0.753  3.4218 -0.1572  2.8357
  640MOL0     H84474   8.481  10.358   0.551  4.3700  2.3953  0.4601
  640MOL0     H84475   8.491  10.181   0.551 -2.9195  2.2425  0.1854
  640MOL0     H84476   8.654  10.379   0.729 -0.0270  2.4330 -3.1428
  640MOL0     H84477   8.718  10.213   0.685 -0.1583  1.2123  2.7023
  640MOL0     H84478   8.847  10.470   0.375  1.6070 -1.7585  0.3068
  640MOL0     H84479   7.992  10.254   0.936  0.8905 -1.0733 -0.5518
  640MOL0     H84480   7.790  10.135   0.935  0.1248  1.5944 -0.2034
  641MOL0     O84481  10.691  10.559  10.916 -0.8076 -0.2162  0.5652
  641MOL0     C84482  10.634  10.650  10.973 -0.9724 -0.9600  0.5295
  641MOL0     O84483  10.633  10.781  10.934 -0.1350 -1.2101 -0.1717
  641MOL0     C84484  10.681  10.831  10.810 -0.5439 -0.9786  0.3916
  641MOL0     C84485  10.735  10.958  10.806 -0.5756  0.3883  0.7232
  641MOL0     C84486  10.813  11.002  10.695 -0.1787  0.3425  1.6466
  641MOL0     C84487  10.818  10.933  10.573  0.2387  0.6708 -0.1029
  641MOL0     O84488  10.893  10.958  10.465  0.0627 -0.3312  0.6350
  641MOL0     C84489  10.981  11.072  10.477 -0.1738 -0.1207 -0.1431
  641MOL0     C84490  10.904  11.194  10.433 -0.0728  0.0934  0.4401
  641MOL0     C84491  10.992  11.320  10.416  0.3987  0.7936 -1.3067
  641MOL0     C84492  11.113  11.310  10.327 -0.1787 -0.3447  0.4490
  641MOL0     C84493  11.122  11.425  10.236 -0.5174 -0.1859  0.0104
  641MOL0     C84494  11.227  11.383  10.128 -0.2623 -0.5552 -0.1941
  641MOL0     C84495  11.281  11.500  10.046  0.9020  0.0496 -0.2674
  641MOL0     C84496  11.345  11.434   9.931  0.8190  0.0152 -0.3407
  641MOL0     N84497  11.464  11.354   9.965 -0.2390 -0.4020 -1.0044
  641MOL0     C84498  11.459  11.214   9.991  1.1150  0.1333 -0.6173
  641MOL0     C84499  11.561  11.177  10.065 -0.3442 -0.7544 -0.6759
  641MOL0     C84500  11.602  11.048  10.111 -0.6681  1.2141  0.4552
  641MOL0     C84501  11.485  10.974  10.184  0.6556  0.3034  0.3550
  641MOL0     C84502  11.405  10.874  10.084 -0.7683 -0.2911 -0.2662
  641MOL0     C84503  11.270  10.846  10.146 -0.7816  1.0007  1.0493
  641MOL0     O84504  11.216  10.732  10.071 -0.1172  0.2313 -0.5132
  641MOL0     C84505  11.088  10.689  10.113 -0.5359  0.0977  1.5469
  641MOL0     C84506  11.024  10.581  10.039  0.7877 -0.0279  0.0804
  641MOL0     C84507  10.891  10.535  10.066 -0.2918  0.5018 -0.6474
  641MOL0     C84508  10.815  10.602  10.155 -0.4465 -0.4567 -0.2782
  641MOL0     C84509  10.670  10.562  10.181 -0.6673 -0.1554  0.1133
  641MOL0     O84510  10.619  10.454  10.106 -0.6953 -0.7275 -0.4678
  641MOL0     C84511  10.514  10.380  10.144  0.2592  1.0503 -0.0284
  641MOL0     C84512  10.390  10.441  10.180  0.1192 -0.3825  0.3722
  641MOL0     C84513  10.282  10.364  10.225  0.3707  0.9111 -0.2990
  641MOL0     C84514  10.287  10.226  10.233 -1.3757 -0.0291  0.0367
  641MOL0     O84515  10.198  10.134  10.279 -0.0193 -0.9899  0.1139
  641MOL0     C84516  10.130  10.170  10.395  0.0193  0.1522 -0.6010
  641MOL0     C84517  10.071  10.068  10.497 -0.2258  0.1070 -0.3572
  641MOL0     C84518   9.993   9.954  10.416 -0.7073 -0.6195  0.8336
  641MOL0     C84519   9.922   9.849  10.509  0.6050 -0.3615  0.7489
  641MOL0     C84520   9.786   9.802  10.444  0.0454 -0.0571 -0.1542
  641MOL0     C84521   9.699   9.722  10.539  0.0376  1.3124 -0.5435
  641MOL0     C84522   9.775   9.610  10.614  0.4980  0.2972  0.1155
  641MOL0     C84523   9.678   9.507  10.653 -0.6530 -0.0682 -0.4897
  641MOL0    Cl84524   9.559   9.561  10.767 -0.2492  0.3145  0.3325
  641MOL0     C84525  10.409  10.165  10.202 -0.6270  0.9733  0.5885
  641MOL0     C84526  10.529  10.240  10.166 -0.2823 -0.4612 -0.1913
  641MOL0     O84527  10.613  10.618  10.275  0.4311  0.3428  0.2732
  641MOL0     C84528  10.867  10.712  10.225 -0.4643  0.5736  0.4999
  641MOL0     C84529  11.002  10.748  10.207  0.3626 -0.7341 -0.3132
  641MOL0     N84530  11.631  11.292  10.076 -0.0203 -0.1983 -0.1566
  641MOL0     N84531  11.582  11.398  10.013 -0.2061  0.4933 -0.9964
  641MOL0     C84532  10.749  10.813  10.571 -0.1232 -0.6872 -0.1084
  641MOL0     C84533  10.675  10.760  10.687  0.0012 -0.2832  1.2034
  641MOL0     C84534  10.544  10.622  11.085  0.2755  0.3349  0.2477
  641MOL0     C84535  10.562  10.499  11.155 -0.1325  0.6279 -0.5394
  641MOL0     C84536  10.483  10.455  11.262  0.0122  0.4076  0.3120
  641MOL0     C84537  10.376  10.540  11.305  0.0250  0.6954  0.0182
  641MOL0     O84538  10.294  10.485  11.392  0.4315  0.2619  0.3593
  641MOL0     C84539  10.261  10.558  11.513  0.1800 -0.9795 -0.0665
  641MOL0     C84540  10.377  10.528  11.605  0.4884  0.1298 -0.5381
  641MOL0     C84541  10.346  10.565  11.748 -0.6431  1.1625  1.0910
  641MOL0     C84542  10.464  10.547  11.848 -0.3767 -0.3428 -0.9325
  641MOL0     C84543  10.566  10.652  11.833 -0.0066 -0.5449  0.5310
  641MOL0     C84544  10.647  10.744  11.803  0.2637  0.8022 -0.1272
  641MOL0     C84545  10.369  10.662  11.239  0.5204 -1.0887 -0.8878
  641MOL0     C84546  10.447  10.706  11.135  0.3779 -0.4548 -0.0896
  641MOL0     H84547  10.730  11.006  10.903  0.3159  0.4739  0.7343
  641MOL0     H84548  10.857  11.099  10.718  0.4156  0.2993  0.7707
  641MOL0     H84549  11.069  11.066  10.413  1.6791 -1.8794  2.3905
  641MOL0     H84550  11.032  11.083  10.573  1.6623  0.6861 -1.1638
  641MOL0     H84551  10.833  11.213  10.513 -1.3720  0.3159 -0.7216
  641MOL0     H84552  10.844  11.172  10.344 -0.5822 -0.5417  0.9379
  641MOL0     H84553  11.024  11.355  10.514 -2.1559  0.7070 -0.3696
  641MOL0     H84554  10.927  11.398  10.376  0.5798  0.8257 -1.5441
  641MOL0     H84555  11.194  11.298  10.399 -0.5765  1.4460  1.2467
  641MOL0     H84556  11.099  11.221  10.265 -2.5952 -0.9029  1.6702
  641MOL0     H84557  11.143  11.518  10.289  0.1627 -0.0689 -0.4497
  641MOL0     H84558  11.026  11.451  10.190  0.0383  2.1513  0.0287
  641MOL0     H84559  11.185  11.309  10.059 -1.6495 -0.7860  0.8464
  641MOL0     H84560  11.319  11.350  10.176  0.7213 -0.2315 -1.7744
  641MOL0     H84561  11.196  11.559  10.010 -1.1468 -1.0516  2.4782
  641MOL0     H84562  11.348  11.563  10.106  1.3322 -1.7222  1.1879
  641MOL0     H84563  11.357  11.509   9.853 -0.4960 -0.7912 -1.3572
  641MOL0     H84564  11.272  11.367   9.885 -0.8116  1.2262  0.3872
  641MOL0     H84565  11.374  11.148   9.973  0.5826  0.3011  1.1335
  641MOL0     H84566  11.690  11.067  10.173 -0.4932  1.0046  0.2716
  641MOL0     H84567  11.635  10.983  10.030 -1.9610  0.3599  0.5852
  641MOL0     H84568  11.414  11.047  10.224  0.7477 -0.6942  2.4610
  641MOL0     H84569  11.510  10.911  10.269 -0.5794 -1.1104 -0.3045
  641MOL0     H84570  11.400  10.905   9.979 -0.4493 -1.7745 -0.7505
  641MOL0     H84571  11.469  10.786  10.076 -1.6099 -0.7928 -2.4317
  641MOL0     H84572  11.202  10.931  10.138 -1.4123  0.3195 -2.3253
  641MOL0     H84573  11.284  10.808  10.248 -1.1524 -1.1065  0.3608
  641MOL0     H84574  11.069  10.523   9.959 -0.3414 -1.6942  0.5878
  641MOL0     H84575  10.840  10.451  10.020 -1.5674  0.8731  0.0270
  641MOL0     H84576  10.390  10.550  10.175  1.3089 -0.2702  1.9766
  641MOL0     H84577  10.201  10.421  10.270  1.7661  2.2422  0.6547
  641MOL0     H84578  10.044  10.225  10.357 -1.5157 -2.1865 -0.7518
  641MOL0     H84579  10.192  10.228  10.464 -0.5281  0.8314 -0.6710
  641MOL0     H84580  10.006  10.127  10.562 -0.7606  1.5916 -2.1650
  641MOL0     H84581  10.141  10.019  10.565  0.0328  3.1341  1.7621
  641MOL0     H84582  10.058   9.914  10.338 -1.3608  1.1787 -0.7233
  641MOL0     H84583   9.921  10.015  10.360 -0.9373  0.2848  2.0841
  641MOL0     H84584   9.979   9.759  10.534 -0.3121 -2.1811 -3.0859
  641MOL0     H84585   9.886   9.893  10.602 -1.9388  2.9513 -1.5762
  641MOL0     H84586   9.815   9.743  10.356  2.7576  1.0972 -0.1291
  641MOL0     H84587   9.732   9.892  10.414 -0.8515  0.3814  2.5202
  641MOL0     H84588   9.611   9.692  10.481 -0.1756  2.3058 -0.7600
  641MOL0     H84589   9.681   9.794  10.620 -0.3750 -1.5106  2.0281
  641MOL0     H84590   9.851   9.566  10.548  0.1475  1.8830 -1.4331
  641MOL0     H84591   9.818   9.658  10.702  1.5477 -0.3083 -0.0513
  641MOL0     H84592   9.729   9.421  10.697 -1.2862 -1.1353 -1.7585
  641MOL0     H84593   9.630   9.474  10.560 -0.5372  1.5302 -1.1406
  641MOL0     H84594  10.434  10.060  10.212  3.5826  1.6448 -0.7145
  641MOL0     H84595  10.624  10.198  10.133  0.7756  1.1036  0.7344
  641MOL0     H84596  10.794  10.752  10.295  0.8619 -1.6173  3.2987
  641MOL0     H84597  11.026  10.842  10.256  1.0006 -1.3449  0.5535
  641MOL0     H84598  10.748  10.750  10.483  1.7529  0.1133 -0.7603
  641MOL0     H84599  10.632  10.661  10.680  1.3857 -0.8796  0.9552
  641MOL0     H84600  10.655  10.453  11.125  1.1933  3.8429 -1.8600
  641MOL0     H84601  10.503  10.371  11.328 -1.8668  0.2019  0.6828
  641MOL0     H84602  10.169  10.520  11.559 -1.8262 -1.1091 -3.8434
  641MOL0     H84603  10.248  10.666  11.510  4.8761 -0.1968 -0.1195
  641MOL0     H84604  10.407  10.423  11.598 -3.0306 -1.0645  0.4268
  641MOL0     H84605  10.467  10.586  11.582  1.0711 -0.5503 -0.0001
  641MOL0     H84606  10.267  10.494  11.776  2.0141 -1.8792  1.4808
  641MOL0     H84607  10.316  10.670  11.758  0.8531  1.6654  0.5512
  641MOL0     H84608  10.437  10.540  11.954 -0.3568 -0.7183 -0.9484
  641MOL0     H84609  10.519  10.453  11.837  0.8445  0.4325 -1.5426
  641MOL0     H84610  10.719  10.816  11.771 -1.1266  1.7475 -1.2756
  641MOL0     H84611  10.293  10.736  11.262  3.7630  1.3159  3.7657
  641MOL0     H84612  10.443  10.812  11.111  0.5558 -0.1326  1.2023
  642MOL0     O84613   3.935   4.101   1.008 -0.0184  0.0203 -0.3780
  642MOL0     C84614   3.843   4.080   0.930  0.5069  0.2795 -0.5882
  642MOL0     O84615   3.809   4.159   0.828  0.2676 -0.1780  0.0824
  642MOL0     C84616   3.847   4.296   0.825  0.1626  0.1351  0.5078
  642MOL0     C84617   3.739   4.383   0.812 -0.7109 -0.2156  0.3009
  642MOL0     C84618   3.756   4.521   0.793 -0.6080  0.2839  0.3077
  642MOL0     C84619   3.892   4.574   0.773  0.1175  0.5590  0.3906
  642MOL0     O84620   3.922   4.706   0.729  0.1536  0.1109 -0.3682
  642MOL0     C84621   3.824   4.781   0.657  0.7176  1.7646  0.1410
  642MOL0     C84622   3.867   4.927   0.606  1.1157  1.1760  0.9710
  642MOL0     C84623   3.822   5.042   0.696 -0.2849  0.9513  0.2702
  642MOL0     C84624   3.673   5.068   0.677  0.2391  0.6993 -0.5768
  642MOL0     C84625   3.622   5.215   0.704  0.1792  0.0574 -0.1011
  642MOL0     C84626   3.476   5.237   0.699  0.6193  0.6658 -0.3919
  642MOL0     C84627   3.434   5.383   0.677 -1.0096 -0.2830 -0.5804
  642MOL0     C84628   3.279   5.393   0.662  0.6025 -0.2112 -0.3559
  642MOL0     N84629   3.227   5.527   0.629 -0.3676 -0.5588  0.4916
  642MOL0     C84630   3.203   5.622   0.725 -0.2446 -0.4485 -0.3690
  642MOL0     C84631   3.151   5.728   0.661 -0.7574  0.2665  0.1156
  642MOL0     C84632   3.107   5.846   0.733  0.1526 -0.0792  0.0577
  642MOL0     C84633   2.989   5.820   0.825  0.5894 -0.0298 -0.4582
  642MOL0     C84634   2.861   5.763   0.768 -0.8759 -0.3391 -1.1958
  642MOL0     C84635   2.804   5.860   0.664 -0.4951 -0.1465 -0.0461
  642MOL0     O84636   2.689   5.793   0.593  0.1490  0.6029 -0.0327
  642MOL0     C84637   2.600   5.871   0.521  0.3370  0.0682  0.9926
  642MOL0     C84638   2.606   6.014   0.514 -0.3831  0.2401  0.6602
  642MOL0     C84639   2.520   6.085   0.429 -0.2401 -0.3313 -0.2990
  642MOL0     C84640   2.415   6.019   0.367 -0.4733 -0.8149 -0.3687
  642MOL0     C84641   2.324   6.089   0.272 -0.0657 -0.2934  0.6049
  642MOL0     O84642   2.253   6.006   0.197 -0.1762 -0.5260  0.9643
  642MOL0     C84643   2.165   6.071   0.119 -0.7019  0.9208  0.0463
  642MOL0     C84644   2.039   6.088   0.167  0.5484  1.5868  0.2617
  642MOL0     C84645   1.937   6.143   0.088  0.4409  0.5095  0.4936
  642MOL0     C84646   1.968   6.189  -0.045 -0.3544 -0.1375  0.3546
  642MOL0     O84647   1.884   6.261  -0.125  0.7158  0.4703  0.4452
  642MOL0     C84648   1.823   6.374  -0.072  0.1193  0.1951 -0.0601
  642MOL0     C84649   1.901   6.498  -0.068  0.2429 -0.3503  0.4447
  642MOL0     C84650   2.019   6.519   0.027  0.6725 -0.1699  0.3420
  642MOL0     C84651   1.977   6.542   0.170 -1.2491  0.0291  0.4456
  642MOL0     C84652   2.107   6.604   0.252  0.5198 -1.7551 -0.4742
  642MOL0     C84653   2.048   6.641   0.390  0.3933 -0.0997  0.2024
  642MOL0     C84654   1.971   6.778   0.399  0.0524 -1.0208  0.7944
  642MOL0     C84655   1.910   6.806   0.534  0.9551  0.8680 -0.2936
  642MOL0    Cl84656   1.760   6.721   0.572 -0.1413  0.4285 -0.3485
  642MOL0     C84657   2.093   6.172  -0.094 -0.1533 -0.1701  0.5034
  642MOL0     C84658   2.191   6.110  -0.011  0.5061 -0.1894  0.4209
  642MOL0     O84659   2.314   6.212   0.273  0.1043 -0.5864  0.0473
  642MOL0     C84660   2.407   5.876   0.381  0.0878  0.2749 -0.0642
  642MOL0     C84661   2.494   5.805   0.466  0.8848  0.4831  0.4525
  642MOL0     N84662   3.151   5.696   0.524  0.2317 -0.5322  0.5799
  642MOL0     N84663   3.208   5.581   0.507 -0.2362  0.0453 -0.3787
  642MOL0     C84664   3.991   4.480   0.782 -0.1336 -0.2381  0.6165
  642MOL0     C84665   3.973   4.348   0.814 -0.3201 -0.2258 -0.4573
  642MOL0     C84666   3.769   3.949   0.958  0.4333 -0.0344 -0.8271
  642MOL0     C84667   3.637   3.945   0.944  0.6967  0.0679 -0.0548
  642MOL0     C84668   3.571   3.825   0.986  1.1292  0.2004  0.5559
  642MOL0     C84669   3.637   3.704   1.024 -0.0636 -0.0240  0.1643
  642MOL0     O84670   3.579   3.592   1.083  0.1981 -0.0400  0.0625
  642MOL0     C84671   3.463   3.530   1.037  1.0195 -0.3053  0.0666
  642MOL0     C84672   3.472   3.441   0.903 -0.1284 -1.0613  0.3579
  642MOL0     C84673   3.365   3.459   0.793 -0.0153  0.0691 -0.0846
  642MOL0     C84674   3.428   3.402   0.661  0.5351  0.9844 -0.2659
  642MOL0     C84675   3.336   3.369   0.559  0.0744  0.4940 -0.1709
  642MOL0     C84676   3.247   3.314   0.498 -0.2699  1.5029 -0.3926
  642MOL0     C84677   3.780   3.718   1.034 -0.1479 -1.4936 -0.5226
  642MOL0     C84678   3.842   3.839   1.010 -0.3307  0.0671  0.1778
  642MOL0     H84679   3.637   4.353   0.831 -1.7658  2.9755  0.2619
  642MOL0     H84680   3.666   4.581   0.780 -0.2888  0.8405  0.6417
  642MOL0     H84681   3.736   4.791   0.722 -1.5364  1.2332 -2.5884
  642MOL0     H84682   3.791   4.719   0.573  2.0913 -2.3892  2.3728
  642MOL0     H84683   3.837   4.940   0.502 -0.2996 -2.1526  0.8411
  642MOL0     H84684   3.976   4.934   0.602  1.3939 -1.7619 -3.2168
  642MOL0     H84685   3.859   5.141   0.670 -1.0976  1.4671  1.0188
  642MOL0     H84686   3.852   5.021   0.799 -0.7890 -1.5385 -0.0136
  642MOL0     H84687   3.645   5.046   0.574  3.6499 -1.5209 -1.1759
  642MOL0     H84688   3.623   4.995   0.742  2.3784 -0.3808 -0.0731
  642MOL0     H84689   3.668   5.283   0.631  1.2438 -1.1921 -0.6440
  642MOL0     H84690   3.651   5.255   0.801  0.5863 -0.0419 -0.1823
  642MOL0     H84691   3.434   5.186   0.787  0.6834  3.2610  1.2683
  642MOL0     H84692   3.435   5.190   0.610 -2.2167 -0.2688  1.2638
  642MOL0     H84693   3.452   5.444   0.766 -2.2126  2.7829 -2.2928
  642MOL0     H84694   3.499   5.417   0.596  1.7068 -0.7428  1.2737
  642MOL0     H84695   3.224   5.349   0.746 -1.0364 -0.2910 -1.4148
  642MOL0     H84696   3.256   5.327   0.578  1.4082 -2.2077  0.9097
  642MOL0     H84697   3.203   5.600   0.831 -1.8860 -2.2551 -0.6936
  642MOL0     H84698   3.078   5.920   0.659 -3.8924 -0.0639  1.4044
  642MOL0     H84699   3.201   5.889   0.769 -0.3298  2.0647 -1.1187
  642MOL0     H84700   2.964   5.918   0.866  2.1441  1.1433 -2.1660
  642MOL0     H84701   3.021   5.748   0.901 -2.2374 -0.5708  0.3442
  642MOL0     H84702   2.874   5.664   0.723  4.7559 -0.8001  0.7211
  642MOL0     H84703   2.792   5.758   0.852  2.5873 -3.4804  1.7985
  642MOL0     H84704   2.873   5.882   0.583 -1.3019 -2.0000 -1.3104
  642MOL0     H84705   2.772   5.950   0.717 -1.9152 -1.3979  1.3623
  642MOL0     H84706   2.681   6.064   0.574 -1.7126 -1.4031  3.9487
  642MOL0     H84707   2.528   6.193   0.434  2.8152 -0.4858  0.7671
  642MOL0     H84708   1.999   6.065   0.265  0.3895  2.7604  0.4916
  642MOL0     H84709   1.837   6.151   0.129  1.3691 -0.7480  3.2016
  642MOL0     H84710   1.798   6.353   0.032  1.8648 -0.1283  0.3073
  642MOL0     H84711   1.724   6.384  -0.120  0.2609 -2.2265 -0.9755
  642MOL0     H84712   1.841   6.589  -0.062 -2.1865 -1.7933 -0.5823
  642MOL0     H84713   1.943   6.505  -0.168  1.2201  0.3014  0.8867
  642MOL0     H84714   2.073   6.607  -0.009 -0.5887  0.4570 -0.0964
  642MOL0     H84715   2.097   6.443   0.024  1.3957  0.0921  4.7423
  642MOL0     H84716   1.898   6.619   0.165 -1.3681 -0.1800 -3.5206
  642MOL0     H84717   1.946   6.448   0.216  1.2839 -1.0346  0.1498
  642MOL0     H84718   2.135   6.701   0.210 -0.2002 -2.1622 -1.9718
  642MOL0     H84719   2.189   6.531   0.259  1.0027 -1.1646  0.1889
  642MOL0     H84720   2.120   6.643   0.472 -0.6521 -2.0934  1.2485
  642MOL0     H84721   1.976   6.565   0.423 -0.0888  0.3926  0.2941
  642MOL0     H84722   2.029   6.866   0.369 -2.0265  0.8635  1.9440
  642MOL0     H84723   1.889   6.775   0.326  2.0122 -2.4080 -1.5147
  642MOL0     H84724   1.869   6.906   0.549  0.9429  0.7221  0.7510
  642MOL0     H84725   1.984   6.792   0.614 -0.1937  0.0507  0.6670
  642MOL0     H84726   2.101   6.191  -0.200 -2.4060 -0.9044  0.1591
  642MOL0     H84727   2.293   6.119  -0.046 -0.9953  3.4310 -3.8304
  642MOL0     H84728   2.327   5.830   0.325  0.7468  0.1870 -0.9586
  642MOL0     H84729   2.500   5.699   0.490  1.0576  0.4560  0.2982
  642MOL0     H84730   4.091   4.517   0.762 -0.4448 -0.1696 -0.9655
  642MOL0     H84731   4.060   4.283   0.816 -0.2762 -0.1875 -0.9139
  642MOL0     H84732   3.579   4.031   0.912  3.4521  1.8895 -0.4610
  642MOL0     H84733   3.463   3.820   0.972  1.3042  0.2598 -0.9515
  642MOL0     H84734   3.382   3.602   1.020 -1.3427 -2.9185 -0.4728
  642MOL0     H84735   3.437   3.465   1.122  1.5066  0.0970  0.5309
  642MOL0     H84736   3.559   3.473   0.844 -4.1258  0.1991 -5.8008
  642MOL0     H84737   3.487   3.337   0.932  0.1235 -0.8180  1.1096
  642MOL0     H84738   3.334   3.560   0.766 -1.5757 -0.9979 -2.8035
  642MOL0     H84739   3.278   3.398   0.821 -0.4914  0.0164 -1.5780
  642MOL0     H84740   3.509   3.464   0.621  1.7646 -2.1514 -3.1646
  642MOL0     H84741   3.477   3.311   0.698 -1.8413 -1.5389 -2.8236
  642MOL0     H84742   3.173   3.260   0.443  1.7061  1.1128 -2.8869
  642MOL0     H84743   3.832   3.629   1.067 -0.5816 -1.0931  1.3320
  642MOL0     H84744   3.949   3.845   1.027 -0.4361  0.9398  0.5798
  643MOL0     O84745   4.086   2.802   0.857 -0.1717 -0.0273 -0.6247
  643MOL0     C84746   3.986   2.733   0.900 -0.2377 -0.4149  0.3264
  643MOL0     O84747   3.950   2.601   0.856 -0.2823  0.2077 -0.2281
  643MOL0     C84748   4.040   2.540   0.766 -0.8172 -0.8442  0.9615
  643MOL0     C84749   4.179   2.523   0.793  0.2165  0.0816  0.5511
  643MOL0     C84750   4.264   2.474   0.694  0.1531 -0.3068 -0.1963
  643MOL0     C84751   4.214   2.428   0.568  0.1961  0.7360 -0.0828
  643MOL0     O84752   4.302   2.384   0.471  0.1519 -0.4433 -0.2024
  643MOL0     C84753   4.253   2.306   0.363  0.2623  0.9672  0.0673
  643MOL0     C84754   4.357   2.204   0.316 -0.6102  0.4905 -0.1830
  643MOL0     C84755   4.430   2.124   0.429  0.5530  0.1323  0.1014
  643MOL0     C84756   4.573   2.081   0.379  0.3223 -0.9160  0.7057
  643MOL0     C84757   4.674   2.209   0.392 -0.0316 -0.1405 -0.0905
  643MOL0     C84758   4.812   2.177   0.333 -0.1110  0.0474  0.1435
  643MOL0     C84759   4.841   2.223   0.193  0.0882  0.1401 -0.3455
  643MOL0     C84760   4.987   2.187   0.153  0.0011 -0.4588  0.2269
  643MOL0     N84761   5.027   2.246   0.023 -0.0501  0.5495 -0.4409
  643MOL0     C84762   4.954   2.219  -0.089  0.4280  0.2865 -0.9790
  643MOL0     C84763   5.007   2.300  -0.180  0.0169 -0.2578  0.2256
  643MOL0     C84764   4.958   2.298  -0.318  1.0218 -0.9284  0.2344
  643MOL0     C84765   5.000   2.197  -0.414  0.3630 -0.3449 -0.5419
  643MOL0     C84766   5.149   2.162  -0.434  0.4065  0.0560  0.3426
  643MOL0     C84767   5.221   2.283  -0.472 -0.1868  0.8714  0.2904
  643MOL0     O84768   5.361   2.251  -0.492 -0.1662 -0.1549 -0.3908
  643MOL0     C84769   5.440   2.258  -0.376  0.8478  0.1119  0.8211
  643MOL0     C84770   5.453   2.356  -0.269  1.2581  0.1950 -0.1267
  643MOL0     C84771   5.562   2.365  -0.174  0.6814  0.0888  0.5094
  643MOL0     C84772   5.662   2.264  -0.175 -0.6265 -0.3808 -1.5460
  643MOL0     C84773   5.785   2.258  -0.096  0.5323  0.3956 -0.4529
  643MOL0     O84774   5.808   2.370  -0.024  0.1867  0.5433 -0.0300
  643MOL0     C84775   5.922   2.389   0.046  0.1147 -0.2693  0.3630
  643MOL0     C84776   5.984   2.313   0.148 -0.7663  0.8117  0.3582
  643MOL0     C84777   6.104   2.353   0.211 -0.1137  0.5970  0.6814
  643MOL0     C84778   6.158   2.481   0.176  0.4650  0.0697 -0.2987
  643MOL0     O84779   6.264   2.535   0.241  0.6547  0.9480 -0.7263
  643MOL0     C84780   6.270   2.675   0.258 -0.7397 -0.3956 -0.3909
  643MOL0     C84781   6.397   2.693   0.342  0.1747 -0.4493 -0.7201
  643MOL0     C84782   6.388   2.630   0.478 -0.3676 -0.5962 -0.9148
  643MOL0     C84783   6.514   2.668   0.568  1.1129 -0.4790  0.9138
  643MOL0     C84784   6.485   2.693   0.714  0.0697 -1.0522  0.0065
  643MOL0     C84785   6.413   2.584   0.787  0.6245 -0.2830 -0.9987
  643MOL0     C84786   6.360   2.644   0.916 -0.5060 -0.1771 -0.4759
  643MOL0     C84787   6.279   2.543   1.001 -0.4252  0.2409 -0.1787
  643MOL0    Cl84788   6.100   2.537   0.959 -0.1085 -0.1734  0.1599
  643MOL0     C84789   6.109   2.549   0.066  0.0194  0.8041 -0.5535
  643MOL0     C84790   5.995   2.500   0.005  1.1932  0.6383  0.2696
  643MOL0     O84791   5.856   2.160  -0.104 -0.4302  0.3701  0.1268
  643MOL0     C84792   5.638   2.158  -0.260  0.1558  0.9770  0.1106
  643MOL0     C84793   5.535   2.157  -0.362  0.0306 -0.5009 -0.3574
  643MOL0     N84794   5.118   2.373  -0.122  0.4091  0.7357  0.2481
  643MOL0     N84795   5.128   2.330  -0.006  1.1069 -0.4856 -0.2345
  643MOL0     C84796   4.070   2.434   0.556 -0.1422 -0.2704  0.7652
  643MOL0     C84797   3.990   2.490   0.652  0.7794  0.4613  0.7840
  643MOL0     C84798   3.897   2.805   0.995  0.5786  0.0995  0.3888
  643MOL0     C84799   3.936   2.938   1.024 -0.8458 -0.8458  0.0074
  643MOL0     C84800   3.853   3.020   1.098  0.8211  0.9000  0.1071
  643MOL0     C84801   3.740   2.964   1.154  0.1897 -0.7546  0.0571
  643MOL0     O84802   3.667   3.046   1.240 -0.3011  0.5050 -0.1370
  643MOL0     C84803   3.706   3.021   1.373  0.3271 -0.7678 -0.5018
  643MOL0     C84804   3.713   3.140   1.471  0.6571 -0.3906  0.2942
  643MOL0     C84805   3.816   3.252   1.438 -0.0576  0.0837  0.2514
  643MOL0     C84806   3.742   3.371   1.354  0.7062  0.4204 -0.5291
  643MOL0     C84807   3.766   3.360   1.208 -0.8313 -0.0338 -0.3505
  643MOL0     C84808   3.793   3.358   1.084 -0.5667  0.1090 -0.2513
  643MOL0     C84809   3.707   2.830   1.129 -1.4361 -1.2043 -1.2119
  643MOL0     C84810   3.791   2.743   1.051  0.0064  0.3320 -0.7939
  643MOL0     H84811   4.212   2.552   0.892  0.6801  0.9221  0.1594
  643MOL0     H84812   4.368   2.460   0.722 -0.4167  1.0391  3.0724
  643MOL0     H84813   4.234   2.367   0.273 -0.8849 -3.2724 -2.8991
  643MOL0     H84814   4.166   2.247   0.394 -0.6538  1.7847 -0.8194
  643MOL0     H84815   4.436   2.247   0.254  3.0687 -2.7314  1.8087
  643MOL0     H84816   4.313   2.131   0.248  1.8659 -0.8655 -0.4185
  643MOL0     H84817   4.371   2.037   0.461  1.7918 -0.7828 -0.0367
  643MOL0     H84818   4.449   2.191   0.513 -0.1756  2.6251 -1.6017
  643MOL0     H84819   4.605   1.998   0.444 -0.4825 -1.8890 -0.1076
  643MOL0     H84820   4.569   2.032   0.282 -0.1763  1.4907 -0.5620
  643MOL0     H84821   4.664   2.236   0.497 -3.8942  1.7568 -0.7834
  643MOL0     H84822   4.623   2.292   0.342 -3.8548 -0.8470  2.2725
  643MOL0     H84823   4.832   2.070   0.345 -3.3845 -1.0510 -2.5968
  643MOL0     H84824   4.882   2.228   0.399  1.9102  0.2382 -2.0279
  643MOL0     H84825   4.771   2.185   0.119  2.3603 -3.1882 -0.9766
  643MOL0     H84826   4.824   2.331   0.185 -0.6759  0.1470  0.9262
  643MOL0     H84827   5.016   2.081   0.160 -2.6756 -1.3297 -0.8234
  643MOL0     H84828   5.054   2.239   0.222 -2.0726  1.8851  0.5927
  643MOL0     H84829   4.872   2.149  -0.089 -1.4066  2.3175 -0.7876
  643MOL0     H84830   4.974   2.401  -0.350 -0.0648 -0.8879 -0.2313
  643MOL0     H84831   4.852   2.277  -0.303  1.3751 -1.5211  2.2264
  643MOL0     H84832   4.943   2.224  -0.504  2.1284  0.8455 -1.3712
  643MOL0     H84833   4.948   2.107  -0.382  0.6185  0.0923  1.1597
  643MOL0     H84834   5.191   2.119  -0.343 -0.7418 -1.8299  0.0356
  643MOL0     H84835   5.150   2.087  -0.513 -1.1899 -0.9701  1.2352
  643MOL0     H84836   5.204   2.362  -0.398 -2.1710 -1.2296  2.2175
  643MOL0     H84837   5.193   2.308  -0.575  0.6889  0.1109 -0.1549
  643MOL0     H84838   5.374   2.431  -0.268  0.2607 -0.7583 -1.7249
  643MOL0     H84839   5.558   2.448  -0.104  1.1340 -3.1004  4.6240
  643MOL0     H84840   5.945   2.221   0.190 -0.7248  1.2910  1.4730
  643MOL0     H84841   6.154   2.301   0.292 -1.2098 -2.5284 -0.5084
  643MOL0     H84842   6.187   2.729   0.302  0.3484  0.2867  0.8791
  643MOL0     H84843   6.283   2.733   0.166 -0.6231  0.4481  0.1524
  643MOL0     H84844   6.412   2.801   0.333  2.5492 -0.8105 -1.9746
  643MOL0     H84845   6.487   2.646   0.303  0.4564  1.6767 -2.9191
  643MOL0     H84846   6.378   2.521   0.480 -2.5986 -0.4444 -0.6471
  643MOL0     H84847   6.307   2.684   0.529  2.8442  2.8470  1.0908
  643MOL0     H84848   6.596   2.597   0.555  2.8569  1.5640  0.1680
  643MOL0     H84849   6.548   2.762   0.523  0.1590 -0.1496  0.8702
  643MOL0     H84850   6.417   2.778   0.718 -0.5130 -1.5580  1.4170
  643MOL0     H84851   6.579   2.723   0.762  0.7504 -0.7079 -1.4809
  643MOL0     H84852   6.482   2.511   0.830 -0.6136 -0.1177  1.4427
  643MOL0     H84853   6.324   2.539   0.741 -0.5991 -0.2269  1.1294
  643MOL0     H84854   6.448   2.671   0.975 -1.1444  3.1172 -0.8270
  643MOL0     H84855   6.305   2.738   0.907  2.8493  2.2775  2.1578
  643MOL0     H84856   6.286   2.571   1.106 -2.2835  1.9841 -0.4558
  643MOL0     H84857   6.326   2.444   0.995 -0.7363  0.0315  0.7386
  643MOL0     H84858   6.169   2.630   0.024  0.1856 -0.8135 -3.7773
  643MOL0     H84859   5.956   2.568  -0.070  1.9543  0.8767  0.0883
  643MOL0     H84860   5.726   2.097  -0.281  2.8257  4.8968 -1.1916
  643MOL0     H84861   5.564   2.093  -0.444  1.6346  2.3789 -2.1682
  643MOL0     H84862   4.029   2.392   0.465  1.2741 -3.6129  1.5250
  643MOL0     H84863   3.884   2.486   0.628  1.5041  1.5675 -3.6331
  643MOL0     H84864   4.026   2.987   0.988 -0.1317 -0.7321  1.8427
  643MOL0     H84865   3.886   3.118   1.131  0.6710  2.1519 -3.0996
  643MOL0     H84866   3.807   2.979   1.377  1.2034  1.2353 -0.4310
  643MOL0     H84867   3.635   2.948   1.413  1.1635 -1.2826  0.0846
  643MOL0     H84868   3.616   3.190   1.479  1.6963  2.3213 -2.1421
  643MOL0     H84869   3.739   3.099   1.569  2.7626  2.8232  1.2187
  643MOL0     H84870   3.907   3.208   1.398  0.9320 -0.4899  2.8858
  643MOL0     H84871   3.842   3.301   1.532  2.0121  0.3639 -0.4258
  643MOL0     H84872   3.636   3.395   1.370  0.1981 -0.4571 -2.2704
  643MOL0     H84873   3.796   3.465   1.372 -1.9081  2.0498 -0.5818
  643MOL0     H84874   3.804   3.344   0.979 -0.0799  0.3899 -0.2452
  643MOL0     H84875   3.625   2.785   1.184 -0.0890 -0.7620  1.3342
  643MOL0     H84876   3.768   2.644   1.014  0.3613  0.7052 -2.1009
  644MOL0     O84877   7.561   2.958   3.168  0.3470 -0.4336  0.7734
  644MOL0     C84878   7.487   2.965   3.064  0.1455  0.3540  0.0646
  644MOL0     O84879   7.367   3.031   3.052  0.6018 -0.2461  0.2314
  644MOL0     C84880   7.311   3.080   3.170 -0.0012  0.9720  0.4371
  644MOL0     C84881   7.206   2.998   3.214  0.2965 -0.3227 -0.4547
  644MOL0     C84882   7.145   3.042   3.336 -0.7578 -0.4230  0.1952
  644MOL0     C84883   7.179   3.156   3.398 -0.2895 -1.2372 -1.1011
  644MOL0     O84884   7.135   3.190   3.525 -0.0311 -0.1730  0.2594
  644MOL0     C84885   7.166   3.085   3.623 -0.6819 -0.5779 -1.7237
  644MOL0     C84886   7.092   3.142   3.741  0.3853 -0.1898 -0.2372
  644MOL0     C84887   7.122   3.080   3.881  1.8423  0.0629  0.2768
  644MOL0     C84888   7.022   3.145   3.989 -0.3254 -0.0615 -0.6013
  644MOL0     C84889   7.113   3.240   4.080  0.5546 -1.3523 -0.5438
  644MOL0     C84890   7.042   3.304   4.197 -0.7002 -1.2826 -0.5106
  644MOL0     C84891   7.142   3.395   4.277 -0.3770  0.9643  0.4594
  644MOL0     C84892   7.138   3.546   4.210  0.7430 -0.6494 -0.3097
  644MOL0     N84893   7.193   3.658   4.285 -0.2609 -0.6277  0.5661
  644MOL0     C84894   7.117   3.748   4.361 -1.1032 -0.8269 -1.2728
  644MOL0     C84895   7.214   3.821   4.428  1.0535 -0.3231  0.0535
  644MOL0     C84896   7.192   3.945   4.515  0.4428  0.3532 -0.1954
  644MOL0     C84897   7.328   3.997   4.571  0.4304 -0.7079  0.1082
  644MOL0     C84898   7.310   4.131   4.649 -0.9373 -0.5093  0.5636
  644MOL0     C84899   7.306   4.097   4.796  0.0885  0.6879 -0.7521
  644MOL0     O84900   7.259   4.211   4.860  0.3009 -0.1324  0.2572
  644MOL0     C84901   7.359   4.294   4.915 -0.0958 -0.1913 -0.0032
  644MOL0     C84902   7.493   4.292   4.887 -1.4314  0.5479  0.9403
  644MOL0     C84903   7.590   4.373   4.954  0.1729 -0.6449  0.3531
  644MOL0     C84904   7.549   4.467   5.047 -0.5281 -0.5953 -0.0214
  644MOL0     C84905   7.649   4.567   5.095  0.2438 -0.0896 -0.5505
  644MOL0     O84906   7.763   4.594   5.030 -0.5113 -0.5073  0.4218
  644MOL0     C84907   7.844   4.690   5.090 -0.7488  0.6450  0.2644
  644MOL0     C84908   7.941   4.646   5.181  0.5692 -0.5413  0.3071
  644MOL0     C84909   8.036   4.729   5.228  0.4170 -0.6371  0.0880
  644MOL0     C84910   8.013   4.871   5.215  0.3209  0.2631  1.1482
  644MOL0     O84911   8.099   4.978   5.262 -0.5594  1.1262 -1.1851
  644MOL0     C84912   8.218   4.945   5.342 -0.1660 -0.4588 -0.2005
  644MOL0     C84913   8.323   5.053   5.310  0.3821 -0.9684  0.3758
  644MOL0     C84914   8.468   5.004   5.330  0.5967  1.3011 -0.1239
  644MOL0     C84915   8.587   5.104   5.288  1.0064  0.2854 -0.0577
  644MOL0     C84916   8.729   5.055   5.326 -0.2924 -0.2568  0.4171
  644MOL0     C84917   8.834   5.131   5.243  0.3677  0.0922  0.5862
  644MOL0     C84918   8.950   5.036   5.201 -0.3809 -0.4980  0.7484
  644MOL0     C84919   9.045   4.991   5.306  0.5373  0.3224 -0.1516
  644MOL0    Cl84920   9.131   5.141   5.366 -0.0721  0.0793  0.1277
  644MOL0     C84921   7.906   4.918   5.133 -0.7901 -0.3039  0.4627
  644MOL0     C84922   7.832   4.821   5.061 -0.3871 -0.5615 -0.6831
  644MOL0     O84923   7.607   4.637   5.193 -0.5561  0.7193 -0.1833
  644MOL0     C84924   7.415   4.475   5.076 -0.5368 -0.6758  0.5725
  644MOL0     C84925   7.318   4.395   5.015  1.0178  0.6022  0.2852
  644MOL0     N84926   7.337   3.774   4.388  0.4376 -0.7544  0.8780
  644MOL0     N84927   7.324   3.678   4.304 -0.0308  0.3517  0.5676
  644MOL0     C84928   7.280   3.238   3.354  0.5986  1.0982 -0.2114
  644MOL0     C84929   7.343   3.202   3.236 -0.2554 -0.3102 -0.9540
  644MOL0     C84930   7.545   2.924   2.928  0.7675  0.3720 -0.5588
  644MOL0     C84931   7.668   2.860   2.916  0.3670  0.3924 -0.4498
  644MOL0     C84932   7.710   2.815   2.794 -0.5448 -0.5834 -0.1745
  644MOL0     C84933   7.625   2.806   2.683 -0.3321  0.2046 -0.0213
  644MOL0     O84934   7.665   2.763   2.554 -0.7144  0.3708  0.3216
  644MOL0     C84935   7.737   2.856   2.477  0.9300  0.3533  0.5458
  644MOL0     C84936   7.764   2.797   2.338 -0.6315  0.3115 -0.4106
  644MOL0     C84937   7.871   2.687   2.327 -0.1240  0.3310 -0.9325
  644MOL0     C84938   8.001   2.736   2.252  0.1076 -0.4304 -0.5835
  644MOL0     C84939   8.051   2.859   2.293  0.4965 -0.6966 -0.4796
  644MOL0     C84940   8.082   2.974   2.332  0.3610  1.2064 -0.8034
  644MOL0     C84941   7.498   2.852   2.708  0.1743 -0.4215  0.7440
  644MOL0     C84942   7.459   2.926   2.819 -0.8756 -0.9673 -0.5600
  644MOL0     H84943   7.178   2.904   3.167  1.2822  0.4242 -2.6805
  644MOL0     H84944   7.056   2.992   3.375  0.2870  0.5801  4.3662
  644MOL0     H84945   7.275   3.079   3.635 -0.8642 -0.2609  0.6715
  644MOL0     H84946   7.122   2.987   3.606 -0.7106 -0.5986 -1.5307
  644MOL0     H84947   6.987   3.128   3.715  1.0489 -0.1288 -3.4372
  644MOL0     H84948   7.128   3.245   3.749  0.1707 -0.0975 -0.4405
  644MOL0     H84949   7.226   3.100   3.906  1.6114 -0.0539  1.3679
  644MOL0     H84950   7.104   2.974   3.864 -2.7751  0.7950 -0.8854
  644MOL0     H84951   6.950   3.214   3.944  0.7349  0.3088 -1.7561
  644MOL0     H84952   6.963   3.071   4.045  1.0303  0.7506  2.1051
  644MOL0     H84953   7.144   3.319   4.011 -0.5593 -0.1376  0.3077
  644MOL0     H84954   7.209   3.197   4.111  1.1471 -0.3671 -0.9786
  644MOL0     H84955   6.993   3.229   4.259  1.4578 -2.2554  0.1269
  644MOL0     H84956   6.963   3.369   4.159 -0.1183 -1.0935 -1.4220
  644MOL0     H84957   7.105   3.397   4.379  2.0522  0.9874  1.4080
  644MOL0     H84958   7.238   3.344   4.287 -0.1555  1.3131  0.1377
  644MOL0     H84959   7.033   3.575   4.201  1.3390  1.8970  0.0790
  644MOL0     H84960   7.183   3.544   4.110 -1.1498 -1.9881 -1.2105
  644MOL0     H84961   7.009   3.754   4.370 -1.0008 -0.8082  0.2983
  644MOL0     H84962   7.128   3.934   4.603 -1.9438  1.8206 -1.6354
  644MOL0     H84963   7.140   4.016   4.451  1.9201  0.7000 -1.0652
  644MOL0     H84964   7.395   4.010   4.485 -2.5597 -1.0715 -2.4694
  644MOL0     H84965   7.371   3.910   4.621 -1.6227  0.6410  4.7602
  644MOL0     H84966   7.396   4.197   4.634 -2.3938  1.2712 -0.3579
  644MOL0     H84967   7.218   4.184   4.622 -0.5523 -0.9500 -1.8510
  644MOL0     H84968   7.401   4.070   4.843 -0.1876  0.2629 -0.4267
  644MOL0     H84969   7.243   4.009   4.814  1.1770  0.4023  2.3478
  644MOL0     H84970   7.535   4.245   4.799 -3.5263  0.0284  0.1781
  644MOL0     H84971   7.691   4.371   4.914 -0.3917  1.6489 -1.4075
  644MOL0     H84972   7.948   4.539   5.200 -1.5965 -1.0071 -1.0847
  644MOL0     H84973   8.120   4.696   5.289  1.1646 -0.3665 -0.7711
  644MOL0     H84974   8.251   4.843   5.322  0.4204 -0.4437  0.6662
  644MOL0     H84975   8.188   4.941   5.447  0.0664 -0.8410 -0.1492
  644MOL0     H84976   8.322   5.136   5.381 -1.9350 -2.7981  2.6690
  644MOL0     H84977   8.323   5.074   5.203  5.6234  1.7584  0.6107
  644MOL0     H84978   8.482   4.909   5.278  0.8298  1.7686 -0.9308
  644MOL0     H84979   8.488   4.986   5.436  0.8609  2.0462 -0.0432
  644MOL0     H84980   8.579   5.120   5.180  1.6235 -2.9798 -0.6951
  644MOL0     H84981   8.554   5.196   5.337 -1.8933 -0.2140 -0.9078
  644MOL0     H84982   8.742   4.947   5.311 -1.6392 -0.4117  0.2588
  644MOL0     H84983   8.753   5.074   5.431 -1.2987  0.0051  0.6096
  644MOL0     H84984   8.881   5.220   5.287  0.1687 -0.1878  1.3750
  644MOL0     H84985   8.796   5.161   5.145 -0.4404  0.3828  0.9778
  644MOL0     H84986   8.905   4.950   5.151  1.8330 -1.3885  0.1937
  644MOL0     H84987   9.015   5.085   5.128  2.2548 -4.4981  0.1160
  644MOL0     H84988   9.117   4.915   5.274 -1.1280 -2.6365  2.5606
  644MOL0     H84989   8.986   4.951   5.388  2.0310 -1.4996  0.0980
  644MOL0     H84990   7.890   5.023   5.111  0.9296 -0.3023 -1.0232
  644MOL0     H84991   7.767   4.872   4.991  1.8881  2.9856 -0.4419
  644MOL0     H84992   7.402   4.544   5.159  1.5927 -1.0190  1.2557
  644MOL0     H84993   7.212   4.392   5.042  1.1288  0.8367  0.7774
  644MOL0     H84994   7.305   3.327   3.410  0.7012  0.7663  0.2768
  644MOL0     H84995   7.414   3.271   3.191  0.9483  0.2835  1.6469
  644MOL0     H84996   7.732   2.871   3.003 -1.3918 -0.5468  1.0414
  644MOL0     H84997   7.814   2.791   2.777 -0.0394 -0.6986  2.6083
  644MOL0     H84998   7.832   2.891   2.519  1.7397 -0.2230 -0.7441
  644MOL0     H84999   7.682   2.949   2.461 -1.2769 -0.9514  0.1656
  644MOL0     H85000   7.675   2.742   2.306 -2.3757  1.1790  2.5595
  644MOL0     H85001   7.776   2.869   2.256  1.1783 -0.1592 -0.6175
  644MOL0     H85002   7.833   2.595   2.281  1.0975 -1.0474  0.6806
  644MOL0     H85003   7.899   2.655   2.428 -1.7310 -1.9201 -1.1127
  644MOL0     H85004   8.071   2.652   2.265  0.1739 -0.1933  0.6332
  644MOL0     H85005   7.972   2.758   2.149 -2.0869 -2.6024 -0.5396
  644MOL0     H85006   8.108   3.064   2.384  0.6088 -0.0901  1.4834
  644MOL0     H85007   7.435   2.844   2.620 -0.7734 -0.8461  1.4441
  644MOL0     H85008   7.361   2.971   2.830  0.1887  1.4378 -0.4676
  645MOL0     O85009   0.904   4.843   0.900 -0.5243  0.6177 -1.3487
  645MOL0     C85010   0.935   4.923   0.810 -0.0100 -0.3075  0.1871
  645MOL0     O85011   1.014   4.895   0.702 -0.3273 -0.6982  0.3860
  645MOL0     C85012   1.077   4.771   0.700  0.1717  0.1138 -0.1493
  645MOL0     C85013   1.211   4.761   0.697  0.5064 -0.2822 -1.0027
  645MOL0     C85014   1.283   4.642   0.680  0.4303  0.4048 -0.3203
  645MOL0     C85015   1.208   4.523   0.689 -1.0997 -0.3908  1.1230
  645MOL0     O85016   1.272   4.402   0.688 -0.0928  0.0361  0.1662
  645MOL0     C85017   1.414   4.386   0.697  0.6757 -0.3353  0.2850
  645MOL0     C85018   1.443   4.373   0.846  0.2848  0.4715  0.9859
  645MOL0     C85019   1.348   4.268   0.918  0.2257 -0.3671 -0.2547
  645MOL0     C85020   1.380   4.127   0.870 -0.5380  0.9173  0.7209
  645MOL0     C85021   1.291   4.023   0.950 -1.0261  0.4982 -0.1429
  645MOL0     C85022   1.132   4.013   0.917 -0.3093  0.5621 -0.4689
  645MOL0     C85023   1.105   3.946   0.789 -0.3383 -0.0549  1.1048
  645MOL0     C85024   0.963   3.895   0.779 -0.3791  0.9704  0.0172
  645MOL0     N85025   0.852   3.989   0.762  0.1697 -1.1301  0.2985
  645MOL0     C85026   0.718   3.966   0.786 -1.0189  0.0158 -0.6954
  645MOL0     C85027   0.658   4.089   0.773  0.5598 -0.3812 -0.1056
  645MOL0     C85028   0.502   4.098   0.775 -0.5985  0.5666 -0.7560
  645MOL0     C85029   0.441   4.030   0.650 -0.4328 -0.5074 -0.3708
  645MOL0     C85030   0.497   4.071   0.510 -0.4703  0.1562 -0.1425
  645MOL0     C85031   0.488   4.219   0.482 -0.4519  1.3087  0.9517
  645MOL0     O85032   0.355   4.266   0.479  0.0977  0.7884 -0.9494
  645MOL0     C85033   0.312   4.323   0.363  0.7793  1.1689  0.7708
  645MOL0     C85034   0.189   4.272   0.312 -0.1038  0.1599 -0.0868
  645MOL0     C85035   0.134   4.322   0.190  0.3497 -0.0256  0.0359
  645MOL0     C85036   0.208   4.402   0.106 -0.4835  0.9927  0.1944
  645MOL0     C85037   0.155   4.454  -0.025 -0.2208  0.9218  0.1091
  645MOL0     O85038   0.033   4.401  -0.073 -1.0485 -0.9318 -0.0433
  645MOL0     C85039  -0.008   4.461  -0.190  0.3059  0.1300  1.5614
  645MOL0     C85040  -0.034   4.601  -0.198  0.2646  0.4566  0.3579
  645MOL0     C85041  -0.073   4.648  -0.322 -0.8490  0.5570 -0.1267
  645MOL0     C85042  -0.105   4.569  -0.430 -0.5460 -0.0967  0.4670
  645MOL0     O85043  -0.163   4.613  -0.543 -0.4759  0.6077 -0.0138
  645MOL0     C85044  -0.301   4.568  -0.567 -0.5362 -0.4300  0.3217
  645MOL0     C85045  -0.351   4.650  -0.677  0.5332 -0.1121  0.5043
  645MOL0     C85046  -0.320   4.597  -0.817 -0.5111  0.5844  1.1043
  645MOL0     C85047  -0.428   4.491  -0.857 -1.0621  0.4403 -0.9226
  645MOL0     C85048  -0.427   4.469  -1.004 -0.4001 -0.3105  0.4520
  645MOL0     C85049  -0.541   4.377  -1.032 -0.6465  0.2491  0.1021
  645MOL0     C85050  -0.518   4.305  -1.165  0.3825 -0.4521  0.2478
  645MOL0     C85051  -0.643   4.247  -1.224  0.0919  0.1959 -0.3728
  645MOL0    Cl85052  -0.616   4.142  -1.364  0.0956 -0.1255  0.3418
  645MOL0     C85053  -0.078   4.436  -0.418 -0.3614  0.3777  0.6811
  645MOL0     C85054  -0.036   4.377  -0.299 -0.3539 -1.7446  0.3177
  645MOL0     O85055   0.233   4.521  -0.093  0.0124 -0.0469  0.1235
  645MOL0     C85056   0.333   4.446   0.162  0.3003 -0.0074  0.3031
  645MOL0     C85057   0.380   4.413   0.292  0.1001  0.8736  0.3084
  645MOL0     N85058   0.756   4.186   0.759  0.0962 -0.3928  0.2527
  645MOL0     N85059   0.874   4.127   0.756 -0.4297  0.2334  0.0111
  645MOL0     C85060   1.078   4.521   0.713  1.1725 -0.0729 -0.6892
  645MOL0     C85061   1.011   4.644   0.718 -0.7014  0.5400 -0.2202
  645MOL0     C85062   0.875   5.059   0.825  1.1439 -0.3861  0.4452
  645MOL0     C85063   0.911   5.164   0.750  0.5583  0.1058  0.0768
  645MOL0     C85064   0.840   5.285   0.750 -0.1375  0.1531  0.3350
  645MOL0     C85065   0.716   5.304   0.829  0.1889  0.1073  0.0742
  645MOL0     O85066   0.642   5.416   0.828 -0.6574  0.4320  0.3091
  645MOL0     C85067   0.696   5.538   0.778 -0.5899 -0.4231 -0.1117
  645MOL0     C85068   0.610   5.655   0.852 -0.3400 -0.0579  0.4281
  645MOL0     C85069   0.475   5.702   0.789  0.0523  0.9758 -0.1261
  645MOL0     C85070   0.387   5.591   0.758 -0.1408 -0.6141 -0.7104
  645MOL0     C85071   0.253   5.626   0.732  0.4262 -0.6121 -0.6304
  645MOL0     C85072   0.150   5.674   0.685  0.0471  0.3187 -0.2054
  645MOL0     C85073   0.692   5.198   0.921 -0.1280 -0.0194  0.2635
  645MOL0     C85074   0.770   5.079   0.921  0.3796  0.7776  0.5959
  645MOL0     H85075   1.260   4.857   0.711 -0.5234 -0.1517  3.0982
  645MOL0     H85076   1.390   4.649   0.665  0.8332 -0.1028  1.9571
  645MOL0     H85077   1.475   4.463   0.648  0.5584 -0.4010  0.0358
  645MOL0     H85078   1.448   4.296   0.646  1.3599 -1.3959  2.4945
  645MOL0     H85079   1.432   4.473   0.889  2.9433  0.4773  1.8266
  645MOL0     H85080   1.546   4.339   0.863 -0.1561 -2.1481 -0.9028
  645MOL0     H85081   1.246   4.293   0.890  0.0721  0.8621  1.2533
  645MOL0     H85082   1.370   4.286   1.024 -3.3670  3.1490  0.1362
  645MOL0     H85083   1.357   4.108   0.765 -0.5253 -0.5956  0.9759
  645MOL0     H85084   1.484   4.094   0.882 -1.4752 -3.6477 -1.3731
  645MOL0     H85085   1.298   4.042   1.058 -0.2533 -1.2917  0.1554
  645MOL0     H85086   1.333   3.925   0.927  0.1555  0.6803  1.0707
  645MOL0     H85087   1.085   4.112   0.916 -2.7804 -0.5205  0.0710
  645MOL0     H85088   1.082   3.961   0.999  0.9061 -3.0794 -1.8367
  645MOL0     H85089   1.121   4.015   0.706 -1.0595  0.6633  1.5589
  645MOL0     H85090   1.182   3.870   0.773  1.5602  2.1947 -1.1331
  645MOL0     H85091   0.932   3.844   0.871  2.2691  0.5598  0.7616
  645MOL0     H85092   0.951   3.829   0.692  1.2664  0.4462  0.1556
  645MOL0     H85093   0.675   3.869   0.810  4.5845 -2.8701 -0.7877
  645MOL0     H85094   0.484   4.205   0.762  4.1652  1.5872 -0.7569
  645MOL0     H85095   0.469   4.062   0.872  1.6541  0.4287  0.0157
  645MOL0     H85096   0.335   4.056   0.651 -0.0733  1.0796 -0.4020
  645MOL0     H85097   0.445   3.924   0.677  0.9570 -0.9017 -1.9544
  645MOL0     H85098   0.604   4.049   0.510  0.5403  4.2173 -0.0242
  645MOL0     H85099   0.432   4.006   0.452 -0.8840 -1.0580  1.5835
  645MOL0     H85100   0.528   4.228   0.381 -2.0607 -1.5316 -0.0686
  645MOL0     H85101   0.554   4.273   0.551  3.1934 -3.3848  1.6823
  645MOL0     H85102   0.130   4.202   0.371 -1.5569  0.4436 -1.1403
  645MOL0     H85103   0.036   4.287   0.160  0.3847  0.6319 -0.8696
  645MOL0     H85104  -0.016   4.677  -0.122  1.1675  0.9858 -0.3684
  645MOL0     H85105  -0.088   4.754  -0.335  0.6891  0.6286 -1.5764
  645MOL0     H85106  -0.368   4.584  -0.481 -0.0350 -2.2370  1.0939
  645MOL0     H85107  -0.304   4.460  -0.577  3.2675 -0.8801  2.1128
  645MOL0     H85108  -0.314   4.752  -0.670 -0.9303  0.5823 -1.1208
  645MOL0     H85109  -0.457   4.669  -0.655  0.4674  5.2374 -2.8366
  645MOL0     H85110  -0.222   4.551  -0.798 -1.0387 -1.9482 -1.5806
  645MOL0     H85111  -0.307   4.674  -0.894 -0.9527 -0.7870 -0.3879
  645MOL0     H85112  -0.404   4.394  -0.813 -0.3714  0.8368 -0.3913
  645MOL0     H85113  -0.526   4.523  -0.822 -1.5464 -1.9472  0.0777
  645MOL0     H85114  -0.345   4.418  -1.056 -0.9288  0.7449 -1.5389
  645MOL0     H85115  -0.436   4.570  -1.046  0.9362  0.4624  1.9510
  645MOL0     H85116  -0.644   4.411  -1.015 -1.0129 -0.5960 -0.3386
  645MOL0     H85117  -0.526   4.297  -0.958  0.9508 -0.9819 -1.4645
  645MOL0     H85118  -0.469   4.373  -1.236  2.3064  0.1899  2.0917
  645MOL0     H85119  -0.444   4.226  -1.151  0.9555 -0.1322 -0.8955
  645MOL0     H85120  -0.718   4.325  -1.245 -0.7541  0.0689  1.8718
  645MOL0     H85121  -0.696   4.185  -1.151 -2.8079  4.0623  1.2203
  645MOL0     H85122  -0.095   4.369  -0.501 -1.0290  1.8515 -0.4193
  645MOL0     H85123  -0.004   4.274  -0.307 -1.2701 -2.1465  1.5875
  645MOL0     H85124   0.390   4.521   0.108  0.2478 -0.6386 -0.6435
  645MOL0     H85125   0.466   4.464   0.334  0.5227  3.2181 -2.9420
  645MOL0     H85126   1.031   4.427   0.740  1.7235  0.0942  1.0096
  645MOL0     H85127   0.905   4.638   0.737 -0.6821  0.6075 -0.0965
  645MOL0     H85128   0.991   5.162   0.677  0.6690  0.7412  0.1735
  645MOL0     H85129   0.885   5.350   0.676  0.6097 -0.8845 -0.1588
  645MOL0     H85130   0.690   5.544   0.669 -3.0061  1.1711  0.0101
  645MOL0     H85131   0.800   5.543   0.811 -0.0609 -0.4496 -1.6989
  645MOL0     H85132   0.600   5.619   0.955  0.3812  0.4518  0.6873
  645MOL0     H85133   0.670   5.745   0.867  1.1356 -1.1644  1.3448
  645MOL0     H85134   0.494   5.781   0.715  2.1076  1.0254  0.3869
  645MOL0     H85135   0.430   5.761   0.869  2.4707  0.1277  1.9776
  645MOL0     H85136   0.442   5.536   0.681  2.2230  0.2233  0.2884
  645MOL0     H85137   0.382   5.543   0.856 -4.1554  1.1132  0.1247
  645MOL0     H85138   0.056   5.722   0.667  1.2392  1.9153 -2.8330
  645MOL0     H85139   0.621   5.223   0.999 -2.5461  1.5905 -2.2939
  645MOL0     H85140   0.753   5.003   0.997  2.1002  0.0941  0.3476
  646MOL0     O85141   7.267   1.858   0.919 -0.0545  0.5387  0.0767
  646MOL0     C85142   7.174   1.876   0.995 -0.2615  0.2600 -0.4939
  646MOL0     O85143   7.085   1.987   0.999 -0.3488 -0.0892 -0.2413
  646MOL0     C85144   7.106   2.081   0.902 -0.1095 -0.1565 -0.5354
  646MOL0     C85145   7.151   2.211   0.938  0.1325 -0.0727 -0.6714
  646MOL0     C85146   7.170   2.306   0.838 -0.1319 -0.4764  1.2639
  646MOL0     C85147   7.142   2.278   0.704 -0.1268  0.5386 -0.1749
  646MOL0     O85148   7.156   2.367   0.599  0.0527 -0.6790  0.6064
  646MOL0     C85149   7.270   2.458   0.597  0.3983  0.0284  0.0505
  646MOL0     C85150   7.276   2.547   0.472 -0.5989  0.2400 -1.0497
  646MOL0     C85151   7.296   2.467   0.343 -0.9626 -0.1254  0.0548
  646MOL0     C85152   7.382   2.557   0.252  0.1617  0.5038 -0.1334
  646MOL0     C85153   7.391   2.504   0.110 -0.0326  0.3957 -0.2285
  646MOL0     C85154   7.247   2.498   0.058  0.7549 -0.1201 -0.5096
  646MOL0     C85155   7.239   2.495  -0.094 -0.9097  0.1233  0.0847
  646MOL0     C85156   7.332   2.393  -0.157 -0.5605  0.9550 -0.7672
  646MOL0     N85157   7.300   2.248  -0.134  0.0265  0.5698  0.9799
  646MOL0     C85158   7.179   2.185  -0.140  0.1286  0.1321 -0.5418
  646MOL0     C85159   7.202   2.054  -0.138 -0.7016 -0.2318  0.8686
  646MOL0     C85160   7.111   1.933  -0.164 -0.4365 -1.1122  0.6364
  646MOL0     C85161   7.006   1.902  -0.059 -0.1115  0.4232 -0.0075
  646MOL0     C85162   7.055   1.937   0.091  0.5032  0.7864 -0.3160
  646MOL0     C85163   7.172   1.849   0.141  0.2301  1.3612 -0.5016
  646MOL0     O85164   7.164   1.825   0.279 -0.1648  0.1616  0.2610
  646MOL0     C85165   7.242   1.895   0.366 -0.4766 -0.2738  0.1662
  646MOL0     C85166   7.241   1.847   0.490 -0.1982  0.0069 -0.0304
  646MOL0     C85167   7.308   1.912   0.593 -0.8193 -0.5316 -0.3376
  646MOL0     C85168   7.389   2.026   0.582  0.1213 -0.5038  0.0664
  646MOL0     C85169   7.475   2.091   0.682 -0.4811 -0.4667  0.8556
  646MOL0     O85170   7.497   2.016   0.788 -0.3115 -0.1745  0.3457
  646MOL0     C85171   7.576   2.062   0.890 -0.5200 -0.0440  1.1928
  646MOL0     C85172   7.521   2.050   1.017 -0.1956 -0.9803  0.0800
  646MOL0     C85173   7.592   2.082   1.130 -0.0443 -0.0143 -0.6808
  646MOL0     C85174   7.732   2.110   1.121  0.5963  0.3314 -0.6392
  646MOL0     O85175   7.804   2.111   1.239 -0.2164  0.3818  0.0362
  646MOL0     C85176   7.907   2.018   1.257  0.4926  0.3224  0.9255
  646MOL0     C85177   7.986   2.033   1.386 -0.2095 -0.6091  0.1314
  646MOL0     C85178   8.100   2.135   1.370 -0.5627  0.0595 -0.3837
  646MOL0     C85179   8.203   2.101   1.255  0.6914  0.2769 -0.3671
  646MOL0     C85180   8.266   1.971   1.287  0.0778 -0.0727 -0.2835
  646MOL0     C85181   8.377   1.938   1.188 -0.4424 -0.6455  0.5775
  646MOL0     C85182   8.483   2.042   1.162  0.5650 -0.7233  0.0521
  646MOL0     C85183   8.605   2.006   1.073  0.0873  0.3645  0.1187
  646MOL0    Cl85184   8.685   1.853   1.127 -0.0074 -0.1670 -0.0974
  646MOL0     C85185   7.787   2.118   0.997 -0.2062  0.3144 -0.3538
  646MOL0     C85186   7.711   2.102   0.879  0.1322  0.3346  0.5674
  646MOL0     O85187   7.524   2.200   0.660 -0.0353  0.1739  0.1796
  646MOL0     C85188   7.392   2.082   0.445  0.0423  0.0314  0.3656
  646MOL0     C85189   7.310   2.021   0.345 -0.7584  0.1311  1.0648
  646MOL0     N85190   7.332   2.030  -0.113  0.3692  0.3573  0.3705
  646MOL0     N85191   7.391   2.147  -0.126 -0.4928 -0.5994 -0.1496
  646MOL0     C85192   7.075   2.149   0.669 -0.5944  0.2236  0.2619
  646MOL0     C85193   7.076   2.050   0.764  0.2373 -0.2033 -0.0732
  646MOL0     C85194   7.177   1.786   1.116  1.1785  0.5492  0.1472
  646MOL0     C85195   7.290   1.743   1.183 -0.0603  0.3117  0.5138
  646MOL0     C85196   7.280   1.648   1.289 -0.5685  0.3103  0.8119
  646MOL0     C85197   7.152   1.598   1.327  0.2819  0.5713 -0.1346
  646MOL0     O85198   7.161   1.511   1.432 -0.3117 -0.4729 -0.9261
  646MOL0     C85199   7.041   1.465   1.493 -0.0366  1.4361  0.5195
  646MOL0     C85200   6.987   1.341   1.429 -0.4755 -1.4822 -0.2606
  646MOL0     C85201   6.882   1.269   1.511  0.0860 -0.6227 -0.6666
  646MOL0     C85202   6.819   1.145   1.438 -0.3071  0.0735 -0.1410
  646MOL0     C85203   6.739   1.179   1.324  0.4981  0.2573 -0.3152
  646MOL0     C85204   6.670   1.192   1.223 -0.8906 -0.4389  0.1623
  646MOL0     C85205   7.034   1.650   1.270  0.0721  0.0664  0.4635
  646MOL0     C85206   7.047   1.738   1.154 -0.1317  0.6042 -0.4573
  646MOL0     H85207   7.167   2.245   1.040 -2.5827  0.1403 -0.2529
  646MOL0     H85208   7.214   2.402   0.860 -0.1005  0.0560 -0.9345
  646MOL0     H85209   7.370   2.414   0.595 -0.0074 -0.8870 -0.7827
  646MOL0     H85210   7.276   2.520   0.687 -1.1943  0.5438 -0.1722
  646MOL0     H85211   7.354   2.623   0.483 -0.4581  0.0019 -0.3308
  646MOL0     H85212   7.181   2.600   0.475  0.0092  1.3159 -0.0151
  646MOL0     H85213   7.202   2.447   0.291  0.7942  0.0186 -3.5462
  646MOL0     H85214   7.340   2.367   0.338 -3.5098 -1.2730 -3.1329
  646MOL0     H85215   7.327   2.652   0.261 -0.3352  0.0645  2.0749
  646MOL0     H85216   7.485   2.575   0.284  0.7101 -1.1508 -0.8813
  646MOL0     H85217   7.435   2.404   0.121 -2.7826 -0.9523 -0.7602
  646MOL0     H85218   7.457   2.566   0.048  0.0898 -1.4823 -2.0929
  646MOL0     H85219   7.191   2.588   0.084  1.8588  0.8867 -1.4728
  646MOL0     H85220   7.189   2.417   0.103  1.3410  0.5890  1.6494
  646MOL0     H85221   7.135   2.489  -0.127 -0.4592  3.8418 -2.6510
  646MOL0     H85222   7.274   2.593  -0.129  1.5850 -1.5594 -2.5831
  646MOL0     H85223   7.430   2.406  -0.111 -0.6744  1.0685 -0.5534
  646MOL0     H85224   7.328   2.414  -0.264  2.4576 -0.8808 -1.3373
  646MOL0     H85225   7.087   2.225  -0.182  1.7316  4.7544 -0.2550
  646MOL0     H85226   7.164   1.840  -0.183 -0.9785 -1.3491  0.2875
  646MOL0     H85227   7.059   1.951  -0.258 -2.2192 -0.4298  1.6882
  646MOL0     H85228   6.978   1.797  -0.066  0.3461  0.2854  0.1609
  646MOL0     H85229   6.915   1.961  -0.076 -0.4340 -0.1759 -0.3754
  646MOL0     H85230   7.076   2.043   0.102  1.7383  0.4841  0.3474
  646MOL0     H85231   6.973   1.926   0.163  1.2412 -0.2249  0.4081
  646MOL0     H85232   7.265   1.897   0.109  1.1581 -0.0471 -0.0272
  646MOL0     H85233   7.161   1.752   0.092 -1.0281 -0.2141  2.6326
  646MOL0     H85234   7.194   1.757   0.529 -0.9837  0.9589  1.2726
  646MOL0     H85235   7.320   1.873   0.694  3.2066  1.1745  0.0393
  646MOL0     H85236   7.420   2.011   1.033 -0.8998  0.7877  0.2021
  646MOL0     H85237   7.563   2.075   1.234  3.0188  5.6966  0.9619
  646MOL0     H85238   7.971   2.019   1.168 -2.0356  1.9706 -1.0490
  646MOL0     H85239   7.854   1.925   1.279 -0.8137  0.7981 -0.0442
  646MOL0     H85240   8.037   1.943   1.421  2.9894  1.4206  1.0325
  646MOL0     H85241   7.926   2.061   1.473  2.9184 -1.0225  2.6103
  646MOL0     H85242   8.150   2.161   1.463  1.7641  0.1729 -1.5801
  646MOL0     H85243   8.064   2.231   1.332  1.3963  1.2296  0.5252
  646MOL0     H85244   8.152   2.094   1.159 -0.5895  1.0068  0.2402
  646MOL0     H85245   8.272   2.186   1.256 -0.5417  1.3138 -0.8427
  646MOL0     H85246   8.193   1.889   1.292  0.8387 -0.6836  2.2766
  646MOL0     H85247   8.299   1.965   1.391 -1.6502 -2.2424  0.2078
  646MOL0     H85248   8.333   1.906   1.094  1.0132 -0.0848 -0.3392
  646MOL0     H85249   8.430   1.859   1.242  3.0053  1.9762  1.4066
  646MOL0     H85250   8.447   2.143   1.140 -0.5980 -0.8005  1.4548
  646MOL0     H85251   8.525   2.070   1.259 -0.4740  2.1560 -0.2237
  646MOL0     H85252   8.692   2.070   1.061  0.7662 -0.5429  0.1484
  646MOL0     H85253   8.559   1.999   0.974 -1.5929 -0.0979  0.8808
  646MOL0     H85254   7.891   2.135   0.973 -0.4475 -0.1763 -1.8523
  646MOL0     H85255   7.759   2.137   0.788  0.4974  2.3500  1.4679
  646MOL0     H85256   7.452   2.169   0.419 -0.1721  0.2906  0.7211
  646MOL0     H85257   7.318   2.064   0.246 -1.3855  0.9350  1.3460
  646MOL0     H85258   7.032   2.125   0.572 -1.0695  1.7998  0.0423
  646MOL0     H85259   7.058   1.949   0.728  0.5856 -0.6831  1.0352
  646MOL0     H85260   7.392   1.769   1.158  0.2832 -1.5008 -0.1111
  646MOL0     H85261   7.374   1.614   1.331  0.5558  0.4572 -1.4498
  646MOL0     H85262   6.963   1.541   1.485 -0.8170  0.6085  0.1047
  646MOL0     H85263   7.051   1.446   1.601 -1.2324  2.9566  0.9279
  646MOL0     H85264   6.945   1.371   1.333  3.0847 -0.8614 -1.7578
  646MOL0     H85265   7.070   1.277   1.399 -1.4396 -2.8892  0.0016
  646MOL0     H85266   6.805   1.344   1.531 -0.1584 -1.1105  0.3080
  646MOL0     H85267   6.934   1.245   1.604  1.3058  1.0927 -0.8587
  646MOL0     H85268   6.895   1.069   1.416  1.1291  1.5987 -0.7478
  646MOL0     H85269   6.744   1.107   1.506  0.9398 -1.5440  0.3878
  646MOL0     H85270   6.625   1.208   1.127  0.0443  2.3138  0.1139
  646MOL0     H85271   6.933   1.620   1.297  0.2926 -5.0797 -3.0165
  646MOL0     H85272   6.958   1.768   1.101 -0.5675  1.8014  0.8921
  647MOL0     O85273   7.807   2.947   5.908  0.5172  0.6806  0.0141
  647MOL0     C85274   7.866   2.849   5.862  0.5529 -0.3570 -1.8448
  647MOL0     O85275   7.838   2.727   5.901  0.0736 -0.1507 -0.3781
  647MOL0     C85276   7.723   2.697   5.971 -0.5331  0.2314  0.2255
  647MOL0     C85277   7.698   2.748   6.099 -0.7797 -0.2928  0.3078
  647MOL0     C85278   7.591   2.697   6.167  1.7912 -0.1470 -0.6008
  647MOL0     C85279   7.503   2.603   6.123  0.7605 -0.3449 -0.4305
  647MOL0     O85280   7.412   2.561   6.210 -0.7369  0.6309  0.6654
  647MOL0     C85281   7.329   2.454   6.192  0.4147  0.5254  0.4990
  647MOL0     C85282   7.240   2.464   6.318 -0.0907 -0.7119  0.0626
  647MOL0     C85283   7.103   2.386   6.302  0.8799 -0.4461 -0.6749
  647MOL0     C85284   7.002   2.457   6.216  1.0045 -0.0940 -0.2540
  647MOL0     C85285   6.866   2.384   6.205 -0.5038  0.6750 -0.2656
  647MOL0     C85286   6.758   2.478   6.145  0.1877  0.2752  0.4499
  647MOL0     C85287   6.780   2.546   6.006 -0.6800  0.0347  0.4770
  647MOL0     C85288   6.826   2.451   5.898  0.6403 -0.3252  0.7787
  647MOL0     N85289   6.720   2.368   5.859  0.5227 -0.1796  0.3520
  647MOL0     C85290   6.592   2.399   5.821 -0.7607  1.6825 -0.9830
  647MOL0     C85291   6.532   2.272   5.799 -0.4178 -0.0448 -0.4791
  647MOL0     C85292   6.402   2.239   5.749  0.6933  0.3861 -0.5032
  647MOL0     C85293   6.412   2.162   5.617  0.8443 -0.6940  0.5539
  647MOL0     C85294   6.275   2.129   5.571  0.0324 -0.4312  0.6570
  647MOL0     C85295   6.267   2.078   5.430  0.4629 -1.1268  0.5131
  647MOL0     O85296   6.122   2.046   5.413 -0.8341  0.3605  0.2187
  647MOL0     C85297   6.061   1.990   5.304 -1.3280  0.6288  0.7908
  647MOL0     C85298   6.133   1.949   5.194  0.4181 -0.5087  0.3855
  647MOL0     C85299   6.063   1.895   5.080  0.0421 -0.0553  0.0340
  647MOL0     C85300   5.922   1.885   5.074  0.8319 -0.5263 -0.5272
  647MOL0     C85301   5.842   1.838   4.948 -0.7626 -0.4116 -0.2218
  647MOL0     O85302   5.710   1.860   4.945 -0.3003  0.5029 -0.1157
  647MOL0     C85303   5.638   1.796   4.842  1.3336  0.1505 -0.4540
  647MOL0     C85304   5.632   1.668   4.801 -0.1534  0.1077 -0.1921
  647MOL0     C85305   5.549   1.615   4.699  1.1889  0.3919 -0.9210
  647MOL0     C85306   5.466   1.700   4.633  0.6192  0.2172  0.3452
  647MOL0     O85307   5.365   1.665   4.542 -0.6664 -0.4872  0.0081
  647MOL0     C85308   5.403   1.585   4.431 -0.6702 -0.1624  0.6470
  647MOL0     C85309   5.325   1.455   4.443  0.3271 -0.4078 -0.6896
  647MOL0     C85310   5.194   1.472   4.361 -0.6164 -0.4142 -0.1623
  647MOL0     C85311   5.101   1.352   4.381  0.5252 -0.1356 -0.6288
  647MOL0     C85312   4.954   1.388   4.354  0.6259  0.2935 -0.7269
  647MOL0     C85313   4.889   1.249   4.319 -0.1618 -0.1876 -0.4889
  647MOL0     C85314   4.743   1.251   4.334  0.5341  0.2109  1.2806
  647MOL0     C85315   4.688   1.300   4.469 -0.8077 -0.2786 -0.1380
  647MOL0    Cl85316   4.507   1.291   4.477  0.3326 -0.3807  0.1270
  647MOL0     C85317   5.453   1.834   4.681  0.0448 -0.0408 -0.9313
  647MOL0     C85318   5.542   1.880   4.782  0.2607 -0.4197 -0.0579
  647MOL0     O85319   5.912   1.779   4.863 -0.0546 -0.5594 -0.3461
  647MOL0     C85320   5.848   1.919   5.191 -0.1407 -0.8780 -0.2150
  647MOL0     C85321   5.917   1.973   5.296 -0.3171  0.0281 -0.5064
  647MOL0     N85322   6.625   2.174   5.835  0.1373 -0.3121  0.2237
  647MOL0     N85323   6.733   2.230   5.860  0.1080 -0.0724  0.1968
  647MOL0     C85324   7.527   2.548   5.997  0.2305 -0.7406  0.1395
  647MOL0     C85325   7.635   2.599   5.925 -0.0319 -0.2238  0.9581
  647MOL0     C85326   7.975   2.864   5.765 -0.4769  0.8902  0.2927
  647MOL0     C85327   8.026   2.750   5.710  0.2510 -0.5395  0.3687
  647MOL0     C85328   8.130   2.753   5.620 -0.6142 -0.4053 -0.0459
  647MOL0     C85329   8.190   2.876   5.578  0.9984  0.1173  1.2112
  647MOL0     O85330   8.300   2.849   5.499 -0.1044 -0.1755 -0.2081
  647MOL0     C85331   8.390   2.967   5.476  0.1734 -0.2151 -0.3043
  647MOL0     C85332   8.331   3.062   5.365 -0.5694 -0.0145  0.1673
  647MOL0     C85333   8.404   3.196   5.355  0.5722 -0.0692 -1.3225
  647MOL0     C85334   8.430   3.271   5.228  0.2032  0.0223  0.6382
  647MOL0     C85335   8.304   3.315   5.169  1.4262 -1.2617 -0.7079
  647MOL0     C85336   8.199   3.335   5.114  0.6549 -0.4024  0.1614
  647MOL0     C85337   8.139   2.997   5.626 -0.6639 -0.2639  0.2171
  647MOL0     C85338   8.023   2.991   5.719 -0.4155 -1.1003 -0.0580
  647MOL0     H85339   7.761   2.825   6.141  1.0722 -0.9646 -1.0944
  647MOL0     H85340   7.573   2.723   6.271 -3.4260  2.2887 -1.7958
  647MOL0     H85341   7.380   2.357   6.192 -0.5083  0.0009  1.9936
  647MOL0     H85342   7.265   2.461   6.104 -2.8549  0.8041  2.7114
  647MOL0     H85343   7.225   2.571   6.336 -0.5267 -0.7570 -0.0304
  647MOL0     H85344   7.295   2.415   6.399 -0.7498 -1.4455  0.0801
  647MOL0     H85345   7.056   2.377   6.401  0.2216 -0.4516 -0.9869
  647MOL0     H85346   7.125   2.283   6.271  1.9758  0.3207 -2.5611
  647MOL0     H85347   6.978   2.558   6.251 -2.1334 -0.5238 -0.8446
  647MOL0     H85348   7.033   2.476   6.113 -0.7502 -1.4408 -1.0924
  647MOL0     H85349   6.852   2.352   6.309 -0.9686 -1.3702 -0.9117
  647MOL0     H85350   6.875   2.296   6.142 -1.5613  2.2295 -2.7516
  647MOL0     H85351   6.724   2.552   6.218 -0.9899 -1.2557  1.5313
  647MOL0     H85352   6.669   2.416   6.132  0.3867  0.5180 -2.5638
  647MOL0     H85353   6.690   2.597   5.970 -0.8528 -1.0847 -0.7277
  647MOL0     H85354   6.861   2.620   6.012  1.3439 -2.0921  0.6908
  647MOL0     H85355   6.914   2.395   5.928  1.2935  1.2036  1.8653
  647MOL0     H85356   6.851   2.508   5.808 -5.0950 -3.0101 -3.1220
  647MOL0     H85357   6.545   2.496   5.803 -0.8731  1.3988 -2.3516
  647MOL0     H85358   6.351   2.334   5.732  0.3934  0.3875  0.3514
  647MOL0     H85359   6.344   2.173   5.814  1.2179  2.0717  1.7892
  647MOL0     H85360   6.464   2.066   5.628  0.5541 -1.2555 -2.2950
  647MOL0     H85361   6.461   2.227   5.544 -3.1985  1.1835 -0.7699
  647MOL0     H85362   6.239   2.041   5.627 -0.5243 -3.7004 -4.2281
  647MOL0     H85363   6.217   2.220   5.585  2.1735  0.8603  1.5919
  647MOL0     H85364   6.336   1.993   5.431  0.5956 -1.0236  2.1482
  647MOL0     H85365   6.304   2.142   5.349  2.3964 -2.4242  0.3042
  647MOL0     H85366   6.238   1.972   5.189 -0.0142  1.5632 -0.1294
  647MOL0     H85367   6.121   1.861   4.995 -1.8930  2.2385 -2.3805
  647MOL0     H85368   5.704   1.604   4.851  0.1352  1.0258  0.6062
  647MOL0     H85369   5.561   1.510   4.675  2.4727 -0.3004  2.1973
  647MOL0     H85370   5.511   1.568   4.429 -0.9102 -1.9573 -2.3101
  647MOL0     H85371   5.379   1.642   4.341 -0.6933  1.6448  1.7537
  647MOL0     H85372   5.314   1.430   4.550  0.4576 -3.9918 -1.3723
  647MOL0     H85373   5.383   1.368   4.410  1.0061 -0.4099  0.4637
  647MOL0     H85374   5.208   1.495   4.255  1.7003  1.2588  0.4352
  647MOL0     H85375   5.147   1.561   4.404  3.2939  2.0827 -0.6024
  647MOL0     H85376   5.120   1.272   4.309  2.7512 -0.1689 -0.0899
  647MOL0     H85377   5.107   1.306   4.480  1.1464  2.9520  0.8607
  647MOL0     H85378   4.938   1.457   4.271  0.4865 -1.9805 -2.6998
  647MOL0     H85379   4.919   1.423   4.451 -1.2727 -2.3333 -0.3491
  647MOL0     H85380   4.924   1.163   4.378 -1.3459  0.2381  0.8893
  647MOL0     H85381   4.907   1.235   4.212 -4.3422 -1.5527 -1.1999
  647MOL0     H85382   4.704   1.314   4.254  0.7198 -3.4023 -1.9495
  647MOL0     H85383   4.719   1.149   4.301  3.4641  0.0305 -0.6607
  647MOL0     H85384   4.704   1.407   4.486  2.0631 -0.4840 -1.0411
  647MOL0     H85385   4.720   1.226   4.544 -2.8486 -2.1170 -0.9823
  647MOL0     H85386   5.380   1.900   4.635  0.7119  1.2404 -0.2025
  647MOL0     H85387   5.527   1.981   4.819 -1.8531  0.0203 -1.8545
  647MOL0     H85388   5.740   1.913   5.200 -0.1699  1.3868  2.0628
  647MOL0     H85389   5.863   2.013   5.382  0.2233 -0.6884  0.1816
  647MOL0     H85390   7.460   2.476   5.951  2.0456 -2.1806 -0.3658
  647MOL0     H85391   7.647   2.552   5.828 -0.9800 -1.9144  1.6202
  647MOL0     H85392   7.994   2.647   5.723  1.8056 -1.2055 -0.7230
  647MOL0     H85393   8.176   2.659   5.591  0.5111  0.4305 -1.0848
  647MOL0     H85394   8.491   2.929   5.459  0.1068 -0.1422 -0.8844
  647MOL0     H85395   8.397   3.031   5.565 -0.3981  2.3726 -2.0210
  647MOL0     H85396   8.328   3.006   5.271 -2.8364 -0.6531  0.5543
  647MOL0     H85397   8.228   3.093   5.386  0.0500  1.1635  1.5944
  647MOL0     H85398   8.508   3.174   5.381  0.4316  0.6108 -0.1019
  647MOL0     H85399   8.354   3.262   5.427  1.8834  1.2192 -1.5411
  647MOL0     H85400   8.502   3.352   5.241 -0.5890  0.8170  0.2861
  647MOL0     H85401   8.477   3.203   5.156 -1.3469 -0.9203  0.4706
  647MOL0     H85402   8.104   3.329   5.064  0.8619 -1.4319 -0.1264
  647MOL0     H85403   8.202   3.085   5.621  1.4494 -1.7571 -1.1665
  647MOL0     H85404   7.984   3.078   5.769  1.2578 -0.3520  0.0319
  648MOL0     O85405   0.601   5.695   5.220 -0.2230 -0.1349  0.2586
  648MOL0     C85406   0.625   5.752   5.330 -0.9303  0.5765  0.3913
  648MOL0     O85407   0.635   5.885   5.350  0.4965  0.0622  0.3533
  648MOL0     C85408   0.590   5.966   5.244 -0.2331  0.2036 -0.4616
  648MOL0     C85409   0.684   6.008   5.146  1.1094  0.0949 -0.4119
  648MOL0     C85410   0.648   6.096   5.042 -0.6552 -0.3027  0.3205
  648MOL0     C85411   0.527   6.168   5.048  0.1748  0.1439  0.3556
  648MOL0     O85412   0.482   6.257   4.954 -0.1264  0.3880  0.0827
  648MOL0     C85413   0.577   6.338   4.888 -0.6040 -0.0992 -0.0107
  648MOL0     C85414   0.532   6.477   4.852 -0.4620  0.6310  0.3019
  648MOL0     C85415   0.633   6.582   4.801 -1.0882  0.0898  0.3626
  648MOL0     C85416   0.706   6.538   4.669 -0.5130  0.3602  0.0380
  648MOL0     C85417   0.717   6.657   4.562 -0.3860  0.1144  0.3005
  648MOL0     C85418   0.842   6.746   4.585 -0.2971 -0.0461  0.3154
  648MOL0     C85419   0.843   6.876   4.501  0.4330  0.6677 -0.1821
  648MOL0     C85420   0.710   6.955   4.504  0.6721 -0.5527  0.4775
  648MOL0     N85421   0.666   6.971   4.646 -0.9869 -0.5974  0.2499
  648MOL0     C85422   0.732   7.052   4.743  0.3751  1.4420 -0.2275
  648MOL0     C85423   0.666   7.026   4.864 -0.5563  0.4643  0.3271
  648MOL0     C85424   0.701   7.080   4.993  0.3629  0.4580  0.4913
  648MOL0     C85425   0.831   7.012   5.052 -0.4953 -0.5274  0.2857
  648MOL0     C85426   0.865   7.072   5.193 -0.7207  0.2340  0.9537
  648MOL0     C85427   0.976   6.982   5.257  0.1873  0.6787 -0.5682
  648MOL0     O85428   1.014   7.029   5.393 -1.0203 -0.5418 -0.1800
  648MOL0     C85429   1.148   7.062   5.414 -0.4197 -0.0246  0.1212
  648MOL0     C85430   1.226   7.113   5.313 -0.0168 -1.4315  0.4557
  648MOL0     C85431   1.357   7.151   5.347 -0.0555  0.3711 -0.6233
  648MOL0     C85432   1.413   7.135   5.476  0.0837  0.2424 -0.0466
  648MOL0     C85433   1.545   7.171   5.498  0.6349 -0.5677  0.4114
  648MOL0     O85434   1.629   7.184   5.389  0.6260 -0.1272 -0.2731
  648MOL0     C85435   1.755   7.229   5.398  0.5906  0.7420  0.6952
  648MOL0     C85436   1.853   7.143   5.340  0.1540  0.4729 -0.7163
  648MOL0     C85437   1.991   7.173   5.358  0.3645  0.7811 -1.3679
  648MOL0     C85438   2.036   7.289   5.417  0.5086 -0.3894  0.6762
  648MOL0     O85439   2.160   7.334   5.433 -0.8328 -0.0807  0.9561
  648MOL0     C85440   2.279   7.284   5.358  0.2549  0.6533 -0.6502
  648MOL0     C85441   2.279   7.353   5.217 -0.3445  0.8563 -0.8181
  648MOL0     C85442   2.411   7.292   5.153 -0.7404 -0.0158  0.1577
  648MOL0     C85443   2.430   7.325   5.005  0.9194  0.6372  0.4944
  648MOL0     C85444   2.316   7.258   4.923 -0.2724  0.0821  1.2911
  648MOL0     C85445   2.351   7.260   4.776  0.9645 -0.4340  0.0590
  648MOL0     C85446   2.329   7.395   4.712 -0.5140 -1.4359  0.5766
  648MOL0     C85447   2.385   7.411   4.573 -0.5673 -0.3371 -0.8593
  648MOL0    Cl85448   2.341   7.565   4.487 -0.2953  0.0675 -0.5093
  648MOL0     C85449   1.936   7.367   5.480  0.0693 -1.5296 -1.0650
  648MOL0     C85450   1.797   7.344   5.467  0.4570  0.5972 -0.5256
  648MOL0     O85451   1.585   7.190   5.615 -1.0367 -0.5681 -0.2853
  648MOL0     C85452   1.336   7.072   5.576  0.7589 -0.5509 -0.6533
  648MOL0     C85453   1.204   7.031   5.542 -0.3298 -0.8561 -0.7952
  648MOL0     N85454   0.557   6.948   4.841 -0.7426 -0.6532  0.4944
  648MOL0     N85455   0.573   6.901   4.713  0.1336  0.5170  0.0443
  648MOL0     C85456   0.444   6.121   5.151  0.2245 -0.4023  0.2604
  648MOL0     C85457   0.468   6.027   5.241  0.4820  0.2328  0.0329
  648MOL0     C85458   0.630   5.661   5.453 -1.0124  0.5055 -0.8747
  648MOL0     C85459   0.587   5.532   5.442 -0.3372 -0.1808  0.9158
  648MOL0     C85460   0.586   5.444   5.557  0.5024 -0.4297 -0.7229
  648MOL0     C85461   0.624   5.496   5.680 -0.3770  0.1167  0.5539
  648MOL0     O85462   0.626   5.413   5.797 -0.3762  0.1984  0.2344
  648MOL0     C85463   0.598   5.270   5.802 -0.4346 -0.3121 -0.8217
  648MOL0     C85464   0.718   5.206   5.744 -0.1657 -0.5805  0.6803
  648MOL0     C85465   0.713   5.054   5.769 -1.1500  0.9774 -0.1534
  648MOL0     C85466   0.629   4.975   5.666  0.5502 -0.2251  0.2045
  648MOL0     C85467   0.684   4.988   5.526 -0.2271  0.1343 -0.4824
  648MOL0     C85468   0.725   5.012   5.415  0.1516 -0.2995  0.7138
  648MOL0     C85469   0.669   5.617   5.691 -0.4925  0.9039  0.0275
  648MOL0     C85470   0.669   5.703   5.579 -0.0334  0.4189  0.3849
  648MOL0     H85471   0.788   5.980   5.154  0.7427 -0.9844  0.9291
  648MOL0     H85472   0.729   6.129   4.978 -1.2274 -0.0972 -0.3136
  648MOL0     H85473   0.600   6.287   4.794  0.9957  0.5498  0.0072
  648MOL0     H85474   0.668   6.354   4.946  0.1787 -1.9200 -0.6547
  648MOL0     H85475   0.466   6.506   4.933  1.1487  0.8696  1.5902
  648MOL0     H85476   0.455   6.457   4.777  0.8103 -1.7603 -0.4447
  648MOL0     H85477   0.716   6.595   4.871  3.6594 -1.9441 -4.1990
  648MOL0     H85478   0.582   6.679   4.798 -0.4711  0.4239 -2.0590
  648MOL0     H85479   0.803   6.492   4.688  1.6962  4.5544  0.1872
  648MOL0     H85480   0.644   6.461   4.623  0.9554 -2.5335  2.6059
  648MOL0     H85481   0.621   6.710   4.564 -0.3341  0.5511 -3.0789
  648MOL0     H85482   0.732   6.613   4.463 -3.1945 -0.8166  0.1956
  648MOL0     H85483   0.927   6.683   4.558  0.1577 -0.2706  2.1037
  648MOL0     H85484   0.842   6.768   4.692 -1.8183  0.5738  0.2152
  648MOL0     H85485   0.914   6.949   4.540 -1.6416  0.6711  4.1041
  648MOL0     H85486   0.879   6.852   4.400  0.6674 -2.6044  0.5486
  648MOL0     H85487   0.630   6.917   4.440  0.1372  0.8912  0.2333
  648MOL0     H85488   0.737   7.053   4.464  0.3105  0.6064  2.8922
  648MOL0     H85489   0.824   7.108   4.732  1.7053 -0.8365 -1.5202
  648MOL0     H85490   0.620   7.043   5.056  1.2466 -2.6793 -0.0248
  648MOL0     H85491   0.711   7.189   4.999 -1.6296  0.8312 -1.6590
  648MOL0     H85492   0.925   7.007   4.997  1.5428  0.8404  3.3699
  648MOL0     H85493   0.806   6.906   5.066 -0.2399 -0.3738  2.0409
  648MOL0     H85494   0.900   7.175   5.178  1.1562 -0.0119  3.0133
  648MOL0     H85495   0.771   7.090   5.245 -1.1695  1.3283 -0.2021
  648MOL0     H85496   1.054   6.970   5.182 -0.0296 -2.6668 -0.3995
  648MOL0     H85497   0.931   6.883   5.270 -0.6983  0.9280 -1.5675
  648MOL0     H85498   1.198   7.125   5.208 -0.2338  0.1632  0.6694
  648MOL0     H85499   1.428   7.177   5.269  1.0618 -0.0762  0.2353
  648MOL0     H85500   1.816   7.055   5.288 -0.0373  1.7906 -2.9330
  648MOL0     H85501   2.058   7.091   5.331 -0.0328 -1.0296  2.3963
  648MOL0     H85502   2.270   7.178   5.333 -2.8619  1.0371 -1.5286
  648MOL0     H85503   2.371   7.305   5.414  1.1991 -0.0754 -1.8760
  648MOL0     H85504   2.281   7.462   5.221  0.7725  0.8464 -0.7440
  648MOL0     H85505   2.193   7.322   5.156  1.0800 -3.7297 -0.8964
  648MOL0     H85506   2.401   7.183   5.158 -3.6055  0.0892 -1.4236
  648MOL0     H85507   2.493   7.340   5.207 -0.6473  0.0177 -0.0136
  648MOL0     H85508   2.433   7.432   4.983 -0.5808  1.1393  2.4426
  648MOL0     H85509   2.528   7.282   4.979 -0.9212 -2.8446 -1.3943
  648MOL0     H85510   2.220   7.306   4.941 -0.2783  1.8227 -2.3614
  648MOL0     H85511   2.302   7.153   4.953  1.5421 -1.0733 -1.4857
  648MOL0     H85512   2.277   7.191   4.735 -0.7684  2.5037 -2.1482
  648MOL0     H85513   2.445   7.212   4.745 -0.9328 -1.7961 -4.2745
  648MOL0     H85514   2.221   7.413   4.705 -0.4779 -0.9761  1.1265
  648MOL0     H85515   2.365   7.474   4.777 -2.1496 -1.7749  1.9616
  648MOL0     H85516   2.351   7.325   4.515 -1.6326 -2.8839  3.0921
  648MOL0     H85517   2.494   7.407   4.581 -0.5375  1.2473 -0.1253
  648MOL0     H85518   1.970   7.451   5.540 -0.3265 -0.4810 -2.2670
  648MOL0     H85519   1.711   7.385   5.518  0.2610 -0.6577  0.1962
  648MOL0     H85520   1.357   7.045   5.679 -1.4774 -1.6208 -0.4089
  648MOL0     H85521   1.146   6.986   5.622  1.7027 -0.8113  0.7639
  648MOL0     H85522   0.347   6.166   5.135 -0.3115 -1.9501 -1.3589
  648MOL0     H85523   0.382   5.996   5.298  1.5420 -4.1233 -0.3588
  648MOL0     H85524   0.553   5.487   5.350 -0.1809  0.3202  0.6059
  648MOL0     H85525   0.543   5.347   5.577 -0.8458  0.2448 -0.2527
  648MOL0     H85526   0.513   5.236   5.742 -0.1920 -0.6818 -0.9594
  648MOL0     H85527   0.585   5.230   5.903  1.1094 -1.7097 -1.1270
  648MOL0     H85528   0.730   5.221   5.636  2.2917 -2.7408  0.5435
  648MOL0     H85529   0.806   5.249   5.794  1.6332 -0.5872 -2.2614
  648MOL0     H85530   0.687   5.031   5.873  0.6840 -1.8546 -0.2246
  648MOL0     H85531   0.811   5.010   5.751 -1.1779  1.2942 -1.1382
  648MOL0     H85532   0.608   4.870   5.688 -4.0382  0.6830  1.2554
  648MOL0     H85533   0.530   5.020   5.667  1.1447  1.5206 -3.2793
  648MOL0     H85534   0.752   5.034   5.314 -0.4782 -4.2406 -0.4911
  648MOL0     H85535   0.702   5.653   5.788  0.0776 -0.5836  0.4223
  648MOL0     H85536   0.706   5.805   5.579 -2.4383  1.3676  1.0571
  649MOL0     O85537   7.834   1.862   4.363 -0.0968 -0.5931 -0.0726
  649MOL0     C85538   7.815   1.803   4.259  0.3773  0.4151 -0.5764
  649MOL0     O85539   7.819   1.669   4.234 -0.0493 -0.1981 -0.8706
  649MOL0     C85540   7.891   1.581   4.302  0.0094  0.4392  0.3290
  649MOL0     C85541   7.982   1.604   4.400 -1.2987  0.2210 -0.1904
  649MOL0     C85542   8.047   1.500   4.465  0.6647 -0.6669  0.1234
  649MOL0     C85543   8.010   1.371   4.456 -0.1133  0.2659  0.3475
  649MOL0     O85544   8.078   1.267   4.520  0.3786  0.0170  0.3245
  649MOL0     C85545   8.213   1.288   4.563  0.2395  0.1163  0.1844
  649MOL0     C85546   8.279   1.156   4.587  0.2967  1.0014 -0.3273
  649MOL0     C85547   8.215   1.068   4.699  1.1317  0.8767 -0.2024
  649MOL0     C85548   8.284   0.935   4.699  0.5323  0.5812  0.0693
  649MOL0     C85549   8.198   0.813   4.747  0.2695  0.2308 -0.1088
  649MOL0     C85550   8.259   0.680   4.699 -0.2219  0.4967  0.1658
  649MOL0     C85551   8.161   0.575   4.743 -1.0934 -0.3033 -0.3896
  649MOL0     C85552   8.164   0.521   4.898 -0.2022  0.5457 -0.2392
  649MOL0     N85553   8.299   0.460   4.918  0.3183 -0.5664 -0.0786
  649MOL0     C85554   8.363   0.358   4.848 -0.0461  0.1782 -0.0055
  649MOL0     C85555   8.486   0.348   4.911 -0.1858 -0.2629 -0.7076
  649MOL0     C85556   8.589   0.241   4.862  0.3414 -0.3653  0.4820
  649MOL0     C85557   8.634   0.237   4.715  0.9801 -0.5440  0.0487
  649MOL0     C85558   8.620   0.375   4.645 -0.8030  0.8581 -0.0174
  649MOL0     C85559   8.669   0.363   4.504  0.2991  0.2475  0.0848
  649MOL0     O85560   8.638   0.484   4.431  0.4840 -0.3391  0.1363
  649MOL0     C85561   8.662   0.480   4.294  0.9704  0.4926 -0.8556
  649MOL0     C85562   8.653   0.600   4.228 -0.3319  0.2349 -0.0181
  649MOL0     C85563   8.665   0.615   4.086  0.1309  0.8788 -0.0808
  649MOL0     C85564   8.702   0.501   4.012 -0.3593  0.5239 -0.4843
  649MOL0     C85565   8.725   0.515   3.864 -0.2327  0.5728  0.7262
  649MOL0     O85566   8.707   0.638   3.804 -0.3593  0.5105 -0.0358
  649MOL0     C85567   8.769   0.673   3.686 -0.2214  0.1963  0.4231
  649MOL0     C85568   8.892   0.612   3.657  0.6340  0.1584  0.1587
  649MOL0     C85569   8.954   0.654   3.543  0.9497  0.5308 -0.2263
  649MOL0     C85570   8.901   0.759   3.467 -0.0646  0.1760 -0.0371
  649MOL0     O85571   8.994   0.799   3.369  0.4226 -0.4804 -0.4497
  649MOL0     C85572   8.957   0.910   3.299 -0.1753 -0.4529 -0.2613
  649MOL0     C85573   9.041   0.938   3.173 -0.6546 -0.5748  0.5353
  649MOL0     C85574   9.169   1.011   3.206 -0.1191  0.0407  0.3242
  649MOL0     C85575   9.263   1.024   3.087 -0.8567 -0.0303  0.0564
  649MOL0     C85576   9.392   1.103   3.108 -0.9297 -0.6226  0.4485
  649MOL0     C85577   9.496   1.050   3.221  1.0814 -0.2096 -0.1751
  649MOL0     C85578   9.557   0.908   3.199  1.3270 -0.5249  0.5556
  649MOL0     C85579   9.625   0.865   3.335  0.2342  0.2476 -0.5209
  649MOL0    Cl85580   9.500   0.882   3.470  0.2062 -0.1559  0.2213
  649MOL0     C85581   8.792   0.835   3.520 -0.9203 -1.2567 -0.8207
  649MOL0     C85582   8.719   0.787   3.624  0.0639 -0.2478 -0.0684
  649MOL0     O85583   8.742   0.409   3.809  0.5713  0.1676 -0.1577
  649MOL0     C85584   8.716   0.382   4.083  0.1327 -0.4516 -0.3350
  649MOL0     C85585   8.694   0.360   4.221 -0.1820 -0.7775  0.5522
  649MOL0     N85586   8.491   0.437   5.022 -0.0862 -0.5492  0.0396
  649MOL0     N85587   8.380   0.499   5.026  0.4133 -0.4286 -0.1667
  649MOL0     C85588   7.903   1.343   4.367  0.2719  0.8749 -0.8761
  649MOL0     C85589   7.846   1.448   4.289  1.1001  1.4237 -1.4245
  649MOL0     C85590   7.741   1.879   4.153 -0.4865  0.3340 -0.4563
  649MOL0     C85591   7.733   2.017   4.152 -0.7946 -0.5519  0.0524
  649MOL0     C85592   7.671   2.089   4.045  0.4733 -0.2241  0.6758
  649MOL0     C85593   7.613   2.016   3.943  0.4238 -0.0525 -0.3026
  649MOL0     O85594   7.550   2.061   3.831 -0.5138  0.2825 -0.0817
  649MOL0     C85595   7.644   2.108   3.727 -0.2159 -0.9923  0.0173
  649MOL0     C85596   7.565   2.181   3.614 -0.4847  0.2723 -0.7826
  649MOL0     C85597   7.459   2.105   3.550 -0.4347 -0.1133  0.6823
  649MOL0     C85598   7.385   2.176   3.444 -0.3752 -1.0244 -1.0780
  649MOL0     C85599   7.297   2.079   3.379  0.1943  0.3817 -0.2018
  649MOL0     C85600   7.217   1.988   3.342 -0.6652 -0.3047  0.5660
  649MOL0     C85601   7.622   1.878   3.956 -0.0942  0.8988  0.6379
  649MOL0     C85602   7.680   1.806   4.051  0.4017 -0.4422 -0.0190
  649MOL0     H85603   8.011   1.706   4.424 -1.0109 -0.6395  3.8630
  649MOL0     H85604   8.113   1.520   4.549 -0.9317  1.6596  0.9265
  649MOL0     H85605   8.215   1.347   4.655 -0.4385 -0.6078  0.6697
  649MOL0     H85606   8.265   1.341   4.482 -0.8390  0.3670 -0.3669
  649MOL0     H85607   8.383   1.167   4.620  1.7002 -3.0999 -2.6110
  649MOL0     H85608   8.277   1.104   4.491  4.8735  0.2808 -0.2522
  649MOL0     H85609   8.108   1.053   4.681  1.0875 -0.8937  1.2489
  649MOL0     H85610   8.232   1.102   4.802  1.9234 -3.1317  1.1710
  649MOL0     H85611   8.300   0.909   4.594  1.3612 -2.1120  0.7737
  649MOL0     H85612   8.378   0.935   4.756 -1.1237 -2.8940  3.2798
  649MOL0     H85613   8.094   0.816   4.715 -0.5118  1.0843  2.2913
  649MOL0     H85614   8.210   0.812   4.856  2.1502 -3.5256 -0.1778
  649MOL0     H85615   8.361   0.662   4.735  1.4150  0.1475 -4.0839
  649MOL0     H85616   8.274   0.679   4.591  3.2343  0.7622  0.5299
  649MOL0     H85617   8.062   0.603   4.704 -0.2540  0.1175 -2.3032
  649MOL0     H85618   8.182   0.482   4.688  0.2168 -0.0025 -0.4261
  649MOL0     H85619   8.085   0.452   4.927  0.3378  0.6889  1.7185
  649MOL0     H85620   8.153   0.601   4.971  0.0560 -0.4865  0.9698
  649MOL0     H85621   8.341   0.308   4.754  1.1101  1.2773 -0.9113
  649MOL0     H85622   8.546   0.145   4.893 -0.6212  0.1946  0.9352
  649MOL0     H85623   8.676   0.258   4.926 -1.6349  1.3910  2.8801
  649MOL0     H85624   8.566   0.170   4.661  2.5198 -1.4092 -0.8566
  649MOL0     H85625   8.732   0.191   4.707  1.2697  0.2676 -1.3859
  649MOL0     H85626   8.515   0.403   4.635 -1.9711 -3.5762 -2.5802
  649MOL0     H85627   8.675   0.457   4.693  1.6454  0.5497 -2.0503
  649MOL0     H85628   8.629   0.273   4.454  3.2484  0.6792 -3.5306
  649MOL0     H85629   8.777   0.350   4.515  0.8812  4.4301  0.7087
  649MOL0     H85630   8.646   0.685   4.295  3.8839  2.4746 -1.9871
  649MOL0     H85631   8.654   0.715   4.046  1.7286  1.5115  0.9601
  649MOL0     H85632   8.938   0.533   3.715  1.5424  0.9913  0.5967
  649MOL0     H85633   9.051   0.609   3.523 -1.0503 -4.3196 -0.3761
  649MOL0     H85634   8.960   0.989   3.375  0.1940 -0.9486  0.2533
  649MOL0     H85635   8.856   0.905   3.257 -0.1671  1.2929 -0.5728
  649MOL0     H85636   9.002   1.014   3.105  1.1120 -0.2829 -0.1970
  649MOL0     H85637   9.065   0.843   3.125  3.9043  1.1262 -1.0988
  649MOL0     H85638   9.221   0.966   3.291 -0.8219  0.7927  1.1866
  649MOL0     H85639   9.142   1.108   3.250  3.0106  2.8121 -3.1800
  649MOL0     H85640   9.291   0.925   3.049 -1.3425  0.3016 -1.2173
  649MOL0     H85641   9.207   1.079   3.011  0.7748  2.4698  0.5317
  649MOL0     H85642   9.371   1.204   3.145 -2.3848 -0.2190 -1.3809
  649MOL0     H85643   9.458   1.111   3.021  4.5143 -1.3421  3.9788
  649MOL0     H85644   9.453   1.063   3.320  1.0161  1.9918 -0.4499
  649MOL0     H85645   9.583   1.115   3.218  2.3413 -1.7267  1.4921
  649MOL0     H85646   9.479   0.840   3.162 -2.1261  2.2863  2.0277
  649MOL0     H85647   9.634   0.916   3.122  0.9120 -3.2615 -0.2719
  649MOL0     H85648   9.714   0.913   3.375  1.0163 -2.0014  0.6134
  649MOL0     H85649   9.661   0.762   3.335  1.4957  0.5918 -3.1960
  649MOL0     H85650   8.757   0.922   3.464 -0.9034 -3.1277 -3.9771
  649MOL0     H85651   8.627   0.831   3.662 -0.4455 -1.8659  0.6665
  649MOL0     H85652   8.731   0.298   4.017 -2.8603  0.8310 -2.9356
  649MOL0     H85653   8.703   0.264   4.272  0.1998 -0.3696  1.2718
  649MOL0     H85654   7.869   1.242   4.352 -0.4830  0.6153  1.9962
  649MOL0     H85655   7.770   1.400   4.228  2.5367 -2.7581 -0.3064
  649MOL0     H85656   7.791   2.069   4.228 -0.1442  0.1707 -0.9157
  649MOL0     H85657   7.672   2.196   4.030  3.0249  0.4365  4.3230
  649MOL0     H85658   7.691   2.020   3.682  2.4991  0.7502 -0.7669
  649MOL0     H85659   7.725   2.172   3.762  2.5153 -3.0214 -2.1885
  649MOL0     H85660   7.518   2.266   3.665  0.4499  1.7369 -2.2647
  649MOL0     H85661   7.628   2.234   3.542 -0.1647 -0.2556 -0.8963
  649MOL0     H85662   7.388   2.073   3.627 -0.7634  1.2653  0.9753
  649MOL0     H85663   7.504   2.013   3.511 -0.4752  0.4040 -0.6332
  649MOL0     H85664   7.332   2.260   3.489  0.1616 -0.0007 -2.3000
  649MOL0     H85665   7.464   2.215   3.379  3.6499 -0.5182  3.5595
  649MOL0     H85666   7.139   1.918   3.322  1.2235 -1.7354 -2.3001
  649MOL0     H85667   7.568   1.825   3.878 -0.4005  5.8169 -2.9055
  649MOL0     H85668   7.662   1.699   4.048 -3.4990  0.1251 -1.0120
  650MOL0     O85669   2.952   2.835   8.118  0.0160  0.2605 -0.2841
  650MOL0     C85670   2.852   2.806   8.186 -0.1859  0.0402  1.3180
  650MOL0     O85671   2.762   2.719   8.153  0.3065 -0.0850 -0.2984
  650MOL0     C85672   2.790   2.627   8.050  0.7951 -0.8875 -0.0064
  650MOL0     C85673   2.730   2.650   7.927  0.4683 -0.3882 -1.1429
  650MOL0     C85674   2.758   2.570   7.821  0.2662  0.7584  0.9236
  650MOL0     C85675   2.843   2.456   7.836 -0.1372  0.1019 -0.0237
  650MOL0     O85676   2.894   2.378   7.733  0.0598 -0.2149  0.6718
  650MOL0     C85677   2.818   2.376   7.602 -0.5626 -0.3970  0.2131
  650MOL0     C85678   2.686   2.304   7.626 -0.1296 -0.0794 -0.4704
  650MOL0     C85679   2.603   2.297   7.502 -0.1407  0.1594 -0.2625
  650MOL0     C85680   2.671   2.213   7.389  1.0028 -0.4176  0.9844
  650MOL0     C85681   2.570   2.220   7.273 -0.1507  0.2302  0.4648
  650MOL0     C85682   2.553   2.358   7.221  0.4888 -0.5635  0.5884
  650MOL0     C85683   2.493   2.348   7.076  1.4904  0.7752  0.0210
  650MOL0     C85684   2.445   2.488   7.031  0.5756 -0.1246 -0.3029
  650MOL0     N85685   2.416   2.488   6.882  1.5078 -0.9269 -0.4377
  650MOL0     C85686   2.296   2.461   6.819 -0.1539 -0.4247 -0.1267
  650MOL0     C85687   2.324   2.456   6.693  0.4598  0.5183  0.9810
  650MOL0     C85688   2.224   2.458   6.576 -0.0199 -0.6668 -0.5334
  650MOL0     C85689   2.179   2.603   6.536 -0.4530 -0.9078  0.4843
  650MOL0     C85690   2.095   2.610   6.411 -1.4992  0.3602  0.5520
  650MOL0     C85691   1.977   2.518   6.418 -0.1041 -0.2513  1.0677
  650MOL0     O85692   1.865   2.568   6.487 -0.1790 -0.2475 -0.1554
  650MOL0     C85693   1.844   2.565   6.616  0.7052  0.1713 -0.7951
  650MOL0     C85694   1.762   2.675   6.664 -0.2727  0.1451 -0.5843
  650MOL0     C85695   1.711   2.671   6.795 -0.5697  0.2218  0.0411
  650MOL0     C85696   1.719   2.547   6.878  0.2536 -1.0422 -0.4371
  650MOL0     C85697   1.664   2.541   7.013 -0.7376  0.6555 -0.2771
  650MOL0     O85698   1.702   2.437   7.092 -0.0876 -0.1180 -0.0131
  650MOL0     C85699   1.695   2.463   7.227  0.0301  0.9440 -0.4837
  650MOL0     C85700   1.808   2.495   7.306 -0.4038  0.1017  0.6696
  650MOL0     C85701   1.786   2.512   7.448 -0.0166 -0.2171  0.3818
  650MOL0     C85702   1.666   2.484   7.507  0.5528 -0.1980 -0.2681
  650MOL0     O85703   1.632   2.502   7.639 -0.1352  0.2042 -0.6293
  650MOL0     C85704   1.571   2.402   7.709 -0.2375  0.1751  0.0701
  650MOL0     C85705   1.567   2.437   7.851  0.4798 -0.2972  0.1841
  650MOL0     C85706   1.477   2.557   7.884  0.6426  0.5639  0.8665
  650MOL0     C85707   1.504   2.607   8.029 -0.2565  0.6061  0.2252
  650MOL0     C85708   1.402   2.724   8.063  0.1351  0.2372  0.5201
  650MOL0     C85709   1.476   2.823   8.154  0.4613  0.5781  0.5294
  650MOL0     C85710   1.375   2.934   8.184  0.2100 -0.5201 -0.4878
  650MOL0     C85711   1.438   3.047   8.267  0.2099 -0.5162  0.8545
  650MOL0    Cl85712   1.539   3.145   8.156  0.2555 -0.1886  0.1615
  650MOL0     C85713   1.562   2.442   7.426 -0.5187  0.1650  0.1565
  650MOL0     C85714   1.576   2.433   7.286  0.0865  0.3826  0.3565
  650MOL0     O85715   1.603   2.637   7.048 -0.4892  0.0659  0.4886
  650MOL0     C85716   1.796   2.443   6.823 -0.1385  0.7922  0.1971
  650MOL0     C85717   1.851   2.454   6.697 -0.7145 -0.6634  0.2994
  650MOL0     N85718   2.454   2.503   6.681  0.1216 -0.8345  0.8261
  650MOL0     N85719   2.509   2.533   6.795 -0.2100  0.4869  0.6478
  650MOL0     C85720   2.898   2.432   7.967  0.0479  0.0317  1.3122
  650MOL0     C85721   2.871   2.523   8.066 -0.0798 -0.1843 -0.0336
  650MOL0     C85722   2.832   2.882   8.304 -0.1061  0.1694 -0.6535
  650MOL0     C85723   2.723   2.866   8.382 -0.0534 -0.0655 -0.1084
  650MOL0     C85724   2.721   2.927   8.514 -1.3660  0.1687  1.0382
  650MOL0     C85725   2.823   3.018   8.557  0.8057  0.5716  1.0349
  650MOL0     O85726   2.820   3.084   8.676 -0.2439  0.1699 -0.3517
  650MOL0     C85727   2.699   3.088   8.748 -0.5527 -0.2535  0.5204
  650MOL0     C85728   2.688   3.197   8.855  0.3009 -0.0181  0.5503
  650MOL0     C85729   2.695   3.339   8.793  0.1558  0.2487  0.5741
  650MOL0     C85730   2.661   3.442   8.910 -0.1668 -0.8593  0.2919
  650MOL0     C85731   2.657   3.585   8.859  0.2727  0.5301  1.7990
  650MOL0     C85732   2.654   3.697   8.817  0.5339 -0.4343 -0.0540
  650MOL0     C85733   2.931   3.033   8.467 -0.1013  0.1462 -0.0300
  650MOL0     C85734   2.934   2.965   8.343  0.1264  0.5036  0.1177
  650MOL0     H85735   2.655   2.728   7.923 -1.0586 -1.7635 -0.2645
  650MOL0     H85736   2.717   2.607   7.728  1.6921  3.9025  1.4158
  650MOL0     H85737   2.881   2.322   7.531 -1.3740 -2.8687  1.2688
  650MOL0     H85738   2.802   2.475   7.558 -0.0405  0.2256  1.3708
  650MOL0     H85739   2.637   2.367   7.701 -2.6242  1.0397 -2.8727
  650MOL0     H85740   2.706   2.199   7.650 -0.6080 -0.2843 -0.9611
  650MOL0     H85741   2.586   2.403   7.482  0.9578  0.2760 -0.6390
  650MOL0     H85742   2.501   2.267   7.529 -0.2591  1.4373  0.7994
  650MOL0     H85743   2.764   2.256   7.349 -1.5239  2.2054 -2.7068
  650MOL0     H85744   2.691   2.108   7.412  0.8380 -0.1534  2.4117
  650MOL0     H85745   2.474   2.181   7.309  0.4018 -0.6003  1.0831
  650MOL0     H85746   2.604   2.149   7.196 -1.5677 -1.7608  1.5577
  650MOL0     H85747   2.651   2.408   7.219  0.0579  0.5245  3.1557
  650MOL0     H85748   2.491   2.414   7.291  2.0728  1.9006  0.1418
  650MOL0     H85749   2.569   2.308   7.008  3.6380 -0.3105  2.8361
  650MOL0     H85750   2.405   2.285   7.086  2.4156 -0.4089  0.9234
  650MOL0     H85751   2.520   2.567   7.038 -0.8405  1.2739 -0.3831
  650MOL0     H85752   2.358   2.535   7.078 -1.1385  0.0636 -3.3736
  650MOL0     H85753   2.198   2.450   6.864 -0.8921 -2.4742 -2.0051
  650MOL0     H85754   2.142   2.392   6.607 -2.0583  2.3800  1.0717
  650MOL0     H85755   2.283   2.415   6.495  1.6058  0.8124 -0.1980
  650MOL0     H85756   2.265   2.665   6.510  1.1162 -3.1302  0.0404
  650MOL0     H85757   2.127   2.636   6.626  1.6506 -0.3044  1.5582
  650MOL0     H85758   2.058   2.708   6.378 -3.0422 -0.3581  0.0802
  650MOL0     H85759   2.168   2.585   6.333 -1.7993  1.5083 -0.1224
  650MOL0     H85760   2.001   2.420   6.458  0.9333 -1.8240 -2.8882
  650MOL0     H85761   1.947   2.506   6.313 -0.7634 -1.2901  1.3579
  650MOL0     H85762   1.753   2.765   6.605  1.5525  0.6743 -0.1050
  650MOL0     H85763   1.659   2.762   6.824  0.0912  1.7800 -3.1539
  650MOL0     H85764   1.900   2.520   7.255 -1.1368  0.0778 -0.7170
  650MOL0     H85765   1.869   2.555   7.504 -0.6266 -1.4098  2.2858
  650MOL0     H85766   1.628   2.310   7.692  1.8133  1.4746 -0.4244
  650MOL0     H85767   1.469   2.386   7.673 -0.8954  2.7947  0.5077
  650MOL0     H85768   1.670   2.460   7.878  0.8982  5.0031 -4.2445
  650MOL0     H85769   1.533   2.352   7.911  1.0503  0.6281  1.8687
  650MOL0     H85770   1.376   2.517   7.873  0.8036  0.3483  0.1609
  650MOL0     H85771   1.500   2.645   7.823 -0.2604  0.4112  0.2787
  650MOL0     H85772   1.497   2.529   8.106 -2.1013  0.5718  0.0610
  650MOL0     H85773   1.605   2.648   8.034  0.1216 -0.4372  2.4500
  650MOL0     H85774   1.313   2.690   8.116 -0.0792  1.5120  1.0115
  650MOL0     H85775   1.367   2.769   7.970  0.6481 -0.8313 -0.1983
  650MOL0     H85776   1.561   2.861   8.097 -0.7132 -1.5979 -2.9902
  650MOL0     H85777   1.501   2.772   8.247 -1.0925  0.5776  0.9828
  650MOL0     H85778   1.330   2.971   8.091 -0.6113 -1.2818 -0.4052
  650MOL0     H85779   1.295   2.894   8.246 -0.8277 -1.2161 -2.2255
  650MOL0     H85780   1.489   3.005   8.355  0.2023  2.4954  2.4221
  650MOL0     H85781   1.376   3.122   8.317 -0.0562  0.3124 -0.6704
  650MOL0     H85782   1.468   2.416   7.474  0.3988  0.4225  2.1839
  650MOL0     H85783   1.489   2.419   7.222  0.3450 -1.1695  0.3059
  650MOL0     H85784   1.801   2.352   6.882  4.7762  1.0876  0.6226
  650MOL0     H85785   1.892   2.363   6.655  4.1987  0.0600  2.7837
  650MOL0     H85786   2.967   2.349   7.980  0.0404  0.0079  1.2000
  650MOL0     H85787   2.928   2.511   8.157  1.1487  1.1514 -0.6024
  650MOL0     H85788   2.638   2.803   8.360 -0.1721 -0.0302  0.2383
  650MOL0     H85789   2.633   2.909   8.574 -1.4917  2.8516  1.7665
  650MOL0     H85790   2.683   2.987   8.785  1.5594 -0.2686  1.5686
  650MOL0     H85791   2.614   3.095   8.680 -1.7334 -2.3371  1.6979
  650MOL0     H85792   2.584   3.204   8.887 -0.1065  3.2615 -1.1313
  650MOL0     H85793   2.760   3.184   8.937 -1.2063  0.5870  2.0482
  650MOL0     H85794   2.628   3.351   8.707  0.2887  2.6260  0.7395
  650MOL0     H85795   2.794   3.363   8.754  0.0613  3.1779  1.8333
  650MOL0     H85796   2.559   3.418   8.941 -1.6814  1.0396 -2.7699
  650MOL0     H85797   2.744   3.419   8.977  2.7578  0.4624 -2.6038
  650MOL0     H85798   2.662   3.797   8.780  0.1521 -0.7496 -1.0347
  650MOL0     H85799   3.008   3.106   8.491 -3.1443  4.2723 -1.6057
  650MOL0     H85800   3.031   2.985   8.298 -0.3929  0.8371 -0.8758
  651MOL0     O85801   4.008  10.406  11.178  0.2865  0.6460  0.7070
  651MOL0     C85802   3.994  10.380  11.294  0.2029  0.9890  0.6004
  651MOL0     O85803   4.013  10.257  11.346 -0.1609  0.4700  0.4363
  651MOL0     C85804   4.060  10.152  11.270 -0.7553  0.3502 -0.5228
  651MOL0     C85805   4.007  10.099  11.149 -0.9559  1.2226  0.9765
  651MOL0     C85806   4.059   9.977  11.090 -0.4799 -0.3840  0.2106
  651MOL0     C85807   4.148   9.899  11.168  0.6081  1.0514  0.8388
  651MOL0     O85808   4.181   9.769  11.132  0.1094 -0.0533  0.0728
  651MOL0     C85809   4.071   9.687  11.108  0.0513 -0.0432 -0.2115
  651MOL0     C85810   4.075   9.561  11.188  0.2613  1.1467 -0.4386
  651MOL0     C85811   4.184   9.456  11.156 -0.0660  0.3310  0.7962
  651MOL0     C85812   4.157   9.328  11.237 -0.1261 -0.5350  0.0221
  651MOL0     C85813   4.055   9.237  11.166  0.6448  0.4729  0.5696
  651MOL0     C85814   4.026   9.106  11.244 -0.4595  0.7505 -0.2243
  651MOL0     C85815   3.905   9.113  11.331 -0.5653  0.3629  0.2755
  651MOL0     C85816   3.798   9.013  11.306 -0.0835  0.2175 -0.6826
  651MOL0     N85817   3.755   8.995  11.172  0.5690  0.2495  0.7981
  651MOL0     C85818   3.714   9.106  11.101  0.2057 -0.2698  0.0026
  651MOL0     C85819   3.721   9.062  10.976 -0.3392  0.3788  0.9683
  651MOL0     C85820   3.686   9.141  10.848  0.0565  0.1375 -0.2478
  651MOL0     C85821   3.774   9.260  10.801  0.2270  0.2873 -0.1331
  651MOL0     C85822   3.912   9.206  10.756  0.2180 -0.0289  0.0500
  651MOL0     C85823   4.001   9.333  10.740  0.4554 -0.4256  1.0397
  651MOL0     O85824   3.933   9.428  10.649 -0.1172 -0.1552 -0.3672
  651MOL0     C85825   3.960   9.411  10.516 -0.4768  0.5194 -1.1562
  651MOL0     C85826   4.039   9.310  10.459  0.0487  0.0679  0.9643
  651MOL0     C85827   4.055   9.313  10.315 -0.3723 -0.1056 -0.0179
  651MOL0     C85828   4.018   9.416  10.226  0.1470  0.3505 -0.5527
  651MOL0     C85829   4.059   9.434  10.087 -0.4351 -0.0859 -0.0185
  651MOL0     O85830   4.130   9.336  10.028  0.1991 -0.3883 -0.5725
  651MOL0     C85831   4.170   9.340   9.901  0.2412 -0.4012 -0.0113
  651MOL0     C85832   4.110   9.405   9.787  0.6080  0.5012 -0.2029
  651MOL0     C85833   4.183   9.412   9.664 -0.4090  0.5610  0.9792
  651MOL0     C85834   4.290   9.324   9.645 -0.3231  0.1642  0.1765
  651MOL0     O85835   4.348   9.307   9.519 -0.8319  0.6388  0.2498
  651MOL0     C85836   4.268   9.305   9.396 -0.1002 -0.8614 -0.9461
  651MOL0     C85837   4.197   9.183   9.353 -0.5113 -0.3529  0.4737
  651MOL0     C85838   4.296   9.074   9.317 -0.5584  1.0621 -0.2291
  651MOL0     C85839   4.227   8.932   9.334 -0.0708 -0.1912  0.1969
  651MOL0     C85840   4.304   8.804   9.283 -0.4017 -0.9586  0.0686
  651MOL0     C85841   4.209   8.679   9.262 -1.8140  0.2881 -1.1766
  651MOL0     C85842   4.116   8.672   9.144  0.1421 -0.0451  1.5241
  651MOL0     C85843   3.966   8.674   9.179 -1.4137 -0.1667 -1.2252
  651MOL0    Cl85844   3.920   8.528   9.285  0.0113  0.3741  0.4726
  651MOL0     C85845   4.342   9.241   9.741 -0.3445 -0.8389  0.5533
  651MOL0     C85846   4.284   9.259   9.872 -0.3191 -0.8380 -0.4534
  651MOL0     O85847   3.994   9.524  10.025 -0.6507  0.6375 -0.9074
  651MOL0     C85848   3.927   9.506  10.297 -1.1362 -0.2552 -0.6498
  651MOL0     C85849   3.910   9.507  10.436  0.0999 -0.7969 -0.3020
  651MOL0     N85850   3.764   8.929  10.978 -0.1301 -0.2947 -0.1180
  651MOL0     N85851   3.791   8.889  11.096  0.1591 -0.5412  0.3651
  651MOL0     C85852   4.202   9.945  11.288  0.3381  0.3723 -0.7573
  651MOL0     C85853   4.161  10.071  11.340 -0.5583  0.3458  0.1060
  651MOL0     C85854   3.973  10.493  11.392  0.5053  1.3995  0.0079
  651MOL0     C85855   3.933  10.620  11.334 -0.8424 -1.2191  0.0752
  651MOL0     C85856   3.925  10.733  11.414 -0.0340  0.5705  0.0311
  651MOL0     C85857   3.970  10.727  11.549  0.6506  1.0164  0.6456
  651MOL0     O85858   3.977  10.833  11.639 -1.3926 -0.2637 -0.3846
  651MOL0     C85859   4.069  10.939  11.613 -0.3564 -0.2867  0.3185
  651MOL0     C85860   4.200  10.885  11.671 -1.0337  0.3390 -0.0458
  651MOL0     C85861   4.303  10.999  11.651 -0.0803  0.1630 -0.5008
  651MOL0     C85862   4.445  10.967  11.628  0.3625 -0.2264  0.8945
  651MOL0     C85863   4.516  10.876  11.721  0.9809 -0.7181 -0.9290
  651MOL0     C85864   4.589  10.834  11.800  0.2028 -0.2876  0.0474
  651MOL0     C85865   4.003  10.597  11.607 -0.0658 -0.3340  0.1641
  651MOL0     C85866   4.003  10.484  11.523  0.2082 -0.3855 -0.6214
  651MOL0     H85867   3.937  10.157  11.091 -3.5690  1.0224  3.7090
  651MOL0     H85868   4.013   9.945  10.997 -1.5794 -3.5463  1.7209
  651MOL0     H85869   4.075   9.649  11.006  0.2611 -5.2292  1.4339
  651MOL0     H85870   3.978   9.737  11.135 -0.4644 -0.9623 -0.2514
  651MOL0     H85871   3.979   9.514  11.164  1.8415 -0.7698 -3.8052
  651MOL0     H85872   4.081   9.592  11.293  0.9134 -2.3422  0.7135
  651MOL0     H85873   4.279   9.502  11.185  1.5314 -2.6041  0.5909
  651MOL0     H85874   4.182   9.431  11.050 -1.2425 -0.1699  0.9185
  651MOL0     H85875   4.248   9.268  11.233  0.3215  0.1694 -2.6146
  651MOL0     H85876   4.136   9.353  11.341  0.9283 -1.6110  0.5185
  651MOL0     H85877   4.098   9.209  11.070 -1.2815 -2.2733  0.3903
  651MOL0     H85878   3.958   9.279  11.138  0.2396 -0.3919  0.6471
  651MOL0     H85879   4.108   9.081  11.312  0.6317  0.3719 -1.6528
  651MOL0     H85880   4.017   9.026  11.170 -0.3458  3.7282 -3.7666
  651MOL0     H85881   3.944   9.085  11.430  0.3970 -0.8268 -0.4135
  651MOL0     H85882   3.870   9.216  11.341  1.9258  1.5208 -1.6305
  651MOL0     H85883   3.707   9.047  11.357  0.1792  0.9240 -0.6733
  651MOL0     H85884   3.838   8.920  11.347  3.9936  2.0133 -0.1189
  651MOL0     H85885   3.683   9.200  11.145 -1.8104 -1.3065  0.9106
  651MOL0     H85886   3.588   9.187  10.866  0.6084  1.1725  0.2081
  651MOL0     H85887   3.678   9.070  10.765  3.6034  0.6906 -1.2072
  651MOL0     H85888   3.786   9.337  10.878  0.6862  0.5515 -0.4579
  651MOL0     H85889   3.720   9.314  10.723  0.9864  3.3207  1.2714
  651MOL0     H85890   3.960   9.143  10.832  1.9712  4.1429  2.8300
  651MOL0     H85891   3.903   9.155  10.660  1.4427  2.0925 -1.2753
  651MOL0     H85892   4.099   9.295  10.707  0.7569  2.2047 -1.4665
  651MOL0     H85893   4.012   9.378  10.839 -2.4823 -1.1238  1.7870
  651MOL0     H85894   4.095   9.231  10.507  0.0806 -0.1472  0.5772
  651MOL0     H85895   4.104   9.227  10.270 -2.7705 -2.1137  0.9780
  651MOL0     H85896   4.018   9.462   9.782  0.5441  0.3297 -1.3427
  651MOL0     H85897   4.133   9.470   9.586 -2.0951 -0.2494  1.4185
  651MOL0     H85898   4.335   9.334   9.314 -0.0097 -0.9508 -0.9032
  651MOL0     H85899   4.188   9.380   9.385  0.4197 -0.6052 -3.7925
  651MOL0     H85900   4.131   9.206   9.268  0.0858 -0.3139  0.0185
  651MOL0     H85901   4.140   9.144   9.438  0.8413 -0.1808  1.4974
  651MOL0     H85902   4.385   9.071   9.381 -0.2821  1.7642 -0.5663
  651MOL0     H85903   4.328   9.089   9.213  1.0615  1.7137  0.3275
  651MOL0     H85904   4.210   8.918   9.442  1.6853 -3.8480  0.1517
  651MOL0     H85905   4.127   8.942   9.292  0.4346  1.3703 -0.6781
  651MOL0     H85906   4.389   8.789   9.350  1.9919  0.5867 -2.3953
  651MOL0     H85907   4.349   8.835   9.187 -0.0523 -0.2731  0.4441
  651MOL0     H85908   4.156   8.671   9.357 -0.5336 -1.4388 -0.5459
  651MOL0     H85909   4.284   8.600   9.268 -0.9880  1.1512  2.3418
  651MOL0     H85910   4.144   8.752   9.074  3.8595 -2.1909  0.2985
  651MOL0     H85911   4.136   8.583   9.084  0.5763 -1.5837  3.8218
  651MOL0     H85912   3.901   8.675   9.091 -3.0143 -2.8536 -0.1836
  651MOL0     H85913   3.951   8.773   9.223 -1.2129  0.3102 -2.1964
  651MOL0     H85914   4.410   9.163   9.709 -1.1797 -0.3086 -2.9029
  651MOL0     H85915   4.322   9.208   9.961  0.7417  2.3516  1.0616
  651MOL0     H85916   3.887   9.580  10.228 -1.1214 -2.4591 -3.2263
  651MOL0     H85917   3.849   9.584  10.482  0.1291 -0.3366 -1.0245
  651MOL0     H85918   4.266   9.880  11.347  2.8915  1.5296 -2.0964
  651MOL0     H85919   4.211  10.115  11.426 -1.8768  2.9938 -0.3940
  651MOL0     H85920   3.904  10.629  11.230  0.1476  0.7464 -0.0719
  651MOL0     H85921   3.884  10.828  11.380 -3.2004 -0.7847 -0.3089
  651MOL0     H85922   4.040  11.030  11.668  4.5296  2.0684 -0.4821
  651MOL0     H85923   4.080  10.945  11.505  1.5970 -1.2339  0.4302
  651MOL0     H85924   4.186  10.846  11.772  3.0597 -0.3813  0.4267
  651MOL0     H85925   4.226  10.806  11.600 -0.1937  0.7370 -0.1938
  651MOL0     H85926   4.294  11.068  11.735 -2.3851  2.2183 -2.2898
  651MOL0     H85927   4.276  11.052  11.559  1.0980  1.1148 -0.3228
  651MOL0     H85928   4.451  10.934  11.524  1.5456  2.0090  0.1736
  651MOL0     H85929   4.500  11.061  11.643 -1.6509  0.5992  4.3923
  651MOL0     H85930   4.657  10.803  11.877  1.6548  1.6184 -0.3841
  651MOL0     H85931   4.036  10.586  11.710 -0.7353  1.6287  0.6376
  651MOL0     H85932   4.033  10.390  11.568  1.9483  0.7640  0.7120
  652MOL0     O85933   2.140   7.596   1.138 -0.3934 -0.3127  0.0764
  652MOL0     C85934   2.074   7.505   1.190 -0.8960 -0.2733  0.9110
  652MOL0     O85935   1.941   7.505   1.226 -0.3336  0.2660  0.3638
  652MOL0     C85936   1.857   7.602   1.197  0.4380 -0.6869  0.7763
  652MOL0     C85937   1.821   7.632   1.065  0.6916  0.2560 -0.2536
  652MOL0     C85938   1.730   7.730   1.028 -0.0020 -0.7357  0.7435
  652MOL0     C85939   1.671   7.800   1.133  0.1375 -0.1348  0.5669
  652MOL0     O85940   1.570   7.886   1.119  0.0334  0.3297 -0.5371
  652MOL0     C85941   1.510   7.904   0.992 -0.2502  0.2893  0.4174
  652MOL0     C85942   1.400   7.800   0.963 -0.1576  0.4179  0.2171
  652MOL0     C85943   1.321   7.781   1.095 -0.1675  0.1627 -0.3860
  652MOL0     C85944   1.189   7.708   1.057  0.7716  0.1479 -0.5185
  652MOL0     C85945   1.095   7.689   1.172  1.0751  0.6579  0.7342
  652MOL0     C85946   1.003   7.562   1.175 -0.7788 -0.0938  0.4819
  652MOL0     C85947   0.859   7.609   1.222 -0.0077  0.2253 -0.3864
  652MOL0     C85948   0.767   7.484   1.226  0.0431  0.3195  0.1004
  652MOL0     N85949   0.625   7.509   1.261 -0.3781 -0.0139 -0.3655
  652MOL0     C85950   0.591   7.548   1.390  0.2487 -0.4371  0.1231
  652MOL0     C85951   0.454   7.564   1.384  0.3924 -0.6425  0.0567
  652MOL0     C85952   0.370   7.619   1.499 -0.0874  0.1947 -0.3589
  652MOL0     C85953   0.341   7.493   1.589 -0.0895  0.1080  0.7404
  652MOL0     C85954   0.243   7.377   1.530 -0.9405  0.0324  0.1085
  652MOL0     C85955   0.293   7.233   1.554 -0.5961 -0.5293 -0.4917
  652MOL0     O85956   0.200   7.126   1.522 -0.0683 -0.1080 -0.5169
  652MOL0     C85957   0.193   7.093   1.390 -0.2202 -1.1142  0.6403
  652MOL0     C85958   0.259   7.153   1.281 -0.0097 -0.7030  0.2010
  652MOL0     C85959   0.216   7.137   1.152  0.8444  0.2836 -0.6197
  652MOL0     C85960   0.105   7.063   1.132  0.1040 -0.0444 -0.4714
  652MOL0     C85961   0.048   7.053   0.997 -0.3595 -0.3275  0.7781
  652MOL0     O85962  -0.074   6.975   1.006 -1.0205 -0.2091  0.5147
  652MOL0     C85963  -0.161   6.981   0.898  0.8828  0.2676 -0.1531
  652MOL0     C85964  -0.213   6.866   0.853  0.0068  0.3273 -0.0018
  652MOL0     C85965  -0.313   6.857   0.756 -0.5168  0.7549  0.4257
  652MOL0     C85966  -0.367   6.965   0.682 -0.9854  0.3052 -0.2677
  652MOL0     O85967  -0.459   6.968   0.581 -0.4949  0.3091 -0.6944
  652MOL0     C85968  -0.575   7.032   0.625  0.4710 -0.2456  0.2441
  652MOL0     C85969  -0.676   7.056   0.513 -0.3313  0.4402  0.4848
  652MOL0     C85970  -0.688   6.938   0.430 -1.1582  0.6579  1.2219
  652MOL0     C85971  -0.825   6.919   0.366 -0.3081 -0.2470 -0.2012
  652MOL0     C85972  -0.934   6.852   0.434  1.1727 -0.3493 -0.0391
  652MOL0     C85973  -0.904   6.708   0.482  0.1375  0.5744  1.2166
  652MOL0     C85974  -0.859   6.620   0.370 -0.1805  1.1805 -0.1552
  652MOL0     C85975  -0.715   6.583   0.363 -0.0433  0.2538  0.2537
  652MOL0    Cl85976  -0.675   6.492   0.209 -0.1966 -0.2956 -0.4172
  652MOL0     C85977  -0.294   7.081   0.713  0.1705 -0.6624  0.1208
  652MOL0     C85978  -0.205   7.095   0.826  0.4424  0.0189  0.1669
  652MOL0     O85979   0.106   7.099   0.890 -0.1316  0.6140 -0.2044
  652MOL0     C85980   0.045   6.995   1.239  0.0999 -1.1604  0.1095
  652MOL0     C85981   0.085   7.008   1.368 -0.4337 -0.2898 -0.6998
  652MOL0     N85982   0.412   7.546   1.255  0.5689  0.1560  0.0122
  652MOL0     N85983   0.514   7.508   1.182 -0.3080 -0.0569 -0.6149
  652MOL0     C85984   1.716   7.784   1.264  0.8489  0.4535 -0.0733
  652MOL0     C85985   1.803   7.682   1.300  0.2604 -0.2935  0.3949
  652MOL0     C85986   2.144   7.377   1.215  0.8664 -0.2925  0.1833
  652MOL0     C85987   2.279   7.359   1.170  0.0953  0.0525  0.3204
  652MOL0     C85988   2.340   7.234   1.190  0.3567  0.6886  1.2168
  652MOL0     C85989   2.283   7.132   1.263 -0.1859  0.6322 -0.4238
  652MOL0     O85990   2.338   7.011   1.273 -0.0106  0.7958  0.7844
  652MOL0     C85991   2.432   6.971   1.162 -0.3084 -0.3811 -0.4007
  652MOL0     C85992   2.483   6.829   1.187  0.4203 -0.0465  0.2322
  652MOL0     C85993   2.614   6.808   1.104  0.8858  0.5665 -0.4071
  652MOL0     C85994   2.686   6.675   1.117  0.3196 -0.5233  0.2091
  652MOL0     C85995   2.751   6.678   1.241 -0.7060 -0.7699 -0.9578
  652MOL0     C85996   2.824   6.665   1.338  1.3384  0.0132 -0.1820
  652MOL0     C85997   2.151   7.150   1.295 -0.6443  0.1678  0.5537
  652MOL0     C85998   2.080   7.265   1.271 -0.1170  0.1171  1.2558
  652MOL0     H85999   1.851   7.555   0.995 -0.5513  0.7217 -1.3448
  652MOL0     H86000   1.696   7.755   0.928  1.4143  0.3411  0.4874
  652MOL0     H86001   1.584   7.913   0.912 -0.2626  0.5878  0.4379
  652MOL0     H86002   1.454   7.997   0.985  1.7277  1.4712 -0.5490
  652MOL0     H86003   1.421   7.703   0.918 -0.1175  0.9616 -1.0020
  652MOL0     H86004   1.338   7.848   0.887  0.1782  0.0399 -0.3004
  652MOL0     H86005   1.303   7.869   1.158  0.7244 -1.4378  2.3093
  652MOL0     H86006   1.378   7.714   1.161 -0.2927 -0.6965 -1.1320
  652MOL0     H86007   1.140   7.774   0.984  3.1226  0.9917 -1.4399
  652MOL0     H86008   1.214   7.615   1.006  3.3022  1.3680 -1.6942
  652MOL0     H86009   1.024   7.772   1.162  1.1320  0.8797  2.0090
  652MOL0     H86010   1.144   7.697   1.269 -0.2039 -0.6846  1.5480
  652MOL0     H86011   1.055   7.485   1.232  3.1556  1.8020 -0.2310
  652MOL0     H86012   0.987   7.516   1.077 -0.1913 -1.9859  1.2404
  652MOL0     H86013   0.852   7.652   1.322  1.2617 -1.0360  0.2830
  652MOL0     H86014   0.822   7.678   1.146 -1.7832  1.2684  1.3190
  652MOL0     H86015   0.815   7.420   1.300  0.4369 -0.0199 -0.4417
  652MOL0     H86016   0.760   7.430   1.131  0.2791 -3.1292  1.8785
  652MOL0     H86017   0.649   7.553   1.481  0.5477  0.4308 -0.1066
  652MOL0     H86018   0.294   7.674   1.442  2.1552  2.2815 -1.5411
  652MOL0     H86019   0.436   7.685   1.556  0.0576  0.1994 -0.5329
  652MOL0     H86020   0.294   7.528   1.682 -1.5223  0.2459 -0.0022
  652MOL0     H86021   0.439   7.449   1.610 -0.2280  0.1766  1.5526
  652MOL0     H86022   0.151   7.391   1.587 -2.2017 -2.7417 -1.0625
  652MOL0     H86023   0.231   7.401   1.424 -0.0640  2.8716  0.5487
  652MOL0     H86024   0.312   7.221   1.661 -0.7461 -1.4825 -0.5670
  652MOL0     H86025   0.391   7.232   1.505 -1.3198  2.9895 -2.3375
  652MOL0     H86026   0.346   7.217   1.274 -1.3565  1.0625 -1.7838
  652MOL0     H86027   0.253   7.190   1.065 -0.3563 -0.0731 -1.3716
  652MOL0     H86028  -0.181   6.775   0.904 -2.2130  0.7551  2.3395
  652MOL0     H86029  -0.366   6.762   0.751 -1.9919  1.4880  1.2727
  652MOL0     H86030  -0.552   7.131   0.667  0.5596  0.0857 -0.5660
  652MOL0     H86031  -0.624   6.978   0.706 -1.5854  2.4727  0.9669
  652MOL0     H86032  -0.631   7.135   0.451  0.5727 -1.7931 -1.9085
  652MOL0     H86033  -0.775   7.084   0.550  0.9584  2.1753  2.9076
  652MOL0     H86034  -0.665   6.848   0.488 -0.8106  1.4910  2.4064
  652MOL0     H86035  -0.612   6.938   0.351  0.7862 -0.9613  2.9709
  652MOL0     H86036  -0.868   7.016   0.341 -1.0768  0.1132  2.1978
  652MOL0     H86037  -0.801   6.860   0.278  0.1211  1.9009 -1.5915
  652MOL0     H86038  -1.015   6.846   0.361  1.5029  0.1799 -0.4564
  652MOL0     H86039  -0.971   6.912   0.519 -2.3134 -1.1081 -0.8754
  652MOL0     H86040  -0.991   6.660   0.529  1.4105 -0.8335  2.2091
  652MOL0     H86041  -0.831   6.706   0.564  0.8113 -1.2437  0.6090
  652MOL0     H86042  -0.919   6.529   0.379 -1.2141  1.7121 -1.3532
  652MOL0     H86043  -0.880   6.663   0.271  0.9975 -0.9998 -1.4178
  652MOL0     H86044  -0.695   6.505   0.437  1.0906 -3.0507 -3.1863
  652MOL0     H86045  -0.639   6.662   0.363 -0.8785  1.0803 -0.5242
  652MOL0     H86046  -0.324   7.175   0.666 -0.2458  0.7378  2.9517
  652MOL0     H86047  -0.182   7.194   0.865 -1.4206  0.7170 -0.4149
  652MOL0     H86048  -0.047   6.940   1.227  0.7746 -2.7416  1.7974
  652MOL0     H86049   0.027   6.959   1.445 -0.2664 -0.3771 -0.6280
  652MOL0     H86050   1.665   7.835   1.345  0.8732  0.0791  0.1808
  652MOL0     H86051   1.836   7.669   1.402  3.3592  0.5090 -0.4019
  652MOL0     H86052   2.325   7.452   1.139 -2.1281  0.6571 -1.4359
  652MOL0     H86053   2.447   7.248   1.175  0.4914  1.7971  2.9979
  652MOL0     H86054   2.512   7.043   1.182 -0.2766 -0.3120 -0.7562
  652MOL0     H86055   2.386   6.992   1.065  0.3750 -0.8473 -0.8326
  652MOL0     H86056   2.493   6.816   1.295  2.8738 -2.5085 -0.1769
  652MOL0     H86057   2.407   6.759   1.149  1.7356 -1.8587  0.7909
  652MOL0     H86058   2.687   6.889   1.095  0.7424  0.6609 -0.7427
  652MOL0     H86059   2.570   6.816   1.004 -0.4453 -1.2644 -0.0110
  652MOL0     H86060   2.615   6.595   1.094 -1.0833  1.3474 -2.5735
  652MOL0     H86061   2.765   6.671   1.042  1.3681 -2.8695  1.3267
  652MOL0     H86062   2.881   6.659   1.429  1.6057  2.6273 -0.0851
  652MOL0     H86063   2.103   7.072   1.354  0.9979 -0.3245  1.2818
  652MOL0     H86064   1.974   7.285   1.287 -0.6910 -0.0472 -1.7162
  653MOL0     O86065   3.118   7.961   6.162  0.0398  0.0117  0.6784
  653MOL0     C86066   3.000   7.965   6.195 -0.0604  0.3928 -0.4597
  653MOL0     O86067   2.910   8.065   6.178  0.1280  0.0886 -0.3270
  653MOL0     C86068   2.948   8.184   6.111 -0.1083  0.9468 -0.2693
  653MOL0     C86069   2.929   8.304   6.179  1.0041 -0.1311 -0.2644
  653MOL0     C86070   2.925   8.427   6.102  0.4280  0.9706 -1.3495
  653MOL0     C86071   2.959   8.417   5.967 -0.0546 -1.9275  0.1214
  653MOL0     O86072   2.959   8.537   5.892  0.8439 -0.7736  0.3151
  653MOL0     C86073   3.048   8.646   5.933 -0.6932  0.2411 -0.5276
  653MOL0     C86074   3.196   8.600   5.922 -0.0657 -0.2599  0.4230
  653MOL0     C86075   3.308   8.713   5.940  0.2343  0.4609 -1.3678
  653MOL0     C86076   3.265   8.792   6.063 -0.4742 -0.7771  0.7253
  653MOL0     C86077   3.369   8.882   6.145  0.3324  0.5581  0.5802
  653MOL0     C86078   3.474   8.798   6.227  0.3983  0.2588 -0.3897
  653MOL0     C86079   3.593   8.885   6.249  0.2658 -0.6388  0.9963
  653MOL0     C86080   3.568   9.017   6.335 -1.2884 -1.4992  0.4487
  653MOL0     N86081   3.517   8.990   6.476 -0.5387 -0.2635 -0.1899
  653MOL0     C86082   3.592   8.906   6.564  0.0876 -0.1144  0.4300
  653MOL0     C86083   3.511   8.896   6.676 -0.3633 -0.6586  1.0281
  653MOL0     C86084   3.532   8.815   6.799  0.3206 -0.2799  0.0363
  653MOL0     C86085   3.544   8.672   6.758  0.0228  0.3972  1.0233
  653MOL0     C86086   3.681   8.607   6.809  0.2884  0.7551 -0.7692
  653MOL0     C86087   3.703   8.476   6.739  0.1856  0.3671 -0.2277
  653MOL0     O86088   3.796   8.395   6.827 -0.2117  0.5673  1.2386
  653MOL0     C86089   3.857   8.278   6.774  0.2589  0.0828  0.4118
  653MOL0     C86090   3.947   8.214   6.857  0.1068  0.6344 -0.4835
  653MOL0     C86091   4.008   8.099   6.813  0.1781 -1.0858 -0.8668
  653MOL0     C86092   3.989   8.051   6.686 -0.4535  0.2606  0.1025
  653MOL0     C86093   4.060   7.938   6.640 -1.0707 -0.2154  0.8103
  653MOL0     O86094   4.191   7.935   6.688  0.1120 -0.1307  0.4147
  653MOL0     C86095   4.270   7.817   6.676 -0.0658  1.2140 -0.2599
  653MOL0     C86096   4.268   7.729   6.564 -0.2136  0.1627 -0.3866
  653MOL0     C86097   4.372   7.629   6.556 -0.2403 -0.4710  0.3003
  653MOL0     C86098   4.483   7.625   6.645  0.1349 -0.0637 -0.3493
  653MOL0     O86099   4.586   7.537   6.646  0.3946  0.9847  0.2298
  653MOL0     C86100   4.546   7.400   6.624 -0.1227  0.0565  0.3041
  653MOL0     C86101   4.611   7.343   6.498  0.3048 -0.8084  0.8560
  653MOL0     C86102   4.640   7.191   6.502 -1.0072  0.2140 -0.3453
  653MOL0     C86103   4.707   7.140   6.375 -0.8742  0.0814  0.0399
  653MOL0     C86104   4.769   7.000   6.403  0.3768 -1.4543  0.2687
  653MOL0     C86105   4.803   6.932   6.269  0.8437 -0.6003  0.3065
  653MOL0     C86106   4.936   6.970   6.219  0.1934  0.1537  0.4569
  653MOL0     C86107   4.967   6.883   6.092  0.0459 -0.8380 -0.0040
  653MOL0    Cl86108   4.912   6.942   5.931 -0.4647 -0.3483 -0.3378
  653MOL0     C86109   4.486   7.725   6.743 -0.3529 -0.5417  0.3642
  653MOL0     C86110   4.382   7.813   6.762  0.3561  0.5712  0.0700
  653MOL0     O86111   4.012   7.849   6.567  0.1058 -0.5689 -0.3722
  653MOL0     C86112   3.892   8.109   6.603  0.5042  0.1023 -0.9291
  653MOL0     C86113   3.825   8.222   6.653 -0.1905 -0.3236  0.6864
  653MOL0     N86114   3.404   8.981   6.654  0.0689 -0.6164 -0.5432
  653MOL0     N86115   3.404   9.031   6.537 -0.1417  0.2043  0.2121
  653MOL0     C86116   2.987   8.298   5.905 -0.3213  0.1605 -0.7846
  653MOL0     C86117   2.979   8.179   5.979  0.8322  0.3109  0.6247
  653MOL0     C86118   2.959   7.839   6.257  0.1008  0.1034 -0.1179
  653MOL0     C86119   3.043   7.730   6.290  0.5088  0.6722  0.4683
  653MOL0     C86120   2.993   7.604   6.322  0.1254  0.5216  0.6587
  653MOL0     C86121   2.853   7.585   6.347 -0.8551 -0.4700 -0.5708
  653MOL0     O86122   2.820   7.465   6.395 -0.1092  0.8773  0.0948
  653MOL0     C86123   2.687   7.438   6.446  0.1956  0.4627  0.7111
  653MOL0     C86124   2.679   7.316   6.533 -0.4080 -0.6003  0.7089
  653MOL0     C86125   2.712   7.355   6.678  0.5921 -0.4157  0.8228
  653MOL0     C86126   2.855   7.418   6.704  0.2024 -0.5231  0.3553
  653MOL0     C86127   2.898   7.399   6.845  0.3820  0.4663  0.3456
  653MOL0     C86128   2.934   7.367   6.960 -0.2207 -0.2117  0.5870
  653MOL0     C86129   2.766   7.693   6.320  0.1573 -0.0150 -0.6836
  653MOL0     C86130   2.823   7.810   6.274 -0.5767 -0.0511  0.2102
  653MOL0     H86131   2.885   8.297   6.278  0.2705 -4.7266 -0.6619
  653MOL0     H86132   2.882   8.517   6.145  0.4321  0.6646 -0.6788
  653MOL0     H86133   3.023   8.672   6.036 -0.0083  1.5490 -0.6592
  653MOL0     H86134   3.031   8.732   5.866 -2.5304 -1.4309 -2.3607
  653MOL0     H86135   3.226   8.561   5.824  0.8389  0.2341  0.4862
  653MOL0     H86136   3.221   8.518   5.990  1.3168  1.1703  1.7404
  653MOL0     H86137   3.319   8.770   5.847  1.5650 -0.2973 -1.7113
  653MOL0     H86138   3.402   8.658   5.952  0.5264  1.2235  0.0670
  653MOL0     H86139   3.191   8.864   6.027  1.6751  1.2975  0.1352
  653MOL0     H86140   3.236   8.721   6.141 -0.3287 -2.2170 -0.4873
  653MOL0     H86141   3.313   8.952   6.208  3.1894  2.4626  1.2369
  653MOL0     H86142   3.415   8.955   6.078 -1.7882  2.4294  1.0229
  653MOL0     H86143   3.509   8.714   6.166 -0.3055  1.8453 -3.1457
  653MOL0     H86144   3.438   8.766   6.326  1.6071  0.3330  0.1003
  653MOL0     H86145   3.672   8.830   6.302 -0.1723 -0.4863  1.8301
  653MOL0     H86146   3.636   8.908   6.151 -4.2233  0.9121 -0.8487
  653MOL0     H86147   3.497   9.073   6.274 -1.3034 -2.6408 -0.6104
  653MOL0     H86148   3.659   9.075   6.351 -0.4161 -2.4189 -0.9605
  653MOL0     H86149   3.692   8.866   6.565  0.3026  0.4146  0.8322
  653MOL0     H86150   3.448   8.833   6.866 -2.9461  0.5339 -3.8795
  653MOL0     H86151   3.620   8.849   6.854  0.4560  2.1247 -1.4915
  653MOL0     H86152   3.531   8.642   6.654  1.4843  0.6951  0.7312
  653MOL0     H86153   3.457   8.631   6.811  0.3999 -0.9835  0.6346
  653MOL0     H86154   3.767   8.672   6.791 -0.8152  1.5025 -4.1074
  653MOL0     H86155   3.678   8.586   6.916  2.1619  0.5588 -0.7238
  653MOL0     H86156   3.760   8.486   6.647 -0.1762  2.1430 -0.2995
  653MOL0     H86157   3.609   8.420   6.736  1.1456 -1.4926  1.4167
  653MOL0     H86158   3.971   8.250   6.957 -1.2230 -0.9980  0.4882
  653MOL0     H86159   4.073   8.060   6.891 -0.5065  1.4558  1.1306
  653MOL0     H86160   4.184   7.732   6.495 -1.8388  1.0540  1.5456
  653MOL0     H86161   4.375   7.553   6.478  2.6484  0.0943 -0.2621
  653MOL0     H86162   4.437   7.389   6.619 -0.0273 -0.4970 -0.8523
  653MOL0     H86163   4.591   7.346   6.708  2.4642  1.0968 -0.3240
  653MOL0     H86164   4.699   7.405   6.482  0.6265 -1.7670 -1.3559
  653MOL0     H86165   4.539   7.363   6.419 -0.7279 -0.4026  1.8670
  653MOL0     H86166   4.552   7.129   6.520 -1.6675  1.1322 -0.3714
  653MOL0     H86167   4.703   7.164   6.588  1.2395  1.1366 -1.6313
  653MOL0     H86168   4.628   7.132   6.300 -4.5380 -0.0488  3.5341
  653MOL0     H86169   4.789   7.204   6.342  0.7759 -1.5728  0.7539
  653MOL0     H86170   4.709   6.933   6.466 -0.4608 -1.8054 -0.8661
  653MOL0     H86171   4.866   7.008   6.453  0.2394  1.9854  0.2583
  653MOL0     H86172   4.728   6.964   6.195  0.5931 -0.4855  0.6095
  653MOL0     H86173   4.798   6.824   6.287 -0.4004 -0.2746  2.2060
  653MOL0     H86174   4.926   7.075   6.190 -0.8683  0.2549  1.1364
  653MOL0     H86175   5.007   6.961   6.302 -1.5762  0.9076  2.1413
  653MOL0     H86176   4.932   6.780   6.107  0.0713 -1.0428 -1.2474
  653MOL0     H86177   5.076   6.879   6.083  0.3743  0.8458  2.2538
  653MOL0     H86178   4.578   7.730   6.801 -0.1080 -1.5629  0.0831
  653MOL0     H86179   4.384   7.894   6.834 -1.8239 -0.8555  1.8713
  653MOL0     H86180   3.857   8.068   6.509 -1.9059 -1.1396  0.4074
  653MOL0     H86181   3.752   8.275   6.593  1.3596  1.5314  0.3309
  653MOL0     H86182   3.012   8.286   5.800  4.7930  1.9332 -0.0335
  653MOL0     H86183   2.975   8.083   5.930 -2.9241  0.0445  1.1541
  653MOL0     H86184   3.150   7.741   6.275  0.4421 -0.2258 -0.8770
  653MOL0     H86185   3.061   7.522   6.344 -0.8726 -0.5757 -0.2420
  653MOL0     H86186   2.610   7.425   6.369  0.6957 -1.5634  0.4724
  653MOL0     H86187   2.658   7.524   6.507  0.2446  1.5390 -0.7387
  653MOL0     H86188   2.576   7.281   6.534 -0.1001 -1.5134  0.7380
  653MOL0     H86189   2.744   7.234   6.503 -1.4030 -0.6082 -1.6555
  653MOL0     H86190   2.711   7.262   6.735 -0.2773  0.1809  1.8083
  653MOL0     H86191   2.643   7.422   6.730 -2.2655 -2.1735 -0.4334
  653MOL0     H86192   2.928   7.368   6.640  0.1406  0.1658 -0.2613
  653MOL0     H86193   2.851   7.526   6.691 -2.1734 -0.8138 -2.3585
  653MOL0     H86194   2.977   7.326   7.049  1.8562  2.5068  0.9783
  653MOL0     H86195   2.657   7.687   6.324  0.1516  0.7051  1.9309
  653MOL0     H86196   2.763   7.898   6.249  0.1969 -0.1333 -2.2622
  654MOL0     O86197   0.317   4.600   0.920  0.2404  0.2879 -0.1851
  654MOL0     C86198   0.425   4.550   0.891 -0.0161 -0.1997 -0.5347
  654MOL0     O86199   0.483   4.448   0.950  0.2572  0.1810  0.4177
  654MOL0     C86200   0.432   4.413   1.068 -0.0587  1.0950  0.3074
  654MOL0     C86201   0.457   4.474   1.185 -0.1071 -0.1145  0.3423
  654MOL0     C86202   0.407   4.435   1.309 -1.0657  0.4832 -0.6999
  654MOL0     C86203   0.329   4.317   1.314  0.6759  0.2319  0.2717
  654MOL0     O86204   0.277   4.259   1.427  0.7976  0.2557 -1.0181
  654MOL0     C86205   0.254   4.343   1.536  0.2284 -0.2053 -0.1424
  654MOL0     C86206   0.187   4.266   1.651 -0.0557  0.3708  0.5118
  654MOL0     C86207   0.158   4.354   1.772 -1.2921 -0.2293  0.9905
  654MOL0     C86208   0.161   4.278   1.897  0.8622 -0.6201 -0.3424
  654MOL0     C86209   0.147   4.368   2.025  0.1686  0.1754 -0.6136
  654MOL0     C86210   0.013   4.341   2.099 -0.6587 -0.0204  0.0777
  654MOL0     C86211  -0.016   4.439   2.213 -0.3304  0.7796  0.1133
  654MOL0     C86212  -0.130   4.400   2.297  0.0552 -0.2641 -0.1045
  654MOL0     N86213  -0.266   4.428   2.238 -0.4299  0.2778 -0.5906
  654MOL0     C86214  -0.333   4.343   2.148  0.2581  0.2061  0.7658
  654MOL0     C86215  -0.451   4.420   2.117 -0.1227 -0.0567 -0.5528
  654MOL0     C86216  -0.571   4.369   2.038 -0.0046  0.0159  0.0455
  654MOL0     C86217  -0.652   4.274   2.115  0.5812 -0.1425 -0.8393
  654MOL0     C86218  -0.712   4.326   2.250  0.8898 -0.6131 -0.4552
  654MOL0     C86219  -0.768   4.196   2.324  0.1565 -0.1473 -0.3858
  654MOL0     O86220  -0.847   4.109   2.244 -0.5093  0.3452 -0.0230
  654MOL0     C86221  -0.980   4.134   2.236  1.2359  0.3267 -0.3224
  654MOL0     C86222  -1.048   4.237   2.291  0.5703  0.4130 -0.3293
  654MOL0     C86223  -1.189   4.245   2.289  0.3490 -0.5664 -0.4059
  654MOL0     C86224  -1.266   4.151   2.232 -0.2508  0.3350  1.0702
  654MOL0     C86225  -1.414   4.143   2.235 -0.1583 -0.2041 -0.2556
  654MOL0     O86226  -1.485   4.236   2.311 -0.3733 -0.3252  0.9124
  654MOL0     C86227  -1.617   4.232   2.305  0.1651 -0.7318  0.4874
  654MOL0     C86228  -1.690   4.209   2.418  0.9132 -0.2646 -1.1590
  654MOL0     C86229  -1.828   4.232   2.425 -0.3800  0.5606  0.6810
  654MOL0     C86230  -1.900   4.267   2.303 -1.3232  0.4629  0.1608
  654MOL0     O86231  -2.037   4.275   2.311 -0.0644 -0.2275  0.4834
  654MOL0     C86232  -2.113   4.339   2.202 -0.3020  1.4648 -0.6945
  654MOL0     C86233  -2.251   4.360   2.259 -0.7119  0.2991 -0.6489
  654MOL0     C86234  -2.333   4.242   2.308 -0.2954  0.6232  0.8375
  654MOL0     C86235  -2.325   4.121   2.201  0.1345  0.5406  0.4472
  654MOL0     C86236  -2.389   3.998   2.260 -0.3505  0.1310 -0.1103
  654MOL0     C86237  -2.542   3.998   2.264 -0.8138 -0.0692  0.3765
  654MOL0     C86238  -2.593   3.870   2.328  0.5329  0.0514  0.6185
  654MOL0     C86239  -2.741   3.827   2.304  0.6509  1.1991  0.2044
  654MOL0    Cl86240  -2.773   3.740   2.451  0.0831  0.6124  0.2766
  654MOL0     C86241  -1.822   4.289   2.184  0.0025  0.9036 -0.2394
  654MOL0     C86242  -1.682   4.270   2.186 -0.3765 -0.9338 -0.6205
  654MOL0     O86243  -1.464   4.056   2.163  0.0966 -0.1044 -0.0764
  654MOL0     C86244  -1.195   4.042   2.176  0.1890  0.8759 -0.8264
  654MOL0     C86245  -1.056   4.033   2.173 -0.0691 -0.0621  0.4124
  654MOL0     N86246  -0.434   4.543   2.178  0.1138 -0.5519 -0.5205
  654MOL0     N86247  -0.325   4.552   2.245  0.0617  0.7885  0.7498
  654MOL0     C86248   0.298   4.252   1.186 -0.3214 -0.8593 -0.5422
  654MOL0     C86249   0.357   4.293   1.069  0.2418 -0.0242 -0.5804
  654MOL0     C86250   0.490   4.592   0.771 -1.3645 -0.3690  0.9359
  654MOL0     C86251   0.609   4.520   0.726  0.9037  0.1936  0.5605
  654MOL0     C86252   0.655   4.540   0.595  0.2550 -0.1719  0.1127
  654MOL0     C86253   0.594   4.636   0.506  0.1455  0.9403 -0.3921
  654MOL0     O86254   0.650   4.650   0.379 -0.7470 -0.5944  0.5690
  654MOL0     C86255   0.676   4.789   0.332 -0.0830  0.5491  0.6113
  654MOL0     C86256   0.793   4.868   0.399 -0.0214 -0.1003  1.1707
  654MOL0     C86257   0.929   4.783   0.395  0.1550 -1.0501 -0.3571
  654MOL0     C86258   0.969   4.732   0.253  0.0915  0.1496 -0.0704
  654MOL0     C86259   1.102   4.674   0.253 -0.0131 -0.7366  0.9074
  654MOL0     C86260   1.221   4.653   0.237 -1.0648  0.2600  0.0827
  654MOL0     C86261   0.486   4.715   0.552 -0.3004  0.6836  0.0407
  654MOL0     C86262   0.437   4.692   0.681  0.1478  0.2649  0.0708
  654MOL0     H86263   0.521   4.561   1.175 -0.3676 -0.1171 -2.1180
  654MOL0     H86264   0.431   4.494   1.397  0.9807  1.4034 -1.7824
  654MOL0     H86265   0.184   4.425   1.517  1.1759  1.0660  1.5429
  654MOL0     H86266   0.344   4.390   1.578 -0.6950  2.2421 -0.7546
  654MOL0     H86267   0.248   4.180   1.682  0.2441  1.1937  2.2696
  654MOL0     H86268   0.092   4.226   1.615  1.1280 -1.2413 -1.0159
  654MOL0     H86269   0.067   4.412   1.754 -0.5384  0.1085 -2.5926
  654MOL0     H86270   0.234   4.433   1.775  0.5556 -1.8729 -0.0121
  654MOL0     H86271   0.075   4.211   1.884  1.3136 -1.1646 -0.5383
  654MOL0     H86272   0.247   4.211   1.906  0.8658 -0.7249 -1.1215
  654MOL0     H86273   0.159   4.474   2.003  0.5634  0.1874 -0.3669
  654MOL0     H86274   0.232   4.339   2.089  2.2183  2.2421 -2.2098
  654MOL0     H86275   0.014   4.239   2.137 -0.8488 -0.2741 -0.5782
  654MOL0     H86276  -0.066   4.340   2.023  1.0348  0.6087 -1.8047
  654MOL0     H86277   0.071   4.449   2.280  1.0285  1.1470 -1.6483
  654MOL0     H86278  -0.027   4.534   2.161  1.0060  0.1214 -1.4409
  654MOL0     H86279  -0.126   4.463   2.386  4.5392  4.1564 -2.8929
  654MOL0     H86280  -0.125   4.294   2.324 -0.3003  0.7706  5.0434
  654MOL0     H86281  -0.307   4.244   2.110 -0.3058 -0.5458  2.2527
  654MOL0     H86282  -0.546   4.333   1.937 -1.0011 -0.8999  0.1116
  654MOL0     H86283  -0.637   4.454   2.021 -0.1787  0.1516  1.3033
  654MOL0     H86284  -0.587   4.187   2.120  0.0947 -0.5502 -1.5229
  654MOL0     H86285  -0.738   4.243   2.056 -0.7688  0.3954  0.7376
  654MOL0     H86286  -0.645   4.373   2.324 -2.9433  0.8131  2.4315
  654MOL0     H86287  -0.792   4.398   2.231 -1.7658 -2.7578  1.6947
  654MOL0     H86288  -0.826   4.230   2.411  1.1964  1.2732 -0.2058
  654MOL0     H86289  -0.682   4.143   2.365 -1.0881 -0.6508  1.7502
  654MOL0     H86290  -0.997   4.328   2.321 -1.3670  1.8453 -1.1319
  654MOL0     H86291  -1.237   4.321   2.351  0.2784 -0.6235 -0.3906
  654MOL0     H86292  -1.647   4.202   2.517 -2.6194  1.3028  0.6786
  654MOL0     H86293  -1.880   4.227   2.520  0.7237  1.9508  1.4033
  654MOL0     H86294  -2.125   4.277   2.113 -2.6940  0.0871  0.4944
  654MOL0     H86295  -2.069   4.436   2.176  0.3683  1.9956  2.0471
  654MOL0     H86296  -2.313   4.411   2.186 -0.7007  1.4631  0.1339
  654MOL0     H86297  -2.232   4.428   2.343 -0.9595 -0.0415 -0.3149
  654MOL0     H86298  -2.436   4.275   2.321 -0.9991 -0.3081 -1.7161
  654MOL0     H86299  -2.300   4.209   2.407 -0.3334 -3.5933 -0.3454
  654MOL0     H86300  -2.353   4.160   2.103 -2.7493 -0.9003  0.5904
  654MOL0     H86301  -2.218   4.103   2.193 -0.3093 -3.2283  1.0371
  654MOL0     H86302  -2.353   3.982   2.363 -1.1036 -2.9581 -0.2250
  654MOL0     H86303  -2.367   3.907   2.202 -0.1155  0.4503 -0.5253
  654MOL0     H86304  -2.583   4.007   2.162  0.1164  0.7249  0.0556
  654MOL0     H86305  -2.577   4.083   2.322 -1.1232 -0.2032  0.3888
  654MOL0     H86306  -2.526   3.792   2.290 -0.3220  0.7913 -2.7765
  654MOL0     H86307  -2.572   3.879   2.435  0.2637  2.7619  0.5167
  654MOL0     H86308  -2.738   3.770   2.211  3.7398 -0.6540  1.3125
  654MOL0     H86309  -2.811   3.911   2.293 -1.0270 -0.2276 -0.4921
  654MOL0     H86310  -1.873   4.303   2.089 -0.8457 -1.0608 -0.1216
  654MOL0     H86311  -1.625   4.273   2.094  1.3275 -0.1424  0.4131
  654MOL0     H86312  -1.240   3.955   2.129  0.3910  0.1011  0.3765
  654MOL0     H86313  -1.003   3.954   2.120 -0.2483 -0.2145  0.4602
  654MOL0     H86314   0.259   4.151   1.175  5.2735 -3.6395  1.0275
  654MOL0     H86315   0.354   4.243   0.973  2.2036  0.0065 -0.6822
  654MOL0     H86316   0.663   4.446   0.784 -4.8695 -3.2779  2.3226
  654MOL0     H86317   0.744   4.486   0.566  1.5326 -0.6540  4.3619
  654MOL0     H86318   0.587   4.852   0.343  1.3356  2.5902  1.1298
  654MOL0     H86319   0.709   4.776   0.228  1.5827  1.9989  0.9110
  654MOL0     H86320   0.811   4.963   0.349  1.4690 -1.0751 -0.2473
  654MOL0     H86321   0.763   4.901   0.498 -0.5233  1.6579  0.4781
  654MOL0     H86322   0.917   4.697   0.462  0.8178 -0.7491  0.1620
  654MOL0     H86323   1.006   4.852   0.429 -0.5112 -0.6375  0.3337
  654MOL0     H86324   0.913   4.641   0.227  0.4329 -0.2017  0.4060
  654MOL0     H86325   0.967   4.800   0.167  1.7666  0.1404 -0.1451
  654MOL0     H86326   1.327   4.639   0.229 -1.1923  0.2576 -2.3822
  654MOL0     H86327   0.438   4.796   0.498 -1.5495  1.9946  2.9386
  654MOL0     H86328   0.348   4.739   0.722 -1.2457 -1.6349 -0.6404
  655MOL0     O86329   7.828   8.473   7.409  0.5754  0.6180 -0.4224
  655MOL0     C86330   7.772   8.459   7.301 -0.4044 -0.4524  0.5003
  655MOL0     O86331   7.814   8.518   7.185 -0.0972  0.1475  0.4561
  655MOL0     C86332   7.942   8.563   7.164 -0.5211  1.6828 -0.6370
  655MOL0     C86333   8.055   8.526   7.232  0.2187 -0.4483 -0.6133
  655MOL0     C86334   8.173   8.597   7.225  0.3045  0.2021 -0.5520
  655MOL0     C86335   8.182   8.698   7.128  0.2248  0.2685 -0.1810
  655MOL0     O86336   8.295   8.764   7.099 -0.3233 -0.3976  0.0696
  655MOL0     C86337   8.413   8.767   7.169  0.0051 -0.4890 -0.6171
  655MOL0     C86338   8.519   8.834   7.084 -0.0316 -0.3588 -0.3728
  655MOL0     C86339   8.479   8.971   7.023  0.3635  0.5196  0.0445
  655MOL0     C86340   8.472   9.086   7.125 -0.1416 -0.7229  0.0099
  655MOL0     C86341   8.461   9.226   7.063  0.3064  1.5180  0.1952
  655MOL0     C86342   8.445   9.310   7.188  0.3421  0.0735 -0.4664
  655MOL0     C86343   8.495   9.452   7.158  0.1968 -0.5643 -0.7804
  655MOL0     C86344   8.460   9.563   7.257 -0.5932  0.2215 -0.2195
  655MOL0     N86345   8.408   9.687   7.195 -0.5906  0.4605 -0.3938
  655MOL0     C86346   8.298   9.702   7.118  0.6443  0.0656 -0.6201
  655MOL0     C86347   8.310   9.835   7.074 -0.3510  0.4170  0.5859
  655MOL0     C86348   8.207   9.904   7.002  0.2623 -1.5848  0.3402
  655MOL0     C86349   8.141   9.817   6.894 -0.1216 -0.4175 -0.5019
  655MOL0     C86350   8.048   9.898   6.796 -0.8424 -0.6241 -0.1432
  655MOL0     C86351   7.926   9.949   6.880 -0.0666 -0.7491 -0.3060
  655MOL0     O86352   7.798   9.964   6.817 -0.0444 -0.0790  0.2240
  655MOL0     C86353   7.793   9.995   6.684 -0.4596  0.7114 -0.3639
  655MOL0     C86354   7.865  10.091   6.614 -0.1748  0.1393  1.1879
  655MOL0     C86355   7.836  10.131   6.482  0.3851 -0.4203  0.1855
  655MOL0     C86356   7.730  10.074   6.409  0.0202 -0.6709 -0.9122
  655MOL0     C86357   7.699  10.114   6.268 -0.1518 -0.1098 -0.0651
  655MOL0     O86358   7.593  10.058   6.201  0.1361 -0.7447  0.4059
  655MOL0     C86359   7.574  10.092   6.070  0.1738  0.2683  0.1801
  655MOL0     C86360   7.540  10.215   6.022 -0.2267 -0.1758 -0.0641
  655MOL0     C86361   7.518  10.240   5.887 -0.6673  0.7846 -0.1924
  655MOL0     C86362   7.549  10.135   5.792  0.1335 -0.4339 -0.3091
  655MOL0     O86363   7.521  10.139   5.657  0.4175  0.6699  0.3376
  655MOL0     C86364   7.510  10.265   5.581 -0.3597  0.0352 -0.1458
  655MOL0     C86365   7.562  10.248   5.438 -1.5741  0.0631 -1.1297
  655MOL0     C86366   7.710  10.258   5.434 -0.5710 -0.4484  0.1573
  655MOL0     C86367   7.749  10.239   5.288 -0.8417 -0.6609  0.4052
  655MOL0     C86368   7.889  10.289   5.247 -0.2738 -0.0542 -0.7405
  655MOL0     C86369   7.931  10.239   5.112 -0.3339 -0.3278 -0.0533
  655MOL0     C86370   7.842  10.288   4.989  0.1135 -0.0684  0.3362
  655MOL0     C86371   7.898  10.276   4.846  0.4768  0.0839  0.3274
  655MOL0    Cl86372   7.908  10.125   4.772  0.4573  0.5144  0.1178
  655MOL0     C86373   7.559   9.999   5.834 -0.0280 -0.9063  0.4819
  655MOL0     C86374   7.585   9.979   5.972 -0.0797  0.7306 -1.5409
  655MOL0     O86375   7.779  10.195   6.220  0.4426 -0.1818  0.2867
  655MOL0     C86376   7.650   9.979   6.481  0.5537  1.0815 -0.1692
  655MOL0     C86377   7.680   9.942   6.614 -0.4630 -0.5257  0.2840
  655MOL0     N86378   8.416   9.896   7.132 -0.2714 -0.2081 -0.0246
  655MOL0     N86379   8.483   9.804   7.194  0.1324 -0.9596  0.2597
  655MOL0     C86380   8.079   8.737   7.052 -0.1107 -0.9962 -0.4111
  655MOL0     C86381   7.954   8.677   7.079  0.1178  0.5680  0.4167
  655MOL0     C86382   7.639   8.402   7.293  0.3633 -0.0267  0.9163
  655MOL0     C86383   7.594   8.323   7.399  0.8710  0.2481  0.9252
  655MOL0     C86384   7.466   8.251   7.390 -0.0657  0.7353 -0.4147
  655MOL0     C86385   7.378   8.270   7.283  0.2963  0.1771 -0.9788
  655MOL0     O86386   7.250   8.220   7.278 -0.2254 -0.5326  0.0899
  655MOL0     C86387   7.216   8.093   7.341  0.1089  0.6040  0.3373
  655MOL0     C86388   7.145   8.108   7.476 -0.4625 -0.9004 -0.9780
  655MOL0     C86389   6.988   8.147   7.458 -0.4003 -0.6948 -0.1954
  655MOL0     C86390   6.985   8.288   7.434 -0.7141 -1.3215  1.2654
  655MOL0     C86391   6.892   8.317   7.322  0.6887 -1.1648  1.0919
  655MOL0     C86392   6.812   8.326   7.233 -0.4432 -0.6629 -0.1273
  655MOL0     C86393   7.427   8.353   7.188 -0.4712  0.8144  1.0318
  655MOL0     C86394   7.547   8.424   7.188 -0.6060 -1.0173  0.2092
  655MOL0     H86395   8.035   8.451   7.309  1.0809 -1.3644 -1.2582
  655MOL0     H86396   8.258   8.574   7.289  0.9125  2.1239 -0.5968
  655MOL0     H86397   8.437   8.663   7.188 -2.0527 -0.6496  1.6904
  655MOL0     H86398   8.397   8.818   7.265  1.1604 -2.4723  0.7035
  655MOL0     H86399   8.550   8.760   7.009 -2.6240 -0.0174 -1.8828
  655MOL0     H86400   8.610   8.847   7.143  1.8229 -3.8834 -2.1291
  655MOL0     H86401   8.402   8.962   6.946  0.6486  0.1179 -0.1947
  655MOL0     H86402   8.565   8.996   6.960 -1.1288  0.2777 -2.1756
  655MOL0     H86403   8.376   9.082   7.177 -1.3248  2.8939 -1.5383
  655MOL0     H86404   8.548   9.077   7.203 -1.5169 -0.5687  1.4298
  655MOL0     H86405   8.376   9.235   6.996 -0.6329 -1.0775  0.9073
  655MOL0     H86406   8.541   9.248   6.993 -0.8064 -1.3822 -2.2359
  655MOL0     H86407   8.512   9.286   7.271  0.5049  1.3479 -0.2105
  655MOL0     H86408   8.341   9.327   7.217  0.6174 -0.7236  1.0619
  655MOL0     H86409   8.604   9.460   7.151  0.3510 -0.8803  0.8328
  655MOL0     H86410   8.456   9.489   7.063 -0.5147  3.6958  0.9391
  655MOL0     H86411   8.551   9.586   7.312  0.2378 -0.0528 -1.4415
  655MOL0     H86412   8.384   9.519   7.323  0.1301 -0.2246  0.3352
  655MOL0     H86413   8.235   9.620   7.084  2.3450 -0.1065 -3.6531
  655MOL0     H86414   8.256   9.985   6.947  0.1490 -2.0671 -0.4900
  655MOL0     H86415   8.132   9.943   7.071 -0.2215  2.7029 -2.2084
  655MOL0     H86416   8.079   9.743   6.945 -0.2943 -0.2578 -0.4789
  655MOL0     H86417   8.213   9.758   6.837 -1.5773  0.4544 -3.4708
  655MOL0     H86418   8.103   9.975   6.742  0.2114  0.1405  1.9275
  655MOL0     H86419   8.007   9.821   6.729  0.6825 -1.9438  0.3875
  655MOL0     H86420   7.944  10.044   6.930 -2.1005 -0.9916  1.0369
  655MOL0     H86421   7.904   9.881   6.963 -1.6607 -2.9493 -2.3694
  655MOL0     H86422   7.925  10.157   6.677 -0.8136  0.3856  1.5473
  655MOL0     H86423   7.893  10.215   6.445  2.8065 -1.8536  0.4454
  655MOL0     H86424   7.524  10.288   6.101  0.6888 -1.5645  1.4622
  655MOL0     H86425   7.477  10.334   5.852  0.0231  0.6881 -1.3012
  655MOL0     H86426   7.571  10.347   5.621 -0.1466  0.0223 -0.4394
  655MOL0     H86427   7.405  10.298   5.579 -0.6457 -0.6285  1.7193
  655MOL0     H86428   7.519  10.325   5.374 -0.0263  0.7768 -1.3458
  655MOL0     H86429   7.527  10.150   5.403  1.0833 -0.5247 -2.3606
  655MOL0     H86430   7.775  10.206   5.505  1.1692  0.1151 -0.9768
  655MOL0     H86431   7.740  10.362   5.444 -0.8355  0.8092 -6.9695
  655MOL0     H86432   7.741  10.134   5.257  3.2856 -1.4252  1.3043
  655MOL0     H86433   7.682  10.295   5.222 -0.7287  0.1079  0.9409
  655MOL0     H86434   7.953  10.254   5.329  1.1628  1.4230 -1.1677
  655MOL0     H86435   7.893  10.398   5.241  0.7547 -0.0403 -0.0364
  655MOL0     H86436   7.922  10.131   5.120 -0.2654 -0.3069  0.2888
  655MOL0     H86437   8.034  10.270   5.092  0.4019 -3.0789 -0.9253
  655MOL0     H86438   7.754  10.222   4.997  2.9215 -3.9911  2.4396
  655MOL0     H86439   7.830  10.394   5.013  1.7181  0.3597 -0.6276
  655MOL0     H86440   7.993  10.330   4.839 -0.7824  2.4624  0.4752
  655MOL0     H86441   7.829  10.338   4.787 -1.9324 -1.7232  1.1044
  655MOL0     H86442   7.554   9.914   5.767 -1.6440  1.0210 -2.0464
  655MOL0     H86443   7.595   9.878   6.009 -1.3643  0.2209 -2.4950
  655MOL0     H86444   7.573   9.926   6.426  0.7929  1.4767 -0.8959
  655MOL0     H86445   7.619   9.871   6.669  0.1995 -0.6099  0.9171
  655MOL0     H86446   8.088   8.820   6.982 -0.0897 -1.0894 -0.5187
  655MOL0     H86447   7.864   8.709   7.028  0.0006 -1.2195 -0.5893
  655MOL0     H86448   7.651   8.303   7.489  0.2301 -1.2458  1.0304
  655MOL0     H86449   7.446   8.190   7.478  0.2709  3.9974  2.1407
  655MOL0     H86450   7.310   8.038   7.349 -0.2140  0.1635  1.2378
  655MOL0     H86451   7.158   8.034   7.270  0.5595 -0.9837  1.2478
  655MOL0     H86452   7.151   8.012   7.528 -2.6563 -1.0264 -0.8434
  655MOL0     H86453   7.202   8.171   7.544 -2.1647  0.3139 -0.5962
  655MOL0     H86454   6.940   8.132   7.556 -1.2793  1.5518 -0.2073
  655MOL0     H86455   6.939   8.077   7.390 -1.2439 -0.3778  0.0678
  655MOL0     H86456   6.942   8.351   7.513 -1.1607 -1.3925  1.0806
  655MOL0     H86457   7.086   8.331   7.432 -1.8764  2.2708  5.3473
  655MOL0     H86458   6.753   8.341   7.145  0.9647  1.6382 -0.7779
  655MOL0     H86459   7.357   8.376   7.108  2.3317  2.4907 -1.1203
  655MOL0     H86460   7.566   8.495   7.108  2.4349 -0.4670  1.2876
  656MOL0     O86461   5.676  10.152   4.110 -0.2479  0.1975 -0.3712
  656MOL0     C86462   5.693  10.143   3.983 -0.3829  0.4642 -1.0408
  656MOL0     O86463   5.810  10.164   3.923  0.0143 -0.2849 -0.2684
  656MOL0     C86464   5.909  10.206   4.008  0.1839  0.1940  0.2015
  656MOL0     C86465   5.963  10.339   3.991 -0.0688  0.6085 -0.3638
  656MOL0     C86466   6.084  10.365   4.052  0.7893  0.5594 -0.0825
  656MOL0     C86467   6.143  10.277   4.141 -0.8411 -0.3860 -0.2462
  656MOL0     O86468   6.273  10.298   4.201  0.1137 -0.3115 -0.4724
  656MOL0     C86469   6.355  10.407   4.148 -0.0228 -0.6978  0.9083
  656MOL0     C86470   6.482  10.408   4.242 -0.2272  0.7090  0.0284
  656MOL0     C86471   6.478  10.507   4.355 -0.8450 -0.6288 -0.0464
  656MOL0     C86472   6.619  10.514   4.414 -1.3313 -0.7900 -0.4889
  656MOL0     C86473   6.638  10.593   4.546  0.4127  0.0791 -0.2301
  656MOL0     C86474   6.592  10.749   4.531 -0.8503  0.0847 -0.0251
  656MOL0     C86475   6.652  10.837   4.635  0.0543 -0.5380 -0.5957
  656MOL0     C86476   6.582  10.800   4.773 -0.0532 -0.3522  0.5246
  656MOL0     N86477   6.666  10.872   4.877 -0.1665  0.0120  0.3872
  656MOL0     C86478   6.639  11.005   4.904  0.7503 -0.8426 -0.0612
  656MOL0     C86479   6.741  11.036   4.993  0.9126 -0.4962  0.2668
  656MOL0     C86480   6.764  11.175   5.049  0.2925  0.0121  0.2229
  656MOL0     C86481   6.892  11.240   4.987  0.4887 -0.7223  0.5371
  656MOL0     C86482   6.870  11.264   4.834 -0.8448  0.3776 -0.2346
  656MOL0     C86483   6.915  11.158   4.737 -0.0855  0.3746  0.4731
  656MOL0     O86484   6.924  11.211   4.604 -0.6074  0.2392 -0.0162
  656MOL0     C86485   7.017  11.302   4.564  0.7053  0.0971 -0.5179
  656MOL0     C86486   7.133  11.320   4.630 -0.3220 -0.0301 -0.7221
  656MOL0     C86487   7.223  11.413   4.583  0.1570  0.3297 -0.4075
  656MOL0     C86488   7.193  11.510   4.484 -0.5285  0.3604  1.1924
  656MOL0     C86489   7.276  11.632   4.469  1.2315  0.2368  0.0557
  656MOL0     O86490   7.253  11.700   4.354 -0.2085  0.4478 -0.7671
  656MOL0     C86491   7.347  11.786   4.314  0.0026 -0.4555 -0.2003
  656MOL0     C86492   7.312  11.906   4.249  0.6456 -0.2912 -0.3251
  656MOL0     C86493   7.407  11.982   4.188  1.4594 -0.1276 -0.0311
  656MOL0     C86494   7.547  11.950   4.191  0.3861 -0.1278 -0.4163
  656MOL0     O86495   7.653  12.003   4.127  0.3166 -1.2381 -0.0030
  656MOL0     C86496   7.616  12.109   4.036  1.1656  0.2981  0.4893
  656MOL0     C86497   7.736  12.185   3.975  0.3975 -0.3256 -0.2969
  656MOL0     C86498   7.823  12.101   3.897 -1.3096 -0.1319 -0.3614
  656MOL0     C86499   7.766  12.038   3.764  0.8689 -0.8497  0.1750
  656MOL0     C86500   7.865  11.954   3.687 -0.5625  0.0073 -0.4612
  656MOL0     C86501   7.808  11.875   3.569 -0.1485  0.3613 -0.4326
  656MOL0     C86502   7.718  11.962   3.474  1.1422  0.3320 -0.8048
  656MOL0     C86503   7.784  12.082   3.419 -0.1323 -0.8630  0.8461
  656MOL0    Cl86504   7.689  12.169   3.293  0.3480  0.1755  0.2855
  656MOL0     C86505   7.580  11.837   4.272 -0.1565 -0.5007 -0.2088
  656MOL0     C86506   7.481  11.759   4.319  0.8829 -0.4470 -0.3379
  656MOL0     O86507   7.365  11.655   4.556 -0.1554 -0.8671 -0.6216
  656MOL0     C86508   7.073  11.493   4.413  0.4559  0.3634  0.5191
  656MOL0     C86509   6.993  11.386   4.458 -0.2522 -0.2675  0.3887
  656MOL0     N86510   6.816  10.925   5.015 -0.2268  1.0241 -0.3974
  656MOL0     N86511   6.768  10.821   4.946 -0.5729 -0.2607 -0.4486
  656MOL0     C86512   6.085  10.150   4.159  0.0765 -0.3110 -0.3385
  656MOL0     C86513   5.970  10.110   4.089 -0.5869 -0.5498 -0.4800
  656MOL0     C86514   5.583  10.141   3.887  0.8080 -0.5992  1.0748
  656MOL0     C86515   5.590  10.068   3.766  0.7005 -0.4573 -0.1190
  656MOL0     C86516   5.488  10.069   3.674  0.8110  1.0412 -0.0400
  656MOL0     C86517   5.362  10.134   3.705  0.5170  0.4191 -0.3751
  656MOL0     O86518   5.253  10.123   3.626  0.8106 -0.4133  0.2634
  656MOL0     C86519   5.221   9.988   3.581 -0.2209  0.2721 -0.6811
  656MOL0     C86520   5.068   9.970   3.602 -0.2907 -0.0943 -0.1635
  656MOL0     C86521   4.994  10.052   3.493  0.3382  0.2563  0.3112
  656MOL0     C86522   4.849  10.091   3.512 -0.8545 -0.4691 -0.5797
  656MOL0     C86523   4.776   9.971   3.488  0.4420  0.7728 -0.4952
  656MOL0     C86524   4.697   9.875   3.474 -0.0646 -0.0855 -0.1356
  656MOL0     C86525   5.358  10.210   3.825  0.5631 -0.1078 -0.5282
  656MOL0     C86526   5.466  10.218   3.909 -0.0076 -0.0944  0.0683
  656MOL0     H86527   5.906  10.418   3.944 -1.0842  0.4712  0.6154
  656MOL0     H86528   6.106  10.471   4.047 -2.9871  1.4640 -0.3336
  656MOL0     H86529   6.307  10.504   4.135  1.7847 -0.1920 -6.6701
  656MOL0     H86530   6.393  10.377   4.050  2.9751 -0.3708  1.8695
  656MOL0     H86531   6.577  10.427   4.192 -0.2721  2.4736  0.5323
  656MOL0     H86532   6.491  10.310   4.289 -0.9288  0.6865  0.1285
  656MOL0     H86533   6.398  10.479   4.424 -3.3974 -0.5883 -2.7953
  656MOL0     H86534   6.450  10.608   4.323 -0.9447  0.8194  4.0083
  656MOL0     H86535   6.656  10.412   4.431  1.8235  0.5692  1.8272
  656MOL0     H86536   6.682  10.563   4.339 -3.1670 -2.3884 -3.2490
  656MOL0     H86537   6.742  10.579   4.576  0.0820  1.0391  1.4852
  656MOL0     H86538   6.575  10.545   4.622 -1.0165  2.7177  0.3937
  656MOL0     H86539   6.483  10.740   4.526 -0.9368 -0.2103  1.7925
  656MOL0     H86540   6.631  10.790   4.437 -1.4578  0.6293 -0.0461
  656MOL0     H86541   6.761  10.831   4.626 -0.0005 -1.6078 -0.6624
  656MOL0     H86542   6.627  10.943   4.624  0.5790  0.3352  4.2126
  656MOL0     H86543   6.576  10.692   4.787 -0.5500 -0.4419 -0.2752
  656MOL0     H86544   6.480  10.839   4.763  0.5853  0.8186 -3.2251
  656MOL0     H86545   6.559  11.067   4.866 -0.3652 -1.2774  1.4583
  656MOL0     H86546   6.800  11.163   5.151  0.9562 -1.1329 -0.1368
  656MOL0     H86547   6.676  11.240   5.048  1.8890  2.4103  2.5094
  656MOL0     H86548   6.973  11.167   4.996  3.0154  1.6207 -1.3958
  656MOL0     H86549   6.914  11.338   5.029 -3.0628  0.7817 -0.7432
  656MOL0     H86550   6.763  11.277   4.814 -1.4021  0.0369  2.1819
  656MOL0     H86551   6.930  11.350   4.804  0.7722 -2.0574 -4.9590
  656MOL0     H86552   6.856  11.067   4.746  2.5717 -1.2810  3.3377
  656MOL0     H86553   7.014  11.121   4.765  0.9520  2.2296 -0.5692
  656MOL0     H86554   7.161  11.272   4.723 -2.5424  0.8624  0.4999
  656MOL0     H86555   7.314  11.426   4.641 -0.3432  2.8006 -0.0738
  656MOL0     H86556   7.204  11.913   4.234  0.2514 -0.2356  2.0636
  656MOL0     H86557   7.371  12.068   4.131  0.7917 -0.8100 -0.6638
  656MOL0     H86558   7.553  12.188   4.079  0.6237 -0.2612  0.7307
  656MOL0     H86559   7.555  12.059   3.960 -0.3462  2.4736  0.1555
  656MOL0     H86560   7.790  12.233   4.057  0.3924 -1.4534  0.3859
  656MOL0     H86561   7.700  12.261   3.905  0.9851  0.1362 -0.1048
  656MOL0     H86562   7.853  12.015   3.958 -3.3663 -2.0931 -1.9253
  656MOL0     H86563   7.907  12.164   3.868 -1.5630 -0.0698 -0.9711
  656MOL0     H86564   7.680  11.975   3.789  1.0968 -2.1038 -1.9419
  656MOL0     H86565   7.741  12.127   3.705  0.3594 -0.6831  0.6378
  656MOL0     H86566   7.913  11.884   3.757 -2.0758  1.9800  2.7595
  656MOL0     H86567   7.948  12.008   3.640  2.3670 -2.1757  1.7640
  656MOL0     H86568   7.739  11.799   3.606  1.1798 -0.0470  1.3216
  656MOL0     H86569   7.888  11.830   3.510  1.3313  1.3714  0.7603
  656MOL0     H86570   7.691  11.905   3.384  3.2928 -2.2324  0.0519
  656MOL0     H86571   7.627  11.993   3.527 -0.8025 -5.9725  0.4990
  656MOL0     H86572   7.884  12.057   3.381  1.2774  2.2246  2.2042
  656MOL0     H86573   7.805  12.159   3.493  4.4221  2.0516 -2.9000
  656MOL0     H86574   7.683  11.805   4.285 -0.0086 -0.5057 -1.3062
  656MOL0     H86575   7.502  11.660   4.357 -3.0827 -1.8427 -1.2695
  656MOL0     H86576   7.049  11.554   4.327 -1.3615 -4.3043 -2.7157
  656MOL0     H86577   6.905  11.367   4.397 -3.4516  4.1963  3.0385
  656MOL0     H86578   6.131  10.075   4.224 -1.1532  0.2310  1.2352
  656MOL0     H86579   5.922  10.013   4.093 -0.5906 -0.6234 -1.8462
  656MOL0     H86580   5.679  10.010   3.744 -0.1806 -3.2014  2.8066
  656MOL0     H86581   5.473  10.004   3.588  0.1523  2.8479 -1.3548
  656MOL0     H86582   5.272   9.911   3.640  0.0487  1.2730  0.4513
  656MOL0     H86583   5.242   9.981   3.474 -0.0962 -0.4470 -0.6133
  656MOL0     H86584   5.021   9.871   3.604 -2.5617  0.8274 -2.4948
  656MOL0     H86585   5.029  10.015   3.694 -0.4699  2.8266 -1.5685
  656MOL0     H86586   5.011  10.001   3.397 -1.3209 -1.3167  0.8019
  656MOL0     H86587   5.048  10.147   3.493 -0.0767  0.4947  0.3421
  656MOL0     H86588   4.839  10.126   3.615 -1.9760  2.3312 -1.5347
  656MOL0     H86589   4.815  10.167   3.440 -1.1321  1.5283  1.5288
  656MOL0     H86590   4.642   9.787   3.448  2.4324 -1.6998 -0.4132
  656MOL0     H86591   5.274  10.275   3.847 -0.8834 -0.9732 -3.1284
  656MOL0     H86592   5.461  10.285   3.995  1.5116  0.3576 -0.1731
  657MOL0     O86593   6.717   1.810   0.113 -0.3547  0.0243 -1.0250
  657MOL0     C86594   6.617   1.796   0.042 -0.8374  0.2919 -0.4487
  657MOL0     O86595   6.570   1.885  -0.040 -0.2610 -0.2062 -0.0196
  657MOL0     C86596   6.640   2.002  -0.081  0.0678 -0.6193 -0.4126
  657MOL0     C86597   6.717   2.089   0.005 -0.1788 -0.4940  1.2583
  657MOL0     C86598   6.777   2.199  -0.051 -0.3763  0.1657 -0.0945
  657MOL0     C86599   6.743   2.250  -0.173 -1.3069  0.2010  0.1760
  657MOL0     O86600   6.818   2.348  -0.219 -0.1351 -0.3017 -0.0806
  657MOL0     C86601   6.856   2.341  -0.353 -0.1229 -0.3724  0.5413
  657MOL0     C86602   6.957   2.456  -0.384  0.2173  0.0467  0.0734
  657MOL0     C86603   6.911   2.596  -0.348 -0.0374 -0.3391 -0.5282
  657MOL0     C86604   7.029   2.696  -0.380 -0.0168 -0.5744  0.3607
  657MOL0     C86605   6.997   2.840  -0.327 -0.1173  0.6487 -0.2314
  657MOL0     C86606   6.970   2.852  -0.182 -0.1859 -0.0332 -0.2937
  657MOL0     C86607   7.021   3.002  -0.142 -0.9275 -0.0785  0.1872
  657MOL0     C86608   7.056   3.021   0.010 -0.4482  0.8043 -0.0109
  657MOL0     N86609   7.187   2.967   0.042 -0.8909 -1.0618  0.3837
  657MOL0     C86610   7.258   3.008   0.143  0.0333 -0.6624  0.5791
  657MOL0     C86611   7.369   2.934   0.143  0.0538 -0.4937 -0.4038
  657MOL0     C86612   7.471   2.931   0.242 -0.6813 -0.0734 -0.2762
  657MOL0     C86613   7.569   3.040   0.239  0.3476 -0.3669 -0.6801
  657MOL0     C86614   7.526   3.173   0.296  1.6911 -0.3373  0.2651
  657MOL0     C86615   7.643   3.265   0.311  0.0028  0.0790  0.3680
  657MOL0     O86616   7.704   3.302   0.183  0.7209 -0.3516  0.1926
  657MOL0     C86617   7.772   3.423   0.170  0.2725 -0.5474 -0.3255
  657MOL0     C86618   7.794   3.518   0.277 -0.8452 -0.5550  0.6243
  657MOL0     C86619   7.841   3.646   0.253  0.8489  1.0615 -0.4845
  657MOL0     C86620   7.871   3.687   0.120 -0.3377  0.3628  0.3793
  657MOL0     C86621   7.917   3.819   0.078 -0.8501 -0.0806 -0.2066
  657MOL0     O86622   7.970   3.893   0.182  0.0577 -0.7866 -0.0021
  657MOL0     C86623   7.989   4.036   0.166  0.6456  0.2048  0.6109
  657MOL0     C86624   7.930   4.115   0.059 -0.5476 -0.1028 -0.5960
  657MOL0     C86625   7.958   4.252   0.065  0.5473  0.3591  0.1863
  657MOL0     C86626   8.041   4.307   0.164 -0.5540  0.5496 -0.0428
  657MOL0     O86627   8.060   4.451   0.171 -0.1238 -0.3916  0.3922
  657MOL0     C86628   8.175   4.517   0.243 -0.2961  0.5982 -0.1255
  657MOL0     C86629   8.316   4.460   0.189  0.5643  0.3888  0.0575
  657MOL0     C86630   8.443   4.476   0.284 -0.0274 -0.3553  0.6627
  657MOL0     C86631   8.471   4.626   0.325 -0.3910  0.7581  0.2331
  657MOL0     C86632   8.619   4.644   0.347 -1.0276 -0.0028  0.1307
  657MOL0     C86633   8.656   4.785   0.365 -0.2519 -0.7810  0.2594
  657MOL0     C86634   8.789   4.805   0.286 -0.3804  0.5965  0.1941
  657MOL0     C86635   8.824   4.950   0.257  0.4053  0.6011  0.3391
  657MOL0    Cl86636   8.883   5.029   0.404 -0.4010  0.5494  0.0377
  657MOL0     C86637   8.090   4.223   0.261 -1.2775 -0.6959 -1.0299
  657MOL0     C86638   8.070   4.091   0.265  0.8959  0.1634 -0.7668
  657MOL0     O86639   7.911   3.852  -0.039 -0.8222 -0.4236  0.6445
  657MOL0     C86640   7.850   3.599   0.011 -0.4176 -0.6941 -0.2245
  657MOL0     C86641   7.800   3.471   0.037 -0.4798  0.9478 -0.8227
  657MOL0     N86642   7.355   2.836   0.041  0.3897  1.1923 -0.7308
  657MOL0     N86643   7.237   2.849  -0.004  0.3001 -0.3998  0.3466
  657MOL0     C86644   6.653   2.173  -0.251  0.3114  0.6370 -0.6721
  657MOL0     C86645   6.606   2.053  -0.196  0.4588  0.0552  0.8933
  657MOL0     C86646   6.543   1.665   0.052  0.3182  0.3580 -0.2766
  657MOL0     C86647   6.419   1.629  -0.001 -1.0159 -0.7031  0.2062
  657MOL0     C86648   6.364   1.499   0.006 -0.2288 -1.7434 -0.4421
  657MOL0     C86649   6.432   1.392   0.067 -0.5708 -0.6363 -0.9266
  657MOL0     O86650   6.378   1.265   0.070  0.5651 -0.3536  0.5762
  657MOL0     C86651   6.285   1.226  -0.038  0.5639  0.6713  0.5301
  657MOL0     C86652   6.159   1.197   0.039  0.1178 -0.6868  0.1168
  657MOL0     C86653   6.053   1.106  -0.048 -0.3361  0.8624 -0.2958
  657MOL0     C86654   6.010   1.167  -0.174  0.4752 -0.4940  0.5731
  657MOL0     C86655   6.105   1.175  -0.286 -0.6687  0.3838 -0.9275
  657MOL0     C86656   6.186   1.182  -0.376  0.0137 -0.5338 -0.4745
  657MOL0     C86657   6.558   1.424   0.125 -1.1813 -0.6601 -0.3666
  657MOL0     C86658   6.609   1.558   0.116 -0.3822  0.0654 -0.3194
  657MOL0     H86659   6.758   2.049   0.097 -0.9902 -1.4644  1.2236
  657MOL0     H86660   6.839   2.251   0.022  0.4402  0.6129 -1.0744
  657MOL0     H86661   6.768   2.368  -0.412 -1.3509 -1.8833  1.5924
  657MOL0     H86662   6.892   2.243  -0.386 -2.3871 -1.0310 -0.1190
  657MOL0     H86663   6.982   2.458  -0.490 -1.9832 -0.6898 -0.5243
  657MOL0     H86664   7.042   2.431  -0.319 -1.9577 -1.5034  2.5294
  657MOL0     H86665   6.879   2.597  -0.243  0.5088 -2.0433 -0.3256
  657MOL0     H86666   6.823   2.618  -0.409 -0.4301  0.4612  0.3031
  657MOL0     H86667   7.131   2.667  -0.352 -0.7567 -1.5795  2.1079
  657MOL0     H86668   7.037   2.699  -0.490 -0.8373 -0.3857  0.3069
  657MOL0     H86669   6.905   2.868  -0.378 -1.6623 -0.1369  1.9411
  657MOL0     H86670   7.078   2.900  -0.369 -0.9096  3.2605  1.6733
  657MOL0     H86671   7.029   2.775  -0.131 -3.2952 -0.9124  2.3053
  657MOL0     H86672   6.867   2.843  -0.147 -0.6478  0.9671 -1.3265
  657MOL0     H86673   7.109   3.029  -0.200  0.1201 -2.4003  0.5591
  657MOL0     H86674   6.936   3.067  -0.163 -2.2783 -1.4270  1.2524
  657MOL0     H86675   7.001   2.950   0.073  0.9071 -0.7893 -0.5608
  657MOL0     H86676   7.022   3.124   0.027  0.1983  0.5249  3.8817
  657MOL0     H86677   7.242   3.094   0.208 -1.4423 -1.8481  1.8714
  657MOL0     H86678   7.529   2.840   0.226 -0.8566 -0.0548 -1.0600
  657MOL0     H86679   7.417   2.941   0.337 -1.2274  1.1123 -0.6971
  657MOL0     H86680   7.622   3.058   0.145  2.2809  2.2510  0.7899
  657MOL0     H86681   7.646   3.012   0.312  2.9367 -0.5376 -3.2663
  657MOL0     H86682   7.453   3.228   0.236  2.4687  1.4649  0.9036
  657MOL0     H86683   7.480   3.153   0.393  2.1760  1.3990  0.8801
  657MOL0     H86684   7.725   3.230   0.373 -0.1472 -0.4854  0.2543
  657MOL0     H86685   7.607   3.356   0.360  1.4756  1.5453 -1.1375
  657MOL0     H86686   7.770   3.494   0.380  0.9966 -3.8295  0.4396
  657MOL0     H86687   7.856   3.711   0.339 -0.3114 -0.4396  0.9023
  657MOL0     H86688   7.857   4.076  -0.012 -2.0787  4.1489 -1.6764
  657MOL0     H86689   7.918   4.314  -0.014  0.5862  0.4487  0.2364
  657MOL0     H86690   8.182   4.496   0.350  2.9298  2.1708  0.0826
  657MOL0     H86691   8.175   4.626   0.233  1.9816  0.4874 -2.3777
  657MOL0     H86692   8.316   4.507   0.090 -2.6778 -0.6204 -0.5509
  657MOL0     H86693   8.302   4.357   0.154 -3.3469  0.0766  2.0071
  657MOL0     H86694   8.517   4.424   0.222 -0.5750 -0.7033  0.2832
  657MOL0     H86695   8.439   4.414   0.374 -1.9850  1.5206  1.9703
  657MOL0     H86696   8.442   4.693   0.244  0.2413 -2.2695 -2.6700
  657MOL0     H86697   8.433   4.649   0.425  3.4067  0.9371  1.8005
  657MOL0     H86698   8.668   4.606   0.257  1.7647  0.5916  1.2854
  657MOL0     H86699   8.654   4.583   0.431 -0.2957 -0.4069 -0.4626
  657MOL0     H86700   8.678   4.799   0.471  1.7620  0.5694 -0.2826
  657MOL0     H86701   8.579   4.857   0.337  1.1430  0.6619  0.0368
  657MOL0     H86702   8.866   4.755   0.346  1.0005  0.6324 -1.4820
  657MOL0     H86703   8.786   4.756   0.189  2.2434 -0.1587  0.4084
  657MOL0     H86704   8.733   5.001   0.223  0.8839  4.5947  4.1880
  657MOL0     H86705   8.904   4.949   0.182  0.2526 -1.5424  0.1506
  657MOL0     H86706   8.148   4.261   0.345 -2.3225  0.4365 -0.7819
  657MOL0     H86707   8.100   4.037   0.354  1.1776  1.0044 -0.3389
  657MOL0     H86708   7.862   3.630  -0.092  0.8805 -2.9428 -0.8022
  657MOL0     H86709   7.763   3.397  -0.034  1.0154 -0.2069 -0.4358
  657MOL0     H86710   6.618   2.224  -0.340  1.4975  1.1384 -0.8756
  657MOL0     H86711   6.535   2.018  -0.271  1.3916  0.8182 -0.3853
  657MOL0     H86712   6.370   1.703  -0.063 -1.6782  0.3527  1.9160
  657MOL0     H86713   6.260   1.492  -0.024 -1.1198  1.7311  1.3645
  657MOL0     H86714   6.319   1.133  -0.084 -0.6721 -0.2288  1.3902
  657MOL0     H86715   6.262   1.299  -0.116 -1.3822 -0.5786 -0.1170
  657MOL0     H86716   6.191   1.139   0.125 -2.8462 -0.9949  1.1495
  657MOL0     H86717   6.118   1.290   0.079  1.5492  0.0401 -0.0458
  657MOL0     H86718   5.960   1.107   0.009 -1.3452 -2.0704 -1.7045
  657MOL0     H86719   6.082   1.003  -0.071  0.6377  1.0814 -0.0980
  657MOL0     H86720   5.933   1.098  -0.210  0.7238 -1.1211  1.2444
  657MOL0     H86721   5.971   1.267  -0.153 -0.2794 -0.9176  1.2312
  657MOL0     H86722   6.253   1.206  -0.455 -1.9685  1.0574 -1.7816
  657MOL0     H86723   6.627   1.352   0.168  1.2459  1.2737 -0.7903
  657MOL0     H86724   6.711   1.576   0.147 -1.0716  1.3247  1.3822
  658MOL0     O86725  10.946   8.563   5.189  0.1472  0.9038  0.5249
  658MOL0     C86726  11.012   8.578   5.294 -0.0052  0.5884  0.8490
  658MOL0     O86727  11.146   8.598   5.304  0.4107  0.7651  1.4337
  658MOL0     C86728  11.215   8.574   5.185 -0.1671  0.8735 -0.8264
  658MOL0     C86729  11.227   8.434   5.151  0.0282 -0.5867 -0.1803
  658MOL0     C86730  11.281   8.393   5.032  0.4112 -0.0782  0.0208
  658MOL0     C86731  11.319   8.492   4.936 -0.0188 -0.8290  0.9084
  658MOL0     O86732  11.376   8.461   4.818 -0.8566 -0.0263 -0.5872
  658MOL0     C86733  11.319   8.519   4.700  1.2644 -0.5296 -0.5773
  658MOL0     C86734  11.418   8.594   4.612 -0.6272 -0.0146  0.0767
  658MOL0     C86735  11.499   8.709   4.674  0.4041 -1.1147 -0.7209
  658MOL0     C86736  11.596   8.756   4.556  0.2500  1.2509 -0.7594
  658MOL0     C86737  11.684   8.882   4.594  0.3499 -0.1474 -0.0682
  658MOL0     C86738  11.784   8.851   4.704 -0.5867  0.6232  0.2225
  658MOL0     C86739  11.877   8.959   4.738  0.2401  0.1418 -0.7377
  658MOL0     C86740  11.963   9.024   4.628  0.6104 -0.2512 -0.0529
  658MOL0     N86741  12.066   9.112   4.694 -0.1958 -0.7425  0.6764
  658MOL0     C86742  12.055   9.240   4.721  0.7444 -0.2651 -0.1359
  658MOL0     C86743  12.182   9.286   4.756  1.1008  0.5670 -0.4070
  658MOL0     C86744  12.227   9.416   4.815 -0.2110  0.1760 -0.4633
  658MOL0     C86745  12.374   9.452   4.785  0.2472 -0.5419  0.7943
  658MOL0     C86746  12.409   9.604   4.786 -0.5749  0.9746  0.1235
  658MOL0     C86747  12.522   9.627   4.690  0.1887  0.4708 -0.3542
  658MOL0     O86748  12.627   9.547   4.748  0.6078 -0.4006  0.3074
  658MOL0     C86749  12.754   9.582   4.706  0.0262 -0.4997 -0.3638
  658MOL0     C86750  12.852   9.506   4.767  0.0331 -0.5666 -0.0257
  658MOL0     C86751  12.987   9.523   4.733 -0.0842  0.6215  0.6047
  658MOL0     C86752  13.033   9.604   4.626  0.6576 -0.3953 -0.1091
  658MOL0     C86753  13.171   9.614   4.586  0.1364 -0.2325 -0.0612
  658MOL0     O86754  13.267   9.558   4.666  0.7383 -0.7117 -0.9074
  658MOL0     C86755  13.400   9.590   4.647 -0.7685  0.6146  0.6054
  658MOL0     C86756  13.495   9.493   4.614 -0.2323 -0.2585  0.3375
  658MOL0     C86757  13.630   9.532   4.606 -1.1675  1.4470 -0.6598
  658MOL0     C86758  13.675   9.664   4.613  0.0684  0.5274  0.3681
  658MOL0     O86759  13.801   9.702   4.570  0.9031 -0.6439  1.3012
  658MOL0     C86760  13.898   9.612   4.639 -1.4015 -0.3235  0.4786
  658MOL0     C86761  14.034   9.678   4.612  0.4397  1.4321 -0.0973
  658MOL0     C86762  14.139   9.573   4.636 -0.2658  0.2241  0.4030
  658MOL0     C86763  14.287   9.615   4.606 -0.1772  0.0724 -0.0649
  658MOL0     C86764  14.392   9.545   4.689  0.5550  1.0763  0.0884
  658MOL0     C86765  14.468   9.643   4.771  0.3047 -0.0045  0.1620
  658MOL0     C86766  14.550   9.578   4.881 -0.9722 -0.3286  0.0141
  658MOL0     C86767  14.692   9.542   4.830 -0.2828  0.2604 -0.9845
  658MOL0    Cl86768  14.699   9.468   4.661  0.1522 -0.1415 -0.4387
  658MOL0     C86769  13.579   9.756   4.645 -0.6858 -0.8112  0.0885
  658MOL0     C86770  13.449   9.718   4.669  0.8878 -0.4561  0.1119
  658MOL0     O86771  13.198   9.679   4.489  0.3598  0.5261 -0.8790
  658MOL0     C86772  12.936   9.679   4.565  1.5280  0.2039 -0.3700
  658MOL0     C86773  12.793   9.666   4.600 -0.2252  0.1101  0.7580
  658MOL0     N86774  12.264   9.176   4.749  0.1025 -0.0554  0.1075
  658MOL0     N86775  12.196   9.075   4.708 -0.8855  0.6983 -0.8962
  658MOL0     C86776  11.298   8.631   4.971 -0.0404  0.0491  0.3855
  658MOL0     C86777  11.251   8.670   5.091 -0.6740 -0.4369 -1.2237
  658MOL0     C86778  10.928   8.610   5.417 -0.4729  0.0574  0.4201
  658MOL0     C86779  10.784   8.614   5.407 -0.5389  0.2161 -0.1661
  658MOL0     C86780  10.711   8.670   5.510  0.4522  0.6343  0.1388
  658MOL0     C86781  10.772   8.723   5.620 -0.1766 -0.0132 -0.2076
  658MOL0     O86782  10.693   8.763   5.724 -1.0053  0.7879  0.0075
  658MOL0     C86783  10.744   8.821   5.846  0.2985 -0.0108 -0.3225
  658MOL0     C86784  10.808   8.957   5.819  0.3044 -0.3710  0.4394
  658MOL0     C86785  10.908   8.981   5.932  0.2545 -0.5114 -0.7257
  658MOL0     C86786  10.971   9.122   5.912  0.7193 -0.5671  0.0385
  658MOL0     C86787  11.037   9.189   6.027 -1.3730  0.7872  0.0424
  658MOL0     C86788  11.103   9.223   6.124 -0.0493 -0.5520  0.8206
  658MOL0     C86789  10.912   8.702   5.644  0.6751 -0.8028  0.9122
  658MOL0     C86790  10.993   8.644   5.537  0.6597 -0.2473  0.0322
  658MOL0     H86791  11.189   8.362   5.222  0.0739 -1.5630 -1.1118
  658MOL0     H86792  11.302   8.287   5.023 -3.0512 -1.1869  2.6369
  658MOL0     H86793  11.243   8.590   4.733  2.2595  0.3633 -0.1682
  658MOL0     H86794  11.272   8.433   4.651  0.5190 -2.0503  2.5378
  658MOL0     H86795  11.364   8.650   4.535  2.6621  0.8721 -1.7541
  658MOL0     H86796  11.479   8.519   4.561 -0.5295  1.9332 -2.9347
  658MOL0     H86797  11.555   8.673   4.761 -2.4036  1.6582  2.5306
  658MOL0     H86798  11.424   8.782   4.708  0.2542 -1.1444 -0.9894
  658MOL0     H86799  11.652   8.667   4.525 -1.3657 -0.5290  1.0809
  658MOL0     H86800  11.542   8.786   4.466 -1.3208 -2.5157 -1.2611
  658MOL0     H86801  11.608   8.953   4.626 -1.7904 -2.7145  0.9800
  658MOL0     H86802  11.746   8.917   4.511 -1.2028  1.8462 -0.4596
  658MOL0     H86803  11.842   8.767   4.664 -0.1465  0.2051  1.6690
  658MOL0     H86804  11.722   8.820   4.788 -0.0963 -2.3768 -0.3940
  658MOL0     H86805  11.823   9.042   4.785 -0.2795  0.2094 -1.4425
  658MOL0     H86806  11.940   8.911   4.814 -1.0619  0.0973  0.3534
  658MOL0     H86807  11.903   9.080   4.555  1.0162 -0.3509 -0.4636
  658MOL0     H86808  12.010   8.940   4.578 -0.5235 -2.1937  1.9683
  658MOL0     H86809  11.965   9.301   4.720 -0.5884 -2.1036  1.6265
  658MOL0     H86810  12.209   9.406   4.923 -0.4188  0.5425 -0.4631
  658MOL0     H86811  12.160   9.491   4.773  2.2316  1.8462 -1.5879
  658MOL0     H86812  12.384   9.412   4.684  0.2334  0.0927  0.5408
  658MOL0     H86813  12.449   9.404   4.849  1.2203  0.0004  0.0892
  658MOL0     H86814  12.327   9.666   4.750 -1.2770 -0.2662 -0.5066
  658MOL0     H86815  12.432   9.625   4.890 -0.9159 -1.7674  0.8155
  658MOL0     H86816  12.538   9.734   4.679  2.1035 -0.0070 -3.2251
  658MOL0     H86817  12.492   9.593   4.590  1.7387 -2.0649 -0.0442
  658MOL0     H86818  12.820   9.446   4.851  0.5389 -0.1615  0.4589
  658MOL0     H86819  13.062   9.465   4.787  2.5442  1.4449 -1.9090
  658MOL0     H86820  13.459   9.391   4.610  0.1828 -0.3706 -2.1130
  658MOL0     H86821  13.688   9.443   4.586 -0.1206  0.9436  3.5420
  658MOL0     H86822  13.894   9.509   4.602 -3.5383 -0.2880  0.4619
  658MOL0     H86823  13.891   9.608   4.748  3.9988  1.3144  1.1936
  658MOL0     H86824  14.058   9.757   4.684 -0.1256  2.0737 -0.5948
  658MOL0     H86825  14.056   9.709   4.510  1.6178 -1.0644 -0.6764
  658MOL0     H86826  14.107   9.489   4.575 -1.6655 -2.2461  4.1877
  658MOL0     H86827  14.142   9.537   4.739  3.1503  2.8597  1.4665
  658MOL0     H86828  14.315   9.598   4.502  2.1681 -0.4731  0.5852
  658MOL0     H86829  14.288   9.723   4.619 -3.2942  0.5718 -2.6378
  658MOL0     H86830  14.453   9.481   4.624 -2.7758  1.5872 -3.8950
  658MOL0     H86831  14.344   9.477   4.760  2.3300  0.9733  1.2758
  658MOL0     H86832  14.405   9.722   4.812  0.2052  1.4430 -2.5231
  658MOL0     H86833  14.539   9.703   4.713 -1.4014  0.9908 -0.9911
  658MOL0     H86834  14.555   9.647   4.966  2.6777  1.2582 -1.2627
  658MOL0     H86835  14.499   9.490   4.921  1.4995 -1.6553  0.4341
  658MOL0     H86836  14.746   9.490   4.910 -0.5390  1.3667 -0.0701
  658MOL0     H86837  14.757   9.630   4.829  0.6808 -0.4398 -1.3931
  658MOL0     H86838  13.611   9.860   4.647  0.7734 -1.1987 -1.0761
  658MOL0     H86839  13.371   9.786   4.701 -1.4864 -2.2883 -1.4561
  658MOL0     H86840  12.958   9.756   4.492  3.7337 -0.0199  0.0090
  658MOL0     H86841  12.710   9.728   4.567 -3.3391 -4.0107  0.0492
  658MOL0     H86842  11.338   8.706   4.902 -1.7857 -0.3691 -1.1562
  658MOL0     H86843  11.253   8.770   5.133  0.5490 -0.6351 -0.7646
  658MOL0     H86844  10.736   8.565   5.322 -1.1790 -2.4383  1.5740
  658MOL0     H86845  10.604   8.676   5.493 -0.0813 -2.9602  1.4760
  658MOL0     H86846  10.816   8.753   5.892 -0.1113  0.2993  0.8223
  658MOL0     H86847  10.650   8.818   5.902  0.1237 -1.9898 -0.6652
  658MOL0     H86848  10.864   8.962   5.725  0.0080  1.8147  0.3388
  658MOL0     H86849  10.736   9.037   5.805 -0.7274 -1.2993  0.3013
  658MOL0     H86850  10.976   8.897   5.951  0.7143  0.1272  0.5511
  658MOL0     H86851  10.840   8.972   6.016 -2.1401  0.6364 -2.4116
  658MOL0     H86852  11.046   9.131   5.833  2.7120  3.9044  2.1048
  658MOL0     H86853  10.888   9.188   5.886  0.6218 -1.0697 -0.9949
  658MOL0     H86854  11.149   9.267   6.210  0.6930  2.4411 -0.9612
  658MOL0     H86855  10.960   8.749   5.729  0.5695 -0.0101  0.5377
  658MOL0     H86856  11.101   8.643   5.546  0.5654 -0.3090  1.2435
  659MOL0     O86857   8.662   2.952   6.071 -0.7165 -0.4781  0.5881
  659MOL0     C86858   8.722   2.960   6.182  0.1940 -0.0135  0.9678
  659MOL0     O86859   8.667   2.915   6.302  0.0515  0.2949  0.6623
  659MOL0     C86860   8.549   2.840   6.300 -0.9147 -0.0401  0.1342
  659MOL0     C86861   8.440   2.871   6.229  0.4857  0.3538  0.9680
  659MOL0     C86862   8.331   2.787   6.219  0.0378  0.5900 -0.5118
  659MOL0     C86863   8.320   2.676   6.307  0.8346 -0.7647  0.5359
  659MOL0     O86864   8.211   2.603   6.318  1.0056  0.2728  0.1460
  659MOL0     C86865   8.082   2.660   6.278  0.4326 -0.3234 -0.5393
  659MOL0     C86866   7.964   2.582   6.347  1.1186 -1.3116  0.3784
  659MOL0     C86867   7.945   2.437   6.304  0.3895  0.7652 -0.6904
  659MOL0     C86868   7.805   2.382   6.337  0.2323 -0.4351  0.2393
  659MOL0     C86869   7.801   2.232   6.331 -0.5538  0.1710  0.6010
  659MOL0     C86870   7.668   2.172   6.384 -0.4092 -0.0783 -0.3189
  659MOL0     C86871   7.656   2.022   6.405 -0.4702  0.2288  1.0552
  659MOL0     C86872   7.512   1.994   6.448 -0.1697  0.5573 -0.9364
  659MOL0     N86873   7.482   1.861   6.392 -0.6053 -0.0488  0.3169
  659MOL0     C86874   7.529   1.737   6.435  0.2481  0.5943 -0.1841
  659MOL0     C86875   7.487   1.654   6.333 -0.1123 -0.6269  0.5557
  659MOL0     C86876   7.541   1.511   6.348  0.2043  0.0321  0.1734
  659MOL0     C86877   7.439   1.411   6.275 -0.6938  0.1211 -0.4609
  659MOL0     C86878   7.446   1.403   6.120  0.5587 -0.2367  0.0393
  659MOL0     C86879   7.576   1.362   6.069 -0.5747 -0.2027  0.9242
  659MOL0     O86880   7.561   1.404   5.929 -0.2290  0.0656 -0.2422
  659MOL0     C86881   7.631   1.333   5.825 -0.0144 -0.9131 -0.6904
  659MOL0     C86882   7.656   1.194   5.826 -0.5243  0.3929  0.3217
  659MOL0     C86883   7.727   1.139   5.714 -0.0468 -1.0321 -0.3661
  659MOL0     C86884   7.764   1.219   5.600 -0.4575 -0.7419 -0.0398
  659MOL0     C86885   7.842   1.160   5.482 -0.3040 -0.1972 -0.1965
  659MOL0     O86886   7.909   1.252   5.405  0.9881  0.9848 -0.0564
  659MOL0     C86887   8.011   1.213   5.326  0.0377 -0.6178 -0.2318
  659MOL0     C86888   7.979   1.178   5.194  0.8158  0.2011  0.7627
  659MOL0     C86889   8.082   1.133   5.105  0.5333  0.5005  0.4994
  659MOL0     C86890   8.217   1.110   5.154  0.9879 -0.7338 -0.4681
  659MOL0     O86891   8.314   1.069   5.070 -0.3034  0.4970  0.4781
  659MOL0     C86892   8.359   0.934   5.066 -1.0869 -0.4558 -0.1382
  659MOL0     C86893   8.469   0.896   5.177 -0.4499  0.1210  0.9870
  659MOL0     C86894   8.403   0.818   5.290  0.1360  0.8260 -0.4361
  659MOL0     C86895   8.507   0.765   5.397 -0.2801 -0.1674 -0.0465
  659MOL0     C86896   8.532   0.879   5.508 -1.5595  0.0263  0.6649
  659MOL0     C86897   8.637   0.834   5.610 -0.0122  1.1290 -0.5197
  659MOL0     C86898   8.773   0.795   5.550 -0.2661 -1.6608 -0.7296
  659MOL0     C86899   8.875   0.790   5.653  0.3340  0.8835 -0.5949
  659MOL0    Cl86900   8.846   0.630   5.747 -0.2010  0.1138  0.5544
  659MOL0     C86901   8.237   1.136   5.288 -0.3365 -0.6984  0.0147
  659MOL0     C86902   8.141   1.190   5.374 -0.9777 -0.2169 -0.6058
  659MOL0     O86903   7.844   1.036   5.472 -0.6191 -0.3395 -0.0013
  659MOL0     C86904   7.745   1.355   5.608  1.1445 -0.0757  0.2654
  659MOL0     C86905   7.670   1.406   5.712 -0.9887 -1.2672 -0.4562
  659MOL0     N86906   7.427   1.730   6.235  0.6636 -0.9836 -1.0343
  659MOL0     N86907   7.425   1.855   6.273  1.2193  1.0035  0.0096
  659MOL0     C86908   8.423   2.660   6.394 -0.1016  0.9807 -0.0276
  659MOL0     C86909   8.539   2.739   6.395 -0.5711  1.1978  0.8188
  659MOL0     C86910   8.848   3.042   6.183 -0.7578  0.3731 -0.4921
  659MOL0     C86911   8.910   3.074   6.063 -0.4865 -0.0416 -1.0734
  659MOL0     C86912   9.007   3.179   6.061  0.9376 -0.4858 -0.0023
  659MOL0     C86913   9.050   3.232   6.170 -1.0786 -0.1109 -0.5948
  659MOL0     O86914   9.135   3.338   6.177 -0.1315  0.1422  0.7592
  659MOL0     C86915   9.274   3.326   6.210 -0.1747  0.4077  0.4413
  659MOL0     C86916   9.360   3.376   6.088 -0.8616 -0.0604 -0.1251
  659MOL0     C86917   9.507   3.342   6.104  0.4007  0.0893  0.1928
  659MOL0     C86918   9.593   3.463   6.138  0.4808 -0.1834  0.7350
  659MOL0     C86919   9.580   3.549   6.017 -0.3852 -0.5128  0.2591
  659MOL0     C86920   9.581   3.638   5.936  0.1553  0.3902 -0.1022
  659MOL0     C86921   9.005   3.193   6.292 -0.7295  0.5685 -0.4739
  659MOL0     C86922   8.897   3.096   6.303  0.0497  1.0875 -0.8406
  659MOL0     H86923   8.438   2.962   6.171 -3.1265 -1.5981 -2.3676
  659MOL0     H86924   8.252   2.812   6.149 -0.3574  0.7113 -0.0254
  659MOL0     H86925   8.066   2.675   6.171  0.7659  0.0987 -0.5296
  659MOL0     H86926   8.077   2.761   6.320  2.8530 -0.1048 -0.6485
  659MOL0     H86927   7.872   2.631   6.311  1.1204 -1.3209  0.3618
  659MOL0     H86928   7.967   2.594   6.456 -2.2439  0.3149  0.4211
  659MOL0     H86929   8.014   2.373   6.360  0.7495  1.8425  0.1270
  659MOL0     H86930   7.982   2.427   6.201  2.7052 -2.6426  0.2887
  659MOL0     H86931   7.786   2.418   6.439  3.0355  3.0823 -0.2881
  659MOL0     H86932   7.738   2.428   6.264  0.3443  0.5847  0.7501
  659MOL0     H86933   7.875   2.188   6.399 -0.8981 -2.0969 -0.4113
  659MOL0     H86934   7.822   2.194   6.231 -1.3596  1.6953 -0.1732
  659MOL0     H86935   7.581   2.203   6.325 -4.0281 -4.6654  2.0234
  659MOL0     H86936   7.645   2.215   6.482  2.3702  0.1752  0.3048
  659MOL0     H86937   7.692   1.969   6.316 -0.0929  0.9563  0.7661
  659MOL0     H86938   7.727   1.991   6.482  1.6165  2.9708  0.3927
  659MOL0     H86939   7.442   2.074   6.423 -0.1231  0.3047 -1.9261
  659MOL0     H86940   7.502   1.979   6.556  2.9743  1.8089 -0.3491
  659MOL0     H86941   7.598   1.712   6.515  1.3892  3.3067 -0.2030
  659MOL0     H86942   7.522   1.476   6.450 -0.4745 -0.5649 -0.1444
  659MOL0     H86943   7.647   1.502   6.327  0.7837  4.6139  0.1286
  659MOL0     H86944   7.341   1.452   6.303 -2.1373 -0.2871 -4.3613
  659MOL0     H86945   7.456   1.311   6.317 -0.6846  1.2875  2.6311
  659MOL0     H86946   7.373   1.336   6.074  0.7902  0.2046 -0.9959
  659MOL0     H86947   7.412   1.499   6.080  4.1498 -0.1170 -3.3513
  659MOL0     H86948   7.604   1.259   6.092  0.9750  0.3525  1.6910
  659MOL0     H86949   7.655   1.422   6.116  0.8322  1.3501 -3.0472
  659MOL0     H86950   7.629   1.126   5.906 -0.6970  1.1307  0.9122
  659MOL0     H86951   7.754   1.034   5.712  0.2244 -0.9504 -0.9921
  659MOL0     H86952   7.878   1.178   5.152  0.8055 -1.9583  0.6800
  659MOL0     H86953   8.063   1.112   5.000 -0.1972  0.3203  0.6618
  659MOL0     H86954   8.409   0.918   4.970 -3.3957  0.0719 -1.5001
  659MOL0     H86955   8.271   0.869   5.077 -0.9812 -0.8322 -1.4095
  659MOL0     H86956   8.516   0.984   5.221  1.0895 -1.2336  2.1843
  659MOL0     H86957   8.555   0.848   5.129 -0.0057  2.5098 -0.7763
  659MOL0     H86958   8.349   0.735   5.245  1.2609 -2.2366  3.3450
  659MOL0     H86959   8.339   0.892   5.340 -0.0659  1.5430 -1.6916
  659MOL0     H86960   8.481   0.668   5.440 -0.8990  0.5786  1.3143
  659MOL0     H86961   8.608   0.764   5.353  1.5175 -0.7307  3.6766
  659MOL0     H86962   8.442   0.900   5.568 -1.6722  1.4096  0.0684
  659MOL0     H86963   8.567   0.970   5.457  0.9286 -0.5171  1.3062
  659MOL0     H86964   8.595   0.740   5.649 -0.0383  1.4767  0.3187
  659MOL0     H86965   8.642   0.910   5.688  0.2664  1.3435 -0.7465
  659MOL0     H86966   8.764   0.692   5.514 -2.0161 -2.7261  2.3411
  659MOL0     H86967   8.806   0.860   5.469  0.5664  1.3984  1.8628
  659MOL0     H86968   8.864   0.881   5.714 -1.2809 -0.4767  1.2729
  659MOL0     H86969   8.974   0.786   5.606  0.5649 -5.1030 -0.3390
  659MOL0     H86970   8.335   1.129   5.334 -0.1294  2.4629  0.3209
  659MOL0     H86971   8.163   1.218   5.477  0.6491 -0.5574 -0.8369
  659MOL0     H86972   7.790   1.429   5.542 -2.0308  0.6866 -1.2492
  659MOL0     H86973   7.649   1.513   5.707 -2.5047 -1.5821 -1.5166
  659MOL0     H86974   8.427   2.580   6.467  1.0638 -3.2683 -4.2868
  659MOL0     H86975   8.618   2.714   6.464 -0.8890 -2.9928 -0.0961
  659MOL0     H86976   8.862   3.048   5.970  1.0124 -3.1242 -1.1119
  659MOL0     H86977   9.052   3.213   5.968  1.7085 -0.3260  0.4160
  659MOL0     H86978   9.298   3.223   6.235 -2.8195  0.2611  2.8183
  659MOL0     H86979   9.297   3.361   6.311  1.5082  0.4614  0.0824
  659MOL0     H86980   9.319   3.319   6.004  0.2792 -0.1289 -0.6561
  659MOL0     H86981   9.346   3.482   6.065  3.0937  1.1650  2.2206
  659MOL0     H86982   9.552   3.295   6.015  3.5159 -1.3684  2.3532
  659MOL0     H86983   9.512   3.264   6.181  0.7581 -1.2185 -1.0992
  659MOL0     H86984   9.569   3.501   6.237  0.8690  0.0565  0.7408
  659MOL0     H86985   9.694   3.422   6.126 -0.2759 -1.2290 -5.5613
  659MOL0     H86986   9.616   3.720   5.875  0.8830  0.3998  0.3146
  659MOL0     H86987   9.057   3.238   6.376 -1.5450 -1.7553  1.3717
  659MOL0     H86988   8.851   3.069   6.397  3.4625 -2.1593  0.1248
  660MOL0     O86989   8.036   8.564  10.244  0.5752 -0.4292 -0.1854
  660MOL0     C86990   8.109   8.653  10.208 -0.1031  1.0884 -0.3167
  660MOL0     O86991   8.160   8.654  10.088  0.3522 -0.6431  0.1362
  660MOL0     C86992   8.172   8.546  10.004 -0.2750  0.3264  0.4668
  660MOL0     C86993   8.108   8.421  10.020 -0.1662 -0.0485 -0.7177
  660MOL0     C86994   8.131   8.317   9.927 -0.1350  0.5778 -0.1529
  660MOL0     C86995   8.223   8.317   9.830 -0.4376  0.3279 -0.2459
  660MOL0     O86996   8.243   8.217   9.732  0.2121  1.2751 -0.2921
  660MOL0     C86997   8.146   8.093   9.730 -0.1478 -0.4669  0.6911
  660MOL0     C86998   8.166   8.019   9.597  0.9839  0.2644 -0.7289
  660MOL0     C86999   8.169   8.106   9.475  0.0885  0.5024 -0.4640
  660MOL0     C87000   8.196   8.016   9.357 -0.5749  0.5612 -0.3291
  660MOL0     C87001   8.076   7.954   9.284  1.1416  0.1164 -0.8752
  660MOL0     C87002   8.125   7.885   9.155 -0.0826  0.0008  0.3307
  660MOL0     C87003   7.999   7.824   9.091  0.2758  0.2364  0.0179
  660MOL0     C87004   7.949   7.910   8.974 -0.9139  0.9576 -0.2739
  660MOL0     N87005   7.851   7.850   8.884 -0.4128  0.5267 -0.0130
  660MOL0     C87006   7.884   7.775   8.778 -0.2144 -0.4430 -1.4629
  660MOL0     C87007   7.761   7.723   8.737  0.7879 -0.0026  0.3345
  660MOL0     C87008   7.744   7.630   8.625  0.7543  0.3365  1.2147
  660MOL0     C87009   7.730   7.708   8.496  0.1670  0.3110 -0.3875
  660MOL0     C87010   7.726   7.626   8.362  0.2708  0.0023 -0.0969
  660MOL0     C87011   7.691   7.713   8.236  0.2824 -0.1122  0.1498
  660MOL0     O87012   7.696   7.642   8.110 -0.6290  0.2200  0.3204
  660MOL0     C87013   7.695   7.713   7.989 -0.2253 -0.8713 -0.4832
  660MOL0     C87014   7.596   7.803   7.973 -0.1880  0.2537  0.1149
  660MOL0     C87015   7.581   7.873   7.855 -1.0400 -1.0247 -0.3043
  660MOL0     C87016   7.662   7.841   7.743 -0.8920  0.5726  0.0811
  660MOL0     C87017   7.648   7.907   7.612 -0.9855  0.5696 -1.2514
  660MOL0     O87018   7.728   7.884   7.513 -0.5597  0.2298  0.4219
  660MOL0     C87019   7.728   7.949   7.392  0.9526  0.1988  1.3352
  660MOL0     C87020   7.654   7.891   7.284 -0.2818  0.0634  0.2817
  660MOL0     C87021   7.674   7.954   7.157 -0.7986  1.0010  0.2768
  660MOL0     C87022   7.760   8.063   7.140 -0.5170 -0.1929 -0.9997
  660MOL0     O87023   7.759   8.105   7.009  0.7550  0.3780  0.2827
  660MOL0     C87024   7.847   8.205   6.970  0.6780 -0.2641  0.1123
  660MOL0     C87025   7.851   8.205   6.813  0.8238  0.1253 -0.9631
  660MOL0     C87026   7.967   8.294   6.760 -0.7964 -0.2593 -0.5257
  660MOL0     C87027   7.924   8.435   6.725 -0.1151  0.5143  0.1846
  660MOL0     C87028   8.034   8.492   6.649 -0.5027 -0.1053 -0.1443
  660MOL0     C87029   8.149   8.547   6.738 -0.2104  0.5055 -0.7075
  660MOL0     C87030   8.264   8.606   6.656 -0.1598  0.7771 -0.0598
  660MOL0     C87031   8.377   8.663   6.753  0.2682 -0.0433 -0.4203
  660MOL0    Cl87032   8.456   8.524   6.833 -0.3382  0.3145 -0.1152
  660MOL0     C87033   7.825   8.127   7.249 -0.0979  0.4338 -0.4253
  660MOL0     C87034   7.812   8.062   7.379 -0.3145 -0.7494  0.3066
  660MOL0     O87035   7.555   7.983   7.609  0.5022  0.0227 -0.0407
  660MOL0     C87036   7.757   7.746   7.761 -0.3132  0.2463  0.4321
  660MOL0     C87037   7.778   7.680   7.883  0.0032 -0.3494  0.3282
  660MOL0     N87038   7.660   7.778   8.818  0.2918 -0.3011  0.8249
  660MOL0     N87039   7.718   7.842   8.914 -0.3131 -0.6046 -0.1441
  660MOL0     C87040   8.292   8.437   9.818  0.3432  0.2317  0.4220
  660MOL0     C87041   8.257   8.554   9.894  0.3051  0.3885 -0.4821
  660MOL0     C87042   8.181   8.747  10.306  0.7382 -0.5818  0.3791
  660MOL0     C87043   8.294   8.805  10.259  0.0562  0.0087 -0.5410
  660MOL0     C87044   8.368   8.875  10.360 -0.1688 -0.8211  0.7032
  660MOL0     C87045   8.331   8.894  10.493  0.9984 -0.0236  0.0650
  660MOL0     O87046   8.418   8.974  10.569  0.2216 -0.3092  0.2156
  660MOL0     C87047   8.398   8.985  10.708 -0.5025 -0.2234  0.3071
  660MOL0     C87048   8.506   9.074  10.767 -1.0395  0.5841 -1.2332
  660MOL0     C87049   8.507   9.077  10.923 -0.1335  1.3082  0.1219
  660MOL0     C87050   8.618   9.169  10.992  0.3855 -0.4484  0.6143
  660MOL0     C87051   8.620   9.133  11.133  0.0298 -0.3105  0.3856
  660MOL0     C87052   8.613   9.095  11.243 -0.2055  0.8169  0.6887
  660MOL0     C87053   8.216   8.837  10.537 -0.8118 -0.5442  0.6456
  660MOL0     C87054   8.140   8.756  10.442 -0.8265  0.1505  0.2526
  660MOL0     H87055   8.038   8.390  10.097  1.2924 -1.4412  0.1088
  660MOL0     H87056   8.065   8.235   9.953  0.5336 -0.5542 -1.8352
  660MOL0     H87057   8.045   8.134   9.733 -0.5011 -1.1969 -0.5787
  660MOL0     H87058   8.164   8.023   9.812 -1.0369 -0.2782  1.0542
  660MOL0     H87059   8.085   7.949   9.576  1.4526  0.1067 -2.1341
  660MOL0     H87060   8.262   7.967   9.606  0.0022 -1.8803 -1.9326
  660MOL0     H87061   8.261   8.164   9.492 -0.1985 -0.1811  5.8142
  660MOL0     H87062   8.081   8.171   9.467  1.2983  2.1876 -0.6705
  660MOL0     H87063   8.263   8.075   9.294  3.3785 -1.4860  1.5634
  660MOL0     H87064   8.259   7.934   9.393 -4.0063 -1.8255  0.7254
  660MOL0     H87065   8.014   8.041   9.263  2.3257  1.1719 -0.1586
  660MOL0     H87066   8.010   7.888   9.342 -1.2002  4.4660  1.9565
  660MOL0     H87067   8.181   7.796   9.183 -1.6062  0.1741  4.7181
  660MOL0     H87068   8.175   7.958   9.090  1.7123 -2.1872 -0.8791
  660MOL0     H87069   8.036   7.735   9.040 -0.8531 -1.0611  1.3699
  660MOL0     H87070   7.926   7.781   9.161  1.4832 -0.6553  0.7568
  660MOL0     H87071   8.040   7.938   8.919 -1.3445  2.9860 -0.0420
  660MOL0     H87072   7.903   7.992   9.029 -3.6031 -1.7143  1.7835
  660MOL0     H87073   7.985   7.757   8.743  0.7356 -2.9713  2.0040
  660MOL0     H87074   7.652   7.573   8.635  2.2079 -2.1352  1.3478
  660MOL0     H87075   7.834   7.568   8.617  0.5664  0.2561 -0.9593
  660MOL0     H87076   7.819   7.768   8.475  0.6928 -0.8672 -1.6622
  660MOL0     H87077   7.633   7.758   8.501 -0.7328 -1.3672 -0.3272
  660MOL0     H87078   7.828   7.586   8.357  1.0463  0.9875  4.1184
  660MOL0     H87079   7.652   7.547   8.375  1.9462 -1.2963  2.3004
  660MOL0     H87080   7.765   7.792   8.221 -0.4363  0.5986  0.2863
  660MOL0     H87081   7.590   7.754   8.244 -0.7165 -2.0453 -1.4315
  660MOL0     H87082   7.528   7.824   8.055  1.0482  1.0213  0.9700
  660MOL0     H87083   7.505   7.951   7.849  2.1472  2.4079  0.0467
  660MOL0     H87084   7.593   7.803   7.300 -0.2319 -0.0082  0.0749
  660MOL0     H87085   7.626   7.908   7.071 -1.0143 -0.4807  1.1528
  660MOL0     H87086   7.947   8.192   7.010 -0.0025  1.7385  2.7025
  660MOL0     H87087   7.806   8.294   7.018 -0.6005 -1.3252  1.0686
  660MOL0     H87088   7.753   8.245   6.783 -0.5290  0.1349  2.9248
  660MOL0     H87089   7.853   8.104   6.770  2.3774  0.6892 -2.2890
  660MOL0     H87090   8.005   8.246   6.670  1.3208  1.4910 -0.6410
  660MOL0     H87091   8.051   8.293   6.831 -2.2382 -1.4214  1.2708
  660MOL0     H87092   7.830   8.436   6.669  0.2662  0.7947 -0.4616
  660MOL0     H87093   7.913   8.494   6.816  0.8353  0.9187  0.0492
  660MOL0     H87094   7.999   8.570   6.581  1.3530 -0.2221 -1.3147
  660MOL0     H87095   8.075   8.413   6.584  1.7852 -0.9441  2.1406
  660MOL0     H87096   8.177   8.462   6.801 -5.5215 -1.6870 -0.7689
  660MOL0     H87097   8.120   8.628   6.804 -0.9812 -1.3402  1.3379
  660MOL0     H87098   8.302   8.541   6.577 -2.5726  1.2373 -1.7121
  660MOL0     H87099   8.212   8.685   6.601  0.8969 -0.5696 -3.2296
  660MOL0     H87100   8.340   8.732   6.830  4.1340  1.5785  0.2277
  660MOL0     H87101   8.429   8.730   6.683 -1.4578  1.2237 -0.5797
  660MOL0     H87102   7.878   8.220   7.235  0.7340  0.1645  0.7808
  660MOL0     H87103   7.872   8.092   7.463 -2.1823  2.2522  0.7056
  660MOL0     H87104   7.822   7.711   7.681 -1.7555  2.1639 -1.7367
  660MOL0     H87105   7.853   7.604   7.899  1.3509  0.6462 -0.9252
  660MOL0     H87106   8.373   8.444   9.746 -0.7207  1.7294 -0.6784
  660MOL0     H87107   8.310   8.647   9.877  0.5212  0.0369 -1.8929
  660MOL0     H87108   8.339   8.800  10.160 -1.6026 -0.3826 -1.3005
  660MOL0     H87109   8.450   8.941  10.334 -0.7994 -0.6688 -1.0210
  660MOL0     H87110   8.410   8.886  10.753 -0.4126  0.7187  2.5302
  660MOL0     H87111   8.298   9.026  10.729 -0.0977  2.4724 -2.3023
  660MOL0     H87112   8.593   9.021  10.726 -2.5203 -2.8222 -0.3536
  660MOL0     H87113   8.520   9.178  10.739  2.5561 -0.1805 -2.9061
  660MOL0     H87114   8.508   8.970  10.945 -1.5805  1.0193 -1.0074
  660MOL0     H87115   8.414   9.121  10.960 -1.3473 -1.1176  0.1412
  660MOL0     H87116   8.716   9.140  10.951 -0.8604 -1.8320 -1.5645
  660MOL0     H87117   8.596   9.275  10.984 -5.0317 -1.4171 -1.1281
  660MOL0     H87118   8.584   9.083  11.345 -2.9240 -1.3636 -0.2002
  660MOL0     H87119   8.197   8.852  10.643 -1.4471  0.4590  0.3992
  660MOL0     H87120   8.051   8.701  10.472 -1.5455  2.2922  2.3184
  661MOL0     O87121  10.102   5.189   4.841  0.0314  0.3602 -0.2647
  661MOL0     C87122  10.064   5.263   4.748 -0.0285  0.2952  0.4410
  661MOL0     O87123  10.040   5.392   4.757 -0.6882  0.1408  0.3680
  661MOL0     C87124  10.125   5.454   4.847  0.6136 -0.0317 -0.3962
  661MOL0     C87125  10.212   5.550   4.792 -0.3074  0.1662  0.4060
  661MOL0     C87126  10.306   5.617   4.871  0.9627 -0.2626  0.1600
  661MOL0     C87127  10.322   5.589   5.006  0.9830 -0.6444  0.6310
  661MOL0     O87128  10.405   5.652   5.091  0.0421 -0.0310 -0.7643
  661MOL0     C87129  10.367   5.785   5.115  0.8532 -0.7170 -0.0543
  661MOL0     C87130  10.487   5.874   5.104  0.0441 -0.5930 -0.0462
  661MOL0     C87131  10.455   6.009   5.175 -0.5790 -0.5126  0.1652
  661MOL0     C87132  10.574   6.094   5.151  0.5708 -0.5173  0.6517
  661MOL0     C87133  10.548   6.218   5.237 -0.2636 -0.4965 -0.6327
  661MOL0     C87134  10.667   6.294   5.258 -0.2401  0.2475 -0.4717
  661MOL0     C87135  10.771   6.221   5.359  0.3514  0.0277  0.1711
  661MOL0     C87136  10.877   6.322   5.409 -0.9512 -0.6675 -0.8633
  661MOL0     N87137  10.981   6.363   5.307  0.0693 -0.5764 -0.3906
  661MOL0     C87138  11.029   6.491   5.296  0.0874 -0.0755 -0.3458
  661MOL0     C87139  11.101   6.489   5.179 -1.1001  0.3054  0.5468
  661MOL0     C87140  11.190   6.582   5.112 -0.5265  0.4800 -0.3417
  661MOL0     C87141  11.147   6.607   4.961 -0.4622 -0.3539 -0.7429
  661MOL0     C87142  11.007   6.668   4.935 -0.2252  0.8545 -0.2441
  661MOL0     C87143  11.008   6.717   4.786  0.0183  0.4183 -0.3755
  661MOL0     O87144  10.873   6.756   4.749 -0.4238  0.5648 -1.0615
  661MOL0     C87145  10.855   6.861   4.659 -0.6710 -0.3860 -0.2792
  661MOL0     C87146  10.949   6.895   4.556 -0.0545  0.5058 -0.7325
  661MOL0     C87147  10.920   7.011   4.476  0.0554  0.0974 -0.4880
  661MOL0     C87148  10.808   7.100   4.501  0.0673  0.2305  0.0732
  661MOL0     C87149  10.793   7.219   4.411 -0.6835  0.3951 -0.3257
  661MOL0     O87150  10.695   7.298   4.443 -0.5725  0.3202 -0.5890
  661MOL0     C87151  10.681   7.399   4.353  0.1999 -0.1841 -0.6196
  661MOL0     C87152  10.615   7.382   4.235  0.0291  0.3570  0.1599
  661MOL0     C87153  10.605   7.502   4.156 -0.0659 -0.6123 -0.1357
  661MOL0     C87154  10.631   7.632   4.209  0.1438 -0.1481  0.5528
  661MOL0     O87155  10.600   7.752   4.149 -0.5514 -0.7218 -0.9339
  661MOL0     C87156  10.497   7.762   4.044  0.1510  0.5591  0.6004
  661MOL0     C87157  10.505   7.908   3.985 -0.1201 -1.2781  0.1053
  661MOL0     C87158  10.526   8.022   4.088 -0.0785 -1.2757 -0.5632
  661MOL0     C87159  10.456   8.012   4.226 -0.2302  0.3763  0.8001
  661MOL0     C87160  10.491   8.133   4.314  1.3608 -0.0366  0.3902
  661MOL0     C87161  10.624   8.114   4.407  0.8786 -0.7894 -0.1001
  661MOL0     C87162  10.595   8.018   4.523  0.0213 -0.5601  0.8603
  661MOL0     C87163  10.701   8.007   4.620 -0.3566  0.4655  0.5334
  661MOL0    Cl87164  10.837   7.901   4.548  0.2554  0.4053  0.4709
  661MOL0     C87165  10.689   7.636   4.333 -0.1471 -0.2079  0.1012
  661MOL0     C87166  10.713   7.522   4.410 -0.7042 -0.5152  0.3316
  661MOL0     O87167  10.885   7.245   4.330  0.2866 -0.3309 -0.1905
  661MOL0     C87168  10.719   7.064   4.608  0.1117  0.6937 -0.8083
  661MOL0     C87169  10.743   6.951   4.689 -0.2149  0.3642  0.3577
  661MOL0     N87170  11.100   6.363   5.126  0.7438  0.3212  0.1316
  661MOL0     N87171  11.033   6.293   5.202 -0.3293  0.3078 -0.0316
  661MOL0     C87172  10.225   5.506   5.063 -1.3196 -0.2047  1.0874
  661MOL0     C87173  10.129   5.437   4.985 -0.2224 -0.2087  0.0028
  661MOL0     C87174  10.066   5.209   4.611 -0.0613 -0.0829  1.0911
  661MOL0     C87175  10.025   5.293   4.498 -0.7820 -0.0499 -0.7430
  661MOL0     C87176  10.041   5.250   4.371  0.2491 -0.0033  0.4105
  661MOL0     C87177  10.100   5.126   4.344  0.7266 -0.0939 -0.0421
  661MOL0     O87178  10.121   5.100   4.206  0.1926 -0.0251 -0.4687
  661MOL0     C87179  10.013   5.028   4.138  0.6029 -0.4795 -0.3516
  661MOL0     C87180  10.045   4.879   4.129 -0.6554 -0.1233 -0.6323
  661MOL0     C87181  10.162   4.873   4.021  0.5696 -0.0265  1.5631
  661MOL0     C87182  10.212   4.728   4.006 -0.4683  0.4764  0.7346
  661MOL0     C87183  10.308   4.721   3.895 -0.6222 -0.0452 -1.0211
  661MOL0     C87184  10.405   4.734   3.821 -0.2188 -0.8282 -0.5299
  661MOL0     C87185  10.127   5.040   4.452  1.1291  0.0555  0.1727
  661MOL0     C87186  10.109   5.073   4.588  0.6791  0.3572 -0.3627
  661MOL0     H87187  10.211   5.579   4.688 -3.1331  1.4205  0.6750
  661MOL0     H87188  10.346   5.705   4.822 -1.5812  0.4924 -0.7339
  661MOL0     H87189  10.330   5.786   5.217  0.1632  1.8673 -0.2427
  661MOL0     H87190  10.277   5.810   5.057 -0.2620 -2.0274  1.0536
  661MOL0     H87191  10.504   5.891   4.997  3.5955 -3.8693 -0.1974
  661MOL0     H87192  10.579   5.829   5.143 -0.4067 -1.9135 -0.4409
  661MOL0     H87193  10.447   5.996   5.283 -1.0497 -2.7765 -0.0705
  661MOL0     H87194  10.361   6.053   5.140  0.7330  0.4926 -2.3793
  661MOL0     H87195  10.665   6.038   5.175  0.2691 -0.8925  0.9290
  661MOL0     H87196  10.579   6.117   5.044 -1.9053 -3.7279 -0.3294
  661MOL0     H87197  10.524   6.196   5.342  3.7258  0.0227  0.5426
  661MOL0     H87198  10.478   6.286   5.188  2.2953  3.4255  0.6371
  661MOL0     H87199  10.634   6.381   5.315 -1.0736 -0.4369  0.1109
  661MOL0     H87200  10.720   6.317   5.165  2.4920  0.4722  1.0148
  661MOL0     H87201  10.714   6.171   5.438  0.4026 -2.0554 -1.0441
  661MOL0     H87202  10.819   6.131   5.321 -0.5727 -0.8002  0.9078
  661MOL0     H87203  10.937   6.267   5.483  0.5700  1.6701 -0.2416
  661MOL0     H87204  10.846   6.410   5.466  0.9373  0.2234 -1.1088
  661MOL0     H87205  10.998   6.569   5.365 -2.2082 -0.2344 -1.1087
  661MOL0     H87206  11.289   6.538   5.112  0.4409  2.5072  0.6213
  661MOL0     H87207  11.197   6.680   5.160 -3.2737 -0.2257  1.7488
  661MOL0     H87208  11.174   6.520   4.901 -0.7126 -1.5716  0.8724
  661MOL0     H87209  11.208   6.691   4.926 -2.1053  1.8210  1.2327
  661MOL0     H87210  10.933   6.590   4.955 -0.4383  1.2866  0.6824
  661MOL0     H87211  10.995   6.752   5.003 -0.3435 -1.3574  2.6578
  661MOL0     H87212  11.029   6.627   4.728 -1.5830 -1.0795  1.2505
  661MOL0     H87213  11.087   6.784   4.752  1.1681 -2.3512 -3.8054
  661MOL0     H87214  11.026   6.823   4.530 -0.6837 -2.1615  3.7412
  661MOL0     H87215  10.989   7.031   4.394  1.3626  1.0281  0.8022
  661MOL0     H87216  10.575   7.285   4.204 -0.8803 -0.2680  3.0243
  661MOL0     H87217  10.555   7.507   4.060 -0.8808  4.8029  0.2711
  661MOL0     H87218  10.398   7.743   4.086  0.2257 -1.8220 -0.1117
  661MOL0     H87219  10.516   7.685   3.969 -1.1914 -0.9749  1.7558
  661MOL0     H87220  10.413   7.922   3.928  0.3354  1.1881 -0.1263
  661MOL0     H87221  10.594   7.912   3.921  1.6267 -1.1039  2.4180
  661MOL0     H87222  10.499   8.118   4.044 -0.1446 -0.2423  1.5779
  661MOL0     H87223  10.625   8.019   4.136 -1.1893  2.0725  2.3664
  661MOL0     H87224  10.352   7.997   4.197  0.5584 -2.0027 -1.2009
  661MOL0     H87225  10.497   7.921   4.271 -0.5953  0.1132  0.6005
  661MOL0     H87226  10.397   8.146   4.368  2.3623  0.5391  2.0986
  661MOL0     H87227  10.505   8.223   4.252 -0.9836  0.2388  0.1947
  661MOL0     H87228  10.652   8.210   4.453  1.7189 -1.4395  0.8111
  661MOL0     H87229  10.706   8.084   4.341  0.8495 -0.9554 -0.0594
  661MOL0     H87230  10.505   8.052   4.575 -0.1611 -3.2620  2.5119
  661MOL0     H87231  10.559   7.922   4.485 -2.5479  0.0016  1.6663
  661MOL0     H87232  10.656   7.960   4.707 -0.6951  1.0645  0.6837
  661MOL0     H87233  10.744   8.101   4.655  1.0485  0.0480  0.0058
  661MOL0     H87234  10.713   7.731   4.379 -0.9407 -1.0930  2.4977
  661MOL0     H87235  10.755   7.533   4.510 -0.9985 -1.8244  0.6162
  661MOL0     H87236  10.632   7.119   4.642  0.1016 -0.8845  2.0389
  661MOL0     H87237  10.672   6.927   4.768  1.1266 -1.3897  1.0956
  661MOL0     H87238  10.251   5.490   5.167  0.8738  4.4126  1.5266
  661MOL0     H87239  10.069   5.369   5.046  0.8004 -2.6061 -1.5161
  661MOL0     H87240   9.981   5.391   4.511 -0.4221  0.2949 -2.0720
  661MOL0     H87241   9.988   5.292   4.286 -0.4770 -0.5405  0.5941
  661MOL0     H87242  10.005   5.054   4.032 -2.5076  0.2588 -0.0423
  661MOL0     H87243   9.918   5.047   4.190 -0.8174 -2.2929 -2.1121
  661MOL0     H87244  10.079   4.839   4.225 -1.8526 -1.7412 -0.8354
  661MOL0     H87245   9.961   4.816   4.097 -0.4689 -1.5006  1.4059
  661MOL0     H87246  10.242   4.939   4.056  0.4754  0.3271  1.1281
  661MOL0     H87247  10.121   4.915   3.929 -1.2007 -1.5112  1.6296
  661MOL0     H87248  10.253   4.698   4.103 -0.7890  1.7771  1.2980
  661MOL0     H87249  10.136   4.658   3.970  1.4498  0.1375 -3.0765
  661MOL0     H87250  10.496   4.758   3.769  0.4501 -0.0507  0.9367
  661MOL0     H87251  10.144   4.933   4.442 -1.2692 -0.3921  0.3753
  661MOL0     H87252  10.142   5.013   4.672 -1.9255 -2.6042 -1.2840
  662MOL0     O87253   9.504   5.717   2.320  0.6519 -0.0064 -0.0640
  662MOL0     C87254   9.556   5.604   2.331 -0.0006  0.4057  0.8027
  662MOL0     O87255   9.498   5.487   2.290 -1.1433 -0.5325 -0.4478
  662MOL0     C87256   9.414   5.489   2.182  0.5081  0.0210  0.2207
  662MOL0     C87257   9.414   5.580   2.078  1.3403 -1.4893 -0.0446
  662MOL0     C87258   9.316   5.570   1.979 -0.0993  0.2294 -0.0718
  662MOL0     C87259   9.221   5.468   1.968 -1.5708 -0.1191 -0.5974
  662MOL0     O87260   9.152   5.462   1.848 -0.5453 -0.0942 -0.4533
  662MOL0     C87261   9.078   5.346   1.820  0.8478 -0.2395 -0.9393
  662MOL0     C87262   8.917   5.358   1.843 -0.0494 -0.3992 -0.2799
  662MOL0     C87263   8.844   5.400   1.714  0.3781 -0.6989 -0.3233
  662MOL0     C87264   8.713   5.472   1.748  0.3751  0.1058  0.0213
  662MOL0     C87265   8.606   5.427   1.637  0.6207  0.1708  0.0237
  662MOL0     C87266   8.559   5.281   1.646  0.4883  0.0650  0.6074
  662MOL0     C87267   8.478   5.240   1.524 -0.1991 -0.8631  0.6535
  662MOL0     C87268   8.551   5.231   1.382 -0.2782 -0.2558 -0.1869
  662MOL0     N87269   8.653   5.122   1.374 -0.1412  0.4585 -0.4796
  662MOL0     C87270   8.792   5.139   1.386  0.3448 -0.0610 -0.6019
  662MOL0     C87271   8.840   5.011   1.398  0.0011  0.1086  0.4038
  662MOL0     C87272   8.990   4.981   1.384  0.8074  0.8903  0.0187
  662MOL0     C87273   9.084   5.043   1.483  0.3087  0.3464 -0.1942
  662MOL0     C87274   9.235   5.021   1.449 -0.3348  0.1986 -0.0738
  662MOL0     C87275   9.320   5.109   1.543  0.4890  0.2506  0.5361
  662MOL0     O87276   9.304   5.048   1.674 -0.0054 -0.6502  0.2916
  662MOL0     C87277   9.399   5.083   1.774 -0.0356 -0.1335  0.9297
  662MOL0     C87278   9.502   5.177   1.765  0.7972  0.8369 -0.3195
  662MOL0     C87279   9.589   5.198   1.879  0.2833 -0.1200  0.1084
  662MOL0     C87280   9.576   5.122   1.996  0.8784  0.1327 -0.3341
  662MOL0     C87281   9.663   5.133   2.114  0.2382  0.1177  0.0141
  662MOL0     O87282   9.784   5.182   2.081 -0.5672 -0.2664  0.1164
  662MOL0     C87283   9.889   5.172   2.173  0.4218  0.1629  0.6761
  662MOL0     C87284   9.999   5.264   2.148 -0.7512 -0.5350 -0.5333
  662MOL0     C87285  10.100   5.268   2.247  0.0328  0.2274  0.0513
  662MOL0     C87286  10.109   5.182   2.355 -0.2334 -0.4613 -0.1092
  662MOL0     O87287  10.206   5.183   2.449  1.1093 -0.1409 -0.4677
  662MOL0     C87288  10.274   5.064   2.509  0.5760 -0.0178 -0.1324
  662MOL0     C87289  10.417   5.102   2.552  0.2831 -0.2185 -0.5128
  662MOL0     C87290  10.478   4.989   2.634 -0.3338 -0.3858  0.0194
  662MOL0     C87291  10.619   5.015   2.692 -0.1831  0.7248 -1.1681
  662MOL0     C87292  10.678   4.897   2.773 -0.6471 -0.5387  0.0284
  662MOL0     C87293  10.825   4.936   2.812  0.1187  0.4004 -0.0845
  662MOL0     C87294  10.885   4.871   2.935 -0.1652 -0.5871  0.3387
  662MOL0     C87295  11.025   4.927   2.940 -0.3865 -1.1501  0.1564
  662MOL0    Cl87296  11.119   4.861   3.063 -0.1616  0.2522  0.1846
  662MOL0     C87297  10.008   5.089   2.373  0.5512  0.1267  0.3741
  662MOL0     C87298   9.896   5.087   2.290 -0.0692 -0.1068 -0.7090
  662MOL0     O87299   9.610   5.133   2.229 -0.6780  0.0055 -0.0642
  662MOL0     C87300   9.463   5.041   2.009  0.0016  0.4522 -0.0931
  662MOL0     C87301   9.381   5.018   1.894 -0.8997  0.8030 -0.4643
  662MOL0     N87302   8.739   4.923   1.394 -0.8865 -0.4894  0.3726
  662MOL0     N87303   8.622   4.991   1.376  0.2226  0.8718 -0.0398
  662MOL0     C87304   9.230   5.372   2.069  0.2892 -0.1440  0.1963
  662MOL0     C87305   9.324   5.382   2.177 -0.3207 -0.5736 -0.5007
  662MOL0     C87306   9.690   5.597   2.402  0.1078  0.9180 -0.3391
  662MOL0     C87307   9.752   5.470   2.432  0.8708 -1.2460 -0.4058
  662MOL0     C87308   9.868   5.469   2.506 -0.6575  0.5359  0.2450
  662MOL0     C87309   9.936   5.591   2.537  0.2857 -0.4120  0.1895
  662MOL0     O87310  10.058   5.615   2.587  0.2137 -0.2437 -1.0335
  662MOL0     C87311  10.139   5.503   2.634 -0.2983  0.5735 -0.2144
  662MOL0     C87312  10.110   5.450   2.773 -0.5818 -0.5067 -0.5472
  662MOL0     C87313  10.155   5.301   2.783 -1.4146 -0.6376 -1.0696
  662MOL0     C87314  10.099   5.226   2.904 -0.8332 -0.5488 -0.7333
  662MOL0     C87315  10.152   5.091   2.918  0.3287 -0.8613 -0.3460
  662MOL0     C87316  10.196   4.981   2.932  0.0045 -0.3393 -0.9286
  662MOL0     C87317   9.874   5.708   2.502 -0.7954  0.1203  0.8451
  662MOL0     C87318   9.754   5.712   2.433  1.1016 -0.1504 -0.8224
  662MOL0     H87319   9.484   5.663   2.086 -1.1260  0.8784 -1.5383
  662MOL0     H87320   9.315   5.633   1.890 -2.2613 -2.1367 -1.8690
  662MOL0     H87321   9.113   5.257   1.875 -0.6662 -0.9662 -1.1124
  662MOL0     H87322   9.093   5.325   1.714  1.2141  1.2968 -1.2106
  662MOL0     H87323   8.895   5.421   1.930  1.8678  0.4903 -0.3768
  662MOL0     H87324   8.885   5.261   1.884  2.9112 -2.4964 -2.5190
  662MOL0     H87325   8.825   5.314   1.650 -2.6468 -0.8522  0.6418
  662MOL0     H87326   8.904   5.471   1.655 -1.0390  1.7118  0.9870
  662MOL0     H87327   8.673   5.440   1.844 -1.7363  2.1284 -0.0921
  662MOL0     H87328   8.712   5.581   1.749 -1.3786  0.1901 -1.9600
  662MOL0     H87329   8.645   5.441   1.535 -1.6240  3.4191 -0.5038
  662MOL0     H87330   8.520   5.493   1.644  0.5019  0.6196 -3.7452
  662MOL0     H87331   8.502   5.264   1.737  2.6764 -1.2895  1.8145
  662MOL0     H87332   8.645   5.213   1.649  0.5562  0.0188 -1.0314
  662MOL0     H87333   8.446   5.136   1.535 -1.4844 -0.7449 -1.4234
  662MOL0     H87334   8.394   5.310   1.519  2.2901  2.2720 -0.4092
  662MOL0     H87335   8.611   5.319   1.357  3.1700 -2.0083  1.2313
  662MOL0     H87336   8.488   5.200   1.298 -2.7243  0.0268  1.4368
  662MOL0     H87337   8.840   5.236   1.392 -1.1398  0.6662  0.3318
  662MOL0     H87338   9.017   5.008   1.281  0.2614 -0.0734 -0.3966
  662MOL0     H87339   8.996   4.871   1.382  3.0264  0.9765  0.1542
  662MOL0     H87340   9.062   5.005   1.583 -3.3047  1.8441 -0.2802
  662MOL0     H87341   9.073   5.151   1.494 -2.7955 -0.1523  4.1460
  662MOL0     H87342   9.256   4.914   1.446 -0.5030  0.1428 -3.6675
  662MOL0     H87343   9.245   5.062   1.348  1.7850  1.0444  0.4341
  662MOL0     H87344   9.280   5.210   1.553 -3.4661 -1.0331 -0.3712
  662MOL0     H87345   9.424   5.115   1.511  0.2498  0.0409 -0.2915
  662MOL0     H87346   9.519   5.222   1.667  3.1215 -2.7523 -1.7611
  662MOL0     H87347   9.676   5.259   1.862  1.2700 -2.3884 -4.5879
  662MOL0     H87348  10.004   5.329   2.062  1.7046 -0.1247 -0.1419
  662MOL0     H87349  10.179   5.341   2.237 -0.0476  0.3262  0.1459
  662MOL0     H87350  10.279   4.984   2.435 -0.4135  0.7210 -1.0303
  662MOL0     H87351  10.219   5.012   2.588 -2.0672  1.4142 -0.9140
  662MOL0     H87352  10.397   5.190   2.614 -2.7643 -1.1422 -0.0195
  662MOL0     H87353  10.483   5.130   2.470 -2.2220 -1.3521 -3.0863
  662MOL0     H87354  10.489   4.892   2.583  1.4702  0.2026 -0.7937
  662MOL0     H87355  10.420   4.976   2.726  0.7543 -0.1867  0.7490
  662MOL0     H87356  10.691   5.030   2.611  0.9206 -4.5495 -1.5195
  662MOL0     H87357  10.611   5.095   2.767 -0.3036  2.2453 -2.7311
  662MOL0     H87358  10.666   4.800   2.726  0.2943 -2.1451  2.8616
  662MOL0     H87359  10.619   4.894   2.865 -0.3269 -2.0177  0.2053
  662MOL0     H87360  10.827   5.045   2.822 -1.7310  0.8131 -2.9684
  662MOL0     H87361  10.900   4.919   2.734  1.3527 -4.5402  1.7954
  662MOL0     H87362  10.831   4.909   3.022  0.3522  1.5072 -0.1882
  662MOL0     H87363  10.889   4.764   2.916  0.0996 -0.2701 -1.5473
  662MOL0     H87364  11.022   5.036   2.953  1.1090 -1.0194 -0.3763
  662MOL0     H87365  11.078   4.909   2.846  0.0054 -0.0695  0.1544
  662MOL0     H87366  10.008   5.033   2.467  3.5875 -1.3006 -0.3347
  662MOL0     H87367   9.806   5.031   2.314 -2.3976  3.6368  0.1535
  662MOL0     H87368   9.436   4.972   2.088  0.2516 -0.1362 -0.5149
  662MOL0     H87369   9.294   4.956   1.910  0.3734 -0.9565 -0.1180
  662MOL0     H87370   9.168   5.283   2.070 -0.3947  0.3245  1.7701
  662MOL0     H87371   9.323   5.308   2.257  1.8036 -1.9563 -1.6542
  662MOL0     H87372   9.704   5.380   2.395 -1.3897  0.4646 -1.8859
  662MOL0     H87373   9.914   5.375   2.536  1.1498  1.3653  0.1641
  662MOL0     H87374  10.246   5.529   2.637  0.7667 -3.1191 -0.6336
  662MOL0     H87375  10.137   5.418   2.565 -3.3888  0.3341  0.0615
  662MOL0     H87376  10.165   5.508   2.847  1.3637 -4.3598  1.3435
  662MOL0     H87377  10.001   5.459   2.781 -1.0747  0.1231 -4.9381
  662MOL0     H87378  10.264   5.307   2.789 -1.2917 -1.6136 -2.1252
  662MOL0     H87379  10.125   5.247   2.693  1.6674 -2.3896 -1.2054
  662MOL0     H87380  10.118   5.278   2.999 -0.0671 -0.6260 -0.8348
  662MOL0     H87381   9.991   5.217   2.902 -0.9491 -1.9210  2.9770
  662MOL0     H87382  10.240   4.886   2.954  0.0083 -0.1252 -0.0057
  662MOL0     H87383   9.923   5.802   2.526  2.7879 -1.1395 -0.7911
  662MOL0     H87384   9.709   5.810   2.421  1.4764  0.4690  2.1029
  663MOL0     O87385   9.450  10.704   0.580  0.3549  0.5509 -0.1339
  663MOL0     C87386   9.370  10.770   0.655 -0.3650  0.1304  0.7861
  663MOL0     O87387   9.394  10.830   0.774 -0.4500  0.1602  0.5174
  663MOL0     C87388   9.519  10.833   0.834  0.1900  0.3119 -0.1175
  663MOL0     C87389   9.523  10.919   0.944  0.3947  0.2763 -0.4300
  663MOL0     C87390   9.633  10.922   1.030 -0.1002 -0.1585  0.2770
  663MOL0     C87391   9.753  10.853   0.994  0.3951 -0.1209 -0.5516
  663MOL0     O87392   9.870  10.855   1.057  1.0985  0.3047  0.1623
  663MOL0     C87393   9.887  10.909   1.187 -0.8839 -0.5176 -0.1005
  663MOL0     C87394  10.042  10.903   1.203  0.1425  0.8620  0.6811
  663MOL0     C87395  10.083  10.925   1.350  0.7373 -0.0181  0.2223
  663MOL0     C87396  10.235  10.896   1.363  0.0948  0.6325 -0.2285
  663MOL0     C87397  10.275  10.936   1.500  0.1723 -0.5473  0.5576
  663MOL0     C87398  10.426  10.910   1.512  0.5663  0.4304 -0.2327
  663MOL0     C87399  10.471  10.913   1.659 -0.1490 -0.0807 -0.2517
  663MOL0     C87400  10.432  10.781   1.732 -0.0048  0.2444 -0.0324
  663MOL0     N87401  10.531  10.673   1.726 -0.2401  0.6931 -0.2679
  663MOL0     C87402  10.598  10.616   1.612 -0.7972 -1.0757 -0.6631
  663MOL0     C87403  10.686  10.522   1.663  0.1735  0.8500  0.0250
  663MOL0     C87404  10.786  10.431   1.580  0.6144  0.4357 -0.3713
  663MOL0     C87405  10.709  10.362   1.468  0.7960 -1.1712 -0.6752
  663MOL0     C87406  10.801  10.277   1.384  0.3241  0.6765 -1.0170
  663MOL0     C87407  10.734  10.182   1.281  0.8088 -0.6965 -0.2598
  663MOL0     O87408  10.638  10.257   1.195  0.0422  0.4617  0.2183
  663MOL0     C87409  10.670  10.298   1.070  0.2197  0.0463  0.2044
  663MOL0     C87410  10.789  10.273   1.001  0.0687 -1.4705 -0.1711
  663MOL0     C87411  10.817  10.343   0.881  0.0104 -0.3903 -0.3435
  663MOL0     C87412  10.712  10.421   0.820  0.0019  0.6405 -0.6794
  663MOL0     C87413  10.735  10.482   0.687  0.1667  0.2293  1.3084
  663MOL0     O87414  10.849  10.440   0.612 -0.5670  0.2192 -0.6060
  663MOL0     C87415  10.901  10.530   0.523 -0.6886 -0.5939 -0.2248
  663MOL0     C87416  10.929  10.667   0.558  0.0393  0.2078  0.1798
  663MOL0     C87417  11.017  10.742   0.475 -0.3392  0.0075 -0.0914
  663MOL0     C87418  11.045  10.700   0.347 -0.1277  0.1387  0.1622
  663MOL0     O87419  11.094  10.789   0.262  0.0945  0.3687  0.8698
  663MOL0     C87420  11.193  10.745   0.169  0.3553  0.1715  0.4315
  663MOL0     C87421  11.264  10.863   0.113 -0.9206 -0.2767  0.0849
  663MOL0     C87422  11.350  10.944   0.219 -0.0499 -0.5359 -0.5930
  663MOL0     C87423  11.420  11.054   0.142 -0.1706  0.8193  0.5934
  663MOL0     C87424  11.526  11.127   0.237 -0.5130 -0.9078  0.3688
  663MOL0     C87425  11.603  11.243   0.158  0.6323  0.3115  0.3713
  663MOL0     C87426  11.663  11.336   0.266  0.6097  0.4327  0.8046
  663MOL0     C87427  11.664  11.477   0.212 -0.1297 -0.0533  0.6718
  663MOL0    Cl87428  11.738  11.476   0.051 -0.1312 -0.1538  0.5922
  663MOL0     C87429  11.001  10.574   0.308  0.7692 -0.2993  0.7243
  663MOL0     C87430  10.940  10.489   0.396  1.2263  0.0704  0.4435
  663MOL0     O87431  10.655  10.566   0.651 -0.3472  0.2341 -0.0176
  663MOL0     C87432  10.587  10.427   0.887 -0.3483 -0.1756  0.9540
  663MOL0     C87433  10.571  10.363   1.006  0.8588 -0.3897  0.5806
  663MOL0     N87434  10.682  10.540   1.793 -0.4982 -0.8291 -0.3536
  663MOL0     N87435  10.601  10.633   1.833 -0.3650  0.0198  0.1166
  663MOL0     C87436   9.756  10.765   0.880  0.1948 -0.1874 -0.0952
  663MOL0     C87437   9.634  10.746   0.807 -1.1147  0.2277  0.1802
  663MOL0     C87438   9.228  10.793   0.605  0.6063 -1.0953 -0.2451
  663MOL0     C87439   9.141  10.865   0.690 -0.3009  0.3539 -0.3207
  663MOL0     C87440   9.006  10.879   0.663 -0.0673  0.1316 -0.9422
  663MOL0     C87441   8.949  10.827   0.551  0.5379 -0.0831 -0.6052
  663MOL0     O87442   8.812  10.824   0.536  0.2197  0.3183  0.2484
  663MOL0     C87443   8.749  10.954   0.548  0.4331  0.8225  0.3813
  663MOL0     C87444   8.604  10.955   0.495  0.5908  0.0298  0.1095
  663MOL0     C87445   8.592  10.961   0.349 -0.5562 -0.2391 -0.3567
  663MOL0     C87446   8.443  10.962   0.294  0.5304  0.6176  0.7693
  663MOL0     C87447   8.429  11.023   0.169 -0.5218 -0.0063  1.2590
  663MOL0     C87448   8.387  11.066   0.061  0.0736  0.1746 -0.8737
  663MOL0     C87449   9.038  10.763   0.460  0.3403  0.1542  0.1007
  663MOL0     C87450   9.178  10.750   0.490 -0.3456 -0.1935  0.2817
  663MOL0     H87451   9.431  10.973   0.965 -0.1732  0.0444 -2.1507
  663MOL0     H87452   9.643  10.986   1.116  0.6036  1.0039 -0.6379
  663MOL0     H87453   9.843  10.850   1.268  1.6646 -0.1412  1.6765
  663MOL0     H87454   9.866  11.016   1.194 -2.8136 -0.7730 -1.3212
  663MOL0     H87455  10.085  10.973   1.132  0.8210 -0.7145 -0.5220
  663MOL0     H87456  10.094  10.808   1.188  2.4198  1.7387  2.4395
  663MOL0     H87457  10.031  10.861   1.421 -2.3244  0.7634 -1.1425
  663MOL0     H87458  10.056  11.026   1.383 -2.3138 -0.4961 -0.5149
  663MOL0     H87459  10.248  10.789   1.345 -0.1623  0.0637  2.5906
  663MOL0     H87460  10.300  10.944   1.289  0.9766  0.5110  0.4590
  663MOL0     H87461  10.211  10.883   1.571 -1.3706  0.0606 -0.3386
  663MOL0     H87462  10.269  11.045   1.502 -1.4476 -0.4853 -2.6004
  663MOL0     H87463  10.478  10.992   1.461 -0.0092  0.4754 -0.7590
  663MOL0     H87464  10.450  10.815   1.465 -0.0983 -0.6064  1.4418
  663MOL0     H87465  10.575  10.938   1.681 -0.5665  1.4125  0.1117
  663MOL0     H87466  10.414  10.994   1.706  1.1228  0.9614 -0.4553
  663MOL0     H87467  10.334  10.745   1.700 -0.4964  0.6934  0.9103
  663MOL0     H87468  10.416  10.794   1.840  2.6128 -1.5002  0.6557
  663MOL0     H87469  10.587  10.648   1.509 -0.5807 -1.6193 -0.8568
  663MOL0     H87470  10.834  10.356   1.643  1.0466  0.6454 -0.4481
  663MOL0     H87471  10.868  10.490   1.539  0.4757 -0.1420 -1.4924
  663MOL0     H87472  10.651  10.430   1.405  1.9770  0.5247 -0.0158
  663MOL0     H87473  10.641  10.296   1.523  2.1034 -2.0460 -0.0586
  663MOL0     H87474  10.865  10.346   1.329  1.4342  3.0532  2.8435
  663MOL0     H87475  10.877  10.222   1.441  4.9271  4.2685 -2.9930
  663MOL0     H87476  10.679  10.103   1.333 -1.9046  0.2023 -1.5887
  663MOL0     H87477  10.811  10.138   1.217 -1.5883 -1.5762 -2.7347
  663MOL0     H87478  10.873  10.216   1.040  1.5980  2.8655  3.7903
  663MOL0     H87479  10.912  10.332   0.830  0.3102  1.4838 -0.2505
  663MOL0     H87480  10.897  10.721   0.647  1.5896  0.9030  0.3413
  663MOL0     H87481  11.056  10.840   0.501 -1.5903  0.3705  0.5186
  663MOL0     H87482  11.140  10.697   0.087 -0.1480 -0.5875  1.1828
  663MOL0     H87483  11.269  10.688   0.223 -0.2613 -1.4487 -0.3552
  663MOL0     H87484  11.183  10.926   0.075 -1.6811 -0.9469  0.5440
  663MOL0     H87485  11.324  10.835   0.026 -0.4110 -3.9946  1.4358
  663MOL0     H87486  11.417  10.873   0.266 -1.3410 -1.2029  0.3051
  663MOL0     H87487  11.284  10.988   0.295 -0.2319 -1.0640 -0.4434
  663MOL0     H87488  11.480  11.012   0.061  0.2270  2.4130  0.0238
  663MOL0     H87489  11.344  11.121   0.101  0.0233  0.2124 -0.8069
  663MOL0     H87490  11.605  11.069   0.286  0.9291 -0.0208 -0.8286
  663MOL0     H87491  11.467  11.178   0.313 -0.9487 -0.2847 -0.3688
  663MOL0     H87492  11.537  11.300   0.091 -0.1123 -0.0898  0.7620
  663MOL0     H87493  11.674  11.196   0.089 -0.2883 -1.3940  0.5582
  663MOL0     H87494  11.600  11.336   0.355 -1.3393  0.1691 -0.4997
  663MOL0     H87495  11.765  11.306   0.291  0.8875 -2.7226 -3.0852
  663MOL0     H87496  11.716  11.541   0.283 -0.0189  0.1991  0.3631
  663MOL0     H87497  11.567  11.521   0.188 -0.3312 -1.5103 -1.5189
  663MOL0     H87498  11.026  10.518   0.218  2.4591  0.9651  0.3476
  663MOL0     H87499  10.917  10.385   0.374  0.8458 -0.5000  3.1152
  663MOL0     H87500  10.505  10.466   0.828  2.6470  0.8009 -2.9669
  663MOL0     H87501  10.478  10.386   1.056  1.0006  0.3503  0.5207
  663MOL0     H87502   9.837  10.694   0.867 -1.6857 -2.4043 -0.3500
  663MOL0     H87503   9.628  10.660   0.741  1.0514  0.8826 -0.9771
  663MOL0     H87504   9.186  10.915   0.775  1.8568 -0.0239 -1.1711
  663MOL0     H87505   8.948  10.926   0.742  1.3699  1.1682 -0.4509
  663MOL0     H87506   8.792  11.024   0.477  0.1483 -0.0851 -0.7209
  663MOL0     H87507   8.741  10.998   0.648 -0.5756  0.3098  0.5432
  663MOL0     H87508   8.564  10.861   0.532 -1.5446  1.1226  0.7206
  663MOL0     H87509   8.552  11.041   0.540  1.8879  0.5128  0.7721
  663MOL0     H87510   8.636  10.871   0.305 -1.0117 -0.0216 -1.2914
  663MOL0     H87511   8.655  11.048   0.328 -0.5965  0.5485  2.3878
  663MOL0     H87512   8.413  10.861   0.263 -0.0437  1.1660 -0.5370
  663MOL0     H87513   8.370  10.995   0.368 -0.0414  1.7053 -0.2582
  663MOL0     H87514   8.366  11.116  -0.031 -0.9515  0.1679 -0.6554
  663MOL0     H87515   8.991  10.709   0.379 -2.3800 -0.3360  1.8466
  663MOL0     H87516   9.241  10.703   0.415  3.1543  4.4235 -0.0940
  664MOL0     O87517   3.398  11.360  10.585 -0.4326 -0.6363 -0.4097
  664MOL0     C87518   3.389  11.367  10.461 -0.6793  0.2714 -0.7500
  664MOL0     O87519   3.286  11.432  10.395  0.5671 -0.0291 -0.3575
  664MOL0     C87520   3.180  11.471  10.477 -0.3356  0.4598  0.6309
  664MOL0     C87521   3.070  11.394  10.482 -0.4620 -1.0241  0.2495
  664MOL0     C87522   2.956  11.446  10.544 -0.4717  0.0931 -0.3848
  664MOL0     C87523   2.950  11.576  10.599  0.2953 -1.2035  0.6796
  664MOL0     O87524   2.854  11.632  10.674  0.2609 -0.4683 -0.2589
  664MOL0     C87525   2.719  11.567  10.685 -0.4053  0.0722 -0.3465
  664MOL0     C87526   2.634  11.638  10.787 -0.1000 -0.0213 -0.4054
  664MOL0     C87527   2.621  11.783  10.738 -0.0075 -0.3117  0.0972
  664MOL0     C87528   2.557  11.873  10.838  0.0654  0.5892 -0.4628
  664MOL0     C87529   2.518  12.012  10.779 -0.0268  0.4753 -0.6043
  664MOL0     C87530   2.640  12.097  10.733  0.2167  0.2532 -0.0759
  664MOL0     C87531   2.739  12.135  10.839  0.1227 -0.7929  0.0401
  664MOL0     C87532   2.863  12.216  10.777  0.5596 -0.3249  0.0456
  664MOL0     N87533   2.824  12.331  10.693  0.1009 -0.2850  0.4301
  664MOL0     C87534   2.793  12.313  10.563  0.2126 -0.3758 -0.6372
  664MOL0     C87535   2.762  12.436  10.517 -0.8761  0.0660  0.3844
  664MOL0     C87536   2.738  12.473  10.378  0.1432 -0.3927  0.4455
  664MOL0     C87537   2.869  12.474  10.292 -0.1017 -0.3220  0.4977
  664MOL0     C87538   2.982  12.575  10.332 -0.0914  0.2820  0.1319
  664MOL0     C87539   2.935  12.711  10.367 -0.3959  0.4189  0.0617
  664MOL0     O87540   2.898  12.751  10.238 -0.5299 -0.1993  0.5127
  664MOL0     C87541   2.806  12.856  10.226 -0.1225  0.6120 -0.4417
  664MOL0     C87542   2.787  12.895  10.094 -0.1065  0.1291 -0.6393
  664MOL0     C87543   2.715  13.014  10.067 -0.2833  0.3003  0.4621
  664MOL0     C87544   2.651  13.087  10.174 -0.2083 -0.4838  0.7101
  664MOL0     C87545   2.576  13.209  10.145 -0.6151 -0.6780 -0.0682
  664MOL0     O87546   2.576  13.246  10.016 -0.0480 -0.1950  0.1009
  664MOL0     C87547   2.540  13.372   9.982  0.3525 -0.5686  0.0227
  664MOL0     C87548   2.409  13.406   9.973 -0.0665  0.6166 -0.3226
  664MOL0     C87549   2.365  13.522   9.918  0.4920 -0.3840 -0.3889
  664MOL0     C87550   2.454  13.621   9.878 -0.3503  0.7365 -0.0348
  664MOL0     O87551   2.408  13.743   9.838 -0.3953 -0.4557  0.3431
  664MOL0     C87552   2.446  13.850   9.914 -0.1389 -0.9404  0.1533
  664MOL0     C87553   2.354  13.897  10.025 -0.1782  0.8417 -0.1820
  664MOL0     C87554   2.402  14.019  10.100  0.2729  0.1062 -0.4389
  664MOL0     C87555   2.330  14.018  10.233 -0.6356  0.9160 -0.1571
  664MOL0     C87556   2.340  14.149  10.318 -0.9720 -0.1051 -0.6327
  664MOL0     C87557   2.470  14.227  10.315 -0.3978  0.5230  0.1356
  664MOL0     C87558   2.528  14.254  10.457 -0.7479 -0.6202  0.5984
  664MOL0     C87559   2.608  14.148  10.527  0.3310 -0.0705 -0.0364
  664MOL0    Cl87560   2.491  14.044  10.623  0.1904 -0.0725  0.0813
  664MOL0     C87561   2.592  13.589   9.883  0.3189  0.6858 -0.1998
  664MOL0     C87562   2.641  13.463   9.934  0.3772 -0.3038  0.3645
  664MOL0     O87563   2.525  13.274  10.237  0.8526  0.2534  0.3099
  664MOL0     C87564   2.671  13.035  10.306 -1.0965 -0.2415 -0.7926
  664MOL0     C87565   2.750  12.925  10.337 -0.3366 -0.2609  0.8025
  664MOL0     N87566   2.797  12.533  10.610 -0.0121  0.4714 -0.2556
  664MOL0     N87567   2.835  12.468  10.723 -0.4915  1.4501  0.9237
  664MOL0     C87568   3.051  11.661  10.571 -0.7182  0.4419  0.5355
  664MOL0     C87569   3.166  11.606  10.508 -0.0919 -0.1387 -0.2342
  664MOL0     C87570   3.495  11.301  10.375 -0.5425 -0.5780  0.7595
  664MOL0     C87571   3.511  11.361  10.251 -0.0284  0.0755 -0.4817
  664MOL0     C87572   3.606  11.312  10.166  0.3488 -0.3783  0.7412
  664MOL0     C87573   3.690  11.205  10.199  0.2863 -0.0124  0.1558
  664MOL0     O87574   3.780  11.144  10.116  0.2121  0.1446 -0.8153
  664MOL0     C87575   3.811  11.184   9.980 -0.7722  0.4974 -0.0677
  664MOL0     C87576   3.877  11.329   9.979 -0.4539  0.0716  0.1425
  664MOL0     C87577   3.851  11.406   9.843 -0.5872 -0.3463 -0.4332
  664MOL0     C87578   3.949  11.522   9.850  0.0156 -0.2939 -0.3741
  664MOL0     C87579   3.884  11.631   9.926  0.3074 -0.0739 -0.0606
  664MOL0     C87580   3.846  11.732   9.986  0.8980  0.1324  0.0520
  664MOL0     C87581   3.666  11.141  10.317  0.5024 -0.9857  0.4335
  664MOL0     C87582   3.579  11.193  10.415 -0.2904  0.0845  0.0342
  664MOL0     H87583   3.077  11.290  10.449  3.0882 -0.7723 -0.1639
  664MOL0     H87584   2.876  11.374  10.558  1.4355 -2.4263 -1.5598
  664MOL0     H87585   2.732  11.460  10.698 -0.2676 -0.0552 -1.4058
  664MOL0     H87586   2.671  11.575  10.586 -3.1902 -3.4826  0.4979
  664MOL0     H87587   2.686  11.627  10.882 -0.1935  0.1674 -0.3328
  664MOL0     H87588   2.531  11.606  10.799  0.1212 -0.4664  0.3418
  664MOL0     H87589   2.562  11.784  10.645  0.7695  0.8187 -0.4158
  664MOL0     H87590   2.721  11.821  10.715  0.9365 -3.7229 -2.2558
  664MOL0     H87591   2.460  11.835  10.872 -0.1198  2.3884  1.2272
  664MOL0     H87592   2.626  11.895  10.920 -1.0668  4.8773 -0.4041
  664MOL0     H87593   2.459  12.074  10.847 -0.3727  0.7693 -1.1662
  664MOL0     H87594   2.453  11.975  10.699  0.3806 -0.5300 -0.4916
  664MOL0     H87595   2.602  12.190  10.690 -1.8863  0.9353  2.9444
  664MOL0     H87596   2.690  12.045  10.650 -0.1218  1.2759 -0.9534
  664MOL0     H87597   2.697  12.203  10.914 -0.7670 -1.1904 -0.0902
  664MOL0     H87598   2.772  12.048  10.895  4.0788  0.7493  0.4143
  664MOL0     H87599   2.928  12.153  10.716  0.8456  0.4185 -0.4307
  664MOL0     H87600   2.918  12.250  10.866  0.5866 -0.2045 -0.0166
  664MOL0     H87601   2.786  12.214  10.519 -4.2899 -0.9426  0.7532
  664MOL0     H87602   2.687  12.569  10.366  1.5240  0.0741 -2.2681
  664MOL0     H87603   2.664  12.404  10.337  1.4250 -0.5973 -1.6378
  664MOL0     H87604   2.852  12.493  10.185  3.0087  0.2434 -0.0191
  664MOL0     H87605   2.919  12.379  10.313  2.7425  0.7160 -0.9953
  664MOL0     H87606   3.036  12.532  10.417 -0.9887  0.2111  0.6733
  664MOL0     H87607   3.047  12.581  10.244  0.3876  2.1243  0.5652
  664MOL0     H87608   3.011  12.779  10.408  1.8432 -1.4933 -0.6729
  664MOL0     H87609   2.851  12.717  10.437  0.0023 -1.2503  0.7325
  664MOL0     H87610   2.850  12.844  10.022 -0.5086 -0.7200 -0.4048
  664MOL0     H87611   2.705  13.037   9.962 -2.6944 -4.0628 -0.4637
  664MOL0     H87612   2.343  13.324  10.001  3.1395 -1.2830  2.5510
  664MOL0     H87613   2.262  13.556   9.913  1.1578  1.7697 -0.4212
  664MOL0     H87614   2.445  13.929   9.838 -2.4533 -0.8343  0.2225
  664MOL0     H87615   2.543  13.837   9.963  0.6345  0.0710 -1.0204
  664MOL0     H87616   2.334  13.803  10.078  3.7120 -1.6561 -2.6391
  664MOL0     H87617   2.260  13.917   9.973  0.4742  0.3201 -1.6217
  664MOL0     H87618   2.365  14.107  10.045  0.1402  0.1610 -0.2623
  664MOL0     H87619   2.510  14.018  10.112  0.3379 -0.5504 -0.9690
  664MOL0     H87620   2.223  13.999  10.222 -0.6371  1.7308 -1.8913
  664MOL0     H87621   2.371  13.940  10.297 -0.3044  1.9810  0.9634
  664MOL0     H87622   2.333  14.120  10.423 -1.8925 -2.5860 -1.3072
  664MOL0     H87623   2.250  14.206  10.294 -0.4466  0.6872 -0.7663
  664MOL0     H87624   2.440  14.316  10.260 -2.6050 -0.6609 -0.6950
  664MOL0     H87625   2.542  14.166  10.259 -1.5732  0.5549 -1.4673
  664MOL0     H87626   2.599  14.334  10.436 -2.7793  1.0449 -0.3196
  664MOL0     H87627   2.445  14.285  10.521  0.3364  2.6994  0.5669
  664MOL0     H87628   2.690  14.181  10.591  1.5119 -0.5170 -1.2646
  664MOL0     H87629   2.656  14.086  10.451  0.9824  2.8370 -2.1809
  664MOL0     H87630   2.667  13.650   9.834 -0.7264 -0.1342 -2.9763
  664MOL0     H87631   2.743  13.428   9.945  0.5553  1.1538  6.0436
  664MOL0     H87632   2.633  13.087  10.394  0.3717 -2.2224  1.1242
  664MOL0     H87633   2.758  12.902  10.442 -2.2239  0.4300  1.1393
  664MOL0     H87634   3.051  11.766  10.598 -1.1652  0.2609  1.2619
  664MOL0     H87635   3.242  11.674  10.472  3.5726 -3.0784  1.2733
  664MOL0     H87636   3.449  11.444  10.217 -2.5545 -0.4606  2.3586
  664MOL0     H87637   3.610  11.341  10.061  0.4593 -1.8127  0.3267
  664MOL0     H87638   3.725  11.180   9.913 -2.2696 -0.2409  1.8221
  664MOL0     H87639   3.883  11.114   9.937  2.3000  2.9943  0.6622
  664MOL0     H87640   3.835  11.373  10.070  1.1099  0.1078  0.8769
  664MOL0     H87641   3.983  11.310   9.997 -0.6851  0.3968  1.9617
  664MOL0     H87642   3.745  11.435   9.848 -0.8142 -0.5793 -2.8314
  664MOL0     H87643   3.868  11.341   9.757  0.6470  0.7614 -1.0492
  664MOL0     H87644   4.037  11.489   9.906  0.0266  1.3998  0.6783
  664MOL0     H87645   3.976  11.547   9.747 -1.9729 -2.2065 -1.4466
  664MOL0     H87646   3.821  11.821  10.041  2.5149 -0.4347  1.8356
  664MOL0     H87647   3.727  11.052  10.326  1.5272 -0.8296 -3.2287
  664MOL0     H87648   3.570  11.146  10.512  0.2703  0.0854  0.0936
  665MOL0     O87649   4.031   7.225   6.169  0.1425 -0.1019  0.7542
  665MOL0     C87650   4.084   7.324   6.119 -0.1186 -0.8246  0.4304
  665MOL0     O87651   4.038   7.449   6.115 -0.3373  0.0091 -0.7165
  665MOL0     C87652   3.917   7.485   6.163  0.5343 -0.8018 -0.4404
  665MOL0     C87653   3.923   7.581   6.263  0.6732  0.3318 -0.0640
  665MOL0     C87654   3.805   7.606   6.336 -0.5806 -0.2564  0.3928
  665MOL0     C87655   3.684   7.542   6.299 -0.0309 -1.2301 -0.5433
  665MOL0     O87656   3.575   7.558   6.384 -0.0692 -0.2728  0.3258
  665MOL0     C87657   3.575   7.487   6.513  0.1775 -0.1649 -0.3232
  665MOL0     C87658   3.439   7.502   6.569 -0.3924 -0.0563  0.4412
  665MOL0     C87659   3.434   7.450   6.715 -0.2179  0.0335 -0.6495
  665MOL0     C87660   3.314   7.514   6.794 -0.6626 -0.3359 -0.1553
  665MOL0     C87661   3.331   7.510   6.948 -0.2326 -0.5530  0.2003
  665MOL0     C87662   3.311   7.375   7.012  0.4901 -1.0562 -0.0759
  665MOL0     C87663   3.267   7.375   7.158 -0.3075 -0.3715 -0.1690
  665MOL0     C87664   3.281   7.237   7.217 -0.6340 -0.5674  0.6753
  665MOL0     N87665   3.276   7.232   7.362 -0.1138 -0.0397  0.7507
  665MOL0     C87666   3.185   7.150   7.432 -0.5885  0.3224 -0.0509
  665MOL0     C87667   3.209   7.189   7.561  1.0279  1.0839 -0.4776
  665MOL0     C87668   3.137   7.113   7.682 -0.5241 -0.5176 -0.1173
  665MOL0     C87669   3.220   6.999   7.745  0.8939 -1.2984  0.8131
  665MOL0     C87670   3.351   7.048   7.818 -0.4804 -0.9159  0.0626
  665MOL0     C87671   3.314   7.128   7.943 -0.0756 -0.2293 -0.1231
  665MOL0     O87672   3.224   7.051   8.021 -0.0330 -0.7985  0.5653
  665MOL0     C87673   3.182   7.096   8.142 -0.0135 -0.2540 -0.7457
  665MOL0     C87674   3.078   7.035   8.208  0.7562  0.7108 -0.4870
  665MOL0     C87675   3.038   7.075   8.342 -1.0091  0.8991  0.2467
  665MOL0     C87676   3.096   7.185   8.410 -0.0540 -0.5494 -0.2578
  665MOL0     C87677   3.055   7.229   8.555 -0.8859  0.3185  0.9331
  665MOL0     O87678   2.925   7.198   8.595 -0.0380 -0.1820 -0.4999
  665MOL0     C87679   2.866   7.282   8.680  0.0243 -0.3321 -1.0826
  665MOL0     C87680   2.896   7.279   8.817 -1.7904 -0.2423 -0.0980
  665MOL0     C87681   2.834   7.356   8.913  0.2437 -0.1770 -0.1279
  665MOL0     C87682   2.751   7.459   8.864 -1.2357 -0.7181  0.1699
  665MOL0     O87683   2.697   7.566   8.939  0.2764  0.2330 -0.2437
  665MOL0     C87684   2.756   7.594   9.068  0.6557 -0.2324  0.6554
  665MOL0     C87685   2.686   7.720   9.137 -0.1015  0.0458  0.1444
  665MOL0     C87686   2.714   7.854   9.071  0.0698 -0.1426 -0.1474
  665MOL0     C87687   2.864   7.905   9.087  0.7455 -0.3061  0.5262
  665MOL0     C87688   2.901   8.042   9.028  0.5496  0.6346  1.5435
  665MOL0     C87689   2.814   8.158   9.078 -0.5250 -0.5532  1.1682
  665MOL0     C87690   2.805   8.172   9.231  0.0487  0.6275 -0.1471
  665MOL0     C87691   2.754   8.317   9.257 -0.4917  0.2631  0.6045
  665MOL0    Cl87692   2.858   8.445   9.170  0.0083 -0.0537  0.4923
  665MOL0     C87693   2.713   7.470   8.726 -0.5576  0.1773  0.1328
  665MOL0     C87694   2.766   7.377   8.636 -0.8560  0.0842 -0.0843
  665MOL0     O87695   3.142   7.292   8.622 -0.5332 -0.3016 -0.0095
  665MOL0     C87696   3.204   7.241   8.342  0.5985 -0.4797  0.3887
  665MOL0     C87697   3.241   7.205   8.215  0.7203  0.2176 -0.3777
  665MOL0     N87698   3.313   7.281   7.565  0.1854  0.3206 -1.1965
  665MOL0     N87699   3.353   7.290   7.449 -0.2094  0.2586 -1.1567
  665MOL0     C87700   3.672   7.467   6.182 -0.8868  0.5266  1.1971
  665MOL0     C87701   3.794   7.439   6.114 -0.4388  0.2671  0.4169
  665MOL0     C87702   4.228   7.304   6.074  0.1863  1.1429  0.1914
  665MOL0     C87703   4.283   7.401   5.991  0.0670 -0.9032  0.4836
  665MOL0     C87704   4.400   7.387   5.926 -0.0024 -0.4309  0.5378
  665MOL0     C87705   4.475   7.270   5.934  0.2936 -0.5053 -0.4499
  665MOL0     O87706   4.579   7.213   5.863  0.0565  0.8262  0.2740
  665MOL0     C87707   4.652   7.312   5.777  0.2961 -0.0527  0.0549
  665MOL0     C87708   4.755   7.225   5.705 -0.1318  0.2564  0.0530
  665MOL0     C87709   4.681   7.141   5.598  0.3300  0.4259 -0.2109
  665MOL0     C87710   4.764   7.087   5.483 -0.3631  0.5101  0.2855
  665MOL0     C87711   4.883   7.021   5.541  0.3522  0.0855 -0.7612
  665MOL0     C87712   4.976   6.967   5.589 -0.0635  0.3052 -0.7898
  665MOL0     C87713   4.424   7.172   6.018 -0.4124  0.2103  0.3762
  665MOL0     C87714   4.303   7.191   6.097  0.0921  0.0274 -1.0868
  665MOL0     H87715   4.010   7.643   6.281 -1.3794  3.0602  1.1933
  665MOL0     H87716   3.809   7.668   6.425 -2.2067  0.8931 -0.2777
  665MOL0     H87717   3.651   7.533   6.577 -0.3122  2.3575 -1.4111
  665MOL0     H87718   3.598   7.381   6.502  0.6831 -0.4346  2.5553
  665MOL0     H87719   3.382   7.438   6.502  0.5914  0.1952 -0.6597
  665MOL0     H87720   3.408   7.607   6.570  1.7938  0.6430  0.4372
  665MOL0     H87721   3.528   7.476   6.765 -1.6454  1.6430  1.3649
  665MOL0     H87722   3.443   7.341   6.711  1.3802  0.1645 -1.3810
  665MOL0     H87723   3.302   7.619   6.770  0.8984 -0.5635 -2.1627
  665MOL0     H87724   3.225   7.462   6.759 -0.1584 -1.4147  0.1023
  665MOL0     H87725   3.273   7.588   6.999  1.1290 -0.3195  1.4299
  665MOL0     H87726   3.431   7.547   6.972 -0.2267 -0.2996 -0.1944
  665MOL0     H87727   3.414   7.337   7.003  0.1085 -2.8868  2.3810
  665MOL0     H87728   3.240   7.312   6.957 -1.0430 -0.9798  1.7340
  665MOL0     H87729   3.334   7.435   7.220  0.5550 -0.7618 -0.6991
  665MOL0     H87730   3.165   7.403   7.185  0.7431  1.8205  1.8874
  665MOL0     H87731   3.368   7.181   7.182 -0.8990 -0.3021 -0.4424
  665MOL0     H87732   3.193   7.183   7.179 -1.3882  1.1900 -0.1868
  665MOL0     H87733   3.136   7.057   7.405  3.7229 -1.8161 -1.4014
  665MOL0     H87734   3.045   7.065   7.647 -1.2286  0.0926  0.8616
  665MOL0     H87735   3.089   7.185   7.748 -2.6965 -0.8216 -1.2712
  665MOL0     H87736   3.246   6.938   7.657 -0.3026 -5.2527  2.9475
  665MOL0     H87737   3.153   6.931   7.798  0.2895 -1.1306  0.2738
  665MOL0     H87738   3.406   6.959   7.851 -0.2887 -1.3733 -1.4023
  665MOL0     H87739   3.416   7.111   7.757  3.5515 -0.8813  3.9227
  665MOL0     H87740   3.267   7.220   7.909  1.0113 -0.4369 -2.3456
  665MOL0     H87741   3.398   7.165   8.003 -0.4092 -0.9621  0.8310
  665MOL0     H87742   3.022   6.951   8.169  2.0106 -1.1397  1.5374
  665MOL0     H87743   2.962   7.013   8.388  0.7400 -1.7528 -0.2549
  665MOL0     H87744   2.953   7.191   8.846 -1.1192 -0.0162 -0.7004
  665MOL0     H87745   2.845   7.336   9.019 -0.3843  0.4943  0.0698
  665MOL0     H87746   2.864   7.605   9.057  0.4284  0.2069 -1.6810
  665MOL0     H87747   2.749   7.506   9.132  0.5914 -2.0325 -1.6884
  665MOL0     H87748   2.728   7.729   9.237 -1.1024 -1.9490  0.8109
  665MOL0     H87749   2.579   7.701   9.151 -0.2458  0.0063 -0.9172
  665MOL0     H87750   2.654   7.931   9.120  1.0606 -1.2357  3.0344
  665MOL0     H87751   2.684   7.859   8.966 -0.5520  2.0276  0.0954
  665MOL0     H87752   2.877   7.899   9.196  0.1069 -0.7404  0.5850
  665MOL0     H87753   2.929   7.824   9.054  1.1571 -0.8281  2.4996
  665MOL0     H87754   2.918   8.039   8.920  2.3505  0.9171  1.7988
  665MOL0     H87755   3.002   8.066   9.062  2.4548  2.6449 -4.2549
  665MOL0     H87756   2.715   8.150   9.031 -0.2880 -1.0862  0.7525
  665MOL0     H87757   2.862   8.246   9.035  0.1064 -1.6531 -0.4569
  665MOL0     H87758   2.740   8.097   9.276  1.0398  0.8369  1.7566
  665MOL0     H87759   2.906   8.160   9.273 -0.0261 -0.9288 -0.3456
  665MOL0     H87760   2.751   8.351   9.361 -1.1075  0.6453  0.4644
  665MOL0     H87761   2.655   8.332   9.213 -0.1175 -1.9880 -1.2280
  665MOL0     H87762   2.653   7.548   8.680 -2.0169 -0.5455  0.7264
  665MOL0     H87763   2.737   7.398   8.534  1.7498  5.5959 -0.0578
  665MOL0     H87764   3.256   7.324   8.389  1.4236  0.3266 -1.8131
  665MOL0     H87765   3.324   7.250   8.163  0.7300 -3.6696 -4.2637
  665MOL0     H87766   3.587   7.406   6.153 -0.4281 -0.2613  1.4709
  665MOL0     H87767   3.803   7.363   6.037  0.7738  0.3474  0.4600
  665MOL0     H87768   4.225   7.491   5.978  0.6112 -0.7280 -0.9193
  665MOL0     H87769   4.433   7.472   5.867  1.5411 -0.8775  0.7150
  665MOL0     H87770   4.700   7.394   5.831 -0.8523  2.5615 -2.6171
  665MOL0     H87771   4.591   7.372   5.709  2.3176  1.8866 -0.1595
  665MOL0     H87772   4.828   7.283   5.648  1.0069 -1.4651 -0.3170
  665MOL0     H87773   4.807   7.158   5.775 -0.8625 -0.0102  0.3565
  665MOL0     H87774   4.596   7.191   5.550 -0.5310  0.0182  0.8365
  665MOL0     H87775   4.629   7.061   5.651 -0.5504  0.5057 -0.9360
  665MOL0     H87776   4.710   7.007   5.432 -0.7250 -0.4992  2.1335
  665MOL0     H87777   4.799   7.169   5.421 -4.8106  1.4448 -1.3018
  665MOL0     H87778   5.055   6.898   5.607  1.2909  1.2908 -2.6356
  665MOL0     H87779   4.480   7.079   6.023  1.4164  1.2450  0.1517
  665MOL0     H87780   4.267   7.108   6.158  0.5581 -0.0339 -0.8908
  666MOL0     O87781   6.486   0.134  11.420 -0.4195  0.8569 -0.6277
  666MOL0     C87782   6.488   0.245  11.459 -0.6813 -0.6035 -1.3132
  666MOL0     O87783   6.426   0.280  11.572 -0.4330 -0.2676 -0.6079
  666MOL0     C87784   6.376   0.202  11.671  0.4193  0.5376  0.6815
  666MOL0     C87785   6.349   0.265  11.788 -0.1017  0.0879 -0.4341
  666MOL0     C87786   6.302   0.200  11.902 -0.2596  0.4920 -0.3106
  666MOL0     C87787   6.265   0.067  11.889 -0.3206 -0.5314 -0.0234
  666MOL0     O87788   6.193   0.013  11.990 -0.7008 -0.7705 -0.2503
  666MOL0     C87789   6.185  -0.127  12.008  0.0295  0.2031  0.2502
  666MOL0     C87790   6.072  -0.152  12.107  0.4087  0.0781 -0.5867
  666MOL0     C87791   6.137  -0.135  12.241 -0.3628 -0.5298  0.0751
  666MOL0     C87792   6.055  -0.211  12.343  0.4899 -0.0554 -0.8321
  666MOL0     C87793   6.114  -0.203  12.483  0.6425 -1.0234 -0.1280
  666MOL0     C87794   6.010  -0.214  12.601 -0.7483  0.1862 -0.1749
  666MOL0     C87795   5.917  -0.334  12.576  0.5496  0.8496 -0.5855
  666MOL0     C87796   5.846  -0.373  12.707 -0.4407  1.0183 -0.1448
  666MOL0     N87797   5.915  -0.478  12.780 -0.3808  0.2177 -0.1752
  666MOL0     C87798   5.963  -0.466  12.904 -0.3802 -0.1645  0.1764
  666MOL0     C87799   5.985  -0.594  12.947 -0.3775  0.0841  0.5188
  666MOL0     C87800   6.023  -0.633  13.082  0.7200 -0.4129 -0.3367
  666MOL0     C87801   6.150  -0.564  13.141  0.6646 -0.3152  0.2226
  666MOL0     C87802   6.181  -0.620  13.281  0.4236 -0.3717  0.8042
  666MOL0     C87803   6.265  -0.514  13.365 -0.2528 -0.8309 -0.2062
  666MOL0     O87804   6.186  -0.394  13.398 -1.1288 -0.4132  0.0127
  666MOL0     C87805   6.229  -0.304  13.490  0.2801 -0.8583 -0.3000
  666MOL0     C87806   6.150  -0.188  13.498 -0.2951 -0.2958  0.4027
  666MOL0     C87807   6.196  -0.080  13.580  0.0812 -0.0845 -0.4062
  666MOL0     C87808   6.318  -0.095  13.650  0.2917  0.6431 -0.2101
  666MOL0     C87809   6.372   0.002  13.729 -0.9708 -0.9031  0.1464
  666MOL0     O87810   6.462  -0.029  13.827  0.9189 -0.5822 -0.1644
  666MOL0     C87811   6.526   0.067  13.893  0.1905 -0.1543 -0.5341
  666MOL0     C87812   6.502   0.086  14.030  0.2076 -0.2434  0.0893
  666MOL0     C87813   6.575   0.184  14.098  0.7282 -0.3561 -0.0978
  666MOL0     C87814   6.666   0.268  14.033 -0.3803 -0.5619  0.0984
  666MOL0     O87815   6.741   0.364  14.092 -0.1154  0.4309 -0.3000
  666MOL0     C87816   6.687   0.481  14.147  0.4391 -1.0695 -0.8895
  666MOL0     C87817   6.802   0.562  14.197 -0.2740  0.1468 -0.1260
  666MOL0     C87818   6.929   0.571  14.108  0.3670  0.0455 -0.0440
  666MOL0     C87819   7.007   0.698  14.134 -0.2447  0.5230  0.9960
  666MOL0     C87820   7.132   0.695  14.037 -0.1603  0.3896 -0.7799
  666MOL0     C87821   7.225   0.813  14.068 -0.3645  1.0752 -0.2418
  666MOL0     C87822   7.172   0.949  14.060 -0.4504  0.9950  0.7781
  666MOL0     C87823   7.269   1.051  14.038 -0.0104 -1.7611 -0.0610
  666MOL0    Cl87824   7.176   1.204  14.014  0.3178 -0.0500  0.5139
  666MOL0     C87825   6.673   0.250  13.898  0.0815  0.2756  0.5097
  666MOL0     C87826   6.606   0.158  13.818 -0.4363  0.0300 -0.6488
  666MOL0     O87827   6.322   0.115  13.716  0.9456  0.7463  0.1612
  666MOL0     C87828   6.392  -0.213  13.641  0.8374  1.0091 -0.8571
  666MOL0     C87829   6.354  -0.313  13.550 -0.1519  0.5875  0.3077
  666MOL0     N87830   5.952  -0.678  12.852 -0.6219  0.7744  0.3756
  666MOL0     N87831   5.914  -0.614  12.751 -0.7425 -1.1976 -0.6457
  666MOL0     C87832   6.298  -0.007  11.774 -0.7900  0.7229 -0.3921
  666MOL0     C87833   6.348   0.061  11.667  0.6495  0.9190 -0.3535
  666MOL0     C87834   6.554   0.334  11.360 -0.3922  0.2259 -0.8164
  666MOL0     C87835   6.519   0.465  11.343 -0.6084 -1.0017  0.6632
  666MOL0     C87836   6.589   0.542  11.247 -0.1460 -0.8712  1.0266
  666MOL0     C87837   6.693   0.485  11.165  0.3919 -0.0844  0.5060
  666MOL0     O87838   6.766   0.567  11.083  0.6753 -1.1351 -0.5783
  666MOL0     C87839   6.905   0.571  11.082  0.7341 -0.6823 -0.4818
  666MOL0     C87840   6.935   0.511  10.948  0.4415  1.3438  0.1941
  666MOL0     C87841   7.072   0.549  10.900  0.2817  0.7346 -0.0451
  666MOL0     C87842   7.124   0.685  10.866  0.5010 -0.2832  0.1913
  666MOL0     C87843   7.056   0.757  10.761 -0.0512 -0.1799  0.0542
  666MOL0     C87844   6.990   0.814  10.676 -0.2934  0.3898 -0.4703
  666MOL0     C87845   6.723   0.346  11.184 -0.0831  0.0811  1.3213
  666MOL0     C87846   6.652   0.276  11.275 -0.0797 -0.2955 -0.4456
  666MOL0     H87847   6.374   0.369  11.808 -3.2933  0.5883  1.6839
  666MOL0     H87848   6.288   0.235  12.003  1.3959 -0.7679  0.4106
  666MOL0     H87849   6.279  -0.162  12.051  0.0730  1.1762  0.9952
  666MOL0     H87850   6.155  -0.184  11.920  1.2595 -0.0506 -0.0170
  666MOL0     H87851   6.019  -0.245  12.081  0.9086  0.2677 -2.3928
  666MOL0     H87852   5.986  -0.086  12.096  0.2068 -0.1584 -0.4596
  666MOL0     H87853   6.149  -0.028  12.259 -6.3271  0.2998  1.2647
  666MOL0     H87854   6.232  -0.189  12.247 -0.5838 -1.0505 -0.8357
  666MOL0     H87855   5.958  -0.161  12.345  0.8190  0.6111 -1.1495
  666MOL0     H87856   6.035  -0.314  12.312 -1.2117  0.4023 -1.3862
  666MOL0     H87857   6.165  -0.108  12.498 -2.1850  0.5513  0.1387
  666MOL0     H87858   6.193  -0.278  12.473  0.4994 -1.6000  2.3478
  666MOL0     H87859   5.952  -0.121  12.602 -0.7230  0.2708  2.7627
  666MOL0     H87860   6.076  -0.227  12.687  1.3429 -1.1818 -1.8697
  666MOL0     H87861   5.842  -0.299  12.505  1.4026 -0.0624 -1.9905
  666MOL0     H87862   5.952  -0.424  12.525 -0.3334  0.1440  0.0276
  666MOL0     H87863   5.742  -0.396  12.681 -0.5309 -0.1459  1.1801
  666MOL0     H87864   5.836  -0.281  12.765 -1.6469  0.5565  0.4111
  666MOL0     H87865   5.960  -0.379  12.968  0.8491  0.2005 -0.2377
  666MOL0     H87866   6.050  -0.739  13.084  0.6274 -0.4447 -0.7142
  666MOL0     H87867   5.943  -0.605  13.150  2.4428  1.3898  1.0691
  666MOL0     H87868   6.126  -0.457  13.141 -2.0084 -0.7422 -2.5925
  666MOL0     H87869   6.236  -0.586  13.078  1.3574  1.5394  0.4760
  666MOL0     H87870   6.092  -0.658  13.332 -0.0383 -0.8320 -0.2997
  666MOL0     H87871   6.243  -0.708  13.260 -0.1149 -0.4402 -0.5894
  666MOL0     H87872   6.350  -0.476  13.308  0.4363 -0.2130  1.1776
  666MOL0     H87873   6.307  -0.554  13.458 -0.1705  2.9459  1.5426
  666MOL0     H87874   6.064  -0.167  13.435  0.4865  3.1663  0.3033
  666MOL0     H87875   6.129   0.005  13.582 -0.3758 -0.4031 -1.3360
  666MOL0     H87876   6.445   0.014  14.088 -1.8734  0.2004 -1.3341
  666MOL0     H87877   6.560   0.202  14.204 -1.6929 -0.2653 -0.3962
  666MOL0     H87878   6.620   0.438  14.222 -1.5649 -0.9830 -2.5405
  666MOL0     H87879   6.627   0.533  14.072 -0.0429  1.3801  1.0273
  666MOL0     H87880   6.837   0.531  14.295  0.8593  2.7664  0.3603
  666MOL0     H87881   6.756   0.658  14.219 -0.2237 -0.1744  1.4744
  666MOL0     H87882   6.900   0.576  14.003  1.3494 -3.7291 -0.6512
  666MOL0     H87883   6.980   0.476  14.129 -0.4794  0.0717  2.4444
  666MOL0     H87884   6.954   0.794  14.127  1.9381  1.7437 -0.0542
  666MOL0     H87885   7.034   0.694  14.239  0.5656 -0.0114  0.7787
  666MOL0     H87886   7.107   0.699  13.930  2.0855 -0.7739 -1.4186
  666MOL0     H87887   7.182   0.600  14.056 -1.5435  0.1688  2.4161
  666MOL0     H87888   7.314   0.801  14.005 -0.2546  1.7026 -0.2167
  666MOL0     H87889   7.262   0.803  14.171  0.0775  1.0781 -0.3990
  666MOL0     H87890   7.103   0.950  13.975 -0.4344 -1.9205  0.6379
  666MOL0     H87891   7.112   0.971  14.149 -1.6898  0.5386  0.0767
  666MOL0     H87892   7.340   1.032  13.957 -1.9100  0.5404 -2.4196
  666MOL0     H87893   7.332   1.074  14.125 -2.5779 -1.4027  1.8273
  666MOL0     H87894   6.728   0.319  13.835  1.2152 -2.1684 -1.3742
  666MOL0     H87895   6.612   0.159  13.709 -2.2435 -1.4743 -0.8202
  666MOL0     H87896   6.483  -0.230  13.698 -1.3565 -1.7247  2.2311
  666MOL0     H87897   6.428  -0.392  13.543 -2.0860 -1.5032  2.0730
  666MOL0     H87898   6.274  -0.110  11.749 -0.5070  1.3911 -4.0021
  666MOL0     H87899   6.375   0.004  11.579 -0.2189 -1.0466  0.6082
  666MOL0     H87900   6.445   0.518  11.400  1.2569 -0.0233  2.2930
  666MOL0     H87901   6.557   0.646  11.246 -0.1645 -0.8234  2.7067
  666MOL0     H87902   6.956   0.513  11.159 -0.8308 -1.8381 -0.2816
  666MOL0     H87903   6.929   0.678  11.082 -3.4465  0.4613 -1.6631
  666MOL0     H87904   6.927   0.402  10.951 -0.4679  1.2893 -2.2894
  666MOL0     H87905   6.863   0.543  10.873 -2.3982 -5.0354 -0.4736
  666MOL0     H87906   7.071   0.497  10.804  1.1588 -2.9086  1.7283
  666MOL0     H87907   7.144   0.495  10.963  0.5726 -0.0209 -0.9966
  666MOL0     H87908   7.138   0.753  10.951  1.7480 -0.6113  0.2593
  666MOL0     H87909   7.229   0.665  10.846  0.7792  0.0872  1.1982
  666MOL0     H87910   6.946   0.873  10.599  0.8880  1.3716 -0.4176
  666MOL0     H87911   6.809   0.301  11.136 -1.0552 -0.7851  0.3277
  666MOL0     H87912   6.675   0.170  11.287 -2.0897 -1.2670 -3.6792
  667MOL0     O87913   5.095   5.468   5.865 -0.0622  0.6609  0.2713
  667MOL0     C87914   5.134   5.538   5.963 -0.1802 -0.7283  0.4245
  667MOL0     O87915   5.263   5.581   5.998 -0.0939  0.0254 -0.1315
  667MOL0     C87916   5.374   5.505   5.969  0.5036  0.4276 -0.6235
  667MOL0     C87917   5.510   5.561   5.982 -0.4491  0.9870  0.4358
  667MOL0     C87918   5.624   5.489   5.960  0.0993 -0.8645  0.1132
  667MOL0     C87919   5.615   5.351   5.938 -0.0879  0.7322  1.2049
  667MOL0     O87920   5.713   5.262   5.921  0.4065 -0.3757 -0.5653
  667MOL0     C87921   5.791   5.242   6.036 -0.7891 -0.0769 -0.1723
  667MOL0     C87922   5.719   5.156   6.134  0.0112 -0.2991 -0.3458
  667MOL0     C87923   5.782   5.144   6.267 -0.0109 -0.5809 -0.2420
  667MOL0     C87924   5.919   5.094   6.271 -1.6071  0.1748 -0.7716
  667MOL0     C87925   5.948   5.068   6.417 -0.3562 -0.0033  0.4079
  667MOL0     C87926   6.080   4.996   6.446  0.4763 -0.1929  0.3039
  667MOL0     C87927   6.118   5.027   6.592  0.5339 -0.1732 -0.1173
  667MOL0     C87928   6.238   4.948   6.632  0.3209 -0.0516  0.0779
  667MOL0     N87929   6.267   4.934   6.777  0.1892 -0.2794 -0.0800
  667MOL0     C87930   6.360   5.014   6.830 -0.1943  0.8243  1.1578
  667MOL0     C87931   6.362   4.990   6.958  0.6226  0.1011 -0.0311
  667MOL0     C87932   6.429   5.068   7.069  0.0356  0.1788 -1.5726
  667MOL0     C87933   6.581   5.078   7.068  0.6443  1.0437 -1.1567
  667MOL0     C87934   6.658   4.970   6.995  0.3810 -0.1259  0.2508
  667MOL0     C87935   6.634   4.831   7.041  0.7099  0.1915 -0.4269
  667MOL0     O87936   6.693   4.741   6.944 -0.9542 -0.1346 -0.4357
  667MOL0     C87937   6.628   4.626   6.948 -1.2862  0.1599 -0.6026
  667MOL0     C87938   6.538   4.597   6.843 -0.8817 -0.8174 -0.5940
  667MOL0     C87939   6.461   4.480   6.855 -1.1919 -0.1789  1.7546
  667MOL0     C87940   6.485   4.389   6.961  0.1296  0.4157 -1.6987
  667MOL0     C87941   6.397   4.268   6.971 -0.3586 -0.3806 -0.0998
  667MOL0     O87942   6.431   4.198   7.079 -0.4884  0.5104 -0.4551
  667MOL0     C87943   6.381   4.076   7.102  0.1504  0.9532  0.1063
  667MOL0     C87944   6.457   3.962   7.073  0.2233  0.0349 -0.0292
  667MOL0     C87945   6.388   3.843   7.097 -0.5750  0.2306  0.4149
  667MOL0     C87946   6.255   3.839   7.121 -0.4942  1.6259 -0.9682
  667MOL0     O87947   6.181   3.731   7.114 -0.0151 -0.2556  0.0660
  667MOL0     C87948   6.224   3.643   7.005  0.2852  0.6504 -0.3361
  667MOL0     C87949   6.097   3.621   6.922  0.0498 -0.1138  0.3005
  667MOL0     C87950   6.131   3.540   6.791  0.2379 -0.2284  0.4711
  667MOL0     C87951   6.013   3.548   6.696  0.1503 -0.6230  0.0745
  667MOL0     C87952   5.900   3.444   6.726 -0.2358  0.7469 -0.8696
  667MOL0     C87953   5.770   3.453   6.631 -0.2999  0.3757  0.2568
  667MOL0     C87954   5.677   3.335   6.670 -0.2120  0.2017 -0.0961
  667MOL0     C87955   5.577   3.300   6.567  0.1289 -1.2515  0.5919
  667MOL0    Cl87956   5.463   3.184   6.628 -0.2425 -0.2019 -0.8363
  667MOL0     C87957   6.189   3.944   7.175 -0.7778 -0.0984 -0.3671
  667MOL0     C87958   6.255   4.067   7.157  0.3009  0.8913 -0.1403
  667MOL0     O87959   6.334   4.230   6.869  0.0536 -0.5393  0.6691
  667MOL0     C87960   6.597   4.407   7.048 -0.2865 -0.2277 -0.6583
  667MOL0     C87961   6.672   4.525   7.050  0.7735 -0.3380 -0.2376
  667MOL0     N87962   6.270   4.882   6.984  0.1358 -0.3564  0.6286
  667MOL0     N87963   6.218   4.853   6.867 -0.2486  0.1820 -0.3461
  667MOL0     C87964   5.486   5.298   5.922  0.2117  0.6639  0.3538
  667MOL0     C87965   5.370   5.374   5.936 -0.1526 -0.5043  0.0557
  667MOL0     C87966   5.033   5.588   6.052  0.4171  0.4019 -0.5567
  667MOL0     C87967   5.069   5.627   6.182  0.6484  0.6894  0.5530
  667MOL0     C87968   4.982   5.670   6.282  0.5414  0.0409 -0.3837
  667MOL0     C87969   4.846   5.681   6.244  0.0212 -0.1674  0.2470
  667MOL0     O87970   4.769   5.730   6.344 -0.1866 -0.1072 -0.0597
  667MOL0     C87971   4.628   5.711   6.331  0.1315  0.4508 -0.1432
  667MOL0     C87972   4.579   5.830   6.252 -0.8016  0.2949  0.2456
  667MOL0     C87973   4.613   5.972   6.292  0.8117 -0.8227  0.0514
  667MOL0     C87974   4.557   6.007   6.436 -0.0592 -0.0139 -0.1681
  667MOL0     C87975   4.591   6.141   6.482 -0.4860  0.2052  0.2571
  667MOL0     C87976   4.613   6.249   6.539  0.0561  0.0980 -0.3855
  667MOL0     C87977   4.808   5.641   6.115  1.2041  0.2925 -0.1358
  667MOL0     C87978   4.898   5.598   6.020  0.7380 -0.0362  0.2964
  667MOL0     H87979   5.525   5.669   5.982  2.3103  0.6791  0.5951
  667MOL0     H87980   5.717   5.545   5.965 -0.8924  0.7064  2.7587
  667MOL0     H87981   5.830   5.337   6.073  1.5529 -0.2630 -1.9462
  667MOL0     H87982   5.890   5.200   6.017 -0.9876 -1.3702  1.4806
  667MOL0     H87983   5.719   5.057   6.088  2.1120  0.3963 -2.0194
  667MOL0     H87984   5.616   5.185   6.159  1.2041  1.9658  2.7327
  667MOL0     H87985   5.729   5.082   6.339  2.0212  1.4315  3.2685
  667MOL0     H87986   5.775   5.244   6.312  3.3225  1.7806 -4.2100
  667MOL0     H87987   5.924   4.991   6.233  1.2343 -0.5387  1.1844
  667MOL0     H87988   6.001   5.145   6.220 -0.9633  0.3765  0.4298
  667MOL0     H87989   5.870   4.999   6.450  0.1727 -1.4165 -1.1471
  667MOL0     H87990   5.951   5.164   6.470 -0.4979 -0.8555  2.0431
  667MOL0     H87991   6.158   5.031   6.377  0.9602 -1.5442  0.1372
  667MOL0     H87992   6.065   4.888   6.435  1.0662 -0.3005  0.5353
  667MOL0     H87993   6.135   5.134   6.611  2.2426 -0.9670  3.8909
  667MOL0     H87994   6.035   4.992   6.653 -0.7164 -0.0952 -1.6971
  667MOL0     H87995   6.329   4.983   6.583 -0.1467 -0.0178 -0.7859
  667MOL0     H87996   6.222   4.842   6.607 -0.3679 -0.6859  2.8018
  667MOL0     H87997   6.398   5.100   6.776 -4.1100  1.2128 -1.4206
  667MOL0     H87998   6.397   5.025   7.164 -2.0627 -0.0372 -2.3229
  667MOL0     H87999   6.404   5.174   7.066  2.2761  0.7377 -2.2393
  667MOL0     H88000   6.601   5.074   7.175  0.2019  0.4641 -1.0915
  667MOL0     H88001   6.616   5.174   7.027  2.0281  0.9616 -0.2163
  667MOL0     H88002   6.627   4.964   6.891 -0.0231 -1.0927  0.4191
  667MOL0     H88003   6.766   4.982   7.000  0.3468  0.5358 -0.3801
  667MOL0     H88004   6.527   4.811   7.054  1.6568 -4.9330  2.5988
  667MOL0     H88005   6.684   4.817   7.138  0.2360 -0.1275 -0.2255
  667MOL0     H88006   6.519   4.665   6.761  2.5643 -0.5676 -1.3400
  667MOL0     H88007   6.386   4.471   6.777  1.8472 -2.2551 -1.1961
  667MOL0     H88008   6.560   3.976   7.043 -0.1188  1.5049 -0.6108
  667MOL0     H88009   6.436   3.751   7.066 -0.3354  0.1918  0.8962
  667MOL0     H88010   6.266   3.552   7.050 -0.2136  1.3869  1.7143
  667MOL0     H88011   6.301   3.677   6.936  0.8784 -2.4827 -1.4051
  667MOL0     H88012   6.054   3.719   6.899 -0.6922 -0.4612  0.1747
  667MOL0     H88013   6.026   3.567   6.985  3.1102 -1.2677  3.0939
  667MOL0     H88014   6.149   3.434   6.811  0.6612 -0.1659  0.4296
  667MOL0     H88015   6.216   3.582   6.735  0.0573 -2.0163 -1.2552
  667MOL0     H88016   5.970   3.648   6.709 -0.7131 -0.9528 -0.2213
  667MOL0     H88017   6.063   3.532   6.600 -0.9623 -1.7262 -0.3364
  667MOL0     H88018   5.881   3.463   6.832  0.2413 -0.3927 -0.5694
  667MOL0     H88019   5.946   3.345   6.721 -0.0372  0.8940 -2.2149
  667MOL0     H88020   5.801   3.445   6.527  0.0818 -2.6063  0.5239
  667MOL0     H88021   5.708   3.543   6.641  0.0928  0.4593  2.4025
  667MOL0     H88022   5.736   3.247   6.699 -0.2502  0.6519  1.3907
  667MOL0     H88023   5.631   3.373   6.762 -1.1177  3.8173 -1.8590
  667MOL0     H88024   5.627   3.258   6.479 -0.6503 -1.6127  0.3149
  667MOL0     H88025   5.530   3.395   6.540  0.4882 -1.7555 -2.1313
  667MOL0     H88026   6.085   3.927   7.202  0.0644 -2.3349  1.8505
  667MOL0     H88027   6.201   4.160   7.171  0.3146  0.4755  4.2116
  667MOL0     H88028   6.613   4.337   7.130 -0.5241 -2.5597 -2.5080
  667MOL0     H88029   6.748   4.544   7.125 -0.4939 -1.7869  1.5028
  667MOL0     H88030   5.481   5.194   5.889 -1.5624  0.3491  1.4958
  667MOL0     H88031   5.270   5.332   5.926  0.1562 -1.6614  1.4861
  667MOL0     H88032   5.174   5.621   6.211  1.1958 -1.3951 -1.5763
  667MOL0     H88033   4.988   5.695   6.388 -5.2513  0.2836  0.2102
  667MOL0     H88034   4.580   5.699   6.428 -1.2359 -0.1829 -0.8584
  667MOL0     H88035   4.602   5.625   6.268 -2.0797  0.3159  0.8586
  667MOL0     H88036   4.605   5.814   6.147 -1.8734  1.0175 -0.1476
  667MOL0     H88037   4.470   5.816   6.258 -1.2515  3.5741  3.2542
  667MOL0     H88038   4.574   6.043   6.218  0.4675 -1.2588 -0.1959
  667MOL0     H88039   4.719   5.996   6.287  0.8480 -1.1142 -0.7907
  667MOL0     H88040   4.451   5.985   6.451  0.6609 -1.7710  3.6427
  667MOL0     H88041   4.606   5.943   6.511  1.1722  0.1250 -0.8273
  667MOL0     H88042   4.626   6.350   6.572 -0.6331  0.1504 -0.2521
  667MOL0     H88043   4.704   5.634   6.083  0.9088 -2.1884  1.1510
  667MOL0     H88044   4.861   5.557   5.927 -0.8233 -0.7684  1.1991
  668MOL0     O88045   5.590   2.706   1.399 -0.0136  0.2861 -0.7522
  668MOL0     C88046   5.560   2.738   1.285  0.9741  0.3655  0.0461
  668MOL0     O88047   5.429   2.761   1.243  0.0968  0.0991  0.3311
  668MOL0     C88048   5.339   2.710   1.324 -0.0502  0.6054  0.0872
  668MOL0     C88049   5.289   2.586   1.290  0.5824 -0.2243  0.0126
  668MOL0     C88050   5.186   2.532   1.356  0.3391 -0.6013 -0.4744
  668MOL0     C88051   5.114   2.614   1.457  0.1715  0.9635 -1.5125
  668MOL0     O88052   4.995   2.563   1.518 -0.6136 -0.0174 -0.2504
  668MOL0     C88053   4.936   2.439   1.481  0.4454 -0.6022 -0.2502
  668MOL0     C88054   4.825   2.421   1.582 -0.5514  0.9783  0.9411
  668MOL0     C88055   4.698   2.507   1.544  0.5281  0.2375  0.1628
  668MOL0     C88056   4.567   2.430   1.556  0.1950 -0.3250  0.1787
  668MOL0     C88057   4.497   2.439   1.692 -0.3145  0.1182  0.5608
  668MOL0     C88058   4.346   2.437   1.684 -0.0645 -0.5215 -0.2689
  668MOL0     C88059   4.293   2.292   1.655 -0.9897 -0.6906 -0.4957
  668MOL0     C88060   4.140   2.284   1.671  0.1806 -0.4880  0.2468
  668MOL0     N88061   4.071   2.183   1.591 -0.3214  0.1035 -0.0830
  668MOL0     C88062   3.937   2.181   1.570  0.4159 -0.1719 -0.5069
  668MOL0     C88063   3.917   2.087   1.474  0.0750 -0.5024 -1.1254
  668MOL0     C88064   3.781   2.036   1.438 -1.2476 -0.2857  0.5090
  668MOL0     C88065   3.668   2.132   1.471 -0.5412  0.2226 -0.3576
  668MOL0     C88066   3.526   2.085   1.434 -0.5706  0.3538 -0.2266
  668MOL0     C88067   3.499   2.072   1.275 -0.3812  0.2022  0.7575
  668MOL0     O88068   3.572   1.949   1.228  0.4947  0.0873  0.1207
  668MOL0     C88069   3.547   1.899   1.098 -0.0486  0.2203 -1.3920
  668MOL0     C88070   3.439   1.935   1.023  0.4392 -1.0612 -0.3072
  668MOL0     C88071   3.398   1.858   0.908 -1.3299 -1.3604 -0.2943
  668MOL0     C88072   3.483   1.759   0.853  0.5513 -0.2315 -0.3068
  668MOL0     C88073   3.447   1.683   0.730 -0.7063 -0.5664 -0.2306
  668MOL0     O88074   3.321   1.698   0.679  0.2051 -0.2469  0.4249
  668MOL0     C88075   3.267   1.615   0.584  0.3514  0.5030  0.2487
  668MOL0     C88076   3.189   1.665   0.475  0.2070  0.4836 -0.0588
  668MOL0     C88077   3.144   1.576   0.382  0.8491  0.1760  0.2849
  668MOL0     C88078   3.173   1.436   0.384  0.4810 -0.4755  0.3963
  668MOL0     O88079   3.123   1.349   0.292 -0.4826 -0.0389 -0.4298
  668MOL0     C88080   3.009   1.379   0.208  0.0344 -0.1176  0.5935
  668MOL0     C88081   2.969   1.269   0.104  0.0775 -0.7205  0.2566
  668MOL0     C88082   2.911   1.136   0.155 -0.2112 -0.6738 -0.3062
  668MOL0     C88083   2.757   1.110   0.144  0.7524  0.0667  0.0882
  668MOL0     C88084   2.691   1.006   0.231 -0.3927  0.7395  0.5748
  668MOL0     C88085   2.783   0.889   0.266  1.0610 -0.6264 -1.1979
  668MOL0     C88086   2.719   0.795   0.377  0.2536 -1.0080  0.3533
  668MOL0     C88087   2.601   0.715   0.327  0.5463  0.2764  0.3240
  668MOL0    Cl88088   2.535   0.612   0.468 -0.8081 -0.5565  0.7084
  668MOL0     C88089   3.253   1.388   0.478 -0.4145 -0.7691  0.1731
  668MOL0     C88090   3.306   1.476   0.578 -1.4315 -0.1487 -0.2058
  668MOL0     O88091   3.531   1.611   0.680 -0.0277 -0.5846 -0.4377
  668MOL0     C88092   3.594   1.727   0.932  0.3694  0.6272 -0.2103
  668MOL0     C88093   3.625   1.794   1.054  0.5237  0.3654  0.5017
  668MOL0     N88094   4.043   2.028   1.449 -0.2300  0.7623 -0.4573
  668MOL0     N88095   4.130   2.087   1.512  0.0861 -0.4253 -0.4356
  668MOL0     C88096   5.169   2.738   1.492  0.2858  0.8902 -0.6822
  668MOL0     C88097   5.279   2.787   1.428 -0.7844  0.9889  0.9055
  668MOL0     C88098   5.659   2.793   1.194 -0.8599  0.6773 -1.0839
  668MOL0     C88099   5.619   2.814   1.062  0.6110  0.5781 -0.1332
  668MOL0     C88100   5.716   2.847   0.971  0.4944  0.2938  0.5541
  668MOL0     C88101   5.848   2.848   1.009  0.5756  0.3401  0.7769
  668MOL0     O88102   5.959   2.884   0.937  0.1375  0.3087 -0.0054
  668MOL0     C88103   5.958   2.903   0.795 -0.2704 -1.1410 -0.9385
  668MOL0     C88104   5.946   2.784   0.716  0.5033  0.7884  0.5115
  668MOL0     C88105   5.947   2.808   0.568 -0.0724 -0.3320  0.7699
  668MOL0     C88106   5.904   2.689   0.488  0.2297 -0.4311  0.5069
  668MOL0     C88107   5.768   2.657   0.504  0.0241 -0.2051 -0.5271
  668MOL0     C88108   5.647   2.631   0.512 -0.5194 -0.2434 -1.4366
  668MOL0     C88109   5.890   2.826   1.135  0.3541 -0.8141  0.1219
  668MOL0     C88110   5.795   2.796   1.229 -0.5858  0.3277  0.6243
  668MOL0     H88111   5.340   2.546   1.203 -2.2551  3.6837 -3.8953
  668MOL0     H88112   5.146   2.442   1.310  1.5382  0.4346 -3.8251
  668MOL0     H88113   5.016   2.367   1.499 -0.4109 -1.0539  1.9924
  668MOL0     H88114   4.902   2.436   1.377  1.1636 -0.6346 -0.4918
  668MOL0     H88115   4.860   2.447   1.683  2.1039 -0.3531  0.4560
  668MOL0     H88116   4.801   2.315   1.597  1.7968  0.3650  0.7513
  668MOL0     H88117   4.719   2.537   1.441 -1.5916 -0.6807 -0.5956
  668MOL0     H88118   4.705   2.594   1.610  2.8405  0.2031  0.0495
  668MOL0     H88119   4.501   2.465   1.476  1.6380 -1.3369 -1.5458
  668MOL0     H88120   4.584   2.325   1.530 -1.2951 -0.7523  0.8272
  668MOL0     H88121   4.529   2.540   1.722  0.7547 -0.2785  0.8066
  668MOL0     H88122   4.530   2.376   1.776  0.6022  1.9488  1.6561
  668MOL0     H88123   4.307   2.513   1.617  2.3140  4.9896  3.8615
  668MOL0     H88124   4.310   2.474   1.780 -0.1124 -1.8850  0.2753
  668MOL0     H88125   4.330   2.251   1.560  0.8432 -0.6539  0.1533
  668MOL0     H88126   4.321   2.223   1.735  1.1817  2.8095  2.0522
  668MOL0     H88127   4.113   2.380   1.627 -2.1827 -2.0722 -2.0788
  668MOL0     H88128   4.098   2.265   1.771 -0.7767  0.8418  0.1279
  668MOL0     H88129   3.866   2.251   1.613  1.8186  0.7460  0.4048
  668MOL0     H88130   3.762   1.946   1.498  0.3793 -0.5205  0.7215
  668MOL0     H88131   3.796   2.018   1.331 -2.0347 -2.6418  0.7422
  668MOL0     H88132   3.690   2.231   1.429  2.2467 -0.8401 -1.6124
  668MOL0     H88133   3.671   2.135   1.580  4.1664 -1.4606 -0.2111
  668MOL0     H88134   3.489   1.999   1.490 -1.8015  1.1281  0.1869
  668MOL0     H88135   3.462   2.170   1.457 -3.0472 -1.4844 -0.0032
  668MOL0     H88136   3.546   2.164   1.238  0.4179  1.2515  4.0057
  668MOL0     H88137   3.391   2.061   1.261 -0.6107  1.3925  1.4919
  668MOL0     H88138   3.372   2.018   1.041  2.1233  0.3112 -0.1761
  668MOL0     H88139   3.305   1.892   0.863  0.0469  1.6647 -1.1600
  668MOL0     H88140   3.158   1.768   0.466  0.2857  1.1200  4.5679
  668MOL0     H88141   3.074   1.622   0.313  0.1540 -1.5183 -0.2100
  668MOL0     H88142   3.018   1.465   0.142  0.1896 -1.3270 -1.0367
  668MOL0     H88143   2.928   1.396   0.280  0.3078 -0.3354  0.9575
  668MOL0     H88144   3.063   1.250   0.052  1.3530  2.3285  1.2510
  668MOL0     H88145   2.903   1.315   0.030  1.2014  1.2592  0.4194
  668MOL0     H88146   2.934   1.124   0.261  1.9764  0.2929 -0.6146
  668MOL0     H88147   2.960   1.049   0.110  1.4953 -2.0949  3.7994
  668MOL0     H88148   2.700   1.203   0.151 -0.5064 -0.4961 -1.8978
  668MOL0     H88149   2.745   1.080   0.039  1.7525  2.1021 -0.6698
  668MOL0     H88150   2.605   0.962   0.180  0.4627 -0.6221  0.2422
  668MOL0     H88151   2.656   1.054   0.323 -0.9034  1.8106 -0.1638
  668MOL0     H88152   2.876   0.932   0.306 -0.6946  1.5994  0.8413
  668MOL0     H88153   2.793   0.817   0.185  1.6380  0.3893 -2.0462
  668MOL0     H88154   2.809   0.734   0.389  1.0794  0.0842 -0.0669
  668MOL0     H88155   2.696   0.864   0.460  0.0101 -1.0191  0.2943
  668MOL0     H88156   2.632   0.649   0.246 -2.0665  0.0950 -0.5953
  668MOL0     H88157   2.533   0.790   0.286  0.0866 -1.4577 -2.3717
  668MOL0     H88158   3.289   1.286   0.483 -0.5660 -0.7758  2.0249
  668MOL0     H88159   3.378   1.427   0.642  1.4714  2.8909 -0.9172
  668MOL0     H88160   3.655   1.642   0.905 -0.6623 -0.7270  1.4829
  668MOL0     H88161   3.725   1.770   1.092  0.6228 -2.1917 -1.1881
  668MOL0     H88162   5.121   2.807   1.562 -2.0807  1.2959 -2.5492
  668MOL0     H88163   5.327   2.881   1.454 -0.8686  1.3934 -0.2984
  668MOL0     H88164   5.513   2.812   1.036  0.6316  0.2916 -0.2044
  668MOL0     H88165   5.677   2.869   0.872 -3.0322 -2.0318  1.2482
  668MOL0     H88166   6.054   2.949   0.770  0.8636 -2.5312  0.6123
  668MOL0     H88167   5.871   2.965   0.771 -1.8075 -0.7595  4.3849
  668MOL0     H88168   6.023   2.710   0.743 -1.0554 -1.1074  0.0406
  668MOL0     H88169   5.852   2.735   0.743  1.2403 -1.7908 -1.1551
  668MOL0     H88170   6.054   2.811   0.545 -0.0111 -1.3652  0.8705
  668MOL0     H88171   5.895   2.898   0.534  1.0663  0.4726  1.1059
  668MOL0     H88172   5.910   2.700   0.380 -2.5787 -1.4722  0.1543
  668MOL0     H88173   5.958   2.601   0.526 -0.5415 -0.0890  2.5241
  668MOL0     H88174   5.550   2.593   0.538  0.1579 -0.2178  1.5108
  668MOL0     H88175   5.995   2.828   1.162  0.8446  0.3307 -1.6505
  668MOL0     H88176   5.825   2.772   1.330  0.5727  1.8557  0.6789
  669MOL0     O88177   1.404   4.704   4.087 -0.5720  0.1074 -0.0047
  669MOL0     C88178   1.517   4.713   4.048 -0.5382 -1.2273  0.0712
  669MOL0     O88179   1.552   4.745   3.913  0.1237 -0.3745  0.0049
  669MOL0     C88180   1.447   4.777   3.820  0.5403 -0.6267 -0.9158
  669MOL0     C88181   1.391   4.683   3.727 -0.4885 -0.5979  0.5133
  669MOL0     C88182   1.279   4.706   3.642 -0.3397 -0.3224 -0.7029
  669MOL0     C88183   1.213   4.831   3.654 -0.4425 -0.4233 -0.5041
  669MOL0     O88184   1.113   4.868   3.569 -0.0645 -0.2001  0.0465
  669MOL0     C88185   1.017   4.964   3.614 -0.1255 -0.8414 -0.5586
  669MOL0     C88186   0.873   4.938   3.574 -0.4513 -0.5839  0.3793
  669MOL0     C88187   0.847   4.942   3.428  0.2208  0.0762 -0.1099
  669MOL0     C88188   0.708   4.876   3.391 -0.0298 -0.8354 -0.6752
  669MOL0     C88189   0.694   4.871   3.236 -0.2286 -0.9436  0.4675
  669MOL0     C88190   0.553   4.824   3.189 -0.4286  0.7035  0.0475
  669MOL0     C88191   0.554   4.779   3.042 -0.5988  0.0932  0.2469
  669MOL0     C88192   0.562   4.629   3.026 -0.7667  0.0030 -0.4031
  669MOL0     N88193   0.524   4.569   2.894  0.7881 -0.4797  0.1808
  669MOL0     C88194   0.390   4.553   2.842 -0.4190 -0.3558  0.4268
  669MOL0     C88195   0.420   4.476   2.731  0.2042  0.4841 -0.4918
  669MOL0     C88196   0.307   4.422   2.644 -0.3796 -0.0718 -0.7103
  669MOL0     C88197   0.279   4.281   2.694  0.4877  0.4187  0.0419
  669MOL0     C88198   0.135   4.241   2.644 -0.0016 -1.2098  0.7563
  669MOL0     C88199   0.077   4.126   2.727 -0.0969  0.1971 -0.9185
  669MOL0     O88200   0.133   3.995   2.704  0.7675 -0.0122  0.2541
  669MOL0     C88201   0.076   3.899   2.782  0.0260  0.5579  0.0286
  669MOL0     C88202   0.015   3.786   2.731  0.8911 -0.1518 -0.5263
  669MOL0     C88203  -0.035   3.680   2.806 -0.6797 -0.0210 -0.4086
  669MOL0     C88204  -0.028   3.688   2.946  0.1012  0.0777  0.0027
  669MOL0     C88205  -0.088   3.592   3.036 -0.1023 -0.2583  1.0442
  669MOL0     O88206  -0.196   3.529   2.987  0.8244  0.3194 -0.1738
  669MOL0     C88207  -0.250   3.424   3.069 -0.1822  0.4431  0.7649
  669MOL0     C88208  -0.300   3.442   3.200 -0.0647  0.2765  0.8287
  669MOL0     C88209  -0.355   3.338   3.274  0.7801 -0.3197  1.0279
  669MOL0     C88210  -0.381   3.216   3.205 -0.7508  0.4128 -0.9184
  669MOL0     O88211  -0.447   3.112   3.267  0.5816 -0.3623  0.7247
  669MOL0     C88212  -0.569   3.156   3.330  0.3674 -0.4900  0.3037
  669MOL0     C88213  -0.661   3.033   3.366 -0.3439  0.5767  0.3850
  669MOL0     C88214  -0.750   3.043   3.486 -0.6704 -0.0382  0.1314
  669MOL0     C88215  -0.674   3.010   3.618  0.3146  0.5993  0.0231
  669MOL0     C88216  -0.774   2.995   3.738  0.2970  0.4275 -0.1464
  669MOL0     C88217  -0.777   3.118   3.832 -0.8385  0.6189  0.4152
  669MOL0     C88218  -0.864   3.088   3.951 -0.3312 -0.1767  0.1508
  669MOL0     C88219  -0.854   3.178   4.084 -0.0168 -0.3081 -0.6169
  669MOL0    Cl88220  -1.020   3.204   4.155  0.2571 -0.0966  0.1628
  669MOL0     C88221  -0.326   3.197   3.080 -0.4299  0.9411 -0.1086
  669MOL0     C88222  -0.262   3.295   3.013  0.4332 -0.8165  0.8029
  669MOL0     O88223  -0.036   3.580   3.146 -0.9069 -0.5583 -0.1293
  669MOL0     C88224   0.009   3.813   3.002 -0.4919  0.0150 -0.3625
  669MOL0     C88225   0.072   3.905   2.922 -0.4543 -0.4502  0.4094
  669MOL0     N88226   0.552   4.456   2.721 -1.1375 -0.0780  0.3439
  669MOL0     N88227   0.616   4.518   2.815  0.0610 -0.3878  0.0709
  669MOL0     C88228   1.264   4.929   3.741 -0.1207  0.6807 -0.1754
  669MOL0     C88229   1.388   4.905   3.815  0.5211 -0.4727  0.0141
  669MOL0     C88230   1.634   4.693   4.131  0.6750  0.0318  1.8040
  669MOL0     C88231   1.618   4.633   4.259  0.6436 -0.2599  0.3496
  669MOL0     C88232   1.738   4.603   4.325  0.5676  0.0130 -0.4885
  669MOL0     C88233   1.866   4.628   4.281  0.7340 -0.7519  0.6886
  669MOL0     O88234   1.976   4.605   4.363  0.5785 -1.4867 -0.2956
  669MOL0     C88235   2.106   4.640   4.329  0.6393 -0.8512 -1.2527
  669MOL0     C88236   2.186   4.567   4.434  0.1273  0.4015 -0.1364
  669MOL0     C88237   2.193   4.626   4.569 -0.7947  0.1989  0.1149
  669MOL0     C88238   2.224   4.527   4.683 -0.0671  0.2036  0.5039
  669MOL0     C88239   2.357   4.462   4.662 -0.1899  1.8642  0.0295
  669MOL0     C88240   2.467   4.410   4.647  0.3136  0.2965  0.1150
  669MOL0     C88241   1.878   4.675   4.147  0.1295  0.2439  0.5593
  669MOL0     C88242   1.764   4.713   4.073  0.6300  0.1082 -0.2767
  669MOL0     H88243   1.446   4.589   3.726  1.1717  0.3386  0.2931
  669MOL0     H88244   1.236   4.638   3.570 -0.2343 -0.1114 -0.9675
  669MOL0     H88245   1.048   5.065   3.583 -0.2135  0.1063  2.2316
  669MOL0     H88246   1.014   4.974   3.723  0.4541  1.5794 -0.6943
  669MOL0     H88247   0.823   5.024   3.620  5.7575  3.2746  1.0989
  669MOL0     H88248   0.821   4.855   3.622 -1.2414 -1.3219 -1.6424
  669MOL0     H88249   0.923   4.896   3.364 -0.0201 -1.2343  0.4993
  669MOL0     H88250   0.842   5.048   3.405 -0.7322 -0.0935 -0.7085
  669MOL0     H88251   0.705   4.781   3.446  1.7999 -0.2903  0.4578
  669MOL0     H88252   0.626   4.942   3.420 -0.3825 -0.4643 -2.3934
  669MOL0     H88253   0.770   4.809   3.187  4.6366  2.5035  2.8199
  669MOL0     H88254   0.706   4.969   3.190  1.9061 -1.4609 -0.1809
  669MOL0     H88255   0.487   4.910   3.203 -0.8155  0.1976  1.4775
  669MOL0     H88256   0.511   4.746   3.253 -3.0492 -0.4662 -2.8675
  669MOL0     H88257   0.482   4.833   2.980  3.5159  1.5712 -3.7830
  669MOL0     H88258   0.650   4.821   3.009 -0.0745  1.0038  2.7645
  669MOL0     H88259   0.486   4.604   3.100 -0.5074  0.8894  0.1639
  669MOL0     H88260   0.659   4.585   3.050 -0.0923  1.3333 -0.6259
  669MOL0     H88261   0.290   4.579   2.876 -1.1881  1.6283 -2.8439
  669MOL0     H88262   0.324   4.418   2.536 -3.7732 -2.7815 -1.3584
  669MOL0     H88263   0.233   4.501   2.655 -0.2365 -0.0701  0.3141
  669MOL0     H88264   0.301   4.257   2.799  1.2987 -0.2650 -0.2647
  669MOL0     H88265   0.343   4.208   2.643 -1.3885 -0.6267 -0.9242
  669MOL0     H88266   0.071   4.329   2.650 -1.2910 -1.6705 -3.2404
  669MOL0     H88267   0.131   4.195   2.545  0.9237 -1.1522  0.6852
  669MOL0     H88268  -0.029   4.122   2.699 -0.3353  0.6145 -0.0912
  669MOL0     H88269   0.067   4.159   2.830  1.1725 -0.6324 -0.4994
  669MOL0     H88270   0.013   3.789   2.622  4.0656 -0.6660 -0.6877
  669MOL0     H88271  -0.069   3.587   2.760 -0.0013 -0.1057 -0.7433
  669MOL0     H88272  -0.294   3.543   3.238 -0.7172  2.2328 -3.5819
  669MOL0     H88273  -0.390   3.349   3.377  0.6726 -0.4516  1.0062
  669MOL0     H88274  -0.620   3.226   3.263 -0.0906 -0.6491  0.4804
  669MOL0     H88275  -0.537   3.204   3.423  1.2437 -0.2895 -0.0919
  669MOL0     H88276  -0.599   2.944   3.384 -2.2054 -0.9216 -0.2443
  669MOL0     H88277  -0.720   3.006   3.278 -1.3337 -1.5244  1.6274
  669MOL0     H88278  -0.833   2.972   3.485  0.0445 -0.8904 -0.6141
  669MOL0     H88279  -0.794   3.142   3.503  0.7307  0.4201  1.2356
  669MOL0     H88280  -0.620   2.916   3.611 -3.6519 -1.7769 -2.6049
  669MOL0     H88281  -0.608   3.092   3.648 -1.9672  2.4081  0.4169
  669MOL0     H88282  -0.741   2.914   3.803 -1.9581 -0.3564  0.1161
  669MOL0     H88283  -0.873   2.978   3.694 -0.0853  4.4070 -1.2212
  669MOL0     H88284  -0.819   3.205   3.780  1.1710  2.9070  2.3662
  669MOL0     H88285  -0.678   3.134   3.875 -2.6259  1.9440  4.5829
  669MOL0     H88286  -0.966   3.099   3.914 -1.5371  1.7537  3.5740
  669MOL0     H88287  -0.853   2.982   3.974 -0.8183  0.3731  3.4219
  669MOL0     H88288  -0.811   3.275   4.056  0.6723  0.1543  1.7782
  669MOL0     H88289  -0.785   3.133   4.156 -1.0550  1.1632  1.3911
  669MOL0     H88290  -0.346   3.104   3.029 -1.1471  0.7011  0.5850
  669MOL0     H88291  -0.225   3.266   2.915 -2.1375 -0.8435 -0.2238
  669MOL0     H88292   0.008   3.829   3.109 -1.1512 -1.2703 -0.1459
  669MOL0     H88293   0.111   3.994   2.970  3.4692 -1.4545 -0.5435
  669MOL0     H88294   1.233   5.033   3.746 -0.0440  0.7184 -0.4985
  669MOL0     H88295   1.428   4.992   3.866 -3.3462  1.7427 -0.3689
  669MOL0     H88296   1.518   4.614   4.298  1.2118  0.4324  2.2662
  669MOL0     H88297   1.728   4.559   4.424  0.6928  0.9771 -0.0339
  669MOL0     H88298   2.139   4.744   4.327  0.8973 -0.9388 -1.5736
  669MOL0     H88299   2.120   4.592   4.232 -2.5613 -1.6228 -1.4464
  669MOL0     H88300   2.149   4.464   4.438 -0.8414  0.7406  0.0724
  669MOL0     H88301   2.290   4.557   4.401  0.8780 -1.9059  2.5542
  669MOL0     H88302   2.103   4.678   4.603 -0.5508  1.5545 -1.2277
  669MOL0     H88303   2.267   4.706   4.569 -0.5638 -0.0143  0.1798
  669MOL0     H88304   2.236   4.587   4.774  0.1109 -0.2801  0.8083
  669MOL0     H88305   2.141   4.460   4.706  1.8434 -2.0061  1.3139
  669MOL0     H88306   2.561   4.358   4.643 -0.2496 -0.7216 -0.2745
  669MOL0     H88307   1.973   4.680   4.096  0.7968  0.4172  1.7890
  669MOL0     H88308   1.798   4.732   3.972  1.3323  0.7009  0.0535
  670MOL0     O88309   6.289   6.585   4.290  0.1035  0.0627  0.2799
  670MOL0     C88310   6.329   6.472   4.300 -0.0808 -0.3980 -0.2223
  670MOL0     O88311   6.247   6.362   4.320 -0.3524  0.2223  0.0102
  670MOL0     C88312   6.118   6.385   4.335 -0.5946 -0.1491  0.7640
  670MOL0     C88313   6.063   6.472   4.432  0.0870 -0.1412 -0.1353
  670MOL0     C88314   5.920   6.488   4.447  0.0796 -0.4079 -0.0416
  670MOL0     C88315   5.833   6.411   4.367 -0.6813 -0.0091  0.2327
  670MOL0     O88316   5.696   6.443   4.375 -0.5615 -0.0269  0.8730
  670MOL0     C88317   5.604   6.347   4.308 -0.0975  0.7114 -0.7498
  670MOL0     C88318   5.468   6.419   4.311 -0.0338 -0.1939 -0.1320
  670MOL0     C88319   5.452   6.500   4.189  0.4174  1.0694  0.5994
  670MOL0     C88320   5.334   6.600   4.179 -0.4436 -0.3802 -1.3036
  670MOL0     C88321   5.324   6.674   4.053  0.2582  0.5491  0.3180
  670MOL0     C88322   5.211   6.778   4.039 -0.6580 -0.2444  0.0609
  670MOL0     C88323   5.075   6.718   4.078  0.3266 -0.1176  0.2891
  670MOL0     C88324   5.011   6.605   4.002  0.8862 -0.4173 -1.1535
  670MOL0     N88325   4.874   6.581   4.042 -0.1309 -0.2858  0.2646
  670MOL0     C88326   4.829   6.550   4.172  0.0226 -0.1495 -0.4354
  670MOL0     C88327   4.698   6.580   4.177 -0.1034  0.1917  0.3381
  670MOL0     C88328   4.601   6.542   4.276 -0.2969  0.8551  0.1095
  670MOL0     C88329   4.632   6.612   4.413 -0.4138  0.2493  0.9429
  670MOL0     C88330   4.540   6.557   4.531  0.4645  0.6485 -0.9029
  670MOL0     C88331   4.393   6.566   4.493  1.1639  0.6842 -0.5115
  670MOL0     O88332   4.316   6.576   4.611  0.6843 -0.6638 -0.1555
  670MOL0     C88333   4.307   6.695   4.669 -1.0196  0.4943  0.2723
  670MOL0     C88334   4.219   6.794   4.635 -0.4963  0.1601 -0.1325
  670MOL0     C88335   4.229   6.922   4.692 -0.6342 -0.1454  0.0669
  670MOL0     C88336   4.313   6.954   4.799  0.7451 -0.3703 -0.2965
  670MOL0     C88337   4.314   7.087   4.863 -0.5870  0.4459 -0.1691
  670MOL0     O88338   4.230   7.181   4.824  0.4015  0.9229 -0.1885
  670MOL0     C88339   4.185   7.277   4.911 -0.3554 -1.2319 -0.1724
  670MOL0     C88340   4.182   7.278   5.053 -0.4529 -0.6148  0.7365
  670MOL0     C88341   4.119   7.377   5.125  0.3411  0.2693 -0.2067
  670MOL0     C88342   4.074   7.489   5.064  0.6259 -0.0758 -0.3715
  670MOL0     O88343   3.999   7.586   5.138  0.2622 -0.5134  0.2895
  670MOL0     C88344   3.858   7.565   5.125  0.0362 -0.5975  0.8705
  670MOL0     C88345   3.780   7.607   5.248  0.3226  0.1570  0.7005
  670MOL0     C88346   3.738   7.748   5.237 -0.2099 -0.3428  0.2407
  670MOL0     C88347   3.597   7.757   5.168 -1.0087  0.5836 -0.3589
  670MOL0     C88348   3.554   7.898   5.142  0.5758 -0.7095 -1.0452
  670MOL0     C88349   3.398   7.896   5.127 -0.3134 -0.4109  0.8749
  670MOL0     C88350   3.310   7.843   5.238  0.1596 -1.2436 -0.3730
  670MOL0     C88351   3.214   7.726   5.216  0.0386  0.8846  0.4233
  670MOL0    Cl88352   3.138   7.758   5.052  0.0938  0.0767  0.0714
  670MOL0     C88353   4.067   7.493   4.919  0.3833 -0.5958 -0.2204
  670MOL0     C88354   4.128   7.391   4.845  0.6825 -0.3725 -0.3556
  670MOL0     O88355   4.393   7.107   4.946  0.5064  0.4385  0.3070
  670MOL0     C88356   4.385   6.843   4.847  0.8429  0.8014  0.0394
  670MOL0     C88357   4.375   6.715   4.790 -0.8265 -0.9849  0.1607
  670MOL0     N88358   4.663   6.628   4.048  0.8404  0.3513  0.4116
  670MOL0     N88359   4.763   6.632   3.975 -0.1416  0.0923  0.3111
  670MOL0     C88360   5.894   6.322   4.270  0.7021 -0.2474 -0.3529
  670MOL0     C88361   6.031   6.322   4.247  1.4988  0.5104  1.2133
  670MOL0     C88362   6.473   6.446   4.306  0.3609  0.8083  0.1156
  670MOL0     C88363   6.514   6.314   4.333 -0.4629  0.5641  0.1989
  670MOL0     C88364   6.650   6.287   4.330 -0.2072  0.1412 -0.8886
  670MOL0     C88365   6.738   6.386   4.280  0.2837  0.2138 -0.4826
  670MOL0     O88366   6.871   6.350   4.255  0.0845  0.1136 -0.1080
  670MOL0     C88367   6.932   6.378   4.125  0.0108 -1.0662  0.0440
  670MOL0     C88368   6.920   6.269   4.020  0.0967  0.3603 -0.0681
  670MOL0     C88369   7.029   6.162   4.033  0.3603  0.5308 -0.2859
  670MOL0     C88370   7.006   6.047   3.928 -0.3916 -0.1605 -0.1350
  670MOL0     C88371   6.884   5.968   3.959 -0.7550  0.0701 -0.3461
  670MOL0     C88372   6.792   5.893   3.988 -0.0855  0.1615 -0.7540
  670MOL0     C88373   6.693   6.513   4.252 -0.6161  0.4251  0.4903
  670MOL0     C88374   6.560   6.540   4.259  0.7698 -1.0033 -0.3855
  670MOL0     H88375   6.142   6.512   4.493  2.2551 -1.2643 -2.0648
  670MOL0     H88376   5.871   6.561   4.511 -1.2616 -2.1674  1.0533
  670MOL0     H88377   5.598   6.259   4.372  1.8614 -0.4878 -2.1118
  670MOL0     H88378   5.639   6.309   4.212  0.7282  1.1416 -0.6364
  670MOL0     H88379   5.454   6.472   4.406  0.7667 -1.5839  0.8042
  670MOL0     H88380   5.389   6.343   4.303  0.3235 -0.4875 -0.9863
  670MOL0     H88381   5.439   6.427   4.109  2.9055  2.2828 -1.0255
  670MOL0     H88382   5.538   6.561   4.161 -0.3210  0.5795 -3.2866
  670MOL0     H88383   5.241   6.556   4.215 -0.6339  2.4815  2.3807
  670MOL0     H88384   5.341   6.669   4.263 -3.3930  1.0987 -2.1196
  670MOL0     H88385   5.312   6.606   3.967 -0.7003 -3.1501  3.1331
  670MOL0     H88386   5.420   6.727   4.045  1.5014 -1.7070 -0.9924
  670MOL0     H88387   5.210   6.808   3.934 -0.1354  0.8870  0.3614
  670MOL0     H88388   5.234   6.865   4.102  0.6302 -2.5065  2.9279
  670MOL0     H88389   5.083   6.678   4.179 -0.8181 -0.9794  0.0655
  670MOL0     H88390   5.008   6.805   4.071  1.6830  0.8617 -1.0999
  670MOL0     H88391   5.083   6.524   4.022  0.3170 -0.2967  1.8273
  670MOL0     H88392   5.016   6.634   3.896 -2.4290 -0.0641 -1.3065
  670MOL0     H88393   4.891   6.495   4.242 -0.0886 -1.5125 -1.3570
  670MOL0     H88394   4.610   6.433   4.277 -0.5431  0.8341  0.1123
  670MOL0     H88395   4.503   6.569   4.236 -0.0227  1.1967 -0.3580
  670MOL0     H88396   4.614   6.720   4.408 -0.9123  0.1112 -1.4673
  670MOL0     H88397   4.738   6.596   4.433  1.1991  0.3795 -5.4373
  670MOL0     H88398   4.559   6.449   4.538  0.3113  0.4811 -2.6804
  670MOL0     H88399   4.560   6.603   4.628 -0.9045 -0.8819  0.1569
  670MOL0     H88400   4.350   6.473   4.454 -1.9703  1.3771  1.0011
  670MOL0     H88401   4.378   6.646   4.420  3.4873  1.3708 -0.3447
  670MOL0     H88402   4.148   6.760   4.560 -0.2951 -0.6721  0.0376
  670MOL0     H88403   4.154   6.995   4.664 -0.7281  0.8106  2.5415
  670MOL0     H88404   4.228   7.199   5.112 -1.8014 -0.0465  2.6337
  670MOL0     H88405   4.109   7.366   5.233  0.3217 -5.0505 -0.4490
  670MOL0     H88406   3.850   7.456   5.118  2.0434 -0.6869 -1.9396
  670MOL0     H88407   3.811   7.603   5.033  0.9535  0.1076  0.6803
  670MOL0     H88408   3.836   7.582   5.339 -0.5684 -1.7834  0.7537
  670MOL0     H88409   3.691   7.544   5.251 -0.2406  0.9544  2.0405
  670MOL0     H88410   3.806   7.807   5.175 -0.2018 -0.3841  0.2096
  670MOL0     H88411   3.722   7.793   5.335  1.7274  1.8195 -0.3401
  670MOL0     H88412   3.593   7.700   5.074 -1.6425 -1.1688  0.6922
  670MOL0     H88413   3.515   7.707   5.220 -1.0088 -1.1943 -1.9497
  670MOL0     H88414   3.596   7.937   5.049 -1.4747 -3.7558 -3.4465
  670MOL0     H88415   3.574   7.957   5.232 -1.3991 -1.9986  0.3136
  670MOL0     H88416   3.373   7.846   5.033  1.5401 -0.8878  0.5978
  670MOL0     H88417   3.380   8.004   5.118  0.6232 -0.0573  2.7283
  670MOL0     H88418   3.368   7.817   5.327 -1.2463 -1.6751  0.4472
  670MOL0     H88419   3.249   7.925   5.277  2.3367  0.0181  0.5620
  670MOL0     H88420   3.137   7.712   5.293  0.1704  0.0886  0.4109
  670MOL0     H88421   3.262   7.629   5.205 -0.7641  0.5971 -0.7126
  670MOL0     H88422   4.019   7.585   4.887  1.1274 -0.0729  0.1382
  670MOL0     H88423   4.127   7.391   4.737  2.1460  0.3865 -0.4031
  670MOL0     H88424   4.440   6.860   4.940  2.3319 -1.8526 -0.2611
  670MOL0     H88425   4.435   6.643   4.846 -3.3623  0.0765  4.7957
  670MOL0     H88426   5.834   6.251   4.213  1.0178  0.9707 -2.3135
  670MOL0     H88427   6.071   6.257   4.170  1.4386 -0.8640  2.3063
  670MOL0     H88428   6.448   6.230   4.355  0.8572 -0.4573  0.3775
  670MOL0     H88429   6.681   6.186   4.356  1.4149 -0.2083 -3.8433
  670MOL0     H88430   7.040   6.376   4.144 -0.3825 -2.7013  2.5711
  670MOL0     H88431   6.896   6.476   4.092  1.1011  0.8204  3.8527
  670MOL0     H88432   6.816   6.235   4.017  0.5349 -1.2070  1.2110
  670MOL0     H88433   6.940   6.317   3.923 -1.1762  1.3836  0.1476
  670MOL0     H88434   7.030   6.126   4.136 -0.4795  0.8335 -0.1664
  670MOL0     H88435   7.125   6.208   4.007 -0.8094  2.3247 -1.6245
  670MOL0     H88436   6.994   6.072   3.822 -4.1182 -2.8032 -0.5091
  670MOL0     H88437   7.094   5.982   3.929 -1.4793 -1.7602 -1.5755
  670MOL0     H88438   6.720   5.813   3.992  1.0385 -0.8828 -0.9397
  670MOL0     H88439   6.764   6.591   4.226  0.7886 -0.6065  1.0857
  670MOL0     H88440   6.532   6.639   4.225  0.2589 -2.3579 -4.4341
  671MOL0     O88441   4.326   9.976   0.752  0.4167  0.6822  0.0071
  671MOL0     C88442   4.232   9.917   0.714  0.3990 -0.1989 -0.0451
  671MOL0     O88443   4.195   9.797   0.759  0.3491 -0.0937 -1.1063
  671MOL0     C88444   4.281   9.721   0.843 -0.5296 -0.0567 -0.9881
  671MOL0     C88445   4.279   9.721   0.993 -0.5232  0.1385 -0.1400
  671MOL0     C88446   4.358   9.630   1.063 -0.4734 -1.6047 -0.4630
  671MOL0     C88447   4.428   9.527   0.996  1.2806 -0.0383  0.5348
  671MOL0     O88448   4.496   9.432   1.061  0.3882  0.1999 -0.4105
  671MOL0     C88449   4.574   9.482   1.169 -0.1161 -0.2803  0.1247
  671MOL0     C88450   4.657   9.370   1.230  0.0514 -0.4534  0.9340
  671MOL0     C88451   4.747   9.430   1.345  0.5519 -0.7061 -0.6378
  671MOL0     C88452   4.856   9.328   1.381  0.0238  1.2007  0.0095
  671MOL0     C88453   4.955   9.378   1.479  0.3894 -0.2239 -0.5186
  671MOL0     C88454   5.073   9.285   1.514  0.2488  0.2837 -0.2025
  671MOL0     C88455   5.162   9.251   1.392 -0.6710 -0.6990  0.5130
  671MOL0     C88456   5.278   9.152   1.424  0.2728  0.4145 -0.7177
  671MOL0     N88457   5.356   9.185   1.548  0.4028 -1.1339  0.2415
  671MOL0     C88458   5.478   9.246   1.557 -0.3089 -0.3251 -0.1141
  671MOL0     C88459   5.517   9.237   1.685  1.0018 -0.0108 -0.9550
  671MOL0     C88460   5.648   9.286   1.749 -0.5297 -0.5951  0.7261
  671MOL0     C88461   5.664   9.439   1.749  0.0402 -0.0135  0.7540
  671MOL0     C88462   5.720   9.492   1.613 -1.0814  1.0084 -0.0322
  671MOL0     C88463   5.629   9.607   1.569 -1.2426  0.2336  0.0953
  671MOL0     O88464   5.712   9.681   1.477  0.5347  0.1657 -0.1863
  671MOL0     C88465   5.642   9.778   1.412 -0.1172 -0.5176  0.5446
  671MOL0     C88466   5.666   9.806   1.276 -0.9638 -0.5933  0.0696
  671MOL0     C88467   5.626   9.928   1.222  0.0145  0.3350  0.1196
  671MOL0     C88468   5.546  10.018   1.298 -0.7602  0.0633  0.5145
  671MOL0     C88469   5.486  10.129   1.226  0.5275  0.2887  0.6275
  671MOL0     O88470   5.526  10.163   1.104 -0.0375 -0.5091 -0.4298
  671MOL0     C88471   5.454  10.269   1.045  0.0658 -0.0072 -0.3992
  671MOL0     C88472   5.447  10.395   1.102 -0.8552  0.0151 -0.3919
  671MOL0     C88473   5.372  10.499   1.037  0.0117 -0.0201  0.2946
  671MOL0     C88474   5.312  10.480   0.911 -0.1513 -0.3754 -1.0089
  671MOL0     O88475   5.251  10.591   0.853  0.9252 -0.4064  0.0165
  671MOL0     C88476   5.166  10.578   0.739  0.2978  0.4931  0.0574
  671MOL0     C88477   5.097  10.709   0.695  0.5192  0.3679  0.1748
  671MOL0     C88478   4.978  10.728   0.787  0.0547 -0.6645 -0.3480
  671MOL0     C88479   4.910  10.858   0.754  0.4239  0.0344  0.2972
  671MOL0     C88480   4.795  10.889   0.844 -0.9579  0.1962 -0.0728
  671MOL0     C88481   4.746  11.027   0.809  0.2670 -0.9174  0.7377
  671MOL0     C88482   4.646  11.077   0.910 -0.4791  0.2123 -0.8040
  671MOL0     C88483   4.612  11.224   0.889 -1.0227  0.7025  0.3180
  671MOL0    Cl88484   4.755  11.329   0.938  0.2152  0.0076 -0.0014
  671MOL0     C88485   5.333  10.351   0.855  0.0405 -0.4452  1.0417
  671MOL0     C88486   5.420  10.256   0.912 -0.4864  0.8177 -0.4000
  671MOL0     O88487   5.399  10.176   1.293  0.3721 -0.0944 -0.5141
  671MOL0     C88488   5.515   9.990   1.437 -0.6446  0.1076 -0.1994
  671MOL0     C88489   5.561   9.861   1.488  0.1976 -0.2691  0.1163
  671MOL0     N88490   5.422   9.164   1.752 -0.3644  0.7020 -0.1255
  671MOL0     N88491   5.324   9.134   1.668  0.1446  0.0853 -0.4779
  671MOL0     C88492   4.411   9.515   0.855 -0.2642  0.4610  0.1543
  671MOL0     C88493   4.345   9.614   0.782 -0.6278 -0.0970  0.3392
  671MOL0     C88494   4.141   9.977   0.625  0.1510 -0.2272  0.8759
  671MOL0     C88495   4.039   9.905   0.562  0.5426 -0.3281  1.7489
  671MOL0     C88496   3.944   9.969   0.477 -0.4094 -0.2008  0.5410
  671MOL0     C88497   3.936  10.103   0.468 -0.7455  0.7423 -0.3616
  671MOL0     O88498   3.843  10.149   0.378  0.4609  0.0382 -0.1114
  671MOL0     C88499   3.851  10.283   0.334 -0.2300  0.3936  0.6679
  671MOL0     C88500   3.756  10.318   0.218 -0.3351  0.4079  1.0397
  671MOL0     C88501   3.772  10.219   0.108  0.2812  0.0873 -0.6154
  671MOL0     C88502   3.660  10.249   0.005 -0.2991  0.6599  0.0397
  671MOL0     C88503   3.694  10.170  -0.117  0.0073  0.1297  1.0477
  671MOL0     C88504   3.722  10.117  -0.222  0.1546  0.0720  0.3138
  671MOL0     C88505   4.035  10.178   0.537  0.0250 -0.3962  0.4858
  671MOL0     C88506   4.145  10.115   0.605  0.1492  0.8657 -0.1419
  671MOL0     H88507   4.227   9.808   1.033  3.0294  1.4846  1.9783
  671MOL0     H88508   4.364   9.633   1.172  1.4217  2.9611 -0.4674
  671MOL0     H88509   4.511   9.532   1.243 -1.9114 -3.1231  0.6319
  671MOL0     H88510   4.647   9.557   1.134  0.9468 -0.0865  2.5682
  671MOL0     H88511   4.712   9.326   1.146 -2.2986 -0.5977 -0.6405
  671MOL0     H88512   4.591   9.291   1.267 -1.3920 -0.1353 -0.8119
  671MOL0     H88513   4.697   9.465   1.436  0.6295 -2.6337  0.2088
  671MOL0     H88514   4.805   9.520   1.324  3.3586 -1.3949  3.1575
  671MOL0     H88515   4.812   9.235   1.419  3.3882 -1.1568 -1.4086
  671MOL0     H88516   4.917   9.309   1.292  0.0133 -0.5561  0.3240
  671MOL0     H88517   4.910   9.411   1.573  0.6754  0.0512 -0.4768
  671MOL0     H88518   4.995   9.472   1.442  1.6166 -0.3114  0.5020
  671MOL0     H88519   5.043   9.189   1.557  0.0707 -0.2746 -1.5353
  671MOL0     H88520   5.119   9.341   1.596  0.0160 -0.7406  0.6486
  671MOL0     H88521   5.105   9.210   1.307 -0.8612  2.5405 -1.0532
  671MOL0     H88522   5.206   9.340   1.347 -1.4375 -1.9496 -3.1473
  671MOL0     H88523   5.347   9.135   1.340  0.3884  2.1597 -1.0291
  671MOL0     H88524   5.244   9.050   1.443  3.3498 -0.5351  0.4241
  671MOL0     H88525   5.538   9.289   1.477 -0.5500 -2.9208 -1.8253
  671MOL0     H88526   5.724   9.243   1.683 -2.7407  0.1799 -2.5818
  671MOL0     H88527   5.654   9.254   1.853  2.0856  2.9330  1.8917
  671MOL0     H88528   5.729   9.479   1.828  0.4968  0.8731 -0.0540
  671MOL0     H88529   5.564   9.484   1.752 -0.6479 -0.6526 -4.3414
  671MOL0     H88530   5.826   9.516   1.625 -1.4783  3.3891 -0.7152
  671MOL0     H88531   5.720   9.409   1.541  0.5045  0.3215  0.7277
  671MOL0     H88532   5.617   9.666   1.660 -0.8929 -0.9900  0.9522
  671MOL0     H88533   5.531   9.565   1.542 -1.2209 -0.2669  0.7869
  671MOL0     H88534   5.733   9.738   1.224 -1.1939  1.3189 -3.0023
  671MOL0     H88535   5.649   9.958   1.121  0.2792  0.1927  0.1378
  671MOL0     H88536   5.500  10.407   1.196 -1.1650 -0.3097 -0.1727
  671MOL0     H88537   5.368  10.589   1.098  2.1290  1.3467 -1.4321
  671MOL0     H88538   5.089  10.506   0.767  1.1793 -0.1699  0.8271
  671MOL0     H88539   5.217  10.535   0.652 -1.1394 -0.0277 -0.5436
  671MOL0     H88540   5.054  10.695   0.596  0.3687 -2.8235  0.5657
  671MOL0     H88541   5.173  10.788   0.692  0.2620  0.7580  2.1677
  671MOL0     H88542   5.025  10.742   0.885  0.5484 -0.6701 -0.5842
  671MOL0     H88543   4.915  10.638   0.784 -0.1662 -0.4955 -0.8612
  671MOL0     H88544   4.971  10.945   0.779 -0.5332 -0.4280  5.3658
  671MOL0     H88545   4.865  10.861   0.655 -0.6117  0.3726  0.7674
  671MOL0     H88546   4.832  10.893   0.947  0.4804  0.7257 -0.5807
  671MOL0     H88547   4.725  10.806   0.834  0.0589 -0.6111 -0.7484
  671MOL0     H88548   4.691  11.017   0.715 -2.3324  3.6408  1.4802
  671MOL0     H88549   4.822  11.105   0.802  0.8444 -1.4751  0.6619
  671MOL0     H88550   4.554  11.020   0.890 -0.3057  0.2837 -1.8434
  671MOL0     H88551   4.683  11.062   1.012 -0.8892 -0.7216 -0.7840
  671MOL0     H88552   4.527  11.244   0.956 -2.2865 -0.3946 -0.8900
  671MOL0     H88553   4.585  11.253   0.787  3.7527  1.5002 -0.9531
  671MOL0     H88554   5.281  10.317   0.766  0.8605  2.0454 -0.4961
  671MOL0     H88555   5.421  10.156   0.870 -1.6036 -1.0927  3.6479
  671MOL0     H88556   5.467  10.065   1.500 -1.5266 -2.0793  1.8795
  671MOL0     H88557   5.542   9.841   1.593  3.0941  2.7810  1.4029
  671MOL0     H88558   4.450   9.432   0.796  3.8857  2.7659 -0.7298
  671MOL0     H88559   4.322   9.613   0.675 -0.8248  2.4595  0.2829
  671MOL0     H88560   4.013   9.801   0.579 -3.7504 -0.0006 -1.2587
  671MOL0     H88561   3.864   9.908   0.438 -1.6106  0.1582  2.3439
  671MOL0     H88562   3.953  10.316   0.312 -0.7005  0.5447 -1.4604
  671MOL0     H88563   3.821  10.337   0.425 -1.4313  0.7218  0.0927
  671MOL0     H88564   3.655  10.296   0.254 -1.1328 -0.3322 -1.4391
  671MOL0     H88565   3.768  10.426   0.201 -4.6796  1.2014  1.7540
  671MOL0     H88566   3.775  10.120   0.154  0.9798  0.7085  0.7648
  671MOL0     H88567   3.872  10.225   0.063 -0.2094  0.7685 -1.6546
  671MOL0     H88568   3.562  10.216   0.042 -0.7282  3.3877  1.6388
  671MOL0     H88569   3.663  10.357  -0.010 -1.2078  0.4033 -2.5261
  671MOL0     H88570   3.745  10.076  -0.318  0.2261  1.6786 -0.3737
  671MOL0     H88571   4.031  10.286   0.534 -0.5338 -0.2979  2.9342
  671MOL0     H88572   4.227  10.175   0.643  0.5736 -0.0299  0.4123
  672MOL0     O88573  10.525   0.224   7.514  0.3663  0.1604  0.3343
  672MOL0     C88574  10.409   0.223   7.460 -0.2617  1.1288 -0.5844
  672MOL0     O88575  10.292   0.220   7.524 -0.1198 -0.6595 -0.0996
  672MOL0     C88576  10.299   0.214   7.658 -1.3266 -0.6346 -0.9334
  672MOL0     C88577  10.257   0.320   7.732  1.4055 -1.1932 -1.0262
  672MOL0     C88578  10.249   0.318   7.869  1.0916 -0.2699 -0.2944
  672MOL0     C88579  10.291   0.202   7.937  0.5549 -0.3039  0.0730
  672MOL0     O88580  10.268   0.204   8.071  0.1037  0.5508 -0.4901
  672MOL0     C88581  10.259   0.073   8.123  0.5267  0.3004 -0.5428
  672MOL0     C88582  10.204   0.087   8.266 -0.3571 -0.2084 -0.1110
  672MOL0     C88583  10.168  -0.045   8.326  0.7094  0.4884 -0.6215
  672MOL0     C88584  10.106  -0.017   8.470  0.3455  0.8279  0.3359
  672MOL0     C88585  10.075  -0.143   8.554 -0.1852  0.6446 -0.0137
  672MOL0     C88586  10.021  -0.117   8.697 -0.8960 -0.2631  1.0151
  672MOL0     C88587  10.132  -0.094   8.786 -0.1826  0.6475 -0.2194
  672MOL0     C88588  10.093  -0.047   8.929  0.1095 -0.1938  0.1671
  672MOL0     N88589  10.027   0.088   8.927 -0.1696  0.5940  0.0708
  672MOL0     C88590   9.980   0.134   9.046  0.1997  0.2214  0.9132
  672MOL0     C88591   9.932   0.256   9.019 -0.7788 -0.2836 -0.9452
  672MOL0     C88592   9.880   0.348   9.118  0.2311 -0.6137  0.4298
  672MOL0     C88593   9.751   0.300   9.185  0.8710  0.5729 -0.6587
  672MOL0     C88594   9.677   0.407   9.266 -0.8048  0.2291  0.5436
  672MOL0     C88595   9.535   0.362   9.308 -0.0673 -0.0050  0.1422
  672MOL0     O88596   9.542   0.251   9.405 -0.3355  0.3091  0.7041
  672MOL0     C88597   9.429   0.182   9.441 -0.4475 -0.0934  0.4373
  672MOL0     C88598   9.441   0.043   9.454  0.3819 -0.1730  0.4290
  672MOL0     C88599   9.336  -0.046   9.486  0.6200 -0.3933  0.5400
  672MOL0     C88600   9.214   0.019   9.519 -0.7101  0.1735 -0.6396
  672MOL0     C88601   9.100  -0.060   9.573  0.0992  0.1910  0.2820
  672MOL0     O88602   9.118  -0.181   9.620 -0.6611  0.2723  0.4418
  672MOL0     C88603   9.012  -0.230   9.695  0.7946  0.1084  0.1358
  672MOL0     C88604   8.937  -0.324   9.633 -0.0491 -1.1277  0.3663
  672MOL0     C88605   8.837  -0.387   9.700 -0.2023  0.9503 -0.5201
  672MOL0     C88606   8.801  -0.355   9.829  1.0903  0.4297 -0.6897
  672MOL0     O88607   8.696  -0.402   9.913 -0.2564  0.0276  0.4353
  672MOL0     C88608   8.634  -0.525   9.885 -0.2887  0.2884  0.3579
  672MOL0     C88609   8.565  -0.584  10.011 -0.5406 -0.4997  0.2280
  672MOL0     C88610   8.586  -0.732  10.005  0.0283  1.4114  0.2155
  672MOL0     C88611   8.530  -0.784  10.141 -0.3227  0.3766  0.5566
  672MOL0     C88612   8.544  -0.931  10.149  0.7092 -0.2288 -0.3320
  672MOL0     C88613   8.683  -0.990  10.204 -0.8312  0.9067  0.2706
  672MOL0     C88614   8.709  -1.144  10.181  0.1496  0.0730 -0.4025
  672MOL0     C88615   8.858  -1.181  10.206 -0.7684  0.3648  0.0028
  672MOL0    Cl88616   8.920  -1.316  10.101 -0.8278 -0.1005 -0.1279
  672MOL0     C88617   8.856  -0.236   9.878  0.1643 -0.1767 -0.3175
  672MOL0     C88618   8.968  -0.187   9.823 -0.0804  0.4455 -0.6134
  672MOL0     O88619   8.990  -0.009   9.579  0.0542 -0.3970  0.0451
  672MOL0     C88620   9.200   0.158   9.511  0.1380 -0.6578 -0.9418
  672MOL0     C88621   9.303   0.233   9.468 -0.4122 -0.2277  1.0176
  672MOL0     N88622   9.941   0.283   8.886  0.8779  0.7748 -0.4690
  672MOL0     N88623  10.002   0.181   8.827 -0.0580 -0.1943 -0.2534
  672MOL0     C88624  10.352   0.093   7.867  0.0397 -0.6339  0.3239
  672MOL0     C88625  10.343   0.098   7.728 -0.6950  0.6069 -0.0359
  672MOL0     C88626  10.411   0.228   7.312 -0.1834 -0.2375  0.6008
  672MOL0     C88627  10.300   0.201   7.239  0.8215 -0.8165 -0.0306
  672MOL0     C88628  10.292   0.182   7.101  0.2976  0.7510 -0.5934
  672MOL0     C88629  10.409   0.179   7.027  0.3665 -0.7931  0.8214
  672MOL0     O88630  10.403   0.170   6.888  0.3890  0.8010  0.6305
  672MOL0     C88631  10.412   0.293   6.808  1.1071 -0.8391 -0.3048
  672MOL0     C88632  10.397   0.266   6.664  0.0348 -0.2742  0.1471
  672MOL0     C88633  10.374   0.387   6.579 -0.2851 -0.5296 -0.0160
  672MOL0     C88634  10.293   0.357   6.452  0.1476 -0.1952 -0.4515
  672MOL0     C88635  10.332   0.443   6.341  0.2827  0.2746 -0.0780
  672MOL0     C88636  10.350   0.520   6.246 -0.3910 -0.3402 -0.9110
  672MOL0     C88637  10.528   0.194   7.101  0.2432 -0.3683  1.0051
  672MOL0     C88638  10.539   0.211   7.243 -0.0918  0.3127 -0.0397
  672MOL0     H88639  10.231   0.406   7.672  2.4871 -3.6460 -5.4743
  672MOL0     H88640  10.206   0.399   7.927  0.0052 -1.9622  1.3668
  672MOL0     H88641  10.350   0.013   8.123 -0.3092 -1.0203  0.1787
  672MOL0     H88642  10.182   0.026   8.060  1.0288 -0.8755 -0.3133
  672MOL0     H88643  10.118   0.153   8.256 -1.7818 -1.8620  0.7243
  672MOL0     H88644  10.280   0.135   8.329  0.6514 -2.4766  0.5132
  672MOL0     H88645  10.245  -0.121   8.341 -0.3866 -0.5827 -0.2607
  672MOL0     H88646  10.094  -0.090   8.260 -1.3142  0.8178  1.3099
  672MOL0     H88647  10.171   0.040   8.536  1.8645 -1.2246  0.7318
  672MOL0     H88648  10.018   0.044   8.454  1.6924  2.1100 -3.1462
  672MOL0     H88649  10.175  -0.186   8.569  0.8840  2.4690 -1.5376
  672MOL0     H88650  10.011  -0.220   8.511 -3.0024  1.7205  1.9972
  672MOL0     H88651   9.969  -0.209   8.725 -0.0692 -0.3952  2.1749
  672MOL0     H88652   9.963  -0.024   8.690 -0.2264  0.0702 -0.8322
  672MOL0     H88653  10.191  -0.185   8.796  2.1759  1.8852 -1.8831
  672MOL0     H88654  10.197  -0.016   8.744 -1.1995  1.0863 -1.0014
  672MOL0     H88655  10.175  -0.025   8.998  0.9336  2.7667 -1.5761
  672MOL0     H88656  10.028  -0.123   8.974  0.7079  0.4241  2.1743
  672MOL0     H88657   9.971   0.082   9.141 -1.7239  0.3899  0.8698
  672MOL0     H88658   9.860   0.435   9.055  2.1259 -0.6111 -0.2329
  672MOL0     H88659   9.956   0.381   9.189  0.2836 -1.5378  0.8106
  672MOL0     H88660   9.781   0.217   9.251 -0.7243 -2.1365 -3.0862
  672MOL0     H88661   9.680   0.252   9.117  1.0541 -2.8355  1.2821
  672MOL0     H88662   9.722   0.427   9.364 -1.3635 -1.6431  1.2331
  672MOL0     H88663   9.666   0.496   9.204  3.6630  0.1749 -0.6952
  672MOL0     H88664   9.471   0.326   9.227 -2.8157 -2.5006  3.1501
  672MOL0     H88665   9.483   0.449   9.348  1.3245  1.7913 -1.7466
  672MOL0     H88666   9.530  -0.016   9.433 -0.8399 -1.9459 -0.0354
  672MOL0     H88667   9.358  -0.151   9.500 -1.5296 -0.7208  2.0107
  672MOL0     H88668   8.962  -0.351   9.531 -3.4706 -1.4368 -0.5088
  672MOL0     H88669   8.782  -0.468   9.653 -1.4893 -0.1103  2.5693
  672MOL0     H88670   8.717  -0.592   9.863 -1.9163 -1.6150 -0.1689
  672MOL0     H88671   8.568  -0.518   9.798  0.5741  2.8429 -0.1934
  672MOL0     H88672   8.459  -0.557  10.001 -0.3994  0.4813  1.1755
  672MOL0     H88673   8.614  -0.543  10.100 -0.5431 -0.9035  0.4185
  672MOL0     H88674   8.692  -0.755   9.996  0.0900  1.6916  0.2523
  672MOL0     H88675   8.535  -0.776   9.918  1.8615  1.3186 -0.8575
  672MOL0     H88676   8.566  -0.731  10.230 -1.0613 -0.1044  1.1551
  672MOL0     H88677   8.424  -0.758  10.137 -0.9539 -2.1218 -0.6596
  672MOL0     H88678   8.534  -0.974  10.049  2.0750 -2.5591  0.4533
  672MOL0     H88679   8.456  -0.960  10.208 -0.1168  1.8562 -0.4662
  672MOL0     H88680   8.706  -0.960  10.307 -0.1745  0.4820  0.2517
  672MOL0     H88681   8.759  -0.928  10.156 -1.7403  0.8945 -1.2538
  672MOL0     H88682   8.635  -1.198  10.240 -0.2686 -0.5940 -1.4959
  672MOL0     H88683   8.688  -1.157  10.074 -1.9376 -0.3592  0.0209
  672MOL0     H88684   8.872  -1.212  10.310 -1.6371 -0.2573 -0.0575
  672MOL0     H88685   8.921  -1.093  10.187 -1.1595  0.4274 -1.0063
  672MOL0     H88686   8.829  -0.215   9.980  2.9380 -2.9561  1.1643
  672MOL0     H88687   9.017  -0.097   9.860 -4.0865  2.5276  0.2707
  672MOL0     H88688   9.113   0.219   9.532 -0.1816 -1.6135  0.7761
  672MOL0     H88689   9.288   0.340   9.457  2.6052  0.2429  0.7815
  672MOL0     H88690  10.404   0.008   7.911  0.5400 -3.2147 -4.5387
  672MOL0     H88691  10.394   0.020   7.673  0.1207  1.6299 -0.7583
  672MOL0     H88692  10.201   0.202   7.282  0.4246  3.1900 -0.6969
  672MOL0     H88693  10.197   0.176   7.049 -1.1056 -2.9899  1.9862
  672MOL0     H88694  10.514   0.325   6.829 -0.2404  4.3717 -0.1054
  672MOL0     H88695  10.339   0.368   6.841  1.0493 -0.5183 -1.1503
  672MOL0     H88696  10.483   0.208   6.628 -1.3825 -1.7147 -1.0677
  672MOL0     H88697  10.309   0.207   6.639 -2.4048  3.4133 -0.7467
  672MOL0     H88698  10.477   0.412   6.551 -0.5274 -0.1754 -0.6023
  672MOL0     H88699  10.338   0.474   6.633  0.5335  0.3583 -0.8602
  672MOL0     H88700  10.292   0.256   6.411  2.4380 -0.5356  0.2070
  672MOL0     H88701  10.192   0.387   6.482 -0.3639 -0.5489 -1.7868
  672MOL0     H88702  10.361   0.583   6.161 -1.9275 -1.1275 -1.7353
  672MOL0     H88703  10.623   0.191   7.047  0.7360 -1.3696  1.8972
  672MOL0     H88704  10.633   0.232   7.293 -0.4350  0.3442  0.6117
  673MOL0     O88705   9.604   9.662   5.564 -0.4112 -0.5974  0.2387
  673MOL0     C88706   9.695   9.594   5.613  1.2874  0.7018  0.3258
  673MOL0     O88707   9.687   9.532   5.740 -0.6640 -0.4589 -0.7704
  673MOL0     C88708   9.673   9.608   5.857 -0.7529  0.2075  0.3966
  673MOL0     C88709   9.634   9.546   5.978  0.1286  0.3092 -0.6375
  673MOL0     C88710   9.648   9.618   6.092  0.4382 -0.1839  1.1442
  673MOL0     C88711   9.697   9.753   6.100 -1.3623 -0.4325  0.0981
  673MOL0     O88712   9.720   9.816   6.223  0.1988  0.0403  0.2899
  673MOL0     C88713   9.712   9.736   6.340 -0.4070  0.6572 -0.0897
  673MOL0     C88714   9.598   9.790   6.426  0.0142  0.3658 -0.5227
  673MOL0     C88715   9.465   9.803   6.346 -0.8644 -0.2186 -0.6697
  673MOL0     C88716   9.352   9.805   6.447 -0.4199  0.4395  0.3233
  673MOL0     C88717   9.214   9.836   6.395  0.4127  0.4552  0.6627
  673MOL0     C88718   9.182   9.723   6.294 -0.3455 -0.2470 -0.3384
  673MOL0     C88719   9.034   9.746   6.249 -0.5590  0.1600  0.1536
  673MOL0     C88720   8.974   9.651   6.144 -0.2331  0.1725  0.0123
  673MOL0     N88721   8.952   9.515   6.193 -0.0505  1.2415  0.0433
  673MOL0     C88722   8.961   9.390   6.122  0.6042  0.4299  1.1735
  673MOL0     C88723   8.968   9.299   6.216 -0.6616 -0.2695 -0.9729
  673MOL0     C88724   8.993   9.150   6.198 -0.6205 -0.3463 -0.1111
  673MOL0     C88725   8.869   9.065   6.192 -0.1038 -0.2998 -0.2534
  673MOL0     C88726   8.917   8.922   6.218 -0.5423 -0.3678  0.0671
  673MOL0     C88727   8.791   8.838   6.218 -0.5892 -0.2476  0.9008
  673MOL0     O88728   8.708   8.836   6.328  0.0354 -0.4047 -0.0251
  673MOL0     C88729   8.752   8.807   6.454  1.1873 -1.0707 -0.1833
  673MOL0     C88730   8.843   8.710   6.487 -0.1963 -0.8529  0.4856
  673MOL0     C88731   8.901   8.703   6.622 -0.4732  0.2083 -0.8528
  673MOL0     C88732   8.859   8.788   6.721  1.3110  0.7668 -0.7793
  673MOL0     C88733   8.913   8.778   6.866  0.1067  0.2072  0.5438
  673MOL0     O88734   8.922   8.896   6.945 -0.1405  0.2301  1.1913
  673MOL0     C88735   8.926   8.890   7.073 -0.3226 -0.4405  0.0091
  673MOL0     C88736   8.887   8.784   7.164  0.7236 -1.4065  0.5919
  673MOL0     C88737   8.899   8.805   7.300  0.0691 -0.6023 -0.0565
  673MOL0     C88738   8.925   8.933   7.348 -0.7797  0.6904 -1.0839
  673MOL0     O88739   8.949   8.965   7.481  0.6050 -0.1598 -0.3358
  673MOL0     C88740   8.922   8.879   7.588  1.2646  0.5318 -0.5629
  673MOL0     C88741   8.770   8.861   7.604  0.0197 -0.0777 -0.0551
  673MOL0     C88742   8.743   8.723   7.675 -0.3417 -0.1690 -0.5014
  673MOL0     C88743   8.608   8.706   7.726  0.3410  0.2690 -0.0551
  673MOL0     C88744   8.493   8.727   7.618  0.3615  0.1036 -0.3458
  673MOL0     C88745   8.365   8.727   7.682  0.3377 -0.0307 -0.0488
  673MOL0     C88746   8.306   8.580   7.703  0.3802  0.6269  0.0179
  673MOL0     C88747   8.182   8.591   7.786  0.1678  0.2934 -0.2298
  673MOL0    Cl88748   8.116   8.420   7.804  0.1430  0.4263 -0.0941
  673MOL0     C88749   8.973   9.027   7.259  0.7498  1.3079  0.5022
  673MOL0     C88750   8.967   9.011   7.122  0.3054 -0.9399  0.1083
  673MOL0     O88751   8.928   8.656   6.907  0.8147 -0.8947  0.5211
  673MOL0     C88752   8.750   8.876   6.688  0.6203  0.1295 -0.9393
  673MOL0     C88753   8.699   8.879   6.562  0.4839 -0.7666 -0.3414
  673MOL0     N88754   8.929   9.364   6.335 -0.3260 -0.0016 -0.0537
  673MOL0     N88755   8.932   9.488   6.325  0.0342  0.6440 -0.0098
  673MOL0     C88756   9.734   9.817   5.977 -0.6200  0.4474 -0.0679
  673MOL0     C88757   9.722   9.746   5.856  0.4186 -0.1301  0.0726
  673MOL0     C88758   9.816   9.570   5.527 -1.1405  1.2334  0.1350
  673MOL0     C88759   9.944   9.553   5.578 -0.2526 -0.7073 -0.3715
  673MOL0     C88760  10.056   9.537   5.499  0.8978 -0.5261  0.7813
  673MOL0     C88761  10.050   9.555   5.363  0.5805  0.3392  0.1882
  673MOL0     O88762  10.156   9.566   5.283 -0.1583  0.6471 -0.2410
  673MOL0     C88763  10.217   9.436   5.267 -0.3472 -0.0792  0.8596
  673MOL0     C88764  10.295   9.418   5.135  0.6270 -0.8715 -0.8901
  673MOL0     C88765  10.242   9.487   5.010 -0.0710 -0.8858 -0.3851
  673MOL0     C88766  10.146   9.405   4.916 -0.3605 -0.3008 -0.3506
  673MOL0     C88767  10.001   9.390   4.960  0.3295 -1.3635 -0.5812
  673MOL0     C88768   9.880   9.413   4.966  0.5712  1.3936 -0.4783
  673MOL0     C88769   9.916   9.565   5.305  0.0516 -0.5172  0.3331
  673MOL0     C88770   9.797   9.566   5.387  0.0499  0.2321 -0.0732
  673MOL0     H88771   9.598   9.444   5.972  0.5950  0.2123 -2.2809
  673MOL0     H88772   9.638   9.553   6.179 -1.2665  2.0921  2.7669
  673MOL0     H88773   9.797   9.757   6.406 -1.8906  0.2562  2.0911
  673MOL0     H88774   9.712   9.628   6.325  0.9244  0.7878 -1.1776
  673MOL0     H88775   9.627   9.888   6.466 -1.2914  0.3007  0.6510
  673MOL0     H88776   9.581   9.728   6.515 -1.9027  1.3559 -0.1405
  673MOL0     H88777   9.467   9.717   6.279 -3.2752 -1.1532  0.3808
  673MOL0     H88778   9.458   9.899   6.292  2.6936  1.0170  0.7612
  673MOL0     H88779   9.349   9.712   6.505  1.7403  1.4203  2.1410
  673MOL0     H88780   9.380   9.873   6.528  1.2072  1.4393 -1.0160
  673MOL0     H88781   9.214   9.935   6.348  2.0267  0.4227  0.5155
  673MOL0     H88782   9.144   9.834   6.479  0.4307 -1.3301  0.6826
  673MOL0     H88783   9.173   9.629   6.350 -5.4314 -0.6076 -1.2980
  673MOL0     H88784   9.251   9.714   6.209  1.7694 -2.9232  1.4937
  673MOL0     H88785   8.971   9.742   6.338  1.3844 -2.1833  1.5397
  673MOL0     H88786   9.040   9.847   6.207  0.8454 -0.4699 -1.2770
  673MOL0     H88787   9.052   9.641   6.069 -0.6724 -3.0372 -0.1740
  673MOL0     H88788   8.886   9.679   6.085 -0.8924 -1.4897  0.1348
  673MOL0     H88789   8.986   9.380   6.017  3.2002  2.5205  1.5026
  673MOL0     H88790   9.056   9.108   6.278 -2.7265 -2.2260  0.6824
  673MOL0     H88791   9.038   9.143   6.099 -2.6344  2.1326 -1.2890
  673MOL0     H88792   8.816   9.072   6.097 -0.7007  1.0736  0.1543
  673MOL0     H88793   8.799   9.111   6.263  3.2092  2.0731  1.7473
  673MOL0     H88794   8.998   8.893   6.150 -1.3738 -1.1590 -0.6148
  673MOL0     H88795   8.964   8.916   6.316 -1.0362  0.6401  0.3767
  673MOL0     H88796   8.824   8.736   6.194  0.5314  0.7844 -2.4449
  673MOL0     H88797   8.730   8.862   6.131 -0.1490  0.7373  0.8593
  673MOL0     H88798   8.878   8.652   6.403  1.5838  1.4615 -0.4704
  673MOL0     H88799   8.977   8.629   6.645 -1.3186  0.0384  1.7367
  673MOL0     H88800   8.854   8.687   7.128  1.0862 -1.4284  0.3159
  673MOL0     H88801   8.862   8.739   7.378 -2.5346  0.8008  0.0050
  673MOL0     H88802   8.959   8.907   7.687 -2.0677  0.6686  0.7778
  673MOL0     H88803   8.972   8.783   7.573  1.9357  0.9211 -0.8879
  673MOL0     H88804   8.730   8.863   7.503 -1.0661  1.1320  0.3728
  673MOL0     H88805   8.735   8.948   7.661 -1.5441  0.3150 -1.5359
  673MOL0     H88806   8.810   8.722   7.761 -1.3321  1.9397  0.3640
  673MOL0     H88807   8.777   8.638   7.615  3.9707  0.5206  0.6502
  673MOL0     H88808   8.601   8.608   7.773 -2.9245 -1.7386 -4.0938
  673MOL0     H88809   8.608   8.784   7.804 -0.1216 -0.8112  1.0495
  673MOL0     H88810   8.495   8.663   7.530  0.1796  0.9667 -0.9969
  673MOL0     H88811   8.509   8.828   7.577 -0.8669  1.2273  1.7494
  673MOL0     H88812   8.294   8.780   7.618  2.1794  1.1824 -1.1746
  673MOL0     H88813   8.373   8.786   7.774 -0.4045  1.5470 -0.9603
  673MOL0     H88814   8.293   8.523   7.611  0.1869 -0.3098  0.6111
  673MOL0     H88815   8.377   8.529   7.770 -0.2771  1.4376  1.3793
  673MOL0     H88816   8.109   8.643   7.724 -0.0998 -0.6668 -0.7286
  673MOL0     H88817   8.214   8.645   7.876 -2.4956  1.5537  0.0556
  673MOL0     H88818   9.026   9.102   7.318 -2.5538  2.9277  1.6745
  673MOL0     H88819   9.017   9.082   7.058  0.6884 -0.9644  0.3809
  673MOL0     H88820   8.704   8.944   6.759 -1.9663 -1.7952 -0.6187
  673MOL0     H88821   8.617   8.941   6.529 -1.2710 -2.7351  0.1001
  673MOL0     H88822   9.764   9.921   5.986 -1.0293  0.9607 -3.4896
  673MOL0     H88823   9.755   9.799   5.768  1.8750  1.1316  1.3133
  673MOL0     H88824   9.965   9.545   5.684  0.1288 -2.9756 -0.5724
  673MOL0     H88825  10.157   9.509   5.527  1.6694 -4.5672 -4.5040
  673MOL0     H88826  10.137   9.362   5.259 -0.0413 -0.5229  1.7513
  673MOL0     H88827  10.274   9.399   5.353  0.2030 -0.5110  0.3242
  673MOL0     H88828  10.394   9.455   5.165  0.5841 -2.6550  1.7727
  673MOL0     H88829  10.296   9.310   5.124 -2.2537 -0.7915 -2.7489
  673MOL0     H88830  10.335   9.513   4.959 -1.3648 -0.2623 -2.6011
  673MOL0     H88831  10.192   9.579   5.040  1.1586 -0.9174  1.9514
  673MOL0     H88832  10.158   9.470   4.830 -1.7302 -0.1631 -0.4549
  673MOL0     H88833  10.185   9.305   4.895 -0.7325  0.2078 -4.1332
  673MOL0     H88834   9.773   9.426   4.970  0.3965 -0.2293  0.9095
  673MOL0     H88835   9.905   9.579   5.198  0.6146 -4.4525 -0.3954
  673MOL0     H88836   9.698   9.576   5.343  0.9684 -1.9585 -2.8939
  674MOL0     O88837   0.710   7.299  10.659  1.1571 -0.4747 -0.1783
  674MOL0     C88838   0.662   7.417  10.671 -0.4663 -0.5642 -0.1303
  674MOL0     O88839   0.601   7.491  10.581  0.5072  0.0685  0.0476
  674MOL0     C88840   0.617   7.463  10.445  0.7824 -0.3381  0.1368
  674MOL0     C88841   0.731   7.406  10.390  0.0457  0.5127 -0.6136
  674MOL0     C88842   0.733   7.366  10.258 -0.6189  0.3213 -0.1869
  674MOL0     C88843   0.627   7.407  10.172 -0.6875 -0.3789 -0.1503
  674MOL0     O88844   0.637   7.356  10.038 -0.1443  0.1914 -0.3107
  674MOL0     C88845   0.525   7.380   9.955  0.6424 -0.4199  0.4352
  674MOL0     C88846   0.556   7.346   9.808 -0.0617  0.2240  0.4036
  674MOL0     C88847   0.438   7.377   9.719  1.3010  0.8031  0.6663
  674MOL0     C88848   0.424   7.312   9.582  0.1320  0.2492  0.6086
  674MOL0     C88849   0.314   7.353   9.480 -0.3508 -0.5303  0.0902
  674MOL0     C88850   0.379   7.479   9.408  0.4549  0.6268 -0.2844
  674MOL0     C88851   0.307   7.524   9.284 -0.2763  0.1671  0.3836
  674MOL0     C88852   0.299   7.421   9.174  0.1045 -0.5970 -0.3239
  674MOL0     N88853   0.195   7.491   9.090  0.6059 -0.1457 -0.2710
  674MOL0     C88854   0.240   7.585   9.001 -0.7800  1.1405  0.8893
  674MOL0     C88855   0.126   7.643   8.968  0.5034  0.2183  0.5192
  674MOL0     C88856   0.107   7.765   8.893  0.0413 -0.4082  0.1395
  674MOL0     C88857   0.084   7.738   8.743 -0.2784  0.1874  0.3017
  674MOL0     C88858   0.077   7.874   8.672  0.1264 -0.1838 -0.0732
  674MOL0     C88859  -0.047   7.964   8.696 -0.1529  1.5014 -0.3456
  674MOL0     O88860  -0.059   8.072   8.600  0.6185  0.9661  0.0897
  674MOL0     C88861  -0.135   8.187   8.633 -0.0923 -0.5280  0.4513
  674MOL0     C88862  -0.190   8.247   8.519  0.2839 -0.3059  0.2282
  674MOL0     C88863  -0.295   8.340   8.533 -0.8710 -0.0652 -0.8040
  674MOL0     C88864  -0.331   8.383   8.667  0.6233  0.5431 -0.5325
  674MOL0     C88865  -0.423   8.500   8.684 -0.3774  0.2653 -0.2792
  674MOL0     O88866  -0.519   8.515   8.583 -0.3516 -0.5178  0.2205
  674MOL0     C88867  -0.609   8.622   8.593 -0.3653 -0.0251  1.3312
  674MOL0     C88868  -0.736   8.619   8.657  0.4376 -0.1683  0.6987
  674MOL0     C88869  -0.821   8.732   8.648  0.2791 -0.0120  0.3712
  674MOL0     C88870  -0.784   8.841   8.572 -1.2721 -0.1563  0.8880
  674MOL0     O88871  -0.846   8.962   8.558  0.7610 -0.2393  0.3727
  674MOL0     C88872  -0.887   9.017   8.683  0.4084  0.2726 -1.1872
  674MOL0     C88873  -0.783   9.130   8.712  0.4201 -0.4587  0.0108
  674MOL0     C88874  -0.683   9.083   8.819 -0.1560  0.6100 -0.5082
  674MOL0     C88875  -0.586   9.198   8.856 -0.0180  0.2028 -0.6843
  674MOL0     C88876  -0.457   9.213   8.774  0.0218  0.5460 -0.2220
  674MOL0     C88877  -0.345   9.307   8.816 -0.5278 -0.5195 -0.2712
  674MOL0     C88878  -0.267   9.270   8.932  0.3265  0.4923  0.8034
  674MOL0     C88879  -0.177   9.371   8.973 -0.1956 -0.4781  0.5200
  674MOL0    Cl88880  -0.261   9.507   9.064 -0.0870  0.3777  0.4814
  674MOL0     C88881  -0.659   8.841   8.501  0.4303 -0.3916  0.3889
  674MOL0     C88882  -0.570   8.738   8.518  0.2330 -0.8282  0.3211
  674MOL0     O88883  -0.411   8.571   8.785 -0.4825 -0.0267 -0.2806
  674MOL0     C88884  -0.260   8.330   8.780  1.1524 -0.9666  0.4871
  674MOL0     C88885  -0.162   8.229   8.769  0.0498 -0.2756 -0.2055
  674MOL0     N88886   0.018   7.588   9.032 -0.3087  0.9988 -0.1797
  674MOL0     N88887   0.060   7.490   9.107  0.2201 -0.4002 -0.2054
  674MOL0     C88888   0.516   7.475  10.221  0.2215 -0.8203 -0.3693
  674MOL0     C88889   0.511   7.499  10.358 -0.4986  0.4341 -0.1066
  674MOL0     C88890   0.668   7.471  10.814  0.2123  0.0209  0.3446
  674MOL0     C88891   0.765   7.431  10.905 -0.3624  0.3813 -2.0734
  674MOL0     C88892   0.774   7.484  11.029  0.9475 -0.0540  0.3334
  674MOL0     C88893   0.678   7.572  11.083  0.7233 -0.3735 -0.6297
  674MOL0     O88894   0.696   7.620  11.210 -0.0381 -0.6970 -0.1770
  674MOL0     C88895   0.599   7.697  11.265 -0.3079 -0.3243  1.2070
  674MOL0     C88896   0.653   7.769  11.384 -0.1301  0.1265  0.4354
  674MOL0     C88897   0.562   7.863  11.452 -0.1769  0.6646  0.0864
  674MOL0     C88898   0.641   7.965  11.532  0.1405 -0.1598 -0.6704
  674MOL0     C88899   0.681   7.912  11.662  0.3025 -0.8404 -0.7638
  674MOL0     C88900   0.702   7.890  11.780 -0.6804 -0.2617  0.1855
  674MOL0     C88901   0.572   7.599  10.995 -0.0583  0.2852 -0.7921
  674MOL0     C88902   0.569   7.554  10.857 -0.5489  0.8571  0.1004
  674MOL0     H88903   0.817   7.368  10.444 -0.8934 -2.4304 -0.9965
  674MOL0     H88904   0.825   7.316  10.232 -0.7135  0.2226 -0.3370
  674MOL0     H88905   0.516   7.489   9.947  3.2954 -0.2234 -1.1382
  674MOL0     H88906   0.433   7.331   9.989 -2.2522  1.1880 -4.1110
  674MOL0     H88907   0.580   7.240   9.811  2.4068  0.7329  2.8455
  674MOL0     H88908   0.644   7.406   9.781  0.0688  1.3044  2.9491
  674MOL0     H88909   0.433   7.486   9.709  0.2378  1.0786  3.3853
  674MOL0     H88910   0.345   7.346   9.768  1.8591 -2.3015 -0.0234
  674MOL0     H88911   0.523   7.305   9.534 -0.5538 -0.0173 -0.8189
  674MOL0     H88912   0.394   7.214   9.619 -1.9263  1.9221  3.8045
  674MOL0     H88913   0.222   7.381   9.531 -2.4410  0.0064 -3.6496
  674MOL0     H88914   0.291   7.277   9.405 -0.5253 -2.0911  1.6574
  674MOL0     H88915   0.483   7.451   9.391  1.0384  2.1787  0.5235
  674MOL0     H88916   0.382   7.566   9.474  2.0591  0.7840 -0.5209
  674MOL0     H88917   0.213   7.575   9.304  0.3831  0.2426  3.9038
  674MOL0     H88918   0.359   7.614   9.250 -1.0110  0.7120  0.6864
  674MOL0     H88919   0.273   7.319   9.206 -0.7135 -0.2569  0.1361
  674MOL0     H88920   0.389   7.422   9.112 -1.9675  1.1547 -3.6023
  674MOL0     H88921   0.346   7.593   8.979  0.1974 -5.5375  1.1243
  674MOL0     H88922   0.201   7.821   8.902 -1.3487  1.8396  1.4651
  674MOL0     H88923   0.035   7.828   8.945  1.0959  0.0007  1.1489
  674MOL0     H88924  -0.009   7.684   8.720 -0.1475  0.5024 -1.0472
  674MOL0     H88925   0.165   7.677   8.702 -0.3416  0.5503 -0.3759
  674MOL0     H88926   0.154   7.945   8.702 -2.7797  2.8431  0.7692
  674MOL0     H88927   0.083   7.853   8.565 -2.1785  0.6193 -0.3975
  674MOL0     H88928  -0.036   8.006   8.797 -1.6286  5.4921 -1.6382
  674MOL0     H88929  -0.131   7.894   8.695  0.3622  0.8466 -1.8567
  674MOL0     H88930  -0.174   8.199   8.423 -1.4413 -0.0663 -0.2233
  674MOL0     H88931  -0.353   8.372   8.447 -4.4870  3.8256  2.6306
  674MOL0     H88932  -0.764   8.525   8.704 -2.5312 -0.8899 -2.1101
  674MOL0     H88933  -0.915   8.733   8.701  1.2433 -0.9662  2.1897
  674MOL0     H88934  -0.896   8.942   8.763 -0.0097  1.9755  0.4408
  674MOL0     H88935  -0.988   9.057   8.682  0.4254  0.3740 -0.1344
  674MOL0     H88936  -0.829   9.224   8.745  3.3557  0.5659  1.5969
  674MOL0     H88937  -0.737   9.166   8.620 -1.5040  0.5987 -0.5993
  674MOL0     H88938  -0.640   8.987   8.790  0.1844 -0.6369  3.4523
  674MOL0     H88939  -0.737   9.063   8.912  1.0131  0.4557  0.1591
  674MOL0     H88940  -0.635   9.295   8.844  1.5943  1.3127  1.2272
  674MOL0     H88941  -0.559   9.190   8.962  2.4920 -0.6366 -1.3192
  674MOL0     H88942  -0.486   9.235   8.671  0.2962  0.0769 -0.4000
  674MOL0     H88943  -0.406   9.116   8.773  2.6025  1.7554  1.2462
  674MOL0     H88944  -0.402   9.400   8.827 -3.1986 -2.3623  3.4581
  674MOL0     H88945  -0.279   9.315   8.729 -3.1058  0.7082 -2.2565
  674MOL0     H88946  -0.319   9.230   9.019  0.5867  0.1152  0.7884
  674MOL0     H88947  -0.206   9.185   8.899  0.6574  0.9188  0.2938
  674MOL0     H88948  -0.120   9.402   8.885 -2.5818 -0.0762 -0.9729
  674MOL0     H88949  -0.105   9.316   9.034 -0.2218 -2.0610 -0.8052
  674MOL0     H88950  -0.628   8.920   8.433 -1.6404 -0.8653 -1.2029
  674MOL0     H88951  -0.478   8.736   8.459 -1.1945 -1.9583 -2.0474
  674MOL0     H88952  -0.305   8.362   8.874  3.3304  2.2532  0.5861
  674MOL0     H88953  -0.130   8.169   8.854 -0.0352  3.2479  2.5801
  674MOL0     H88954   0.430   7.504  10.161  0.7950 -1.3804 -1.4962
  674MOL0     H88955   0.421   7.530  10.411 -0.1566  0.6224  0.3720
  674MOL0     H88956   0.852   7.376  10.872  0.5796  0.2009  0.4680
  674MOL0     H88957   0.858   7.464  11.095  0.4712 -2.3146  0.3406
  674MOL0     H88958   0.515   7.634  11.297 -1.1560  0.5613  0.7566
  674MOL0     H88959   0.561   7.771  11.195  0.7329 -2.7369 -2.1688
  674MOL0     H88960   0.695   7.692  11.449 -1.9729  1.3031  3.1710
  674MOL0     H88961   0.730   7.835  11.344 -2.1790  1.2723 -1.8953
  674MOL0     H88962   0.484   7.811  11.507  1.8093 -0.6087  1.8552
  674MOL0     H88963   0.509   7.923  11.377 -0.3633  4.4206  2.9462
  674MOL0     H88964   0.719   8.024  11.484  0.2609  1.8837  1.8458
  674MOL0     H88965   0.578   8.049  11.560 -0.1546 -0.3482 -0.7566
  674MOL0     H88966   0.724   7.875  11.884  0.1672  1.5090  0.3017
  674MOL0     H88967   0.483   7.653  11.026 -0.7330 -1.3245  0.2079
  674MOL0     H88968   0.478   7.565  10.799  0.0408 -2.1449 -1.5834
  675MOL0     O88969   3.160   3.396   4.424 -0.5844 -0.1326 -0.3191
  675MOL0     C88970   3.237   3.314   4.463 -0.6825 -0.8209  0.6972
  675MOL0     O88971   3.206   3.200   4.518 -0.4215  0.2769 -0.4723
  675MOL0     C88972   3.072   3.179   4.536  0.2294  0.9750 -0.0378
  675MOL0     C88973   2.974   3.174   4.435  1.2614  0.5408  0.5571
  675MOL0     C88974   2.842   3.162   4.467  0.1542  1.3689 -0.6032
  675MOL0     C88975   2.799   3.148   4.593  0.2397  0.2054  0.3877
  675MOL0     O88976   2.662   3.165   4.607  0.3735  0.2638  0.2356
  675MOL0     C88977   2.591   3.079   4.696 -0.1831  0.2706  0.2083
  675MOL0     C88978   2.446   3.070   4.651  0.0729  0.5685  0.4368
  675MOL0     C88979   2.368   2.949   4.692 -0.1584 -0.1832 -0.1293
  675MOL0     C88980   2.256   2.932   4.602  0.0648  1.0382 -0.2140
  675MOL0     C88981   2.176   2.815   4.649 -0.8482 -0.5117  1.0386
  675MOL0     C88982   2.078   2.862   4.764  0.1665  0.7124 -0.3489
  675MOL0     C88983   1.962   2.964   4.711  0.0750 -0.3304 -0.0152
  675MOL0     C88984   1.890   2.995   4.834  0.2928  0.0752  0.3591
  675MOL0     N88985   1.754   3.045   4.796  0.3185  0.2618 -0.7419
  675MOL0     C88986   1.659   2.964   4.745  1.0936  0.4798 -0.6424
  675MOL0     C88987   1.568   3.044   4.685  0.4353 -0.0502  0.2988
  675MOL0     C88988   1.443   2.991   4.615  0.0604 -0.8481  0.8243
  675MOL0     C88989   1.460   2.994   4.457 -0.8810  0.8036 -0.6055
  675MOL0     C88990   1.475   2.856   4.390 -0.4328 -0.1190 -1.0066
  675MOL0     C88991   1.534   2.887   4.254  0.2700 -0.9027 -0.1669
  675MOL0     O88992   1.667   2.860   4.264  0.1657  0.1923  0.2727
  675MOL0     C88993   1.713   2.732   4.240 -0.0387 -0.0952 -0.9058
  675MOL0     C88994   1.648   2.609   4.265  0.5432 -0.6060  0.2992
  675MOL0     C88995   1.716   2.492   4.244 -0.0584  0.0878 -0.0047
  675MOL0     C88996   1.843   2.482   4.183  0.4590  0.1395  0.2298
  675MOL0     C88997   1.903   2.358   4.155 -0.0425  1.1444  1.2668
  675MOL0     O88998   1.882   2.256   4.237 -0.5620 -0.2862 -0.1126
  675MOL0     C88999   1.958   2.148   4.210 -0.0244 -0.4157 -0.3967
  675MOL0     C89000   2.088   2.127   4.270 -0.1054 -0.8738  0.6309
  675MOL0     C89001   2.157   2.010   4.246 -0.7556 -1.0000  0.1642
  675MOL0     C89002   2.098   1.897   4.184 -0.4531  0.4393 -0.0202
  675MOL0     O89003   2.167   1.782   4.169 -0.8071  0.5368  0.0070
  675MOL0     C89004   2.122   1.676   4.082 -0.9492 -0.1170 -0.2289
  675MOL0     C89005   2.243   1.593   4.036 -0.2435  0.0120  0.1805
  675MOL0     C89006   2.199   1.457   3.977  0.0718 -0.1968  0.2357
  675MOL0     C89007   2.151   1.487   3.823 -0.5681  0.6474 -0.3474
  675MOL0     C89008   2.121   1.359   3.756  0.4721  0.8023  0.0535
  675MOL0     C89009   2.088   1.377   3.608  0.6851 -0.8540 -0.2075
  675MOL0     C89010   1.970   1.478   3.583  1.0450  0.4483 -0.2339
  675MOL0     C89011   1.969   1.502   3.432  0.7265 -0.6737 -1.0168
  675MOL0    Cl89012   1.808   1.579   3.407 -0.3643  0.0352  0.1539
  675MOL0     C89013   1.966   1.924   4.135  0.8207  0.1721  1.2814
  675MOL0     C89014   1.902   2.042   4.140  0.1041 -0.1187  0.4065
  675MOL0     O89015   1.966   2.353   4.052 -0.3387  0.3424 -1.1843
  675MOL0     C89016   1.909   2.602   4.180 -0.3615 -0.3899 -0.4202
  675MOL0     C89017   1.844   2.723   4.198  0.9651 -1.0183 -0.2587
  675MOL0     N89018   1.614   3.175   4.696 -0.6090 -0.8359 -0.2020
  675MOL0     N89019   1.727   3.175   4.757  0.3003 -0.2638  0.7872
  675MOL0     C89020   2.894   3.125   4.697 -0.0704 -0.5272  0.2472
  675MOL0     C89021   3.034   3.142   4.667  0.2232  0.3978 -0.2581
  675MOL0     C89022   3.380   3.331   4.432  0.0070  0.5867  0.6736
  675MOL0     C89023   3.469   3.230   4.440 -0.1900 -0.9543  0.5590
  675MOL0     C89024   3.600   3.244   4.386 -0.0134 -0.2701 -0.2324
  675MOL0     C89025   3.642   3.374   4.348 -0.8211 -0.0459 -0.3393
  675MOL0     O89026   3.765   3.373   4.288 -0.0022  0.2211  0.5201
  675MOL0     C89027   3.867   3.304   4.358 -0.3346  0.7451  0.3166
  675MOL0     C89028   4.000   3.303   4.292  0.2947 -0.3615  1.1203
  675MOL0     C89029   4.063   3.431   4.241 -1.6151 -0.1863 -0.2217
  675MOL0     C89030   4.198   3.415   4.156 -0.4246  0.3146  0.4219
  675MOL0     C89031   4.281   3.301   4.205 -0.5858 -0.2793  0.7519
  675MOL0     C89032   4.351   3.209   4.225  0.3997  0.5830  0.6756
  675MOL0     C89033   3.553   3.487   4.347  0.2865  0.3495 -0.1267
  675MOL0     C89034   3.425   3.462   4.390  0.6251 -0.4524 -0.3323
  675MOL0     H89035   2.988   3.208   4.333  1.4053  0.6807  0.6235
  675MOL0     H89036   2.781   3.161   4.377  0.0155 -2.5715 -0.6682
  675MOL0     H89037   2.601   3.134   4.790  1.2080  1.9810 -0.8935
  675MOL0     H89038   2.622   2.974   4.698 -3.8863 -1.1324 -2.5948
  675MOL0     H89039   2.443   3.053   4.543  0.0645 -0.7357  0.6169
  675MOL0     H89040   2.385   3.158   4.675  0.4586  0.3571  2.3852
  675MOL0     H89041   2.339   2.975   4.794 -2.8586 -0.7400 -0.6658
  675MOL0     H89042   2.431   2.862   4.712 -0.7519 -1.3797 -2.9850
  675MOL0     H89043   2.204   3.028   4.588  3.1756  2.5561 -2.5684
  675MOL0     H89044   2.294   2.918   4.500  0.8211  3.5917 -0.3530
  675MOL0     H89045   2.242   2.733   4.677  3.1851  1.9323 -0.5314
  675MOL0     H89046   2.108   2.773   4.573 -3.5587 -1.1675  3.6399
  675MOL0     H89047   2.129   2.929   4.834  0.4792 -0.6193  0.7457
  675MOL0     H89048   2.042   2.773   4.817  0.1810  1.0702  0.2818
  675MOL0     H89049   2.005   3.055   4.670 -0.6699 -0.4245 -1.0827
  675MOL0     H89050   1.895   2.919   4.637 -0.8206  0.1290  0.4967
  675MOL0     H89051   1.945   3.067   4.897  1.4218 -1.3653  1.0967
  675MOL0     H89052   1.862   2.910   4.897  0.2088 -0.2580 -0.1222
  675MOL0     H89053   1.638   2.858   4.742 -5.8401  1.1016  3.6033
  675MOL0     H89054   1.364   3.058   4.651  0.7164 -0.9498  2.5222
  675MOL0     H89055   1.427   2.890   4.653  1.3518 -2.0452 -1.6087
  675MOL0     H89056   1.544   3.061   4.441 -1.1428  1.5014  0.7410
  675MOL0     H89057   1.374   3.039   4.406  0.2717  0.5657 -2.8782
  675MOL0     H89058   1.550   2.802   4.449  1.4707  3.5957  0.3041
  675MOL0     H89059   1.384   2.795   4.389  2.6298 -5.4117  0.6042
  675MOL0     H89060   1.522   2.993   4.230  2.9608 -0.5625 -0.2591
  675MOL0     H89061   1.492   2.833   4.169  2.8144 -0.1894 -1.9714
  675MOL0     H89062   1.544   2.600   4.296  0.6908 -1.1629  0.6361
  675MOL0     H89063   1.659   2.403   4.268 -0.7844  1.1218  2.4175
  675MOL0     H89064   2.136   2.205   4.328 -0.0609 -0.1458 -0.3463
  675MOL0     H89065   2.260   2.000   4.277 -1.1499 -0.7978  1.6235
  675MOL0     H89066   2.062   1.709   3.997  0.0128  2.5357  0.0145
  675MOL0     H89067   2.078   1.601   4.149  1.3283 -1.7121 -0.4293
  675MOL0     H89068   2.307   1.565   4.120  0.3478 -3.5947 -1.2918
  675MOL0     H89069   2.308   1.646   3.965  0.7691 -1.2226  0.1538
  675MOL0     H89070   2.130   1.397   4.037  2.0868 -1.4641  1.4019
  675MOL0     H89071   2.280   1.385   3.989 -1.4020 -2.0679 -0.4452
  675MOL0     H89072   2.054   1.537   3.835 -0.8838 -0.1696  0.7205
  675MOL0     H89073   2.236   1.539   3.778 -1.6033  2.1272 -0.6655
  675MOL0     H89074   2.040   1.314   3.815 -0.0957  0.6505 -0.8168
  675MOL0     H89075   2.199   1.282   3.756 -1.1745 -0.9501  0.2701
  675MOL0     H89076   2.049   1.284   3.565  2.0404 -1.3536 -0.4274
  675MOL0     H89077   2.176   1.413   3.553  0.9267  0.2734  0.8740
  675MOL0     H89078   1.874   1.433   3.607  2.3731 -1.1289  2.5676
  675MOL0     H89079   1.984   1.572   3.638 -0.4192  0.0722  0.8092
  675MOL0     H89080   1.981   1.411   3.372 -0.6391 -0.2059 -2.0674
  675MOL0     H89081   2.041   1.580   3.408  0.4671  0.0904  0.5487
  675MOL0     H89082   1.918   1.847   4.076 -1.4308  1.0280  1.8905
  675MOL0     H89083   1.799   2.058   4.110  0.1683  0.2993  0.4039
  675MOL0     H89084   2.003   2.614   4.127 -0.6761  0.4198 -0.8155
  675MOL0     H89085   1.902   2.813   4.183  0.1244 -0.1399  1.5658
  675MOL0     H89086   2.858   3.116   4.800  2.2207  4.5365  1.7927
  675MOL0     H89087   3.115   3.134   4.738  0.1637 -3.0757 -0.4106
  675MOL0     H89088   3.431   3.130   4.460 -2.7917 -0.1563 -0.0637
  675MOL0     H89089   3.642   3.144   4.382  0.0762 -0.2951  1.0237
  675MOL0     H89090   3.836   3.200   4.346  1.3302  0.4182 -1.8325
  675MOL0     H89091   3.878   3.325   4.465  2.8588 -1.8395  0.6451
  675MOL0     H89092   4.073   3.264   4.363  1.3437 -0.8340 -0.1875
  675MOL0     H89093   3.996   3.230   4.211  1.9479 -1.0450  1.6007
  675MOL0     H89094   4.087   3.491   4.329  6.0700 -2.3699 -0.1335
  675MOL0     H89095   3.993   3.485   4.177 -0.1156  0.6591 -1.2010
  675MOL0     H89096   4.169   3.395   4.052  0.1539  1.7611 -0.0380
  675MOL0     H89097   4.260   3.505   4.155  0.5217 -0.2819  1.8921
  675MOL0     H89098   4.399   3.114   4.227  1.0407  0.9011  0.6138
  675MOL0     H89099   3.591   3.587   4.327 -0.3133  1.0573  1.9351
  675MOL0     H89100   3.351   3.541   4.397 -1.0678 -1.8051 -1.8487
  676MOL0     O89101   4.722   6.625   3.566  0.9885 -0.7073  0.6130
  676MOL0     C89102   4.676   6.657   3.455  0.3154 -0.3063 -0.0399
  676MOL0     O89103   4.548   6.693   3.423 -0.3552 -0.6245  0.6462
  676MOL0     C89104   4.445   6.707   3.514 -0.5006  0.4053 -0.4299
  676MOL0     C89105   4.308   6.710   3.467 -0.4356 -0.6617  0.7123
  676MOL0     C89106   4.197   6.698   3.550  1.1519 -0.5529  0.1115
  676MOL0     C89107   4.215   6.694   3.695 -0.8333  0.0140 -0.3722
  676MOL0     O89108   4.121   6.684   3.799  0.0255 -0.6620  0.4101
  676MOL0     C89109   3.986   6.627   3.778  0.3317  0.7289  1.3672
  676MOL0     C89110   3.981   6.499   3.690  0.2071  0.0627 -0.4120
  676MOL0     C89111   3.835   6.446   3.679 -0.0655 -0.0694  0.5435
  676MOL0     C89112   3.821   6.324   3.587  0.0825  0.9909 -0.0125
  676MOL0     C89113   3.682   6.280   3.548  0.1163  0.3343  0.1376
  676MOL0     C89114   3.680   6.167   3.455  0.1726  0.0362  0.8601
  676MOL0     C89115   3.674   6.034   3.535  0.4634  0.5970 -0.2227
  676MOL0     C89116   3.664   5.916   3.429 -0.7790 -1.1285 -0.6465
  676MOL0     N89117   3.789   5.886   3.357 -0.1534 -0.4839 -1.0104
  676MOL0     C89118   3.907   5.847   3.415 -0.9735 -1.0993 -0.8409
  676MOL0     C89119   4.002   5.858   3.329 -0.3982 -0.2620  0.7341
  676MOL0     C89120   4.135   5.802   3.356 -0.0353  1.3482 -0.1371
  676MOL0     C89121   4.158   5.683   3.262  0.3520  0.5639 -0.4630
  676MOL0     C89122   4.090   5.553   3.299 -0.1568 -0.9084 -0.6001
  676MOL0     C89123   4.140   5.455   3.200 -0.7085  0.0799 -0.1746
  676MOL0     O89124   4.055   5.336   3.199 -0.3114 -0.4165  0.2850
  676MOL0     C89125   4.099   5.212   3.201 -0.8194  1.2748  0.7522
  676MOL0     C89126   4.231   5.173   3.191  0.7014 -0.4875 -0.9183
  676MOL0     C89127   4.269   5.037   3.178  0.1205 -0.5076 -0.8631
  676MOL0     C89128   4.171   4.934   3.164  0.6116 -0.4540 -0.0771
  676MOL0     C89129   4.194   4.789   3.176  0.1903  0.3303 -0.4990
  676MOL0     O89130   4.322   4.746   3.180 -0.1227  0.2870 -0.8419
  676MOL0     C89131   4.368   4.617   3.192 -0.2518 -0.2236 -0.0043
  676MOL0     C89132   4.294   4.513   3.257  0.2009  0.5018 -0.0539
  676MOL0     C89133   4.355   4.389   3.270  1.2585  0.1707 -0.6431
  676MOL0     C89134   4.485   4.363   3.214  0.5019 -1.1344  0.2515
  676MOL0     O89135   4.547   4.241   3.222  0.0951 -0.1307 -0.0079
  676MOL0     C89136   4.464   4.127   3.227  0.4265  0.2744 -0.6293
  676MOL0     C89137   4.381   4.094   3.107  0.5186 -1.1169  0.9350
  676MOL0     C89138   4.463   4.052   2.988 -0.0631  0.8851 -1.3153
  676MOL0     C89139   4.390   4.086   2.849  0.3773  0.0491  0.4686
  676MOL0     C89140   4.251   4.016   2.831  0.0646  0.1705 -0.4483
  676MOL0     C89141   4.275   3.874   2.794  1.0098 -0.4767 -0.1009
  676MOL0     C89142   4.140   3.803   2.796  0.9153 -0.3496  0.6631
  676MOL0     C89143   4.144   3.655   2.777  0.6189 -0.0749  0.6138
  676MOL0    Cl89144   4.235   3.582   2.918 -0.1031  0.3381 -0.2217
  676MOL0     C89145   4.563   4.466   3.161  1.6821  0.2900 -0.5946
  676MOL0     C89146   4.500   4.589   3.148  0.7544 -0.7273  0.3139
  676MOL0     O89147   4.099   4.712   3.176 -0.9417  0.2911  0.3993
  676MOL0     C89148   4.038   4.978   3.187 -0.0498  0.8244 -0.0707
  676MOL0     C89149   4.006   5.110   3.197 -0.9209 -0.5626  0.3447
  676MOL0     N89150   3.939   5.896   3.207 -0.2466 -0.8625 -0.5055
  676MOL0     N89151   3.817   5.919   3.227  0.7342 -0.0120 -0.4135
  676MOL0     C89152   4.346   6.706   3.738 -0.7278  0.1244  0.0180
  676MOL0     C89153   4.462   6.698   3.651 -0.1079  0.4495  0.2106
  676MOL0     C89154   4.761   6.636   3.343  0.5229 -0.1152  0.6273
  676MOL0     C89155   4.772   6.711   3.222  0.4994  1.1355 -0.5232
  676MOL0     C89156   4.860   6.680   3.123  1.3309 -0.1033  1.2123
  676MOL0     C89157   4.939   6.568   3.130  0.8139 -0.4146 -0.3107
  676MOL0     O89158   5.017   6.538   3.029 -0.3896 -0.2403  0.2689
  676MOL0     C89159   5.142   6.610   3.030  0.8504 -0.3564  0.2564
  676MOL0     C89160   5.114   6.741   2.944 -0.9153  0.9294  0.7742
  676MOL0     C89161   5.234   6.811   2.889 -0.6380  0.3993 -0.3033
  676MOL0     C89162   5.250   6.775   2.751  0.3699 -0.8078  0.7656
  676MOL0     C89163   5.155   6.832   2.659 -0.7185 -0.5380  0.1506
  676MOL0     C89164   5.066   6.887   2.610  0.1072  1.1925  0.6154
  676MOL0     C89165   4.921   6.486   3.234  0.3668 -0.0415  1.0040
  676MOL0     C89166   4.837   6.516   3.344  0.4055  1.2305 -0.4973
  676MOL0     H89167   4.282   6.701   3.362 -0.8415 -1.2831  0.8635
  676MOL0     H89168   4.105   6.698   3.492  0.6693  0.4369  0.8330
  676MOL0     H89169   3.912   6.697   3.738  0.2109  0.0938  0.4420
  676MOL0     H89170   3.934   6.594   3.869 -0.6052 -0.7438  0.3533
  676MOL0     H89171   4.039   6.419   3.737 -1.3668  0.5440  2.6222
  676MOL0     H89172   4.024   6.513   3.591 -0.2180 -2.6058 -1.0473
  676MOL0     H89173   3.780   6.537   3.652 -1.3070 -0.4326  1.6984
  676MOL0     H89174   3.802   6.420   3.780  2.1703  0.4965  1.4836
  676MOL0     H89175   3.874   6.356   3.497 -3.3790 -0.4885 -2.7913
  676MOL0     H89176   3.870   6.239   3.636 -0.1773  0.2202 -1.0562
  676MOL0     H89177   3.640   6.376   3.516  0.9636  0.2975 -1.1605
  676MOL0     H89178   3.649   6.243   3.645  1.0513 -0.7753  0.0495
  676MOL0     H89179   3.760   6.167   3.381  1.0979 -1.2024  1.8114
  676MOL0     H89180   3.592   6.187   3.394  1.0149 -0.4853 -0.5725
  676MOL0     H89181   3.766   6.023   3.593  0.4048 -1.3523 -0.4084
  676MOL0     H89182   3.589   6.020   3.602  1.5734 -0.4733  1.0141
  676MOL0     H89183   3.583   5.949   3.363 -1.6193  0.3403  1.0183
  676MOL0     H89184   3.653   5.813   3.463  1.0302 -1.6872 -1.6714
  676MOL0     H89185   3.910   5.817   3.519  0.1988 -1.1862 -0.8795
  676MOL0     H89186   4.158   5.775   3.460  0.4239  1.2022 -0.2731
  676MOL0     H89187   4.211   5.871   3.319 -1.8671  1.9416 -3.1625
  676MOL0     H89188   4.264   5.668   3.285 -0.3965  0.8136  4.1840
  676MOL0     H89189   4.141   5.706   3.157 -2.5795 -3.4312 -1.0958
  676MOL0     H89190   4.106   5.509   3.398  0.4780  1.0353  0.2137
  676MOL0     H89191   3.981   5.567   3.296  0.0951  3.1515  1.5912
  676MOL0     H89192   4.247   5.433   3.211 -0.1144  0.4956 -3.7409
  676MOL0     H89193   4.126   5.500   3.101 -1.6462  1.3174  0.4993
  676MOL0     H89194   4.309   5.248   3.188  1.3300 -0.9888  1.1748
  676MOL0     H89195   4.373   5.008   3.182 -0.0203 -0.9143  0.5659
  676MOL0     H89196   4.194   4.526   3.297 -0.0470  1.3302 -0.9107
  676MOL0     H89197   4.295   4.317   3.325 -1.3002  3.6709  1.5285
  676MOL0     H89198   4.391   4.137   3.307  0.2286  3.0308 -1.0517
  676MOL0     H89199   4.529   4.045   3.258  0.8027  0.5379 -0.7203
  676MOL0     H89200   4.326   4.186   3.085  1.4916 -0.8046 -0.2799
  676MOL0     H89201   4.298   4.025   3.126 -2.1222  2.0522  1.8605
  676MOL0     H89202   4.468   3.943   2.998 -0.2444  0.9288 -0.6868
  676MOL0     H89203   4.565   4.091   2.987 -0.2740  1.4573 -2.7802
  676MOL0     H89204   4.365   4.191   2.831 -0.4385 -0.4971 -1.9093
  676MOL0     H89205   4.457   4.046   2.773  0.2026 -2.3163  1.4519
  676MOL0     H89206   4.197   4.057   2.745  1.4237 -0.7056 -1.7826
  676MOL0     H89207   4.189   4.023   2.921  1.1131  0.8337  0.2526
  676MOL0     H89208   4.336   3.816   2.864 -0.0566 -0.5485  0.7911
  676MOL0     H89209   4.323   3.878   2.696  2.3134  0.4164  0.5574
  676MOL0     H89210   4.091   3.833   2.890 -0.1864 -4.5531  1.6621
  676MOL0     H89211   4.070   3.838   2.720  0.3001  1.2286  1.8966
  676MOL0     H89212   4.197   3.620   2.688 -1.3690 -0.5225 -0.4563
  676MOL0     H89213   4.046   3.607   2.768  1.8403 -2.8390  1.1165
  676MOL0     H89214   4.662   4.442   3.123  1.0995 -0.3881 -1.7558
  676MOL0     H89215   4.556   4.673   3.109 -0.7733  0.1476 -0.0623
  676MOL0     H89216   3.957   4.907   3.203 -0.4394  1.7300  2.4783
  676MOL0     H89217   3.899   5.115   3.211 -0.7987 -0.5693  1.3950
  676MOL0     H89218   4.381   6.703   3.841  1.0423  2.4033 -0.4297
  676MOL0     H89219   4.553   6.675   3.706 -0.8953  1.6122  2.1108
  676MOL0     H89220   4.705   6.797   3.215 -1.9241 -0.5835  0.0341
  676MOL0     H89221   4.861   6.731   3.027 -1.6659 -1.0891  0.5429
  676MOL0     H89222   5.202   6.538   2.973  2.1613 -0.3165  1.5132
  676MOL0     H89223   5.202   6.624   3.120 -1.5308  2.3240  1.5710
  676MOL0     H89224   5.046   6.717   2.862  0.5484 -0.5627 -0.0727
  676MOL0     H89225   5.066   6.815   3.008 -1.9616  3.7003 -2.8474
  676MOL0     H89226   5.330   6.775   2.927 -1.2842 -0.5987  0.4032
  676MOL0     H89227   5.228   6.920   2.900  1.2512  0.3216  2.2210
  676MOL0     H89228   5.349   6.810   2.719 -0.6012 -0.0198 -1.6154
  676MOL0     H89229   5.251   6.666   2.741 -0.2616 -0.6574 -1.2906
  676MOL0     H89230   4.979   6.935   2.570 -0.8261  0.0144  1.1776
  676MOL0     H89231   4.969   6.388   3.233 -0.7766 -0.7036 -2.7689
  676MOL0     H89232   4.831   6.439   3.420  0.7838 -0.3597 -2.0256
  677MOL0     O89233   4.902   8.957   3.763 -0.2654 -0.5357  1.3539
  677MOL0     C89234   4.991   8.998   3.832  0.3967  0.1585  0.8828
  677MOL0     O89235   5.118   9.029   3.793 -0.7193 -0.1213  0.9108
  677MOL0     C89236   5.144   9.075   3.666  0.7719  0.0794 -0.3278
  677MOL0     C89237   5.078   9.193   3.612 -0.1777  0.5429 -0.6653
  677MOL0     C89238   5.094   9.223   3.474 -0.2610 -0.9286 -0.6505
  677MOL0     C89239   5.188   9.152   3.400  0.5944 -0.9220 -0.1070
  677MOL0     O89240   5.196   9.191   3.266  0.5576  0.0803  0.4543
  677MOL0     C89241   5.326   9.185   3.197 -0.4506  0.0783 -0.6602
  677MOL0     C89242   5.319   9.267   3.065 -0.6660  0.2160 -0.7088
  677MOL0     C89243   5.349   9.172   2.948 -0.3071  0.0437  0.6938
  677MOL0     C89244   5.243   9.061   2.918 -0.4268  0.0497  0.0289
  677MOL0     C89245   5.270   9.013   2.776 -0.0846  0.2470  0.4234
  677MOL0     C89246   5.147   8.945   2.712  0.5673 -0.3937  0.0950
  677MOL0     C89247   5.179   8.853   2.594  0.0416  0.3624  0.0372
  677MOL0     C89248   5.071   8.766   2.538 -0.0468  0.0420  1.4200
  677MOL0     N89249   5.110   8.714   2.403 -0.3431  0.1123 -0.8218
  677MOL0     C89250   5.055   8.745   2.282  0.5976 -0.7021 -0.9001
  677MOL0     C89251   5.135   8.670   2.205 -0.2459 -0.2148  0.5200
  677MOL0     C89252   5.120   8.680   2.059  0.4910  0.1813  0.2660
  677MOL0     C89253   5.236   8.750   1.991 -0.2641  0.3408  0.6680
  677MOL0     C89254   5.184   8.813   1.862  0.8369  0.4775 -0.7650
  677MOL0     C89255   5.184   8.724   1.734 -0.5563  1.1201  0.0272
  677MOL0     O89256   5.119   8.791   1.623 -0.1455  0.2332  0.1691
  677MOL0     C89257   4.986   8.786   1.607  0.2374 -0.3669  0.7076
  677MOL0     C89258   4.892   8.761   1.709  0.2149 -0.5904 -0.6412
  677MOL0     C89259   4.753   8.789   1.690 -0.9788  0.1699  0.5213
  677MOL0     C89260   4.704   8.843   1.576 -1.1744 -0.8676  0.6677
  677MOL0     C89261   4.567   8.888   1.556  0.3271 -0.2425  0.1905
  677MOL0     O89262   4.481   8.883   1.668 -0.2083 -0.2227  1.0059
  677MOL0     C89263   4.341   8.916   1.645 -0.4028  0.1581 -0.3276
  677MOL0     C89264   4.274   8.995   1.736  0.1972  0.6642 -0.9514
  677MOL0     C89265   4.144   9.039   1.701  0.2956 -0.0062 -0.1246
  677MOL0     C89266   4.074   8.991   1.594  0.6121 -0.6437  0.3821
  677MOL0     O89267   3.942   9.021   1.562 -0.3769  0.6013 -0.5595
  677MOL0     C89268   3.924   9.091   1.441 -0.0453  0.5850  0.0431
  677MOL0     C89269   3.778   9.149   1.431 -0.4440  0.5810  0.3458
  677MOL0     C89270   3.771   9.233   1.307 -0.4346 -0.7046 -1.2273
  677MOL0     C89271   3.635   9.300   1.314 -0.0018  0.0939  0.5551
  677MOL0     C89272   3.612   9.399   1.193  0.1402  0.2917  0.2274
  677MOL0     C89273   3.477   9.466   1.194  1.4385 -0.8686  0.7158
  677MOL0     C89274   3.462   9.570   1.306  0.9869  0.0112  0.6014
  677MOL0     C89275   3.344   9.662   1.269  0.7063 -0.2814 -0.0060
  677MOL0    Cl89276   3.200   9.578   1.212  0.2108  0.7138  0.1073
  677MOL0     C89277   4.138   8.900   1.512  0.6894  0.6661  0.3661
  677MOL0     C89278   4.272   8.868   1.534  0.7499 -0.2311  0.7161
  677MOL0     O89279   4.526   8.927   1.444 -0.7044 -0.3416 -0.0615
  677MOL0     C89280   4.799   8.852   1.471  0.3189 -0.3609 -0.2177
  677MOL0     C89281   4.935   8.835   1.488  0.5732  0.6363 -0.8656
  677MOL0     N89282   5.235   8.599   2.275 -1.1743  0.0031  0.2072
  677MOL0     N89283   5.218   8.634   2.396 -1.1465  0.3176 -0.4641
  677MOL0     C89284   5.279   9.067   3.452 -0.7190 -0.3992 -0.4439
  677MOL0     C89285   5.251   9.025   3.584  0.0501 -0.2535  1.6086
  677MOL0     C89286   4.960   8.989   3.972  0.6328  0.7502 -0.1551
  677MOL0     C89287   5.059   9.040   4.061  0.3411 -0.9158  0.5109
  677MOL0     C89288   5.033   9.038   4.197  0.1389 -0.6328  0.7543
  677MOL0     C89289   4.920   8.977   4.249  0.7647 -0.3540 -0.3626
  677MOL0     O89290   4.881   8.961   4.375  0.1390  0.2634 -0.2149
  677MOL0     C89291   4.926   9.054   4.469  0.5820  0.1197 -0.4921
  677MOL0     C89292   4.817   9.101   4.560 -0.6814 -0.2116  0.0264
  677MOL0     C89293   4.790   8.987   4.660  0.2087 -0.5305  0.6692
  677MOL0     C89294   4.659   8.995   4.734  0.6816 -0.2082 -0.2789
  677MOL0     C89295   4.658   9.087   4.838  0.7529 -0.4475 -0.2121
  677MOL0     C89296   4.667   9.160   4.936 -0.7347 -0.0117 -0.4462
  677MOL0     C89297   4.828   8.920   4.167  0.7535 -0.3492  0.8424
  677MOL0     C89298   4.846   8.923   4.030 -1.3465  0.5469  0.7835
  677MOL0     H89299   4.998   9.241   3.667  0.0547 -1.0147  1.1292
  677MOL0     H89300   5.024   9.285   3.419  0.5212 -1.7518 -2.6909
  677MOL0     H89301   5.359   9.081   3.185  0.8419  0.1769  1.4374
  677MOL0     H89302   5.405   9.237   3.252 -0.9664 -1.2162  1.4107
  677MOL0     H89303   5.382   9.357   3.073  0.3983 -0.3016 -2.7984
  677MOL0     H89304   5.218   9.304   3.045 -0.4228  2.0117  0.9378
  677MOL0     H89305   5.445   9.121   2.960  2.6645  4.6385 -1.0088
  677MOL0     H89306   5.369   9.240   2.864 -0.8117 -1.8897 -1.0973
  677MOL0     H89307   5.250   8.986   2.997  1.3113 -1.8361 -1.7974
  677MOL0     H89308   5.143   9.103   2.932 -1.6336 -2.6172 -0.0756
  677MOL0     H89309   5.355   8.945   2.779  0.4661  0.8529 -0.7163
  677MOL0     H89310   5.310   9.087   2.706  0.3157 -2.5284 -2.4856
  677MOL0     H89311   5.070   9.022   2.698  0.0206 -0.2244  3.2860
  677MOL0     H89312   5.114   8.877   2.791 -0.9711  0.4671  0.2370
  677MOL0     H89313   5.210   8.926   2.519 -0.7906 -0.2443 -0.9197
  677MOL0     H89314   5.271   8.797   2.618  0.4371  0.7699 -0.5130
  677MOL0     H89315   4.985   8.833   2.530 -0.0286 -0.1133 -0.5432
  677MOL0     H89316   5.026   8.696   2.608 -1.7569  2.6968  3.1624
  677MOL0     H89317   4.967   8.802   2.254  0.3340 -2.2663 -3.5799
  677MOL0     H89318   5.039   8.745   2.026  0.6027  1.6916  2.7237
  677MOL0     H89319   5.099   8.588   2.002  2.6277 -0.8924  1.0802
  677MOL0     H89320   5.319   8.683   1.966  0.0395  0.4199  1.4498
  677MOL0     H89321   5.258   8.847   2.037 -1.6839  1.8452 -1.5911
  677MOL0     H89322   5.085   8.856   1.877  0.9868  0.9290 -1.0334
  677MOL0     H89323   5.238   8.905   1.836  0.7350  1.6384  2.6792
  677MOL0     H89324   5.151   8.621   1.747 -1.6777  1.1571 -1.9914
  677MOL0     H89325   5.291   8.728   1.709 -1.0814  3.9782 -2.3453
  677MOL0     H89326   4.937   8.720   1.799  0.4938 -2.0159 -1.4027
  677MOL0     H89327   4.686   8.763   1.772  1.9311  4.4805  4.8200
  677MOL0     H89328   4.313   9.017   1.834  0.6201 -1.9530 -0.4454
  677MOL0     H89329   4.095   9.107   1.770 -1.1219  1.1107 -2.0923
  677MOL0     H89330   3.951   9.037   1.350  2.3422  1.4830  0.1604
  677MOL0     H89331   4.000   9.169   1.442 -1.0085  1.7416 -3.5020
  677MOL0     H89332   3.757   9.202   1.525  3.9370  1.6761  0.9497
  677MOL0     H89333   3.703   9.070   1.428  0.9725 -1.0042  2.7720
  677MOL0     H89334   3.781   9.176   1.214 -0.5100  0.3607 -1.8948
  677MOL0     H89335   3.848   9.310   1.308  0.6587 -1.7121  0.9790
  677MOL0     H89336   3.556   9.225   1.310  0.4939 -0.4214  0.3049
  677MOL0     H89337   3.604   9.350   1.407 -1.8864 -1.9079  1.0951
  677MOL0     H89338   3.615   9.354   1.093  0.4652  1.6580 -0.4036
  677MOL0     H89339   3.689   9.477   1.192  0.9681 -0.4394  2.0789
  677MOL0     H89340   3.405   9.386   1.209  2.7318 -1.6095  3.7534
  677MOL0     H89341   3.453   9.509   1.096 -2.5431 -1.9947  1.0208
  677MOL0     H89342   3.441   9.513   1.397 -1.3667  0.4408  0.3918
  677MOL0     H89343   3.547   9.638   1.311  1.5363 -0.4726 -1.4155
  677MOL0     H89344   3.370   9.726   1.185  3.6679  1.5894  2.1183
  677MOL0     H89345   3.323   9.724   1.357  0.7377  1.1636 -0.9922
  677MOL0     H89346   4.090   8.859   1.424  1.7253 -0.5964  0.3568
  677MOL0     H89347   4.327   8.800   1.469  0.4809  2.0612 -2.1003
  677MOL0     H89348   4.769   8.888   1.372  3.5734 -2.7333 -2.2544
  677MOL0     H89349   5.011   8.858   1.415 -0.1023  1.9090 -1.1894
  677MOL0     H89350   5.343   9.011   3.385 -1.0858  1.5744 -2.5820
  677MOL0     H89351   5.297   8.936   3.625  3.4499 -0.1988 -1.5926
  677MOL0     H89352   5.154   9.086   4.039 -0.0903  0.4911  1.4462
  677MOL0     H89353   5.113   9.068   4.265  2.7670 -1.0945 -1.9281
  677MOL0     H89354   4.963   9.140   4.412 -1.1672  0.2281 -1.5415
  677MOL0     H89355   5.014   9.012   4.518 -0.2314 -1.2296 -0.1393
  677MOL0     H89356   4.852   9.182   4.623  0.7321 -0.5546 -0.2896
  677MOL0     H89357   4.730   9.125   4.498  1.6606  1.1680 -2.9649
  677MOL0     H89358   4.871   9.005   4.731  0.5375 -0.6094  0.3186
  677MOL0     H89359   4.795   8.889   4.612  1.0037 -0.9568  1.6002
  677MOL0     H89360   4.579   9.015   4.663  1.7605 -1.1124 -1.8135
  677MOL0     H89361   4.626   8.898   4.774 -1.4879 -0.5091 -2.5981
  677MOL0     H89362   4.661   9.214   5.029  0.8865  0.2721 -0.4758
  677MOL0     H89363   4.738   8.875   4.208  0.6280 -4.7736 -3.3746
  677MOL0     H89364   4.766   8.897   3.961  0.1171  1.4219 -1.3616
  678MOL0     O89365   5.256  11.387   3.362 -0.2375  0.5903 -0.1872
  678MOL0     C89366   5.314  11.330   3.453  0.9601  0.4908 -0.2008
  678MOL0     O89367   5.258  11.263   3.556  0.7163  0.0604 -1.0454
  678MOL0     C89368   5.139  11.303   3.605  0.1527  0.5792 -0.2769
  678MOL0     C89369   5.019  11.255   3.548  0.2211  1.4616 -0.3234
  678MOL0     C89370   4.889  11.294   3.593 -0.2109  1.1126  0.3754
  678MOL0     C89371   4.884  11.387   3.702  0.2488  0.1341  1.0115
  678MOL0     O89372   4.758  11.422   3.752  0.0523  0.5154 -0.1944
  678MOL0     C89373   4.755  11.507   3.877  0.1488  0.8747  0.7550
  678MOL0     C89374   4.603  11.530   3.904  0.6816  0.0671  0.3110
  678MOL0     C89375   4.519  11.401   3.901  1.5170  0.3265 -0.9606
  678MOL0     C89376   4.369  11.421   3.946  0.5482 -0.7752  0.2648
  678MOL0     C89377   4.286  11.442   3.834  0.3471 -0.0694  0.7245
  678MOL0     C89378   4.148  11.500   3.862 -0.7754  0.3039 -0.5123
  678MOL0     C89379   4.022  11.408   3.847 -0.2105  0.1338  0.3149
  678MOL0     C89380   4.061  11.271   3.926  0.8677 -0.8342 -0.8468
  678MOL0     N89381   3.929  11.217   3.962  0.1686 -0.0405  0.1648
  678MOL0     C89382   3.850  11.239   4.074  0.0953  0.0022 -0.2034
  678MOL0     C89383   3.735  11.169   4.051  0.8305 -0.6512 -0.6087
  678MOL0     C89384   3.623  11.155   4.148  0.3707 -0.2174  0.0036
  678MOL0     C89385   3.490  11.154   4.074 -0.0016  0.3045 -0.4675
  678MOL0     C89386   3.376  11.194   4.169 -0.4409 -0.5255  0.2927
  678MOL0     C89387   3.230  11.195   4.107 -0.3763 -0.8421 -0.6122
  678MOL0     O89388   3.160  11.077   4.133  1.3132  0.3850  0.6640
  678MOL0     C89389   3.019  11.074   4.115 -0.5038  0.0198 -0.2462
  678MOL0     C89390   2.960  10.955   4.145  0.0837 -0.0321  0.4144
  678MOL0     C89391   2.834  10.927   4.098 -0.4596  0.5040 -0.5917
  678MOL0     C89392   2.759  11.026   4.031 -0.2726 -0.0779 -0.8343
  678MOL0     C89393   2.633  10.973   3.979 -0.4514 -0.0038 -0.0189
  678MOL0     O89394   2.611  10.838   3.961 -0.0206  0.2536 -0.0198
  678MOL0     C89395   2.492  10.813   3.890 -0.6631  0.3818  0.3025
  678MOL0     C89396   2.364  10.807   3.950  0.1266  0.1344  0.5598
  678MOL0     C89397   2.243  10.812   3.883  0.7211 -0.1429  0.0462
  678MOL0     C89398   2.247  10.825   3.739  0.1500  1.4784  0.1788
  678MOL0     O89399   2.139  10.842   3.655  0.2162 -0.1303  0.4543
  678MOL0     C89400   2.021  10.894   3.706  0.5402 -0.0539  1.2567
  678MOL0     C89401   1.935  10.936   3.586 -0.2180  1.0035  0.3562
  678MOL0     C89402   1.799  10.996   3.624 -0.0567 -0.3855 -0.2006
  678MOL0     C89403   1.802  11.134   3.695  0.4253  1.1427  0.8941
  678MOL0     C89404   1.666  11.213   3.689  0.6366  0.5144 -0.1119
  678MOL0     C89405   1.694  11.350   3.766  0.2210  0.0479  1.0220
  678MOL0     C89406   1.568  11.412   3.807  0.4288 -0.5247  0.2147
  678MOL0     C89407   1.515  11.489   3.690 -0.5142 -0.2101  0.9881
  678MOL0    Cl89408   1.348  11.557   3.697 -0.0499  0.2002 -0.4358
  678MOL0     C89409   2.373  10.815   3.680 -0.0565 -0.6519 -0.1151
  678MOL0     C89410   2.490  10.816   3.750  0.0279  0.3603 -0.2064
  678MOL0     O89411   2.548  11.066   3.955  0.1601  0.1964 -0.0186
  678MOL0     C89412   2.817  11.151   4.013 -0.7186 -0.0345 -0.5319
  678MOL0     C89413   2.947  11.177   4.061 -0.1772 -0.2730  0.2070
  678MOL0     N89414   3.741  11.109   3.929  0.1268 -1.1588  0.0807
  678MOL0     N89415   3.856  11.144   3.878  0.3967 -0.1049 -0.0647
  678MOL0     C89416   5.005  11.428   3.763 -0.0696  1.5041  1.0321
  678MOL0     C89417   5.135  11.385   3.720  0.0265  0.0154  0.3508
  678MOL0     C89418   5.461  11.303   3.430  0.0226 -0.0458  0.0102
  678MOL0     C89419   5.535  11.361   3.329  0.4438 -0.6067  0.0245
  678MOL0     C89420   5.666  11.321   3.295  1.1369 -0.0889  0.4251
  678MOL0     C89421   5.732  11.231   3.375 -0.6093  0.7160 -0.0307
  678MOL0     O89422   5.857  11.180   3.366 -0.3204  0.1750 -0.3663
  678MOL0     C89423   5.954  11.274   3.317 -0.8119 -0.3921 -0.4330
  678MOL0     C89424   5.978  11.401   3.388  0.9769 -0.3049 -0.1936
  678MOL0     C89425   6.093  11.480   3.335  0.0680  0.7893 -0.1549
  678MOL0     C89426   6.117  11.614   3.399 -0.7154 -0.3632 -1.4947
  678MOL0     C89427   6.148  11.611   3.548  0.5017  0.0439  0.5657
  678MOL0     C89428   6.143  11.622   3.673  0.1686  0.3503  0.7051
  678MOL0     C89429   5.657  11.170   3.478 -0.1242  0.2131  0.2717
  678MOL0     C89430   5.526  11.202   3.504  0.5984  0.0058  0.1434
  678MOL0     H89431   5.027  11.187   3.464  3.1080  0.9110  0.3025
  678MOL0     H89432   4.800  11.256   3.545 -0.9373  2.6148  0.4864
  678MOL0     H89433   4.799  11.607   3.869 -1.5948  1.5603 -1.5954
  678MOL0     H89434   4.808  11.446   3.950  0.6958 -1.4643 -1.4394
  678MOL0     H89435   4.551  11.602   3.840  2.4165 -0.1158 -1.3826
  678MOL0     H89436   4.598  11.574   4.005 -0.1485 -0.5863  0.5609
  678MOL0     H89437   4.574  11.334   3.968  1.5494 -2.3120 -3.4319
  678MOL0     H89438   4.511  11.357   3.801  1.6761  2.8821 -2.1817
  678MOL0     H89439   4.341  11.324   3.989  1.4221 -2.0873 -1.9369
  678MOL0     H89440   4.353  11.493   4.027 -2.4048 -1.6223  0.5544
  678MOL0     H89441   4.273  11.353   3.771 -1.0252  0.4245  0.2831
  678MOL0     H89442   4.333  11.523   3.777 -0.3220  0.9563  1.5895
  678MOL0     H89443   4.132  11.583   3.792  3.9922 -1.3063 -4.0538
  678MOL0     H89444   4.145  11.548   3.960  0.3881  0.6409 -0.6182
  678MOL0     H89445   3.936  11.454   3.895 -0.5624 -0.2290  0.0409
  678MOL0     H89446   3.997  11.397   3.741 -2.9312  0.5218  0.8481
  678MOL0     H89447   4.117  11.310   4.012  3.8257  0.4408 -3.1351
  678MOL0     H89448   4.134  11.219   3.863  2.2135  0.6172 -0.5743
  678MOL0     H89449   3.862  11.285   4.172 -2.9269 -0.1860  0.3567
  678MOL0     H89450   3.617  11.233   4.224 -0.9981 -1.9148  1.7286
  678MOL0     H89451   3.645  11.063   4.204 -0.4648 -1.1973 -1.2226
  678MOL0     H89452   3.471  11.049   4.051 -0.8590  0.4536 -0.4849
  678MOL0     H89453   3.482  11.212   3.982 -0.8016 -2.7038 -2.4505
  678MOL0     H89454   3.368  11.115   4.245 -4.2857 -1.6378 -1.0577
  678MOL0     H89455   3.399  11.283   4.228 -2.5693  0.1555  0.1560
  678MOL0     H89456   3.233  11.197   3.998  2.1641 -0.3992 -0.5937
  678MOL0     H89457   3.183  11.282   4.152 -0.1494 -1.2606  0.4720
  678MOL0     H89458   3.020  10.881   4.197 -0.1867 -1.5478 -1.3343
  678MOL0     H89459   2.803  10.824   4.113  2.1312 -0.4038 -0.9614
  678MOL0     H89460   2.350  10.798   4.057 -2.7924 -2.0175  0.1248
  678MOL0     H89461   2.149  10.827   3.933 -0.9654 -0.7205 -2.7237
  678MOL0     H89462   2.037  10.978   3.774 -1.7852  1.5358  0.0113
  678MOL0     H89463   1.961  10.825   3.766 -0.6935  1.2805  1.6278
  678MOL0     H89464   1.914  10.850   3.522 -3.8680  2.9530 -1.3876
  678MOL0     H89465   1.983  11.012   3.523  1.4248 -0.6187 -0.4316
  678MOL0     H89466   1.748  10.933   3.697 -0.6338  0.7466  0.4014
  678MOL0     H89467   1.734  10.996   3.536 -1.9206 -4.6131  0.9230
  678MOL0     H89468   1.824  11.108   3.799 -0.0734 -2.0749  0.2832
  678MOL0     H89469   1.884  11.192   3.652  1.5264  0.6420  2.2600
  678MOL0     H89470   1.592  11.153   3.743 -1.0246  2.5101 -0.0279
  678MOL0     H89471   1.624  11.230   3.589  2.5676 -0.7186 -1.1828
  678MOL0     H89472   1.757  11.414   3.704 -1.7299 -0.7118 -1.9336
  678MOL0     H89473   1.766  11.330   3.846  1.6799 -0.9547 -0.4957
  678MOL0     H89474   1.491  11.340   3.836  1.1306 -1.5686 -0.4567
  678MOL0     H89475   1.588  11.482   3.889 -0.2482  0.4602 -0.4471
  678MOL0     H89476   1.509  11.413   3.612 -1.0975  1.8330 -1.0409
  678MOL0     H89477   1.586  11.561   3.649  0.2683 -1.4725  0.0735
  678MOL0     H89478   2.377  10.826   3.573 -0.8635 -2.5271 -0.3831
  678MOL0     H89479   2.593  10.829   3.717 -0.9817  0.5431 -3.6491
  678MOL0     H89480   2.765  11.231   3.961  1.7270  0.9346 -1.6798
  678MOL0     H89481   2.986  11.276   4.043  0.8048 -1.2059 -3.8959
  678MOL0     H89482   5.014  11.489   3.852 -2.8581 -0.6015  2.9145
  678MOL0     H89483   5.231  11.422   3.755 -1.1692  3.5576  0.3184
  678MOL0     H89484   5.494  11.449   3.281  1.7187  1.5844  2.6475
  678MOL0     H89485   5.710  11.379   3.215 -3.3720  1.4658 -1.1822
  678MOL0     H89486   5.956  11.288   3.208  0.5842 -0.4792 -0.4313
  678MOL0     H89487   6.050  11.225   3.338 -0.1651  1.4190  1.0253
  678MOL0     H89488   5.889  11.455   3.357  1.4435  2.0780  2.2519
  678MOL0     H89489   5.972  11.382   3.495 -1.2269  1.6653  0.1024
  678MOL0     H89490   6.061  11.495   3.231  0.0096 -2.1336 -0.6425
  678MOL0     H89491   6.186  11.422   3.340  0.3746  1.2435 -0.3929
  678MOL0     H89492   6.202  11.655   3.343  1.8053 -1.7965  1.0496
  678MOL0     H89493   6.029  11.678   3.388 -0.4311 -0.0212 -1.8288
  678MOL0     H89494   6.159  11.616   3.779 -1.8336 -0.6541  0.9851
  678MOL0     H89495   5.706  11.093   3.537  0.2176 -1.2902 -1.8956
  678MOL0     H89496   5.463  11.166   3.585 -0.0245  0.9854  0.1019
  679MOL0     O89497   8.050   0.664  10.451 -0.2582 -0.4490 -0.0078
  679MOL0     C89498   8.005   0.551  10.426  0.1102 -0.4306  0.2886
  679MOL0     O89499   7.920   0.524  10.319  0.2253  0.0027  0.2089
  679MOL0     C89500   7.880   0.630  10.238 -0.5667  0.8801 -0.7274
  679MOL0     C89501   7.951   0.661  10.117  0.6778 -0.1629  0.5299
  679MOL0     C89502   7.900   0.751  10.024 -0.4384  0.5355 -0.2922
  679MOL0     C89503   7.798   0.835  10.057  0.3784 -0.0921 -0.7280
  679MOL0     O89504   7.746   0.916   9.961  0.2769 -0.1122  0.1658
  679MOL0     C89505   7.810   1.044   9.952  0.4177  0.7817 -0.3011
  679MOL0     C89506   7.797   1.107   9.817  0.8405 -0.1719  0.1701
  679MOL0     C89507   7.871   1.227   9.792  0.4375 -1.0934 -0.1855
  679MOL0     C89508   7.827   1.342   9.871  0.1325 -0.2812  0.4949
  679MOL0     C89509   7.925   1.463   9.839  1.0157  0.1943 -0.1063
  679MOL0     C89510   7.876   1.609   9.879  0.9149  0.5048  0.2362
  679MOL0     C89511   7.849   1.628  10.030 -0.4800  0.6006 -0.0712
  679MOL0     C89512   7.970   1.651  10.123 -0.4455  0.1202  0.3328
  679MOL0     N89513   8.033   1.774  10.118 -1.0920  0.2295 -0.5682
  679MOL0     C89514   7.997   1.880  10.037 -0.2686  0.6377  0.2183
  679MOL0     C89515   8.044   1.985  10.115  0.2601  1.0499  0.1049
  679MOL0     C89516   8.018   2.130  10.074 -0.5491  0.4553 -0.2292
  679MOL0     C89517   7.869   2.161  10.086 -0.2102  0.7091 -0.3301
  679MOL0     C89518   7.850   2.316  10.068 -0.1817  0.8488  0.5270
  679MOL0     C89519   7.926   2.368   9.949 -0.8237 -0.2114  0.0065
  679MOL0     O89520   8.075   2.395   9.961  1.1758  0.5654  0.0262
  679MOL0     C89521   8.105   2.509  10.028 -0.1568  0.1243 -1.1507
  679MOL0     C89522   8.019   2.596  10.099 -0.1806  0.1401  1.3488
  679MOL0     C89523   8.071   2.710  10.162  0.2247  0.2264 -0.1248
  679MOL0     C89524   8.214   2.737  10.146 -0.4474 -0.5769  0.1617
  679MOL0     C89525   8.267   2.854  10.206  0.7324 -0.3810  0.8522
  679MOL0     O89526   8.388   2.896  10.161 -0.1051 -0.5032  0.0572
  679MOL0     C89527   8.429   3.016  10.212  0.0834 -0.1746 -0.1702
  679MOL0     C89528   8.468   3.020  10.345 -0.2357 -1.3096 -0.6455
  679MOL0     C89529   8.496   3.144  10.410 -0.3002 -0.5351  0.4012
  679MOL0     C89530   8.512   3.256  10.324  0.1287 -0.3535 -0.3500
  679MOL0     O89531   8.551   3.379  10.379 -0.4342 -0.7408  0.2624
  679MOL0     C89532   8.640   3.395  10.496 -0.0688 -0.1239 -0.1960
  679MOL0     C89533   8.702   3.535  10.483 -0.5105 -0.2282 -0.0722
  679MOL0     C89534   8.818   3.550  10.383 -0.3951  0.6370 -0.3741
  679MOL0     C89535   8.863   3.701  10.386 -0.0858 -0.2888 -0.4383
  679MOL0     C89536   8.942   3.742  10.266 -0.1120 -1.0149  0.8946
  679MOL0     C89537   9.083   3.718  10.296 -0.4585 -0.4805  0.2499
  679MOL0     C89538   9.179   3.745  10.184 -0.6100  0.0055 -0.1479
  679MOL0     C89539   9.161   3.889  10.130 -0.2184  0.1091  0.6598
  679MOL0    Cl89540   9.047   3.880   9.989  0.0741  0.2482  0.0484
  679MOL0     C89541   8.491   3.247  10.192 -1.3475  0.5868  0.4110
  679MOL0     C89542   8.453   3.127  10.131 -0.7760  1.0469  0.3486
  679MOL0     O89543   8.194   2.911  10.289 -0.0661 -0.0079  0.0131
  679MOL0     C89544   8.295   2.646  10.075  0.5328 -0.0823 -0.0840
  679MOL0     C89545   8.241   2.534  10.026 -0.0814 -0.2883 -0.8024
  679MOL0     N89546   8.112   1.942  10.226 -0.2849 -0.0756 -0.4343
  679MOL0     N89547   8.104   1.813  10.223 -0.0913  0.9995 -0.1678
  679MOL0     C89548   7.729   0.815  10.182 -0.3354 -0.4174  1.3252
  679MOL0     C89549   7.767   0.704  10.260 -0.6885  0.9310 -0.3426
  679MOL0     C89550   8.040   0.434  10.507  0.4250 -0.5767  0.5502
  679MOL0     C89551   7.990   0.306  10.481  0.2794 -0.4911  0.0490
  679MOL0     C89552   8.033   0.193  10.548 -0.8054  0.0304 -0.2455
  679MOL0     C89553   8.141   0.209  10.645 -0.0027 -0.3793  0.2157
  679MOL0     O89554   8.171   0.099  10.725 -0.1059 -0.8260  0.1727
  679MOL0     C89555   8.312   0.061  10.721 -0.6350 -0.4772  0.0310
  679MOL0     C89556   8.313  -0.056  10.814 -0.0012  0.1540 -0.5787
  679MOL0     C89557   8.454  -0.115  10.830 -0.2996 -0.5458  0.6086
  679MOL0     C89558   8.527  -0.055  10.940 -0.6468 -0.3596  0.1958
  679MOL0     C89559   8.658  -0.127  10.934 -0.2198 -1.9918  0.9205
  679MOL0     C89560   8.759  -0.194  10.934 -0.5770 -0.1782  0.1961
  679MOL0     C89561   8.204   0.325  10.660 -0.3838 -0.8685 -0.2755
  679MOL0     C89562   8.159   0.444  10.596  1.6153 -0.3093  0.3159
  679MOL0     H89563   8.031   0.594  10.086 -0.8932 -1.2013 -1.4886
  679MOL0     H89564   7.956   0.775   9.934  2.3085  5.1952  2.2438
  679MOL0     H89565   7.916   1.033   9.976 -0.1722 -0.3139  2.0915
  679MOL0     H89566   7.764   1.109  10.027  0.7287  0.2291  0.3755
  679MOL0     H89567   7.690   1.122   9.798  0.7971  0.9499  1.1842
  679MOL0     H89568   7.818   1.021   9.752 -2.2013 -2.6430  2.1309
  679MOL0     H89569   7.864   1.258   9.687  2.6957  1.1984  0.2647
  679MOL0     H89570   7.976   1.205   9.811  0.4245  0.7012  2.5111
  679MOL0     H89571   7.724   1.363   9.839 -1.4136 -3.6590  2.7441
  679MOL0     H89572   7.828   1.321   9.978  3.7224 -1.8072  0.2841
  679MOL0     H89573   7.950   1.466   9.732 -2.9917  0.0267 -1.2059
  679MOL0     H89574   8.014   1.440   9.899  1.7994  2.6960 -0.1935
  679MOL0     H89575   7.787   1.632   9.820 -0.0179  1.7857  2.0541
  679MOL0     H89576   7.949   1.681   9.841  1.6493 -0.8269 -0.9880
  679MOL0     H89577   7.780   1.712  10.048 -1.9395 -0.7759  1.0414
  679MOL0     H89578   7.806   1.532  10.060  5.0037 -1.8662  1.2526
  679MOL0     H89579   8.042   1.571  10.104  0.4015  0.5896  1.4516
  679MOL0     H89580   7.937   1.641  10.227  3.7607 -0.7680  1.7770
  679MOL0     H89581   7.958   1.879   9.936  1.0781 -0.7985 -0.3410
  679MOL0     H89582   8.042   2.133   9.968  0.6444  2.0074  0.0563
  679MOL0     H89583   8.078   2.186  10.146 -2.2525  2.8396 -0.5504
  679MOL0     H89584   7.826   2.139  10.184  0.8070 -1.5330 -0.3095
  679MOL0     H89585   7.801   2.099  10.027  0.0174  0.9890 -0.8884
  679MOL0     H89586   7.742   2.329  10.057 -0.0230  0.7946 -1.5002
  679MOL0     H89587   7.878   2.365  10.161  0.6359 -0.0269  0.7596
  679MOL0     H89588   7.883   2.458   9.904  1.2019  0.1716 -1.2788
  679MOL0     H89589   7.907   2.295   9.870 -0.6435  0.9088 -1.0950
  679MOL0     H89590   7.913   2.573  10.105 -0.0783 -1.2678 -1.1841
  679MOL0     H89591   8.013   2.777  10.224  1.4952 -1.1365  2.7516
  679MOL0     H89592   8.463   2.932  10.409  4.5834 -0.1489  1.8015
  679MOL0     H89593   8.505   3.139  10.518  0.6070 -1.2693  0.2988
  679MOL0     H89594   8.721   3.323  10.488 -0.9274 -1.0579 -0.8295
  679MOL0     H89595   8.587   3.376  10.589  1.3183  2.8800  1.3250
  679MOL0     H89596   8.734   3.573  10.581  2.1168 -1.2235 -0.4901
  679MOL0     H89597   8.619   3.594  10.443  0.0243 -0.4314 -1.5128
  679MOL0     H89598   8.777   3.514  10.289  1.2672  1.7005 -1.5584
  679MOL0     H89599   8.904   3.495  10.422 -0.3625  0.4657 -0.6867
  679MOL0     H89600   8.765   3.747  10.372 -0.9169 -1.8315  0.0731
  679MOL0     H89601   8.906   3.727  10.483 -4.8401 -0.6390  2.0356
  679MOL0     H89602   8.926   3.847  10.242  0.6957 -0.9041  0.7937
  679MOL0     H89603   8.908   3.696  10.173 -0.3121 -1.9177  1.3985
  679MOL0     H89604   9.103   3.617  10.331  1.1281 -1.0708 -2.0751
  679MOL0     H89605   9.109   3.797  10.368  0.1011  0.5999 -1.0850
  679MOL0     H89606   9.283   3.735  10.218 -1.0554 -0.6652  1.1102
  679MOL0     H89607   9.164   3.659  10.118  0.6549 -0.2228 -0.1708
  679MOL0     H89608   9.257   3.924  10.091 -1.2875 -0.8857 -3.3789
  679MOL0     H89609   9.144   3.960  10.211  1.6738  0.4154  0.8247
  679MOL0     H89610   8.506   3.330  10.123  1.3843 -0.7382 -0.7010
  679MOL0     H89611   8.430   3.114  10.026 -2.7276 -0.6982  0.9230
  679MOL0     H89612   8.399   2.673  10.058  0.8315 -1.0474  0.1490
  679MOL0     H89613   8.304   2.455   9.986  3.2068  1.9998 -0.5445
  679MOL0     H89614   7.646   0.884  10.196  1.5431  1.8796  1.8368
  679MOL0     H89615   7.727   0.683  10.358  3.4329 -1.5286  1.0759
  679MOL0     H89616   7.911   0.292  10.408 -1.0205  4.5070  0.1367
  679MOL0     H89617   7.984   0.098  10.530  0.8748 -0.4553 -2.9344
  679MOL0     H89618   8.364   0.145  10.769 -2.1283  0.6971 -0.3408
  679MOL0     H89619   8.348   0.042  10.620 -0.6965  1.2112 -0.3302
  679MOL0     H89620   8.276  -0.026  10.912 -1.3836 -0.8454 -0.7656
  679MOL0     H89621   8.252  -0.134  10.767  1.9958 -1.2408 -1.0040
  679MOL0     H89622   8.495  -0.086  10.733  0.0692  1.2116  1.2504
  679MOL0     H89623   8.447  -0.223  10.838  0.4052 -0.4613  3.1124
  679MOL0     H89624   8.536   0.054  10.939  3.4953 -0.5377  1.2856
  679MOL0     H89625   8.493  -0.085  11.039 -0.2145  1.4790  0.9465
  679MOL0     H89626   8.856  -0.239  10.944 -0.2442  0.4308 -0.2787
  679MOL0     H89627   8.295   0.335  10.718  1.0076 -1.2491 -2.2844
  679MOL0     H89628   8.201   0.543  10.615  2.1563 -0.8586  2.2361
  680MOL0     O89629   3.184   2.405  11.177  0.1237  0.0248 -0.1730
  680MOL0     C89630   3.214   2.332  11.085 -0.3650 -0.3733 -0.0308
  680MOL0     O89631   3.152   2.209  11.049  0.1551 -0.7590  0.1000
  680MOL0     C89632   3.037   2.154  11.109 -0.6132  0.2396  0.1133
  680MOL0     C89633   2.938   2.226  11.173 -0.2723  0.9239  1.1983
  680MOL0     C89634   2.823   2.166  11.232 -0.4223  0.7979 -0.1855
  680MOL0     C89635   2.809   2.020  11.207  0.1167  0.0989 -0.7958
  680MOL0     O89636   2.714   1.943  11.276  0.1785  0.0013  0.7456
  680MOL0     C89637   2.587   2.000  11.281  1.0331 -0.4499  0.3065
  680MOL0     C89638   2.498   1.884  11.352 -0.5076 -0.5402  1.3950
  680MOL0     C89639   2.359   1.930  11.369  0.7066  0.0386 -0.6023
  680MOL0     C89640   2.344   2.072  11.414  0.1853  0.3530 -1.1639
  680MOL0     C89641   2.208   2.102  11.463  0.6929 -0.5972 -0.2023
  680MOL0     C89642   2.093   2.121  11.370 -0.3971 -0.5581  0.6065
  680MOL0     C89643   2.065   2.254  11.309  0.7416  0.4957  0.3024
  680MOL0     C89644   1.954   2.249  11.197  0.5164  0.0907  0.0242
  680MOL0     N89645   1.982   2.175  11.080  0.6111  0.2402  0.2090
  680MOL0     C89646   2.052   2.226  10.974 -0.1344 -0.3711  0.5304
  680MOL0     C89647   2.055   2.135  10.878 -0.8990 -0.6056 -0.4973
  680MOL0     C89648   2.107   2.141  10.739  0.0593  0.0850  0.8358
  680MOL0     C89649   2.245   2.073  10.716  0.6569 -0.5032  0.2828
  680MOL0     C89650   2.224   1.923  10.673 -0.1710 -0.1551  0.0592
  680MOL0     C89651   2.354   1.836  10.659  0.9084 -0.7493 -0.3306
  680MOL0     O89652   2.422   1.819  10.786 -0.4469 -0.5989  0.1147
  680MOL0     C89653   2.387   1.716  10.869 -0.2064 -0.6070 -0.7869
  680MOL0     C89654   2.261   1.646  10.850 -0.0642 -0.2945 -0.2431
  680MOL0     C89655   2.226   1.554  10.944  0.3561 -0.4592  0.2151
  680MOL0     C89656   2.311   1.526  11.055 -0.8337 -0.5170 -0.0493
  680MOL0     C89657   2.267   1.430  11.159  0.2910 -0.5628 -0.6097
  680MOL0     O89658   2.353   1.340  11.224 -0.2853  0.7099  0.5627
  680MOL0     C89659   2.291   1.241  11.291  0.4842  0.0167  0.9750
  680MOL0     C89660   2.212   1.145  11.230 -0.8181 -0.7633  0.5290
  680MOL0     C89661   2.155   1.044  11.308 -0.4791 -0.1805 -0.0964
  680MOL0     C89662   2.182   1.033  11.450  0.2791  0.0841 -0.0212
  680MOL0     O89663   2.144   0.937  11.543 -0.8447  0.1725 -0.0817
  680MOL0     C89664   2.071   0.822  11.500  0.2620 -0.3698  0.1906
  680MOL0     C89665   2.036   0.752  11.627  0.2483  0.3579  0.5819
  680MOL0     C89666   1.947   0.634  11.601  0.2457  0.1027  0.2991
  680MOL0     C89667   1.872   0.589  11.727  0.2148 -0.6689  0.1632
  680MOL0     C89668   1.785   0.459  11.699  0.5778  0.9380  0.4921
  680MOL0     C89669   1.663   0.464  11.793 -0.0891  0.6829 -0.6510
  680MOL0     C89670   1.579   0.338  11.812  0.0775 -0.2829 -0.4287
  680MOL0     C89671   1.443   0.366  11.886 -0.0694 -0.6920 -0.2026
  680MOL0    Cl89672   1.489   0.387  12.057 -0.4412 -0.0437 -0.0625
  680MOL0     C89673   2.251   1.141  11.502 -0.2837 -0.1917 -1.7199
  680MOL0     C89674   2.299   1.245  11.426  0.0920  0.1721 -0.0933
  680MOL0     O89675   2.141   1.434  11.173 -0.2249  0.2514 -0.0222
  680MOL0     C89676   2.428   1.593  11.077 -0.3632  1.1182  0.0571
  680MOL0     C89677   2.462   1.693  10.987  0.0909 -0.1789 -0.4066
  680MOL0     N89678   1.972   2.031  10.928 -0.0310 -0.0777  0.0693
  680MOL0     N89679   1.929   2.053  11.048 -0.3895 -0.2236  0.8371
  680MOL0     C89680   2.908   1.944  11.142  0.3715 -0.7217  0.5211
  680MOL0     C89681   3.017   2.018  11.089  0.2454 -0.2381  0.5164
  680MOL0     C89682   3.333   2.384  11.022 -0.0125  0.0611 -0.0670
  680MOL0     C89683   3.353   2.353  10.892  0.1761 -0.3701  0.5177
  680MOL0     C89684   3.470   2.386  10.828 -1.0487  0.3091 -0.1227
  680MOL0     C89685   3.576   2.463  10.883  0.5834  0.3537 -0.0710
  680MOL0     O89686   3.684   2.508  10.809 -0.3151 -0.3990  1.3057
  680MOL0     C89687   3.774   2.604  10.865 -0.3348  0.0454 -0.6341
  680MOL0     C89688   3.890   2.594  10.768  0.5675 -0.2630  0.2008
  680MOL0     C89689   3.849   2.649  10.631 -0.6205 -0.2290 -0.1518
  680MOL0     C89690   3.963   2.630  10.525 -0.5879 -1.2402 -0.5422
  680MOL0     C89691   3.967   2.492  10.484 -0.3730  0.3588  0.2017
  680MOL0     C89692   3.952   2.381  10.450  0.6843  0.0149 -0.4029
  680MOL0     C89693   3.548   2.499  11.017  0.2601 -0.0849 -1.1749
  680MOL0     C89694   3.432   2.456  11.089 -0.6216 -0.2215 -0.2843
  680MOL0     H89695   2.952   2.333  11.184  0.7971  0.7341  1.7961
  680MOL0     H89696   2.759   2.230  11.293  0.6640  3.7362 -1.9033
  680MOL0     H89697   2.562   2.014  11.175 -0.6972  2.9770  1.0400
  680MOL0     H89698   2.584   2.099  11.327  1.0139 -0.9115  1.3266
  680MOL0     H89699   2.549   1.861  11.446  0.4264 -2.6994  0.4075
  680MOL0     H89700   2.483   1.788  11.303  1.9704 -0.8133  1.0401
  680MOL0     H89701   2.321   1.852  11.435 -1.4559  0.1989 -1.5786
  680MOL0     H89702   2.286   1.937  11.288 -0.7056  1.8056  0.7230
  680MOL0     H89703   2.408   2.080  11.502 -0.7509 -2.4097 -0.1398
  680MOL0     H89704   2.370   2.141  11.334 -1.5657  0.3228 -1.7907
  680MOL0     H89705   2.205   2.196  11.519 -4.4256 -0.6645  0.0311
  680MOL0     H89706   2.181   2.028  11.538  1.9611 -3.1443 -2.1099
  680MOL0     H89707   2.006   2.096  11.432 -2.4010 -1.0058 -2.2269
  680MOL0     H89708   2.103   2.050  11.287 -2.0712  2.2358 -2.2091
  680MOL0     H89709   2.044   2.327  11.387  1.5293 -0.1636  1.1488
  680MOL0     H89710   2.158   2.286  11.260 -0.3131  2.7998 -0.3259
  680MOL0     H89711   1.947   2.355  11.171  4.4415  0.6961  0.7929
  680MOL0     H89712   1.856   2.221  11.239  0.3241 -2.1364 -1.7135
  680MOL0     H89713   2.111   2.317  10.963 -0.6656 -0.2035 -1.3206
  680MOL0     H89714   2.103   2.249  10.723 -1.1075  0.5990  3.9523
  680MOL0     H89715   2.043   2.091  10.666  3.3915 -0.6425 -1.8456
  680MOL0     H89716   2.312   2.081  10.803  2.3708 -0.0985 -1.0180
  680MOL0     H89717   2.302   2.135  10.646  2.2491  0.2254  2.1252
  680MOL0     H89718   2.161   1.888  10.755  0.8381  0.6713  1.2198
  680MOL0     H89719   2.171   1.915  10.577 -1.4396  2.8966  0.4073
  680MOL0     H89720   2.417   1.881  10.582  0.0528 -1.7079 -1.6414
  680MOL0     H89721   2.328   1.740  10.613  0.2964 -1.5435  1.5785
  680MOL0     H89722   2.192   1.657  10.768 -0.6079 -2.3804 -0.1162
  680MOL0     H89723   2.132   1.498  10.943 -0.0645  0.1822  1.4185
  680MOL0     H89724   2.197   1.139  11.122 -0.9140  0.4449  0.4529
  680MOL0     H89725   2.102   0.958  11.268  1.1624 -2.7226  2.7314
  680MOL0     H89726   2.138   0.765  11.435  0.7346 -2.9408  2.7357
  680MOL0     H89727   1.976   0.843  11.451 -0.2488  0.2368  1.4086
  680MOL0     H89728   1.987   0.820  11.697 -3.9144  1.3303 -2.8313
  680MOL0     H89729   2.128   0.702  11.657  0.8365  2.2620  2.1703
  680MOL0     H89730   2.004   0.547  11.568  2.2957  1.4045  0.2262
  680MOL0     H89731   1.881   0.670  11.522 -1.5782 -0.5545  1.4639
  680MOL0     H89732   1.941   0.567  11.809  1.6543  1.4029 -0.4225
  680MOL0     H89733   1.810   0.666  11.774 -1.5095 -2.7294  1.5143
  680MOL0     H89734   1.852   0.373  11.704 -0.1811  0.2707 -0.3285
  680MOL0     H89735   1.746   0.460  11.597  0.6132  1.0535  0.4801
  680MOL0     H89736   1.593   0.541  11.759 -2.3777 -0.2506  1.5846
  680MOL0     H89737   1.705   0.487  11.892 -1.7447 -2.3509  0.9013
  680MOL0     H89738   1.535   0.310  11.716  0.7098  0.6941 -1.0093
  680MOL0     H89739   1.636   0.256  11.857 -0.8335 -0.2200  0.9129
  680MOL0     H89740   1.369   0.289  11.861  0.8150 -1.0135 -2.0713
  680MOL0     H89741   1.399   0.459  11.848  1.0987 -0.7275 -1.7659
  680MOL0     H89742   2.275   1.141  11.608 -2.1483  1.5823 -1.2416
  680MOL0     H89743   2.369   1.315  11.472 -0.6155 -0.1251  1.5134
  680MOL0     H89744   2.481   1.580  11.171 -1.5769  2.2696  0.9400
  680MOL0     H89745   2.542   1.763  11.009  0.2411 -1.0422  2.1576
  680MOL0     H89746   2.900   1.838  11.123 -2.2669 -0.3936 -0.8534
  680MOL0     H89747   3.068   1.959  11.014 -3.5313 -0.6078 -2.0423
  680MOL0     H89748   3.266   2.300  10.853 -1.5193  1.0372  2.1758
  680MOL0     H89749   3.476   2.344  10.728  1.0626  2.3050 -0.9414
  680MOL0     H89750   3.809   2.584  10.966  1.7066  0.5998 -1.1880
  680MOL0     H89751   3.736   2.706  10.873  0.4264  0.4360 -1.7406
  680MOL0     H89752   3.974   2.651  10.809  0.3013  0.3744 -0.1072
  680MOL0     H89753   3.926   2.492  10.760  0.9671 -0.0025 -1.8859
  680MOL0     H89754   3.840   2.757  10.649 -1.9712 -0.5466  1.2941
  680MOL0     H89755   3.761   2.617  10.574 -0.6066  1.0519 -0.9306
  680MOL0     H89756   3.953   2.700  10.441  1.5111  0.3987  0.4757
  680MOL0     H89757   4.056   2.661  10.574 -0.8694  2.8000 -2.1335
  680MOL0     H89758   3.927   2.279  10.431  2.6876 -0.3291 -1.4399
  680MOL0     H89759   3.610   2.573  11.066 -1.0314  0.1150  0.2116
  680MOL0     H89760   3.429   2.492  11.192  2.3628  1.1763 -0.6006
  681MOL0     O89761   9.874   2.261   4.000 -0.3609 -0.1030 -0.4756
  681MOL0     C89762   9.840   2.160   4.056  0.2599  0.8710  0.1118
  681MOL0     O89763   9.889   2.107   4.179 -0.8354 -0.5635 -0.0949
  681MOL0     C89764   9.986   2.175   4.255  0.4563 -0.8376  0.3659
  681MOL0     C89765  10.010   2.319   4.259  0.1988  1.0659 -0.1239
  681MOL0     C89766  10.097   2.375   4.346  0.5971 -0.8537 -0.9082
  681MOL0     C89767  10.154   2.299   4.449 -0.4576 -0.4143  0.3433
  681MOL0     O89768  10.248   2.339   4.542  0.6823 -0.1358  0.5766
  681MOL0     C89769  10.250   2.483   4.550  0.4520 -0.8126  0.1828
  681MOL0     C89770  10.297   2.533   4.679  1.1556 -0.3418 -0.2938
  681MOL0     C89771  10.429   2.465   4.714 -0.2605 -0.5683  0.0904
  681MOL0     C89772  10.466   2.497   4.859 -0.3707  0.7344 -0.8260
  681MOL0     C89773  10.576   2.410   4.907 -0.4028  0.1742 -0.7246
  681MOL0     C89774  10.595   2.434   5.053 -0.2161 -0.0378  0.8614
  681MOL0     C89775  10.689   2.318   5.098 -0.8091  0.1196  0.5215
  681MOL0     C89776  10.754   2.336   5.242  0.7217 -0.3740  0.1242
  681MOL0     N89777  10.871   2.414   5.236 -0.0337 -1.0265 -0.6954
  681MOL0     C89778  10.875   2.553   5.249 -0.0207  0.5399  0.1622
  681MOL0     C89779  11.005   2.587   5.204 -0.0225 -0.0435 -0.1021
  681MOL0     C89780  11.061   2.732   5.199  0.1630 -0.1296  0.1394
  681MOL0     C89781  10.988   2.820   5.092 -0.1069  0.0017  0.0125
  681MOL0     C89782  10.877   2.904   5.156  0.0892 -0.5957  0.4725
  681MOL0     C89783  10.939   3.030   5.222 -0.4510 -0.0581  0.2590
  681MOL0     O89784  10.827   3.098   5.275 -0.1036  0.1676  0.2987
  681MOL0     C89785  10.855   3.219   5.327  0.3474  0.4332 -0.4158
  681MOL0     C89786  10.741   3.287   5.374 -0.4104 -0.7922 -1.0578
  681MOL0     C89787  10.759   3.420   5.423 -0.6133 -0.0710  0.7743
  681MOL0     C89788  10.887   3.477   5.434 -0.8418  0.1150 -0.4906
  681MOL0     C89789  10.906   3.612   5.501 -0.0144 -0.4170  1.6085
  681MOL0     O89790  11.024   3.627   5.583  0.5875 -0.0487  0.6256
  681MOL0     C89791  11.093   3.751   5.577  0.2901 -0.3869  0.1336
  681MOL0     C89792  11.042   3.864   5.638  1.1132  0.1766  0.2804
  681MOL0     C89793  11.106   3.987   5.631 -0.4099  0.2680 -0.1930
  681MOL0     C89794  11.224   4.007   5.556  0.0579  0.0795  0.1962
  681MOL0     O89795  11.292   4.122   5.523 -0.0346  0.1959 -0.3875
  681MOL0     C89796  11.221   4.249   5.534 -0.0230 -0.5800  0.0089
  681MOL0     C89797  11.325   4.359   5.521 -0.1525 -0.1248  0.3429
  681MOL0     C89798  11.264   4.496   5.536 -0.1683  0.4979 -0.2477
  681MOL0     C89799  11.199   4.547   5.411 -0.7043 -0.6277  0.3570
  681MOL0     C89800  11.128   4.686   5.424 -0.5005  0.3848  0.2652
  681MOL0     C89801  11.063   4.736   5.290  0.5292  0.5078 -0.8875
  681MOL0     C89802  11.164   4.761   5.181 -0.5683  0.5464  0.2345
  681MOL0     C89803  11.116   4.860   5.072 -0.4838 -0.8488 -0.6174
  681MOL0    Cl89804  11.174   5.017   5.128  0.1649 -0.3527  0.6578
  681MOL0     C89805  11.277   3.891   5.499  0.5117 -0.0770 -0.2173
  681MOL0     C89806  11.219   3.766   5.517 -0.6600  0.0906  0.0155
  681MOL0     O89807  10.828   3.703   5.477  0.0461 -0.3508 -0.6110
  681MOL0     C89808  11.010   3.406   5.395  0.7419 -0.2161 -0.3273
  681MOL0     C89809  10.985   3.277   5.340 -0.7265  0.3704  0.1440
  681MOL0     N89810  11.072   2.470   5.191  0.1342 -0.4074  0.1915
  681MOL0     N89811  10.991   2.372   5.204  0.0651  0.7237  0.5365
  681MOL0     C89812  10.137   2.165   4.440  0.5190 -0.1717 -0.2798
  681MOL0     C89813  10.057   2.100   4.346 -0.5695  0.1910 -0.2561
  681MOL0     C89814   9.762   2.058   3.985 -0.3651 -0.8627 -0.2386
  681MOL0     C89815   9.742   1.925   4.030 -0.4229 -0.4805 -0.6500
  681MOL0     C89816   9.657   1.840   3.969 -0.2543 -1.5995 -0.3299
  681MOL0     C89817   9.589   1.878   3.855  0.1336  0.3368  1.1025
  681MOL0     O89818   9.526   1.777   3.789  1.1018 -0.2675 -0.6383
  681MOL0     C89819   9.511   1.789   3.644  0.1358 -1.2053  0.2330
  681MOL0     C89820   9.494   1.643   3.590 -0.1316 -0.9351  0.0917
  681MOL0     C89821   9.484   1.644   3.441 -0.9114  0.4963 -0.3218
  681MOL0     C89822   9.407   1.528   3.376  0.3890  0.7888  0.4939
  681MOL0     C89823   9.423   1.395   3.445 -0.0579 -0.2677 -0.5060
  681MOL0     C89824   9.441   1.285   3.500 -0.0899 -0.8797  0.3604
  681MOL0     C89825   9.610   2.003   3.811  0.0911 -0.1036  0.4457
  681MOL0     C89826   9.696   2.097   3.865  0.7181  0.2295 -0.0125
  681MOL0     H89827   9.961   2.385   4.188  1.9444 -0.4729 -2.9477
  681MOL0     H89828  10.113   2.482   4.342 -0.0304 -0.5115  2.6472
  681MOL0     H89829  10.148   2.520   4.531  0.0990 -0.4800  2.4381
  681MOL0     H89830  10.317   2.523   4.473 -1.8429  1.0121 -1.0046
  681MOL0     H89831  10.224   2.506   4.755  1.0853  0.1521 -0.1847
  681MOL0     H89832  10.305   2.642   4.684 -1.7691 -0.0311 -1.0518
  681MOL0     H89833  10.501   2.492   4.636  1.9211 -1.0285  1.8343
  681MOL0     H89834  10.416   2.358   4.696  2.3413 -0.8411 -0.6285
  681MOL0     H89835  10.494   2.601   4.879 -0.3298  0.3982  1.0238
  681MOL0     H89836  10.383   2.482   4.928 -0.5038  1.3576 -0.8470
  681MOL0     H89837  10.672   2.434   4.862  0.4457  0.9866  1.4082
  681MOL0     H89838  10.544   2.308   4.879 -3.5946  0.5015  1.2537
  681MOL0     H89839  10.499   2.439   5.105 -0.1194  2.4970  0.9220
  681MOL0     H89840  10.640   2.534   5.054 -1.5178  0.6949 -2.1494
  681MOL0     H89841  10.635   2.224   5.111  3.6254 -2.4104  2.7073
  681MOL0     H89842  10.776   2.304   5.034  0.0953  2.8837  0.9679
  681MOL0     H89843  10.772   2.234   5.278 -4.3759 -0.9898  1.8097
  681MOL0     H89844  10.680   2.376   5.312 -0.8732  0.0906 -1.7335
  681MOL0     H89845  10.790   2.616   5.274 -2.6003 -2.7736  0.4185
  681MOL0     H89846  11.168   2.731   5.173  0.4662 -0.8566  1.3794
  681MOL0     H89847  11.044   2.776   5.297 -0.1266  2.9823 -1.1801
  681MOL0     H89848  10.934   2.737   5.046 -0.1328 -0.2874  0.5495
  681MOL0     H89849  11.045   2.866   5.012 -0.7672 -0.5765 -0.8026
  681MOL0     H89850  10.795   2.922   5.086  0.1025 -4.3595 -0.7216
  681MOL0     H89851  10.828   2.844   5.234 -1.6660 -1.2861 -1.0929
  681MOL0     H89852  11.001   3.073   5.143 -0.3521 -3.7789 -1.9306
  681MOL0     H89853  11.005   3.005   5.306 -1.0864  1.9485  1.4201
  681MOL0     H89854  10.641   3.247   5.376 -1.2806  1.1521  1.8936
  681MOL0     H89855  10.672   3.474   5.459 -1.3460 -2.4654  2.8774
  681MOL0     H89856  10.942   3.859   5.681  0.8795 -1.3546 -0.3828
  681MOL0     H89857  11.067   4.076   5.680  0.4144 -0.5352  2.0309
  681MOL0     H89858  11.182   4.248   5.636 -1.0871 -2.8993 -0.3432
  681MOL0     H89859  11.145   4.257   5.456  1.5806  1.5233 -1.4665
  681MOL0     H89860  11.389   4.342   5.433 -1.1359 -0.7412 -0.2727
  681MOL0     H89861  11.395   4.340   5.603 -2.0955 -4.3941  1.2962
  681MOL0     H89862  11.333   4.564   5.587  3.3953  0.6207 -4.6307
  681MOL0     H89863  11.182   4.492   5.609 -1.2389 -0.7660 -1.4487
  681MOL0     H89864  11.268   4.538   5.326  0.1969 -2.6816  1.2200
  681MOL0     H89865  11.114   4.482   5.388 -0.6179 -1.2082  1.6011
  681MOL0     H89866  11.206   4.760   5.445  0.7074  0.0772 -2.6234
  681MOL0     H89867  11.054   4.666   5.502 -0.0678 -2.5596  0.0382
  681MOL0     H89868  10.988   4.813   5.311  0.9870  1.2082 -1.7447
  681MOL0     H89869  11.005   4.652   5.250 -2.5091  2.5037 -1.0233
  681MOL0     H89870  11.262   4.773   5.229 -0.9667 -0.8274  1.4539
  681MOL0     H89871  11.191   4.669   5.129  1.3048  0.4827  1.2023
  681MOL0     H89872  11.008   4.847   5.069 -1.0878  1.0866  4.2376
  681MOL0     H89873  11.160   4.826   4.978  1.3267 -5.9572  1.7263
  681MOL0     H89874  11.375   3.899   5.453  2.3131  1.3760  3.4246
  681MOL0     H89875  11.259   3.678   5.468 -2.0065 -1.5951  1.7454
  681MOL0     H89876  11.103   3.460   5.411  1.2759 -1.0942 -0.3882
  681MOL0     H89877  11.080   3.234   5.312  0.0776  2.5559 -0.7334
  681MOL0     H89878  10.200   2.103   4.503 -0.0804 -2.7066 -2.0257
  681MOL0     H89879  10.053   1.992   4.339  2.8010  0.0554 -2.0607
  681MOL0     H89880   9.798   1.903   4.120  0.8502  1.3940 -0.9250
  681MOL0     H89881   9.642   1.736   3.994  0.5665 -1.3538  1.2980
  681MOL0     H89882   9.604   1.830   3.603  1.7059 -3.3910  1.3658
  681MOL0     H89883   9.424   1.851   3.623 -1.0486 -2.6067  0.7599
  681MOL0     H89884   9.574   1.574   3.621  0.6316 -0.1243 -0.0320
  681MOL0     H89885   9.407   1.597   3.639  1.3569 -1.6781  2.1956
  681MOL0     H89886   9.589   1.636   3.413 -0.3358  0.7669  1.5623
  681MOL0     H89887   9.425   1.728   3.403 -0.5522 -0.1498 -2.4328
  681MOL0     H89888   9.305   1.567   3.386 -0.3924 -0.3086 -2.2686
  681MOL0     H89889   9.434   1.519   3.270  2.8384 -0.7310  1.1658
  681MOL0     H89890   9.465   1.196   3.554  1.4944 -0.8278 -0.2099
  681MOL0     H89891   9.552   2.035   3.725 -1.6668 -1.1940  1.1659
  681MOL0     H89892   9.722   2.194   3.825 -0.0661 -0.1644 -1.5644
  682MOL0     O89893   0.959   9.756   4.118  0.6811  0.4463 -0.0733
  682MOL0     C89894   1.037   9.836   4.065 -0.8206  0.6032  0.5697
  682MOL0     O89895   1.003   9.944   3.984 -0.5707  0.2886  0.1016
  682MOL0     C89896   0.868   9.964   3.972 -0.6586  0.6767 -0.2145
  682MOL0     C89897   0.794   9.888   3.882 -0.6797  0.2904  0.9546
  682MOL0     C89898   0.649   9.898   3.899  0.2662 -0.3837 -0.3543
  682MOL0     C89899   0.586   9.981   4.003 -1.1640  0.4102  0.6464
  682MOL0     O89900   0.452   9.991   4.041  0.5023  0.4252 -0.2537
  682MOL0     C89901   0.361   9.896   3.980 -0.9260 -0.1723 -0.4147
  682MOL0     C89902   0.382   9.753   4.024 -0.3748 -0.0459 -0.0869
  682MOL0     C89903   0.297   9.650   3.946  0.8981  0.9458  0.4393
  682MOL0     C89904   0.299   9.649   3.798 -0.0118 -0.0186 -0.8212
  682MOL0     C89905   0.191   9.551   3.732 -0.4203 -0.1862  0.6573
  682MOL0     C89906   0.235   9.406   3.746  0.6933  0.1195 -0.3016
  682MOL0     C89907   0.121   9.304   3.727 -0.9195  0.1113  0.6246
  682MOL0     C89908   0.022   9.310   3.841 -0.6307 -0.4102  0.8727
  682MOL0     N89909   0.088   9.243   3.952  0.2587  0.4079  0.4563
  682MOL0     C89910   0.074   9.116   3.980 -0.0367  0.3969  0.2121
  682MOL0     C89911   0.139   9.097   4.098  0.6859 -0.3895  0.3580
  682MOL0     C89912   0.138   8.965   4.173 -0.7413 -0.6116  0.1160
  682MOL0     C89913   0.277   8.909   4.145 -0.8399  0.5356 -0.1084
  682MOL0     C89914   0.381   8.969   4.231 -0.0826  0.1015 -0.5202
  682MOL0     C89915   0.505   8.996   4.139  0.8922  1.0191 -0.1767
  682MOL0     O89916   0.607   9.045   4.215 -0.2387  0.2429 -0.3821
  682MOL0     C89917   0.740   9.022   4.185  0.3101  0.0655 -0.3837
  682MOL0     C89918   0.791   8.998   4.058  0.3691 -0.1515 -0.0822
  682MOL0     C89919   0.922   8.986   4.035 -0.6532  0.9998 -0.9104
  682MOL0     C89920   1.021   9.003   4.147 -0.7389  0.0849  0.1042
  682MOL0     C89921   1.166   9.008   4.118 -0.0464 -1.1385  0.0367
  682MOL0     O89922   1.189   9.012   3.983  1.0983  0.4075  0.0364
  682MOL0     C89923   1.311   8.981   3.948  0.3330 -0.3203  0.4818
  682MOL0     C89924   1.396   9.084   3.920 -0.0183  0.0342  0.2081
  682MOL0     C89925   1.508   9.057   3.845 -0.0067 -0.4023  0.2283
  682MOL0     C89926   1.548   8.927   3.822  0.5312 -0.3485 -0.7033
  682MOL0     O89927   1.666   8.925   3.752 -1.0986 -0.5461 -0.0176
  682MOL0     C89928   1.701   8.796   3.695 -0.1080  1.0209  0.1433
  682MOL0     C89929   1.782   8.827   3.575  0.0211  0.1081 -0.2094
  682MOL0     C89930   1.922   8.873   3.631  0.5254  0.2630 -0.8840
  682MOL0     C89931   2.025   8.911   3.530 -0.0190  0.1361  0.4308
  682MOL0     C89932   2.092   8.782   3.469  1.0428  0.5984 -1.0088
  682MOL0     C89933   2.200   8.812   3.354 -0.2059  0.4265  0.8351
  682MOL0     C89934   2.208   8.687   3.268  0.3883  0.0818 -0.2244
  682MOL0     C89935   2.335   8.689   3.180 -0.1473  0.1990 -0.7034
  682MOL0    Cl89936   2.334   8.527   3.090 -0.6893  0.2645 -0.2582
  682MOL0     C89937   1.477   8.820   3.876  0.3993  0.7039 -0.0703
  682MOL0     C89938   1.358   8.857   3.936  0.5398  0.6220  0.1473
  682MOL0     O89939   1.249   9.002   4.210 -0.4323 -0.0164 -0.0855
  682MOL0     C89940   0.965   9.035   4.277 -0.5585 -1.4342 -0.1256
  682MOL0     C89941   0.829   9.042   4.289 -0.1152 -0.0618  0.1776
  682MOL0     N89942   0.186   9.225   4.141 -0.4674 -0.1629  0.0674
  682MOL0     N89943   0.146   9.309   4.053 -0.2165 -1.2327 -0.5645
  682MOL0     C89944   0.671  10.053   4.089  0.3777  0.1860 -0.4296
  682MOL0     C89945   0.807  10.047   4.065 -0.0777 -0.4522  0.7438
  682MOL0     C89946   1.187   9.811   4.087 -0.5383 -0.1222 -0.5509
  682MOL0     C89947   1.233   9.709   4.167 -0.2699  0.4733  0.9269
  682MOL0     C89948   1.367   9.682   4.162 -0.5513  1.2856 -1.0809
  682MOL0     C89949   1.458   9.741   4.073  0.3399  0.0349 -0.1379
  682MOL0     O89950   1.586   9.690   4.080 -0.9456  0.0645 -0.0997
  682MOL0     C89951   1.671   9.718   3.964  0.3491 -0.0860 -0.8506
  682MOL0     C89952   1.800   9.643   3.982  0.4320 -0.8814  0.1280
  682MOL0     C89953   1.914   9.677   3.889 -0.0380 -0.4672 -0.2586
  682MOL0     C89954   1.995   9.803   3.920 -0.2779 -1.0707 -0.6284
  682MOL0     C89955   2.130   9.802   3.860  0.6852 -0.0216 -0.1031
  682MOL0     C89956   2.243   9.791   3.817 -0.1122  1.1969 -0.0062
  682MOL0     C89957   1.410   9.847   3.998  0.7691 -0.8642  0.4587
  682MOL0     C89958   1.273   9.888   4.006  0.6795 -0.0291  0.5805
  682MOL0     H89959   0.835   9.824   3.805  0.5370 -1.6132  3.0668
  682MOL0     H89960   0.583   9.846   3.830  2.0679 -0.0120 -2.4619
  682MOL0     H89961   0.365   9.913   3.872  2.1901  1.3223 -0.1666
  682MOL0     H89962   0.260   9.921   4.015 -0.5013 -2.6066  2.9660
  682MOL0     H89963   0.344   9.750   4.126  0.2990  0.8970  0.2029
  682MOL0     H89964   0.484   9.715   4.029 -0.5016 -0.8766 -2.3375
  682MOL0     H89965   0.195   9.680   3.973  0.9532  0.9983  0.5939
  682MOL0     H89966   0.321   9.555   3.995  2.1678  0.1617 -1.5977
  682MOL0     H89967   0.262   9.745   3.761  1.7143  0.9403 -0.1576
  682MOL0     H89968   0.402   9.630   3.764 -0.5368 -3.2656 -0.9184
  682MOL0     H89969   0.173   9.568   3.625 -0.5375 -3.3906  0.0748
  682MOL0     H89970   0.095   9.572   3.780  0.7602  1.1140  2.6242
  682MOL0     H89971   0.284   9.403   3.844 -0.3092 -3.8268  0.2319
  682MOL0     H89972   0.305   9.382   3.666  1.8006 -1.3789  1.0490
  682MOL0     H89973   0.080   9.322   3.627  0.3886  1.6663  0.3275
  682MOL0     H89974   0.158   9.202   3.719  0.3038  0.6721 -2.4078
  682MOL0     H89975  -0.074   9.265   3.812 -0.9914  1.2214 -0.5742
  682MOL0     H89976  -0.017   9.409   3.865 -0.1878 -0.1601  0.5711
  682MOL0     H89977   0.020   9.047   3.917  1.5683 -1.9594  1.2772
  682MOL0     H89978   0.056   8.901   4.139  1.4194 -2.0771 -2.7558
  682MOL0     H89979   0.119   8.988   4.279 -2.3338  1.3325 -0.5219
  682MOL0     H89980   0.299   8.915   4.038  2.2814  1.3501  0.4812
  682MOL0     H89981   0.264   8.802   4.166 -0.1981 -0.0023 -2.2534
  682MOL0     H89982   0.354   9.062   4.281  2.0000  0.1067  0.7073
  682MOL0     H89983   0.401   8.902   4.315  1.9303 -1.3107 -1.9932
  682MOL0     H89984   0.482   9.069   4.060  0.5579 -0.1270 -1.1648
  682MOL0     H89985   0.544   8.901   4.103 -1.6475 -1.9369  4.0449
  682MOL0     H89986   0.722   8.992   3.974 -0.4667 -1.0526  0.6533
  682MOL0     H89987   0.968   8.965   3.939  5.2546  0.6787  1.5672
  682MOL0     H89988   1.363   9.184   3.945 -0.4438 -0.5017  1.9071
  682MOL0     H89989   1.563   9.138   3.798  2.7793 -2.4076 -0.1903
  682MOL0     H89990   1.619   8.727   3.672  1.6523 -1.1964  0.1237
  682MOL0     H89991   1.763   8.752   3.773  0.7223  3.0667  0.7138
  682MOL0     H89992   1.736   8.904   3.513 -0.3935  1.5350  1.7895
  682MOL0     H89993   1.804   8.739   3.513  1.3303 -0.3703  0.8649
  682MOL0     H89994   1.970   8.797   3.693 -2.6305 -1.2259 -0.0827
  682MOL0     H89995   1.909   8.953   3.704 -0.6142 -1.1661  0.5505
  682MOL0     H89996   1.970   8.969   3.455 -1.5516 -0.9555  0.6565
  682MOL0     H89997   2.104   8.979   3.563  1.2998 -1.6639  1.1403
  682MOL0     H89998   2.013   8.713   3.438  1.6592  0.0997 -1.4762
  682MOL0     H89999   2.143   8.721   3.544 -4.2432 -0.6262  2.1008
  682MOL0     H90000   2.296   8.828   3.403 -0.1953  1.1311  0.5823
  682MOL0     H90001   2.164   8.902   3.304 -1.1981 -0.1932  0.4071
  682MOL0     H90002   2.208   8.602   3.336 -0.1577  0.2590  0.0037
  682MOL0     H90003   2.116   8.685   3.208 -2.5389 -3.2296  3.8068
  682MOL0     H90004   2.431   8.692   3.232 -0.4726 -2.1711  0.1915
  682MOL0     H90005   2.326   8.778   3.117  3.6317  1.3951  0.1949
  682MOL0     H90006   1.509   8.719   3.853  0.8122  0.9056 -0.4023
  682MOL0     H90007   1.283   8.779   3.942 -1.7187  2.2324 -3.3117
  682MOL0     H90008   1.032   9.058   4.359 -2.3888 -1.7836  1.5428
  682MOL0     H90009   0.792   9.085   4.381 -1.5679  1.4321 -1.0283
  682MOL0     H90010   0.649  10.128   4.164  2.2949 -0.4194  0.8284
  682MOL0     H90011   0.883  10.094   4.125 -2.3949  3.5320  0.9242
  682MOL0     H90012   1.172   9.653   4.237  0.5950 -3.2711 -1.0862
  682MOL0     H90013   1.407   9.616   4.239 -1.9726  0.2248 -1.1956
  682MOL0     H90014   1.692   9.826   3.963 -0.4997  0.3224  3.5009
  682MOL0     H90015   1.632   9.688   3.867 -0.4307  0.5790 -0.7576
  682MOL0     H90016   1.825   9.666   4.086  4.2284 -1.1964 -0.5696
  682MOL0     H90017   1.785   9.536   3.962  0.7538 -1.0556  0.7867
  682MOL0     H90018   1.879   9.686   3.786  0.9255 -3.7293 -0.9753
  682MOL0     H90019   1.985   9.594   3.886  2.1421  1.3082 -1.0008
  682MOL0     H90020   1.940   9.892   3.888 -0.0204  0.3949  2.5782
  682MOL0     H90021   2.017   9.818   4.026  0.5294  2.9814 -1.1912
  682MOL0     H90022   2.338   9.774   3.770 -1.6321  1.8606 -3.5940
  682MOL0     H90023   1.457   9.902   3.917  2.5291  1.5107  2.9210
  682MOL0     H90024   1.239   9.961   3.933 -1.9578 -0.7998  0.9113
  683MOL0     O90025   6.344   2.053  10.994 -0.0584  0.2771  0.5389
  683MOL0     C90026   6.232   2.022  11.048  0.1407  0.4727 -0.2338
  683MOL0     O90027   6.189   2.070  11.164  0.3928  0.5784  0.3986
  683MOL0     C90028   6.247   2.191  11.200  0.5060 -0.2716  0.8119
  683MOL0     C90029   6.236   2.307  11.123  0.0078 -0.6289  0.2724
  683MOL0     C90030   6.305   2.425  11.167  0.2989 -1.0322  0.5090
  683MOL0     C90031   6.367   2.438  11.286  0.6269 -0.1067 -0.1692
  683MOL0     O90032   6.412   2.556  11.330  0.2248 -0.8799  0.0475
  683MOL0     C90033   6.551   2.552  11.362  1.4372 -0.4182 -0.1525
  683MOL0     C90034   6.589   2.683  11.437  0.1158 -0.7634  0.4725
  683MOL0     C90035   6.719   2.639  11.513 -0.7084  0.7191 -0.5374
  683MOL0     C90036   6.804   2.751  11.571 -0.8158 -0.9241 -0.5115
  683MOL0     C90037   6.813   2.760  11.728 -0.1602  0.6578  0.2603
  683MOL0     C90038   6.853   2.899  11.791  0.6819 -0.2102  0.7323
  683MOL0     C90039   6.818   2.920  11.938 -0.4437 -0.2433 -0.2637
  683MOL0     C90040   6.879   3.039  12.006 -1.1467 -0.5039 -0.7862
  683MOL0     N90041   6.842   3.050  12.144 -0.5928 -0.4572  0.6505
  683MOL0     C90042   6.748   2.961  12.210 -0.0793  0.0297  0.0467
  683MOL0     C90043   6.713   3.036  12.322 -0.3252  0.3991 -0.4575
  683MOL0     C90044   6.637   2.981  12.433  0.3424  0.7976  0.5303
  683MOL0     C90045   6.649   3.048  12.567  0.3466  0.1293 -0.0321
  683MOL0     C90046   6.793   3.028  12.630  0.0011 -0.2534 -0.3920
  683MOL0     C90047   6.800   3.089  12.778 -0.0421  0.8425  0.3245
  683MOL0     O90048   6.693   3.191  12.792 -0.2145 -0.6373 -0.5049
  683MOL0     C90049   6.631   3.214  12.912 -0.2089  0.4972  0.9805
  683MOL0     C90050   6.537   3.319  12.904  0.4781  0.7790  0.3357
  683MOL0     C90051   6.463   3.353  13.015  0.4208 -0.0964  0.2491
  683MOL0     C90052   6.483   3.284  13.134 -0.0019  0.7039 -0.3384
  683MOL0     C90053   6.387   3.328  13.248  0.0086  0.9208  0.6666
  683MOL0     O90054   6.340   3.460  13.249 -0.2622  0.7892 -0.7889
  683MOL0     C90055   6.254   3.508  13.343  0.1696  0.1221  0.2901
  683MOL0     C90056   6.161   3.441  13.429 -0.4680 -0.1666  0.2819
  683MOL0     C90057   6.080   3.521  13.515  0.4441  0.0023 -0.2773
  683MOL0     C90058   6.082   3.665  13.513 -0.1872  0.3980  0.1715
  683MOL0     O90059   5.987   3.736  13.594 -0.5133 -0.5899 -0.2371
  683MOL0     C90060   6.047   3.835  13.679 -0.3095  0.4541  1.5198
  683MOL0     C90061   5.954   3.858  13.801 -0.2191 -0.0309  0.5461
  683MOL0     C90062   6.019   3.928  13.920 -0.7600 -0.5523 -0.1625
  683MOL0     C90063   5.927   3.939  14.044  0.8879  0.4073  0.2043
  683MOL0     C90064   5.992   3.994  14.163 -0.5854 -0.5751 -0.7147
  683MOL0     C90065   5.890   4.009  14.279  0.9059 -0.8036  0.3974
  683MOL0     C90066   5.946   4.057  14.413  1.2123 -0.0450 -0.5347
  683MOL0     C90067   5.840   4.020  14.523  0.4467 -1.0849  0.4440
  683MOL0    Cl90068   5.915   4.060  14.692  0.3537  0.5729  0.2008
  683MOL0     C90069   6.168   3.727  13.428  0.7961 -0.2371 -0.5119
  683MOL0     C90070   6.251   3.645  13.350  0.5705 -1.0171  0.0554
  683MOL0     O90071   6.359   3.243  13.330  0.1084 -0.4247 -0.2078
  683MOL0     C90072   6.574   3.178  13.146 -0.1254 -0.5554  0.8678
  683MOL0     C90073   6.650   3.144  13.034 -1.4461 -0.7682 -0.1193
  683MOL0     N90074   6.768   3.161  12.320  0.0811  0.6035  0.6051
  683MOL0     N90075   6.841   3.172  12.214  0.1371  0.1133  0.6451
  683MOL0     C90076   6.361   2.324  11.371 -0.3946  0.3049  0.2525
  683MOL0     C90077   6.314   2.198  11.316  0.3591  0.0436 -0.5250
  683MOL0     C90078   6.158   1.899  10.998 -0.4681 -0.1052  0.0246
  683MOL0     C90079   6.032   1.865  11.057 -0.4650 -0.1149  0.4496
  683MOL0     C90080   5.953   1.761  11.006 -0.1947  0.1903 -0.2016
  683MOL0     C90081   6.007   1.695  10.891 -0.0081  0.3362 -0.1707
  683MOL0     O90082   5.936   1.608  10.816  0.1590 -0.5220 -0.0558
  683MOL0     C90083   5.800   1.640  10.796 -0.4881  0.6713  0.3224
  683MOL0     C90084   5.708   1.571  10.901  0.2424 -1.4361 -0.3825
  683MOL0     C90085   5.561   1.612  10.867 -0.7040 -0.5153  0.7087
  683MOL0     C90086   5.461   1.597  10.981  0.9390 -0.9531  0.3203
  683MOL0     C90087   5.478   1.694  11.080  0.3659  0.3041 -0.7688
  683MOL0     C90088   5.466   1.781  11.165  0.3591  0.2665  0.2244
  683MOL0     C90089   6.130   1.724  10.842  0.6483 -0.7600  0.9382
  683MOL0     C90090   6.204   1.821  10.896 -0.2698  0.1256 -0.1145
  683MOL0     H90091   6.185   2.327  11.029 -0.6393 -0.3883  0.6674
  683MOL0     H90092   6.280   2.516  11.113 -0.7134 -1.4133  0.2974
  683MOL0     H90093   6.606   2.538  11.269  0.3592  0.9955 -1.0473
  683MOL0     H90094   6.588   2.469  11.423 -0.6487 -0.0907  1.6674
  683MOL0     H90095   6.518   2.716  11.514 -2.2565  2.2731 -2.7059
  683MOL0     H90096   6.617   2.764  11.370  3.9829 -1.1681  1.3835
  683MOL0     H90097   6.784   2.584  11.445  1.3204  3.3934 -0.9143
  683MOL0     H90098   6.701   2.563  11.590  1.6226 -3.0382 -3.3533
  683MOL0     H90099   6.908   2.736  11.540 -0.9128 -2.8475 -0.0537
  683MOL0     H90100   6.756   2.845  11.541 -1.7698 -1.6427 -1.3054
  683MOL0     H90101   6.854   2.668  11.770 -0.5561  0.0038 -0.7393
  683MOL0     H90102   6.707   2.749  11.753  0.4236  0.8086  3.0638
  683MOL0     H90103   6.799   2.972  11.730  0.0329 -1.5182 -0.3011
  683MOL0     H90104   6.960   2.916  11.773  0.2914 -0.4024 -2.2487
  683MOL0     H90105   6.710   2.929  11.949 -0.4910  3.1875 -2.2462
  683MOL0     H90106   6.854   2.827  11.983 -0.1796 -0.0988 -0.1714
  683MOL0     H90107   6.834   3.127  11.960  1.6292  0.2513 -2.2546
  683MOL0     H90108   6.982   3.053  11.973 -2.3718  0.8502 -4.4257
  683MOL0     H90109   6.701   2.869  12.178 -0.8180  0.8538 -1.3807
  683MOL0     H90110   6.651   2.874  12.448  0.4828  0.2647 -2.7301
  683MOL0     H90111   6.531   2.977  12.407  0.7278  1.1435 -1.2238
  683MOL0     H90112   6.591   2.989  12.638  1.9262 -2.6654 -0.9268
  683MOL0     H90113   6.619   3.153  12.554 -0.9822 -0.5041 -2.7384
  683MOL0     H90114   6.816   2.921  12.636 -1.7629 -0.5837  1.5200
  683MOL0     H90115   6.869   3.080  12.571  1.3656 -2.2672 -0.5400
  683MOL0     H90116   6.894   3.142  12.794 -0.5771  1.5718  1.1754
  683MOL0     H90117   6.794   3.013  12.857 -0.7075  1.1721  0.6010
  683MOL0     H90118   6.510   3.374  12.814  1.1849 -0.2361 -0.5173
  683MOL0     H90119   6.378   3.416  12.994  0.6642  0.5020  1.0045
  683MOL0     H90120   6.149   3.334  13.419 -1.9776 -0.1552  1.5896
  683MOL0     H90121   6.003   3.486  13.583  1.0069  0.1792  0.4767
  683MOL0     H90122   6.056   3.933  13.631  0.6437  0.7524  2.2844
  683MOL0     H90123   6.138   3.798  13.727 -0.8925 -0.9431  1.5950
  683MOL0     H90124   5.912   3.761  13.826 -3.8279  1.2374  0.0406
  683MOL0     H90125   5.870   3.923  13.772  0.7956  0.1761 -2.2679
  683MOL0     H90126   6.060   4.026  13.895 -1.8615 -0.1457 -0.4174
  683MOL0     H90127   6.105   3.864  13.944 -0.9243  0.1140  2.6197
  683MOL0     H90128   5.845   4.004  14.013 -0.1379 -1.4455 -1.1344
  683MOL0     H90129   5.909   3.834  14.066  4.3561 -0.2967  0.2893
  683MOL0     H90130   6.035   4.090  14.135 -1.4223  0.8619  2.4151
  683MOL0     H90131   6.070   3.921  14.187 -0.7167 -1.0365 -1.6642
  683MOL0     H90132   5.848   3.909  14.293  0.2697 -0.8790 -1.6495
  683MOL0     H90133   5.816   4.086  14.256  2.1419  0.4778  0.5784
  683MOL0     H90134   6.047   4.015  14.416  0.2741 -2.4769 -0.4248
  683MOL0     H90135   5.958   4.165  14.408 -3.2734  0.6290 -1.3429
  683MOL0     H90136   5.832   3.910  14.524  0.7082 -1.1355 -1.0231
  683MOL0     H90137   5.746   4.076  14.523  0.0102 -1.2727  6.0584
  683MOL0     H90138   6.166   3.834  13.412  1.5332 -0.4386 -2.1136
  683MOL0     H90139   6.337   3.689  13.300  1.0010  0.6148  2.0617
  683MOL0     H90140   6.578   3.119  13.238 -0.2701 -3.6367 -0.9648
  683MOL0     H90141   6.693   3.045  13.033 -3.4578 -1.8226 -4.0431
  683MOL0     H90142   6.406   2.338  11.469  1.8768 -0.2321 -0.6527
  683MOL0     H90143   6.324   2.110  11.378 -2.9729 -0.0099  0.1048
  683MOL0     H90144   6.003   1.919  11.146 -1.1180  2.9988 -1.4871
  683MOL0     H90145   5.868   1.749  11.072 -0.2436  0.3969 -0.2271
  683MOL0     H90146   5.768   1.611  10.696  1.2522  1.5790 -0.5393
  683MOL0     H90147   5.772   1.746  10.788 -0.1664  0.7426  0.1300
  683MOL0     H90148   5.715   1.464  10.881 -0.6780 -1.2977 -1.5524
  683MOL0     H90149   5.744   1.599  11.001  0.9094 -0.3542 -0.8994
  683MOL0     H90150   5.523   1.567  10.775 -2.4418 -0.1131  1.1967
  683MOL0     H90151   5.568   1.719  10.844 -0.8534 -0.4889  0.7838
  683MOL0     H90152   5.358   1.608  10.947  0.8500  0.2349  0.9286
  683MOL0     H90153   5.478   1.498  11.024  1.5230 -1.1988 -0.4652
  683MOL0     H90154   5.449   1.845  11.250 -0.4894  1.6403 -0.9335
  683MOL0     H90155   6.168   1.659  10.764 -0.0042 -0.6749  0.5433
  683MOL0     H90156   6.301   1.843  10.853 -0.1756 -0.2675 -0.1073
  684MOL0     O90157   5.102   1.624   9.405  0.3359 -0.9906  0.4562
  684MOL0     C90158   5.069   1.737   9.358  0.4022  0.9529  0.1941
  684MOL0     O90159   5.034   1.849   9.435 -0.4667  0.7127  0.5232
  684MOL0     C90160   5.105   1.850   9.555  0.1548  0.3389  0.6070
  684MOL0     C90161   5.105   1.746   9.656  0.9221 -0.0553 -0.2053
  684MOL0     C90162   5.162   1.775   9.783 -0.5713  0.0655 -0.5242
  684MOL0     C90163   5.244   1.889   9.814  0.7074  0.2794 -0.2324
  684MOL0     O90164   5.321   1.912   9.923 -0.7696 -0.6778  0.0017
  684MOL0     C90165   5.320   1.814  10.030 -0.1088 -0.3449 -0.8303
  684MOL0     C90166   5.386   1.848  10.171 -0.0160 -0.5694  0.9574
  684MOL0     C90167   5.321   1.959  10.249  0.0967 -1.4977  0.0221
  684MOL0     C90168   5.380   1.988  10.381 -1.1683  0.6212  0.2090
  684MOL0     C90169   5.291   1.946  10.503  0.1645 -1.0597 -0.6405
  684MOL0     C90170   5.162   2.029  10.507  0.9845  0.4554  0.2330
  684MOL0     C90171   5.181   2.162  10.555  0.2085 -0.7815 -0.2653
  684MOL0     C90172   5.056   2.233  10.557 -0.1196  0.4004  0.3955
  684MOL0     N90173   5.068   2.366  10.615 -0.0076 -0.2716  0.0845
  684MOL0     C90174   5.160   2.464  10.576  0.2097 -0.6627 -0.3807
  684MOL0     C90175   5.118   2.570  10.648  0.0043  0.0233  0.5263
  684MOL0     C90176   5.204   2.703  10.665 -0.0692 -0.0342 -0.3738
  684MOL0     C90177   5.257   2.714  10.803 -0.6474 -0.1276  0.4824
  684MOL0     C90178   5.413   2.749  10.773 -0.3564  0.0561 -0.2942
  684MOL0     C90179   5.495   2.612  10.739 -0.2172  0.5442  0.0209
  684MOL0     O90180   5.483   2.576  10.601  0.0714  0.3646  0.1733
  684MOL0     C90181   5.541   2.450  10.571  0.1792 -0.1417 -0.8489
  684MOL0     C90182   5.661   2.455  10.493 -0.1709 -0.1804 -0.5349
  684MOL0     C90183   5.732   2.329  10.475  0.4978 -0.3987  0.4739
  684MOL0     C90184   5.685   2.210  10.535 -0.5947  0.4646 -0.0499
  684MOL0     C90185   5.735   2.076  10.490  0.1406  0.9220 -0.7971
  684MOL0     O90186   5.685   1.959  10.554  0.1215  0.6656  0.0820
  684MOL0     C90187   5.710   1.830  10.502  0.0798  0.2422 -0.6063
  684MOL0     C90188   5.601   1.743  10.497  0.5344  0.6265  0.2150
  684MOL0     C90189   5.621   1.606  10.476  0.2597  0.1264  1.0943
  684MOL0     C90190   5.744   1.553  10.455 -0.4678  0.0809  0.1572
  684MOL0     O90191   5.749   1.416  10.467 -0.1930 -0.2229  0.1839
  684MOL0     C90192   5.882   1.357  10.490 -0.5965 -0.1614 -0.5791
  684MOL0     C90193   5.865   1.214  10.544  0.3040 -0.5085  0.2264
  684MOL0     C90194   5.868   1.209  10.697  0.2096  0.1122 -0.3836
  684MOL0     C90195   5.846   1.066  10.746  0.5361 -0.1709  0.8215
  684MOL0     C90196   5.811   1.076  10.898 -0.3113 -0.8253 -0.6893
  684MOL0     C90197   5.790   0.937  10.958 -0.0145  0.1093 -0.2133
  684MOL0     C90198   5.926   0.864  10.964  0.2103 -0.4390 -0.3670
  684MOL0     C90199   5.949   0.745  11.049  1.1161  0.0414 -0.1642
  684MOL0    Cl90200   5.887   0.778  11.227 -0.2296 -0.4006  0.4040
  684MOL0     C90201   5.850   1.639  10.450 -0.1773  0.5783 -0.1461
  684MOL0     C90202   5.834   1.778  10.474 -0.2238  1.1457 -0.6699
  684MOL0     O90203   5.816   2.077  10.405 -0.0449 -0.1363  0.0213
  684MOL0     C90204   5.576   2.219  10.625 -0.9273 -0.7945  0.9020
  684MOL0     C90205   5.504   2.336  10.635  0.6606  0.7655  0.2243
  684MOL0     N90206   5.001   2.541  10.715 -0.0187 -0.7005 -0.1200
  684MOL0     N90207   4.987   2.420  10.704  0.8743 -0.2162  0.5110
  684MOL0     C90208   5.242   1.989   9.709 -0.0223  0.5116  0.4815
  684MOL0     C90209   5.175   1.971   9.591  0.2873  0.5551 -0.6579
  684MOL0     C90210   5.028   1.736   9.209 -0.4154  0.0059 -0.5945
  684MOL0     C90211   5.028   1.611   9.131 -0.0852 -0.9768 -0.8997
  684MOL0     C90212   4.985   1.608   8.995 -0.2473  0.1657 -0.4296
  684MOL0     C90213   4.941   1.720   8.929  0.0801 -0.0715 -0.1496
  684MOL0     O90214   4.934   1.716   8.791  0.0072  1.4363  0.0149
  684MOL0     C90215   4.867   1.808   8.702  0.3426  0.4602  0.9005
  684MOL0     C90216   4.718   1.785   8.725 -0.1727 -0.4687 -0.2749
  684MOL0     C90217   4.640   1.836   8.605 -0.4759 -0.4503  0.4863
  684MOL0     C90218   4.494   1.823   8.625 -0.3520 -0.3552 -1.0006
  684MOL0     C90219   4.415   1.886   8.519 -0.5684 -0.4050 -0.5134
  684MOL0     C90220   4.369   1.934   8.423 -0.0752  0.0335  0.9901
  684MOL0     C90221   4.945   1.839   9.002 -1.2267 -0.3008 -0.6104
  684MOL0     C90222   4.970   1.849   9.141 -1.0774 -0.5065  0.5925
  684MOL0     H90223   5.055   1.651   9.643  3.1523 -1.2295 -0.7762
  684MOL0     H90224   5.155   1.703   9.864  3.5144  1.1366  1.0411
  684MOL0     H90225   5.375   1.727   9.991 -0.5656 -0.1961 -1.8322
  684MOL0     H90226   5.218   1.783  10.055 -0.9296  1.4377 -1.8314
  684MOL0     H90227   5.486   1.886  10.146 -0.0014 -2.0144 -1.5829
  684MOL0     H90228   5.395   1.762  10.238 -0.4421 -0.4650  1.1442
  684MOL0     H90229   5.213   1.944  10.248  0.1575 -1.9247 -0.7969
  684MOL0     H90230   5.332   2.052  10.192 -1.9289 -1.0951  0.2108
  684MOL0     H90231   5.475   1.934  10.388  0.5984  3.5931  1.3161
  684MOL0     H90232   5.408   2.094  10.390 -0.8976  0.7456 -1.6815
  684MOL0     H90233   5.353   1.953  10.593  0.5223 -1.5939 -0.8379
  684MOL0     H90234   5.275   1.838  10.489 -0.3088 -0.8380 -1.9517
  684MOL0     H90235   5.110   1.970  10.583  1.6995 -0.4832  0.0140
  684MOL0     H90236   5.108   2.026  10.412 -2.2897 -1.2327  1.9860
  684MOL0     H90237   5.220   2.152  10.657  1.0652 -0.8913 -0.5937
  684MOL0     H90238   5.254   2.218  10.496 -0.6929  0.2663 -0.3953
  684MOL0     H90239   4.986   2.175  10.618 -0.5213 -0.3211 -0.7183
  684MOL0     H90240   5.022   2.233  10.453  3.5867  0.3769 -0.9500
  684MOL0     H90241   5.251   2.449  10.518  1.3915  1.1253  0.9232
  684MOL0     H90242   5.144   2.794  10.659 -1.2837 -0.6795  1.4336
  684MOL0     H90243   5.272   2.701  10.579 -0.8736 -0.2834 -1.0198
  684MOL0     H90244   5.235   2.627  10.866  0.1641 -1.7669 -1.3785
  684MOL0     H90245   5.199   2.796  10.846 -3.4085 -1.9258  0.4395
  684MOL0     H90246   5.424   2.818  10.688  1.1477 -0.0094 -0.1659
  684MOL0     H90247   5.462   2.802  10.855 -0.8552 -1.2350  0.8846
  684MOL0     H90248   5.470   2.526  10.801  1.1248  0.2622  0.2085
  684MOL0     H90249   5.600   2.630  10.766 -0.5310 -1.0799  2.7077
  684MOL0     H90250   5.693   2.549  10.449 -1.7526  0.5773 -0.1733
  684MOL0     H90251   5.818   2.342  10.410  0.1091  2.4764  0.4152
  684MOL0     H90252   5.500   1.781  10.510 -0.0108 -0.6213 -0.2467
  684MOL0     H90253   5.540   1.534  10.476 -0.6107  1.0189 -1.2344
  684MOL0     H90254   5.938   1.419  10.560  0.8402 -0.2905 -1.5576
  684MOL0     H90255   5.931   1.358  10.392 -1.6704  0.7322 -1.1195
  684MOL0     H90256   5.931   1.142  10.495 -4.3624 -3.3384 -2.7302
  684MOL0     H90257   5.768   1.172  10.513  0.6257 -1.8631  0.9669
  684MOL0     H90258   5.785   1.270  10.733 -0.3502 -1.0048  0.2742
  684MOL0     H90259   5.966   1.247  10.728 -0.1241  0.2499  0.5398
  684MOL0     H90260   5.766   1.019  10.687  1.7055 -0.4519 -0.6207
  684MOL0     H90261   5.936   1.006  10.733  1.8485  2.2163 -2.5842
  684MOL0     H90262   5.724   1.138  10.921 -1.6736 -1.6006 -3.3620
  684MOL0     H90263   5.889   1.137  10.945 -0.7195  0.3665 -1.5090
  684MOL0     H90264   5.712   0.880  10.907 -0.1556 -1.7270  1.8757
  684MOL0     H90265   5.749   0.940  11.060  1.6455 -1.5168  0.5658
  684MOL0     H90266   5.946   0.838  10.860 -2.2688  0.6671 -1.1990
  684MOL0     H90267   5.989   0.946  10.998 -0.7043  0.9877 -1.9683
  684MOL0     H90268   6.056   0.727  11.041  1.2685  1.2347 -0.9905
  684MOL0     H90269   5.897   0.654  11.016  0.9493  0.4333 -1.0151
  684MOL0     H90270   5.949   1.600  10.431 -1.1592 -2.4396  0.2779
  684MOL0     H90271   5.913   1.851  10.482  0.9084 -0.1643  0.7486
  684MOL0     H90272   5.537   2.125  10.663 -1.4117 -1.5462 -1.3312
  684MOL0     H90273   5.410   2.331  10.689  0.2227 -0.4578 -0.6050
  684MOL0     H90274   5.315   2.069   9.716  3.1924 -2.0609 -1.2187
  684MOL0     H90275   5.182   2.056   9.524  0.0905 -0.2239 -1.6927
  684MOL0     H90276   5.067   1.519   9.173 -1.2824 -3.0109 -3.8272
  684MOL0     H90277   4.981   1.519   8.932 -1.9518 -1.0333  1.2481
  684MOL0     H90278   4.896   1.779   8.600  0.2189 -0.3561  1.0882
  684MOL0     H90279   4.894   1.912   8.723 -1.0166  1.0483 -0.1336
  684MOL0     H90280   4.685   1.683   8.746 -1.7562  0.4271  2.0771
  684MOL0     H90281   4.688   1.826   8.822 -1.3167 -0.9560 -0.4084
  684MOL0     H90282   4.662   1.794   8.506  3.0693  1.6360  0.1988
  684MOL0     H90283   4.665   1.942   8.591  0.9852 -0.8315 -0.0508
  684MOL0     H90284   4.467   1.717   8.632 -1.7310  0.1008  1.2964
  684MOL0     H90285   4.466   1.866   8.721  0.2484  0.7428 -1.2971
  684MOL0     H90286   4.333   1.959   8.325  0.6253 -0.8052  0.5071
  684MOL0     H90287   4.927   1.925   8.939 -2.5244  0.2925  0.5429
  684MOL0     H90288   4.951   1.940   9.197 -2.1031  0.2746 -0.9587
  685MOL0     O90289   8.763   8.997   2.358 -0.5660 -0.0779  0.1589
  685MOL0     C90290   8.669   8.924   2.324  0.0282 -0.1698 -0.1397
  685MOL0     O90291   8.578   8.949   2.236 -0.6784  0.2276  1.1623
  685MOL0     C90292   8.569   9.078   2.175  0.3490 -0.0800 -0.2941
  685MOL0     C90293   8.538   9.190   2.250  0.0079  0.7198 -0.6697
  685MOL0     C90294   8.529   9.317   2.195 -0.2482 -0.7427 -0.1536
  685MOL0     C90295   8.540   9.328   2.052 -0.6556 -0.3850 -0.0217
  685MOL0     O90296   8.543   9.457   1.996  0.3361 -0.1344  0.1595
  685MOL0     C90297   8.613   9.479   1.868 -0.1562 -0.2051 -0.2016
  685MOL0     C90298   8.569   9.612   1.798 -0.0897  0.4666  0.2869
  685MOL0     C90299   8.650   9.726   1.849  0.1171  0.0416 -1.2505
  685MOL0     C90300   8.580   9.861   1.826  1.1554  0.0807 -0.3584
  685MOL0     C90301   8.656   9.988   1.865  0.9330  0.3230  0.0681
  685MOL0     C90302   8.660  10.012   2.015  0.5214 -0.2863 -0.4043
  685MOL0     C90303   8.690  10.151   2.057  0.1131 -0.4780  0.8026
  685MOL0     C90304   8.766  10.237   1.953  0.0743 -0.4671 -0.4788
  685MOL0     N90305   8.790  10.372   2.017 -0.3647 -0.4073  0.4883
  685MOL0     C90306   8.709  10.461   2.075  0.2085 -0.7198 -0.6260
  685MOL0     C90307   8.789  10.563   2.117 -0.1092  0.6165 -0.0390
  685MOL0     C90308   8.750  10.697   2.190 -0.9414  0.5438 -0.6428
  685MOL0     C90309   8.821  10.689   2.334  0.7619 -0.5437  0.3028
  685MOL0     C90310   8.742  10.607   2.441 -0.0835  0.9631  0.6093
  685MOL0     C90311   8.829  10.603   2.568 -0.6476 -0.6138  0.4165
  685MOL0     O90312   8.838  10.742   2.620 -0.1208 -0.2959  0.2367
  685MOL0     C90313   8.890  10.755   2.746  0.3212 -0.4441  0.2665
  685MOL0     C90314   8.859  10.874   2.813  0.4941  0.5646 -0.0221
  685MOL0     C90315   8.892  10.885   2.952 -0.2024  0.2047  0.8986
  685MOL0     C90316   8.952  10.788   3.028  0.6390  0.3938 -0.6986
  685MOL0     C90317   8.977  10.822   3.170 -0.2259  0.8374  0.1372
  685MOL0     O90318   8.938  10.940   3.226 -0.6824  0.3589 -0.2316
  685MOL0     C90319   8.965  10.964   3.357 -0.2561  0.0685 -0.3008
  685MOL0     C90320   8.918  10.887   3.466 -0.2229  0.7883 -0.5121
  685MOL0     C90321   8.963  10.931   3.589  1.0145 -1.1707 -0.3836
  685MOL0     C90322   9.059  11.038   3.613 -0.1346  0.8363  0.8228
  685MOL0     O90323   9.101  11.057   3.742 -0.1318  0.2010  0.1175
  685MOL0     C90324   9.171  11.185   3.771 -0.3976 -0.2371 -0.2882
  685MOL0     C90325   9.199  11.184   3.917 -0.1709  0.6138  1.0825
  685MOL0     C90326   9.269  11.311   3.964  0.3815 -0.1431  0.4003
  685MOL0     C90327   9.412  11.340   3.898  0.6839 -0.2771 -0.1652
  685MOL0     C90328   9.465  11.472   3.957 -0.2799 -0.2296 -0.0752
  685MOL0     C90329   9.604  11.501   3.909 -0.5503  0.1482  0.9234
  685MOL0     C90330   9.611  11.554   3.762 -0.0753 -0.3084  0.0459
  685MOL0     C90331   9.767  11.568   3.735  0.4973  0.0661 -0.0062
  685MOL0    Cl90332   9.823  11.397   3.743  0.0711 -0.5734 -0.2531
  685MOL0     C90333   9.101  11.109   3.500 -0.8231 -0.6582  0.5217
  685MOL0     C90334   9.062  11.072   3.378  1.0542  0.3826 -0.5224
  685MOL0     O90335   9.048  10.740   3.238  0.5209 -0.2949 -0.1910
  685MOL0     C90336   8.972  10.663   2.959 -0.4607  0.3965 -0.8717
  685MOL0     C90337   8.950  10.649   2.816 -0.0631  1.0840  0.6739
  685MOL0     N90338   8.918  10.522   2.079  0.2941 -0.2475  0.0627
  685MOL0     N90339   8.921  10.407   2.036 -1.1249  0.3713  0.5203
  685MOL0     C90340   8.558   9.209   1.975 -0.3385 -0.6566  0.2552
  685MOL0     C90341   8.568   9.086   2.037 -0.1919  0.5442 -0.8920
  685MOL0     C90342   8.651   8.795   2.392 -0.9017 -1.1734 -0.7865
  685MOL0     C90343   8.548   8.706   2.354  0.6212  0.4660 -0.2223
  685MOL0     C90344   8.527   8.586   2.417 -0.4486  0.4586 -0.4266
  685MOL0     C90345   8.610   8.540   2.516  0.2978  0.4330  0.0340
  685MOL0     O90346   8.598   8.416   2.570  0.2395  0.0615 -0.4259
  685MOL0     C90347   8.469   8.357   2.583  1.0154  0.6725 -0.1210
  685MOL0     C90348   8.471   8.280   2.713 -0.6897 -1.1513  0.5846
  685MOL0     C90349   8.340   8.209   2.735 -0.2810  0.5004 -0.0095
  685MOL0     C90350   8.314   8.100   2.638  0.3792  1.1283  0.2994
  685MOL0     C90351   8.200   8.025   2.676 -0.0152  0.5963 -0.1048
  685MOL0     C90352   8.114   7.951   2.721 -0.0630  0.8997 -0.0832
  685MOL0     C90353   8.704   8.625   2.565 -0.1868 -0.2872 -0.4593
  685MOL0     C90354   8.733   8.750   2.500  0.9631 -0.6031 -0.8426
  685MOL0     H90355   8.537   9.186   2.359 -1.6286 -0.5741 -0.6999
  685MOL0     H90356   8.513   9.406   2.255 -1.6072 -2.3046  1.9616
  685MOL0     H90357   8.598   9.392   1.804  0.7809  0.3164 -1.1643
  685MOL0     H90358   8.722   9.488   1.876 -0.1418  1.5749 -1.7509
  685MOL0     H90359   8.463   9.636   1.814 -1.0498 -3.7724  1.5370
  685MOL0     H90360   8.579   9.608   1.690 -1.8114  0.6478  0.0925
  685MOL0     H90361   8.750   9.726   1.804 -1.1484  1.5589 -4.3818
  685MOL0     H90362   8.661   9.713   1.957 -2.9306  0.4622 -0.7874
  685MOL0     H90363   8.558   9.860   1.719  0.5228 -5.2260 -0.4551
  685MOL0     H90364   8.485   9.865   1.880  0.3135  1.5148 -1.8535
  685MOL0     H90365   8.623  10.072   1.803  1.8441  0.5307 -0.1528
  685MOL0     H90366   8.757   9.981   1.825  0.2878  2.6413 -2.2689
  685MOL0     H90367   8.729   9.938   2.057 -0.1661 -0.0087  1.3169
  685MOL0     H90368   8.563   9.973   2.045  0.7244 -1.2312 -0.9428
  685MOL0     H90369   8.589  10.192   2.070 -0.5309 -2.6163  3.3197
  685MOL0     H90370   8.746  10.140   2.149  1.4927 -0.7595 -0.0413
  685MOL0     H90371   8.713  10.237   1.857 -1.8324 -1.4554  0.5229
  685MOL0     H90372   8.863  10.196   1.923  1.2836  2.5653 -1.0550
  685MOL0     H90373   8.607  10.447   2.109 -0.2309 -0.0681 -1.6480
  685MOL0     H90374   8.642  10.713   2.202 -0.5157  2.4953  1.0076
  685MOL0     H90375   8.792  10.783   2.138  1.3562 -1.2383 -1.9359
  685MOL0     H90376   8.832  10.792   2.371  2.7499 -0.3954 -0.5850
  685MOL0     H90377   8.922  10.650   2.321  1.5207 -0.3102  4.2945
  685MOL0     H90378   8.649  10.656   2.470  0.3967  1.8759  0.6829
  685MOL0     H90379   8.724  10.501   2.421 -0.0172  0.8583  1.1017
  685MOL0     H90380   8.924  10.552   2.546 -1.0240 -1.5128  0.8290
  685MOL0     H90381   8.781  10.529   2.632  0.2323 -2.9166 -1.4311
  685MOL0     H90382   8.800  10.944   2.755 -0.2222 -0.5452 -0.6604
  685MOL0     H90383   8.840  10.969   2.998 -1.9565 -0.9408  1.0768
  685MOL0     H90384   8.846  10.807   3.459  1.4133 -0.6388 -2.1491
  685MOL0     H90385   8.928  10.880   3.678  1.6033  0.5882  0.9054
  685MOL0     H90386   9.101  11.266   3.746 -0.9222  0.2495  2.4550
  685MOL0     H90387   9.271  11.192   3.727  0.6274  1.4921  2.0949
  685MOL0     H90388   9.260  11.096   3.939 -1.0641  0.0196  1.2417
  685MOL0     H90389   9.105  11.170   3.971  0.2163  1.3345  1.9609
  685MOL0     H90390   9.291  11.304   4.071 -0.1109 -3.8252  0.3812
  685MOL0     H90391   9.203  11.397   3.951  0.7624  0.0448 -0.3932
  685MOL0     H90392   9.481  11.257   3.915  2.4723  1.2030  0.1060
  685MOL0     H90393   9.398  11.356   3.791 -1.4625  2.1205  0.3702
  685MOL0     H90394   9.468  11.475   4.066 -3.9936 -3.8404  0.4026
  685MOL0     H90395   9.398  11.554   3.931 -2.1190 -1.7535 -0.3758
  685MOL0     H90396   9.660  11.408   3.924  0.7894  0.7869  0.0776
  685MOL0     H90397   9.646  11.577   3.977  1.0385  2.3223 -2.2219
  685MOL0     H90398   9.564  11.491   3.686 -0.4084  1.5028 -1.3223
  685MOL0     H90399   9.561  11.651   3.765 -1.1718 -0.8492  3.0752
  685MOL0     H90400   9.813  11.630   3.812  1.1981  1.2359 -1.3200
  685MOL0     H90401   9.786  11.618   3.640 -2.1780 -2.0501 -1.8284
  685MOL0     H90402   9.172  11.190   3.511  0.2622 -1.5697  0.3593
  685MOL0     H90403   9.096  11.130   3.293  0.4755  0.7642 -0.4999
  685MOL0     H90404   9.016  10.579   3.011 -1.8943 -1.2778 -2.2241
  685MOL0     H90405   8.977  10.554   2.770 -0.2484  1.7469 -0.8571
  685MOL0     H90406   8.557   9.221   1.867 -1.4320  3.4328  0.5563
  685MOL0     H90407   8.596   8.992   1.990  3.2628  1.3604 -0.7694
  685MOL0     H90408   8.478   8.731   2.275  1.6464  1.1463 -0.9500
  685MOL0     H90409   8.446   8.519   2.389 -1.4847  0.2055  2.7578
  685MOL0     H90410   8.469   8.279   2.506 -0.7360 -0.0680  0.5801
  685MOL0     H90411   8.373   8.409   2.576  0.2252 -0.7975 -0.6310
  685MOL0     H90412   8.565   8.226   2.704  1.5176  2.0112  2.5479
  685MOL0     H90413   8.496   8.352   2.791  3.0896 -0.9746 -0.6163
  685MOL0     H90414   8.257   8.280   2.742 -0.1038  0.5907  1.5929
  685MOL0     H90415   8.353   8.155   2.829  3.3311 -1.1651 -1.2919
  685MOL0     H90416   8.309   8.133   2.533 -0.3493  0.7892  0.2291
  685MOL0     H90417   8.403   8.037   2.646 -0.8524 -0.9068 -1.1507
  685MOL0     H90418   8.041   7.887   2.765  1.1592  0.2479  1.0639
  685MOL0     H90419   8.768   8.591   2.645 -2.1930  1.3267  2.0284
  685MOL0     H90420   8.814   8.812   2.538  1.0235 -1.9175  1.3162
  686MOL0     O90421   3.030   9.613   0.387 -0.3275  0.3584  0.2341
  686MOL0     C90422   2.985   9.600   0.279  0.3709  0.0013 -0.1117
  686MOL0     O90423   2.872   9.677   0.239 -0.0611  0.2749  0.0677
  686MOL0     C90424   2.777   9.749   0.311 -1.2798  0.4897  0.0479
  686MOL0     C90425   2.795   9.771   0.450 -0.5120  0.4757 -0.2117
  686MOL0     C90426   2.685   9.825   0.520 -0.4161 -0.2801  0.2404
  686MOL0     C90427   2.574   9.878   0.452  0.2740 -0.0954  0.2718
  686MOL0     O90428   2.463   9.925   0.513  0.3117  0.3476  0.1828
  686MOL0     C90429   2.397   9.831   0.601  0.4430  1.0426 -0.4287
  686MOL0     C90430   2.307   9.907   0.698  0.2496  0.2911 -0.3742
  686MOL0     C90431   2.367  10.037   0.761  0.4263 -0.4776 -0.9176
  686MOL0     C90432   2.469  10.013   0.868  0.7738 -0.4219  0.0896
  686MOL0     C90433   2.550  10.137   0.922 -0.4995  0.4488  0.5949
  686MOL0     C90434   2.644  10.188   0.812  0.1568  0.0816  0.1578
  686MOL0     C90435   2.743  10.279   0.884  0.1408 -0.0749 -0.4636
  686MOL0     C90436   2.840  10.343   0.788 -0.6939  0.1326 -0.3598
  686MOL0     N90437   2.968  10.262   0.768 -0.3953  0.7732  0.3030
  686MOL0     C90438   2.979  10.158   0.676  0.1734  1.0689  0.0032
  686MOL0     C90439   3.098  10.098   0.692  0.0325 -0.5747  0.4212
  686MOL0     C90440   3.180  10.007   0.602  1.8544  0.3360 -0.4858
  686MOL0     C90441   3.171   9.854   0.625  0.0558 -0.3686  0.0282
  686MOL0     C90442   3.262   9.781   0.523  0.3183 -0.4883  0.2527
  686MOL0     C90443   3.411   9.819   0.539  0.1162  0.3104  0.1599
  686MOL0     O90444   3.495   9.742   0.439  1.1016 -0.7160 -0.5882
  686MOL0     C90445   3.611   9.692   0.473 -0.7371 -0.1783  0.5681
  686MOL0     C90446   3.650   9.578   0.399 -0.5760 -0.2216  0.0978
  686MOL0     C90447   3.767   9.506   0.429  0.0666 -1.6560  1.1317
  686MOL0     C90448   3.846   9.541   0.546  0.4225  0.0268  0.1247
  686MOL0     C90449   3.969   9.471   0.579 -0.5404 -0.2883  0.2312
  686MOL0     O90450   4.003   9.357   0.505  0.2895  0.5748 -0.8660
  686MOL0     C90451   4.127   9.306   0.531 -0.0879 -0.0261  0.1159
  686MOL0     C90452   4.249   9.361   0.489 -0.2008 -0.2835 -0.3469
  686MOL0     C90453   4.361   9.283   0.496  0.3918  0.0633 -0.4551
  686MOL0     C90454   4.359   9.151   0.549  0.2852 -0.3702 -0.2258
  686MOL0     O90455   4.474   9.069   0.538 -0.2291 -0.4889  0.2917
  686MOL0     C90456   4.456   8.930   0.508 -0.1643 -0.1958  0.3145
  686MOL0     C90457   4.597   8.866   0.472  1.0282  0.2169  0.9015
  686MOL0     C90458   4.705   8.919   0.563 -0.3632 -0.6223  0.2229
  686MOL0     C90459   4.829   8.833   0.557  0.2651 -0.6052 -0.6598
  686MOL0     C90460   4.942   8.890   0.652 -0.1321 -0.0994  0.0781
  686MOL0     C90461   4.914   8.873   0.800 -1.1469 -0.1963  0.4503
  686MOL0     C90462   5.026   8.934   0.887  0.5692  0.2448 -0.5329
  686MOL0     C90463   5.005   8.909   1.036  0.2681 -0.1432 -1.1209
  686MOL0    Cl90464   4.860   8.993   1.125  0.1537  0.5345  0.1130
  686MOL0     C90465   4.238   9.102   0.603  0.2193  0.1080 -0.7317
  686MOL0     C90466   4.119   9.173   0.581 -0.3371  0.0851 -0.1828
  686MOL0     O90467   4.030   9.515   0.673  0.1670  0.6887  0.5080
  686MOL0     C90468   3.793   9.648   0.626 -0.6468  0.4281  0.7539
  686MOL0     C90469   3.690   9.726   0.581 -0.2015 -0.7568  0.3752
  686MOL0     N90470   3.155  10.164   0.805 -0.5701  0.6578 -0.3685
  686MOL0     N90471   3.074  10.252   0.851 -0.4209 -0.0413  0.1058
  686MOL0     C90472   2.561   9.870   0.313  0.0914 -0.0262  0.0546
  686MOL0     C90473   2.667   9.816   0.242  0.9013 -0.4327 -0.4655
  686MOL0     C90474   3.031   9.492   0.182  0.5488  0.4194  0.8111
  686MOL0     C90475   2.962   9.453   0.061 -0.3359  0.2021  1.1198
  686MOL0     C90476   3.004   9.348  -0.027 -0.1829 -0.0751 -0.0980
  686MOL0     C90477   3.112   9.269   0.015 -0.0554  0.3733 -0.7133
  686MOL0     O90478   3.163   9.151  -0.044 -0.0859 -0.6242 -0.6728
  686MOL0     C90479   3.132   9.114  -0.182  0.4893  0.6131 -0.4253
  686MOL0     C90480   3.187   8.975  -0.202 -0.8049  0.2063  0.9677
  686MOL0     C90481   3.221   8.937  -0.346  0.2364 -1.0048 -0.4774
  686MOL0     C90482   3.337   9.009  -0.414  0.5616  0.1806  0.3891
  686MOL0     C90483   3.332   8.985  -0.557  0.1181  0.3082 -0.8094
  686MOL0     C90484   3.349   8.983  -0.677  0.3983 -0.3805  1.5521
  686MOL0     C90485   3.179   9.300   0.137 -0.1728 -0.2433 -0.1555
  686MOL0     C90486   3.147   9.412   0.211  0.3068 -0.0359 -0.4447
  686MOL0     H90487   2.878   9.742   0.515  0.5991 -1.9087 -2.5202
  686MOL0     H90488   2.685   9.843   0.627 -1.4087  0.2848  0.1604
  686MOL0     H90489   2.460   9.779   0.674  0.1227 -1.5195 -1.8776
  686MOL0     H90490   2.343   9.751   0.550 -2.2528  2.4790 -0.0176
  686MOL0     H90491   2.271   9.857   0.788  0.9032  4.0611  2.2298
  686MOL0     H90492   2.224   9.929   0.631  0.1346 -0.4238 -0.4744
  686MOL0     H90493   2.284  10.097   0.800  0.9939 -0.7676  0.8313
  686MOL0     H90494   2.411  10.111   0.694  1.9003  0.2299  0.7685
  686MOL0     H90495   2.415   9.969   0.952 -5.6039  1.1778 -2.6370
  686MOL0     H90496   2.549   9.956   0.819  0.4225  0.8348 -2.0846
  686MOL0     H90497   2.606  10.099   1.008  1.3548 -2.4514 -1.6895
  686MOL0     H90498   2.483  10.222   0.941  1.4108  2.5995 -1.5857
  686MOL0     H90499   2.588  10.249   0.741  0.2867 -1.4948 -1.3621
  686MOL0     H90500   2.693  10.102   0.766 -0.3130  0.2930 -0.7736
  686MOL0     H90501   2.697  10.354   0.948  1.0787 -0.8302  1.1660
  686MOL0     H90502   2.802  10.215   0.951  0.6852 -2.2680 -2.8635
  686MOL0     H90503   2.881  10.438   0.825  4.0072 -1.3529 -1.1812
  686MOL0     H90504   2.792  10.351   0.690 -0.0844 -0.3987 -0.7010
  686MOL0     H90505   2.894  10.131   0.614 -0.5053 -0.0807  1.3729
  686MOL0     H90506   3.284  10.036   0.621  2.0899  0.9539 -2.5152
  686MOL0     H90507   3.155  10.027   0.498 -3.2220 -1.4044  0.1488
  686MOL0     H90508   3.065   9.827   0.620 -1.6928  4.9409  1.7423
  686MOL0     H90509   3.200   9.830   0.727 -0.2109  0.5365  0.3292
  686MOL0     H90510   3.253   9.673   0.535 -1.2887 -0.4744 -0.6136
  686MOL0     H90511   3.229   9.798   0.420 -1.8388 -1.1063  0.7975
  686MOL0     H90512   3.444   9.806   0.643 -1.1670  3.5726  1.0851
  686MOL0     H90513   3.434   9.922   0.513 -1.4531 -0.0421 -3.2147
  686MOL0     H90514   3.600   9.536   0.313 -1.1179 -0.0550  0.3295
  686MOL0     H90515   3.782   9.423   0.361 -2.7618 -1.0712 -0.3720
  686MOL0     H90516   4.259   9.462   0.452  4.9823 -1.5840 -3.7450
  686MOL0     H90517   4.459   9.319   0.467  0.8426 -0.5932  0.2297
  686MOL0     H90518   4.370   8.920   0.442  0.6401 -0.5197 -0.6991
  686MOL0     H90519   4.431   8.889   0.606 -0.7221 -3.7621 -1.2024
  686MOL0     H90520   4.631   8.885   0.370 -0.3490  1.5291  0.6562
  686MOL0     H90521   4.584   8.758   0.480  0.9420 -0.1232 -2.5665
  686MOL0     H90522   4.666   8.930   0.664  1.3492 -0.4646  0.9036
  686MOL0     H90523   4.730   9.024   0.545  1.1708 -0.5550  2.3642
  686MOL0     H90524   4.794   8.732   0.579  0.3759 -1.0497 -2.3992
  686MOL0     H90525   4.875   8.825   0.458  1.0329 -0.5806 -0.3117
  686MOL0     H90526   4.961   8.993   0.620 -0.5805  0.5248  1.6937
  686MOL0     H90527   5.039   8.842   0.645  0.0324  0.0041  1.3850
  686MOL0     H90528   4.898   8.767   0.823 -2.0106  0.4955  3.4186
  686MOL0     H90529   4.817   8.917   0.825 -2.1460 -2.6839  1.2863
  686MOL0     H90530   5.126   8.896   0.862  1.2935 -0.2283  2.7090
  686MOL0     H90531   5.038   9.041   0.870  0.2634  0.0882 -1.8856
  686MOL0     H90532   5.095   8.951   1.083  1.0960 -2.3129 -0.6335
  686MOL0     H90533   4.998   8.802   1.054  0.1218 -0.4612 -2.8950
  686MOL0     H90534   4.220   9.005   0.646  0.1084  1.1447  1.6913
  686MOL0     H90535   4.024   9.125   0.605 -1.3680  3.3226  3.0708
  686MOL0     H90536   3.846   9.677   0.716  2.0514 -1.4842 -0.0663
  686MOL0     H90537   3.655   9.811   0.639  0.3508 -2.2594  3.0443
  686MOL0     H90538   2.471   9.903   0.262  0.3280 -0.8226 -0.9160
  686MOL0     H90539   2.662   9.816   0.133 -1.5377 -2.2958 -0.4377
  686MOL0     H90540   2.868   9.507   0.053  0.3750  1.4786  1.1618
  686MOL0     H90541   2.949   9.325  -0.117  1.4732 -0.7190 -0.9907
  686MOL0     H90542   3.168   9.197  -0.243 -2.1931  1.0556 -1.5324
  686MOL0     H90543   3.025   9.099  -0.194  0.7649 -1.5719 -0.5522
  686MOL0     H90544   3.280   8.960  -0.146 -1.3285 -1.1463  1.5303
  686MOL0     H90545   3.112   8.899  -0.178  1.6090 -2.5141  0.5733
  686MOL0     H90546   3.131   8.957  -0.405  0.8943  2.6324 -0.4775
  686MOL0     H90547   3.236   8.829  -0.344 -4.0548 -1.7674  0.8986
  686MOL0     H90548   3.342   9.117  -0.392 -0.0147  0.8325 -2.2909
  686MOL0     H90549   3.432   8.972  -0.375 -0.7710 -1.4120  2.3696
  686MOL0     H90550   3.364   8.976  -0.782 -1.1125 -0.3225  1.3078
  686MOL0     H90551   3.261   9.246   0.183 -0.4065 -2.5543 -2.2048
  686MOL0     H90552   3.198   9.424   0.306 -0.8163  0.8981  0.0707
  687MOL0     O90553   7.208   7.823  10.311  0.2994 -0.4840  0.5530
  687MOL0     C90554   7.201   7.889  10.205 -0.7567  0.8589 -0.6551
  687MOL0     O90555   7.090   7.899  10.123 -0.4446 -0.3994 -0.6943
  687MOL0     C90556   6.987   7.819  10.152  0.6508 -0.4868  0.4435
  687MOL0     C90557   6.874   7.881  10.200  0.7189  0.2716  0.3537
  687MOL0     C90558   6.766   7.800  10.233  1.0496 -0.2476  1.8431
  687MOL0     C90559   6.767   7.664  10.227  1.2880 -0.6762 -1.0248
  687MOL0     O90560   6.664   7.585  10.286 -0.6118  0.5517 -0.5794
  687MOL0     C90561   6.578   7.638  10.386 -0.5431 -0.5841 -0.4656
  687MOL0     C90562   6.472   7.530  10.436 -1.0721 -0.5454 -0.5454
  687MOL0     C90563   6.531   7.419  10.527  0.7659  0.2358 -0.6707
  687MOL0     C90564   6.412   7.340  10.596 -0.3628  0.4953  0.6132
  687MOL0     C90565   6.455   7.246  10.710 -0.1095 -0.4096 -0.5117
  687MOL0     C90566   6.583   7.176  10.695  0.0940 -0.3751  0.2382
  687MOL0     C90567   6.590   7.085  10.571  0.4285 -1.0129  0.4426
  687MOL0     C90568   6.723   7.024  10.546 -0.3404 -0.0528  0.1913
  687MOL0     N90569   6.836   7.118  10.544  0.8131  0.6329  0.5915
  687MOL0     C90570   6.871   7.176  10.426 -0.7187 -0.9069  0.9435
  687MOL0     C90571   7.000   7.213  10.454  0.1767  1.1625  0.1112
  687MOL0     C90572   7.096   7.268  10.344  0.1941 -0.5502  0.2934
  687MOL0     C90573   7.235   7.218  10.355 -0.1876  0.5468  0.3824
  687MOL0     C90574   7.266   7.076  10.314 -0.8255  0.8463  0.4360
  687MOL0     C90575   7.166   6.972  10.367  0.4426 -0.0992  0.6824
  687MOL0     O90576   7.185   6.842  10.296 -0.1170  0.1487 -0.4064
  687MOL0     C90577   7.090   6.743  10.299 -0.6633 -0.4883 -0.4011
  687MOL0     C90578   7.108   6.631  10.212 -0.2642 -0.7196  0.5500
  687MOL0     C90579   7.022   6.523  10.207  0.2739  0.0456 -0.0761
  687MOL0     C90580   6.901   6.529  10.278  0.9937  0.1175  0.5828
  687MOL0     C90581   6.805   6.414  10.286 -0.4889 -0.1791  0.5058
  687MOL0     O90582   6.840   6.304  10.219  0.2575  0.2895 -0.0252
  687MOL0     C90583   6.762   6.197  10.235  0.5989  0.2054 -0.4403
  687MOL0     C90584   6.676   6.159  10.136 -0.2381  0.4921 -0.5778
  687MOL0     C90585   6.611   6.031  10.145  0.5689 -0.3788  0.2387
  687MOL0     C90586   6.633   5.953  10.254  0.2666 -0.0777  0.8419
  687MOL0     O90587   6.582   5.827  10.276  0.0339 -1.0351 -0.5410
  687MOL0     C90588   6.453   5.807  10.215 -0.3434 -0.0975  0.2083
  687MOL0     C90589   6.388   5.675  10.278 -0.8500  0.1602 -0.3948
  687MOL0     C90590   6.487   5.565  10.306  0.0583 -0.4733 -0.5823
  687MOL0     C90591   6.402   5.446  10.333  0.2517  0.6919  0.7029
  687MOL0     C90592   6.485   5.354  10.422  0.2443  0.1701 -0.3609
  687MOL0     C90593   6.619   5.302  10.371 -0.7164  1.0714  0.4032
  687MOL0     C90594   6.590   5.159  10.312  0.7822  0.8806  0.3945
  687MOL0     C90595   6.724   5.099  10.284 -0.8303  0.5028  0.6214
  687MOL0    Cl90596   6.836   5.108  10.426  0.1108 -0.0163  0.2008
  687MOL0     C90597   6.712   5.996  10.367  0.5196  0.2838  0.7100
  687MOL0     C90598   6.775   6.118  10.355 -0.2781  0.4833 -0.4934
  687MOL0     O90599   6.701   6.435  10.347 -0.7608 -0.5303 -0.1805
  687MOL0     C90600   6.874   6.646  10.340  0.3397  0.3403  0.0800
  687MOL0     C90601   6.968   6.751  10.358 -0.0816  0.3633  1.4643
  687MOL0     N90602   7.035   7.166  10.581  0.1909  0.1827 -0.3044
  687MOL0     N90603   6.929   7.109  10.639  0.4627  0.0970 -0.1189
  687MOL0     C90604   6.878   7.601  10.172 -0.8138  0.4541  0.6229
  687MOL0     C90605   6.990   7.682  10.135  0.0010 -0.0615 -0.5169
  687MOL0     C90606   7.332   7.951  10.155 -0.6386 -0.0712  0.7906
  687MOL0     C90607   7.344   8.010  10.023 -0.0511 -0.5436  0.0456
  687MOL0     C90608   7.461   8.057   9.966  0.2002 -0.5099  1.2981
  687MOL0     C90609   7.574   8.051  10.038 -0.7298 -0.4071 -0.6681
  687MOL0     O90610   7.695   8.099   9.992  0.0768  0.1335 -0.0995
  687MOL0     C90611   7.706   8.238   9.950  0.6675 -0.0389 -0.6830
  687MOL0     C90612   7.609   8.339  10.028  0.5194 -0.4236 -0.7186
  687MOL0     C90613   7.642   8.343  10.183  0.0461  0.3312  0.8985
  687MOL0     C90614   7.612   8.480  10.248 -0.7723  0.3153 -0.2922
  687MOL0     C90615   7.556   8.453  10.378 -0.1338 -0.5057 -0.5607
  687MOL0     C90616   7.493   8.436  10.475  0.1164 -0.5863 -0.1260
  687MOL0     C90617   7.573   7.983  10.159  0.0333  0.1637 -0.6952
  687MOL0     C90618   7.453   7.927  10.222  0.1521 -0.7855  0.7416
  687MOL0     H90619   6.865   7.989  10.206 -0.0816  0.4513 -2.5128
  687MOL0     H90620   6.674   7.847  10.267 -0.6973 -1.4525 -0.8008
  687MOL0     H90621   6.521   7.723  10.346  1.4637  0.4865 -1.1896
  687MOL0     H90622   6.638   7.667  10.472  1.3763  1.1291 -2.2697
  687MOL0     H90623   6.438   7.491  10.340  2.6998 -1.6769 -1.5818
  687MOL0     H90624   6.392   7.581  10.491  1.8737  2.6760  1.1861
  687MOL0     H90625   6.599   7.457  10.604  0.4848 -1.1770  0.3125
  687MOL0     H90626   6.594   7.350  10.470  1.3611 -0.8318  1.1834
  687MOL0     H90627   6.333   7.410  10.622 -0.7039  1.2968 -2.2054
  687MOL0     H90628   6.372   7.288  10.508  1.4322 -0.0992  0.0790
  687MOL0     H90629   6.373   7.176  10.727  2.1544 -2.7928  1.2625
  687MOL0     H90630   6.454   7.317  10.793  0.3518 -1.0205  0.0208
  687MOL0     H90631   6.597   7.110  10.782  2.4951  0.9808  0.9736
  687MOL0     H90632   6.665   7.247  10.711  2.0022 -2.5424  0.6666
  687MOL0     H90633   6.510   7.011  10.576  1.2350 -2.0482 -0.9707
  687MOL0     H90634   6.562   7.152  10.489 -0.5011 -1.1482  0.6453
  687MOL0     H90635   6.720   6.961  10.456 -0.8759 -0.6601  0.6260
  687MOL0     H90636   6.738   6.954  10.628  0.7559  0.7615  0.7022
  687MOL0     H90637   6.819   7.205  10.335 -0.3415  2.5162  1.6500
  687MOL0     H90638   7.098   7.376  10.360  1.5944 -0.9217  3.5205
  687MOL0     H90639   7.073   7.234  10.243  1.4083  0.6320 -0.4151
  687MOL0     H90640   7.273   7.227  10.457  2.8420  1.7623 -0.7374
  687MOL0     H90641   7.306   7.290  10.312 -1.2218  2.5147  1.8318
  687MOL0     H90642   7.259   7.072  10.205  1.6599 -1.7871  0.2665
  687MOL0     H90643   7.367   7.052  10.348 -2.3210 -0.2838  4.7405
  687MOL0     H90644   7.063   7.004  10.349  1.4888  1.7583 -3.0256
  687MOL0     H90645   7.173   6.972  10.476  0.9916 -1.8813  0.6959
  687MOL0     H90646   7.198   6.646  10.154 -0.8470 -3.5162 -1.2984
  687MOL0     H90647   7.036   6.437  10.142  0.2075 -0.2729  0.3284
  687MOL0     H90648   6.667   6.227  10.051 -0.6600  2.8155  1.2196
  687MOL0     H90649   6.555   5.985  10.065  0.7680 -2.8929  1.4439
  687MOL0     H90650   6.455   5.786  10.108 -2.6250 -2.9960  0.6284
  687MOL0     H90651   6.380   5.888  10.221 -1.6797 -1.3592  1.7204
  687MOL0     H90652   6.309   5.636  10.212  0.1656 -3.1576  0.1387
  687MOL0     H90653   6.343   5.701  10.375 -0.3397  0.2682 -0.1833
  687MOL0     H90654   6.545   5.598  10.392  1.3466 -0.9852 -1.2195
  687MOL0     H90655   6.540   5.548  10.211  0.5777  0.2847 -0.4313
  687MOL0     H90656   6.307   5.465  10.382 -1.4211 -4.7776  0.3278
  687MOL0     H90657   6.376   5.409  10.233 -0.7601  2.1400  0.3982
  687MOL0     H90658   6.420   5.270  10.448 -1.5910  1.9670  1.1582
  687MOL0     H90659   6.498   5.411  10.515  0.3253  1.8697 -1.3814
  687MOL0     H90660   6.683   5.282  10.458  1.3372 -3.1022 -1.7712
  687MOL0     H90661   6.665   5.362  10.292  1.1836 -1.5484 -0.6316
  687MOL0     H90662   6.534   5.092  10.378 -0.1568  0.7749 -0.4792
  687MOL0     H90663   6.534   5.158  10.218 -2.1787 -2.3640  1.9247
  687MOL0     H90664   6.777   5.154  10.206 -0.2066 -0.7299  0.1524
  687MOL0     H90665   6.715   4.995  10.253  1.5880 -0.2350  2.1152
  687MOL0     H90666   6.724   5.938  10.458  0.6912  0.1716  0.6153
  687MOL0     H90667   6.836   6.156  10.436 -1.1489  0.3949  0.2280
  687MOL0     H90668   6.778   6.656  10.392 -1.2192 -0.5565 -2.4363
  687MOL0     H90669   6.926   6.831  10.419 -0.6048  1.3073 -0.0947
  687MOL0     H90670   6.883   7.493  10.171  0.2961  0.3375  4.5319
  687MOL0     H90671   7.076   7.626  10.102 -0.0786 -0.8479  0.5485
  687MOL0     H90672   7.258   8.020   9.958  1.8678 -0.6658 -2.7078
  687MOL0     H90673   7.461   8.084   9.861  1.0631 -2.2954  0.8109
  687MOL0     H90674   7.704   8.253   9.842 -1.1548 -0.5972 -0.7705
  687MOL0     H90675   7.802   8.275   9.986  0.0207  0.5176  0.5439
  687MOL0     H90676   7.631   8.438   9.985 -1.2527 -0.6931 -2.3997
  687MOL0     H90677   7.503   8.316  10.015  0.2492  0.8907 -1.0080
  687MOL0     H90678   7.748   8.316  10.197  0.5520  2.8222  2.6004
  687MOL0     H90679   7.584   8.264  10.230 -1.5521  0.3951 -0.8717
  687MOL0     H90680   7.699   8.546  10.256 -1.9582  1.8828 -0.0260
  687MOL0     H90681   7.539   8.534  10.189  0.0196  3.0997  1.1032
  687MOL0     H90682   7.419   8.409  10.548  0.0100  0.6553  0.2528
  687MOL0     H90683   7.667   7.980  10.214  0.2966 -0.0959 -1.1557
  687MOL0     H90684   7.461   7.877  10.318  0.0273  0.6909  1.5457
  688MOL0     O90685   2.234   0.314   2.043 -0.0175 -0.8168  0.4451
  688MOL0     C90686   2.161   0.306   2.138  0.2532  1.5687  0.2531
  688MOL0     O90687   2.168   0.215   2.244 -0.5042 -0.3564  0.1775
  688MOL0     C90688   2.299   0.156   2.263 -0.0436 -1.1171  0.0851
  688MOL0     C90689   2.416   0.218   2.302  0.4803 -0.2703  0.9566
  688MOL0     C90690   2.540   0.165   2.294 -0.0632  0.4102 -0.4696
  688MOL0     C90691   2.557   0.035   2.262 -0.0571  0.4037  0.2775
  688MOL0     O90692   2.682  -0.025   2.272  0.3008 -0.0081  0.3971
  688MOL0     C90693   2.697  -0.157   2.210  0.1544  0.4939  0.7405
  688MOL0     C90694   2.853  -0.192   2.207  0.2593 -0.1087 -0.1181
  688MOL0     C90695   2.914  -0.198   2.344 -0.4394 -0.1527  0.2262
  688MOL0     C90696   3.063  -0.202   2.329  0.3361 -0.2770  0.5267
  688MOL0     C90697   3.133  -0.203   2.464 -0.0610 -0.1060 -0.2473
  688MOL0     C90698   3.288  -0.204   2.436  0.1315  0.0033  0.8695
  688MOL0     C90699   3.362  -0.157   2.557  0.3847 -0.2692 -0.0795
  688MOL0     C90700   3.490  -0.089   2.522  0.2633 -0.6310 -0.0020
  688MOL0     N90701   3.453   0.034   2.455  0.6770  0.0777  0.7055
  688MOL0     C90702   3.415   0.148   2.513  0.5561 -0.2060 -0.1336
  688MOL0     C90703   3.374   0.235   2.417 -0.3121  0.6505  0.0032
  688MOL0     C90704   3.311   0.367   2.427 -0.2439 -0.5402  1.1043
  688MOL0     C90705   3.175   0.357   2.493 -0.3597  1.1185 -0.0972
  688MOL0     C90706   3.069   0.289   2.401  0.4218  0.1139 -0.7313
  688MOL0     C90707   3.049   0.344   2.260 -0.0747 -0.0558  0.5863
  688MOL0     O90708   3.037   0.487   2.260  0.3738 -0.2430 -0.1195
  688MOL0     C90709   2.927   0.546   2.320  1.3396 -0.0559 -0.0884
  688MOL0     C90710   2.937   0.663   2.395 -1.2268 -0.6404 -0.2099
  688MOL0     C90711   2.824   0.727   2.459 -1.2704  0.4663  0.2344
  688MOL0     C90712   2.698   0.669   2.450 -0.2476  0.4598  0.8337
  688MOL0     C90713   2.580   0.736   2.497 -0.1893  0.7680 -0.9455
  688MOL0     O90714   2.594   0.869   2.529 -0.7321 -0.5852 -0.5724
  688MOL0     C90715   2.481   0.920   2.586 -1.0852  0.5221 -0.0406
  688MOL0     C90716   2.404   1.010   2.526  0.0929 -0.2438  0.0483
  688MOL0     C90717   2.279   1.046   2.574  0.1489 -0.4036 -1.0981
  688MOL0     C90718   2.232   0.985   2.695 -0.3816 -0.5193 -0.4538
  688MOL0     O90719   2.119   1.011   2.767  0.1321  0.0424  0.5965
  688MOL0     C90720   2.033   1.125   2.731 -0.4973  0.9085 -0.5395
  688MOL0     C90721   1.882   1.087   2.767 -0.1647 -0.3640 -0.1188
  688MOL0     C90722   1.790   1.206   2.747 -0.0053 -0.1161  0.3495
  688MOL0     C90723   1.636   1.176   2.755  0.5187  0.4581  0.6227
  688MOL0     C90724   1.589   1.190   2.904  0.2176 -0.3291  0.2728
  688MOL0     C90725   1.544   1.332   2.946 -0.1222 -0.6770 -0.6652
  688MOL0     C90726   1.504   1.329   3.103 -1.1422  0.0816 -0.4166
  688MOL0     C90727   1.418   1.449   3.147  0.1315  0.1605  0.2611
  688MOL0    Cl90728   1.466   1.610   3.075  0.3678  0.2527  0.0048
  688MOL0     C90729   2.310   0.903   2.767 -0.6898  0.2188 -0.3464
  688MOL0     C90730   2.436   0.871   2.720  0.6911  0.0168  1.1798
  688MOL0     O90731   2.475   0.675   2.492 -0.1579 -0.0765 -0.4758
  688MOL0     C90732   2.680   0.552   2.368  0.2367 -0.2844  0.3791
  688MOL0     C90733   2.795   0.493   2.313 -0.6503  0.1916  0.1979
  688MOL0     N90734   3.415   0.171   2.299 -1.1846 -0.4061 -0.2069
  688MOL0     N90735   3.450   0.052   2.318  0.2206  0.3559  0.1689
  688MOL0     C90736   2.433  -0.035   2.224 -0.3349 -0.8750 -0.3792
  688MOL0     C90737   2.306   0.024   2.223  0.6442 -1.3614 -0.2314
  688MOL0     C90738   2.033   0.382   2.121  0.7420  0.8614  0.1485
  688MOL0     C90739   1.924   0.365   2.213  1.3789 -0.4113  0.3406
  688MOL0     C90740   1.812   0.450   2.208 -0.2553 -0.3534 -0.6249
  688MOL0     C90741   1.804   0.541   2.109  0.7511 -0.1418 -0.3881
  688MOL0     O90742   1.693   0.620   2.091 -0.3004  0.6265 -0.7512
  688MOL0     C90743   1.602   0.672   2.193 -0.4739 -0.3537  1.3407
  688MOL0     C90744   1.552   0.805   2.118  1.0390 -0.7461  0.8247
  688MOL0     C90745   1.418   0.847   2.185  0.6127 -0.6097 -0.5984
  688MOL0     C90746   1.443   0.902   2.327  0.2147  0.3985 -0.9085
  688MOL0     C90747   1.535   1.016   2.351  0.0426  0.3656  0.9264
  688MOL0     C90748   1.628   1.091   2.368 -0.6620  0.4497 -1.1154
  688MOL0     C90749   1.903   0.561   2.018 -0.3089 -0.4134 -0.5127
  688MOL0     C90750   2.013   0.475   2.020 -0.8218 -0.3619  0.3203
  688MOL0     H90751   2.399   0.312   2.352  1.5674 -0.4581  1.7179
  688MOL0     H90752   2.630   0.219   2.322 -0.8489  1.8344 -0.6263
  688MOL0     H90753   2.660  -0.152   2.107  1.4151 -0.5095  0.2216
  688MOL0     H90754   2.629  -0.230   2.254 -0.0298  1.5162  2.2336
  688MOL0     H90755   2.908  -0.116   2.150 -0.2769  0.4096  0.0427
  688MOL0     H90756   2.873  -0.284   2.152  2.0144  0.0927  0.1079
  688MOL0     H90757   2.876  -0.284   2.399  1.1452 -0.7570  0.4219
  688MOL0     H90758   2.892  -0.118   2.415 -2.3200 -0.2498 -0.1779
  688MOL0     H90759   3.090  -0.285   2.264 -1.1185 -0.6382  0.3440
  688MOL0     H90760   3.089  -0.107   2.283 -0.8808 -0.0867  0.1922
  688MOL0     H90761   3.097  -0.290   2.520 -2.3742  0.4861 -0.7087
  688MOL0     H90762   3.093  -0.114   2.512 -0.3918 -0.5875  0.3914
  688MOL0     H90763   3.317  -0.155   2.343 -0.5601 -1.3570 -0.0940
  688MOL0     H90764   3.305  -0.309   2.409  0.4939  0.5874 -1.3863
  688MOL0     H90765   3.305  -0.080   2.610  0.7610 -0.2734  0.3439
  688MOL0     H90766   3.379  -0.245   2.620  2.0854 -0.4892 -0.8016
  688MOL0     H90767   3.550  -0.151   2.455 -2.2140 -2.1379 -0.9904
  688MOL0     H90768   3.558  -0.060   2.603  1.4051  1.9100 -1.7427
  688MOL0     H90769   3.370   0.169   2.609 -0.7498  1.3832 -1.0570
  688MOL0     H90770   3.289   0.406   2.327  0.9002 -2.3440  0.1054
  688MOL0     H90771   3.376   0.441   2.474  0.3513 -0.0123 -0.4588
  688MOL0     H90772   3.136   0.457   2.516 -3.4738  0.9455 -3.6632
  688MOL0     H90773   3.195   0.297   2.582 -2.4401  0.8614  0.2515
  688MOL0     H90774   3.114   0.193   2.371  2.4374  0.9947 -0.7337
  688MOL0     H90775   2.976   0.287   2.458  0.6095 -1.1338 -0.4289
  688MOL0     H90776   2.976   0.281   2.207 -0.3083 -1.2747  2.2709
  688MOL0     H90777   3.140   0.333   2.200 -0.4927  2.6060 -0.6896
  688MOL0     H90778   3.027   0.722   2.405 -1.9970  0.7290 -0.9944
  688MOL0     H90779   2.845   0.817   2.515  1.4141 -0.9071  1.6075
  688MOL0     H90780   2.436   1.054   2.433  0.0782  2.0955  1.0716
  688MOL0     H90781   2.232   1.113   2.503  2.1104  0.5447 -1.5661
  688MOL0     H90782   2.042   1.134   2.622  6.9626 -1.5222 -0.7310
  688MOL0     H90783   2.077   1.218   2.767  1.3602  1.5623 -4.0500
  688MOL0     H90784   1.867   1.059   2.871  1.5735  2.5426  1.0466
  688MOL0     H90785   1.849   1.005   2.703  0.0252 -0.5066 -0.0344
  688MOL0     H90786   1.817   1.268   2.662  0.2509 -2.1555 -1.1397
  688MOL0     H90787   1.807   1.272   2.833 -2.0809 -0.3303  0.9696
  688MOL0     H90788   1.589   1.245   2.685  2.8859  0.8788 -0.6643
  688MOL0     H90789   1.609   1.075   2.723  0.9922 -0.5876  3.2572
  688MOL0     H90790   1.669   1.151   2.967 -0.1946 -1.6264  0.0249
  688MOL0     H90791   1.511   1.123   2.941 -0.0589  0.7360  1.7530
  688MOL0     H90792   1.453   1.350   2.887  0.7485  1.5394 -1.4183
  688MOL0     H90793   1.608   1.419   2.927  0.7924 -0.5970  2.3512
  688MOL0     H90794   1.462   1.234   3.136  1.3920 -1.1550 -0.5299
  688MOL0     H90795   1.598   1.346   3.156 -1.6880 -3.6099  2.1756
  688MOL0     H90796   1.428   1.457   3.256  1.5560  1.7308  0.0637
  688MOL0     H90797   1.319   1.421   3.108  0.6823 -0.5912 -0.6282
  688MOL0     H90798   2.280   0.860   2.862  3.5518  2.8337  2.5099
  688MOL0     H90799   2.501   0.800   2.771  1.1765 -0.2717  0.1870
  688MOL0     H90800   2.579   0.514   2.358 -1.0014  2.3720  1.7949
  688MOL0     H90801   2.793   0.400   2.256  0.9404 -2.2104  3.7525
  688MOL0     H90802   2.444  -0.142   2.207  1.6545 -0.5257 -1.6744
  688MOL0     H90803   2.221  -0.034   2.189 -0.4754 -0.6707  1.2307
  688MOL0     H90804   1.936   0.307   2.304 -0.2049 -0.8149  0.3291
  688MOL0     H90805   1.731   0.455   2.280  0.7283 -0.4170  0.5163
  688MOL0     H90806   1.651   0.701   2.286  2.7135  0.9462 -0.5761
  688MOL0     H90807   1.522   0.600   2.212 -0.0587 -1.1058  0.3322
  688MOL0     H90808   1.621   0.889   2.109  0.5726 -0.2995  1.3011
  688MOL0     H90809   1.531   0.789   2.012 -2.8026  0.4001  1.2627
  688MOL0     H90810   1.351   0.763   2.206 -0.6906  1.1489  3.3360
  688MOL0     H90811   1.370   0.916   2.116 -0.4149 -1.4534 -0.7485
  688MOL0     H90812   1.338   0.929   2.346  0.4400  1.0849 -0.6188
  688MOL0     H90813   1.468   0.818   2.393 -1.8657 -0.7460 -1.4874
  688MOL0     H90814   1.711   1.153   2.395 -0.0775 -0.7132 -0.1411
  688MOL0     H90815   1.908   0.628   1.933 -0.3904 -2.5158 -2.2645
  688MOL0     H90816   2.091   0.483   1.946 -2.0253 -3.3652 -1.4359
  689MOL0     O90817   6.278   4.432   0.559  0.1383  0.0596 -0.1463
  689MOL0     C90818   6.205   4.370   0.476 -0.6467  0.3354  0.1843
  689MOL0     O90819   6.196   4.403   0.337  0.3185  0.5300  0.8574
  689MOL0     C90820   6.260   4.501   0.264 -0.1544  0.2438  0.2169
  689MOL0     C90821   6.246   4.501   0.126 -0.3250  0.5655  0.0423
  689MOL0     C90822   6.297   4.601   0.042 -0.0344 -0.3347 -0.2876
  689MOL0     C90823   6.368   4.705   0.108 -0.1364  0.6806 -0.1902
  689MOL0     O90824   6.423   4.796   0.017  0.3295 -0.7432  0.4685
  689MOL0     C90825   6.500   4.911   0.066  0.2655 -0.2625 -0.1751
  689MOL0     C90826   6.559   4.982  -0.063 -0.2567  0.7371  0.5215
  689MOL0     C90827   6.680   4.905  -0.111 -0.3922  0.7078  0.0774
  689MOL0     C90828   6.813   4.956  -0.034  0.5608  0.3886 -0.7657
  689MOL0     C90829   6.938   4.906  -0.098 -0.4227 -0.2679 -0.4701
  689MOL0     C90830   7.068   4.950  -0.025 -0.3640  0.7781  0.8642
  689MOL0     C90831   7.096   5.097  -0.016  0.1288 -0.5294  0.9663
  689MOL0     C90832   7.145   5.153  -0.154 -0.2877  0.5649 -1.7827
  689MOL0     N90833   7.045   5.149  -0.264 -0.3561 -0.7116 -0.6899
  689MOL0     C90834   6.923   5.209  -0.257  0.9888  0.0930  0.2704
  689MOL0     C90835   6.874   5.186  -0.386 -0.5095  0.2216  0.1044
  689MOL0     C90836   6.742   5.226  -0.433  0.0786  0.1894 -0.5530
  689MOL0     C90837   6.728   5.350  -0.520  0.9274  0.1816 -0.6556
  689MOL0     C90838   6.834   5.365  -0.627 -1.1764  0.4409 -0.2546
  689MOL0     C90839   6.804   5.476  -0.716  0.3021 -0.7030 -0.3402
  689MOL0     O90840   6.926   5.555  -0.728 -0.2913  1.1511 -0.5750
  689MOL0     C90841   7.035   5.503  -0.802 -0.3499 -0.3353  0.3927
  689MOL0     C90842   7.161   5.558  -0.767  0.3080  0.3285  0.0064
  689MOL0     C90843   7.266   5.535  -0.854  0.0411 -0.0388 -0.6128
  689MOL0     C90844   7.257   5.439  -0.963 -0.1374 -0.0184 -0.0728
  689MOL0     C90845   7.371   5.404  -1.053  0.1307 -0.0046  0.2453
  689MOL0     O90846   7.345   5.312  -1.145 -0.0763  0.2031 -0.3412
  689MOL0     C90847   7.460   5.265  -1.213 -0.1911 -0.2828  0.6761
  689MOL0     C90848   7.559   5.179  -1.161  0.6634 -0.1765  0.5636
  689MOL0     C90849   7.664   5.147  -1.232  0.6746 -0.5693  0.0157
  689MOL0     C90850   7.674   5.170  -1.377 -0.6199  0.0970 -1.4319
  689MOL0     O90851   7.780   5.134  -1.458 -0.4630  0.4271 -0.0761
  689MOL0     C90852   7.907   5.194  -1.421 -0.0275 -0.2265  0.1303
  689MOL0     C90853   8.026   5.121  -1.486 -0.4178 -0.8341 -0.3269
  689MOL0     C90854   7.990   5.032  -1.612 -0.0458  0.1146 -0.0988
  689MOL0     C90855   7.979   5.128  -1.730 -1.0328  0.5959  0.8612
  689MOL0     C90856   7.946   5.054  -1.864  0.0162 -0.7613 -0.1554
  689MOL0     C90857   7.925   5.162  -1.977  0.6190 -0.8516 -0.0028
  689MOL0     C90858   7.851   5.103  -2.094  0.0316  0.6086  1.0438
  689MOL0     C90859   7.951   5.012  -2.170  0.3347 -0.0480  0.9351
  689MOL0    Cl90860   7.978   4.839  -2.139  0.0227  0.2296 -0.2130
  689MOL0     C90861   7.565   5.237  -1.432  0.0868  0.1198 -0.6762
  689MOL0     C90862   7.467   5.295  -1.351  0.3144  0.4528 -1.5487
  689MOL0     O90863   7.479   5.449  -1.029 -0.7299 -0.7197 -0.6418
  689MOL0     C90864   7.136   5.385  -0.985  0.8258  0.6668  0.0154
  689MOL0     C90865   7.028   5.404  -0.901  0.9430  0.5114  0.1915
  689MOL0     N90866   6.963   5.110  -0.465  0.6495  0.2723 -0.6117
  689MOL0     N90867   7.056   5.090  -0.385 -0.1870 -0.0736  0.4744
  689MOL0     C90868   6.383   4.718   0.249  0.4579  0.6600 -0.2254
  689MOL0     C90869   6.328   4.610   0.326  0.2627 -0.0526  0.2289
  689MOL0     C90870   6.108   4.278   0.530  1.4417 -0.4670  0.1521
  689MOL0     C90871   6.103   4.238   0.663 -0.3400 -0.1233  0.8113
  689MOL0     C90872   6.005   4.152   0.710  0.0682 -0.9409 -0.9191
  689MOL0     C90873   5.906   4.109   0.633 -0.3034  0.8481  0.1439
  689MOL0     O90874   5.814   4.015   0.661  0.3521 -1.0598 -0.2050
  689MOL0     C90875   5.788   4.001   0.803 -0.3412 -0.3414  0.1903
  689MOL0     C90876   5.715   4.106   0.872  0.2685  0.3862 -0.5378
  689MOL0     C90877   5.571   4.105   0.812 -0.3826  0.3314  0.5422
  689MOL0     C90878   5.477   4.217   0.865 -0.6662 -0.5813 -0.4448
  689MOL0     C90879   5.455   4.177   1.012  0.3579  0.6241  0.3639
  689MOL0     C90880   5.413   4.156   1.117 -0.5944 -0.2476 -1.0587
  689MOL0     C90881   5.905   4.153   0.499  0.0099  0.8046  0.0101
  689MOL0     C90882   6.003   4.237   0.442  0.0161 -0.9144 -0.4463
  689MOL0     H90883   6.190   4.420   0.080 -0.5627  1.1204 -0.6485
  689MOL0     H90884   6.295   4.600  -0.067 -2.6320  2.2779 -0.3556
  689MOL0     H90885   6.583   4.876   0.128 -1.9461 -0.3402  2.9784
  689MOL0     H90886   6.429   4.976   0.117  1.6526  0.9947  0.2345
  689MOL0     H90887   6.575   5.090  -0.050 -1.9557  1.2403 -1.0827
  689MOL0     H90888   6.490   4.970  -0.146  0.1900 -0.1546  0.2712
  689MOL0     H90889   6.695   4.927  -0.217 -1.0142  0.1068 -0.1391
  689MOL0     H90890   6.662   4.799  -0.092 -1.5161  1.4693  4.3522
  689MOL0     H90891   6.803   5.064  -0.045 -2.2548  0.1586 -1.1445
  689MOL0     H90892   6.807   4.932   0.073  0.8132 -1.8042 -1.1868
  689MOL0     H90893   6.951   4.933  -0.203  1.8693 -2.6280 -0.9072
  689MOL0     H90894   6.941   4.797  -0.100 -0.2725 -0.2624 -0.5835
  689MOL0     H90895   7.157   4.909  -0.074  0.9489  3.7183  0.5671
  689MOL0     H90896   7.056   4.898   0.070  0.6888 -2.8226 -0.7843
  689MOL0     H90897   7.009   5.156   0.012  0.9632  0.5430  1.3497
  689MOL0     H90898   7.163   5.124   0.066  0.0758 -0.5374  1.0127
  689MOL0     H90899   7.241   5.109  -0.183  0.0040  0.1406 -0.2950
  689MOL0     H90900   7.167   5.257  -0.130 -1.6775  0.1812  1.9412
  689MOL0     H90901   6.873   5.270  -0.182  0.9572 -0.2572  0.5355
  689MOL0     H90902   6.672   5.235  -0.349 -3.4737 -2.6624 -2.8826
  689MOL0     H90903   6.689   5.148  -0.489  0.3088  0.9215 -1.8503
  689MOL0     H90904   6.735   5.437  -0.454  1.2910  3.5540 -4.7381
  689MOL0     H90905   6.629   5.345  -0.565  0.6718 -0.2390 -0.0537
  689MOL0     H90906   6.933   5.380  -0.582 -0.8984 -0.0681 -0.6833
  689MOL0     H90907   6.835   5.270  -0.682  0.5537  0.6067 -0.5535
  689MOL0     H90908   6.742   5.543  -0.655 -2.7965 -0.6191 -3.2527
  689MOL0     H90909   6.745   5.462  -0.808  0.1474  0.7062 -0.4749
  689MOL0     H90910   7.171   5.636  -0.692  3.2879 -0.6617  0.7902
  689MOL0     H90911   7.353   5.597  -0.838 -1.8116  2.3197  1.0922
  689MOL0     H90912   7.539   5.138  -1.062 -2.0544 -0.6761 -0.1139
  689MOL0     H90913   7.752   5.102  -1.186  1.6325  0.3427 -0.8849
  689MOL0     H90914   7.933   5.188  -1.315 -1.8822 -1.1162  0.5829
  689MOL0     H90915   7.899   5.301  -1.444 -1.3355 -0.9567 -3.5580
  689MOL0     H90916   8.050   5.048  -1.408 -0.2941  0.2277  0.6446
  689MOL0     H90917   8.098   5.191  -1.529 -0.5935 -1.9093 -2.5348
  689MOL0     H90918   7.905   4.970  -1.586 -0.9525  0.9277 -1.0460
  689MOL0     H90919   8.079   4.970  -1.629  1.6573  3.0586 -3.3951
  689MOL0     H90920   7.895   5.196  -1.715 -1.5568 -0.0822  1.0154
  689MOL0     H90921   8.076   5.179  -1.737 -0.7231  0.0343  1.0348
  689MOL0     H90922   7.850   5.001  -1.860 -1.4073  1.6762  0.6265
  689MOL0     H90923   8.026   4.981  -1.879  0.3016 -0.4888  0.0179
  689MOL0     H90924   8.021   5.208  -2.003  0.4184 -1.4782 -1.9683
  689MOL0     H90925   7.861   5.243  -1.939 -3.1505 -2.1123 -2.9355
  689MOL0     H90926   7.764   5.042  -2.070 -0.6983  0.1885 -2.1525
  689MOL0     H90927   7.832   5.190  -2.158  0.5833  0.2810  0.4182
  689MOL0     H90928   8.048   5.062  -2.175  0.3749 -0.2218 -0.3699
  689MOL0     H90929   7.925   5.024  -2.275  1.9508 -0.2234  0.4939
  689MOL0     H90930   7.573   5.247  -1.540  2.3251  0.6377 -0.5091
  689MOL0     H90931   7.393   5.361  -1.395 -3.4970 -3.4459 -1.7296
  689MOL0     H90932   7.112   5.319  -1.068 -2.5297  1.6524  0.0335
  689MOL0     H90933   6.929   5.361  -0.913  2.1921 -2.5484 -0.0453
  689MOL0     H90934   6.430   4.803   0.296 -0.8889  0.1256  2.2524
  689MOL0     H90935   6.328   4.608   0.435  1.7768 -1.5399  0.2406
  689MOL0     H90936   6.176   4.280   0.731 -2.1348  0.3763  2.5107
  689MOL0     H90937   6.010   4.122   0.814 -0.8599 -0.5984 -0.7655
  689MOL0     H90938   5.880   3.962   0.847 -2.1239 -3.0627  1.8364
  689MOL0     H90939   5.722   3.913   0.802 -0.4839 -0.2722 -2.1015
  689MOL0     H90940   5.708   4.080   0.978 -0.0707  2.0799 -0.1034
  689MOL0     H90941   5.760   4.206   0.871  2.7758 -0.6756  0.6606
  689MOL0     H90942   5.524   4.006   0.821 -1.1401  0.6138 -0.1412
  689MOL0     H90943   5.572   4.120   0.704 -2.2839  1.0932  0.5801
  689MOL0     H90944   5.538   4.308   0.869  0.7461 -1.4946  0.0019
  689MOL0     H90945   5.387   4.237   0.807 -1.0289  1.4747  0.7318
  689MOL0     H90946   5.376   4.138   1.216  2.5055  2.3021  0.7620
  689MOL0     H90947   5.829   4.136   0.424  2.3971  2.5384 -3.0383
  689MOL0     H90948   5.999   4.263   0.337 -1.3040  2.2277  0.2695
  690MOL0     O90949   7.830   6.484   5.321  0.6968  0.0595 -0.4907
  690MOL0     C90950   7.858   6.381   5.264 -0.1995 -0.2465  1.0626
  690MOL0     O90951   7.922   6.273   5.319  0.0082  0.5027 -0.6868
  690MOL0     C90952   7.959   6.278   5.450 -0.5822  0.5930 -0.1768
  690MOL0     C90953   7.859   6.293   5.544 -0.1710  0.4261 -0.7433
  690MOL0     C90954   7.890   6.300   5.675 -0.3071  0.1759 -0.5043
  690MOL0     C90955   8.022   6.311   5.715 -0.3041 -0.0046  0.6677
  690MOL0     O90956   8.055   6.336   5.851 -0.3456 -0.1468  0.3620
  690MOL0     C90957   7.992   6.451   5.907 -0.8454  0.3513  1.3659
  690MOL0     C90958   8.053   6.500   6.030 -0.1434 -0.5793  0.5280
  690MOL0     C90959   8.032   6.399   6.149 -0.2955  0.0107 -0.2458
  690MOL0     C90960   7.927   6.285   6.138  0.1959  0.5269 -0.4699
  690MOL0     C90961   7.957   6.178   6.249 -0.0122  0.1572 -0.5818
  690MOL0     C90962   7.861   6.056   6.243 -0.6111 -0.4185  0.8278
  690MOL0     C90963   7.817   6.011   6.385  0.7362 -1.0562 -0.7901
  690MOL0     C90964   7.927   5.955   6.466 -0.3022  0.1651 -1.2316
  690MOL0     N90965   7.876   5.924   6.602 -0.0539 -0.1146  0.0635
  690MOL0     C90966   7.823   5.998   6.700 -0.2640  0.5972 -0.3320
  690MOL0     C90967   7.756   5.920   6.785  1.0663  0.3556 -0.3260
  690MOL0     C90968   7.686   5.955   6.912 -0.3957 -0.1937 -0.2845
  690MOL0     C90969   7.558   5.875   6.933  1.0781 -0.3731  0.5156
  690MOL0     C90970   7.448   5.928   6.850  1.0213  0.1624  0.2885
  690MOL0     C90971   7.442   5.881   6.707  0.1562 -0.4607  0.2365
  690MOL0     O90972   7.332   5.931   6.631  0.3648 -0.4562  0.2271
  690MOL0     C90973   7.296   5.882   6.507 -0.0088  0.0570 -0.3416
  690MOL0     C90974   7.376   5.817   6.427 -0.6571  0.0423 -0.1246
  690MOL0     C90975   7.330   5.743   6.318 -0.0582  0.0111 -0.3843
  690MOL0     C90976   7.190   5.763   6.279  0.6281  0.1794 -0.1734
  690MOL0     C90977   7.137   5.708   6.157 -0.0335  0.0949 -0.0438
  690MOL0     O90978   7.228   5.633   6.080  0.6789 -0.5409  0.1497
  690MOL0     C90979   7.194   5.569   5.961  0.4965 -0.0216  0.4165
  690MOL0     C90980   7.065   5.518   5.914  0.6204 -0.1707 -0.3547
  690MOL0     C90981   7.061   5.435   5.806 -0.0403 -0.2696  0.4384
  690MOL0     C90982   7.175   5.410   5.725  0.4597 -0.1237  1.0897
  690MOL0     O90983   7.189   5.313   5.623  0.4020  0.7340 -0.3045
  690MOL0     C90984   7.086   5.211   5.616  0.1372 -0.5678 -0.1456
  690MOL0     C90985   7.130   5.131   5.499 -0.0887  0.0674  0.2280
  690MOL0     C90986   7.029   5.014   5.485  0.6037  0.3000 -0.1955
  690MOL0     C90987   7.088   4.881   5.432  0.0719  0.7011 -0.2407
  690MOL0     C90988   6.983   4.767   5.454 -1.1055  0.0119  0.7716
  690MOL0     C90989   7.026   4.631   5.402  0.3152 -0.5732 -0.2266
  690MOL0     C90990   7.161   4.579   5.458 -0.0836 -0.3602 -0.7804
  690MOL0     C90991   7.163   4.570   5.609 -0.5877  0.8531 -0.8078
  690MOL0    Cl90992   7.322   4.506   5.653  0.1909 -0.2311 -0.5328
  690MOL0     C90993   7.296   5.472   5.767 -0.0809 -0.4884  1.4388
  690MOL0     C90994   7.310   5.534   5.890 -0.4895  0.4871 -0.9594
  690MOL0     O90995   7.018   5.725   6.119 -0.1133 -0.0874  0.6776
  690MOL0     C90996   7.100   5.821   6.366 -0.5963 -0.0635 -1.1022
  690MOL0     C90997   7.157   5.876   6.480  0.1825 -0.1231  0.1203
  690MOL0     N90998   7.755   5.795   6.730 -0.0407 -0.2356  0.5828
  690MOL0     N90999   7.840   5.797   6.640 -0.8918  0.4948  0.2914
  690MOL0     C91000   8.122   6.281   5.622  0.7111 -0.2912 -1.1496
  690MOL0     C91001   8.092   6.259   5.485 -0.1972 -0.6104 -0.3074
  690MOL0     C91002   7.814   6.353   5.118  1.4686  0.2897 -0.4021
  690MOL0     C91003   7.705   6.441   5.080  0.5619 -0.1889  0.9605
  690MOL0     C91004   7.660   6.454   4.941 -0.5291  0.0293 -1.0013
  690MOL0     C91005   7.716   6.350   4.848 -0.1204  0.7057 -0.8173
  690MOL0     O91006   7.664   6.322   4.728  0.2072 -0.6888  0.1956
  690MOL0     C91007   7.544   6.386   4.683 -0.7198 -0.8389 -0.2668
  690MOL0     C91008   7.428   6.284   4.727  0.3730 -0.6553  0.8586
  690MOL0     C91009   7.461   6.154   4.655  1.2645  0.4632 -0.1737
  690MOL0     C91010   7.398   6.146   4.516  0.1607 -0.2806  0.4609
  690MOL0     C91011   7.453   6.038   4.447 -0.8400  0.1382 -0.2933
  690MOL0     C91012   7.519   5.944   4.408  0.1867  0.2509  0.4276
  690MOL0     C91013   7.821   6.262   4.889 -0.0062  0.3761 -0.4465
  690MOL0     C91014   7.869   6.269   5.021 -0.1941  0.3611 -0.2048
  690MOL0     H91015   7.756   6.296   5.510 -0.1124  1.4200 -0.8799
  690MOL0     H91016   7.814   6.319   5.751 -1.7823 -0.7745 -1.6887
  690MOL0     H91017   7.887   6.427   5.922 -0.3173 -4.2871 -0.7429
  690MOL0     H91018   7.995   6.525   5.826 -2.1926 -1.4618 -0.4458
  690MOL0     H91019   8.014   6.600   6.050  3.6438  2.0785 -3.5461
  690MOL0     H91020   8.158   6.526   6.015  0.5536 -2.7451  1.2877
  690MOL0     H91021   8.018   6.453   6.244 -4.1001 -0.0714 -0.6150
  690MOL0     H91022   8.127   6.347   6.167 -0.7067 -0.0529  2.0700
  690MOL0     H91023   7.829   6.332   6.153  0.7193  1.3325  0.5100
  690MOL0     H91024   7.926   6.223   6.048 -0.5862 -0.1388 -0.0203
  690MOL0     H91025   7.925   6.217   6.346  1.8903 -3.1345  1.6129
  690MOL0     H91026   8.064   6.155   6.253  0.8640  3.8046  0.9290
  690MOL0     H91027   7.899   5.980   6.174 -1.7217  2.8818 -3.8710
  690MOL0     H91028   7.765   6.087   6.202 -1.4562 -1.0969  2.1947
  690MOL0     H91029   7.769   6.099   6.427  1.7454 -0.5339 -0.6968
  690MOL0     H91030   7.744   5.935   6.355  1.6736 -0.3270 -5.6693
  690MOL0     H91031   8.009   6.027   6.468 -0.4639  0.3568  0.5348
  690MOL0     H91032   7.962   5.862   6.422  1.2738 -0.7026  1.6075
  690MOL0     H91033   7.829   6.105   6.717  0.7677  0.5319 -0.2302
  690MOL0     H91034   7.676   6.064   6.915 -1.1241 -0.2788  2.1500
  690MOL0     H91035   7.757   5.937   6.992 -3.5163 -2.0201  2.3360
  690MOL0     H91036   7.535   5.879   7.040  0.1294 -0.0521  0.3027
  690MOL0     H91037   7.569   5.767   6.917 -2.7323 -0.9934  1.2600
  690MOL0     H91038   7.356   5.889   6.894  2.4003 -0.7883  2.5388
  690MOL0     H91039   7.441   6.037   6.844  4.0619  0.5408  1.4799
  690MOL0     H91040   7.422   5.775   6.721 -1.3377  0.2212  5.4671
  690MOL0     H91041   7.532   5.895   6.647 -1.2792 -1.0619 -2.1913
  690MOL0     H91042   7.479   5.804   6.459 -0.3781 -0.0012 -1.0023
  690MOL0     H91043   7.402   5.682   6.265  2.4319  2.9145 -0.5799
  690MOL0     H91044   6.973   5.530   5.971  1.4388 -0.8489  1.1497
  690MOL0     H91045   6.969   5.383   5.783  0.9836 -2.0544  0.1549
  690MOL0     H91046   6.994   5.262   5.587 -0.9242  0.3104  4.0954
  690MOL0     H91047   7.081   5.157   5.711  2.3574 -1.0497 -0.2298
  690MOL0     H91048   7.228   5.086   5.519 -0.1067 -0.1438 -0.1420
  690MOL0     H91049   7.136   5.185   5.405  0.3596 -0.4342 -0.0378
  690MOL0     H91050   6.945   5.044   5.422 -2.0845 -3.3350  1.3037
  690MOL0     H91051   6.987   4.988   5.583  2.2514  0.5202  0.6074
  690MOL0     H91052   7.117   4.889   5.327  0.2767 -1.2825 -0.3872
  690MOL0     H91053   7.178   4.846   5.484  0.2232  0.3459 -0.7281
  690MOL0     H91054   6.887   4.788   5.405 -0.6044 -1.0966 -0.7541
  690MOL0     H91055   6.960   4.762   5.561  1.3156 -1.6305  1.2812
  690MOL0     H91056   7.039   4.652   5.295 -0.3286  2.1338  0.1355
  690MOL0     H91057   6.944   4.560   5.417  0.0685 -0.8616 -2.6099
  690MOL0     H91058   7.175   4.475   5.425 -1.5700 -0.7532 -0.2534
  690MOL0     H91059   7.248   4.637   5.425 -1.6607  1.7934 -1.3311
  690MOL0     H91060   7.095   4.490   5.639  0.0698 -0.4382 -2.5407
  690MOL0     H91061   7.135   4.666   5.652  1.2819  1.9876 -1.9531
  690MOL0     H91062   7.386   5.463   5.708 -1.0137 -1.0021  0.0351
  690MOL0     H91063   7.404   5.583   5.911  0.5771 -1.7881 -0.0167
  690MOL0     H91064   6.994   5.833   6.344 -0.7887 -2.6656 -1.8884
  690MOL0     H91065   7.091   5.931   6.547 -2.8544 -2.4578 -0.7276
  690MOL0     H91066   8.216   6.257   5.671 -1.4574  0.2084  3.8565
  690MOL0     H91067   8.175   6.236   5.418 -1.5446 -1.6376 -1.6842
  690MOL0     H91068   7.649   6.503   5.149  1.0711  1.0598  0.2823
  690MOL0     H91069   7.579   6.519   4.909 -0.6579 -0.0431 -0.8243
  690MOL0     H91070   7.543   6.412   4.577 -0.1066  1.9512  0.3367
  690MOL0     H91071   7.530   6.490   4.713  1.5759 -0.5317 -0.0904
  690MOL0     H91072   7.420   6.276   4.836  0.8845 -0.6996  0.8937
  690MOL0     H91073   7.333   6.322   4.688 -0.0921  2.2287  4.3421
  690MOL0     H91074   7.422   6.075   4.720  2.3971  0.3489  0.4085
  690MOL0     H91075   7.567   6.132   4.674  2.0599  4.1965  0.5044
  690MOL0     H91076   7.290   6.131   4.518  0.2454 -1.1216 -0.6820
  690MOL0     H91077   7.416   6.229   4.448 -1.4162  0.0005  0.3590
  690MOL0     H91078   7.568   5.850   4.393 -1.2696 -1.1620  3.6672
  690MOL0     H91079   7.862   6.203   4.807  0.6837  1.7052 -1.0852
  690MOL0     H91080   7.944   6.199   5.055 -0.6260 -0.4386 -0.8496
  691MOL0     O91081   9.641   3.972   1.903  0.1158 -0.2412  0.0298
  691MOL0     C91082   9.705   4.058   1.843 -0.5813  0.0732  0.7150
  691MOL0     O91083   9.650   4.156   1.778 -0.3291  0.0259 -0.6990
  691MOL0     C91084   9.514   4.155   1.770 -0.2160  0.0696  0.5792
  691MOL0     C91085   9.453   4.273   1.777  0.1257 -0.6976 -0.0357
  691MOL0     C91086   9.313   4.278   1.767  0.3028 -0.9407  1.1093
  691MOL0     C91087   9.229   4.171   1.740 -0.4877 -0.8525 -0.3413
  691MOL0     O91088   9.103   4.206   1.745  0.6834  0.6841  0.2930
  691MOL0     C91089   8.998   4.103   1.740  0.0375 -1.3067 -0.4499
  691MOL0     C91090   8.864   4.168   1.712 -0.2277 -0.3437 -0.1792
  691MOL0     C91091   8.824   4.282   1.805 -0.3061  0.1281 -0.0512
  691MOL0     C91092   8.818   4.250   1.957  1.0293  0.3821  0.1893
  691MOL0     C91093   8.702   4.318   2.026 -0.2153  0.3331  0.4191
  691MOL0     C91094   8.739   4.360   2.163  0.1459 -0.2340 -0.9732
  691MOL0     C91095   8.835   4.484   2.162  0.0533 -0.5885 -0.5858
  691MOL0     C91096   8.817   4.582   2.279 -0.4709  0.2722  0.3956
  691MOL0     N91097   8.933   4.674   2.278 -0.1804 -0.3008  0.0672
  691MOL0     C91098   9.032   4.680   2.371  0.1705 -0.2324 -0.3898
  691MOL0     C91099   9.086   4.803   2.342 -0.3859  0.3173 -0.7014
  691MOL0     C91100   9.197   4.861   2.421  0.0374  0.1817 -0.3963
  691MOL0     C91101   9.334   4.824   2.366 -0.6330 -0.1163 -0.4522
  691MOL0     C91102   9.449   4.870   2.457  0.0632 -0.0066  0.1220
  691MOL0     C91103   9.584   4.817   2.411 -0.6981 -1.1548 -0.2724
  691MOL0     O91104   9.671   4.845   2.518  0.1746  0.1554 -0.0975
  691MOL0     C91105   9.791   4.785   2.520  0.2806 -0.1515  0.0728
  691MOL0     C91106   9.846   4.778   2.651 -0.0934  0.9449 -1.0570
  691MOL0     C91107   9.978   4.744   2.665  0.2202 -0.1880  0.0471
  691MOL0     C91108  10.048   4.689   2.559  0.0606 -0.1123 -0.0283
  691MOL0     C91109  10.189   4.655   2.582 -0.0309  0.6576 -0.6384
  691MOL0     O91110  10.252   4.567   2.494 -0.6771  0.2108 -0.0075
  691MOL0     C91111  10.388   4.537   2.501  0.1530  0.2340 -0.4435
  691MOL0     C91112  10.476   4.604   2.414 -0.3006 -0.8315  0.2513
  691MOL0     C91113  10.614   4.602   2.427 -0.1097  0.7519  0.2271
  691MOL0     C91114  10.675   4.526   2.532  0.7165 -0.3458 -0.4457
  691MOL0     O91115  10.804   4.522   2.535  1.0496 -0.5443  0.3397
  691MOL0     C91116  10.873   4.524   2.661 -0.1341 -0.3596 -0.1313
  691MOL0     C91117  11.029   4.547   2.636 -0.0929  0.6395  0.8556
  691MOL0     C91118  11.105   4.487   2.761  0.5770  0.8705 -0.3132
  691MOL0     C91119  11.255   4.461   2.733  0.8329 -0.8179 -0.5569
  691MOL0     C91120  11.333   4.423   2.859 -0.3810 -1.0479  0.6788
  691MOL0     C91121  11.408   4.545   2.928  0.5451  0.4676 -0.8146
  691MOL0     C91122  11.417   4.546   3.079  0.5240 -0.3785  0.2529
  691MOL0     C91123  11.369   4.415   3.155 -1.4233 -1.5341 -0.8402
  691MOL0    Cl91124  11.482   4.288   3.111 -0.2508 -0.1032  0.2167
  691MOL0     C91125  10.592   4.467   2.623 -0.5481  0.9286 -0.0757
  691MOL0     C91126  10.447   4.472   2.609 -0.8646  0.9806 -0.1330
  691MOL0     O91127  10.239   4.695   2.684 -0.4793  0.3859 -0.0558
  691MOL0     C91128   9.997   4.685   2.429  0.5750 -0.8029 -1.2708
  691MOL0     C91129   9.866   4.736   2.410 -0.2295  0.7972 -0.4742
  691MOL0     N91130   9.029   4.854   2.221  0.0517 -0.1101 -0.3831
  691MOL0     N91131   8.938   4.774   2.190 -0.6223  0.7462  0.1087
  691MOL0     C91132   9.303   4.056   1.720  1.2466 -0.5588  0.2091
  691MOL0     C91133   9.440   4.048   1.728  0.8765 -0.6183 -0.2305
  691MOL0     C91134   9.847   4.037   1.822  0.5651  1.2311 -0.1461
  691MOL0     C91135   9.901   4.090   1.706  0.3994  0.5861  1.2318
  691MOL0     C91136  10.045   4.076   1.680 -0.0533 -0.6546  0.6639
  691MOL0     C91137  10.130   4.007   1.768  0.4239 -0.1838 -0.1771
  691MOL0     O91138  10.260   3.971   1.744 -0.7469  0.7568  0.1353
  691MOL0     C91139  10.314   4.026   1.628  0.5432  0.3446  0.3533
  691MOL0     C91140  10.465   3.983   1.609 -0.1649 -0.4994 -0.1123
  691MOL0     C91141  10.560   4.043   1.710 -0.4143  0.7431  0.1728
  691MOL0     C91142  10.556   4.195   1.705 -1.1373  0.1111 -0.6242
  691MOL0     C91143  10.477   4.232   1.822  0.2657 -1.2272  0.1122
  691MOL0     C91144  10.430   4.284   1.919 -0.2151  0.4078 -0.3688
  691MOL0     C91145  10.062   3.938   1.864 -0.1382  0.1470 -0.1964
  691MOL0     C91146   9.931   3.963   1.901 -0.8341 -0.1116  0.2024
  691MOL0     H91147   9.505   4.368   1.785  1.2642 -1.1846 -1.2940
  691MOL0     H91148   9.259   4.368   1.793  1.2944 -0.4840  1.6514
  691MOL0     H91149   8.994   4.068   1.843  2.2106 -2.0285 -0.5578
  691MOL0     H91150   9.022   4.022   1.670  0.7625 -0.4937 -1.1816
  691MOL0     H91151   8.789   4.092   1.737 -0.6064 -0.7913 -2.4018
  691MOL0     H91152   8.869   4.212   1.612  1.8764  3.3173  1.3567
  691MOL0     H91153   8.727   4.324   1.776 -1.7619 -0.4794  3.3524
  691MOL0     H91154   8.898   4.360   1.792 -1.4693  1.1429 -0.8137
  691MOL0     H91155   8.794   4.146   1.985  1.8962 -0.0504 -0.6413
  691MOL0     H91156   8.914   4.278   2.000  1.3993 -0.2980 -0.1796
  691MOL0     H91157   8.616   4.251   2.023 -1.2182  1.5663  0.4899
  691MOL0     H91158   8.673   4.402   1.962  1.1440 -1.0314 -2.1446
  691MOL0     H91159   8.779   4.287   2.234  3.1662  1.7899 -0.3969
  691MOL0     H91160   8.647   4.385   2.216  0.3808 -1.3968  0.0346
  691MOL0     H91161   8.940   4.457   2.151  0.6678  0.5229  1.8636
  691MOL0     H91162   8.810   4.551   2.079 -0.0320  0.6490  0.4158
  691MOL0     H91163   8.799   4.528   2.373  0.8364  0.1312  0.5819
  691MOL0     H91164   8.726   4.634   2.248 -0.1964 -0.6880 -2.2326
  691MOL0     H91165   9.054   4.600   2.442 -2.1014 -2.4739 -2.0170
  691MOL0     H91166   9.193   4.823   2.523 -0.2828 -0.4268 -0.6311
  691MOL0     H91167   9.185   4.970   2.426 -1.0148  0.0066  1.8261
  691MOL0     H91168   9.352   4.859   2.264  0.2441  2.8124  0.6142
  691MOL0     H91169   9.322   4.715   2.367 -2.3458 -0.0056  2.7331
  691MOL0     H91170   9.467   4.978   2.454  0.1134  0.1571  3.4864
  691MOL0     H91171   9.417   4.844   2.558  2.0830 -0.1929  0.7577
  691MOL0     H91172   9.611   4.877   2.324  0.2942  1.2261  1.5717
  691MOL0     H91173   9.579   4.709   2.396 -1.9088 -0.8882 -2.1285
  691MOL0     H91174   9.788   4.801   2.740  1.4843 -1.1094  0.6191
  691MOL0     H91175  10.026   4.751   2.762  3.1103 -1.2418 -1.1633
  691MOL0     H91176  10.421   4.659   2.338 -3.4592 -1.5977  1.8024
  691MOL0     H91177  10.685   4.647   2.359  1.1235 -2.3609 -0.7138
  691MOL0     H91178  10.862   4.430   2.716  1.5825 -0.2142  0.5140
  691MOL0     H91179  10.834   4.595   2.734 -2.4504 -2.1542  0.5250
  691MOL0     H91180  11.050   4.654   2.629 -1.6989  1.4220  4.9393
  691MOL0     H91181  11.065   4.500   2.544  1.5098  1.5131  1.0020
  691MOL0     H91182  11.056   4.396   2.797  1.4658  0.1374 -0.9053
  691MOL0     H91183  11.100   4.562   2.841 -2.8111  1.4299 -0.9291
  691MOL0     H91184  11.283   4.375   2.672  4.7124 -1.2489  1.5282
  691MOL0     H91185  11.294   4.554   2.691  2.3058 -1.4641 -0.6479
  691MOL0     H91186  11.410   4.348   2.838  0.2167 -0.4596  0.7273
  691MOL0     H91187  11.265   4.376   2.930 -0.2817 -0.3796  1.2304
  691MOL0     H91188  11.364   4.640   2.899  0.9640  0.9429  0.0636
  691MOL0     H91189  11.508   4.556   2.885 -0.2592 -0.0653 -2.9808
  691MOL0     H91190  11.518   4.561   3.118 -0.6513  1.5214  2.7926
  691MOL0     H91191  11.354   4.628   3.113  1.0785  0.9445 -1.7027
  691MOL0     H91192  11.262   4.399   3.141 -2.1232 -0.0349  1.9047
  691MOL0     H91193  11.373   4.429   3.264  0.9901  1.8426 -1.2190
  691MOL0     H91194  10.624   4.410   2.710  0.6512  0.2106 -0.9573
  691MOL0     H91195  10.383   4.433   2.688  3.3408  1.8660  4.2487
  691MOL0     H91196  10.059   4.649   2.348  0.2105 -5.3524  0.1633
  691MOL0     H91197   9.836   4.730   2.306  1.3442  0.3886 -0.9374
  691MOL0     H91198   9.247   3.966   1.700 -2.0526  1.1454  1.0541
  691MOL0     H91199   9.487   3.951   1.726  3.3375  0.3864  2.3136
  691MOL0     H91200   9.851   4.148   1.630  4.2017 -1.1279 -3.0839
  691MOL0     H91201  10.096   4.113   1.592  0.2053 -0.3121  0.9512
  691MOL0     H91202  10.305   4.135   1.628  1.8695  0.4694  0.0531
  691MOL0     H91203  10.261   3.981   1.543  3.9109 -1.9620 -0.7431
  691MOL0     H91204  10.462   3.874   1.620 -1.2193 -0.3119  2.0738
  691MOL0     H91205  10.506   3.999   1.509 -3.8584  0.9967 -1.5517
  691MOL0     H91206  10.656   4.002   1.678  0.0668  0.5181  1.8442
  691MOL0     H91207  10.541   3.996   1.807  4.3441 -0.2632  0.8639
  691MOL0     H91208  10.661   4.216   1.725 -1.4919  1.2950  0.1138
  691MOL0     H91209  10.525   4.237   1.608 -0.4457  1.9079 -0.1094
  691MOL0     H91210  10.393   4.313   2.015  0.8765 -1.6099  0.7206
  691MOL0     H91211  10.108   3.853   1.915 -1.1945 -0.1344  0.3232
  691MOL0     H91212   9.892   3.910   1.987 -1.6870 -0.8114 -0.6033
  692MOL0     O91213   4.928   0.451   9.685 -0.4674  0.3426 -0.2405
  692MOL0     C91214   4.919   0.567   9.712  0.4350  0.9334 -0.1170
  692MOL0     O91215   5.007   0.631   9.794  0.0520  0.1276 -0.1314
  692MOL0     C91216   5.116   0.564   9.844 -0.0971  0.6022  0.6178
  692MOL0     C91217   5.132   0.547   9.984 -0.5033 -0.9147 -0.7904
  692MOL0     C91218   5.245   0.491  10.041 -0.1487  0.2233 -1.1336
  692MOL0     C91219   5.347   0.445   9.950 -0.5393  0.0721 -0.5943
  692MOL0     O91220   5.465   0.378   9.992 -0.5574  0.2290 -0.0349
  692MOL0     C91221   5.443   0.306  10.113 -0.1569  0.4150 -0.8858
  692MOL0     C91222   5.536   0.187  10.134  0.0781 -0.1833  0.1473
  692MOL0     C91223   5.504   0.082  10.028  1.0391  0.5559 -0.4003
  692MOL0     C91224   5.388  -0.007  10.070  0.1230  0.0793 -0.7010
  692MOL0     C91225   5.381  -0.128   9.973  0.5394 -0.6171  0.0370
  692MOL0     C91226   5.291  -0.242  10.010 -0.3678  0.1040 -0.9916
  692MOL0     C91227   5.309  -0.360   9.914 -0.4617  0.1127  0.6043
  692MOL0     C91228   5.206  -0.470   9.940 -0.1963 -1.1380 -0.1908
  692MOL0     N91229   5.208  -0.582   9.851 -0.8215 -0.8426 -0.0873
  692MOL0     C91230   5.291  -0.693   9.865 -0.6499 -1.2599  0.6020
  692MOL0     C91231   5.258  -0.784   9.766 -0.6621  0.1750  0.2912
  692MOL0     C91232   5.331  -0.916   9.732 -0.8736 -1.0503 -0.4015
  692MOL0     C91233   5.385  -1.008   9.844  0.3329 -0.8897 -0.3996
  692MOL0     C91234   5.536  -0.975   9.856 -0.1450  0.1845  0.5248
  692MOL0     C91235   5.614  -1.078   9.939  0.6028 -0.6928 -0.5631
  692MOL0     O91236   5.600  -1.210   9.900  0.3852  0.6418 -0.5580
  692MOL0     C91237   5.713  -1.269   9.849  1.0557 -0.8937 -0.3014
  692MOL0     C91238   5.771  -1.219   9.730  0.3998  0.0860 -0.5239
  692MOL0     C91239   5.885  -1.285   9.675 -0.1462  0.3304  0.0906
  692MOL0     C91240   5.946  -1.400   9.742 -0.1779 -0.5230  0.7409
  692MOL0     C91241   6.052  -1.476   9.690 -0.3560  0.4106  1.6297
  692MOL0     O91242   6.066  -1.605   9.732 -0.6889 -0.5440 -0.2628
  692MOL0     C91243   6.170  -1.677   9.682 -0.2920 -0.3447  0.2611
  692MOL0     C91244   6.166  -1.717   9.543 -0.4801  0.2504 -0.8570
  692MOL0     C91245   6.276  -1.780   9.487  0.7726  2.3242  0.4522
  692MOL0     C91246   6.393  -1.791   9.560  0.3061 -0.1829 -0.6069
  692MOL0     O91247   6.498  -1.839   9.501 -0.2652  0.4108  0.2509
  692MOL0     C91248   6.580  -1.734   9.452 -0.3583  0.2953 -0.3787
  692MOL0     C91249   6.723  -1.781   9.489  0.1158  0.3995  0.0947
  692MOL0     C91250   6.766  -1.905   9.404  0.1468  0.4780  0.0757
  692MOL0     C91251   6.914  -1.906   9.381  0.3530  1.1307 -1.3545
  692MOL0     C91252   6.947  -2.042   9.329 -0.5081 -0.3928  0.5012
  692MOL0     C91253   6.885  -2.080   9.194 -0.2255  1.1847 -0.0102
  692MOL0     C91254   6.931  -2.221   9.140 -0.3041 -0.4876  0.2715
  692MOL0     C91255   6.869  -2.231   9.001  1.0652  0.4932  0.1292
  692MOL0    Cl91256   6.944  -2.115   8.897 -0.1991 -0.2944 -0.0069
  692MOL0     C91257   6.393  -1.750   9.699  0.3339  0.7640  0.1225
  692MOL0     C91258   6.280  -1.695   9.768 -1.4498 -0.3017 -0.0750
  692MOL0     O91259   6.117  -1.425   9.604 -0.5806 -0.5884  0.0134
  692MOL0     C91260   5.896  -1.438   9.864  0.1911  0.3046 -0.5400
  692MOL0     C91261   5.775  -1.382   9.915  0.3735  0.1278  0.1832
  692MOL0     N91262   5.146  -0.722   9.709 -0.3085 -0.2143 -0.4159
  692MOL0     N91263   5.109  -0.612   9.763 -0.0191  0.1870 -0.0455
  692MOL0     C91264   5.329   0.466   9.814  0.0862 -0.8739  0.3509
  692MOL0     C91265   5.213   0.522   9.765 -0.7915  1.1840  0.3969
  692MOL0     C91266   4.800   0.646   9.666 -0.3848  0.6724  0.6148
  692MOL0     C91267   4.722   0.592   9.559 -0.2198  0.7855  0.5843
  692MOL0     C91268   4.629   0.665   9.490  0.1243  0.2545  0.4309
  692MOL0     C91269   4.590   0.795   9.530 -0.1631 -0.1927 -0.1175
  692MOL0     O91270   4.512   0.892   9.452  0.0352  0.6813 -0.3816
  692MOL0     C91271   4.453   0.836   9.333 -0.1588 -0.3932  0.5471
  692MOL0     C91272   4.375   0.933   9.239 -0.1183 -0.2858  0.2720
  692MOL0     C91273   4.293   1.048   9.319  0.0436 -0.6231  0.0712
  692MOL0     C91274   4.217   1.159   9.239  0.2029 -0.2846  0.0938
  692MOL0     C91275   4.070   1.154   9.270 -0.2637  1.4585  0.9962
  692MOL0     C91276   3.953   1.137   9.284  0.2518 -0.4050 -0.4974
  692MOL0     C91277   4.663   0.856   9.634 -0.1929  0.8859  0.1482
  692MOL0     C91278   4.761   0.780   9.707 -0.5199 -0.6641  1.2430
  692MOL0     H91279   5.044   0.582  10.037 -0.5712 -1.3530 -0.6078
  692MOL0     H91280   5.232   0.478  10.148 -4.9022 -2.8172 -1.7984
  692MOL0     H91281   5.344   0.259  10.115 -0.8241  1.7647  1.5810
  692MOL0     H91282   5.452   0.380  10.193  0.2275  1.7792 -2.1239
  692MOL0     H91283   5.522   0.147  10.235 -4.4808 -0.0541 -0.2415
  692MOL0     H91284   5.636   0.231  10.122  0.1054  1.1021  3.7731
  692MOL0     H91285   5.601   0.037  10.005 -0.1518 -2.5136  0.1011
  692MOL0     H91286   5.474   0.133   9.935 -2.4514  0.4222  0.4929
  692MOL0     H91287   5.399  -0.025  10.177  1.6600  0.1967 -0.8160
  692MOL0     H91288   5.291   0.043  10.064 -0.3624 -0.9956 -2.1979
  692MOL0     H91289   5.482  -0.170   9.966  0.0748 -1.7314 -0.2697
  692MOL0     H91290   5.350  -0.082   9.879  0.4377 -0.4042  0.1750
  692MOL0     H91291   5.188  -0.205  10.001  0.1521  1.6108 -1.1036
  692MOL0     H91292   5.307  -0.273  10.113  0.9639 -4.7673 -2.3807
  692MOL0     H91293   5.292  -0.328   9.810 -0.8935 -0.1161  0.5994
  692MOL0     H91294   5.405  -0.412   9.919 -0.7809 -0.8039 -1.3533
  692MOL0     H91295   5.109  -0.424   9.925 -0.2313 -1.7492 -2.1813
  692MOL0     H91296   5.210  -0.501  10.045  1.1582  0.2031  0.1846
  692MOL0     H91297   5.376  -0.695   9.932  0.1813 -0.6373 -0.4069
  692MOL0     H91298   5.409  -0.900   9.656 -0.7112  1.8571  0.2686
  692MOL0     H91299   5.252  -0.983   9.696  0.2441 -1.3542 -2.5013
  692MOL0     H91300   5.355  -1.112   9.827 -1.4337 -0.1155 -2.3240
  692MOL0     H91301   5.329  -0.976   9.933 -2.2906  0.4282 -2.4191
  692MOL0     H91302   5.578  -0.976   9.755 -2.9638 -0.2643 -0.7683
  692MOL0     H91303   5.564  -0.878   9.897 -0.9504  1.0343 -0.8456
  692MOL0     H91304   5.577  -1.069  10.041 -0.9307  1.7040 -1.2675
  692MOL0     H91305   5.717  -1.040   9.939  0.3987 -0.0139  1.5539
  692MOL0     H91306   5.735  -1.132   9.675  1.2340  0.1249 -1.0238
  692MOL0     H91307   5.921  -1.252   9.578 -0.3721  1.0645  0.2544
  692MOL0     H91308   6.074  -1.700   9.487 -0.8353  0.3320 -0.2552
  692MOL0     H91309   6.287  -1.810   9.384  2.0495  4.5730 -0.1500
  692MOL0     H91310   6.558  -1.645   9.511 -0.8173  1.2574 -1.9464
  692MOL0     H91311   6.566  -1.730   9.343  1.9309 -1.5377 -0.8149
  692MOL0     H91312   6.723  -1.819   9.591 -0.6828 -3.0522 -1.0711
  692MOL0     H91313   6.795  -1.699   9.477  2.0358 -0.8314  2.4118
  692MOL0     H91314   6.731  -1.892   9.301  0.4992 -0.2737 -0.1421
  692MOL0     H91315   6.732  -2.003   9.437  3.9847 -2.2038 -3.0037
  692MOL0     H91316   6.956  -1.836   9.308  4.3068  1.5143  0.9905
  692MOL0     H91317   6.963  -1.888   9.477 -0.0840  0.1078 -0.9317
  692MOL0     H91318   6.922  -2.118   9.404 -0.2716  1.1709  2.2182
  692MOL0     H91319   7.055  -2.048   9.314 -0.4305  3.5736 -1.9051
  692MOL0     H91320   6.924  -1.998   9.133  0.1538  0.2992 -0.9810
  692MOL0     H91321   6.777  -2.082   9.213  0.2887  0.1544  3.3424
  692MOL0     H91322   7.040  -2.222   9.139 -0.1959  1.3319 -2.3121
  692MOL0     H91323   6.899  -2.298   9.211  2.5504 -2.3244 -0.2763
  692MOL0     H91324   6.761  -2.216   9.012  0.7909 -2.0189  1.4063
  692MOL0     H91325   6.867  -2.333   8.962 -4.1019 -0.8307  2.8749
  692MOL0     H91326   6.490  -1.769   9.744  2.1958  0.0013 -3.8105
  692MOL0     H91327   6.279  -1.659   9.870 -2.9702  0.2367 -0.2462
  692MOL0     H91328   5.939  -1.518   9.924  2.4862  1.0163 -1.1387
  692MOL0     H91329   5.724  -1.409  10.007 -3.0101  3.7437 -0.3579
  692MOL0     H91330   5.405   0.440   9.741 -1.0135 -0.3209 -1.0283
  692MOL0     H91331   5.187   0.521   9.660  4.1900 -0.0963 -1.0748
  692MOL0     H91332   4.754   0.499   9.514 -1.2724  1.0257 -0.7410
  692MOL0     H91333   4.565   0.621   9.413 -0.3478  0.1449  0.8796
  692MOL0     H91334   4.394   0.748   9.360 -0.0624 -0.8097 -0.5224
  692MOL0     H91335   4.531   0.789   9.272  0.8659  1.8923 -0.0215
  692MOL0     H91336   4.442   0.996   9.179 -2.5891  1.1958 -1.1205
  692MOL0     H91337   4.316   0.877   9.166  0.3315  0.1299 -0.4214
  692MOL0     H91338   4.366   1.110   9.372 -1.9741  0.5206  1.6603
  692MOL0     H91339   4.228   1.006   9.396  1.9901 -0.7565  1.7461
  692MOL0     H91340   4.246   1.259   9.274 -0.4762 -0.5086  1.3544
  692MOL0     H91341   4.225   1.155   9.130 -2.4839  5.8653 -0.7736
  692MOL0     H91342   3.848   1.119   9.301 -0.3762  0.9728 -2.4725
  692MOL0     H91343   4.621   0.947   9.676 -2.4236  0.4718 -1.0185
  692MOL0     H91344   4.818   0.823   9.789  2.7075 -2.1904 -0.0552
  693MOL0     O91345   2.246   4.159   0.779 -0.6960  0.4118 -0.5545
  693MOL0     C91346   2.322   4.171   0.871 -0.0888 -0.3271 -0.6771
  693MOL0     O91347   2.359   4.286   0.929  0.9924  0.2046  0.1363
  693MOL0     C91348   2.316   4.405   0.884  1.0381 -0.1994 -1.0783
  693MOL0     C91349   2.237   4.499   0.956 -0.0772  0.5127 -0.0753
  693MOL0     C91350   2.207   4.623   0.901  0.1785  0.0995  0.1611
  693MOL0     C91351   2.256   4.662   0.775  0.4218 -0.2006 -0.0789
  693MOL0     O91352   2.239   4.791   0.714 -0.4453  1.0901 -0.2961
  693MOL0     C91353   2.145   4.886   0.765  0.2428  0.0635  0.0191
  693MOL0     C91354   2.128   5.008   0.675 -0.5958 -0.1052 -0.6483
  693MOL0     C91355   2.017   5.100   0.725 -0.0790  0.3104  0.2458
  693MOL0     C91356   2.002   5.217   0.621 -0.0323 -0.8851  0.1775
  693MOL0     C91357   1.887   5.310   0.675 -1.3424  0.2783 -0.0811
  693MOL0     C91358   1.892   5.366   0.823  0.0631  0.6224  0.8642
  693MOL0     C91359   2.013   5.462   0.835 -0.4521 -0.1893  0.1763
  693MOL0     C91360   2.000   5.576   0.920  0.0802 -0.2121  0.4487
  693MOL0     N91361   2.122   5.661   0.940  0.3764  0.5818  0.1475
  693MOL0     C91362   2.167   5.753   0.852 -0.2485 -0.5369 -0.2619
  693MOL0     C91363   2.284   5.810   0.902 -0.4906 -1.1606  0.4502
  693MOL0     C91364   2.368   5.902   0.825 -0.7174  0.8063  0.6914
  693MOL0     C91365   2.352   6.039   0.887  0.4174  0.1869 -0.6657
  693MOL0     C91366   2.414   6.147   0.804 -0.9095 -0.2928  0.2259
  693MOL0     C91367   2.321   6.196   0.692 -0.5570 -0.4307  0.5537
  693MOL0     O91368   2.204   6.254   0.745  0.2597  0.4360  0.8074
  693MOL0     C91369   2.091   6.276   0.668  0.0714  0.5171 -0.2520
  693MOL0     C91370   1.966   6.298   0.732  1.0218 -0.3804 -0.7127
  693MOL0     C91371   1.850   6.323   0.665 -0.4421 -0.9757  1.0973
  693MOL0     C91372   1.855   6.310   0.522 -0.4653  0.0124 -0.2351
  693MOL0     C91373   1.729   6.344   0.446 -1.1868  0.2563  0.0403
  693MOL0     O91374   1.749   6.345   0.315  0.6601 -0.6781 -0.3832
  693MOL0     C91375   1.642   6.385   0.240  0.3364 -0.0662 -0.7161
  693MOL0     C91376   1.644   6.517   0.199 -0.2944  0.6952  0.3084
  693MOL0     C91377   1.558   6.562   0.099  0.7677 -0.6280 -0.1832
  693MOL0     C91378   1.475   6.475   0.032 -0.3149  0.1490  0.7411
  693MOL0     O91379   1.374   6.525  -0.051 -0.2366  0.5734 -0.3042
  693MOL0     C91380   1.351   6.446  -0.173 -0.3854  0.1669 -0.0379
  693MOL0     C91381   1.213   6.408  -0.173  0.5352  0.5813  0.1478
  693MOL0     C91382   1.167   6.353  -0.310  0.2176  0.1164 -0.5882
  693MOL0     C91383   1.027   6.303  -0.317  0.5094  0.7154  0.3245
  693MOL0     C91384   0.979   6.254  -0.456 -0.2355  0.2990  0.5251
  693MOL0     C91385   0.968   6.365  -0.549  0.0485 -0.1802  0.3595
  693MOL0     C91386   0.939   6.313  -0.692 -0.4785  0.1467 -0.8071
  693MOL0     C91387   0.912   6.429  -0.791 -0.2065  0.6457 -0.6173
  693MOL0    Cl91388   0.896   6.363  -0.957 -0.1029 -0.4822  0.0205
  693MOL0     C91389   1.482   6.338   0.069  0.5485  0.3655 -0.9382
  693MOL0     C91390   1.573   6.298   0.162 -0.2536 -0.6271  0.3335
  693MOL0     O91391   1.626   6.374   0.507 -0.2878  0.5124 -0.1179
  693MOL0     C91392   1.982   6.282   0.457  0.1795 -0.6122 -0.2585
  693MOL0     C91393   2.095   6.266   0.529  0.3462  0.1539 -0.9759
  693MOL0     N91394   2.306   5.749   1.022  0.1067 -0.1515 -0.7673
  693MOL0     N91395   2.207   5.665   1.050 -1.0832 -0.0622 -0.5005
  693MOL0     C91396   2.336   4.574   0.695  0.5294 -0.0726 -0.4106
  693MOL0     C91397   2.366   4.450   0.753  0.6581 -0.0126  0.3621
  693MOL0     C91398   2.394   4.052   0.915  0.3701  0.1771 -0.0816
  693MOL0     C91399   2.418   3.935   0.841 -0.0820  0.7273 -0.7672
  693MOL0     C91400   2.478   3.819   0.896 -0.1168 -1.0150  0.0692
  693MOL0     C91401   2.532   3.817   1.018  0.1991  0.1779  0.2908
  693MOL0     O91402   2.608   3.702   1.047  0.5049  0.8905  0.2230
  693MOL0     C91403   2.698   3.716   1.162  0.4604 -0.3482  0.0635
  693MOL0     C91404   2.738   3.577   1.199  0.4394 -0.0225  0.1801
  693MOL0     C91405   2.779   3.555   1.349  0.5107 -0.5365  0.3890
  693MOL0     C91406   2.922   3.616   1.361  0.4525  0.4782 -0.2802
  693MOL0     C91407   3.035   3.539   1.293 -0.5991  0.2986  0.3023
  693MOL0     C91408   3.121   3.480   1.244 -0.1062  0.4520 -0.4331
  693MOL0     C91409   2.516   3.934   1.095 -0.7093  0.1593  0.6360
  693MOL0     C91410   2.449   4.045   1.044  0.4442 -0.5205  0.3774
  693MOL0     H91411   2.211   4.465   1.055 -1.1589  1.3122 -0.0656
  693MOL0     H91412   2.164   4.689   0.976  0.1431 -0.1349  0.3492
  693MOL0     H91413   2.174   4.919   0.865 -1.6183 -1.1858  1.0327
  693MOL0     H91414   2.051   4.830   0.773  0.8877 -0.9637  0.7017
  693MOL0     H91415   2.096   4.976   0.575 -1.9393 -0.5894 -0.0877
  693MOL0     H91416   2.224   5.061   0.677 -0.0494 -1.0769 -0.3884
  693MOL0     H91417   2.049   5.147   0.818 -3.2165 -1.0849  2.1861
  693MOL0     H91418   1.920   5.049   0.725 -0.1663  0.3656 -2.1615
  693MOL0     H91419   2.100   5.263   0.607  0.0115 -0.2977  2.1389
  693MOL0     H91420   1.969   5.188   0.521  2.0563 -2.4644 -0.1222
  693MOL0     H91421   1.798   5.257   0.639 -0.1326  0.5152 -3.8371
  693MOL0     H91422   1.896   5.394   0.607  0.8519 -1.3481 -1.9738
  693MOL0     H91423   1.904   5.290   0.901 -1.3924 -1.0693 -0.4724
  693MOL0     H91424   1.795   5.408   0.850 -0.7466 -1.0968  0.8004
  693MOL0     H91425   2.088   5.393   0.876 -1.7734 -0.9332  1.4040
  693MOL0     H91426   2.044   5.498   0.736  0.5304 -0.9938  0.1780
  693MOL0     H91427   1.967   5.558   1.023 -2.1022 -1.2295 -0.3913
  693MOL0     H91428   1.932   5.645   0.870  3.2764  2.8328 -0.1262
  693MOL0     H91429   2.124   5.788   0.759 -0.3209 -1.1027 -0.4450
  693MOL0     H91430   2.337   5.906   0.720 -1.8630 -3.2328  0.7011
  693MOL0     H91431   2.469   5.862   0.837 -1.2383 -0.7011  0.2365
  693MOL0     H91432   2.398   6.034   0.986  0.7846  2.3020 -0.6969
  693MOL0     H91433   2.244   6.055   0.898  0.0093 -2.4077 -0.0984
  693MOL0     H91434   2.440   6.234   0.865 -0.2636  0.5268 -1.1684
  693MOL0     H91435   2.514   6.117   0.772  0.6918  1.0615  3.5435
  693MOL0     H91436   2.291   6.116   0.623  0.5293  1.8312 -2.7791
  693MOL0     H91437   2.376   6.263   0.625  2.8147 -0.7186  2.7911
  693MOL0     H91438   1.954   6.302   0.839  0.5334 -1.4459 -0.7151
  693MOL0     H91439   1.754   6.351   0.708  0.0393  0.0904  1.5106
  693MOL0     H91440   1.707   6.595   0.243  1.9828 -0.7912 -0.1228
  693MOL0     H91441   1.548   6.668   0.079 -1.7991 -1.0133 -1.4479
  693MOL0     H91442   1.431   6.372  -0.179  0.2541  0.6863  1.5470
  693MOL0     H91443   1.375   6.505  -0.262  0.3466 -2.1841 -1.4945
  693MOL0     H91444   1.148   6.492  -0.151 -1.2295 -0.0920 -2.1167
  693MOL0     H91445   1.207   6.339  -0.088  0.1473 -0.4706 -0.7062
  693MOL0     H91446   1.245   6.282  -0.337  0.3603  0.2574 -0.5469
  693MOL0     H91447   1.191   6.431  -0.383  3.0577 -2.3575 -2.5183
  693MOL0     H91448   1.018   6.227  -0.239  0.2555  2.3069  1.9096
  693MOL0     H91449   0.962   6.384  -0.284 -1.6891 -0.8357  0.0534
  693MOL0     H91450   0.880   6.207  -0.456 -0.3227  0.3103 -2.3311
  693MOL0     H91451   1.056   6.188  -0.498  1.0081  2.1348 -0.1826
  693MOL0     H91452   1.055   6.431  -0.551 -0.7929  1.0474  1.7666
  693MOL0     H91453   0.880   6.418  -0.512  0.9418  2.5727 -1.1310
  693MOL0     H91454   1.027   6.256  -0.724  1.8559  3.0895 -0.2058
  693MOL0     H91455   0.853   6.247  -0.697 -1.5838  1.6210 -2.6950
  693MOL0     H91456   0.999   6.494  -0.779  0.6391 -0.7449  1.4770
  693MOL0     H91457   0.820   6.480  -0.761  0.8791  1.8961  0.7462
  693MOL0     H91458   1.409   6.263   0.041  1.4049 -0.6670 -0.4780
  693MOL0     H91459   1.573   6.202   0.212 -3.0897 -0.6941  0.3408
  693MOL0     H91460   1.987   6.263   0.350 -0.2791  0.8540 -0.5619
  693MOL0     H91461   2.178   6.237   0.465 -1.8206 -3.0618 -2.6078
  693MOL0     H91462   2.380   4.608   0.602  0.2163  1.7162  0.0442
  693MOL0     H91463   2.432   4.388   0.693  1.2284 -0.6050  1.5821
  693MOL0     H91464   2.363   3.927   0.748 -2.4410  1.2011  0.5180
  693MOL0     H91465   2.483   3.724   0.844  0.4858 -1.4263  0.8580
  693MOL0     H91466   2.667   3.773   1.251  4.0498  0.6650  0.8296
  693MOL0     H91467   2.775   3.782   1.122 -0.4897  1.1041  0.5315
  693MOL0     H91468   2.641   3.527   1.185  0.0289  1.1010 -1.3541
  693MOL0     H91469   2.809   3.537   1.126  2.2782 -0.3805  2.0857
  693MOL0     H91470   2.792   3.446   1.360 -0.3112 -0.6855 -0.0766
  693MOL0     H91471   2.700   3.597   1.411 -1.0769 -2.4515 -0.2120
  693MOL0     H91472   2.913   3.723   1.338 -4.7228  0.8015  1.8723
  693MOL0     H91473   2.927   3.607   1.470  1.1103  1.4727 -0.2126
  693MOL0     H91474   3.193   3.431   1.180  0.1782  0.6077 -0.2349
  693MOL0     H91475   2.559   3.928   1.194  2.5680  0.5257 -0.6190
  693MOL0     H91476   2.436   4.130   1.111 -1.6317 -0.5089  0.0131
  694MOL0     O91477   0.392  10.644   8.259 -0.1592 -0.6579  0.4215
  694MOL0     C91478   0.385  10.753   8.324  0.4817  0.6550  0.6230
  694MOL0     O91479   0.423  10.878   8.288 -0.3389 -0.0954  0.6314
  694MOL0     C91480   0.481  10.908   8.163 -0.3891  0.2217 -0.8453
  694MOL0     C91481   0.544  11.035   8.154  0.2152  1.1444  0.1490
  694MOL0     C91482   0.617  11.078   8.044  0.3478 -0.2813  0.9088
  694MOL0     C91483   0.630  10.991   7.943  0.0700 -0.9327  1.6959
  694MOL0     O91484   0.707  11.039   7.836  0.5860  0.0304 -0.6458
  694MOL0     C91485   0.799  10.943   7.773  0.9209 -0.6923 -0.3139
  694MOL0     C91486   0.892  11.005   7.679 -0.0492  0.2768  0.2728
  694MOL0     C91487   0.968  11.119   7.738 -1.0350 -0.0441  0.5504
  694MOL0     C91488   1.051  11.182   7.623  0.0893  0.5596  0.7972
  694MOL0     C91489   1.158  11.089   7.557  0.1835 -0.5446  0.0144
  694MOL0     C91490   1.257  11.170   7.475  0.7186 -0.3747  0.3030
  694MOL0     C91491   1.382  11.094   7.447 -0.0920  0.8094 -0.7789
  694MOL0     C91492   1.466  11.186   7.358 -0.4285  0.2566 -0.3352
  694MOL0     N91493   1.580  11.129   7.296  0.4996 -0.0648  0.6307
  694MOL0     C91494   1.679  11.072   7.364 -0.5299  0.3105  0.8595
  694MOL0     C91495   1.754  11.008   7.270 -0.0227  0.0506 -0.7956
  694MOL0     C91496   1.883  10.944   7.289 -0.1212  0.2592  0.5034
  694MOL0     C91497   1.881  10.787   7.268 -1.2289 -0.2975 -0.6988
  694MOL0     C91498   1.833  10.737   7.131 -0.0367  0.1233  0.5924
  694MOL0     C91499   1.898  10.803   7.011  0.3703 -0.3031  0.2482
  694MOL0     O91500   2.044  10.790   7.005  0.3534 -0.4199 -0.0321
  694MOL0     C91501   2.115  10.832   6.892  0.5626 -0.1064  0.7971
  694MOL0     C91502   2.239  10.780   6.863 -0.1277  0.0464  0.2958
  694MOL0     C91503   2.323  10.832   6.757 -0.3486 -1.0673  0.8008
  694MOL0     C91504   2.271  10.928   6.666  0.4928 -0.1474 -0.3686
  694MOL0     C91505   2.357  10.992   6.561 -0.3326 -0.4595  0.8512
  694MOL0     O91506   2.485  10.941   6.547  0.0648 -0.4291 -0.5362
  694MOL0     C91507   2.563  10.953   6.437 -0.4011 -0.6231  0.6545
  694MOL0     C91508   2.518  10.955   6.305 -0.6521  0.1863  0.3140
  694MOL0     C91509   2.617  10.961   6.205  0.5408 -0.3837  0.2649
  694MOL0     C91510   2.763  10.949   6.233  0.3455 -0.2797 -0.3842
  694MOL0     O91511   2.849  10.938   6.126 -0.9008 -0.3312 -0.5985
  694MOL0     C91512   2.967  10.857   6.159 -0.6974 -0.2584  0.6957
  694MOL0     C91513   3.041  10.829   6.029 -0.2081  0.1011  0.4105
  694MOL0     C91514   2.952  10.823   5.905 -0.3657 -0.2067 -0.3463
  694MOL0     C91515   2.876  10.688   5.916 -0.4544 -0.1495 -0.0299
  694MOL0     C91516   2.768  10.691   5.818 -0.3555  0.9177 -0.1946
  694MOL0     C91517   2.690  10.561   5.809 -0.2318  0.0167 -0.2953
  694MOL0     C91518   2.563  10.568   5.725 -1.0301 -0.1794  0.0572
  694MOL0     C91519   2.572  10.592   5.572 -0.3053  0.2042  0.3773
  694MOL0    Cl91520   2.418  10.657   5.490 -0.0399  0.0055 -0.1547
  694MOL0     C91521   2.791  10.939   6.367  0.3555  0.0394 -0.4514
  694MOL0     C91522   2.697  10.949   6.465  0.6698  0.0210 -0.9207
  694MOL0     O91523   2.306  11.085   6.497  0.2292  0.4791  0.0598
  694MOL0     C91524   2.135  10.970   6.693 -0.0692  0.9984 -0.4603
  694MOL0     C91525   2.063  10.926   6.802  0.0818 -0.5576  0.7202
  694MOL0     N91526   1.692  11.021   7.149 -0.1355  0.3292 -0.0243
  694MOL0     N91527   1.586  11.088   7.167  0.7885 -0.0481 -0.2430
  694MOL0     C91528   0.574  10.860   7.945  0.7825  0.5083 -0.3555
  694MOL0     C91529   0.493  10.822   8.055 -1.0289  0.8015  0.3997
  694MOL0     C91530   0.331  10.729   8.463  0.1500 -0.2484  1.2797
  694MOL0     C91531   0.269  10.614   8.508 -0.5447  0.7155  0.8323
  694MOL0     C91532   0.214  10.599   8.633  0.9511 -0.5777  0.5754
  694MOL0     C91533   0.223  10.707   8.722  0.5746  0.3487 -0.0166
  694MOL0     O91534   0.189  10.685   8.860  0.4047 -0.1838  0.5708
  694MOL0     C91535   0.231  10.778   8.962 -0.3657 -0.1811  1.1858
  694MOL0     C91536   0.191  10.714   9.095 -0.8994 -0.8357  0.3345
  694MOL0     C91537   0.219  10.567   9.107 -0.0776 -0.7001 -0.2902
  694MOL0     C91538   0.230  10.521   9.250 -0.2508 -0.5986  0.4372
  694MOL0     C91539   0.225  10.372   9.241 -0.5041 -0.4008 -0.2243
  694MOL0     C91540   0.211  10.253   9.226 -0.3002  0.7248  0.1536
  694MOL0     C91541   0.273  10.824   8.684  0.1803 -0.1815 -0.2333
  694MOL0     C91542   0.331  10.841   8.556  0.0827  0.2158  0.2315
  694MOL0     H91543   0.529  11.116   8.224 -0.4556 -0.1473  1.5658
  694MOL0     H91544   0.662  11.177   8.040 -0.3639  0.0177  0.1141
  694MOL0     H91545   0.739  10.869   7.718 -0.2286 -2.2878  2.8225
  694MOL0     H91546   0.850  10.874   7.841 -3.6555 -6.4160 -1.8085
  694MOL0     H91547   0.826  11.032   7.596 -0.1169  0.9470  0.5347
  694MOL0     H91548   0.953  10.922   7.643  1.3276 -0.4498  3.8750
  694MOL0     H91549   1.044  11.083   7.809 -1.9263 -0.2088  1.4359
  694MOL0     H91550   0.905  11.195   7.784  0.9612  0.3673  2.8317
  694MOL0     H91551   0.986  11.217   7.543  0.2005  1.4541  1.0925
  694MOL0     H91552   1.099  11.269   7.668  1.8741 -1.0497  2.2030
  694MOL0     H91553   1.111  11.009   7.498  0.2383 -0.9636  0.5319
  694MOL0     H91554   1.206  11.041   7.643  0.8882  3.4681  2.1418
  694MOL0     H91555   1.295  11.257   7.529  3.0678  0.7977 -2.9257
  694MOL0     H91556   1.212  11.211   7.384 -0.4871 -0.0965  1.0028
  694MOL0     H91557   1.431  11.068   7.541  0.5201 -2.2705 -1.8260
  694MOL0     H91558   1.376  11.004   7.385 -1.8872  0.0037  0.4728
  694MOL0     H91559   1.507  11.257   7.430 -0.2442 -1.8475  1.7898
  694MOL0     H91560   1.412  11.238   7.278  0.5473  2.7900  0.5550
  694MOL0     H91561   1.699  11.069   7.471 -3.5524 -0.5579  1.4964
  694MOL0     H91562   1.923  10.963   7.389 -2.7948 -3.6667  2.5835
  694MOL0     H91563   1.959  10.989   7.224  1.0617  0.8898  2.2470
  694MOL0     H91564   1.817  10.741   7.344  1.0463 -3.1180 -0.3257
  694MOL0     H91565   1.981  10.747   7.286 -0.6129  1.5283  0.1776
  694MOL0     H91566   1.841  10.628   7.123 -1.2480  0.1162 -1.0327
  694MOL0     H91567   1.728  10.768   7.129  0.3911  2.5132  4.5168
  694MOL0     H91568   1.867  10.908   7.017  1.6392  0.0235  1.7236
  694MOL0     H91569   1.857  10.752   6.924 -2.6353  1.5575  0.4141
  694MOL0     H91570   2.288  10.719   6.939  3.4877  0.8202 -1.1956
  694MOL0     H91571   2.428  10.803   6.758  0.0009  0.1207  0.2570
  694MOL0     H91572   2.411  10.954   6.286 -0.6176  0.7714  0.0671
  694MOL0     H91573   2.585  10.969   6.102 -0.1488  2.9521  0.6099
  694MOL0     H91574   2.939  10.772   6.223  0.2522  1.2153  3.2244
  694MOL0     H91575   3.034  10.911   6.227  3.1228 -3.0753 -0.4689
  694MOL0     H91576   3.101  10.737   6.033 -1.1246 -0.4810  1.1306
  694MOL0     H91577   3.110  10.908   5.999 -2.1873  1.3972 -0.8881
  694MOL0     H91578   3.018  10.832   5.818  0.8973  2.2763  0.7627
  694MOL0     H91579   2.883  10.907   5.892 -0.3836  0.1223  1.6130
  694MOL0     H91580   2.945  10.606   5.892 -0.3488 -0.5895  1.6475
  694MOL0     H91581   2.844  10.673   6.019  1.2380 -1.9587  0.3026
  694MOL0     H91582   2.818  10.715   5.723 -0.0732 -0.3014 -0.3683
  694MOL0     H91583   2.701  10.773   5.845 -0.7427  0.3007  0.7506
  694MOL0     H91584   2.645  10.531   5.904 -0.6039 -5.5054 -1.8899
  694MOL0     H91585   2.750  10.478   5.770 -0.7237 -1.4614  1.8844
  694MOL0     H91586   2.496  10.484   5.747 -1.6664 -0.0328 -1.2239
  694MOL0     H91587   2.517  10.658   5.765  1.1389  2.6120 -3.1046
  694MOL0     H91588   2.602  10.492   5.537  0.8785  0.2953  1.0699
  694MOL0     H91589   2.649  10.667   5.553 -0.0032 -0.3819 -0.7974
  694MOL0     H91590   2.888  10.933   6.416 -1.3116  2.2876  3.5820
  694MOL0     H91591   2.721  10.959   6.570 -1.0770 -1.0792 -0.3767
  694MOL0     H91592   2.089  11.037   6.622 -1.2918  0.3706 -0.2829
  694MOL0     H91593   1.964  10.964   6.826  1.2521  1.2982  2.9714
  694MOL0     H91594   0.592  10.795   7.860 -1.3250 -2.2306  1.1256
  694MOL0     H91595   0.441  10.727   8.045 -0.2644  0.4709 -0.5712
  694MOL0     H91596   0.246  10.534   8.439  0.1978  1.1026  0.1122
  694MOL0     H91597   0.175  10.501   8.658  3.3543 -0.6805  4.8635
  694MOL0     H91598   0.178  10.872   8.948 -1.9918 -0.8342  2.4993
  694MOL0     H91599   0.338  10.798   8.967 -0.6089  0.8403  4.9790
  694MOL0     H91600   0.252  10.766   9.170  1.8426  0.2525 -2.4395
  694MOL0     H91601   0.091  10.752   9.115 -0.0573  2.0290 -0.4650
  694MOL0     H91602   0.314  10.560   9.052 -1.2383 -0.7785 -2.4015
  694MOL0     H91603   0.151  10.501   9.052  0.2220  2.2744 -4.8401
  694MOL0     H91604   0.322  10.563   9.293 -0.4209  0.1822  0.0569
  694MOL0     H91605   0.149  10.552   9.316 -0.7240  0.6955 -0.6853
  694MOL0     H91606   0.191  10.148   9.229 -2.9270  1.1501 -0.6334
  694MOL0     H91607   0.279  10.904   8.757 -3.5819 -0.5459  0.6385
  694MOL0     H91608   0.388  10.930   8.530 -0.6836  1.4145  2.3812
  695MOL0     O91609   8.833   1.060   4.418 -0.0727 -0.5865  0.7443
  695MOL0     C91610   8.710   1.057   4.400 -0.0910  0.4641 -0.8457
  695MOL0     O91611   8.616   1.024   4.496  0.3972 -0.4858 -0.6310
  695MOL0     C91612   8.666   1.021   4.630  0.4591  0.4204 -0.1085
  695MOL0     C91613   8.642   0.913   4.701 -0.8617 -0.2420  0.2744
  695MOL0     C91614   8.676   0.899   4.840 -0.3552 -0.6471 -0.1407
  695MOL0     C91615   8.745   1.004   4.902 -0.1743  0.0495 -0.3160
  695MOL0     O91616   8.753   0.992   5.043  0.6343 -0.8276  0.3389
  695MOL0     C91617   8.847   1.073   5.112 -0.3568 -0.4710 -0.1682
  695MOL0     C91618   8.810   1.082   5.260  0.6811 -0.1108  1.3813
  695MOL0     C91619   8.886   1.195   5.336  0.3850 -0.8050 -0.2240
  695MOL0     C91620   9.020   1.141   5.384 -0.1179 -0.1341  0.0883
  695MOL0     C91621   9.087   1.215   5.509 -0.0841  0.6671  0.3970
  695MOL0     C91622   9.202   1.119   5.550  0.6318  0.5622 -0.1281
  695MOL0     C91623   9.295   1.193   5.642  0.1455  0.2560  0.0674
  695MOL0     C91624   9.370   1.312   5.576  0.0138 -0.7560  0.0728
  695MOL0     N91625   9.479   1.362   5.671 -0.6255  0.2093 -0.3043
  695MOL0     C91626   9.607   1.393   5.640 -1.2115 -0.7422  0.6556
  695MOL0     C91627   9.669   1.423   5.758  0.5713 -0.4912 -0.0148
  695MOL0     C91628   9.808   1.487   5.776  0.2934  0.6813  0.3396
  695MOL0     C91629   9.923   1.389   5.796  0.0928  0.2869 -0.4787
  695MOL0     C91630  10.054   1.467   5.837  0.7285  1.4463  1.4225
  695MOL0     C91631  10.087   1.584   5.751 -0.2409 -0.0619 -0.3085
  695MOL0     O91632  10.229   1.613   5.761  0.1948 -0.1005  0.3588
  695MOL0     C91633  10.273   1.716   5.674 -0.3601 -0.0767  0.4817
  695MOL0     C91634  10.413   1.754   5.658  0.7127 -0.0684  0.3116
  695MOL0     C91635  10.461   1.859   5.589  0.2786 -0.1941  0.4467
  695MOL0     C91636  10.366   1.927   5.507 -0.0564 -1.0550 -0.4903
  695MOL0     C91637  10.404   2.049   5.436  0.2751 -0.1309  0.2066
  695MOL0     O91638  10.297   2.118   5.379 -0.7353 -0.5759 -0.6146
  695MOL0     C91639  10.309   2.242   5.329 -0.4421 -0.4755 -0.1788
  695MOL0     C91640  10.227   2.281   5.234  0.1320 -0.2566  0.7810
  695MOL0     C91641  10.230   2.420   5.183  1.4238  1.3103  0.6915
  695MOL0     C91642  10.305   2.511   5.251 -0.5158  0.0432  0.0004
  695MOL0     O91643  10.315   2.644   5.232 -0.1465 -0.0667  0.3778
  695MOL0     C91644  10.249   2.706   5.122  1.0230 -0.0665  0.2571
  695MOL0     C91645  10.321   2.836   5.090  0.2772 -0.6180  0.0695
  695MOL0     C91646  10.262   2.925   4.976  0.4194  0.1780 -0.3352
  695MOL0     C91647  10.339   3.061   4.982 -0.1495  0.0849 -0.6522
  695MOL0     C91648  10.491   3.058   4.964 -0.2767  0.1346 -0.5195
  695MOL0     C91649  10.555   3.171   5.052 -0.0580 -0.4838  0.3391
  695MOL0     C91650  10.676   3.243   4.984 -1.2124  0.5556  0.6597
  695MOL0     C91651  10.653   3.356   4.884 -0.7272 -0.4295  0.3274
  695MOL0    Cl91652  10.568   3.495   4.969 -0.3335  0.1361  0.8424
  695MOL0     C91653  10.396   2.468   5.347  0.2640  0.1270  0.4483
  695MOL0     C91654  10.396   2.333   5.385 -0.1390 -0.2376 -0.3896
  695MOL0     O91655  10.525   2.072   5.419  0.3280 -0.2554  0.0702
  695MOL0     C91656  10.233   1.880   5.499  0.6716  0.0837  0.3855
  695MOL0     C91657  10.183   1.764   5.571 -1.3024 -0.6535  0.0681
  695MOL0     N91658   9.570   1.414   5.861 -0.3709 -0.1425 -0.0815
  695MOL0     N91659   9.459   1.370   5.811  0.6427 -0.3850  0.0701
  695MOL0     C91660   8.775   1.118   4.833  0.0403 -0.2808  0.0110
  695MOL0     C91661   8.733   1.122   4.696  0.7551  0.1545  0.2658
  695MOL0     C91662   8.655   1.074   4.257 -0.3195  0.2088 -0.9633
  695MOL0     C91663   8.747   1.065   4.149 -0.1116 -0.1686  0.4465
  695MOL0     C91664   8.722   1.085   4.010 -0.4063  1.1452 -0.3037
  695MOL0     C91665   8.592   1.120   3.975 -1.0179 -0.7555  0.3715
  695MOL0     O91666   8.577   1.134   3.831 -0.3891  0.0297 -0.7453
  695MOL0     C91667   8.476   1.213   3.790  1.0029 -1.0999 -0.8871
  695MOL0     C91668   8.499   1.358   3.846  0.3903  0.1866 -1.0728
  695MOL0     C91669   8.590   1.429   3.749  0.1000 -0.0870 -0.0782
  695MOL0     C91670   8.606   1.581   3.767 -0.5433 -0.3488 -0.6857
  695MOL0     C91671   8.696   1.648   3.671 -0.4595 -1.0672  0.2070
  695MOL0     C91672   8.761   1.702   3.586 -1.0165  1.0440  0.2257
  695MOL0     C91673   8.495   1.138   4.076  0.3117  0.6852 -0.3652
  695MOL0     C91674   8.532   1.118   4.214  0.3312 -1.1084 -0.2718
  695MOL0     H91675   8.580   0.836   4.657 -1.1468  0.8632 -1.3595
  695MOL0     H91676   8.638   0.823   4.908  0.2012 -1.0986 -0.3239
  695MOL0     H91677   8.851   1.173   5.070 -1.8101 -0.2405  0.1590
  695MOL0     H91678   8.946   1.029   5.101 -0.1153  0.3501 -1.4870
  695MOL0     H91679   8.823   0.986   5.311  1.1404  0.7072  2.8737
  695MOL0     H91680   8.706   1.114   5.271 -0.2330 -1.2596 -2.3614
  695MOL0     H91681   8.826   1.225   5.422 -1.4092 -1.0312 -1.3355
  695MOL0     H91682   8.919   1.283   5.280  4.1692 -0.4620  2.1917
  695MOL0     H91683   9.002   1.037   5.416 -5.3084 -0.0264 -1.5488
  695MOL0     H91684   9.086   1.125   5.298 -0.0453  0.3236  0.0598
  695MOL0     H91685   9.021   1.228   5.595 -0.1793 -0.9349  0.5884
  695MOL0     H91686   9.130   1.309   5.472  0.0510 -0.5296 -2.7471
  695MOL0     H91687   9.258   1.086   5.462 -0.4823 -0.2598 -0.5496
  695MOL0     H91688   9.161   1.028   5.595 -0.9632  1.6737  0.7861
  695MOL0     H91689   9.257   1.235   5.735  0.9485 -1.9620  1.4918
  695MOL0     H91690   9.369   1.115   5.663  1.6875  0.8573 -2.6610
  695MOL0     H91691   9.303   1.397   5.570 -0.0799 -0.7169  1.2979
  695MOL0     H91692   9.400   1.287   5.474 -0.8916  3.5384 -1.4458
  695MOL0     H91693   9.655   1.392   5.543 -1.9431  0.5625  0.2525
  695MOL0     H91694   9.814   1.552   5.864  0.6882  0.4379  0.4934
  695MOL0     H91695   9.826   1.559   5.695 -0.1935  0.5494  0.1169
  695MOL0     H91696   9.944   1.340   5.700 -1.2915  1.2814 -1.3089
  695MOL0     H91697   9.885   1.324   5.876  1.0766  2.2844  1.7360
  695MOL0     H91698  10.044   1.493   5.943  0.1818  0.3299  1.6593
  695MOL0     H91699  10.134   1.392   5.832 -2.1948 -1.8795 -3.1212
  695MOL0     H91700  10.027   1.665   5.793  2.4780  0.7398  2.4818
  695MOL0     H91701  10.066   1.542   5.653  1.3064 -1.4064 -0.1190
  695MOL0     H91702  10.485   1.720   5.732  0.0693  0.0587  1.0009
  695MOL0     H91703  10.567   1.881   5.595  1.1160 -2.6955 -2.5271
  695MOL0     H91704  10.164   2.206   5.189 -1.6577  0.6782  1.6219
  695MOL0     H91705  10.159   2.440   5.104  2.2293 -1.2508 -0.7903
  695MOL0     H91706  10.145   2.722   5.155  1.0462 -2.2455  1.5738
  695MOL0     H91707  10.253   2.652   5.027  0.2994  0.8593 -0.3229
  695MOL0     H91708  10.425   2.810   5.067 -0.9262 -3.7742 -2.6995
  695MOL0     H91709  10.322   2.895   5.181 -0.9053 -3.2756  1.9406
  695MOL0     H91710  10.157   2.954   4.990  0.6572  2.0298 -2.0113
  695MOL0     H91711  10.262   2.881   4.876 -2.8945 -0.0063 -0.3697
  695MOL0     H91712  10.299   3.128   4.906 -0.6081  0.9315  0.3104
  695MOL0     H91713  10.308   3.108   5.076 -1.3285 -2.3560  0.2828
  695MOL0     H91714  10.518   3.076   4.860  2.0462 -1.1095 -0.1755
  695MOL0     H91715  10.539   2.965   4.995 -1.7408  0.3002  2.7045
  695MOL0     H91716  10.602   3.142   5.146  1.4661 -0.7461 -0.4609
  695MOL0     H91717  10.479   3.248   5.061  2.6883  2.6810 -1.3678
  695MOL0     H91718  10.743   3.273   5.064  0.1476  0.3470 -0.3670
  695MOL0     H91719  10.736   3.165   4.937  1.2980  3.2383 -0.9542
  695MOL0     H91720  10.579   3.317   4.813  0.4737 -1.3801 -0.4305
  695MOL0     H91721  10.749   3.365   4.834  0.2325 -1.6977  1.8685
  695MOL0     H91722  10.469   2.535   5.390 -1.6495  1.3711  1.9279
  695MOL0     H91723  10.459   2.295   5.465 -0.9542 -0.8064 -0.0054
  695MOL0     H91724  10.169   1.929   5.426 -0.0458 -1.2046  0.1056
  695MOL0     H91725  10.079   1.737   5.558 -1.6253 -0.3307  1.7836
  695MOL0     H91726   8.833   1.200   4.873 -0.1805 -1.1079  2.1546
  695MOL0     H91727   8.755   1.206   4.631  3.3138 -0.9199 -0.3563
  695MOL0     H91728   8.837   1.015   4.185 -1.0608 -2.2005  0.1328
  695MOL0     H91729   8.790   1.053   3.933 -0.7204  2.1387 -1.0109
  695MOL0     H91730   8.382   1.184   3.838 -0.4580  2.3859 -1.2890
  695MOL0     H91731   8.454   1.194   3.685 -1.6266  1.4865 -0.9547
  695MOL0     H91732   8.400   1.406   3.849  0.1908 -0.1578 -1.8923
  695MOL0     H91733   8.549   1.379   3.941 -1.2842 -1.1736  0.1832
  695MOL0     H91734   8.559   1.419   3.644 -2.8838  0.3439  0.6789
  695MOL0     H91735   8.686   1.377   3.755  0.0251 -0.1034  1.1447
  695MOL0     H91736   8.514   1.641   3.766  0.6016  1.6420  1.7364
  695MOL0     H91737   8.635   1.604   3.870  2.9747  0.0877 -1.6546
  695MOL0     H91738   8.817   1.735   3.501 -1.1355  2.1737  0.5706
  695MOL0     H91739   8.393   1.172   4.066 -0.0519  0.8584  2.9949
  695MOL0     H91740   8.455   1.128   4.289  0.5077  1.5684 -0.3291
  696MOL0     O91741   2.440  11.450   5.777 -0.1924 -0.4200  0.0946
  696MOL0     C91742   2.377  11.546   5.740 -0.1132  0.1230  1.1725
  696MOL0     O91743   2.268  11.600   5.793  0.4023  0.5745 -0.8170
  696MOL0     C91744   2.201  11.533   5.895 -0.3476 -1.0065 -0.0753
  696MOL0     C91745   2.158  11.402   5.885 -1.7542 -0.3570 -0.1727
  696MOL0     C91746   2.096  11.351   5.994  0.8771  0.5409 -0.2376
  696MOL0     C91747   2.069  11.437   6.111  0.2957  0.9271 -0.3374
  696MOL0     O91748   2.014  11.387   6.224 -0.1518  0.9887  0.2595
  696MOL0     C91749   2.083  11.409   6.352  0.0894  0.5261 -0.7187
  696MOL0     C91750   2.038  11.306   6.455  0.7018  0.1527  0.5843
  696MOL0     C91751   1.891  11.293   6.479  0.1054  0.4913  0.2592
  696MOL0     C91752   1.858  11.198   6.596  0.0061 -0.2812  0.0051
  696MOL0     C91753   1.710  11.191   6.640 -0.7361 -0.5520  0.7021
  696MOL0     C91754   1.682  11.067   6.727  0.6495  0.1095  0.6396
  696MOL0     C91755   1.540  11.074   6.784  1.5803  0.2540  0.0532
  696MOL0     C91756   1.509  10.937   6.838 -0.2006 -0.6947  0.3649
  696MOL0     N91757   1.378  10.923   6.912  0.7512  1.3654  0.2862
  696MOL0     C91758   1.355  10.910   7.051 -0.8312  1.0725  0.2718
  696MOL0     C91759   1.217  10.924   7.064 -0.7374  0.2412 -0.0451
  696MOL0     C91760   1.136  10.921   7.182  0.9055  0.3455  0.9943
  696MOL0     C91761   1.050  10.800   7.181  0.7697  0.8062 -0.1016
  696MOL0     C91762   1.073  10.697   7.288 -0.8162  1.0694  0.0887
  696MOL0     C91763   0.966  10.590   7.311  0.1598  0.1189  1.0350
  696MOL0     O91764   0.861  10.657   7.391 -0.6608  0.9163  0.1271
  696MOL0     C91765   0.736  10.602   7.401 -0.0809  0.5855 -0.1791
  696MOL0     C91766   0.636  10.699   7.441 -0.5251  0.4332  0.1739
  696MOL0     C91767   0.504  10.656   7.462 -0.5882  0.3448 -0.2750
  696MOL0     C91768   0.480  10.516   7.440  0.6875  0.2544 -0.5007
  696MOL0     C91769   0.344  10.457   7.448  0.0455 -0.8297  0.8184
  696MOL0     O91770   0.254  10.553   7.453  1.1187  0.9217 -0.3507
  696MOL0     C91771   0.125  10.537   7.404  0.0065  0.6899  0.7352
  696MOL0     C91772   0.038  10.640   7.427 -0.3611  0.2726  0.3622
  696MOL0     C91773  -0.092  10.635   7.385  1.3661 -1.0524 -0.6433
  696MOL0     C91774  -0.151  10.524   7.309 -0.8320 -0.0007 -0.8763
  696MOL0     O91775  -0.277  10.532   7.264 -0.3355  0.1217  0.0233
  696MOL0     C91776  -0.357  10.413   7.269  0.0190  0.3902 -0.2505
  696MOL0     C91777  -0.502  10.455   7.281  0.1854 -0.2076  0.4051
  696MOL0     C91778  -0.569  10.501   7.141 -0.1882 -0.0241  0.0982
  696MOL0     C91779  -0.730  10.479   7.142 -1.1398 -0.3887 -0.5171
  696MOL0     C91780  -0.782  10.468   7.000  0.6879 -0.8279  0.3773
  696MOL0     C91781  -0.927  10.443   7.006 -0.3468 -0.4735 -0.5493
  696MOL0     C91782  -0.992  10.422   6.870 -0.5856 -0.2415 -0.3538
  696MOL0     C91783  -1.137  10.466   6.849  0.6917 -0.3569 -0.4057
  696MOL0    Cl91784  -1.209  10.421   6.680  0.1866  0.4271 -0.3942
  696MOL0     C91785  -0.065  10.415   7.288 -1.3288  0.1243  0.3132
  696MOL0     C91786   0.073  10.425   7.332  0.4937  0.4896  0.5670
  696MOL0     O91787   0.320  10.336   7.462  1.0325 -0.9144  1.3010
  696MOL0     C91788   0.574  10.429   7.403 -0.4505 -0.1873  1.0744
  696MOL0     C91789   0.706  10.467   7.370 -1.0007  0.2957  0.9706
  696MOL0     N91790   1.162  10.936   6.941 -0.0496  0.1030  0.3017
  696MOL0     N91791   1.257  10.933   6.847  1.0957  0.5442 -0.2374
  696MOL0     C91792   2.114  11.567   6.118 -0.2402  0.2383 -0.4723
  696MOL0     C91793   2.174  11.614   6.007 -1.0380 -0.4026 -0.2981
  696MOL0     C91794   2.404  11.603   5.602 -0.9631  0.4571  1.0600
  696MOL0     C91795   2.466  11.513   5.515  0.3584 -0.9086  0.5086
  696MOL0     C91796   2.479  11.552   5.378  0.7838 -1.1366 -0.6284
  696MOL0     C91797   2.435  11.683   5.335 -0.6466 -0.1188 -0.0199
  696MOL0     O91798   2.449  11.729   5.206  0.0336  0.1436  0.0589
  696MOL0     C91799   2.521  11.653   5.109 -0.4629  0.8646 -0.0473
  696MOL0     C91800   2.449  11.519   5.075  0.1109 -0.0652  0.5468
  696MOL0     C91801   2.546  11.421   5.008  0.8438 -0.4186 -0.9678
  696MOL0     C91802   2.511  11.280   4.978  0.1904  0.7896 -0.3521
  696MOL0     C91803   2.483  11.205   5.100  0.8624 -0.5048  1.0040
  696MOL0     C91804   2.468  11.163   5.211  0.4575  0.6617 -0.1618
  696MOL0     C91805   2.371  11.770   5.425  0.5519 -0.5914  0.3051
  696MOL0     C91806   2.355  11.732   5.556 -0.3647 -0.5122 -1.3710
  696MOL0     H91807   2.154  11.346   5.792 -0.8316 -1.6530  0.5357
  696MOL0     H91808   2.074  11.245   5.989  0.0215  0.6487  0.7913
  696MOL0     H91809   2.058  11.508   6.392  1.5961  0.8266 -0.4871
  696MOL0     H91810   2.191  11.400   6.344  0.4382 -1.7012  3.3580
  696MOL0     H91811   2.089  11.325   6.550 -0.9535 -0.6677  1.6970
  696MOL0     H91812   2.079  11.211   6.419  2.9376  1.6629 -1.1093
  696MOL0     H91813   1.837  11.255   6.391 -3.0474  1.7428  1.4940
  696MOL0     H91814   1.848  11.391   6.505 -2.4640 -1.2119  2.9682
  696MOL0     H91815   1.883  11.098   6.558 -3.1678 -1.5479  0.8695
  696MOL0     H91816   1.929  11.217   6.676  1.8241 -0.8273 -1.4076
  696MOL0     H91817   1.637  11.197   6.559 -0.5397 -1.7944  0.4018
  696MOL0     H91818   1.689  11.273   6.709  2.9685  0.7386  0.5484
  696MOL0     H91819   1.768  11.069   6.795  3.3065 -0.6067 -2.4567
  696MOL0     H91820   1.706  10.980   6.666  0.1335  3.3703 -4.9069
  696MOL0     H91821   1.534  11.150   6.862 -0.7610 -0.7253  0.9138
  696MOL0     H91822   1.463  11.094   6.709  0.5025  0.8491  1.2969
  696MOL0     H91823   1.592  10.911   6.905  1.0077  0.3893 -0.6483
  696MOL0     H91824   1.510  10.865   6.755 -0.5386  1.1699 -1.3304
  696MOL0     H91825   1.435  10.906   7.124  1.5808  1.8148 -2.1615
  696MOL0     H91826   1.075  11.011   7.176  2.0806  1.1041 -0.3261
  696MOL0     H91827   1.195  10.925   7.275 -0.2456  1.2734  1.7134
  696MOL0     H91828   1.050  10.742   7.088 -3.3210 -2.5362  1.6341
  696MOL0     H91829   0.949  10.843   7.185  0.5794  0.3150  0.4449
  696MOL0     H91830   1.168  10.652   7.260 -0.4461  1.9402 -0.0600
  696MOL0     H91831   1.092  10.754   7.380  2.8469 -0.2817  0.3125
  696MOL0     H91832   1.007  10.510   7.373 -0.2590  1.2160  2.8004
  696MOL0     H91833   0.931  10.554   7.214  0.5490  1.2121  0.4858
  696MOL0     H91834   0.670  10.801   7.458 -1.0560  0.5421  0.6063
  696MOL0     H91835   0.419  10.721   7.480 -1.2111 -0.2505 -1.0267
  696MOL0     H91836   0.085  10.727   7.471 -0.1675 -1.0236  2.8870
  696MOL0     H91837  -0.165  10.709   7.416  0.7250 -2.1748  0.6227
  696MOL0     H91838  -0.343  10.353   7.360 -3.1693 -2.6212 -1.5287
  696MOL0     H91839  -0.352  10.349   7.180  0.5679 -0.3165  0.2795
  696MOL0     H91840  -0.514  10.545   7.342 -2.5792  2.2399 -3.2588
  696MOL0     H91841  -0.564  10.371   7.314 -0.1964 -0.4138 -0.7746
  696MOL0     H91842  -0.525  10.436   7.065  2.5788 -1.3955  2.6559
  696MOL0     H91843  -0.551  10.608   7.125  2.1347 -0.4506 -0.5537
  696MOL0     H91844  -0.740  10.383   7.193  0.8665 -1.3699 -1.8604
  696MOL0     H91845  -0.778  10.554   7.206  1.3928  1.4952 -0.6569
  696MOL0     H91846  -0.739  10.383   6.947  2.0274 -2.3694  3.6354
  696MOL0     H91847  -0.756  10.557   6.942  2.9354 -0.6489  1.5608
  696MOL0     H91848  -0.984  10.522   7.056 -2.4885 -2.4696  0.3191
  696MOL0     H91849  -0.952  10.353   7.062 -0.6825  0.7476  1.3719
  696MOL0     H91850  -0.943  10.485   6.795 -1.7900  1.5375  0.2812
  696MOL0     H91851  -0.980  10.319   6.836  0.9015  0.1659 -1.1837
  696MOL0     H91852  -1.146  10.572   6.872  0.4664 -0.3555 -0.4888
  696MOL0     H91853  -1.207  10.414   6.916 -0.8946  0.9505 -0.9714
  696MOL0     H91854  -0.093  10.325   7.234 -1.6026  0.3720  0.0393
  696MOL0     H91855   0.128  10.339   7.297  0.1097  0.1871  0.6939
  696MOL0     H91856   0.557  10.322   7.392 -0.5202  0.0606 -2.0875
  696MOL0     H91857   0.777  10.403   7.317 -0.7530  3.3650 -2.8872
  696MOL0     H91858   2.092  11.644   6.192 -0.2392  1.9433 -2.1698
  696MOL0     H91859   2.201  11.719   6.018  2.7627 -1.3380  0.4802
  696MOL0     H91860   2.512  11.421   5.550  1.0484 -0.5688  0.5227
  696MOL0     H91861   2.546  11.482   5.329 -2.2755 -5.0691  0.3174
  696MOL0     H91862   2.617  11.623   5.150 -0.4165 -0.8785 -1.2728
  696MOL0     H91863   2.540  11.717   5.022  2.0142 -2.2894 -2.1058
  696MOL0     H91864   2.399  11.469   5.158  2.5454 -0.0367  2.1595
  696MOL0     H91865   2.372  11.532   4.998  0.9708 -2.9444 -0.9540
  696MOL0     H91866   2.633  11.419   5.075 -1.4090 -0.3996  2.1467
  696MOL0     H91867   2.569  11.460   4.908 -0.0531 -1.2685 -1.5153
  696MOL0     H91868   2.424  11.286   4.911 -1.5253  0.5615  1.7391
  696MOL0     H91869   2.600  11.236   4.933  1.8335  2.0768  1.4589
  696MOL0     H91870   2.443  11.126   5.308  1.3868 -4.0451 -1.4752
  696MOL0     H91871   2.327  11.864   5.393  0.3920 -0.6961  0.2181
  696MOL0     H91872   2.309  11.792   5.634 -2.2192 -0.3052 -2.5569
  697MOL0     O91873   7.911   1.650   9.520  0.1483  0.1609  0.3045
  697MOL0     C91874   7.802   1.668   9.459  0.7762  0.1574  0.1205
  697MOL0     O91875   7.758   1.785   9.413  0.1157  0.3154  0.4495
  697MOL0     C91876   7.817   1.903   9.458  0.3380 -0.3487  0.0668
  697MOL0     C91877   7.925   1.926   9.548 -0.4037  0.1113 -0.2655
  697MOL0     C91878   7.957   2.056   9.599 -0.0072 -0.4930 -1.2293
  697MOL0     C91879   7.894   2.163   9.546 -0.0536  0.5026  0.0273
  697MOL0     O91880   7.935   2.298   9.575 -0.6022 -0.0541 -0.2561
  697MOL0     C91881   8.071   2.324   9.556  0.4196 -0.8342 -0.3512
  697MOL0     C91882   8.099   2.467   9.496  0.4986  0.4514  0.9125
  697MOL0     C91883   8.254   2.496   9.478 -0.8308 -0.3966  0.0978
  697MOL0     C91884   8.340   2.381   9.431  0.3212  0.4191  0.0258
  697MOL0     C91885   8.487   2.417   9.417  0.2575  0.0723  0.1691
  697MOL0     C91886   8.567   2.299   9.367 -0.5272  0.8183 -0.3931
  697MOL0     C91887   8.555   2.295   9.213  0.4615  0.9685 -0.1214
  697MOL0     C91888   8.663   2.199   9.162 -0.5967 -0.2556 -0.0238
  697MOL0     N91889   8.795   2.229   9.206 -0.0084  0.4614  0.5785
  697MOL0     C91890   8.855   2.350   9.214  0.6056  0.3025 -0.4595
  697MOL0     C91891   8.977   2.336   9.272  0.0822  0.1381  0.0237
  697MOL0     C91892   9.060   2.457   9.310  0.0690  0.9610 -0.5441
  697MOL0     C91893   9.080   2.488   9.458 -0.4130 -0.8934  0.6768
  697MOL0     C91894   8.939   2.558   9.501  0.5569 -0.3339  0.2563
  697MOL0     C91895   8.945   2.611   9.646 -0.7043 -1.8022  0.2974
  697MOL0     O91896   9.044   2.718   9.648  0.8275 -0.3056 -0.1617
  697MOL0     C91897   9.091   2.746   9.772  0.7179 -0.3302 -0.8748
  697MOL0     C91898   9.073   2.661   9.887  0.2917 -0.3875  0.1383
  697MOL0     C91899   9.137   2.688  10.011 -0.0880 -0.3040  0.2527
  697MOL0     C91900   9.208   2.808  10.024  0.8025 -0.5254 -0.7322
  697MOL0     C91901   9.258   2.840  10.166  0.6678 -0.7876  0.8009
  697MOL0     O91902   9.228   2.757  10.272 -0.0150 -0.8180 -0.6892
  697MOL0     C91903   9.319   2.749  10.375 -0.1486 -0.8910  0.9792
  697MOL0     C91904   9.358   2.862  10.454 -0.5078  0.8478  0.2868
  697MOL0     C91905   9.430   2.837  10.571  0.3690  0.5587  0.3062
  697MOL0     C91906   9.477   2.713  10.605  0.1274 -0.2517 -0.9698
  697MOL0     O91907   9.538   2.697  10.727  0.1993 -0.3197 -0.2795
  697MOL0     C91908   9.495   2.586  10.823  0.0083 -0.1164  0.2943
  697MOL0     C91909   9.535   2.642  10.965 -0.0591  0.3209  0.4036
  697MOL0     C91910   9.485   2.566  11.095 -0.0890 -1.1303  0.5508
  697MOL0     C91911   9.526   2.640  11.219  0.1206  0.1158 -0.4816
  697MOL0     C91912   9.499   2.548  11.344  0.1589 -0.7162  0.5909
  697MOL0     C91913   9.357   2.569  11.404  0.4761  0.3470  0.3069
  697MOL0     C91914   9.328   2.494  11.537  0.1670  0.2763  0.2423
  697MOL0     C91915   9.181   2.459  11.552  0.1502  0.4720 -0.1155
  697MOL0    Cl91916   9.148   2.383  11.715 -0.2076  0.5173  0.3840
  697MOL0     C91917   9.452   2.609  10.520 -0.1091 -0.1577 -0.8425
  697MOL0     C91918   9.363   2.629  10.411  0.5690  1.1168 -0.5442
  697MOL0     O91919   9.344   2.929  10.172 -0.3928 -1.0303 -0.2089
  697MOL0     C91920   9.217   2.902   9.918 -0.2542 -0.0423  0.5141
  697MOL0     C91921   9.160   2.868   9.794  0.6112 -0.4011  0.0591
  697MOL0     N91922   8.996   2.197   9.300 -0.8278 -0.6111 -0.0018
  697MOL0     N91923   8.884   2.136   9.261 -0.9430  0.1062  0.1102
  697MOL0     C91924   7.800   2.140   9.445 -0.4871  0.2131  0.1692
  697MOL0     C91925   7.757   2.014   9.407  0.1772  0.4540  0.9132
  697MOL0     C91926   7.735   1.546   9.418 -0.0057  0.2846 -1.0014
  697MOL0     C91927   7.613   1.542   9.341 -0.4553 -0.2741 -0.1956
  697MOL0     C91928   7.558   1.427   9.302 -0.8326 -0.5496 -0.2082
  697MOL0     C91929   7.611   1.306   9.331  0.7853 -0.7020  0.5733
  697MOL0     O91930   7.546   1.192   9.297 -0.3957  0.4045  0.1044
  697MOL0     C91931   7.429   1.193   9.209  0.0392 -0.5299  0.8048
  697MOL0     C91932   7.360   1.057   9.206 -0.4742 -0.2783  0.1711
  697MOL0     C91933   7.335   0.992   9.070  0.8442 -1.0550  0.2436
  697MOL0     C91934   7.204   1.019   9.007  0.3789 -0.1420 -0.3023
  697MOL0     C91935   7.188   1.165   8.967 -0.7182  0.3072 -0.2435
  697MOL0     C91936   7.157   1.265   8.907 -1.1395  0.0723  0.7577
  697MOL0     C91937   7.736   1.299   9.401  0.5975 -0.9816 -0.1963
  697MOL0     C91938   7.794   1.416   9.448 -0.1290 -1.1242 -0.3480
  697MOL0     H91939   7.981   1.844   9.592  0.6637  1.3558  0.8180
  697MOL0     H91940   8.031   2.064   9.678 -4.1338  2.3563  2.8851
  697MOL0     H91941   8.115   2.251   9.487  0.9795 -0.9538  0.1258
  697MOL0     H91942   8.123   2.322   9.652  1.2587  1.6123 -0.6730
  697MOL0     H91943   8.061   2.541   9.567  0.6897  4.1301 -2.4942
  697MOL0     H91944   8.050   2.480   9.399  3.0049  1.3541 -0.3203
  697MOL0     H91945   8.296   2.526   9.575 -1.9327  1.7776 -0.0287
  697MOL0     H91946   8.265   2.581   9.410 -0.1565 -0.2173  0.4178
  697MOL0     H91947   8.337   2.292   9.494 -0.8013 -1.4919 -2.5496
  697MOL0     H91948   8.295   2.360   9.334 -1.5542  1.7201  0.5594
  697MOL0     H91949   8.526   2.448   9.514  0.7236 -3.3610  1.1941
  697MOL0     H91950   8.503   2.505   9.353  2.5759  1.6944  2.7566
  697MOL0     H91951   8.532   2.207   9.413 -1.2288  0.3514 -1.8101
  697MOL0     H91952   8.672   2.314   9.394  0.5986 -3.3361 -1.6963
  697MOL0     H91953   8.457   2.255   9.184  1.2120  0.4451 -2.0651
  697MOL0     H91954   8.579   2.387   9.159  1.6588 -0.3018 -1.8599
  697MOL0     H91955   8.672   2.188   9.054 -1.2263  0.9695 -0.2222
  697MOL0     H91956   8.637   2.098   9.196 -1.9625  0.3612  0.8951
  697MOL0     H91957   8.815   2.445   9.178  0.0092  0.2033 -0.0833
  697MOL0     H91958   9.002   2.535   9.259 -2.9289  0.3056  1.5755
  697MOL0     H91959   9.160   2.453   9.267  0.6670 -0.1828  0.8637
  697MOL0     H91960   9.174   2.543   9.470  0.4362 -2.2213  0.4024
  697MOL0     H91961   9.110   2.401   9.518  4.2316 -0.4560 -0.6464
  697MOL0     H91962   8.916   2.640   9.433  0.6975 -2.3796 -2.4129
  697MOL0     H91963   8.857   2.487   9.489  0.0385  0.5922 -2.5220
  697MOL0     H91964   8.984   2.525   9.701  2.5334  0.2664  1.4515
  697MOL0     H91965   8.851   2.653   9.685  0.9019  2.5270  0.0142
  697MOL0     H91966   9.019   2.568   9.899  2.5454 -1.6658  0.9507
  697MOL0     H91967   9.144   2.624  10.098  1.5283  0.7557  0.9413
  697MOL0     H91968   9.325   2.962  10.428 -1.1336  0.6752  0.4159
  697MOL0     H91969   9.455   2.922  10.634  0.1153 -1.2042  2.9365
  697MOL0     H91970   9.549   2.493  10.803  2.6171  1.4663 -0.4056
  697MOL0     H91971   9.386   2.579  10.816  0.0298 -2.7092  1.4083
  697MOL0     H91972   9.492   2.742  10.977  2.9888  2.2368 -2.7458
  697MOL0     H91973   9.643   2.655  10.963  0.8113 -4.7695 -0.5611
  697MOL0     H91974   9.525   2.465  11.102 -1.6393 -1.6812  1.9335
  697MOL0     H91975   9.376   2.560  11.093 -0.3398  1.8420 -0.1154
  697MOL0     H91976   9.632   2.664  11.207 -0.0845  0.2516 -2.2774
  697MOL0     H91977   9.484   2.737  11.247  1.6330  0.1699  1.8798
  697MOL0     H91978   9.575   2.558  11.422 -1.4394 -0.9437  2.2261
  697MOL0     H91979   9.489   2.443  11.312 -6.0196 -0.1635 -0.5592
  697MOL0     H91980   9.290   2.540  11.323  3.4081 -1.1201 -1.7818
  697MOL0     H91981   9.348   2.675  11.430 -0.8844  0.3100  0.0605
  697MOL0     H91982   9.383   2.400  11.531 -1.5846 -0.9651  2.2259
  697MOL0     H91983   9.354   2.552  11.626  1.6492  0.5228 -0.3218
  697MOL0     H91984   9.138   2.392  11.477  0.8319  0.4242 -0.4632
  697MOL0     H91985   9.113   2.544  11.536 -2.9841 -1.8369 -0.0276
  697MOL0     H91986   9.482   2.508  10.545 -2.0187 -1.2551 -2.6436
  697MOL0     H91987   9.332   2.533  10.369 -2.2329  0.5990  2.3249
  697MOL0     H91988   9.273   2.994   9.927 -1.0273  0.2696  3.1413
  697MOL0     H91989   9.175   2.932   9.709 -0.7331  0.2862  0.3140
  697MOL0     H91990   7.757   2.229   9.401  0.4047  1.1116  1.0635
  697MOL0     H91991   7.682   1.998   9.329  0.1174 -0.9917  1.2372
  697MOL0     H91992   7.550   1.630   9.329 -1.7511 -1.0211  0.7807
  697MOL0     H91993   7.457   1.433   9.261 -0.0501  0.4443 -2.0865
  697MOL0     H91994   7.459   1.227   9.109 -0.4979 -3.0215 -0.2781
  697MOL0     H91995   7.353   1.261   9.247  2.9538  2.3854  1.9685
  697MOL0     H91996   7.415   0.993   9.275 -0.6743  2.2234  2.8477
  697MOL0     H91997   7.268   1.073   9.263  1.3433 -0.3204  3.3737
  697MOL0     H91998   7.347   0.888   9.099 -4.0464 -2.5471 -1.8614
  697MOL0     H91999   7.407   1.012   8.990  0.0322  2.2993  0.1959
  697MOL0     H92000   7.197   0.951   8.921 -0.2437  2.3323 -2.3246
  697MOL0     H92001   7.133   0.982   9.081 -0.4350 -2.9908 -2.3531
  697MOL0     H92002   7.123   1.353   8.856 -0.7310 -0.0242  0.3166
  697MOL0     H92003   7.769   1.198   9.426 -0.9080 -1.2936  0.6633
  697MOL0     H92004   7.892   1.406   9.493 -0.6129  3.3900  2.3084
  698MOL0     O92005   0.687   2.712   3.246  0.0246  0.3210 -0.4652
  698MOL0     C92006   0.775   2.779   3.190 -0.3098  0.2505 -0.2832
  698MOL0     O92007   0.762   2.862   3.075 -0.2332 -0.4733 -0.7867
  698MOL0     C92008   0.636   2.878   3.016 -0.6447 -0.2491 -0.8313
  698MOL0     C92009   0.640   2.927   2.891  0.8594 -0.7523  0.8612
  698MOL0     C92010   0.529   2.948   2.805 -0.3326  0.6371 -0.1105
  698MOL0     C92011   0.400   2.933   2.870 -0.0764  0.0755  1.4052
  698MOL0     O92012   0.298   2.962   2.783  1.2327  0.0414 -0.0026
  698MOL0     C92013   0.156   2.948   2.831 -0.6219  0.1705  0.0467
  698MOL0     C92014   0.061   2.968   2.713 -0.2403 -0.2413 -0.2295
  698MOL0     C92015  -0.078   2.957   2.763  0.6584  0.5846 -0.0610
  698MOL0     C92016  -0.171   2.965   2.642  0.4934  0.0010 -0.1817
  698MOL0     C92017  -0.309   2.900   2.672 -0.9779 -0.2403 -0.2626
  698MOL0     C92018  -0.411   2.986   2.747 -0.6068  0.4988  0.0924
  698MOL0     C92019  -0.547   2.922   2.760  0.1962  0.8752  0.2218
  698MOL0     C92020  -0.647   3.015   2.837 -0.6262  0.6534  1.3305
  698MOL0     N92021  -0.781   2.964   2.817 -0.0042  0.1840 -0.4908
  698MOL0     C92022  -0.828   2.864   2.894 -0.1452 -0.6296  0.3473
  698MOL0     C92023  -0.945   2.832   2.841  0.0728  0.7776 -0.4224
  698MOL0     C92024  -1.034   2.723   2.906 -0.4365 -0.9108 -0.0134
  698MOL0     C92025  -0.962   2.594   2.945 -0.7091 -0.9123  0.0903
  698MOL0     C92026  -1.042   2.490   3.014  0.5968 -0.4089  0.3845
  698MOL0     C92027  -1.133   2.546   3.122  0.0956 -0.1768  0.4521
  698MOL0     O92028  -1.221   2.445   3.168  0.1791  0.0391  0.2342
  698MOL0     C92029  -1.164   2.352   3.254  0.3925 -0.2002  0.2457
  698MOL0     C92030  -1.197   2.372   3.389 -0.4171 -0.2004 -0.3436
  698MOL0     C92031  -1.141   2.293   3.489  0.6242  0.5329  0.5750
  698MOL0     C92032  -1.060   2.183   3.452  0.8657 -0.4335 -0.0523
  698MOL0     C92033  -0.999   2.088   3.553  0.2207 -1.1246  0.8595
  698MOL0     O92034  -1.027   2.106   3.683 -0.1974 -0.0421 -0.0301
  698MOL0     C92035  -0.984   2.010   3.774  0.3371 -0.3599 -1.4959
  698MOL0     C92036  -0.942   2.053   3.902 -0.7529 -0.4000  0.0863
  698MOL0     C92037  -0.919   1.956   4.001  0.1551  0.2804  0.0131
  698MOL0     C92038  -0.918   1.820   3.975  0.9129 -0.6795  0.2162
  698MOL0     O92039  -0.868   1.736   4.076  0.4250  0.3770 -0.8369
  698MOL0     C92040  -0.767   1.776   4.170 -1.1713  0.4768 -0.7015
  698MOL0     C92041  -0.705   1.663   4.256  0.6273 -0.8787 -0.5013
  698MOL0     C92042  -0.606   1.711   4.368 -0.1340 -0.6085  1.0040
  698MOL0     C92043  -0.487   1.786   4.312  0.2910 -0.4653  0.5992
  698MOL0     C92044  -0.426   1.851   4.430  0.4379 -0.0545 -0.7436
  698MOL0     C92045  -0.396   1.760   4.556 -0.3564 -0.0378  0.7324
  698MOL0     C92046  -0.250   1.766   4.614  0.6236  0.9555  0.4001
  698MOL0     C92047  -0.219   1.910   4.655 -0.3993 -0.2589 -0.3948
  698MOL0    Cl92048  -0.336   1.972   4.779  0.1404  0.2615 -0.0909
  698MOL0     C92049  -0.966   1.779   3.847  0.6657 -0.4616  0.8158
  698MOL0     C92050  -1.011   1.870   3.750 -0.4983  0.6353 -1.5537
  698MOL0     O92051  -0.933   2.003   3.503  0.1243  0.2830  0.0045
  698MOL0     C92052  -1.029   2.165   3.316  0.3915  0.5327  1.3165
  698MOL0     C92053  -1.081   2.248   3.221 -1.0416 -0.1476  0.0971
  698MOL0     N92054  -0.984   2.928   2.751  0.3577  0.3932 -0.6239
  698MOL0     N92055  -0.885   3.014   2.741  1.2082  0.6433 -0.0454
  698MOL0     C92056   0.392   2.896   3.000 -0.4634  0.6259 -0.5613
  698MOL0     C92057   0.512   2.877   3.078  0.5666  0.4075  1.0166
  698MOL0     C92058   0.906   2.779   3.256  0.4142 -0.5070  0.6474
  698MOL0     C92059   1.013   2.860   3.212  0.5862 -0.5559  0.4950
  698MOL0     C92060   1.139   2.864   3.260 -0.2726 -0.7045 -0.1241
  698MOL0     C92061   1.167   2.789   3.375  0.4960 -0.5153 -0.0200
  698MOL0     O92062   1.288   2.791   3.435 -0.5782  0.4282 -0.1165
  698MOL0     C92063   1.367   2.903   3.438  0.3975 -0.4692  0.4184
  698MOL0     C92064   1.302   3.009   3.524 -1.0667  0.9523  0.6726
  698MOL0     C92065   1.388   3.143   3.561 -0.3763  0.6214  0.6760
  698MOL0     C92066   1.395   3.255   3.458  0.2477 -0.1520  0.9303
  698MOL0     C92067   1.473   3.214   3.336 -0.5172  0.9773 -0.0172
  698MOL0     C92068   1.525   3.167   3.236  0.1685 -0.3357  0.3932
  698MOL0     C92069   1.068   2.716   3.431  0.0146 -0.1657  0.6284
  698MOL0     C92070   0.942   2.697   3.370 -0.2124  0.5403  0.1458
  698MOL0     H92071   0.740   2.948   2.853 -0.5332  1.0390 -2.2032
  698MOL0     H92072   0.523   2.978   2.701 -1.4059 -1.6109 -0.7627
  698MOL0     H92073   0.133   3.024   2.906 -1.2847 -0.0154  0.0315
  698MOL0     H92074   0.144   2.853   2.883 -1.2201 -0.1200 -0.6134
  698MOL0     H92075   0.076   2.900   2.629 -0.3961  1.3434 -1.6035
  698MOL0     H92076   0.083   3.069   2.676 -1.2756  0.6684  1.4928
  698MOL0     H92077  -0.102   3.029   2.842 -0.1466  0.8345 -0.5260
  698MOL0     H92078  -0.083   2.853   2.797 -1.9964  0.8023  0.4394
  698MOL0     H92079  -0.172   3.073   2.627 -2.4157  0.3777  1.9368
  698MOL0     H92080  -0.128   2.927   2.549  1.4777  0.1757  0.1888
  698MOL0     H92081  -0.308   2.796   2.704 -0.4866 -0.3668 -0.6664
  698MOL0     H92082  -0.339   2.905   2.567  1.9361  2.6185 -1.1539
  698MOL0     H92083  -0.421   3.089   2.711  0.4374 -0.3957 -3.1432
  698MOL0     H92084  -0.372   3.008   2.847  3.2518 -1.1091 -0.8776
  698MOL0     H92085  -0.581   2.908   2.657  2.8792  3.3156 -1.1242
  698MOL0     H92086  -0.531   2.822   2.801 -1.3094  0.3091 -0.4877
  698MOL0     H92087  -0.631   3.119   2.805  3.3980 -0.3339 -0.5356
  698MOL0     H92088  -0.635   2.996   2.944  1.1607 -1.7325  0.7967
  698MOL0     H92089  -0.790   2.806   2.978  0.4706 -0.0250  0.4939
  698MOL0     H92090  -1.118   2.700   2.840 -0.6611 -0.0073 -0.0541
  698MOL0     H92091  -1.087   2.763   2.992 -2.0564 -4.7971  1.0093
  698MOL0     H92092  -0.878   2.618   3.011 -0.6298  0.8488 -0.5984
  698MOL0     H92093  -0.927   2.550   2.851 -0.3776  1.4886 -0.9769
  698MOL0     H92094  -1.091   2.441   2.930  1.3202  1.0481 -0.9549
  698MOL0     H92095  -0.966   2.427   3.061  4.5214  3.3969 -0.1422
  698MOL0     H92096  -1.197   2.624   3.080  0.3518  1.6804  3.2433
  698MOL0     H92097  -1.069   2.578   3.205 -0.2386  1.3613  0.1550
  698MOL0     H92098  -1.265   2.453   3.413  0.0638  0.1751 -0.2089
  698MOL0     H92099  -1.161   2.315   3.593 -0.7400 -1.0974  0.6871
  698MOL0     H92100  -0.934   2.161   3.913 -0.1636 -0.3057 -1.0855
  698MOL0     H92101  -0.880   1.991   4.096 -2.2963  2.3743  0.3204
  698MOL0     H92102  -0.795   1.851   4.245  1.6766  0.8622  0.0945
  698MOL0     H92103  -0.685   1.821   4.114 -0.7242  0.9814  0.3267
  698MOL0     H92104  -0.664   1.586   4.191 -0.1383 -1.6786 -0.0499
  698MOL0     H92105  -0.792   1.618   4.305 -0.3263  2.7167  1.4784
  698MOL0     H92106  -0.590   1.622   4.431  3.4475 -0.6843  0.1894
  698MOL0     H92107  -0.659   1.782   4.432 -3.5534  0.7694 -2.9041
  698MOL0     H92108  -0.414   1.721   4.263  0.9378 -2.6038  4.0544
  698MOL0     H92109  -0.517   1.865   4.243 -0.8650 -0.8646  0.6210
  698MOL0     H92110  -0.490   1.933   4.464  0.7536 -0.7959  1.9336
  698MOL0     H92111  -0.332   1.897   4.397 -0.6373  2.2910 -0.7471
  698MOL0     H92112  -0.404   1.654   4.531  1.7973 -0.0354 -0.2098
  698MOL0     H92113  -0.461   1.782   4.642  2.3128  1.3765  2.5567
  698MOL0     H92114  -0.230   1.693   4.693 -3.6752 -2.3269 -1.1587
  698MOL0     H92115  -0.195   1.735   4.524 -2.5502 -0.3263 -1.2291
  698MOL0     H92116  -0.206   1.985   4.577  1.6254 -0.2772 -0.1275
  698MOL0     H92117  -0.120   1.914   4.700 -1.1188 -2.2782  1.5225
  698MOL0     H92118  -0.986   1.674   3.828  0.2437 -0.2993  0.3223
  698MOL0     H92119  -1.057   1.833   3.659  0.8489 -1.3273 -1.5087
  698MOL0     H92120  -0.961   2.084   3.293 -1.1333 -0.3100 -0.5274
  698MOL0     H92121  -1.050   2.246   3.117  1.5105 -0.0529  0.7860
  698MOL0     H92122   0.296   2.894   3.050 -0.1135  0.7683  0.1223
  698MOL0     H92123   0.497   2.845   3.180 -1.1488 -2.8017 -0.1114
  698MOL0     H92124   1.015   2.922   3.122 -0.3383 -2.1614 -0.6810
  698MOL0     H92125   1.211   2.924   3.206 -0.6499 -2.4024 -2.6783
  698MOL0     H92126   1.369   2.947   3.338 -2.5569  1.4103  1.0767
  698MOL0     H92127   1.469   2.879   3.471  1.0199 -0.4517 -1.4140
  698MOL0     H92128   1.209   3.043   3.478 -0.9996  2.8622  1.8352
  698MOL0     H92129   1.278   2.958   3.618  1.5984 -0.3294  0.7571
  698MOL0     H92130   1.487   3.118   3.599 -0.2941 -1.1442 -0.5732
  698MOL0     H92131   1.332   3.189   3.643 -0.0349  1.7686  0.2840
  698MOL0     H92132   1.293   3.283   3.431  0.3814 -0.4739  0.0747
  698MOL0     H92133   1.450   3.344   3.492  1.1770 -0.0315 -0.7984
  698MOL0     H92134   1.570   3.128   3.147 -0.4030 -3.2196  1.2403
  698MOL0     H92135   1.081   2.648   3.514 -1.8655 -0.8597  0.3919
  698MOL0     H92136   0.873   2.619   3.402 -0.5313  0.5400 -0.5372
  699MOL0     O92137   2.256   4.498   7.068  0.3818 -0.5572  0.0953
  699MOL0     C92138   2.299   4.615   7.073 -0.6009 -0.0215  0.8265
  699MOL0     O92139   2.242   4.729   7.029 -0.6954  0.3163  0.1002
  699MOL0     C92140   2.121   4.732   6.957 -0.2417  0.9634  0.6619
  699MOL0     C92141   2.040   4.627   6.916  0.0312  0.0496  0.6869
  699MOL0     C92142   1.926   4.640   6.837 -0.2713 -0.2998  0.3302
  699MOL0     C92143   1.884   4.772   6.814 -0.5074 -0.0646  0.2659
  699MOL0     O92144   1.784   4.796   6.728  0.0076  0.6219 -0.4095
  699MOL0     C92145   1.646   4.801   6.766  0.2840  0.5342 -0.5705
  699MOL0     C92146   1.574   4.657   6.770 -0.1244 -0.2923  0.1975
  699MOL0     C92147   1.423   4.652   6.763 -0.2164 -0.4055  0.1771
  699MOL0     C92148   1.367   4.729   6.887 -0.3160 -0.0206  1.2373
  699MOL0     C92149   1.284   4.642   6.985 -0.2006 -0.3088 -0.0168
  699MOL0     C92150   1.217   4.703   7.109 -0.7351  0.1406  0.4478
  699MOL0     C92151   1.322   4.735   7.207  0.1909  1.1220  0.2900
  699MOL0     C92152   1.253   4.768   7.346  1.3245 -0.4232 -0.3130
  699MOL0     N92153   1.155   4.877   7.343  0.3055  0.1352 -0.4376
  699MOL0     C92154   1.194   5.000   7.392 -1.0450  0.6287 -0.5656
  699MOL0     C92155   1.086   5.073   7.436  0.7883  0.6095  0.1408
  699MOL0     C92156   1.097   5.202   7.509  0.3797 -0.1970  0.2730
  699MOL0     C92157   1.109   5.325   7.404 -0.7411  1.0431 -0.6546
  699MOL0     C92158   1.170   5.453   7.472  0.8323 -1.0689  0.3069
  699MOL0     C92159   1.106   5.487   7.608 -1.0065 -0.6586  0.2453
  699MOL0     O92160   1.178   5.602   7.649 -0.2890  0.4248 -0.2463
  699MOL0     C92161   1.120   5.668   7.747  0.7840 -0.6578 -0.4540
  699MOL0     C92162   1.198   5.693   7.855  0.7100 -0.0680 -0.4495
  699MOL0     C92163   1.154   5.779   7.949  0.2499  0.6041  0.0154
  699MOL0     C92164   1.017   5.824   7.942 -0.8276 -0.0132  0.1911
  699MOL0     C92165   0.948   5.896   8.048  0.0208 -1.1217 -0.4882
  699MOL0     O92166   0.817   5.912   8.038  0.6005  0.8650 -0.9409
  699MOL0     C92167   0.745   5.862   8.150 -0.4885 -0.3439  0.6186
  699MOL0     C92168   0.605   5.886   8.135  0.0623 -0.3174  0.5852
  699MOL0     C92169   0.508   5.849   8.233 -0.4905 -0.9992  0.1186
  699MOL0     C92170   0.557   5.809   8.355 -0.1696 -0.2186 -0.6739
  699MOL0     O92171   0.459   5.796   8.456 -0.2016  0.4996 -0.4591
  699MOL0     C92172   0.490   5.805   8.590  0.1013 -0.0684  0.4610
  699MOL0     C92173   0.363   5.782   8.676 -0.6802  0.0943  0.1576
  699MOL0     C92174   0.231   5.849   8.627 -0.4678  0.4335 -0.3052
  699MOL0     C92175   0.126   5.782   8.708 -0.3640  0.3928  0.6325
  699MOL0     C92176  -0.013   5.860   8.698  0.2023  0.6684  0.0370
  699MOL0     C92177  -0.143   5.787   8.739 -0.2618 -0.0824 -0.3149
  699MOL0     C92178  -0.164   5.710   8.875  0.9244 -0.3097 -0.7230
  699MOL0     C92179  -0.307   5.669   8.897  0.8269  0.8714  0.1733
  699MOL0    Cl92180  -0.400   5.808   8.952  0.0836 -0.4110 -0.4348
  699MOL0     C92181   0.693   5.777   8.378  0.0293 -0.1652 -0.6026
  699MOL0     C92182   0.788   5.805   8.277 -0.9250  0.1566 -0.1122
  699MOL0     O92183   1.020   5.939   8.139 -0.4876 -0.3256 -0.0928
  699MOL0     C92184   0.940   5.794   7.829 -0.6914  0.4266 -0.9150
  699MOL0     C92185   0.998   5.715   7.730 -0.2804  0.2983  0.0942
  699MOL0     N92186   0.972   4.998   7.411 -0.7413  0.2942 -0.4329
  699MOL0     N92187   1.016   4.888   7.353  0.1427  0.7044 -0.1096
  699MOL0     C92188   1.948   4.881   6.875 -0.5891 -0.8450  0.8689
  699MOL0     C92189   2.071   4.866   6.938  0.4328  0.0491  0.1586
  699MOL0     C92190   2.433   4.628   7.139 -0.1174  0.1377  0.3461
  699MOL0     C92191   2.467   4.758   7.177 -0.2638 -0.3223 -0.3845
  699MOL0     C92192   2.597   4.786   7.227  0.2965 -0.1312  0.4267
  699MOL0     C92193   2.689   4.676   7.237 -0.3261  0.7257  0.2547
  699MOL0     O92194   2.811   4.699   7.287 -0.4031 -0.2202 -0.6928
  699MOL0     C92195   2.875   4.820   7.235 -0.8769 -0.3149  0.0532
  699MOL0     C92196   3.012   4.821   7.305  0.4811  0.2846  0.6356
  699MOL0     C92197   3.109   4.705   7.260  0.0124  0.1656 -0.0112
  699MOL0     C92198   3.178   4.708   7.123 -0.1617  0.4010  0.2729
  699MOL0     C92199   3.262   4.825   7.106 -0.0710  1.1414  0.5273
  699MOL0     C92200   3.338   4.917   7.108 -0.1508 -0.0756  0.1674
  699MOL0     C92201   2.658   4.552   7.194  0.4907 -0.0523 -0.1720
  699MOL0     C92202   2.527   4.524   7.144 -1.3637  0.0655  1.6116
  699MOL0     H92203   2.078   4.526   6.928  4.5854  1.6596  2.0273
  699MOL0     H92204   1.878   4.553   6.794  1.0810 -0.7305 -0.3576
  699MOL0     H92205   1.592   4.860   6.691  2.6642  2.5759 -0.8084
  699MOL0     H92206   1.638   4.841   6.867  0.0880 -0.7133 -0.0711
  699MOL0     H92207   1.621   4.592   6.844 -1.1014 -3.9003 -2.0819
  699MOL0     H92208   1.608   4.592   6.689  2.7484  0.2188  0.8833
  699MOL0     H92209   1.384   4.551   6.754  3.2702 -1.7474 -1.8959
  699MOL0     H92210   1.407   4.699   6.666  0.6611 -1.9431 -0.7398
  699MOL0     H92211   1.447   4.767   6.950  0.2425 -0.4592  0.7963
  699MOL0     H92212   1.305   4.809   6.844  1.9864  0.0806 -2.2534
  699MOL0     H92213   1.344   4.553   7.007 -0.2239  0.0095  1.4412
  699MOL0     H92214   1.198   4.610   6.925 -1.1929 -0.1092  1.2481
  699MOL0     H92215   1.144   4.631   7.146  1.5463 -3.6844 -1.8936
  699MOL0     H92216   1.164   4.798   7.095 -2.6815 -0.9068  0.4062
  699MOL0     H92217   1.381   4.643   7.211  0.4519  1.3320  1.8001
  699MOL0     H92218   1.388   4.818   7.180  0.7943  0.9461  1.1765
  699MOL0     H92219   1.340   4.802   7.402  1.4673  2.5213 -2.1116
  699MOL0     H92220   1.209   4.680   7.394 -1.2606  2.1429  2.4176
  699MOL0     H92221   1.293   5.036   7.414 -1.5349  0.1804  2.9522
  699MOL0     H92222   1.195   5.186   7.556  2.4150  1.3215 -3.0081
  699MOL0     H92223   1.016   5.208   7.582 -2.5309  0.7199 -2.7893
  699MOL0     H92224   1.009   5.345   7.365 -0.6215  0.6317 -1.1833
  699MOL0     H92225   1.152   5.294   7.308  1.1711 -1.6709  0.9322
  699MOL0     H92226   1.278   5.443   7.488  0.9619  2.5919  3.2773
  699MOL0     H92227   1.164   5.534   7.398  0.7835 -2.6576 -1.4938
  699MOL0     H92228   1.120   5.407   7.681 -1.2162 -1.7337 -0.8584
  699MOL0     H92229   0.998   5.507   7.599 -0.7727  0.4063 -0.3711
  699MOL0     H92230   1.302   5.667   7.845  2.2582  5.1904 -0.8596
  699MOL0     H92231   1.220   5.821   8.024 -1.7462  0.2938  2.0545
  699MOL0     H92232   0.570   5.930   8.043 -2.1327 -4.8000 -1.0435
  699MOL0     H92233   0.400   5.863   8.234 -0.4375  0.5316  4.2534
  699MOL0     H92234   0.532   5.905   8.603 -0.2136 -0.0625  1.4954
  699MOL0     H92235   0.567   5.732   8.618  2.0827  1.4300 -0.7555
  699MOL0     H92236   0.386   5.831   8.771 -1.1548  3.3697 -1.2537
  699MOL0     H92237   0.351   5.674   8.673  1.8495 -0.2832 -3.7230
  699MOL0     H92238   0.218   5.836   8.519 -1.7964 -0.7916 -0.0258
  699MOL0     H92239   0.241   5.957   8.644  3.1423  0.5800 -2.2330
  699MOL0     H92240   0.113   5.677   8.679 -1.9088  0.9396 -0.8329
  699MOL0     H92241   0.166   5.784   8.809  1.2654  2.2241  0.0160
  699MOL0     H92242  -0.013   5.900   8.596  0.4927  1.4653  0.3427
  699MOL0     H92243  -0.016   5.950   8.760 -3.1029  2.1655 -2.0158
  699MOL0     H92244  -0.168   5.716   8.660  1.4526  0.3142 -1.2600
  699MOL0     H92245  -0.217   5.867   8.732 -2.3920 -1.5397  2.8443
  699MOL0     H92246  -0.101   5.621   8.870  0.9676 -0.4224  1.0901
  699MOL0     H92247  -0.140   5.771   8.963 -1.0265 -3.2339  2.0207
  699MOL0     H92248  -0.332   5.591   8.970  0.4486  0.8513  0.0241
  699MOL0     H92249  -0.353   5.626   8.808  0.5162 -2.6571  1.8448
  699MOL0     H92250   0.734   5.745   8.473 -2.0427 -1.6146 -0.1277
  699MOL0     H92251   0.891   5.790   8.307 -1.2660 -0.9484  0.5721
  699MOL0     H92252   0.838   5.831   7.827 -1.2002 -0.5149  1.8332
  699MOL0     H92253   0.955   5.689   7.634  1.8541 -0.8691 -0.6246
  699MOL0     H92254   1.914   4.982   6.854 -0.6669 -0.9751  0.3528
  699MOL0     H92255   2.126   4.948   6.983 -0.0521  0.8890 -0.7402
  699MOL0     H92256   2.395   4.839   7.170 -1.8259 -1.5491  0.8111
  699MOL0     H92257   2.613   4.887   7.263  2.6435 -0.9536  1.9866
  699MOL0     H92258   2.827   4.915   7.260  0.3752 -0.8188  5.6399
  699MOL0     H92259   2.900   4.804   7.130  3.2751  3.2021  0.2392
  699MOL0     H92260   3.057   4.913   7.267  1.2367 -0.3213  0.0140
  699MOL0     H92261   3.002   4.826   7.414 -1.3251  0.6065  0.4822
  699MOL0     H92262   3.056   4.610   7.270  1.3031 -0.7385 -1.2878
  699MOL0     H92263   3.194   4.714   7.329  0.0870  2.3699 -0.2978
  699MOL0     H92264   3.229   4.615   7.094 -4.1285 -1.6568 -0.8061
  699MOL0     H92265   3.099   4.720   7.049 -1.1861  0.9586  1.4304
  699MOL0     H92266   3.410   4.997   7.116 -1.6501  1.3021  0.4332
  699MOL0     H92267   2.728   4.469   7.200  1.1120  0.4546 -0.3254
  699MOL0     H92268   2.500   4.423   7.117 -0.7399 -0.2692  2.1734
  700MOL0     O92269   8.876   1.587   5.580 -0.7036  0.0745  0.8272
  700MOL0     C92270   8.808   1.565   5.677 -0.0270  0.1061 -0.6074
  700MOL0     O92271   8.854   1.549   5.804  0.0360  0.1963  0.2504
  700MOL0     C92272   8.973   1.603   5.833 -0.5726  0.2716 -0.3636
  700MOL0     C92273   8.985   1.701   5.928  0.2656 -1.1876 -0.2650
  700MOL0     C92274   9.101   1.762   5.965 -0.0521 -0.1822 -0.2686
  700MOL0     C92275   9.220   1.723   5.903 -0.1177 -0.5626  0.0433
  700MOL0     O92276   9.322   1.804   5.930 -0.5858 -0.4346  0.9102
  700MOL0     C92277   9.461   1.756   5.910  0.0971  0.4041 -0.4372
  700MOL0     C92278   9.549   1.881   5.925  0.3985 -0.0606 -0.3170
  700MOL0     C92279   9.560   1.958   6.062  0.1369  0.3566  0.8001
  700MOL0     C92280   9.684   2.033   6.059  0.5893 -0.0138  0.3562
  700MOL0     C92281   9.682   2.132   6.177 -0.1533  0.7081 -1.2000
  700MOL0     C92282   9.796   2.227   6.169  0.1572  0.3912  0.6615
  700MOL0     C92283   9.760   2.342   6.271 -0.2979  0.2246 -1.1024
  700MOL0     C92284   9.876   2.423   6.313 -0.7169  0.3542  0.5169
  700MOL0     N92285   9.832   2.506   6.426 -0.1576  0.6237 -0.7657
  700MOL0     C92286   9.723   2.579   6.438 -0.7855  0.0365  0.6791
  700MOL0     C92287   9.717   2.630   6.559 -0.3053 -1.9910 -0.2537
  700MOL0     C92288   9.604   2.699   6.629 -1.2381 -0.2988 -0.3451
  700MOL0     C92289   9.614   2.853   6.622  0.2375  0.2084  0.1185
  700MOL0     C92290   9.611   2.913   6.482 -0.1343  0.0828 -0.0012
  700MOL0     C92291   9.485   2.888   6.403  0.4998 -0.0338 -0.0471
  700MOL0     O92292   9.502   2.958   6.274  0.0109 -0.0494  0.2026
  700MOL0     C92293   9.401   2.961   6.179  0.0688 -0.3540 -0.2702
  700MOL0     C92294   9.428   3.033   6.067  0.5140 -0.8572 -0.2847
  700MOL0     C92295   9.343   3.020   5.961  0.5635  0.3716 -0.1768
  700MOL0     C92296   9.220   2.943   5.974 -0.7576 -0.0225 -0.1732
  700MOL0     C92297   9.134   2.920   5.862 -0.1879  0.7647 -0.4446
  700MOL0     O92298   9.064   2.808   5.875 -0.1332  0.5347  1.3768
  700MOL0     C92299   9.007   2.756   5.766  0.7660 -0.8403  1.0613
  700MOL0     C92300   8.861   2.744   5.764 -0.1263  0.1706 -0.0228
  700MOL0     C92301   8.800   2.696   5.651  0.6219  0.2224  0.1312
  700MOL0     C92302   8.865   2.654   5.544  0.4687 -0.0875 -0.0435
  700MOL0     O92303   8.796   2.602   5.437 -0.5806  0.0714  0.5956
  700MOL0     C92304   8.796   2.459   5.432 -0.5169 -0.6093  0.4563
  700MOL0     C92305   8.654   2.411   5.401  0.0118  0.4511  0.2733
  700MOL0     C92306   8.672   2.263   5.365 -0.2943 -0.3656 -1.2899
  700MOL0     C92307   8.533   2.186   5.385  0.4975  0.4103  0.2951
  700MOL0     C92308   8.520   2.062   5.302 -0.1016 -0.3955 -0.9376
  700MOL0     C92309   8.404   1.968   5.360  0.3455  0.6640 -0.2018
  700MOL0     C92310   8.402   1.843   5.274 -0.7597 -0.1825  1.0921
  700MOL0     C92311   8.405   1.868   5.129 -0.4682  0.5241  0.2963
  700MOL0    Cl92312   8.269   1.949   5.029 -0.3987 -0.1171 -0.7066
  700MOL0     C92313   9.006   2.655   5.542  0.6937  0.9793 -0.5752
  700MOL0     C92314   9.072   2.713   5.648 -0.2950  0.4298 -0.0752
  700MOL0     O92315   9.158   2.985   5.757  0.1922  0.1842 -0.0181
  700MOL0     C92316   9.190   2.891   6.100  1.0402  0.9553 -0.2219
  700MOL0     C92317   9.282   2.893   6.197 -0.0615 -0.5199  0.0300
  700MOL0     N92318   9.827   2.581   6.629 -0.3600 -0.1058  0.5419
  700MOL0     N92319   9.895   2.514   6.546 -0.0504 -0.0449 -0.2737
  700MOL0     C92320   9.216   1.630   5.794 -0.0992  0.5593  0.0253
  700MOL0     C92321   9.094   1.566   5.769  0.6156 -0.1273  0.1846
  700MOL0     C92322   8.664   1.547   5.652 -0.3601 -0.1369 -0.2137
  700MOL0     C92323   8.572   1.586   5.752 -0.2272  0.2894 -0.5714
  700MOL0     C92324   8.437   1.606   5.719 -0.5331  0.3991  0.2257
  700MOL0     C92325   8.394   1.559   5.593  0.4897  0.1048  0.1611
  700MOL0     O92326   8.268   1.546   5.543  0.5085  0.6546 -0.3403
  700MOL0     C92327   8.172   1.588   5.640 -0.2173 -0.0250  0.7968
  700MOL0     C92328   8.036   1.601   5.580  0.3778  0.7199  0.5543
  700MOL0     C92329   8.032   1.714   5.480 -0.6898 -0.4036  0.4265
  700MOL0     C92330   7.900   1.711   5.404 -0.3424 -1.0039  0.4641
  700MOL0     C92331   7.888   1.597   5.309  0.4045  0.7208  0.3523
  700MOL0     C92332   7.901   1.515   5.218  0.0865 -0.3269 -0.5096
  700MOL0     C92333   8.489   1.517   5.502  0.6967 -0.5817  0.1689
  700MOL0     C92334   8.619   1.494   5.533 -0.2741  0.1045 -0.0409
  700MOL0     H92335   8.896   1.723   5.986  0.3124  2.2011 -1.2546
  700MOL0     H92336   9.103   1.833   6.047 -0.4567 -0.7895  0.2738
  700MOL0     H92337   9.476   1.694   5.821  1.3953  2.0195 -1.4123
  700MOL0     H92338   9.491   1.692   5.993  0.2822  1.1499  0.0808
  700MOL0     H92339   9.530   1.956   5.848  3.2263  1.2607  0.1557
  700MOL0     H92340   9.651   1.848   5.904  0.3235 -1.3804  1.1573
  700MOL0     H92341   9.577   1.885   6.141  1.5573  0.0982  0.2884
  700MOL0     H92342   9.469   2.012   6.090 -1.4213 -1.0516 -1.2213
  700MOL0     H92343   9.769   1.964   6.066  0.6837 -0.2342 -2.1638
  700MOL0     H92344   9.686   2.080   5.960  0.8254 -0.2178  0.2616
  700MOL0     H92345   9.692   2.072   6.268  2.1241  0.9173 -1.2448
  700MOL0     H92346   9.585   2.183   6.176  0.7383  2.4819 -2.9182
  700MOL0     H92347   9.777   2.269   6.070 -0.4398  1.2190  1.1154
  700MOL0     H92348   9.903   2.205   6.176  0.2275  0.5801  0.2100
  700MOL0     H92349   9.666   2.392   6.249 -2.3695 -2.4657  0.8655
  700MOL0     H92350   9.737   2.293   6.367  5.5551  4.5603  3.2701
  700MOL0     H92351   9.909   2.480   6.226  0.6480 -1.8714 -0.4912
  700MOL0     H92352   9.966   2.367   6.337  0.2229  1.2334 -0.8453
  700MOL0     H92353   9.641   2.583   6.366  1.3326 -1.5846 -2.0466
  700MOL0     H92354   9.595   2.660   6.730 -6.0118  0.4763 -0.2665
  700MOL0     H92355   9.512   2.664   6.582 -2.1048  0.1287  1.0098
  700MOL0     H92356   9.701   2.887   6.678 -0.1647 -0.1467  0.9756
  700MOL0     H92357   9.528   2.896   6.673 -1.0987  0.1910 -2.0075
  700MOL0     H92358   9.617   3.021   6.493  0.5554  0.1874 -1.1548
  700MOL0     H92359   9.701   2.872   6.434 -1.3804 -2.4113 -0.3831
  700MOL0     H92360   9.400   2.932   6.456  0.7629  1.2475 -0.6395
  700MOL0     H92361   9.463   2.781   6.392 -0.3737  0.3247 -2.2597
  700MOL0     H92362   9.524   3.080   6.049 -0.1313  0.0160 -1.5816
  700MOL0     H92363   9.374   3.052   5.863 -1.8272 -0.6096 -1.3498
  700MOL0     H92364   8.806   2.787   5.847 -0.7184  2.0594 -1.3340
  700MOL0     H92365   8.693   2.684   5.663  0.7017  0.1681  0.8736
  700MOL0     H92366   8.841   2.407   5.517  2.8794 -0.3907 -1.0410
  700MOL0     H92367   8.858   2.427   5.348 -1.4381 -1.4626  0.0679
  700MOL0     H92368   8.615   2.470   5.318 -0.7377 -1.8556 -1.1203
  700MOL0     H92369   8.608   2.415   5.500  1.9797  2.1804  1.2048
  700MOL0     H92370   8.728   2.225   5.451 -0.6325 -0.6561 -1.1941
  700MOL0     H92371   8.726   2.248   5.272 -0.5021  2.0082 -1.8592
  700MOL0     H92372   8.519   2.151   5.488  2.4392  0.4572  0.6293
  700MOL0     H92373   8.456   2.252   5.345  2.5170  2.4808 -0.4083
  700MOL0     H92374   8.609   1.998   5.310 -0.8021 -1.4682 -1.5137
  700MOL0     H92375   8.505   2.096   5.199  2.6280  0.9044 -1.0028
  700MOL0     H92376   8.304   2.013   5.353 -0.0209  0.8410  3.7866
  700MOL0     H92377   8.433   1.955   5.465  1.5640  0.6503 -0.5270
  700MOL0     H92378   8.495   1.786   5.287 -1.8074 -2.5441 -0.8553
  700MOL0     H92379   8.318   1.776   5.294  2.1124 -5.3154 -1.7521
  700MOL0     H92380   8.412   1.770   5.082 -0.0691  0.9469 -0.5421
  700MOL0     H92381   8.509   1.893   5.109 -0.2414  0.6525  1.5449
  700MOL0     H92382   9.065   2.608   5.464  4.1121  4.0057 -0.0624
  700MOL0     H92383   9.180   2.721   5.643 -0.3707  2.1653  0.3232
  700MOL0     H92384   9.096   2.838   6.107  1.2555  0.8037  2.1926
  700MOL0     H92385   9.255   2.852   6.293 -1.3970 -0.8345 -0.4630
  700MOL0     H92386   9.293   1.588   5.730  0.2542  0.8610  0.2474
  700MOL0     H92387   9.076   1.493   5.691 -4.4328  0.0030  0.9233
  700MOL0     H92388   8.605   1.588   5.855 -0.5035 -2.2842 -0.3670
  700MOL0     H92389   8.365   1.637   5.794 -3.0200  1.8732 -2.5703
  700MOL0     H92390   8.193   1.680   5.695 -1.2898  1.0237 -0.4547
  700MOL0     H92391   8.163   1.508   5.713  1.4440  0.6840  1.8433
  700MOL0     H92392   8.013   1.513   5.519 -1.6027  1.2084  0.5188
  700MOL0     H92393   7.957   1.625   5.652 -2.7551 -0.5381 -2.2144
  700MOL0     H92394   8.115   1.692   5.411 -0.1557  1.2965  0.4823
  700MOL0     H92395   8.048   1.810   5.530 -3.8742 -0.3975  1.6681
  700MOL0     H92396   7.817   1.718   5.475 -0.6018  2.0306 -0.0069
  700MOL0     H92397   7.902   1.801   5.341  4.4197 -2.0818 -1.3192
  700MOL0     H92398   7.921   1.449   5.136 -0.4237  0.9952 -1.7259
  700MOL0     H92399   8.450   1.497   5.403  1.0783  2.8609 -0.8195
  700MOL0     H92400   8.678   1.449   5.454 -0.6916  1.6400 -1.2762
  701MOL0     O92401   4.442   5.532   9.145 -0.3832 -0.9199  0.1314
  701MOL0     C92402   4.391   5.641   9.183  0.1659  1.1397 -0.1588
  701MOL0     O92403   4.456   5.746   9.263 -1.2349  0.2633 -0.1137
  701MOL0     C92404   4.576   5.724   9.320  0.4199  0.1954 -0.0925
  701MOL0     C92405   4.674   5.639   9.277  1.1406  0.0589  0.2585
  701MOL0     C92406   4.806   5.633   9.333  0.1578 -0.0831 -0.3192
  701MOL0     C92407   4.840   5.736   9.422 -0.3352 -0.4718  0.0622
  701MOL0     O92408   4.968   5.772   9.451 -0.2006  0.7437 -0.1662
  701MOL0     C92409   5.078   5.715   9.364 -0.3867 -0.7437 -0.6754
  701MOL0     C92410   5.158   5.602   9.417  0.6740  0.5721 -0.0470
  701MOL0     C92411   5.200   5.627   9.561 -1.2862 -1.1500 -0.2978
  701MOL0     C92412   5.318   5.543   9.596  0.0439  0.5768 -0.3418
  701MOL0     C92413   5.276   5.409   9.662  0.6056 -0.1206 -0.2200
  701MOL0     C92414   5.198   5.404   9.792  0.1589 -0.0386 -0.6241
  701MOL0     C92415   5.191   5.265   9.854 -0.1605  0.2628  0.3371
  701MOL0     C92416   5.131   5.170   9.769 -0.0976 -0.4560  0.2685
  701MOL0     N92417   5.111   5.039   9.842 -0.6802 -0.4295  0.1360
  701MOL0     C92418   5.019   5.008   9.939 -0.9922 -0.0155  0.6793
  701MOL0     C92419   5.032   4.873   9.952 -0.5143 -0.4186 -0.4300
  701MOL0     C92420   4.948   4.796  10.034  0.7066  0.3937  0.0347
  701MOL0     C92421   4.850   4.861  10.131  0.1143 -0.5693  0.4031
  701MOL0     C92422   4.909   4.902  10.261  0.2622  0.4844  0.0532
  701MOL0     C92423   4.971   5.040  10.263  0.2806  0.1062  0.6678
  701MOL0     O92424   4.868   5.138  10.232 -0.9364  0.1189 -0.5025
  701MOL0     C92425   4.799   5.191  10.344 -0.4249 -0.4745  0.6793
  701MOL0     C92426   4.849   5.205  10.474 -0.0075 -0.2330 -0.3448
  701MOL0     C92427   4.761   5.265  10.572 -0.1322  1.0651  0.0779
  701MOL0     C92428   4.639   5.314  10.543  1.3342 -0.2467 -0.8913
  701MOL0     C92429   4.564   5.374  10.647 -0.5538  0.1015  0.3011
  701MOL0     O92430   4.642   5.424  10.747 -0.3496  0.4339 -0.1643
  701MOL0     C92431   4.578   5.531  10.800  0.2064 -0.3068  0.1424
  701MOL0     C92432   4.526   5.641  10.731 -0.6088  0.3390  0.1055
  701MOL0     C92433   4.496   5.754  10.808  0.8559 -0.0727  0.2269
  701MOL0     C92434   4.495   5.753  10.951 -0.0705 -0.3524 -0.0214
  701MOL0     O92435   4.456   5.847  11.041 -0.2543 -0.9015  0.2560
  701MOL0     C92436   4.405   5.978  10.990 -0.7550  0.2817 -0.4044
  701MOL0     C92437   4.355   6.061  11.112 -0.0464  0.0833  0.0466
  701MOL0     C92438   4.427   6.039  11.248 -0.2003 -0.1036 -0.8064
  701MOL0     C92439   4.368   6.131  11.347  1.4141 -0.1313  0.3677
  701MOL0     C92440   4.408   6.271  11.319 -0.8158 -0.5370 -0.5382
  701MOL0     C92441   4.410   6.374  11.435 -0.5811 -0.5525  0.3078
  701MOL0     C92442   4.272   6.443  11.465  0.3787 -0.5149 -0.9216
  701MOL0     C92443   4.238   6.567  11.388 -0.7847  0.1305 -0.2665
  701MOL0    Cl92444   4.353   6.695  11.435  0.4677  0.2035  0.0984
  701MOL0     C92445   4.538   5.643  11.012 -0.4931  0.3539 -0.5348
  701MOL0     C92446   4.581   5.530  10.940  0.0458  0.9426  0.5340
  701MOL0     O92447   4.443   5.395  10.628 -0.6332  0.4761 -0.6436
  701MOL0     C92448   4.593   5.297  10.409 -0.4368 -0.1005  0.3391
  701MOL0     C92449   4.667   5.232  10.319 -0.7847  0.2681 -0.4345
  701MOL0     N92450   5.143   4.829   9.873  0.1612  0.0204  0.0188
  701MOL0     N92451   5.189   4.931   9.810 -0.3903  0.5693 -0.3112
  701MOL0     C92452   4.740   5.805   9.485  0.2920  0.3326  0.4845
  701MOL0     C92453   4.614   5.806   9.423  0.5981 -0.2456 -0.9305
  701MOL0     C92454   4.255   5.677   9.129  1.1975 -1.0014 -0.0734
  701MOL0     C92455   4.168   5.609   9.053 -0.3238  0.3019  0.3326
  701MOL0     C92456   4.029   5.649   9.030 -0.5015  0.7375  0.6011
  701MOL0     C92457   3.978   5.766   9.083  0.3906  0.7422 -0.4669
  701MOL0     O92458   3.838   5.772   9.079  0.1078 -0.2688  0.6999
  701MOL0     C92459   3.760   5.892   9.096  0.1712 -0.3719 -0.7663
  701MOL0     C92460   3.693   5.933   8.966 -0.1351 -0.3513  0.1181
  701MOL0     C92461   3.791   5.975   8.863  1.3914  0.8689 -0.1750
  701MOL0     C92462   3.834   6.115   8.888  0.6242  0.0211 -0.0587
  701MOL0     C92463   3.909   6.171   8.776  0.6369  0.0942  0.9169
  701MOL0     C92464   3.955   6.218   8.675  1.2883 -0.2966 -0.4029
  701MOL0     C92465   4.073   5.843   9.149 -0.2167 -0.2879  0.0546
  701MOL0     C92466   4.201   5.797   9.175 -0.0621  0.4924 -1.0371
  701MOL0     H92467   4.658   5.559   9.205 -0.5639  1.6022 -1.1624
  701MOL0     H92468   4.877   5.562   9.292  3.0161  1.4666  1.6193
  701MOL0     H92469   5.146   5.799   9.350 -1.6152  0.4428  0.2026
  701MOL0     H92470   5.044   5.698   9.262  0.8411 -1.7979 -0.9304
  701MOL0     H92471   5.235   5.564   9.349 -0.4203 -3.5269  0.7128
  701MOL0     H92472   5.099   5.510   9.416  2.5553 -0.7044 -1.6855
  701MOL0     H92473   5.117   5.608   9.629 -1.1621  0.7960  0.4557
  701MOL0     H92474   5.219   5.734   9.570 -2.9324 -0.8277 -0.3750
  701MOL0     H92475   5.382   5.532   9.509 -1.3280 -1.6962 -1.1448
  701MOL0     H92476   5.378   5.604   9.664 -0.7763  0.5393  0.4377
  701MOL0     H92477   5.367   5.350   9.677  0.2159 -1.3825 -2.4241
  701MOL0     H92478   5.229   5.346   9.586  2.4523 -1.6061 -0.2204
  701MOL0     H92479   5.097   5.439   9.769 -0.2723 -0.1715  0.9306
  701MOL0     H92480   5.218   5.470   9.877 -0.9805 -3.8649  2.9725
  701MOL0     H92481   5.288   5.228   9.888 -0.9155  1.0371  3.7488
  701MOL0     H92482   5.138   5.283   9.948  0.1788  0.9576  0.4018
  701MOL0     H92483   5.197   5.153   9.684  1.3838 -0.2706  1.3323
  701MOL0     H92484   5.034   5.200   9.728  0.3456 -2.5682 -2.5797
  701MOL0     H92485   4.945   5.076   9.980 -0.8769  0.3853  0.2302
  701MOL0     H92486   5.022   4.736  10.088  2.0454  1.2511 -0.7746
  701MOL0     H92487   4.895   4.728   9.967  0.4000 -2.1793  2.6780
  701MOL0     H92488   4.776   4.781  10.142  0.2242 -0.8646 -0.8646
  701MOL0     H92489   4.801   4.952  10.096  1.7585  0.9356  1.8573
  701MOL0     H92490   4.841   4.894  10.346  1.2276 -1.0102  0.7491
  701MOL0     H92491   4.995   4.838  10.283  1.1882  2.1896  1.7322
  701MOL0     H92492   5.061   5.054  10.202  0.5799  0.0905  1.0975
  701MOL0     H92493   5.008   5.046  10.366  2.8340 -0.7643 -0.1189
  701MOL0     H92494   4.952   5.198  10.506  0.5149  4.0467 -0.4730
  701MOL0     H92495   4.807   5.271  10.670 -1.4588  2.3733  0.6617
  701MOL0     H92496   4.531   5.635  10.622  0.2377 -2.5303  0.2274
  701MOL0     H92497   4.448   5.839  10.761 -0.0612 -1.3886 -1.3398
  701MOL0     H92498   4.325   5.942  10.924 -0.5890  0.3230 -0.6301
  701MOL0     H92499   4.480   6.028  10.928  0.9242  0.2175  1.4915
  701MOL0     H92500   4.250   6.031  11.117 -1.5395  4.2841 -1.5643
  701MOL0     H92501   4.348   6.165  11.080  1.4309 -0.6172 -2.9243
  701MOL0     H92502   4.536   6.046  11.242  0.0903 -1.7498  1.2930
  701MOL0     H92503   4.406   5.934  11.274 -3.9537 -0.3010 -3.6843
  701MOL0     H92504   4.259   6.127  11.345  1.2606  2.4865 -0.1242
  701MOL0     H92505   4.392   6.100  11.449  0.8059 -2.6475 -0.1981
  701MOL0     H92506   4.365   6.316  11.229  1.5874  2.9012 -0.1397
  701MOL0     H92507   4.509   6.278  11.278 -2.1272  2.8952 -3.8558
  701MOL0     H92508   4.476   6.459  11.414 -0.6213 -0.4994  0.3927
  701MOL0     H92509   4.449   6.334  11.529 -1.7862 -2.0995  0.1938
  701MOL0     H92510   4.194   6.368  11.447  0.7914 -0.1119 -5.5483
  701MOL0     H92511   4.275   6.465  11.572 -0.5238 -2.7692 -0.3638
  701MOL0     H92512   4.137   6.601  11.411  0.2471  0.8760  3.9911
  701MOL0     H92513   4.245   6.542  11.281 -3.5641 -0.4261 -0.3743
  701MOL0     H92514   4.556   5.642  11.120 -1.6452 -0.7175 -0.3305
  701MOL0     H92515   4.611   5.435  10.981 -0.6194 -1.6137 -4.1997
  701MOL0     H92516   4.501   5.351  10.386 -1.8186 -1.5571  2.1675
  701MOL0     H92517   4.617   5.219  10.223 -0.9562  2.0892 -0.6198
  701MOL0     H92518   4.777   5.881   9.553  3.5053  1.5227 -2.3063
  701MOL0     H92519   4.537   5.866   9.472  0.5654 -0.6510 -0.4798
  701MOL0     H92520   4.193   5.513   9.010  0.3280  1.1215 -1.1987
  701MOL0     H92521   3.968   5.587   8.965  0.6087 -0.6239  0.8035
  701MOL0     H92522   3.831   5.971   9.120 -1.6631  1.1704 -0.1374
  701MOL0     H92523   3.688   5.873   9.176 -1.1051  0.7500 -1.5964
  701MOL0     H92524   3.633   5.849   8.931  1.4159 -0.4302 -2.5943
  701MOL0     H92525   3.621   6.015   8.980  0.5140  0.2878 -0.2369
  701MOL0     H92526   3.736   5.974   8.769  1.8194 -0.5004 -0.4395
  701MOL0     H92527   3.883   5.916   8.856  1.7510  1.1723  1.4723
  701MOL0     H92528   3.757   6.187   8.915 -1.5442 -1.7294 -1.2172
  701MOL0     H92529   3.912   6.109   8.964  2.1997  0.9456 -1.5206
  701MOL0     H92530   3.976   6.255   8.576 -2.5889  2.3397 -0.4647
  701MOL0     H92531   4.059   5.937   9.201  1.7040  1.6108 -2.6086
  701MOL0     H92532   4.267   5.867   9.225 -1.3166  2.1141 -1.5430
  702MOL0     O92533   5.055  10.040   1.996 -0.1478 -0.4846  0.0346
  702MOL0     C92534   5.068  10.058   2.120  0.6986  1.1655  0.1695
  702MOL0     O92535   4.973  10.017   2.213  0.0246 -0.6656  0.0225
  702MOL0     C92536   4.855   9.953   2.164  0.0315  0.6795 -0.2994
  702MOL0     C92537   4.816   9.826   2.203 -0.5918  0.3640  1.6212
  702MOL0     C92538   4.684   9.767   2.171  0.8425  0.6464 -0.0302
  702MOL0     C92539   4.594   9.841   2.089 -0.1569 -0.0229  0.2876
  702MOL0     O92540   4.487   9.772   2.033  0.2058  0.6641 -1.0723
  702MOL0     C92541   4.378   9.851   1.996  0.7358 -0.8258  0.3107
  702MOL0     C92542   4.263   9.780   1.916  1.0655 -0.5730  0.6035
  702MOL0     C92543   4.167   9.884   1.859  0.5021 -0.3079 -0.6357
  702MOL0     C92544   4.057   9.821   1.769  0.4624 -0.0845 -0.5325
  702MOL0     C92545   3.971   9.712   1.837  0.2735  0.4730  0.0965
  702MOL0     C92546   3.859   9.655   1.748 -0.7469  0.2356 -0.5098
  702MOL0     C92547   3.799   9.546   1.820 -0.0269  0.4173 -0.3016
  702MOL0     C92548   3.657   9.506   1.776 -0.6199 -0.5283 -0.1373
  702MOL0     N92549   3.571   9.617   1.785  0.2606  0.2489 -0.6299
  702MOL0     C92550   3.529   9.664   1.912 -0.4592  0.4914 -0.5971
  702MOL0     C92551   3.436   9.753   1.886  0.2230 -0.3347 -0.7803
  702MOL0     C92552   3.372   9.852   1.989  0.9473 -0.1336  0.1145
  702MOL0     C92553   3.211   9.867   1.987  0.2160  0.9687  0.6066
  702MOL0     C92554   3.151   9.821   2.116  0.2672 -1.8822  0.4210
  702MOL0     C92555   2.995   9.845   2.110  0.2976 -0.2064 -0.4319
  702MOL0     O92556   2.941   9.817   2.244  0.2837  0.6029  0.2666
  702MOL0     C92557   2.806   9.848   2.264 -0.2260  0.1050  0.2805
  702MOL0     C92558   2.724   9.911   2.169 -0.7939  1.2557 -0.3351
  702MOL0     C92559   2.590   9.956   2.201  0.8393 -0.5435 -0.9554
  702MOL0     C92560   2.543   9.949   2.341  0.2486  0.3462  0.4045
  702MOL0     C92561   2.413   9.990   2.371  0.3807 -1.0754 -0.8403
  702MOL0     O92562   2.359   9.971   2.499 -0.1734 -0.7021 -0.0356
  702MOL0     C92563   2.228  10.021   2.511 -0.5164 -0.0392  0.2751
  702MOL0     C92564   2.112   9.954   2.455 -0.0794 -0.3777 -0.3120
  702MOL0     C92565   1.986  10.011   2.466  0.2297  0.0434 -1.0036
  702MOL0     C92566   1.976  10.132   2.549 -0.8999  0.3215  0.4082
  702MOL0     O92567   1.858  10.183   2.555 -0.6093  0.1475  0.4459
  702MOL0     C92568   1.806  10.246   2.678 -0.2949 -0.0900 -0.3887
  702MOL0     C92569   1.732  10.131   2.764  0.3742 -0.4156  0.4946
  702MOL0     C92570   1.656  10.035   2.678  0.0440 -0.7244 -0.3026
  702MOL0     C92571   1.590   9.932   2.766 -1.4732 -0.5187  0.3515
  702MOL0     C92572   1.684   9.810   2.808  0.7874  0.0730 -0.3742
  702MOL0     C92573   1.746   9.838   2.945  0.2033  1.0644 -0.4416
  702MOL0     C92574   1.886   9.798   2.948  0.2094  0.3015 -0.2587
  702MOL0     C92575   1.944   9.805   3.088 -0.0371 -0.0348 -0.5115
  702MOL0    Cl92576   2.111   9.739   3.090  0.0386  0.2003  0.5784
  702MOL0     C92577   2.092  10.197   2.603  0.0765 -0.0803 -0.0701
  702MOL0     C92578   2.217  10.153   2.574  0.8816  0.3721  0.3140
  702MOL0     O92579   2.355  10.054   2.285  0.4978 -0.2568 -0.2778
  702MOL0     C92580   2.641   9.907   2.433 -0.6920  0.4979 -1.1848
  702MOL0     C92581   2.762   9.851   2.391  0.5209 -0.2622 -0.9320
  702MOL0     N92582   3.409   9.754   1.745 -1.1191 -0.1169 -0.8824
  702MOL0     N92583   3.485   9.675   1.683 -0.5770  0.3478  0.5589
  702MOL0     C92584   4.637   9.971   2.051 -0.4027 -0.3532  0.5201
  702MOL0     C92585   4.764  10.020   2.080 -0.0712  0.2879 -1.0221
  702MOL0     C92586   5.187  10.123   2.173  0.0248 -0.2785 -0.3670
  702MOL0     C92587   5.225  10.105   2.312 -0.9001 -0.4781 -0.1198
  702MOL0     C92588   5.340  10.175   2.364 -0.2599  0.5149 -0.3265
  702MOL0     C92589   5.421  10.255   2.286 -0.0901  0.2248  0.2684
  702MOL0     O92590   5.530  10.325   2.331 -0.4919 -1.0777 -0.2924
  702MOL0     C92591   5.576  10.299   2.463  1.5898  0.2066 -1.0218
  702MOL0     C92592   5.713  10.358   2.466  0.2854 -0.0847  0.4079
  702MOL0     C92593   5.787  10.357   2.599  0.2196  0.5852  0.4914
  702MOL0     C92594   5.918  10.425   2.612  0.5120  0.1684  1.0185
  702MOL0     C92595   5.911  10.570   2.575 -0.7745  0.3434  1.1922
  702MOL0     C92596   5.904  10.684   2.544  0.5104 -0.3084 -0.1318
  702MOL0     C92597   5.372  10.278   2.156  0.4959 -0.0700  0.1255
  702MOL0     C92598   5.261  10.212   2.103  0.5772 -0.0759  0.6769
  702MOL0     H92599   4.884   9.759   2.255 -0.7444 -0.1935  1.1106
  702MOL0     H92600   4.658   9.668   2.206 -4.0764  1.7174  0.0037
  702MOL0     H92601   4.415   9.921   1.920  1.0197 -1.2182  0.0788
  702MOL0     H92602   4.345   9.905   2.085  2.9228  4.1295 -1.4725
  702MOL0     H92603   4.212   9.704   1.974 -0.7260 -0.0357 -0.2059
  702MOL0     H92604   4.314   9.717   1.842 -1.6815 -3.5439  1.0667
  702MOL0     H92605   4.220   9.959   1.800  0.4563  1.8830  1.8957
  702MOL0     H92606   4.130   9.932   1.950  1.2432  0.6692 -0.8363
  702MOL0     H92607   3.994   9.908   1.748 -0.6828 -0.3682  1.4550
  702MOL0     H92608   4.105   9.781   1.680 -0.7340  0.0801 -1.2683
  702MOL0     H92609   3.925   9.773   1.915 -1.6347 -3.3951  2.2426
  702MOL0     H92610   4.037   9.635   1.877  1.1068  0.3385 -1.4488
  702MOL0     H92611   3.908   9.619   1.658  2.0544  1.6455  0.3038
  702MOL0     H92612   3.783   9.732   1.730 -0.8527 -0.1805 -1.9279
  702MOL0     H92613   3.862   9.457   1.819 -0.0151  0.4088  0.5726
  702MOL0     H92614   3.817   9.571   1.925  3.6001 -0.4012 -0.5773
  702MOL0     H92615   3.605   9.436   1.842 -2.3990  1.8551  1.1241
  702MOL0     H92616   3.665   9.477   1.671 -0.2633 -1.6890  0.1906
  702MOL0     H92617   3.588   9.647   2.002  0.2454  2.4943 -0.6404
  702MOL0     H92618   3.410   9.954   1.981  1.0783 -0.3315 -3.6600
  702MOL0     H92619   3.412   9.819   2.085  1.1035  0.0774  0.1235
  702MOL0     H92620   3.179   9.796   1.911  2.0589 -0.7714  1.3670
  702MOL0     H92621   3.180   9.963   1.944  1.1397 -0.5487 -4.0099
  702MOL0     H92622   3.184   9.718   2.127  3.9242 -0.9058 -0.1459
  702MOL0     H92623   3.191   9.876   2.201 -0.9950 -0.6840  0.2791
  702MOL0     H92624   2.947   9.787   2.031 -2.3408 -1.1783  1.7264
  702MOL0     H92625   2.974   9.951   2.091 -3.3781 -0.8183 -0.5107
  702MOL0     H92626   2.751   9.902   2.065 -0.4993 -0.1562 -0.1678
  702MOL0     H92627   2.517   9.991   2.129 -0.6911 -2.0740 -0.1962
  702MOL0     H92628   2.116   9.872   2.384  0.1563  1.0630 -2.0394
  702MOL0     H92629   1.901   9.972   2.411  0.0993  0.8217 -1.3673
  702MOL0     H92630   1.724  10.316   2.657  0.3440  1.0136  0.6560
  702MOL0     H92631   1.879  10.299   2.741  0.3095  2.9604 -3.2924
  702MOL0     H92632   1.664  10.190   2.827 -0.4569  1.0189 -1.6225
  702MOL0     H92633   1.810  10.093   2.830  1.1518 -1.1124 -0.7872
  702MOL0     H92634   1.723   9.985   2.607 -2.1698 -2.7915 -1.0766
  702MOL0     H92635   1.583  10.098   2.627  0.8507  1.7023  1.3953
  702MOL0     H92636   1.535   9.975   2.850 -2.8464 -3.2477  0.9716
  702MOL0     H92637   1.508   9.893   2.705 -0.3751  1.3689 -2.5225
  702MOL0     H92638   1.762   9.788   2.734  2.4319  2.2838  0.5873
  702MOL0     H92639   1.625   9.718   2.815  2.4368 -1.1071 -1.1350
  702MOL0     H92640   1.695   9.772   3.016 -0.5053  0.1402 -1.7646
  702MOL0     H92641   1.731   9.943   2.974 -0.2394  0.6542  0.8818
  702MOL0     H92642   1.895   9.692   2.926 -0.8440 -0.0224  0.7841
  702MOL0     H92643   1.943   9.864   2.881 -1.2061  0.6672 -1.1518
  702MOL0     H92644   1.883   9.732   3.143 -1.2080  1.4536  0.2671
  702MOL0     H92645   1.930   9.902   3.136 -3.8642  0.2165 -1.7408
  702MOL0     H92646   2.084  10.283   2.669 -2.3977  0.1396 -0.5512
  702MOL0     H92647   2.304  10.211   2.600  1.0260  0.9260 -1.2763
  702MOL0     H92648   2.628   9.909   2.540 -2.0295  1.1706 -1.3460
  702MOL0     H92649   2.825   9.815   2.471  0.4594 -4.2895 -2.4365
  702MOL0     H92650   4.579  10.029   1.980 -0.9870 -0.5547  0.8294
  702MOL0     H92651   4.796  10.118   2.046  1.3990 -1.1211 -4.1168
  702MOL0     H92652   5.165  10.038   2.372  1.0092 -2.2495 -0.0993
  702MOL0     H92653   5.355  10.158   2.470  1.7679  2.0851 -0.3077
  702MOL0     H92654   5.587  10.192   2.484 -1.0939  0.4385  2.4106
  702MOL0     H92655   5.519  10.341   2.546  1.9246 -1.7776  0.2975
  702MOL0     H92656   5.769  10.308   2.386 -0.0042  4.5308 -3.0845
  702MOL0     H92657   5.711  10.466   2.447  0.2593 -0.1782 -0.1345
  702MOL0     H92658   5.801  10.249   2.611 -2.7440 -0.3441 -2.6730
  702MOL0     H92659   5.719  10.377   2.683 -1.2711 -1.5744 -0.0959
  702MOL0     H92660   5.981  10.407   2.699 -2.5069  0.7587  3.5215
  702MOL0     H92661   5.975  10.374   2.534 -1.3766  0.1241 -0.4269
  702MOL0     H92662   5.913  10.789   2.522 -0.3747 -0.4332 -1.2157
  702MOL0     H92663   5.403  10.359   2.092 -1.7612  2.5365  2.0764
  702MOL0     H92664   5.224  10.240   2.005  0.9048 -0.3705  0.4676
  703MOL0     O92665   0.907   6.271   8.167 -0.1415  0.2130 -1.5804
  703MOL0     C92666   0.900   6.264   8.047  0.1293  0.8933  0.1734
  703MOL0     O92667   0.783   6.250   7.973 -0.0678 -0.0962 -0.3845
  703MOL0     C92668   0.651   6.287   8.012  0.4603  1.0481  0.1929
  703MOL0     C92669   0.607   6.290   8.149 -0.1532  0.7096 -0.0000
  703MOL0     C92670   0.476   6.334   8.181 -0.4608 -0.8034 -0.3494
  703MOL0     C92671   0.387   6.363   8.081  0.6195 -0.0305 -0.0207
  703MOL0     O92672   0.265   6.406   8.122  0.3702 -0.8503  0.7699
  703MOL0     C92673   0.212   6.514   8.039 -0.0566  0.3571  0.1475
  703MOL0     C92674   0.067   6.535   8.053 -0.3363  0.7187 -0.1080
  703MOL0     C92675   0.013   6.586   8.188 -0.2228  0.0829 -0.0970
  703MOL0     C92676  -0.140   6.578   8.197 -0.0845 -0.0482  0.1099
  703MOL0     C92677  -0.199   6.432   8.210  0.2874  0.4117 -0.3182
  703MOL0     C92678  -0.123   6.340   8.307 -0.3755  0.0157  0.1147
  703MOL0     C92679  -0.122   6.390   8.454 -0.4823 -0.0999  0.4571
  703MOL0     C92680  -0.119   6.269   8.560 -0.2540  0.3899  0.4447
  703MOL0     N92681  -0.235   6.178   8.549 -0.5104 -0.2491  0.1563
  703MOL0     C92682  -0.356   6.215   8.587 -0.1647  0.0819 -0.1906
  703MOL0     C92683  -0.438   6.115   8.549 -0.6405 -0.6486  0.3926
  703MOL0     C92684  -0.589   6.119   8.547  0.2622 -0.2807  0.0144
  703MOL0     C92685  -0.646   5.997   8.617 -0.2607 -0.3763  0.1544
  703MOL0     C92686  -0.614   5.863   8.548 -0.0373 -0.3462 -0.2032
  703MOL0     C92687  -0.719   5.753   8.581  0.7895 -0.2588 -0.2303
  703MOL0     O92688  -0.847   5.771   8.525 -0.4064  0.2631 -1.0376
  703MOL0     C92689  -0.959   5.780   8.609 -1.2842  0.1930 -0.3541
  703MOL0     C92690  -0.965   5.728   8.751 -0.8549 -0.0297 -0.0827
  703MOL0     C92691  -1.084   5.726   8.823  0.0954  0.8599  0.2872
  703MOL0     C92692  -1.188   5.800   8.767 -0.6288 -0.7041 -0.4341
  703MOL0     C92693  -1.307   5.832   8.845 -0.2447  1.0541 -0.5310
  703MOL0     O92694  -1.299   5.763   8.969  0.4202 -0.4506 -0.3046
  703MOL0     C92695  -1.381   5.782   9.076 -0.0615 -0.3018  0.4968
  703MOL0     C92696  -1.335   5.834   9.193 -0.5553  0.6155 -0.5587
  703MOL0     C92697  -1.412   5.851   9.304 -0.3403  0.4228  0.4925
  703MOL0     C92698  -1.547   5.818   9.308  0.1229 -0.6572  0.9032
  703MOL0     O92699  -1.632   5.840   9.409  0.0883 -0.2964 -0.9337
  703MOL0     C92700  -1.580   5.889   9.530 -0.6256  0.4891 -0.7554
  703MOL0     C92701  -1.669   5.919   9.647 -0.1604 -0.7278 -0.1707
  703MOL0     C92702  -1.757   5.802   9.703 -1.5798 -0.4110  1.1822
  703MOL0     C92703  -1.675   5.691   9.788 -0.4365  0.9654  0.1236
  703MOL0     C92704  -1.750   5.564   9.828 -0.1654  0.4130  0.3380
  703MOL0     C92705  -1.688   5.491   9.960  0.0708 -0.2676  0.0077
  703MOL0     C92706  -1.759   5.355  10.001 -0.3340 -0.7189  0.5604
  703MOL0     C92707  -1.750   5.240   9.906  0.1255 -0.0292  0.2416
  703MOL0    Cl92708  -1.610   5.133   9.936  0.0695  0.2813  0.3634
  703MOL0     C92709  -1.602   5.802   9.178 -0.5282 -0.1843 -0.6038
  703MOL0     C92710  -1.516   5.777   9.072 -0.7340 -0.0210  0.6925
  703MOL0     O92711  -1.413   5.887   8.805  0.0271  0.2123  0.2324
  703MOL0     C92712  -1.187   5.845   8.637 -0.8206  0.0343 -0.0874
  703MOL0     C92713  -1.075   5.834   8.556 -0.3116  0.7535 -0.3256
  703MOL0     N92714  -0.357   6.011   8.493 -0.0068  0.3359 -0.6604
  703MOL0     N92715  -0.235   6.053   8.492  0.7116  0.3164  0.5158
  703MOL0     C92716   0.426   6.350   7.942  0.1014 -0.6997 -1.0101
  703MOL0     C92717   0.556   6.312   7.910  0.2762 -0.2970 -0.7474
  703MOL0     C92718   1.021   6.280   7.963  0.1474 -0.4508 -0.0807
  703MOL0     C92719   1.137   6.232   8.014  0.2351 -0.1142  0.1319
  703MOL0     C92720   1.257   6.266   7.948  0.7499 -0.2048 -0.4156
  703MOL0     C92721   1.265   6.333   7.823  0.0541  0.4260 -0.4970
  703MOL0     O92722   1.390   6.361   7.774 -0.1243 -0.9616  0.3509
  703MOL0     C92723   1.413   6.438   7.655  1.0783  0.9676 -1.1056
  703MOL0     C92724   1.381   6.588   7.677 -0.7364  0.1360  0.2347
  703MOL0     C92725   1.452   6.695   7.597  0.0975 -1.6894  0.3383
  703MOL0     C92726   1.433   6.678   7.444  0.5956 -0.3221  0.9322
  703MOL0     C92727   1.285   6.675   7.408 -0.9002  0.2825  0.1660
  703MOL0     C92728   1.169   6.670   7.375 -0.8561  0.3697 -0.1866
  703MOL0     C92729   1.142   6.372   7.773 -0.0986  1.2197  0.1589
  703MOL0     C92730   1.021   6.349   7.833 -0.1378  0.6084 -0.3607
  703MOL0     H92731   0.678   6.258   8.224  2.1216 -0.6510 -2.5378
  703MOL0     H92732   0.431   6.328   8.279  0.6196 -2.6502  0.0850
  703MOL0     H92733   0.225   6.509   7.930  2.5662 -1.3765  0.4434
  703MOL0     H92734   0.267   6.600   8.078 -1.1241  1.1425 -0.0257
  703MOL0     H92735   0.020   6.438   8.031  2.0556 -0.2017 -1.6010
  703MOL0     H92736   0.024   6.600   7.976  0.9628  0.7075 -0.8732
  703MOL0     H92737   0.039   6.691   8.205 -1.4632  0.4548 -0.3943
  703MOL0     H92738   0.053   6.525   8.269  0.3193  0.5324 -0.0263
  703MOL0     H92739  -0.180   6.622   8.289 -1.7021 -0.9205 -0.1432
  703MOL0     H92740  -0.188   6.628   8.113 -1.0441 -2.0301 -0.5766
  703MOL0     H92741  -0.190   6.381   8.114 -0.7431  1.6309 -1.1007
  703MOL0     H92742  -0.304   6.451   8.237  0.5903  0.5824  0.8016
  703MOL0     H92743  -0.018   6.327   8.280 -0.0247  1.4892  0.6755
  703MOL0     H92744  -0.164   6.239   8.308 -0.0645 -0.1145 -0.2055
  703MOL0     H92745  -0.031   6.449   8.468  1.0029 -1.5902 -2.2436
  703MOL0     H92746  -0.213   6.450   8.471 -1.1287 -1.3061  1.4021
  703MOL0     H92747  -0.108   6.315   8.658  2.6796  1.7832 -0.4318
  703MOL0     H92748  -0.040   6.194   8.565 -2.2965 -1.8555  1.1616
  703MOL0     H92749  -0.382   6.309   8.633  1.8415  0.3447  0.5184
  703MOL0     H92750  -0.630   6.131   8.446 -0.7262  2.4897  0.6553
  703MOL0     H92751  -0.627   6.203   8.607  1.0644  2.2862 -2.8740
  703MOL0     H92752  -0.755   6.009   8.618 -0.4724 -1.3590 -2.7281
  703MOL0     H92753  -0.602   5.998   8.717 -0.2803  0.7593  0.1654
  703MOL0     H92754  -0.614   5.875   8.439  5.0803  1.0399 -0.2779
  703MOL0     H92755  -0.520   5.819   8.581  0.7029  2.2180  1.3381
  703MOL0     H92756  -0.726   5.772   8.689  1.1073  1.5157 -0.4880
  703MOL0     H92757  -0.672   5.659   8.551 -0.6410 -0.1717 -3.0504
  703MOL0     H92758  -0.877   5.696   8.806 -1.2517 -1.5870 -0.2958
  703MOL0     H92759  -1.099   5.676   8.918 -2.2198  1.6407  0.4068
  703MOL0     H92760  -1.227   5.843   9.202 -0.3218 -1.1007 -1.3279
  703MOL0     H92761  -1.370   5.895   9.394 -1.6772  1.3668  0.6928
  703MOL0     H92762  -1.542   5.990   9.510 -1.8602  2.3999  4.6815
  703MOL0     H92763  -1.505   5.816   9.562 -2.1305 -0.9835 -0.4775
  703MOL0     H92764  -1.735   6.003   9.624 -1.5014 -0.6234  3.3943
  703MOL0     H92765  -1.607   5.940   9.735  0.8251 -2.0924 -0.5173
  703MOL0     H92766  -1.799   5.748   9.617 -1.5091  1.1047  0.1632
  703MOL0     H92767  -1.846   5.835   9.757 -4.0420 -0.1115 -2.6766
  703MOL0     H92768  -1.579   5.664   9.743  0.3996 -0.2365  2.4668
  703MOL0     H92769  -1.640   5.735   9.882 -0.7823  0.9312  0.2725
  703MOL0     H92770  -1.746   5.505   9.736  2.1967 -0.2391  0.7926
  703MOL0     H92771  -1.853   5.596   9.850 -0.1538  0.9894 -0.3888
  703MOL0     H92772  -1.728   5.559  10.035 -1.9748 -0.4086 -0.8858
  703MOL0     H92773  -1.580   5.475   9.964  0.3324  1.3276  4.1096
  703MOL0     H92774  -1.721   5.324  10.098  1.5163  2.4618  0.9942
  703MOL0     H92775  -1.867   5.371  10.012 -0.3115 -0.3804  0.2956
  703MOL0     H92776  -1.747   5.277   9.803  0.2604 -2.6091 -0.7526
  703MOL0     H92777  -1.840   5.180   9.919  0.2801 -0.1336  0.9013
  703MOL0     H92778  -1.703   5.772   9.155 -0.6595 -1.8272  1.7158
  703MOL0     H92779  -1.567   5.740   8.984 -0.2435 -1.1236  0.8554
  703MOL0     H92780  -1.279   5.884   8.596  0.1348  3.2467  0.5876
  703MOL0     H92781  -1.080   5.860   8.451 -1.1387  0.6823 -0.3050
  703MOL0     H92782   0.345   6.365   7.871  0.4933  1.5829 -1.0402
  703MOL0     H92783   0.591   6.302   7.808  1.3455 -3.3688 -0.1947
  703MOL0     H92784   1.156   6.190   8.113 -3.0994 -2.2482  0.0334
  703MOL0     H92785   1.352   6.240   7.993  0.6450  1.2512  0.7304
  703MOL0     H92786   1.351   6.400   7.574 -0.0940  1.4540 -0.4710
  703MOL0     H92787   1.511   6.422   7.611  0.5387  1.0180 -2.3737
  703MOL0     H92788   1.274   6.605   7.662 -0.7240 -0.9220 -1.2816
  703MOL0     H92789   1.389   6.605   7.785  1.5819  2.9055 -0.2629
  703MOL0     H92790   1.555   6.674   7.626 -0.4037 -1.4833  2.4455
  703MOL0     H92791   1.433   6.793   7.643  3.3516 -0.5733 -0.4440
  703MOL0     H92792   1.478   6.757   7.383 -0.1121 -2.2509 -2.3215
  703MOL0     H92793   1.481   6.586   7.410 -0.1436 -0.9156  1.4557
  703MOL0     H92794   1.064   6.670   7.355 -1.0715  0.2306  0.8508
  703MOL0     H92795   1.139   6.405   7.670  2.3225  1.6912  0.1665
  703MOL0     H92796   0.934   6.386   7.780  0.5484  0.6675 -1.4719
  704MOL0     O92797   2.533   3.489   2.559  0.4016 -0.4288 -0.1439
  704MOL0     C92798   2.475   3.549   2.655  0.9374  0.5385  0.0364
  704MOL0     O92799   2.537   3.614   2.758  0.4055 -0.4549 -1.1443
  704MOL0     C92800   2.657   3.566   2.803  0.3436 -0.1633  0.3996
  704MOL0     C92801   2.766   3.637   2.769  0.2039 -0.6255  0.4043
  704MOL0     C92802   2.894   3.593   2.796  0.2693  0.1897  0.2957
  704MOL0     C92803   2.901   3.477   2.879  0.2250  0.3407 -0.8497
  704MOL0     O92804   3.020   3.419   2.917  0.1888 -0.8763 -0.2229
  704MOL0     C92805   3.135   3.506   2.914 -0.7038 -0.5163  0.1430
  704MOL0     C92806   3.226   3.492   2.794  0.0095  0.0009 -1.0155
  704MOL0     C92807   3.340   3.589   2.783 -0.9399 -0.8455 -0.2307
  704MOL0     C92808   3.281   3.726   2.757 -0.6123  0.3010  0.5246
  704MOL0     C92809   3.386   3.825   2.695 -0.4017  0.1309  0.4255
  704MOL0     C92810   3.310   3.942   2.640  0.0375 -0.5308  0.5118
  704MOL0     C92811   3.401   4.001   2.535 -0.1431  0.5143 -0.5546
  704MOL0     C92812   3.319   4.114   2.470  0.5702  0.2145  0.7150
  704MOL0     N92813   3.332   4.243   2.529  0.1560  0.3357 -0.9648
  704MOL0     C92814   3.263   4.271   2.645  0.4929  0.4123 -0.9490
  704MOL0     C92815   3.321   4.385   2.686 -0.8646  0.0893  0.6050
  704MOL0     C92816   3.277   4.461   2.811 -0.2895  0.2466  1.6041
  704MOL0     C92817   3.200   4.597   2.786 -0.1549 -0.4771 -0.4472
  704MOL0     C92818   3.063   4.563   2.729  0.0051 -0.0531 -0.0315
  704MOL0     C92819   2.990   4.695   2.705 -0.0787 -0.1291 -0.6672
  704MOL0     O92820   2.862   4.663   2.656 -0.1098  0.8078 -0.3735
  704MOL0     C92821   2.764   4.760   2.655  0.8118  0.3668  1.2943
  704MOL0     C92822   2.627   4.730   2.646 -1.5425 -0.2039 -0.1918
  704MOL0     C92823   2.530   4.830   2.622  0.2714 -0.5283 -0.6162
  704MOL0     C92824   2.570   4.964   2.620 -0.0421 -0.0529  0.8043
  704MOL0     C92825   2.466   5.078   2.602  0.1976 -1.1180  0.1155
  704MOL0     O92826   2.345   5.035   2.631 -0.1900 -0.0662  0.3103
  704MOL0     C92827   2.246   5.116   2.671  0.3255 -0.4031  0.2734
  704MOL0     C92828   2.215   5.232   2.606  0.8544 -0.6763  0.4533
  704MOL0     C92829   2.108   5.311   2.648 -1.2713  0.3471 -0.2254
  704MOL0     C92830   2.038   5.279   2.766 -0.1214 -0.1013 -0.2078
  704MOL0     O92831   1.938   5.373   2.794 -0.3689  0.1308  0.5748
  704MOL0     C92832   1.825   5.333   2.876  0.2729  0.2788  0.1658
  704MOL0     C92833   1.727   5.449   2.889  1.2751 -0.6193  0.2044
  704MOL0     C92834   1.702   5.526   2.758 -0.5195 -0.3311 -0.6981
  704MOL0     C92835   1.636   5.438   2.654 -0.0452  0.5645 -0.3147
  704MOL0     C92836   1.624   5.520   2.527 -0.0918 -0.0794 -0.5021
  704MOL0     C92837   1.747   5.563   2.458  0.2356 -0.3313  0.0079
  704MOL0     C92838   1.732   5.627   2.320 -0.1705 -0.5472  0.4328
  704MOL0     C92839   1.617   5.739   2.322  0.2838  1.2275  0.1617
  704MOL0    Cl92840   1.598   5.803   2.164 -0.1716 -0.0143  0.5622
  704MOL0     C92841   2.077   5.160   2.840 -0.8521 -0.1547 -0.4698
  704MOL0     C92842   2.174   5.079   2.785 -0.1768  0.2764  0.2340
  704MOL0     O92843   2.505   5.196   2.581  0.4333 -1.0408  0.1663
  704MOL0     C92844   2.705   4.998   2.647 -0.4344 -0.1944  0.5032
  704MOL0     C92845   2.797   4.895   2.671 -0.3700 -0.3149  0.1762
  704MOL0     N92846   3.420   4.427   2.603 -0.1778 -1.0312  0.1729
  704MOL0     N92847   3.437   4.331   2.511  0.5073 -0.0888 -0.1735
  704MOL0     C92848   2.783   3.395   2.913  0.5282 -1.0057  0.1426
  704MOL0     C92849   2.658   3.444   2.875  0.8011 -0.0550 -1.2431
  704MOL0     C92850   2.331   3.586   2.643  0.5185  0.0753  0.0033
  704MOL0     C92851   2.284   3.698   2.703  0.1009  0.2626  0.3969
  704MOL0     C92852   2.151   3.740   2.692 -1.1191  0.3739  0.4985
  704MOL0     C92853   2.072   3.670   2.603  0.1439  0.4907  0.2221
  704MOL0     O92854   1.954   3.721   2.571 -0.1792  0.9324 -0.0283
  704MOL0     C92855   1.839   3.640   2.605 -0.6238  0.0156  0.2983
  704MOL0     C92856   1.785   3.667   2.750 -0.3380 -0.9091  0.2597
  704MOL0     C92857   1.714   3.797   2.793  0.8950 -1.1679  0.0671
  704MOL0     C92858   1.585   3.817   2.714 -0.5402  1.2207 -1.0010
  704MOL0     C92859   1.512   3.931   2.753  0.1841 -0.7590 -0.0659
  704MOL0     C92860   1.433   4.015   2.792 -0.3643 -1.4449  0.0206
  704MOL0     C92861   2.126   3.567   2.530  0.5159  0.7680  0.6282
  704MOL0     C92862   2.251   3.522   2.548  1.3394 -0.4302  0.2463
  704MOL0     H92863   2.752   3.722   2.702 -2.4016 -3.1644 -2.5844
  704MOL0     H92864   2.987   3.638   2.762  0.6324 -0.3906  0.5057
  704MOL0     H92865   3.198   3.470   2.996 -0.1266  0.4420  0.1366
  704MOL0     H92866   3.104   3.607   2.940 -0.1101 -0.3202  0.0831
  704MOL0     H92867   3.168   3.482   2.703 -2.4157  1.9633  0.2214
  704MOL0     H92868   3.290   3.405   2.816 -2.2965 -1.5899 -0.2424
  704MOL0     H92869   3.401   3.562   2.697  0.4957  0.3573  0.3632
  704MOL0     H92870   3.412   3.595   2.865  1.6214  1.3430 -2.4469
  704MOL0     H92871   3.201   3.717   2.683  1.0049 -0.3953 -1.2028
  704MOL0     H92872   3.234   3.763   2.849 -2.6429  1.0380 -0.7517
  704MOL0     H92873   3.441   3.776   2.614 -0.6212 -1.4999  1.2260
  704MOL0     H92874   3.459   3.860   2.768  0.1083  1.2905 -0.6046
  704MOL0     H92875   3.281   4.004   2.725 -1.9142  2.6263 -2.1923
  704MOL0     H92876   3.219   3.904   2.592  0.2750  1.5637 -1.7566
  704MOL0     H92877   3.486   4.044   2.588 -1.0169 -0.5263  1.8358
  704MOL0     H92878   3.426   3.918   2.469 -2.8944 -0.9572  0.0849
  704MOL0     H92879   3.216   4.085   2.447  0.8068  0.9013 -1.4706
  704MOL0     H92880   3.346   4.113   2.364 -3.0687  1.1141 -0.3599
  704MOL0     H92881   3.185   4.219   2.699  2.6780 -0.0947  1.9340
  704MOL0     H92882   3.369   4.488   2.863  0.7060  0.2238 -0.0828
  704MOL0     H92883   3.216   4.407   2.884  1.0387  0.7324  3.1283
  704MOL0     H92884   3.258   4.662   2.720  0.4564 -1.3228 -0.7642
  704MOL0     H92885   3.193   4.649   2.881 -1.5129  2.5996 -2.0780
  704MOL0     H92886   3.083   4.503   2.640 -0.3723 -1.6989  0.9555
  704MOL0     H92887   3.004   4.503   2.798  1.1618  1.1010  2.0552
  704MOL0     H92888   3.038   4.748   2.622 -1.0852  2.4382  0.3017
  704MOL0     H92889   2.989   4.760   2.792  3.3941 -1.9922  0.9283
  704MOL0     H92890   2.617   4.622   2.640  3.3509 -0.8207 -3.2173
  704MOL0     H92891   2.427   4.802   2.600  0.9585 -1.3697 -3.0919
  704MOL0     H92892   2.261   5.258   2.511 -0.0400  1.4003  0.5439
  704MOL0     H92893   2.082   5.396   2.586  0.2859  2.3645  1.6675
  704MOL0     H92894   1.849   5.316   2.981 -4.1279  1.0847  1.4858
  704MOL0     H92895   1.775   5.249   2.825  2.8136  0.3356 -2.6858
  704MOL0     H92896   1.769   5.527   2.954 -1.1163  2.2714 -1.4868
  704MOL0     H92897   1.629   5.417   2.925  1.3911 -1.0201  0.1600
  704MOL0     H92898   1.802   5.559   2.730  0.3514 -0.3187  2.0992
  704MOL0     H92899   1.632   5.604   2.788  3.3496  2.0940  3.2137
  704MOL0     H92900   1.696   5.350   2.628  2.5875  2.0540  0.2989
  704MOL0     H92901   1.536   5.410   2.687 -1.2750  4.8283  0.1995
  704MOL0     H92902   1.554   5.601   2.551 -3.0690 -2.5991 -0.0106
  704MOL0     H92903   1.562   5.463   2.457  1.3121 -0.1467 -1.7478
  704MOL0     H92904   1.810   5.475   2.449  0.2995 -0.5099  1.7405
  704MOL0     H92905   1.799   5.631   2.525  3.1740 -1.2825 -1.1734
  704MOL0     H92906   1.819   5.687   2.294 -0.2554 -0.4864  0.2898
  704MOL0     H92907   1.723   5.550   2.243  3.3279  1.1468 -1.8973
  704MOL0     H92908   1.650   5.819   2.389  1.1801  0.4350  0.6901
  704MOL0     H92909   1.522   5.697   2.356  0.3115  0.2811 -0.8830
  704MOL0     H92910   2.032   5.146   2.937 -0.5162  1.0668 -0.1241
  704MOL0     H92911   2.200   4.993   2.845 -1.1890 -1.7434 -2.0326
  704MOL0     H92912   2.730   5.104   2.645 -3.3239  0.7010 -3.8698
  704MOL0     H92913   2.903   4.914   2.662  0.3723 -3.5181  0.9132
  704MOL0     H92914   2.797   3.306   2.973  1.9139 -0.0070  1.3870
  704MOL0     H92915   2.577   3.389   2.921  2.1348 -0.0491  1.2700
  704MOL0     H92916   2.358   3.761   2.753  2.7725 -0.7822 -1.9588
  704MOL0     H92917   2.127   3.829   2.748  1.4189 -0.4980  3.2152
  704MOL0     H92918   1.864   3.535   2.588  0.9112  0.6324 -1.5497
  704MOL0     H92919   1.757   3.666   2.538 -2.3336 -1.1527  1.8201
  704MOL0     H92920   1.713   3.585   2.759 -0.0405 -0.9545  3.0046
  704MOL0     H92921   1.859   3.642   2.827  1.4754 -1.8532 -1.7048
  704MOL0     H92922   1.778   3.885   2.781  0.2416 -0.4572  1.5033
  704MOL0     H92923   1.693   3.810   2.900  0.9170  2.0876 -0.2377
  704MOL0     H92924   1.601   3.804   2.606  0.2006 -1.7077 -0.6329
  704MOL0     H92925   1.526   3.731   2.747  3.7103 -0.7496  2.4748
  704MOL0     H92926   1.357   4.078   2.833  1.0852  0.7019 -0.4187
  704MOL0     H92927   2.067   3.522   2.451  3.2489  1.8631 -2.2460
  704MOL0     H92928   2.287   3.435   2.493 -2.1868 -1.8872 -0.0546
  705MOL0     O92929   8.397  10.127   4.166  0.1400 -0.3429  0.1136
  705MOL0     C92930   8.459  10.095   4.065 -0.3192 -0.4838  0.0695
  705MOL0     O92931   8.581  10.144   4.033 -0.2084  0.2795 -0.2634
  705MOL0     C92932   8.642  10.222   4.116 -0.2069 -0.1162 -0.3772
  705MOL0     C92933   8.606  10.354   4.154  0.4901 -0.4116 -1.2408
  705MOL0     C92934   8.693  10.437   4.225 -0.7808 -0.9417 -0.4362
  705MOL0     C92935   8.815  10.376   4.279 -0.3271 -0.2566 -0.5761
  705MOL0     O92936   8.901  10.431   4.367 -0.1972 -0.0127  0.2952
  705MOL0     C92937   8.912  10.570   4.365 -0.3159 -0.1791 -0.2333
  705MOL0     C92938   9.025  10.614   4.452  0.6099  0.0428 -0.1234
  705MOL0     C92939   8.976  10.623   4.598  0.5753 -0.7093 -0.1392
  705MOL0     C92940   8.935  10.491   4.658  0.3835 -0.0641 -0.0543
  705MOL0     C92941   8.899  10.498   4.808 -0.3852  0.1267 -0.1385
  705MOL0     C92942   8.981  10.406   4.904 -0.2044  0.2134 -0.2052
  705MOL0     C92943   9.122  10.458   4.918  0.6774 -1.2323 -0.4034
  705MOL0     C92944   9.206  10.375   5.020  0.3016  0.2486 -0.0405
  705MOL0     N92945   9.270  10.260   4.945 -0.6507 -0.2100 -0.2827
  705MOL0     C92946   9.215  10.143   4.908  0.5495  0.2741 -0.5469
  705MOL0     C92947   9.322  10.068   4.856 -0.3045 -0.7210  0.2263
  705MOL0     C92948   9.304   9.947   4.774  0.2110 -0.3699  0.4847
  705MOL0     C92949   9.262   9.835   4.874  0.0277  0.6978 -0.2844
  705MOL0     C92950   9.248   9.696   4.806 -0.0056 -0.1744 -0.5655
  705MOL0     C92951   9.383   9.627   4.772  0.9183  0.6792  0.6995
  705MOL0     O92952   9.430   9.661   4.634  0.2496 -0.6383  0.2135
  705MOL0     C92953   9.555   9.614   4.601 -1.3934 -0.5273 -0.0298
  705MOL0     C92954   9.630   9.517   4.678  0.3464 -0.5441  0.7108
  705MOL0     C92955   9.758   9.493   4.635 -0.4948 -0.1479 -0.6909
  705MOL0     C92956   9.818   9.527   4.514 -0.1792 -0.6517  0.6065
  705MOL0     C92957   9.948   9.481   4.475 -0.0780 -0.4484  1.0796
  705MOL0     O92958   9.978   9.514   4.351 -0.6984  0.8487 -0.1756
  705MOL0     C92959  10.103   9.482   4.289 -0.5594 -0.0607 -0.2735
  705MOL0     C92960  10.126   9.552   4.173  0.0778 -0.0180  0.1826
  705MOL0     C92961  10.227   9.523   4.090 -0.2001  0.1006  0.1178
  705MOL0     C92962  10.311   9.414   4.118 -0.7824  0.6308  0.3406
  705MOL0     O92963  10.398   9.371   4.021 -0.5319  0.3896 -0.2542
  705MOL0     C92964  10.357   9.258   3.951  0.2558  0.1764 -0.3386
  705MOL0     C92965  10.472   9.193   3.885 -0.3737  0.0106  0.5415
  705MOL0     C92966  10.420   9.059   3.811 -0.7265 -0.0175  1.4264
  705MOL0     C92967  10.533   8.976   3.756 -0.3064  0.9471 -0.3162
  705MOL0     C92968  10.474   8.838   3.702  1.3068  0.5696  0.1611
  705MOL0     C92969  10.597   8.742   3.680 -0.2880 -0.2880  0.2974
  705MOL0     C92970  10.562   8.629   3.589  1.3055 -0.3270 -0.5020
  705MOL0     C92971  10.685   8.588   3.508 -0.4455 -0.5929 -0.4134
  705MOL0    Cl92972  10.713   8.710   3.376  0.0787 -0.5247 -0.7399
  705MOL0     C92973  10.301   9.348   4.239  0.0516  0.0918  0.3794
  705MOL0     C92974  10.199   9.386   4.321  0.2634  0.6083  0.0879
  705MOL0     O92975  10.020   9.437   4.557 -1.0187 -0.2637  0.8533
  705MOL0     C92976   9.742   9.613   4.429  1.0080  0.8768  0.0749
  705MOL0     C92977   9.617   9.658   4.480  0.3766  0.4155 -0.1690
  705MOL0     N92978   9.436  10.147   4.856  0.6028 -0.2056  0.1990
  705MOL0     N92979   9.403  10.265   4.901 -0.6506 -0.2611 -0.1960
  705MOL0     C92980   8.848  10.241   4.248  0.6328 -0.8630  0.2352
  705MOL0     C92981   8.764  10.177   4.170  0.0868  0.1012  0.7115
  705MOL0     C92982   8.395  10.014   3.961 -0.0483 -0.3079 -0.2689
  705MOL0     C92983   8.272   9.952   3.992  0.7008 -1.5810 -0.0951
  705MOL0     C92984   8.208   9.880   3.894 -0.9271 -0.5620 -0.3391
  705MOL0     C92985   8.268   9.866   3.763 -1.1881  0.4488  0.0179
  705MOL0     O92986   8.215   9.792   3.654 -0.1566  0.3996 -0.0169
  705MOL0     C92987   8.077   9.744   3.654  0.3202  1.2045 -0.5310
  705MOL0     C92988   8.038   9.623   3.736 -0.2368  0.0404 -0.8695
  705MOL0     C92989   8.129   9.499   3.696  0.2844 -0.9454 -0.3490
  705MOL0     C92990   8.063   9.363   3.754  0.1478 -0.1509 -0.5184
  705MOL0     C92991   8.031   9.360   3.898  0.7843 -0.3515  0.4730
  705MOL0     C92992   7.994   9.349   4.012  0.6978  0.0379 -0.6930
  705MOL0     C92993   8.391   9.935   3.744  0.5556 -0.1296 -0.8153
  705MOL0     C92994   8.452  10.003   3.838 -0.0295 -1.6422 -0.4981
  705MOL0     H92995   8.516  10.375   4.096 -0.6815 -2.0555 -0.1046
  705MOL0     H92996   8.675  10.539   4.255 -1.6341 -1.4036  0.6643
  705MOL0     H92997   8.817  10.610   4.402  1.1504  3.1936  0.2212
  705MOL0     H92998   8.932  10.609   4.264 -0.2258  0.5356  0.0565
  705MOL0     H92999   9.052  10.714   4.415  2.1196 -0.1557  0.3689
  705MOL0     H93000   9.111  10.549   4.435  0.0915 -1.7685  3.2581
  705MOL0     H93001   8.888  10.688   4.605  1.4294  0.3935  0.8027
  705MOL0     H93002   9.050  10.671   4.663 -1.3805 -0.4523  2.0068
  705MOL0     H93003   8.852  10.450   4.600  0.4264 -1.2509  0.6924
  705MOL0     H93004   9.015  10.417   4.648  0.9319  0.7896 -3.4676
  705MOL0     H93005   8.794  10.470   4.827  0.0229 -1.6641 -0.2988
  705MOL0     H93006   8.908  10.600   4.846 -3.2266  1.3288 -2.3259
  705MOL0     H93007   8.976  10.307   4.858  0.7999 -0.1394  0.4244
  705MOL0     H93008   8.936  10.391   5.002  1.8218  1.8778  1.0697
  705MOL0     H93009   9.178  10.459   4.824  0.1945  1.7473 -0.7682
  705MOL0     H93010   9.116  10.559   4.959  2.5964 -1.1180 -0.2938
  705MOL0     H93011   9.130  10.342   5.091 -0.2936  1.1114 -0.2535
  705MOL0     H93012   9.283  10.424   5.081 -1.8272  0.3093  2.7442
  705MOL0     H93013   9.109  10.117   4.903  1.1228 -2.2957 -0.8580
  705MOL0     H93014   9.405   9.926   4.737  0.0064 -0.8421  0.1927
  705MOL0     H93015   9.245   9.959   4.683  1.6679  2.3902 -0.2019
  705MOL0     H93016   9.169   9.868   4.920  0.7759  0.2835  1.6256
  705MOL0     H93017   9.331   9.837   4.959 -3.2906 -0.2652  2.6636
  705MOL0     H93018   9.194   9.636   4.880  0.7574  1.2208  1.1983
  705MOL0     H93019   9.193   9.701   4.712  0.1806 -3.2046 -0.9265
  705MOL0     H93020   9.363   9.521   4.786 -2.9508  0.9054 -1.8119
  705MOL0     H93021   9.458   9.658   4.846  2.1873  1.3312 -0.7992
  705MOL0     H93022   9.576   9.471   4.761 -0.0610  2.1223  2.0602
  705MOL0     H93023   9.809   9.416   4.692 -0.9297  1.6075  2.2912
  705MOL0     H93024  10.060   9.629   4.135  0.6860  0.4778  0.1259
  705MOL0     H93025  10.228   9.555   3.986 -1.8346  1.7831  0.5622
  705MOL0     H93026  10.290   9.282   3.869  1.1423 -0.7958 -1.3719
  705MOL0     H93027  10.309   9.184   4.016  1.2404 -1.0910 -1.0189
  705MOL0     H93028  10.543   9.174   3.966  0.5929  0.1020 -0.2657
  705MOL0     H93029  10.519   9.256   3.808  1.5661 -0.9170  0.9019
  705MOL0     H93030  10.355   9.078   3.725  1.6432 -1.0565 -0.7198
  705MOL0     H93031  10.364   9.001   3.885 -0.9446 -1.9325 -0.1558
  705MOL0     H93032  10.583   9.025   3.671  0.2370  2.1217  0.6531
  705MOL0     H93033  10.605   8.966   3.838 -2.8929 -0.5476  1.9420
  705MOL0     H93034  10.417   8.849   3.610  2.3052 -1.3231 -0.7616
  705MOL0     H93035  10.421   8.797   3.788  0.8431  3.6815  1.4914
  705MOL0     H93036  10.644   8.697   3.768  2.6593  2.6804  0.4707
  705MOL0     H93037  10.675   8.813   3.649  0.1277  0.3663  2.6336
  705MOL0     H93038  10.548   8.537   3.647  1.8262 -0.6622 -0.9060
  705MOL0     H93039  10.472   8.652   3.531 -0.0394 -2.4290  0.6145
  705MOL0     H93040  10.682   8.484   3.474 -0.3655 -1.3511  1.7215
  705MOL0     H93041  10.772   8.596   3.573 -2.3869 -2.2799  2.6219
  705MOL0     H93042  10.351   9.260   4.276 -3.0176 -1.0185  2.2641
  705MOL0     H93043  10.190   9.326   4.411  2.0796  1.0714  0.6327
  705MOL0     H93044   9.771   9.647   4.330  1.0728  0.5187 -0.0306
  705MOL0     H93045   9.565   9.724   4.412 -0.3483 -1.1979 -1.2304
  705MOL0     H93046   8.935  10.195   4.293 -0.5196 -4.4066 -0.8310
  705MOL0     H93047   8.784  10.074   4.141  0.3916  1.0759 -3.0036
  705MOL0     H93048   8.216   9.952   4.086  0.8595 -1.4866 -0.0001
  705MOL0     H93049   8.113   9.838   3.925 -1.5969  2.0882  1.4710
  705MOL0     H93050   8.054   9.732   3.548 -1.7241  0.8810 -0.0868
  705MOL0     H93051   8.025   9.833   3.691  0.2236  0.6720  0.6653
  705MOL0     H93052   8.046   9.647   3.843 -0.5987  0.0882 -0.8501
  705MOL0     H93053   7.934   9.595   3.713 -0.5273  2.1686 -2.4657
  705MOL0     H93054   8.232   9.504   3.732 -0.2268 -0.7787  1.1453
  705MOL0     H93055   8.142   9.495   3.587  1.2694 -0.6986 -0.2446
  705MOL0     H93056   7.976   9.333   3.696 -0.5028 -0.6792  0.7049
  705MOL0     H93057   8.142   9.288   3.743 -1.2146 -1.4831 -1.7531
  705MOL0     H93058   7.965   9.331   4.113  0.8622  2.7379 -0.0766
  705MOL0     H93059   8.438   9.931   3.646 -1.2879  0.8792 -1.7888
  705MOL0     H93060   8.546  10.051   3.812 -0.2983 -0.8870 -0.0895
  706MOL0     O93061   5.843   6.214   0.774 -0.0602  0.1443  0.2178
  706MOL0     C93062   5.726   6.187   0.807  0.3253 -0.6013 -0.2463
  706MOL0     O93063   5.675   6.215   0.935 -1.3180  0.0085  0.5883
  706MOL0     C93064   5.755   6.295   1.016  0.0287 -0.2695  0.3927
  706MOL0     C93065   5.874   6.239   1.065  0.5397  0.0518 -0.0979
  706MOL0     C93066   5.956   6.322   1.143  0.1239  1.1295 -0.1161
  706MOL0     C93067   5.925   6.463   1.172  1.4701  0.6258 -0.3335
  706MOL0     O93068   6.007   6.541   1.240 -1.1870 -0.4725 -0.1201
  706MOL0     C93069   6.135   6.580   1.180  0.1406  0.2006 -0.6817
  706MOL0     C93070   6.210   6.627   1.304  0.7493 -0.2293  0.1179
  706MOL0     C93071   6.335   6.702   1.268  0.1169 -0.3474 -0.6381
  706MOL0     C93072   6.410   6.737   1.400  0.5745  0.3149  0.2308
  706MOL0     C93073   6.558   6.774   1.370  0.1206 -0.6683  0.4639
  706MOL0     C93074   6.633   6.780   1.508  1.3366 -0.9615  0.5212
  706MOL0     C93075   6.610   6.904   1.597 -0.3351 -0.5760  0.1818
  706MOL0     C93076   6.734   6.965   1.677 -0.1201 -0.4296 -0.0692
  706MOL0     N93077   6.711   7.101   1.730  0.1040  0.0024 -0.0847
  706MOL0     C93078   6.731   7.213   1.657 -1.2260  0.7136 -1.0233
  706MOL0     C93079   6.680   7.315   1.726 -0.7307  0.0386 -1.9276
  706MOL0     C93080   6.700   7.464   1.692 -0.6477 -0.0890 -0.5123
  706MOL0     C93081   6.793   7.518   1.796 -0.4535 -0.3146  0.9111
  706MOL0     C93082   6.824   7.668   1.778  0.6866  0.3242  0.2686
  706MOL0     C93083   6.932   7.710   1.876  1.1789 -0.7012  0.3054
  706MOL0     O93084   7.028   7.805   1.818  1.4732 -0.0886 -0.1320
  706MOL0     C93085   7.147   7.826   1.888  0.4260  0.1215  0.3137
  706MOL0     C93086   7.180   7.774   2.010  0.0544  0.3572  0.2906
  706MOL0     C93087   7.303   7.803   2.074  0.0663  0.7517 -0.4378
  706MOL0     C93088   7.406   7.876   2.007  0.2552  0.6892 -0.5974
  706MOL0     C93089   7.533   7.917   2.076  0.9169 -0.0117  0.5414
  706MOL0     O93090   7.630   7.955   1.992 -0.2084  0.3574  0.2137
  706MOL0     C93091   7.747   8.023   2.035 -0.1242 -0.1238  0.3391
  706MOL0     C93092   7.761   8.097   2.150  0.2178  1.2396  0.7227
  706MOL0     C93093   7.881   8.151   2.183 -0.5213  0.7337  0.0661
  706MOL0     C93094   7.997   8.125   2.110  0.7337  0.5796 -0.1441
  706MOL0     O93095   8.123   8.170   2.150  0.0866 -0.0725 -0.5882
  706MOL0     C93096   8.249   8.144   2.093 -0.2064  1.0944  0.2252
  706MOL0     C93097   8.347   8.218   2.188  0.1858 -0.3127 -0.2315
  706MOL0     C93098   8.486   8.199   2.119 -0.4224  0.0498  0.1471
  706MOL0     C93099   8.594   8.281   2.188 -0.0020 -0.2240  0.3550
  706MOL0     C93100   8.731   8.295   2.112 -0.4656  0.2890 -0.6306
  706MOL0     C93101   8.738   8.382   1.986 -0.5603 -0.1723 -0.1348
  706MOL0     C93102   8.875   8.398   1.916 -1.2520 -0.7345 -0.0625
  706MOL0     C93103   8.872   8.500   1.798  0.2046 -0.3762 -0.4383
  706MOL0    Cl93104   8.786   8.421   1.665  0.5298  0.3474 -0.2490
  706MOL0     C93105   7.980   8.038   1.998  0.0823 -0.1061 -0.3411
  706MOL0     C93106   7.860   7.986   1.968  0.3521 -0.0953  0.5292
  706MOL0     O93107   7.547   7.885   2.193  0.5377 -0.9972  0.1372
  706MOL0     C93108   7.379   7.919   1.873  0.5039  0.3786 -0.7430
  706MOL0     C93109   7.249   7.904   1.822 -1.0837 -0.2419 -0.3367
  706MOL0     N93110   6.614   7.261   1.834  0.5857  0.3118 -0.1657
  706MOL0     N93111   6.633   7.129   1.839  0.3585 -0.1123  0.1596
  706MOL0     C93112   5.800   6.511   1.128  0.5606  0.4753  0.8885
  706MOL0     C93113   5.717   6.430   1.039 -0.9025 -0.1760 -0.7625
  706MOL0     C93114   5.640   6.116   0.704  0.7893 -0.8422 -0.7769
  706MOL0     C93115   5.684   6.102   0.576 -0.0750  0.0645 -0.0468
  706MOL0     C93116   5.607   6.045   0.475  0.3697 -0.0901 -0.4581
  706MOL0     C93117   5.478   5.999   0.500 -0.1126 -0.3818  0.1325
  706MOL0     O93118   5.399   5.958   0.396  0.1497 -0.0974  0.7785
  706MOL0     C93119   5.258   5.958   0.407  0.0380  0.2387 -0.9033
  706MOL0     C93120   5.190   5.896   0.288 -0.2062 -0.0435 -0.5787
  706MOL0     C93121   5.253   5.772   0.237  0.1602  0.3543  0.1325
  706MOL0     C93122   5.186   5.744   0.095  0.4949  0.0249 -0.1111
  706MOL0     C93123   5.225   5.620   0.038  0.5012 -0.2872  0.3717
  706MOL0     C93124   5.259   5.520  -0.024  0.5487 -0.1921  0.2642
  706MOL0     C93125   5.434   6.019   0.633 -0.0321  0.7617  0.6598
  706MOL0     C93126   5.513   6.070   0.734 -0.0700  0.5946  1.0556
  706MOL0     H93127   5.912   6.141   1.038 -1.1890 -1.0902  1.3681
  706MOL0     H93128   6.054   6.281   1.169 -0.3830 -0.6722 -0.9064
  706MOL0     H93129   6.110   6.664   1.115  0.3849  1.7472  1.1471
  706MOL0     H93130   6.201   6.506   1.131  2.6822  0.0617  2.5885
  706MOL0     H93131   6.236   6.540   1.364  0.1629  2.0406  4.0415
  706MOL0     H93132   6.145   6.686   1.370  0.9565 -1.9745  1.9466
  706MOL0     H93133   6.309   6.792   1.212 -1.7660  1.6676  3.0535
  706MOL0     H93134   6.413   6.646   1.216 -0.7127 -1.8572 -0.3272
  706MOL0     H93135   6.362   6.821   1.452  3.3802  0.7968  2.2639
  706MOL0     H93136   6.411   6.641   1.452  1.3198 -1.4880 -2.8229
  706MOL0     H93137   6.577   6.872   1.326  0.1274 -1.7812 -2.1747
  706MOL0     H93138   6.608   6.707   1.300  2.1255 -1.2053  2.3034
  706MOL0     H93139   6.736   6.789   1.473  0.9416 -0.4184 -0.5548
  706MOL0     H93140   6.613   6.689   1.565  1.7216  0.3013  2.7919
  706MOL0     H93141   6.558   6.979   1.537 -4.0788  0.1786  3.8522
  706MOL0     H93142   6.540   6.869   1.674 -1.7073 -0.5310 -1.0043
  706MOL0     H93143   6.823   6.969   1.613  0.7728  6.0402  0.9140
  706MOL0     H93144   6.750   6.907   1.768  0.6238  1.2794  0.9177
  706MOL0     H93145   6.784   7.214   1.563 -0.6987 -1.1691 -0.7863
  706MOL0     H93146   6.602   7.510   1.702 -1.4305 -1.4519 -1.6278
  706MOL0     H93147   6.732   7.493   1.591 -3.8529  2.7620 -0.8871
  706MOL0     H93148   6.883   7.460   1.818  0.9582  1.1533 -0.6650
  706MOL0     H93149   6.732   7.523   1.887 -3.3124 -0.2581 -0.8950
  706MOL0     H93150   6.867   7.676   1.678  0.8148 -3.0971 -0.0640
  706MOL0     H93151   6.732   7.726   1.789 -0.3654 -1.2310 -0.0648
  706MOL0     H93152   6.993   7.623   1.902  4.2591  1.6738  1.6289
  706MOL0     H93153   6.895   7.756   1.968 -0.2534 -1.4068  0.1259
  706MOL0     H93154   7.110   7.710   2.062  3.1142 -0.6410  3.6270
  706MOL0     H93155   7.316   7.769   2.176  0.3909  2.0860 -0.0187
  706MOL0     H93156   7.674   8.109   2.214  1.6054  0.1303  2.9379
  706MOL0     H93157   7.892   8.227   2.260 -0.5950 -0.9575  1.8221
  706MOL0     H93158   8.251   8.185   1.991  3.6384 -1.8973 -1.1250
  706MOL0     H93159   8.273   8.037   2.091 -0.4501  1.0491 -0.5747
  706MOL0     H93160   8.342   8.184   2.291  0.2659  0.5810  0.0774
  706MOL0     H93161   8.332   8.326   2.192  2.8921  0.0851  1.6741
  706MOL0     H93162   8.491   8.248   2.022 -2.0390  4.2279  1.9442
  706MOL0     H93163   8.493   8.090   2.108 -2.1803  0.0335 -1.2073
  706MOL0     H93164   8.544   8.372   2.223  2.1679  0.2156  2.5578
  706MOL0     H93165   8.622   8.225   2.277 -1.5188 -1.5877  0.0049
  706MOL0     H93166   8.778   8.199   2.086 -1.2015 -0.0862 -0.5913
  706MOL0     H93167   8.794   8.353   2.180 -1.6458 -0.1379  0.9019
  706MOL0     H93168   8.694   8.481   2.002 -0.1323  0.1534 -0.8990
  706MOL0     H93169   8.673   8.330   1.915  0.9866  0.5787 -2.2139
  706MOL0     H93170   8.947   8.427   1.993 -0.1084  0.1178 -1.4010
  706MOL0     H93171   8.912   8.304   1.875 -0.2125 -0.6135  0.5782
  706MOL0     H93172   8.974   8.526   1.768  0.2880 -0.2045 -0.0126
  706MOL0     H93173   8.830   8.596   1.829 -0.3487 -0.9299  0.5702
  706MOL0     H93174   8.065   7.995   1.945 -1.8689 -0.6273 -3.3411
  706MOL0     H93175   7.836   7.917   1.887 -0.1147  1.6853 -0.9227
  706MOL0     H93176   7.460   7.961   1.813 -0.4702  2.9158 -0.4038
  706MOL0     H93177   7.224   7.949   1.727 -1.3346  0.0954 -0.1161
  706MOL0     H93178   5.781   6.617   1.144  0.0961  0.7169 -1.0532
  706MOL0     H93179   5.633   6.467   0.983 -0.1607 -1.3156 -2.7356
  706MOL0     H93180   5.779   6.144   0.544  0.9984 -2.6037 -0.6270
  706MOL0     H93181   5.626   6.034   0.368 -0.8193  0.0573 -0.6975
  706MOL0     H93182   5.212   6.057   0.416 -1.2827 -0.3805 -0.4704
  706MOL0     H93183   5.228   5.901   0.496 -1.1301  0.5322 -1.0858
  706MOL0     H93184   5.087   5.875   0.318 -0.1997 -2.5246 -1.9737
  706MOL0     H93185   5.192   5.975   0.212 -0.9688  0.5186 -0.0251
  706MOL0     H93186   5.231   5.686   0.302 -3.9715  2.5580  2.0764
  706MOL0     H93187   5.362   5.781   0.237  0.0881  1.3654  1.1280
  706MOL0     H93188   5.077   5.739   0.105  0.5751  0.5139  1.4408
  706MOL0     H93189   5.203   5.826   0.024 -1.0573 -1.2870 -2.0886
  706MOL0     H93190   5.257   5.425  -0.074 -4.6309  0.4693 -1.3744
  706MOL0     H93191   5.332   5.990   0.657 -0.4710  0.2424 -1.6241
  706MOL0     H93192   5.464   6.074   0.830 -1.4717 -0.9884  0.4498
  707MOL0     O93193   0.206  10.539   3.483 -0.5831  0.5192 -0.3927
  707MOL0     C93194   0.217  10.531   3.360  0.1043 -0.9426 -1.0068
  707MOL0     O93195   0.117  10.564   3.268 -0.5084 -0.0609 -0.0061
  707MOL0     C93196  -0.013  10.581   3.319 -1.0761  0.5925 -0.5111
  707MOL0     C93197  -0.081  10.485   3.399 -0.5784  0.4863  0.7192
  707MOL0     C93198  -0.215  10.491   3.425  0.3649  1.2458  0.1577
  707MOL0     C93199  -0.293  10.587   3.376 -0.6748 -0.2942 -1.0104
  707MOL0     O93200  -0.431  10.603   3.400 -0.7867 -0.2495 -0.1766
  707MOL0     C93201  -0.485  10.543   3.517  0.1802 -0.2182  0.8967
  707MOL0     C93202  -0.639  10.539   3.495 -1.0483  0.3352  0.0224
  707MOL0     C93203  -0.717  10.484   3.623  0.3558  0.2982  0.4890
  707MOL0     C93204  -0.861  10.503   3.601  0.3570 -0.9822 -1.1634
  707MOL0     C93205  -0.921  10.449   3.742  0.4525  0.0349  0.5701
  707MOL0     C93206  -1.071  10.442   3.746  0.9858  0.2530 -0.1186
  707MOL0     C93207  -1.127  10.394   3.884  0.0435  0.0762  0.5433
  707MOL0     C93208  -1.172  10.510   3.974  0.1847 -0.3132 -0.8059
  707MOL0     N93209  -1.317  10.532   3.952  0.8062  0.8532  0.2911
  707MOL0     C93210  -1.414  10.517   4.046 -0.2912  0.3832 -0.0562
  707MOL0     C93211  -1.534  10.543   3.985  1.1356  0.3676  0.1606
  707MOL0     C93212  -1.676  10.524   4.031 -0.2298 -1.0741 -0.5279
  707MOL0     C93213  -1.690  10.541   4.181 -0.3041 -0.5054 -0.0750
  707MOL0     C93214  -1.665  10.690   4.231  0.2089  0.3019 -0.3944
  707MOL0     C93215  -1.675  10.699   4.383 -0.5103  0.1219  0.0909
  707MOL0     O93216  -1.806  10.674   4.434 -0.1969  0.4108  0.4248
  707MOL0     C93217  -1.838  10.698   4.563 -0.2672  0.0947 -0.5351
  707MOL0     C93218  -1.970  10.675   4.602  0.7468  0.1375  0.4667
  707MOL0     C93219  -2.004  10.671   4.737 -0.5089  0.1190 -0.0045
  707MOL0     C93220  -1.910  10.697   4.838 -0.3452  0.1163  0.5554
  707MOL0     C93221  -1.947  10.686   4.983 -0.1917  0.7513  1.5986
  707MOL0     O93222  -2.064  10.756   5.005  0.3826  0.5141  0.1646
  707MOL0     C93223  -2.126  10.748   5.134  0.5561 -0.1218  0.8958
  707MOL0     C93224  -2.061  10.754   5.260  0.2951  0.7943 -1.4308
  707MOL0     C93225  -2.152  10.763   5.370  0.0808  0.3010  0.7258
  707MOL0     C93226  -2.289  10.750   5.363 -0.7501 -0.0067 -0.5752
  707MOL0     O93227  -2.365  10.772   5.468  0.4417  0.1524 -0.5656
  707MOL0     C93228  -2.472  10.859   5.458  0.2167 -0.5158 -0.0522
  707MOL0     C93229  -2.459  10.955   5.583 -0.3906  0.0553  0.2486
  707MOL0     C93230  -2.481  10.901   5.725  0.1497  0.2117 -0.4392
  707MOL0     C93231  -2.421  11.004   5.828 -0.1237  0.4010  0.0549
  707MOL0     C93232  -2.536  11.092   5.886  0.0177  0.9065  0.9919
  707MOL0     C93233  -2.489  11.175   6.007 -0.3115  1.5436 -1.1099
  707MOL0     C93234  -2.605  11.266   6.043  0.7643 -0.5221  0.8721
  707MOL0     C93235  -2.729  11.193   6.085 -0.3586  0.7240  0.1102
  707MOL0    Cl93236  -2.827  11.158   5.945  0.1668  0.3028 -0.0332
  707MOL0     C93237  -2.338  10.737   5.237  1.1243  0.0528  0.6864
  707MOL0     C93238  -2.267  10.746   5.125  1.3039  0.2665 -0.6971
  707MOL0     O93239  -1.886  10.615   5.063 -0.5395 -0.5753 -0.0259
  707MOL0     C93240  -1.773  10.720   4.793 -0.6435  0.0029  0.4220
  707MOL0     C93241  -1.739  10.713   4.659 -0.5001 -0.7531  0.1570
  707MOL0     N93242  -1.501  10.579   3.861 -0.4151  0.2956  0.5189
  707MOL0     N93243  -1.375  10.585   3.840 -0.4553  0.2041 -0.4338
  707MOL0     C93244  -0.231  10.689   3.304 -0.1529 -0.9673 -0.6549
  707MOL0     C93245  -0.097  10.676   3.266 -1.1089  0.0905  0.5636
  707MOL0     C93246   0.350  10.488   3.308 -0.5018  0.1093  0.1095
  707MOL0     C93247   0.373  10.474   3.168 -0.4946 -0.4617 -0.2231
  707MOL0     C93248   0.506  10.474   3.118  0.3680  1.0564  0.7858
  707MOL0     C93249   0.614  10.467   3.209  0.2981  0.4905 -0.0355
  707MOL0     O93250   0.741  10.460   3.154 -0.0413  0.1799 -1.1798
  707MOL0     C93251   0.848  10.412   3.237 -0.5430  0.6943  0.6047
  707MOL0     C93252   0.956  10.350   3.148 -0.1995 -0.4365  0.6991
  707MOL0     C93253   1.025  10.227   3.206 -0.2763  0.0481 -1.1610
  707MOL0     C93254   1.137  10.193   3.108 -0.9391 -0.6534  0.3825
  707MOL0     C93255   1.258  10.140   3.170  0.5139 -0.4229 -0.6304
  707MOL0     C93256   1.375  10.098   3.184  0.4455  0.2008 -0.2254
  707MOL0     C93257   0.584  10.471   3.343 -0.9576 -0.2876  0.7924
  707MOL0     C93258   0.460  10.479   3.396  0.7127 -0.6779  0.3686
  707MOL0     H93259  -0.031  10.389   3.414  0.2210  1.0340  1.6473
  707MOL0     H93260  -0.257  10.402   3.470  2.2313 -0.2878 -0.9675
  707MOL0     H93261  -0.446  10.595   3.604  3.9358 -2.7359  0.9494
  707MOL0     H93262  -0.439  10.446   3.537 -1.1381 -1.5432 -1.8606
  707MOL0     H93263  -0.672  10.493   3.402 -1.6860  0.6344  0.0967
  707MOL0     H93264  -0.679  10.641   3.498 -1.2821  0.2351  0.5185
  707MOL0     H93265  -0.707  10.550   3.710  1.7999 -0.3659  0.8534
  707MOL0     H93266  -0.682  10.386   3.655 -0.4476  0.0601  0.6568
  707MOL0     H93267  -0.877  10.611   3.586 -2.7716 -1.4825 -2.1326
  707MOL0     H93268  -0.907  10.453   3.515  0.7505  1.4980 -2.9394
  707MOL0     H93269  -0.888  10.514   3.823 -0.9106 -2.1106  2.9910
  707MOL0     H93270  -0.887  10.347   3.762  0.7248 -0.3491 -1.6257
  707MOL0     H93271  -1.102  10.366   3.673 -1.7277  1.6977 -0.5768
  707MOL0     H93272  -1.108  10.541   3.719  0.4633  0.8015  2.3765
  707MOL0     H93273  -1.210  10.323   3.884  0.9248 -0.9811  0.8489
  707MOL0     H93274  -1.048  10.333   3.928 -1.8372 -1.3096  2.2373
  707MOL0     H93275  -1.111  10.598   3.951  1.7174 -1.4632 -1.2796
  707MOL0     H93276  -1.159  10.473   4.076  1.0980  1.5139 -0.2207
  707MOL0     H93277  -1.391  10.475   4.143  1.7883 -0.2149 -0.7697
  707MOL0     H93278  -1.690  10.418   4.006 -1.1699 -1.0535 -0.1239
  707MOL0     H93279  -1.753  10.587   3.984 -0.5729 -1.0428  0.0684
  707MOL0     H93280  -1.628  10.479   4.245  0.7417  2.5839  2.1272
  707MOL0     H93281  -1.793  10.505   4.191 -1.3696  1.9773 -1.2309
  707MOL0     H93282  -1.564  10.726   4.211  0.3983 -0.5820 -1.1038
  707MOL0     H93283  -1.747  10.757   4.203 -1.8606 -2.7647 -2.4169
  707MOL0     H93284  -1.657  10.805   4.405  0.9663 -0.1781  0.4566
  707MOL0     H93285  -1.607  10.626   4.428 -4.1983 -1.6862  3.3242
  707MOL0     H93286  -2.055  10.662   4.535  0.5372  5.6487 -0.7969
  707MOL0     H93287  -2.110  10.660   4.758 -1.2904 -1.0395 -3.8157
  707MOL0     H93288  -1.953  10.756   5.262  0.3710  1.8078 -3.6317
  707MOL0     H93289  -2.110  10.765   5.469  2.5907 -3.7835 -0.0519
  707MOL0     H93290  -2.556  10.790   5.465 -0.5329  0.5509  2.9313
  707MOL0     H93291  -2.476  10.911   5.362  0.7169 -1.8094 -0.7999
  707MOL0     H93292  -2.537  11.031   5.571  0.8424  1.4038  0.5466
  707MOL0     H93293  -2.361  11.001   5.569  0.1431 -1.1245 -0.0225
  707MOL0     H93294  -2.436  10.802   5.732  0.0916  0.2457  0.4173
  707MOL0     H93295  -2.587  10.884   5.740  0.2755 -0.3521 -0.1954
  707MOL0     H93296  -2.366  10.951   5.906  0.5445  0.8953 -0.0758
  707MOL0     H93297  -2.339  11.061   5.782  2.2031 -0.9210  2.3149
  707MOL0     H93298  -2.614  11.019   5.911  2.5001 -2.8371 -1.1587
  707MOL0     H93299  -2.569  11.147   5.797  0.5100 -2.3440 -1.3771
  707MOL0     H93300  -2.402  11.234   5.977  2.4905 -1.0622  1.2366
  707MOL0     H93301  -2.460  11.106   6.087 -1.5100 -0.9673 -2.7079
  707MOL0     H93302  -2.569  11.344   6.111 -0.3194  1.6825 -0.9477
  707MOL0     H93303  -2.628  11.320   5.951  0.5628  2.2413  2.4434
  707MOL0     H93304  -2.787  11.237   6.167  1.3310  5.3436 -0.8343
  707MOL0     H93305  -2.691  11.102   6.132 -4.7565 -0.5757  1.6851
  707MOL0     H93306  -2.445  10.747   5.218  1.1208 -3.3317 -2.2711
  707MOL0     H93307  -2.318  10.752   5.029  2.6320  0.9430 -1.3967
  707MOL0     H93308  -1.698  10.723   4.871 -1.6017  2.3064  1.3384
  707MOL0     H93309  -1.634  10.713   4.633 -0.5169  1.2763 -0.0856
  707MOL0     H93310  -0.275  10.774   3.252  2.9839  1.4606  0.3279
  707MOL0     H93311  -0.054  10.743   3.191 -2.8163  1.3277  0.6452
  707MOL0     H93312   0.289  10.484   3.100 -1.9013 -1.3721  1.3115
  707MOL0     H93313   0.527  10.477   3.012  1.0134 -1.5272  0.7671
  707MOL0     H93314   0.811  10.329   3.298  0.5487  0.6453  1.2335
  707MOL0     H93315   0.875  10.493   3.306  0.3353  1.6496 -0.8081
  707MOL0     H93316   0.915  10.335   3.047 -0.2362  0.2363  0.6121
  707MOL0     H93317   1.026  10.431   3.124 -2.5550  0.9871 -1.9446
  707MOL0     H93318   0.948  10.150   3.223  1.1111 -0.8574  1.5774
  707MOL0     H93319   1.072  10.247   3.303  0.1551 -0.2293 -1.3113
  707MOL0     H93320   1.100  10.114   3.042  2.2989 -0.0704 -2.3888
  707MOL0     H93321   1.170  10.279   3.049 -4.2619  0.0584 -0.6793
  707MOL0     H93322   1.477  10.066   3.194 -0.0591 -0.8407  2.3848
  707MOL0     H93323   0.673  10.475   3.406 -0.6003  2.6496  0.2363
  707MOL0     H93324   0.441  10.485   3.503 -3.0857  4.2221 -0.2763
  708MOL0     O93325   7.838   9.624   7.205  0.3779  0.1295  0.4353
  708MOL0     C93326   7.900   9.547   7.129 -0.5025 -0.5338 -0.1415
  708MOL0     O93327   8.028   9.496   7.168  0.4565 -0.3688  0.2865
  708MOL0     C93328   8.068   9.523   7.299 -0.0782  0.4757  0.1764
  708MOL0     C93329   8.115   9.416   7.373 -0.6836  0.7847  0.5005
  708MOL0     C93330   8.155   9.427   7.502  1.2475  0.6725  0.0735
  708MOL0     C93331   8.181   9.554   7.553  0.2151 -0.2951  0.0179
  708MOL0     O93332   8.261   9.569   7.665 -0.4902  0.0179 -0.2818
  708MOL0     C93333   8.233   9.487   7.783  0.6560 -0.3924  0.6483
  708MOL0     C93334   8.122   9.570   7.854 -0.2790 -0.2814 -0.1849
  708MOL0     C93335   8.084   9.521   7.997  0.2387  0.0011  0.6790
  708MOL0     C93336   8.204   9.524   8.097  1.4845  0.1895  0.0881
  708MOL0     C93337   8.152   9.500   8.245  0.1356 -0.9723 -0.5518
  708MOL0     C93338   8.152   9.363   8.302 -0.3416  0.3955 -0.1954
  708MOL0     C93339   8.089   9.363   8.439 -0.3505  0.4672  0.8334
  708MOL0     C93340   8.114   9.233   8.509  0.3307 -0.9845  1.7425
  708MOL0     N93341   8.050   9.217   8.637 -0.0977  0.7723 -1.2589
  708MOL0     C93342   8.063   9.296   8.745 -0.1200  0.6230 -0.7369
  708MOL0     C93343   7.996   9.240   8.848 -0.5842  0.2448 -1.0137
  708MOL0     C93344   7.983   9.273   8.995 -0.4035 -0.5950  0.2367
  708MOL0     C93345   7.848   9.254   9.062 -1.3198 -0.0551 -0.2993
  708MOL0     C93346   7.865   9.275   9.221  0.1750 -0.0995  0.4132
  708MOL0     C93347   7.894   9.433   9.246 -0.2774  0.3584 -0.4588
  708MOL0     O93348   8.025   9.466   9.214  0.5991  0.0227  0.3848
  708MOL0     C93349   8.133   9.444   9.292 -0.1053 -0.1261 -0.0946
  708MOL0     C93350   8.255   9.477   9.239  0.0813 -0.2458  0.2021
  708MOL0     C93351   8.376   9.441   9.304  0.2054  0.2973 -0.2842
  708MOL0     C93352   8.373   9.383   9.434  0.5821  0.0842 -0.0662
  708MOL0     C93353   8.507   9.359   9.510 -0.6638 -0.2626 -0.7232
  708MOL0     O93354   8.632   9.389   9.451 -0.1615  0.2587 -0.1976
  708MOL0     C93355   8.734   9.359   9.533 -0.0177 -0.8732 -0.1279
  708MOL0     C93356   8.783   9.441   9.632  0.0328 -0.0616  0.1477
  708MOL0     C93357   8.877   9.391   9.719 -0.6599 -0.1677 -0.4611
  708MOL0     C93358   8.927   9.260   9.721  0.2898  0.8860  0.2897
  708MOL0     O93359   9.021   9.205   9.804 -0.1737  0.0892 -0.0946
  708MOL0     C93360   9.136   9.288   9.823  0.7767 -0.7464  0.4338
  708MOL0     C93361   9.245   9.221   9.914 -0.3355  0.0188  1.1635
  708MOL0     C93362   9.195   9.131  10.029  0.5081  0.8958  1.3072
  708MOL0     C93363   9.146   9.221  10.135  0.3844  0.0518 -0.6570
  708MOL0     C93364   9.108   9.147  10.257  0.2617  0.5353  0.1262
  708MOL0     C93365   9.052   9.233  10.371 -0.0519 -0.2818 -0.1219
  708MOL0     C93366   8.907   9.264  10.354 -0.1959 -0.8430  0.0775
  708MOL0     C93367   8.817   9.248  10.473  0.0561 -0.2534  0.1049
  708MOL0    Cl93368   8.888   9.307  10.634 -0.2619  0.1286 -0.3116
  708MOL0     C93369   8.875   9.178   9.622  0.2719 -0.3661  0.0291
  708MOL0     C93370   8.782   9.228   9.530  1.0012  0.1067 -0.4463
  708MOL0     O93371   8.493   9.326   9.629  0.5192 -0.2959 -0.3994
  708MOL0     C93372   8.251   9.361   9.494  0.1873 -0.4543  0.7678
  708MOL0     C93373   8.135   9.389   9.424 -1.5043 -0.3291  0.4753
  708MOL0     N93374   7.920   9.130   8.795 -0.5562 -0.2963  0.1506
  708MOL0     N93375   7.951   9.130   8.673  0.9446  0.2287  0.6774
  708MOL0     C93376   8.135   9.664   7.487 -0.2531  0.7860 -0.0737
  708MOL0     C93377   8.090   9.650   7.354 -0.6499 -0.2704 -1.1711
  708MOL0     C93378   7.843   9.505   6.997 -1.0858 -0.3856 -0.0510
  708MOL0     C93379   7.852   9.375   6.954 -0.7326  0.8707  0.5943
  708MOL0     C93380   7.787   9.338   6.829 -1.4424 -1.3298  0.2994
  708MOL0     C93381   7.721   9.430   6.758  0.0325  0.3359 -0.2130
  708MOL0     O93382   7.654   9.395   6.643  0.0978 -0.4649  0.8289
  708MOL0     C93383   7.643   9.259   6.591  0.0355 -0.8805  0.2142
  708MOL0     C93384   7.714   9.262   6.452 -0.0689  0.5803 -0.0877
  708MOL0     C93385   7.848   9.319   6.429 -0.2605  0.2042  0.0205
  708MOL0     C93386   7.934   9.233   6.343 -0.1513  0.0087 -0.0048
  708MOL0     C93387   8.055   9.309   6.329  1.0387  0.1424 -0.8244
  708MOL0     C93388   8.155   9.375   6.314  0.5786  0.0661  0.0820
  708MOL0     C93389   7.716   9.566   6.793 -0.6381  0.6742 -1.2184
  708MOL0     C93390   7.781   9.598   6.916 -1.1537  0.2509 -0.8417
  708MOL0     H93391   8.121   9.321   7.320 -2.6961 -0.0259  1.5941
  708MOL0     H93392   8.205   9.350   7.559 -1.4934 -1.6013 -0.3611
  708MOL0     H93393   8.321   9.482   7.847  0.0125  0.9735  1.7015
  708MOL0     H93394   8.201   9.383   7.767  3.0707 -0.8594 -1.6084
  708MOL0     H93395   8.036   9.595   7.792  0.1647  3.1070  0.3235
  708MOL0     H93396   8.144   9.675   7.879 -0.8747 -0.5796  1.7828
  708MOL0     H93397   8.055   9.417   7.984 -2.6675  0.9230 -1.3719
  708MOL0     H93398   7.988   9.564   8.028 -0.6584 -0.6397 -1.0797
  708MOL0     H93399   8.280   9.452   8.065  2.8250  1.3699  0.4953
  708MOL0     H93400   8.252   9.622   8.100  0.6413  0.6466 -0.7807
  708MOL0     H93401   8.052   9.541   8.262  0.7093  1.1307 -1.8917
  708MOL0     H93402   8.226   9.554   8.307  1.8332 -1.9564 -1.6481
  708MOL0     H93403   8.257   9.335   8.314 -0.5960  0.5413  3.8224
  708MOL0     H93404   8.096   9.293   8.239  0.3708 -0.8735  0.5601
  708MOL0     H93405   8.142   9.437   8.501  2.6039  1.2971 -2.3516
  708MOL0     H93406   7.984   9.380   8.416  0.7622  1.8126 -4.7518
  708MOL0     H93407   8.218   9.201   8.510  0.5974 -0.1729  1.0851
  708MOL0     H93408   8.064   9.163   8.442  0.8273  1.7366 -1.7731
  708MOL0     H93409   8.123   9.387   8.752  0.1793  0.2917  2.3437
  708MOL0     H93410   8.010   9.379   9.007 -2.5547 -0.2987  4.0923
  708MOL0     H93411   8.066   9.224   9.046  1.6756  1.5247 -0.9153
  708MOL0     H93412   7.819   9.151   9.039  1.2899 -0.7752 -0.6387
  708MOL0     H93413   7.773   9.320   9.016  0.6516  0.0388 -3.7766
  708MOL0     H93414   7.768   9.250   9.266 -0.1858  0.2527 -0.1590
  708MOL0     H93415   7.940   9.207   9.263 -1.3315 -2.1204 -0.0363
  708MOL0     H93416   7.862   9.464   9.346 -1.6552  0.1981 -0.8178
  708MOL0     H93417   7.835   9.499   9.181 -0.6999  0.4007 -0.0386
  708MOL0     H93418   8.260   9.526   9.142 -0.5325  1.3177  0.9400
  708MOL0     H93419   8.477   9.457   9.269  0.2255 -0.8203 -0.7847
  708MOL0     H93420   8.746   9.543   9.641  1.2298  0.3949  0.0413
  708MOL0     H93421   8.912   9.455   9.799 -0.3118  0.0383 -0.7747
  708MOL0     H93422   9.097   9.380   9.866  1.1893  0.3451 -1.4249
  708MOL0     H93423   9.182   9.311   9.727  2.0497  1.0702  1.4187
  708MOL0     H93424   9.311   9.300   9.952  0.6945 -1.3482  2.3495
  708MOL0     H93425   9.317   9.162   9.855  0.5914  0.6979  1.5858
  708MOL0     H93426   9.285   9.083  10.068 -0.4875 -1.1149  1.2634
  708MOL0     H93427   9.123   9.053  10.000 -0.1909  1.2687  1.9834
  708MOL0     H93428   9.213   9.300  10.170 -0.6959  0.5471  0.3680
  708MOL0     H93429   9.055   9.268  10.097  0.6089  0.0385 -1.2261
  708MOL0     H93430   9.193   9.090  10.296 -0.7161 -1.4683 -0.5350
  708MOL0     H93431   9.026   9.081  10.229 -1.4048  2.4558  0.2558
  708MOL0     H93432   9.113   9.320  10.394  1.0378 -1.3412  1.1683
  708MOL0     H93433   9.071   9.169  10.458  4.9756  1.7419  0.6266
  708MOL0     H93434   8.916   9.372  10.341  0.8885 -0.6448  2.0245
  708MOL0     H93435   8.864   9.219  10.265  2.5126  0.2853 -1.9315
  708MOL0     H93436   8.802   9.141  10.491 -1.3666  0.4074  3.8829
  708MOL0     H93437   8.718   9.294  10.466 -0.9609 -1.4522  4.0220
  708MOL0     H93438   8.907   9.075   9.624 -2.1637 -1.1749  0.4541
  708MOL0     H93439   8.739   9.186   9.441 -2.0414  1.2152  0.3795
  708MOL0     H93440   8.246   9.328   9.598 -0.4111 -0.3900  0.7586
  708MOL0     H93441   8.044   9.355   9.473 -3.3058 -2.4081 -3.7238
  708MOL0     H93442   8.149   9.760   7.536 -0.5886  0.1705  1.2906
  708MOL0     H93443   8.051   9.736   7.301 -1.1761 -1.1686 -2.3131
  708MOL0     H93444   7.906   9.299   7.010  1.1040 -0.1268 -2.2916
  708MOL0     H93445   7.796   9.232   6.808  2.8569 -0.8221 -1.5450
  708MOL0     H93446   7.536   9.238   6.579 -0.0948 -0.4620  0.6106
  708MOL0     H93447   7.685   9.181   6.655 -0.7192  0.0688  1.9580
  708MOL0     H93448   7.731   9.160   6.415  1.8019  0.8206  0.0126
  708MOL0     H93449   7.627   9.295   6.394 -0.0505 -2.3374 -1.9931
  708MOL0     H93450   7.889   9.353   6.524 -1.0514 -0.6243  0.6619
  708MOL0     H93451   7.836   9.406   6.363  3.6337  0.7535 -0.1788
  708MOL0     H93452   7.962   9.138   6.390  1.4764 -1.4700 -3.5752
  708MOL0     H93453   7.888   9.201   6.249 -0.3360  1.1558 -0.3171
  708MOL0     H93454   8.241   9.437   6.299  0.2335 -0.0472 -2.9575
  708MOL0     H93455   7.649   9.637   6.747 -0.7011  0.5667 -1.2930
  708MOL0     H93456   7.778   9.699   6.955  0.0070  0.3422 -0.9547
  709MOL0     O93457   3.240   0.022   6.491 -0.2839  0.3703  0.1382
  709MOL0     C93458   3.349  -0.040   6.506  0.1753 -0.5013 -0.6271
  709MOL0     O93459   3.467  -0.004   6.447  0.2091 -0.5758 -0.3798
  709MOL0     C93460   3.460   0.096   6.352  0.6410 -0.2585  0.2347
  709MOL0     C93461   3.370   0.098   6.239 -1.4039  0.1443  0.3125
  709MOL0     C93462   3.388   0.199   6.146 -0.4838 -0.4633 -0.7411
  709MOL0     C93463   3.487   0.296   6.159 -0.3476 -0.7023  0.2649
  709MOL0     O93464   3.484   0.395   6.063 -1.0302 -0.2196  0.5382
  709MOL0     C93465   3.550   0.525   6.088  0.2937 -0.1103 -0.4265
  709MOL0     C93466   3.497   0.624   5.983  0.8397  0.4637  0.1015
  709MOL0     C93467   3.550   0.584   5.836  0.5340 -1.0750  0.2523
  709MOL0     C93468   3.518   0.680   5.715 -0.5631 -0.9320  0.4396
  709MOL0     C93469   3.569   0.611   5.580 -0.0722 -0.0130  0.3479
  709MOL0     C93470   3.512   0.682   5.453 -0.5097 -0.2806 -0.3420
  709MOL0     C93471   3.604   0.671   5.328 -0.1542  0.1036  0.8477
  709MOL0     C93472   3.715   0.769   5.317  0.7487 -0.4032 -0.7613
  709MOL0     N93473   3.777   0.745   5.194  0.5877  0.1746 -0.5185
  709MOL0     C93474   3.915   0.720   5.193  0.1596  0.6979 -0.1194
  709MOL0     C93475   3.943   0.739   5.058  0.4355 -0.1019 -0.6672
  709MOL0     C93476   4.068   0.744   4.971 -0.8026 -0.7535  1.0665
  709MOL0     C93477   4.187   0.826   5.041  0.6351  0.1437  0.2088
  709MOL0     C93478   4.160   0.946   5.130  0.3313 -1.2285 -0.3681
  709MOL0     C93479   4.068   1.050   5.060  0.2941 -0.1395 -0.5584
  709MOL0     O93480   4.081   1.169   5.139 -0.2390 -0.4767  0.4552
  709MOL0     C93481   4.167   1.273   5.103 -0.3544  0.4395  1.0558
  709MOL0     C93482   4.238   1.268   4.982  0.2319 -0.3026 -0.2940
  709MOL0     C93483   4.322   1.377   4.953 -0.6340 -0.0365 -0.1169
  709MOL0     C93484   4.319   1.490   5.031  0.0514 -0.1351  0.4492
  709MOL0     C93485   4.386   1.614   4.996 -0.3340 -0.7121 -0.2665
  709MOL0     O93486   4.440   1.689   5.099 -0.2491 -0.4309 -1.2260
  709MOL0     C93487   4.513   1.806   5.081  0.5114 -0.1900  0.8000
  709MOL0     C93488   4.563   1.860   4.964  0.2322 -0.0484 -0.8383
  709MOL0     C93489   4.614   1.986   4.962 -0.8068  0.0561 -0.7859
  709MOL0     C93490   4.621   2.068   5.075  0.6681 -0.5744 -0.0235
  709MOL0     O93491   4.679   2.193   5.071  0.4211  0.6220 -0.6772
  709MOL0     C93492   4.801   2.206   5.146  0.4897  0.1159 -0.0436
  709MOL0     C93493   4.772   2.291   5.266  0.4603  0.8407  1.4775
  709MOL0     C93494   4.895   2.292   5.344  0.3327 -0.3862 -0.7629
  709MOL0     C93495   4.889   2.394   5.454  0.5992 -0.8099 -0.2594
  709MOL0     C93496   4.908   2.537   5.398  0.0636 -0.3471 -0.4682
  709MOL0     C93497   4.850   2.635   5.503  0.0781 -0.4474 -0.9090
  709MOL0     C93498   4.880   2.778   5.468  1.0121 -1.3524  0.0050
  709MOL0     C93499   5.029   2.819   5.444  0.9093 -0.2256  0.0953
  709MOL0    Cl93500   5.123   2.796   5.581  0.0566 -0.2922 -0.1580
  709MOL0     C93501   4.563   2.019   5.188  0.5445 -0.1078  0.9148
  709MOL0     C93502   4.518   1.887   5.192  0.0965  0.6115  0.7411
  709MOL0     O93503   4.401   1.645   4.874 -0.3047  0.0494  0.4355
  709MOL0     C93504   4.248   1.495   5.151 -0.0947 -0.2517  1.6164
  709MOL0     C93505   4.173   1.385   5.184 -0.2028 -0.7140  0.1542
  709MOL0     N93506   3.825   0.754   4.988  0.2480  0.5804 -0.7558
  709MOL0     N93507   3.731   0.758   5.069 -0.4821  0.2874 -0.5798
  709MOL0     C93508   3.571   0.295   6.267  0.2357  0.7749  0.2551
  709MOL0     C93509   3.563   0.179   6.350 -0.5847 -1.2045 -0.1789
  709MOL0     C93510   3.361  -0.129   6.623 -0.7612 -0.7347 -0.0619
  709MOL0     C93511   3.479  -0.144   6.698 -0.0749 -0.7986  1.0868
  709MOL0     C93512   3.480  -0.238   6.802  0.1734  0.9679  0.1660
  709MOL0     C93513   3.366  -0.315   6.843 -0.2649  0.7006 -0.3592
  709MOL0     O93514   3.366  -0.416   6.946 -0.5772  0.0224  0.5945
  709MOL0     C93515   3.467  -0.513   6.924  0.8778  0.1182  0.4739
  709MOL0     C93516   3.459  -0.644   6.983  0.1549  0.3725 -0.3322
  709MOL0     C93517   3.358  -0.732   6.926  0.0724  0.4726  0.0248
  709MOL0     C93518   3.371  -0.875   6.984  0.2172 -0.8799 -0.8390
  709MOL0     C93519   3.316  -0.983   6.895  0.2065 -0.1298  0.0892
  709MOL0     C93520   3.270  -1.075   6.829 -0.1701 -0.2810 -0.3964
  709MOL0     C93521   3.255  -0.296   6.770  1.0201 -0.6536 -0.7317
  709MOL0     C93522   3.248  -0.209   6.663  0.2906  0.4140 -0.0590
  709MOL0     H93523   3.291   0.028   6.216 -0.8204 -0.5303  0.3499
  709MOL0     H93524   3.321   0.215   6.062 -1.2587  0.5119  0.0307
  709MOL0     H93525   3.657   0.508   6.079  0.2649  0.8592 -4.1861
  709MOL0     H93526   3.521   0.563   6.186 -2.3370 -1.2573 -0.6747
  709MOL0     H93527   3.538   0.723   6.004  0.5374  1.0554 -1.8313
  709MOL0     H93528   3.388   0.621   5.988  0.7045  0.9142 -1.7284
  709MOL0     H93529   3.503   0.487   5.817 -2.2954 -0.1306  1.8534
  709MOL0     H93530   3.659   0.571   5.845  0.5621 -1.0399 -0.0229
  709MOL0     H93531   3.415   0.714   5.706  0.0806  0.5090 -3.8279
  709MOL0     H93532   3.580   0.770   5.725 -1.8222  0.0285 -0.2133
  709MOL0     H93533   3.544   0.505   5.586 -3.6824  0.7531  4.3887
  709MOL0     H93534   3.678   0.613   5.572  0.1150  1.1638  2.3326
  709MOL0     H93535   3.497   0.788   5.471  0.6028  0.1134 -1.5685
  709MOL0     H93536   3.413   0.638   5.437 -1.4099 -0.7067  4.7841
  709MOL0     H93537   3.639   0.571   5.298  0.1017  0.9612 -2.0815
  709MOL0     H93538   3.528   0.685   5.250  0.3330 -0.0306  0.3369
  709MOL0     H93539   3.772   0.746   5.408 -0.7562 -3.0306 -0.3772
  709MOL0     H93540   3.669   0.868   5.323 -1.9566 -1.4374 -2.5405
  709MOL0     H93541   3.989   0.714   5.272 -1.3951 -1.6289  1.2697
  709MOL0     H93542   4.049   0.796   4.877  3.1639 -4.0040 -1.9472
  709MOL0     H93543   4.107   0.644   4.947  0.0471 -0.8723  2.7640
  709MOL0     H93544   4.246   0.861   4.957 -0.0305  3.1621  0.8867
  709MOL0     H93545   4.251   0.762   5.103  2.2165  1.9563  0.5466
  709MOL0     H93546   4.108   0.923   5.224 -2.6439 -2.0281 -2.1019
  709MOL0     H93547   4.258   0.992   5.150 -0.2530 -0.0449 -0.1444
  709MOL0     H93548   3.969   1.004   5.068  0.9526 -1.8504 -1.4793
  709MOL0     H93549   4.092   1.054   4.953  0.6170 -0.5730 -0.5087
  709MOL0     H93550   4.249   1.184   4.915  1.2539  0.5535 -1.2518
  709MOL0     H93551   4.365   1.374   4.854  4.8368 -2.6209  1.9379
  709MOL0     H93552   4.565   1.787   4.884  1.4267  1.4770 -2.2927
  709MOL0     H93553   4.658   2.024   4.870  3.3319 -2.7892 -0.2566
  709MOL0     H93554   4.875   2.251   5.078 -1.1719  1.5322 -1.0109
  709MOL0     H93555   4.839   2.107   5.172 -1.5536 -0.9104 -0.7568
  709MOL0     H93556   4.696   2.237   5.322  1.3574  0.8272  2.7148
  709MOL0     H93557   4.727   2.385   5.232 -3.9790 -1.1912  1.0273
  709MOL0     H93558   4.975   2.325   5.277  0.1198  2.0974  0.1118
  709MOL0     H93559   4.916   2.198   5.396  0.0551 -0.4589 -0.7815
  709MOL0     H93560   4.797   2.384   5.512 -0.7447  4.5164 -0.9994
  709MOL0     H93561   4.982   2.370   5.507  0.5226 -1.0336 -0.2257
  709MOL0     H93562   4.859   2.546   5.301 -0.0211 -2.3472 -0.6622
  709MOL0     H93563   5.015   2.553   5.382  0.2870  0.7519  1.7710
  709MOL0     H93564   4.897   2.622   5.600  0.9663  0.0542 -1.2672
  709MOL0     H93565   4.744   2.628   5.532 -0.1486  4.5400  0.2935
  709MOL0     H93566   4.829   2.817   5.380  1.4047  1.0359  0.7506
  709MOL0     H93567   4.840   2.841   5.548 -2.1444  2.7040 -4.2715
  709MOL0     H93568   5.035   2.926   5.421 -2.5282 -0.0479 -0.4649
  709MOL0     H93569   5.082   2.768   5.364  2.2148  0.1747  0.6781
  709MOL0     H93570   4.557   2.070   5.284 -0.0865 -1.0837  1.4196
  709MOL0     H93571   4.479   1.841   5.283 -0.3110 -1.4804 -0.4474
  709MOL0     H93572   4.243   1.591   5.201  0.8047 -0.4222  2.0544
  709MOL0     H93573   4.106   1.397   5.269 -1.1826 -0.9564 -0.5565
  709MOL0     H93574   3.651   0.368   6.268  0.7463  0.2357  0.1696
  709MOL0     H93575   3.636   0.181   6.430 -0.3998  3.3397 -0.1743
  709MOL0     H93576   3.574  -0.098   6.673  1.2357 -1.8498  3.7242
  709MOL0     H93577   3.580  -0.252   6.842  1.2610  1.0887 -2.3338
  709MOL0     H93578   3.560  -0.472   6.965  0.5138  0.6284  0.7975
  709MOL0     H93579   3.470  -0.531   6.817  0.3982 -2.7086  0.8515
  709MOL0     H93580   3.553  -0.696   6.961  0.8352  0.4904  2.0108
  709MOL0     H93581   3.441  -0.631   7.090  0.4031  1.2473 -0.3861
  709MOL0     H93582   3.375  -0.743   6.818  0.9293 -0.3751  0.2298
  709MOL0     H93583   3.261  -0.683   6.940  0.7664  1.2647  2.6206
  709MOL0     H93584   3.473  -0.913   6.999 -0.7385 -3.9525 -1.3840
  709MOL0     H93585   3.317  -0.873   7.079  2.1172  1.1434  0.2920
  709MOL0     H93586   3.228  -1.156   6.774  2.2360  0.2848 -3.3243
  709MOL0     H93587   3.170  -0.350   6.810  2.0691  1.3633  5.1223
  709MOL0     H93588   3.155  -0.213   6.606  0.1242 -5.7596  0.0013
  710MOL0     O93589   5.443   4.501   7.146 -0.5144  0.5659 -0.9004
  710MOL0     C93590   5.570   4.517   7.148  0.9899 -0.2171  0.3714
  710MOL0     O93591   5.655   4.468   7.056 -0.3495  1.3065  0.5553
  710MOL0     C93592   5.591   4.414   6.941 -0.8715 -0.6574 -1.4098
  710MOL0     C93593   5.566   4.285   6.930  0.1485  0.8769 -0.8682
  710MOL0     C93594   5.511   4.226   6.815  0.4784 -0.0587 -0.3913
  710MOL0     C93595   5.490   4.304   6.698  0.6675 -0.3496 -0.0382
  710MOL0     O93596   5.453   4.241   6.580 -0.4156 -0.7097 -0.0284
  710MOL0     C93597   5.368   4.306   6.483  0.4386 -0.3059  0.1159
  710MOL0     C93598   5.408   4.276   6.343  0.2987  0.4566 -0.5965
  710MOL0     C93599   5.309   4.309   6.235 -0.7559 -0.4172 -0.0920
  710MOL0     C93600   5.344   4.260   6.093  0.0594 -0.2831 -0.5598
  710MOL0     C93601   5.210   4.251   6.023  0.6458  0.9735 -0.7641
  710MOL0     C93602   5.231   4.171   5.894  0.5741 -0.7497 -0.2709
  710MOL0     C93603   5.315   4.250   5.793 -0.8423  0.3916 -0.1923
  710MOL0     C93604   5.421   4.150   5.723 -0.0807 -0.8875 -0.1280
  710MOL0     N93605   5.369   4.036   5.652  0.2025 -0.1495 -0.3761
  710MOL0     C93606   5.441   3.960   5.569  0.0878  0.3262  0.3858
  710MOL0     C93607   5.356   3.885   5.491  0.4511 -0.6105 -0.2258
  710MOL0     C93608   5.384   3.784   5.384 -0.0382  0.3802  0.1486
  710MOL0     C93609   5.484   3.839   5.280 -0.0062  0.3767  0.0736
  710MOL0     C93610   5.541   3.748   5.179 -0.2013 -1.2665  0.3107
  710MOL0     C93611   5.453   3.624   5.147  0.4067  0.6525  0.7569
  710MOL0     O93612   5.345   3.652   5.056 -0.3772 -1.2391 -0.2632
  710MOL0     C93613   5.376   3.627   4.924 -0.1576 -0.4451  0.8367
  710MOL0     C93614   5.502   3.636   4.861 -0.7512  1.8780  0.4386
  710MOL0     C93615   5.522   3.577   4.733 -0.1028  0.0939  0.1199
  710MOL0     C93616   5.415   3.525   4.657  0.5872 -0.5742 -0.1190
  710MOL0     C93617   5.440   3.459   4.528 -0.3750  0.8718 -0.0179
  710MOL0     O93618   5.548   3.494   4.452 -0.0066 -0.3318  0.2862
  710MOL0     C93619   5.598   3.399   4.367  0.1062 -0.5845  0.9411
  710MOL0     C93620   5.514   3.366   4.258 -0.1885 -1.4253 -1.0877
  710MOL0     C93621   5.555   3.269   4.172  0.7325  0.8984  0.6216
  710MOL0     C93622   5.667   3.196   4.188  0.6072  0.1437  0.3838
  710MOL0     O93623   5.678   3.091   4.102  0.2809  1.3098 -0.0236
  710MOL0     C93624   5.742   2.976   4.141 -0.0623 -0.2590 -0.2506
  710MOL0     C93625   5.692   2.847   4.064  0.2781 -0.5460  0.8815
  710MOL0     C93626   5.711   2.861   3.904  0.4593  0.9576  0.0518
  710MOL0     C93627   5.627   2.966   3.829 -1.1819 -1.4505  0.2347
  710MOL0     C93628   5.643   2.960   3.672  0.4059  1.7818  0.3069
  710MOL0     C93629   5.568   3.086   3.606 -0.3716  0.4587 -0.2284
  710MOL0     C93630   5.480   3.020   3.488  0.5296  0.6724 -0.0229
  710MOL0     C93631   5.391   3.116   3.422 -0.4810  0.1455  0.2171
  710MOL0    Cl93632   5.271   3.167   3.541 -0.0313 -0.3778  0.0555
  710MOL0     C93633   5.748   3.223   4.303  0.2396  0.6238 -1.3224
  710MOL0     C93634   5.715   3.324   4.389 -0.7690  0.8013  1.3342
  710MOL0     O93635   5.372   3.362   4.509 -0.8031 -0.0943 -0.7740
  710MOL0     C93636   5.291   3.527   4.724 -0.4043  0.2128  0.1242
  710MOL0     C93637   5.267   3.576   4.852  0.1879 -0.3153  0.3771
  710MOL0     N93638   5.232   3.907   5.547  0.2456  0.1719  0.0361
  710MOL0     N93639   5.234   4.006   5.631  0.2935  0.1443 -0.6704
  710MOL0     C93640   5.533   4.437   6.705  1.2017 -0.1662  0.0682
  710MOL0     C93641   5.583   4.488   6.823  0.6421 -0.8730  0.6035
  710MOL0     C93642   5.629   4.576   7.278  0.2447  0.5195  0.4322
  710MOL0     C93643   5.769   4.595   7.278  0.5494  0.6040  0.1235
  710MOL0     C93644   5.837   4.649   7.386  1.3835 -0.1015 -0.6176
  710MOL0     C93645   5.761   4.675   7.504 -0.1865  0.8782  0.5799
  710MOL0     O93646   5.821   4.738   7.613 -0.8188  0.6710  0.6779
  710MOL0     C93647   5.771   4.703   7.746 -0.4970 -0.1214  0.8567
  710MOL0     C93648   5.879   4.712   7.855 -0.3691  0.5552  0.1121
  710MOL0     C93649   5.854   4.601   7.972  0.5240  1.3384 -0.0075
  710MOL0     C93650   5.950   4.623   8.079 -0.3485  0.2655 -0.2807
  710MOL0     C93651   5.932   4.754   8.137 -0.7274 -0.4428 -0.0432
  710MOL0     C93652   5.913   4.866   8.168 -0.6777 -1.1753 -0.3094
  710MOL0     C93653   5.621   4.648   7.506 -0.7587 -0.2987  0.4548
  710MOL0     C93654   5.559   4.598   7.395 -0.1270  0.1615  0.0516
  710MOL0     H93655   5.590   4.222   7.015  0.6886  1.1873 -0.7845
  710MOL0     H93656   5.496   4.118   6.821 -0.1768 -0.0110 -1.0478
  710MOL0     H93657   5.378   4.413   6.503  2.1370 -0.8822  2.9830
  710MOL0     H93658   5.263   4.288   6.507  0.4088  0.5455  0.6792
  710MOL0     H93659   5.423   4.167   6.344  1.3018  0.5655 -1.2435
  710MOL0     H93660   5.507   4.315   6.316  2.3353 -5.4218 -3.6116
  710MOL0     H93661   5.279   4.412   6.258 -3.3393 -1.8215  3.8375
  710MOL0     H93662   5.222   4.248   6.262 -1.6597  1.5874  1.8938
  710MOL0     H93663   5.407   4.342   6.058 -0.4429  0.1906 -0.3588
  710MOL0     H93664   5.404   4.168   6.090  5.6350  2.8972 -0.8833
  710MOL0     H93665   5.165   4.347   5.997 -1.0894 -0.2114 -2.4340
  710MOL0     H93666   5.136   4.192   6.079 -1.2114  3.8055 -0.0217
  710MOL0     H93667   5.140   4.153   5.836  1.1633 -1.4696 -0.9805
  710MOL0     H93668   5.280   4.075   5.913 -1.6858 -1.9200  0.0091
  710MOL0     H93669   5.263   4.297   5.709  1.4290  4.4394  0.4235
  710MOL0     H93670   5.372   4.331   5.838 -1.6094  2.4579 -2.6754
  710MOL0     H93671   5.481   4.116   5.808  1.3889  1.8769  0.0564
  710MOL0     H93672   5.490   4.206   5.659 -2.7421 -0.6141 -2.9610
  710MOL0     H93673   5.549   3.968   5.568 -0.0570  3.7903 -1.6785
  710MOL0     H93674   5.292   3.771   5.327  1.6240 -1.1909 -2.4223
  710MOL0     H93675   5.417   3.686   5.421  0.5331  0.0329 -1.2151
  710MOL0     H93676   5.560   3.903   5.327 -3.4358  5.9674 -0.9989
  710MOL0     H93677   5.436   3.919   5.223 -0.8779  1.7140  2.5271
  710MOL0     H93678   5.565   3.808   5.091  0.0653 -1.2692  0.3807
  710MOL0     H93679   5.637   3.712   5.217  0.4522  0.1104  0.0094
  710MOL0     H93680   5.405   3.585   5.237 -0.8225 -1.4000 -0.6956
  710MOL0     H93681   5.527   3.555   5.106 -0.0883  1.0587 -0.9175
  710MOL0     H93682   5.571   3.692   4.924  0.0468  0.7136  0.6259
  710MOL0     H93683   5.620   3.557   4.690  0.1860 -1.0046  1.2298
  710MOL0     H93684   5.417   3.414   4.248  0.8303  1.2414  0.7221
  710MOL0     H93685   5.487   3.240   4.092  0.2232 -0.9272  1.6428
  710MOL0     H93686   5.716   2.963   4.247 -0.4190  1.1424 -0.1555
  710MOL0     H93687   5.850   2.987   4.125  0.0989  1.9294  1.7024
  710MOL0     H93688   5.584   2.836   4.080 -0.0278 -1.8467 -1.6374
  710MOL0     H93689   5.740   2.752   4.090 -1.3293 -2.3723 -2.1628
  710MOL0     H93690   5.677   2.765   3.865 -2.1858  1.4485  0.9688
  710MOL0     H93691   5.817   2.874   3.879  0.3492  2.1112  0.1518
  710MOL0     H93692   5.522   2.945   3.852 -0.2297 -2.9139  4.1312
  710MOL0     H93693   5.666   3.060   3.870  0.2522 -1.8121 -0.2468
  710MOL0     H93694   5.596   2.866   3.641  0.0328  1.2934  2.1709
  710MOL0     H93695   5.752   2.959   3.661  0.5966  0.3747  1.7917
  710MOL0     H93696   5.644   3.152   3.563  2.2039 -0.3971  2.6032
  710MOL0     H93697   5.516   3.141   3.685  2.2440  0.8951  1.3194
  710MOL0     H93698   5.548   2.958   3.429  0.1549  1.1164 -0.9420
  710MOL0     H93699   5.406   2.952   3.530  1.1672  0.6220  1.0504
  710MOL0     H93700   5.359   3.090   3.321 -1.4516 -0.8357  0.7561
  710MOL0     H93701   5.451   3.205   3.404  3.5110 -2.0475  1.5312
  710MOL0     H93702   5.835   3.160   4.315 -1.4576 -1.2985  2.7040
  710MOL0     H93703   5.778   3.344   4.475  0.0481 -0.3493  1.0341
  710MOL0     H93704   5.200   3.484   4.684 -1.3709  0.6024  1.7988
  710MOL0     H93705   5.176   3.557   4.909 -0.4934 -1.9287 -1.1586
  710MOL0     H93706   5.552   4.498   6.617  2.1988  1.3473  1.2724
  710MOL0     H93707   5.640   4.580   6.829  2.0076 -1.5824 -0.6580
  710MOL0     H93708   5.825   4.548   7.197 -2.1048 -0.5616 -1.1511
  710MOL0     H93709   5.943   4.670   7.388  1.3157  0.3908 -1.4653
  710MOL0     H93710   5.724   4.605   7.753 -1.4174 -0.1663 -3.3073
  710MOL0     H93711   5.698   4.777   7.780 -2.0285 -0.7217 -0.9564
  710MOL0     H93712   5.975   4.697   7.806 -0.5465  4.2250 -1.7141
  710MOL0     H93713   5.885   4.812   7.898 -1.5266  0.8608 -0.3845
  710MOL0     H93714   5.875   4.507   7.921 -1.5850  0.5972  0.3951
  710MOL0     H93715   5.751   4.596   8.008  1.3514 -0.9498  2.2807
  710MOL0     H93716   5.930   4.553   8.161  0.9230  2.3632  1.9815
  710MOL0     H93717   6.055   4.604   8.056 -0.5406 -2.4387  0.7118
  710MOL0     H93718   5.886   4.961   8.209 -1.9747  0.0432 -3.5939
  710MOL0     H93719   5.556   4.687   7.584 -0.8805  0.9096 -0.2263
  710MOL0     H93720   5.451   4.589   7.397 -0.0687 -0.4528  1.6238
  711MOL0     O93721   3.812  10.888  11.158  0.2092 -0.0610  0.6618
  711MOL0     C93722   3.852  10.987  11.092  0.5424  0.5626 -0.7523
  711MOL0     O93723   3.978  11.018  11.087  0.0584 -0.7043  0.8728
  711MOL0     C93724   4.075  10.928  11.123  0.7736  0.4721  0.5080
  711MOL0     C93725   4.175  10.971  11.204  0.4431  0.0887 -0.7042
  711MOL0     C93726   4.284  10.888  11.236 -0.8169 -0.1521  0.9362
  711MOL0     C93727   4.297  10.757  11.189 -1.0834  0.3133 -0.1704
  711MOL0     O93728   4.407  10.682  11.234  0.6332 -0.5810 -0.2228
  711MOL0     C93729   4.385  10.544  11.233  0.9085 -1.0014 -0.4153
  711MOL0     C93730   4.497  10.464  11.286 -0.9748  0.5029 -0.3167
  711MOL0     C93731   4.538  10.505  11.425  0.4135 -0.2380 -0.9203
  711MOL0     C93732   4.436  10.449  11.528 -0.9114 -1.0955  0.2755
  711MOL0     C93733   4.430  10.520  11.669  0.2555  0.4858 -0.1182
  711MOL0     C93734   4.352  10.450  11.781 -0.6842 -0.4685 -0.9005
  711MOL0     C93735   4.371  10.297  11.790  0.5289 -0.2036  1.1858
  711MOL0     C93736   4.514  10.247  11.848  0.5169 -0.3313 -0.5886
  711MOL0     N93737   4.516  10.102  11.862 -0.2752 -0.7348  0.5094
  711MOL0     C93738   4.528  10.036  11.978  0.3217 -0.2432 -0.0982
  711MOL0     C93739   4.573   9.911  11.947 -1.0077  0.2184 -0.1402
  711MOL0     C93740   4.593   9.809  12.060 -0.2371  0.1729 -0.2464
  711MOL0     C93741   4.651   9.682  12.004  0.7768 -0.2770 -0.7954
  711MOL0     C93742   4.693   9.585  12.125  0.5505  0.3512 -0.3765
  711MOL0     C93743   4.834   9.510  12.102  0.6992 -0.0324 -0.3539
  711MOL0     O93744   4.858   9.437  12.221 -0.2790  0.3474 -0.4897
  711MOL0     C93745   4.987   9.394  12.242  0.6147  0.7695  0.8345
  711MOL0     C93746   5.082   9.358  12.139  0.0224 -1.0534 -0.1484
  711MOL0     C93747   5.193   9.276  12.177  0.1032  0.3260  1.2818
  711MOL0     C93748   5.230   9.258  12.318  0.3128 -0.7854 -0.5067
  711MOL0     C93749   5.353   9.181  12.342 -0.6628  0.1888 -0.8442
  711MOL0     O93750   5.353   9.101  12.458 -1.3907  0.1227 -0.1878
  711MOL0     C93751   5.465   9.025  12.472  0.2028 -0.2330 -0.0624
  711MOL0     C93752   5.463   8.900  12.418  0.3340 -0.1690  0.1650
  711MOL0     C93753   5.569   8.814  12.435 -0.2615  0.8518  0.0294
  711MOL0     C93754   5.683   8.842  12.517 -0.2905 -0.7582  0.5582
  711MOL0     O93755   5.785   8.752  12.508  0.1695  0.2573 -0.0073
  711MOL0     C93756   5.873   8.739  12.622 -1.0831  0.4933  0.1698
  711MOL0     C93757   5.912   8.598  12.664  0.0794  0.5973  0.5461
  711MOL0     C93758   5.784   8.507  12.652  0.6228  0.3416 -0.0259
  711MOL0     C93759   5.806   8.361  12.613  0.1451  0.0043  0.6393
  711MOL0     C93760   5.678   8.279  12.622  0.9753 -1.5469  0.0435
  711MOL0     C93761   5.700   8.136  12.566  0.3574 -0.4928  0.6584
  711MOL0     C93762   5.748   8.026  12.676  0.3900  0.3114  0.2480
  711MOL0     C93763   5.655   8.007  12.798 -0.5515  0.5527 -0.2525
  711MOL0    Cl93764   5.696   7.832  12.833  0.3287 -0.4646 -0.5180
  711MOL0     C93765   5.683   8.977  12.571 -1.0053 -0.0606  0.4648
  711MOL0     C93766   5.576   9.067  12.551 -0.2466  0.1416  0.5602
  711MOL0     O93767   5.443   9.187  12.264 -0.6834 -1.0222 -0.2785
  711MOL0     C93768   5.131   9.278  12.411 -0.2010  0.2244  0.7399
  711MOL0     C93769   5.011   9.343  12.373  0.2888 -0.2909  0.5373
  711MOL0     N93770   4.589   9.904  11.808  0.5105 -0.3785 -0.1672
  711MOL0     N93771   4.556  10.023  11.759  0.1219 -0.2539 -0.1519
  711MOL0     C93772   4.191  10.712  11.111  0.0553 -0.0851 -0.0181
  711MOL0     C93773   4.092  10.796  11.070  0.5259  0.4812  0.0215
  711MOL0     C93774   3.753  11.086  11.056 -0.0078 -0.2896 -0.2368
  711MOL0     C93775   3.614  11.070  11.088  0.4227 -0.1193  0.1827
  711MOL0     C93776   3.524  11.175  11.069 -0.3837 -0.1999  0.1327
  711MOL0     C93777   3.563  11.291  11.011  0.7224 -0.5565  0.1750
  711MOL0     O93778   3.474  11.390  11.005  0.5723  0.2146 -0.1749
  711MOL0     C93779   3.507  11.519  10.952  0.2783  0.8306  0.5772
  711MOL0     C93780   3.411  11.632  11.009 -0.2845  0.1909  0.3775
  711MOL0     C93781   3.427  11.627  11.157  0.7384  0.1440  0.5775
  711MOL0     C93782   3.352  11.735  11.231 -0.1966  0.9237 -0.5780
  711MOL0     C93783   3.439  11.829  11.293  0.8010  0.0341 -0.1470
  711MOL0     C93784   3.502  11.916  11.354 -0.4682 -0.0284 -0.2399
  711MOL0     C93785   3.699  11.302  10.968 -0.3020  0.2821  0.5554
  711MOL0     C93786   3.793  11.208  10.999 -0.3710 -0.6620  0.3480
  711MOL0     H93787   4.171  11.068  11.254 -1.5074 -1.0224  1.4849
  711MOL0     H93788   4.367  10.933  11.290 -2.1911  0.6325  2.5289
  711MOL0     H93789   4.350  10.509  11.136  0.7853 -0.8400 -0.4306
  711MOL0     H93790   4.302  10.521  11.301  0.2464  2.9224  0.3784
  711MOL0     H93791   4.583  10.486  11.221 -2.6213  1.6355 -2.2412
  711MOL0     H93792   4.468  10.359  11.282 -2.6410  0.8564  1.2283
  711MOL0     H93793   4.535  10.613  11.441  2.0085 -0.4106  0.8225
  711MOL0     H93794   4.641  10.476  11.446 -0.0082 -0.8276  0.4764
  711MOL0     H93795   4.338  10.462  11.481  0.2019  3.2252 -1.3321
  711MOL0     H93796   4.451  10.342  11.544 -1.9394 -1.2951 -0.0202
  711MOL0     H93797   4.405  10.626  11.656  1.7670  1.4180  3.2855
  711MOL0     H93798   4.533  10.523  11.708 -1.3762  1.1052  4.8875
  711MOL0     H93799   4.246  10.466  11.760 -0.8136 -0.0873  0.0231
  711MOL0     H93800   4.377  10.491  11.879  2.7503 -2.9040 -0.5516
  711MOL0     H93801   4.297  10.264  11.863 -1.0511  3.2736  1.3803
  711MOL0     H93802   4.334  10.257  11.695  0.6447  2.6418 -0.1678
  711MOL0     H93803   4.520  10.297  11.945 -1.1581 -1.3092  0.0433
  711MOL0     H93804   4.597  10.291  11.791  1.5740 -1.1008  0.3160
  711MOL0     H93805   4.493  10.072  12.074 -1.8706 -0.5485 -0.7138
  711MOL0     H93806   4.497   9.784  12.105 -0.8530 -0.8813 -2.0610
  711MOL0     H93807   4.653   9.858  12.137 -0.8534 -2.0187  1.7440
  711MOL0     H93808   4.737   9.723  11.949  0.2220  2.9545  0.5393
  711MOL0     H93809   4.584   9.626  11.939 -2.5058  1.2220  1.0935
  711MOL0     H93810   4.695   9.635  12.222 -0.8983  0.2247 -0.2645
  711MOL0     H93811   4.613   9.511  12.135  1.0206 -0.3216 -1.3402
  711MOL0     H93812   4.911   9.587  12.093  0.2151  1.0252  3.0209
  711MOL0     H93813   4.824   9.449  12.012 -0.8297  1.3592 -1.1688
  711MOL0     H93814   5.065   9.379  12.034  4.1160 -0.2322 -0.7979
  711MOL0     H93815   5.261   9.251  12.096 -1.3002  1.2800 -0.2552
  711MOL0     H93816   5.372   8.866  12.370 -0.4580  3.2779 -1.0268
  711MOL0     H93817   5.573   8.722  12.377 -0.4556 -0.9804  2.7022
  711MOL0     H93818   5.823   8.776  12.713  0.5342 -1.7672  2.1155
  711MOL0     H93819   5.962   8.801  12.605  0.1429 -1.4571 -0.8628
  711MOL0     H93820   5.952   8.606  12.766  2.6040  2.2529 -0.4768
  711MOL0     H93821   5.986   8.555  12.596  0.2801  0.3261  0.9278
  711MOL0     H93822   5.709   8.550  12.584 -0.7469  0.9123  1.7706
  711MOL0     H93823   5.720   8.520  12.740  1.8437  1.4335  0.7338
  711MOL0     H93824   5.845   8.360  12.511 -1.5344 -4.1000 -0.1384
  711MOL0     H93825   5.887   8.315  12.669 -0.5593 -4.1368 -1.3189
  711MOL0     H93826   5.610   8.338  12.559  3.3801  0.6738 -0.6687
  711MOL0     H93827   5.632   8.279  12.721  4.1629 -0.4028  1.6789
  711MOL0     H93828   5.783   8.140  12.495  2.1965 -0.0696  2.7157
  711MOL0     H93829   5.618   8.089  12.511 -1.0380 -0.7321  2.8286
  711MOL0     H93830   5.768   7.929  12.630  2.9831  1.7957 -2.0484
  711MOL0     H93831   5.843   8.065  12.714 -0.7007  3.0095  0.4323
  711MOL0     H93832   5.550   8.022  12.772 -1.1702 -3.4373 -0.6722
  711MOL0     H93833   5.677   8.072  12.883 -1.5920 -0.6826  1.0115
  711MOL0     H93834   5.777   8.992  12.624 -2.4515 -0.0200  3.1981
  711MOL0     H93835   5.576   9.166  12.596 -1.2770 -0.9397  3.1596
  711MOL0     H93836   5.143   9.236  12.511  0.3346  0.2430  0.6860
  711MOL0     H93837   4.924   9.364  12.435 -1.3261 -0.6020 -1.5002
  711MOL0     H93838   4.178  10.609  11.080 -0.5177  0.7699 -3.0439
  711MOL0     H93839   4.021  10.755  10.998  0.4596 -0.4304  0.5899
  711MOL0     H93840   3.574  10.976  11.125  1.3502 -0.7022 -0.2522
  711MOL0     H93841   3.419  11.173  11.094 -0.9928 -0.0069 -2.1297
  711MOL0     H93842   3.508  11.522  10.843  3.0901 -2.8971  0.3048
  711MOL0     H93843   3.612  11.541  10.974  1.1066  0.4973 -2.6077
  711MOL0     H93844   3.431  11.734  10.973  2.9290 -0.7410 -0.8667
  711MOL0     H93845   3.314  11.610  10.965  0.1192  1.9763 -1.5738
  711MOL0     H93846   3.530  11.613  11.190  0.0629 -0.7115  2.4759
  711MOL0     H93847   3.386  11.532  11.193  0.0939 -0.2051 -0.9987
  711MOL0     H93848   3.277  11.781  11.166 -2.9552 -2.6258 -0.2411
  711MOL0     H93849   3.299  11.680  11.309  0.1699  0.0922 -0.9081
  711MOL0     H93850   3.555  11.996  11.402  1.0724 -3.0188  3.5650
  711MOL0     H93851   3.719  11.389  10.907  1.2462 -0.2932  0.1979
  711MOL0     H93852   3.898  11.218  10.974 -0.1261 -3.6593 -0.1520
  712MOL0     O93853   2.017   8.188   0.443 -0.0314  0.2711 -0.2827
  712MOL0     C93854   1.927   8.252   0.388  1.1199 -0.7657  0.4188
  712MOL0     O93855   1.924   8.307   0.261  0.5120 -0.2426 -0.8451
  712MOL0     C93856   2.034   8.285   0.189 -0.9380  0.2939  0.5178
  712MOL0     C93857   2.094   8.154   0.172  0.1318  0.3408  0.0735
  712MOL0     C93858   2.214   8.145   0.104  0.0929  0.3539  1.0606
  712MOL0     C93859   2.277   8.258   0.041  0.7226  0.2258  0.0673
  712MOL0     O93860   2.393   8.253  -0.042 -0.0366 -0.1559  0.2243
  712MOL0     C93861   2.469   8.126  -0.052 -0.1068 -0.6432  0.0171
  712MOL0     C93862   2.583   8.139  -0.169  0.2330  0.2042 -0.4783
  712MOL0     C93863   2.723   8.076  -0.134  0.7836 -0.1415 -0.0392
  712MOL0     C93864   2.782   8.153  -0.010 -0.0781 -0.4018  0.5938
  712MOL0     C93865   2.936   8.118  -0.005 -0.2271 -0.0390 -0.4921
  712MOL0     C93866   2.995   8.192   0.116 -0.3445  0.8388 -0.4042
  712MOL0     C93867   3.144   8.214   0.094  0.2062 -0.0464  0.7035
  712MOL0     C93868   3.211   8.240   0.228  1.2661 -0.3584 -0.1861
  712MOL0     N93869   3.344   8.290   0.234 -0.2386 -0.3004  0.1043
  712MOL0     C93870   3.446   8.228   0.168 -1.0498 -0.3319  0.4345
  712MOL0     C93871   3.551   8.318   0.175  0.3997  0.7242 -0.4459
  712MOL0     C93872   3.684   8.317   0.129  1.0448  0.4485  0.8926
  712MOL0     C93873   3.787   8.300   0.247  0.1856  0.0279 -0.5259
  712MOL0     C93874   3.930   8.316   0.195  1.0230  0.1489 -0.1027
  712MOL0     C93875   4.023   8.271   0.301 -0.5448  0.7324  0.6863
  712MOL0     O93876   4.155   8.287   0.244 -0.4401  0.9401 -0.8348
  712MOL0     C93877   4.259   8.225   0.314  0.5137 -0.3767  0.6969
  712MOL0     C93878   4.243   8.178   0.450 -0.7709  0.7026  0.3335
  712MOL0     C93879   4.352   8.107   0.506 -0.8018  1.1789 -0.3868
  712MOL0     C93880   4.470   8.082   0.430  0.2289  0.0449 -0.1943
  712MOL0     C93881   4.584   8.011   0.490  1.2874 -0.8514 -0.8792
  712MOL0     O93882   4.698   8.040   0.420 -0.0537  0.3642  0.0891
  712MOL0     C93883   4.801   7.967   0.453 -0.1505 -0.1867  0.2431
  712MOL0     C93884   4.815   7.834   0.406 -0.1903 -1.0967 -0.3014
  712MOL0     C93885   4.931   7.760   0.427  0.3216 -0.0707  0.9984
  712MOL0     C93886   5.032   7.815   0.512  0.8302  0.6588  0.0074
  712MOL0     O93887   5.159   7.773   0.540 -0.2191 -0.1261  0.1188
  712MOL0     C93888   5.210   7.643   0.494  0.7033 -0.1200 -0.0192
  712MOL0     C93889   5.240   7.649   0.350  1.1133  0.3988 -0.1584
  712MOL0     C93890   5.335   7.757   0.296  0.3354 -0.8110  0.0815
  712MOL0     C93891   5.385   7.735   0.152 -0.1224  0.7202 -0.4751
  712MOL0     C93892   5.473   7.853   0.126  0.0951 -0.1708 -0.2171
  712MOL0     C93893   5.527   7.842  -0.024  0.0162  1.0461  0.6062
  712MOL0     C93894   5.621   7.957  -0.054  0.4022  0.0177  0.8908
  712MOL0     C93895   5.652   7.988  -0.205  0.4970  0.3953 -0.1421
  712MOL0    Cl93896   5.665   7.833  -0.284 -0.2335  0.3138 -0.3964
  712MOL0     C93897   5.017   7.946   0.559 -1.3297 -0.1400 -0.5910
  712MOL0     C93898   4.907   8.020   0.524 -0.7438 -0.5150  0.6624
  712MOL0     O93899   4.572   7.949   0.595  0.6691  0.3324 -0.1529
  712MOL0     C93900   4.475   8.123   0.302 -0.1925 -0.4470 -0.0717
  712MOL0     C93901   4.371   8.187   0.238 -0.2106 -0.0671  0.2939
  712MOL0     N93902   3.502   8.430   0.244 -0.5225  0.6308  0.1153
  712MOL0     N93903   3.381   8.417   0.268 -0.0518 -0.7162  1.0150
  712MOL0     C93904   2.202   8.381   0.044  0.4989  0.0400 -0.7145
  712MOL0     C93905   2.090   8.394   0.123 -0.5465  0.4546  0.3311
  712MOL0     C93906   1.821   8.311   0.476  0.2053  0.2378  0.1677
  712MOL0     C93907   1.812   8.274   0.615  0.5669  0.2987  0.6864
  712MOL0     C93908   1.713   8.331   0.690  0.9811  0.5133 -0.0389
  712MOL0     C93909   1.621   8.421   0.637  0.3128  1.1789 -0.3471
  712MOL0     O93910   1.527   8.463   0.734  0.7072 -0.3975  0.5402
  712MOL0     C93911   1.404   8.521   0.689  0.0969  0.1775  1.4313
  712MOL0     C93912   1.284   8.435   0.633 -0.2462 -1.0660 -0.1471
  712MOL0     C93913   1.218   8.358   0.742 -0.1833  0.6024 -0.1804
  712MOL0     C93914   1.094   8.271   0.691  0.5914 -0.6445  0.3339
  712MOL0     C93915   0.996   8.268   0.797 -0.3495  0.8028 -0.4484
  712MOL0     C93916   0.918   8.268   0.891  0.5411  0.4660  0.0539
  712MOL0     C93917   1.630   8.455   0.500 -0.1643 -0.8085 -0.0918
  712MOL0     C93918   1.732   8.399   0.419  0.5647 -0.2224 -0.9485
  712MOL0     H93919   2.050   8.062   0.208 -1.1547  0.4926 -1.0254
  712MOL0     H93920   2.262   8.048   0.099  0.6325  0.6718 -1.8230
  712MOL0     H93921   2.403   8.041  -0.072 -1.1924  0.4080 -1.0730
  712MOL0     H93922   2.504   8.102   0.048 -1.2091  2.7218  1.3539
  712MOL0     H93923   2.604   8.245  -0.188 -1.2911  0.3882 -1.3335
  712MOL0     H93924   2.553   8.089  -0.262 -1.2283 -2.6950  1.4194
  712MOL0     H93925   2.792   8.103  -0.215  1.4121  0.8681  0.8030
  712MOL0     H93926   2.704   7.970  -0.115 -4.7425  0.2509 -1.7224
  712MOL0     H93927   2.763   8.260  -0.017 -0.5483 -0.5418 -0.6647
  712MOL0     H93928   2.725   8.131   0.081  1.1036  1.3276  1.7970
  712MOL0     H93929   2.995   8.145  -0.093  3.6555 -1.6213  1.3913
  712MOL0     H93930   2.949   8.010   0.012 -0.2558  0.3967  2.9130
  712MOL0     H93931   2.969   8.151   0.214 -0.5094 -0.2543 -0.8872
  712MOL0     H93932   2.950   8.290   0.104  0.5576  1.2936 -0.2094
  712MOL0     H93933   3.178   8.129   0.034 -1.2377  1.7068 -2.9319
  712MOL0     H93934   3.158   8.299   0.027 -0.6863 -1.4419 -1.3636
  712MOL0     H93935   3.203   8.146   0.284  4.1720  0.5411  1.9749
  712MOL0     H93936   3.156   8.312   0.288  1.2361  0.7583 -1.4972
  712MOL0     H93937   3.456   8.125   0.133  1.2554  0.1903 -0.6853
  712MOL0     H93938   3.716   8.404   0.072 -0.1092 -0.7477 -1.7810
  712MOL0     H93939   3.698   8.240   0.053  2.0168  0.7735  0.7264
  712MOL0     H93940   3.770   8.202   0.293  0.2284  1.0884  1.8771
  712MOL0     H93941   3.757   8.380   0.315 -0.1585 -0.6744  0.1675
  712MOL0     H93942   3.939   8.245   0.113  3.2410  0.4555 -0.1882
  712MOL0     H93943   3.948   8.420   0.166  0.1036  0.7483  1.3040
  712MOL0     H93944   3.992   8.170   0.331 -0.9821  1.1295  1.5930
  712MOL0     H93945   4.016   8.349   0.376  1.3183  1.4974  0.1283
  712MOL0     H93946   4.155   8.212   0.503 -2.7404  0.8230 -2.7837
  712MOL0     H93947   4.342   8.070   0.607 -1.3249  0.6981 -0.6081
  712MOL0     H93948   4.741   7.789   0.342 -2.0723  0.8247  0.4295
  712MOL0     H93949   4.946   7.674   0.362  3.9030  0.5246  0.8328
  712MOL0     H93950   5.138   7.565   0.521  2.0529 -1.3757  0.1069
  712MOL0     H93951   5.300   7.618   0.551  1.0838 -1.5722 -1.1706
  712MOL0     H93952   5.144   7.669   0.302  0.6012 -0.2234  0.5844
  712MOL0     H93953   5.285   7.557   0.312  1.0868 -0.2662  1.3467
  712MOL0     H93954   5.426   7.760   0.357  2.8924 -0.4293 -3.4108
  712MOL0     H93955   5.279   7.850   0.303 -4.5329 -3.2662 -1.5698
  712MOL0     H93956   5.447   7.645   0.162  0.7758  1.5585  4.6815
  712MOL0     H93957   5.298   7.720   0.087 -0.7302  0.8439  0.2940
  712MOL0     H93958   5.555   7.863   0.198 -0.7346  0.7572  0.6329
  712MOL0     H93959   5.410   7.942   0.134 -0.7683 -0.7286 -0.6398
  712MOL0     H93960   5.447   7.833  -0.098  2.1887 -1.8406 -1.6677
  712MOL0     H93961   5.588   7.751  -0.038 -0.7033  0.5736  0.5125
  712MOL0     H93962   5.566   8.046  -0.022 -3.4022 -1.3628 -1.1213
  712MOL0     H93963   5.711   7.949   0.007  1.0737  2.4618  0.3276
  712MOL0     H93964   5.754   8.027  -0.207  1.1392 -1.2320 -1.0255
  712MOL0     H93965   5.581   8.059  -0.250  0.4515 -1.2231 -2.8361
  712MOL0     H93966   5.101   7.994   0.609 -2.6785  5.3982 -2.8992
  712MOL0     H93967   4.892   8.122   0.558 -1.9293  0.7544 -3.1562
  712MOL0     H93968   4.568   8.135   0.247 -0.5232 -2.0405 -1.0335
  712MOL0     H93969   4.386   8.221   0.136  3.1993 -2.2117 -0.0920
  712MOL0     H93970   2.242   8.469  -0.004 -0.0991 -0.3230 -1.9250
  712MOL0     H93971   2.036   8.487   0.138 -0.2510  0.2803  2.9624
  712MOL0     H93972   1.868   8.193   0.660 -1.3652 -2.2153 -1.1172
  712MOL0     H93973   1.711   8.271   0.780 -1.7322 -2.5795 -1.8998
  712MOL0     H93974   1.419   8.581   0.599 -2.7592 -1.0453  0.0128
  712MOL0     H93975   1.370   8.589   0.768 -1.1801  2.4002 -0.9037
  712MOL0     H93976   1.212   8.505   0.589  1.0622  0.0162 -0.6366
  712MOL0     H93977   1.312   8.376   0.546 -1.3331 -0.0730 -1.2080
  712MOL0     H93978   1.193   8.431   0.821  0.4549 -1.1548  1.7419
  712MOL0     H93979   1.296   8.292   0.781 -0.8561  0.0410  0.2467
  712MOL0     H93980   1.050   8.314   0.601 -0.7253 -3.3668 -0.4014
  712MOL0     H93981   1.135   8.172   0.674  0.4271 -0.7181  0.3627
  712MOL0     H93982   0.849   8.266   0.973  0.4229 -3.0402  0.0142
  712MOL0     H93983   1.572   8.533   0.452  1.1991 -0.2529 -0.8625
  712MOL0     H93984   1.737   8.432   0.316  1.3382  1.1336 -0.4895
  713MOL0     O93985   9.676   9.154   8.168  0.7206 -0.0714 -0.4823
  713MOL0     C93986   9.781   9.135   8.226  0.4271  0.3477 -1.9860
  713MOL0     O93987   9.871   9.036   8.201 -0.1256 -0.3490  0.7582
  713MOL0     C93988   9.858   8.960   8.091 -0.8121  0.2100  0.9438
  713MOL0     C93989   9.753   8.874   8.069  0.1259  0.1704 -0.8792
  713MOL0     C93990   9.746   8.803   7.948  0.1312  0.5583 -0.0315
  713MOL0     C93991   9.849   8.812   7.852 -0.5545 -0.1250  0.4132
  713MOL0     O93992   9.861   8.739   7.744 -0.0720 -0.4261  0.2420
  713MOL0     C93993   9.742   8.677   7.682 -0.5776 -1.1901  0.3661
  713MOL0     C93994   9.778   8.567   7.572 -0.4207 -0.1691 -0.2609
  713MOL0     C93995   9.653   8.509   7.514 -0.7457  1.4258 -0.7697
  713MOL0     C93996   9.701   8.456   7.383 -0.5761  0.8653 -0.1108
  713MOL0     C93997   9.585   8.388   7.300  0.4991 -0.3091 -0.2395
  713MOL0     C93998   9.636   8.330   7.166 -1.0120  0.1608 -0.6021
  713MOL0     C93999   9.558   8.207   7.091  0.2842  0.4325 -0.3856
  713MOL0     C94000   9.472   8.242   6.970  0.3370 -1.0668  0.0871
  713MOL0     N94001   9.410   8.128   6.901  0.0873 -0.4553 -0.8999
  713MOL0     C94002   9.459   8.029   6.826 -0.1361  0.3230  0.1698
  713MOL0     C94003   9.367   7.934   6.804 -0.2798 -0.7676  1.3875
  713MOL0     C94004   9.393   7.803   6.739  1.1230  0.3354 -0.1640
  713MOL0     C94005   9.386   7.685   6.844 -1.0098 -1.4345  0.1430
  713MOL0     C94006   9.484   7.703   6.962  0.6106  0.0619  0.2735
  713MOL0     C94007   9.425   7.796   7.073 -0.0516 -0.1915 -0.5921
  713MOL0     O94008   9.524   7.798   7.183 -0.8052 -0.3835 -0.0580
  713MOL0     C94009   9.513   7.891   7.283  0.6328  0.6152 -0.4867
  713MOL0     C94010   9.383   7.939   7.307 -0.0581  0.2118 -0.6674
  713MOL0     C94011   9.370   8.029   7.416 -1.0414  0.5909 -0.1011
  713MOL0     C94012   9.475   8.075   7.506 -0.2610 -0.2247  0.3238
  713MOL0     C94013   9.455   8.165   7.621 -0.0818 -0.4249  0.5963
  713MOL0     O94014   9.565   8.186   7.693  0.3052  0.1270 -1.2622
  713MOL0     C94015   9.574   8.262   7.806 -0.2495 -0.3035 -0.0525
  713MOL0     C94016   9.694   8.319   7.844 -0.1819  0.8530  1.0906
  713MOL0     C94017   9.708   8.395   7.958  0.1688  0.4206 -0.2565
  713MOL0     C94018   9.603   8.399   8.048 -0.1698 -0.1550  0.6066
  713MOL0     O94019   9.629   8.472   8.157 -0.8501 -0.9545 -0.3705
  713MOL0     C94020   9.541   8.455   8.276 -0.4975 -0.1959 -0.3173
  713MOL0     C94021   9.620   8.506   8.394  0.0484  0.1064  0.3229
  713MOL0     C94022   9.669   8.651   8.368  0.5567 -0.3304  0.7936
  713MOL0     C94023   9.736   8.710   8.493 -0.6039 -1.1181  0.6289
  713MOL0     C94024   9.786   8.864   8.468 -0.1214  0.5976 -0.0719
  713MOL0     C94025   9.852   8.933   8.584 -0.0641 -0.3416  0.5753
  713MOL0     C94026   9.955   8.863   8.670 -0.8015  0.9307  0.4504
  713MOL0     C94027  10.033   8.969   8.754 -0.8000  0.3041 -0.1092
  713MOL0    Cl94028  10.126   9.085   8.643  0.0722 -0.3263  0.2540
  713MOL0     C94029   9.477   8.338   8.022 -0.5173  0.1895 -0.2242
  713MOL0     C94030   9.464   8.270   7.897  0.3677 -0.6658  0.8288
  713MOL0     O94031   9.348   8.219   7.636 -0.3573 -0.8869 -0.9420
  713MOL0     C94032   9.602   8.006   7.473  0.4522 -0.8030 -0.0418
  713MOL0     C94033   9.623   7.924   7.362 -0.8228  0.4227 -0.1044
  713MOL0     N94034   9.244   7.987   6.853  1.2535 -0.5615 -1.1017
  713MOL0     N94035   9.281   8.095   6.920 -0.1008  0.6829 -0.1033
  713MOL0     C94036   9.950   8.898   7.874 -0.0859  0.8955 -0.5075
  713MOL0     C94037   9.953   8.990   7.980  0.1215 -0.2415  0.4301
  713MOL0     C94038   9.806   9.225   8.333  0.1015 -0.0965 -0.2141
  713MOL0     C94039   9.699   9.275   8.412  1.2501  1.5342  0.4591
  713MOL0     C94040   9.723   9.353   8.529 -0.1710  0.1814 -0.1737
  713MOL0     C94041   9.854   9.386   8.568  0.3798 -0.6003  0.5680
  713MOL0     O94042   9.883   9.442   8.692  0.0999  0.4897  0.7702
  713MOL0     C94043   9.777   9.451   8.780  0.2805 -0.2735  1.2683
  713MOL0     C94044   9.824   9.526   8.906  0.6112 -0.4436  0.1516
  713MOL0     C94045   9.894   9.422   9.004 -1.0947  0.0521  0.0615
  713MOL0     C94046   9.942   9.482   9.136  0.0482  0.1695 -0.7477
  713MOL0     C94047  10.048   9.584   9.138 -0.7277  0.1298 -0.5729
  713MOL0     C94048  10.140   9.658   9.161  0.3845  0.2054 -0.1350
  713MOL0     C94049   9.957   9.341   8.483  0.3847  0.2441 -0.6708
  713MOL0     C94050   9.931   9.267   8.367 -0.0422 -0.5216  0.6277
  713MOL0     H94051   9.673   8.848   8.137  0.7574 -0.5951 -0.4167
  713MOL0     H94052   9.664   8.733   7.939 -1.7015  2.5215  0.6639
  713MOL0     H94053   9.692   8.755   7.624  1.0050  0.8812  1.6362
  713MOL0     H94054   9.673   8.640   7.758 -0.1805  2.7119  2.9139
  713MOL0     H94055   9.846   8.500   7.625 -0.0900  0.0525 -0.4014
  713MOL0     H94056   9.827   8.624   7.493  0.5891  0.3481  0.7039
  713MOL0     H94057   9.569   8.580   7.512 -1.8787  0.1331 -1.9733
  713MOL0     H94058   9.616   8.418   7.561 -0.4881  0.7428 -1.8478
  713MOL0     H94059   9.741   8.538   7.323  0.1390  0.9901  0.5276
  713MOL0     H94060   9.769   8.372   7.399 -0.2276  1.2289  0.2940
  713MOL0     H94061   9.511   8.465   7.282  1.6108  1.3250  1.7675
  713MOL0     H94062   9.542   8.300   7.348  2.3330 -0.7810  0.6281
  713MOL0     H94063   9.734   8.288   7.190 -0.5781  1.1174 -0.6459
  713MOL0     H94064   9.649   8.415   7.099 -1.5762 -0.0571 -1.0002
  713MOL0     H94065   9.626   8.125   7.065 -1.0765 -0.7043 -0.4651
  713MOL0     H94066   9.502   8.163   7.173  2.9101  1.6205  2.2290
  713MOL0     H94067   9.529   8.298   6.895 -3.4340 -0.3475 -2.5465
  713MOL0     H94068   9.395   8.311   7.005  3.0832  2.0031  0.5744
  713MOL0     H94069   9.564   8.031   6.798 -0.1901  3.6269 -0.2534
  713MOL0     H94070   9.489   7.819   6.690  1.9351 -0.5410  1.0843
  713MOL0     H94071   9.310   7.788   6.669 -0.3005  1.0603  1.2967
  713MOL0     H94072   9.421   7.597   6.789  3.0056  2.4458 -4.4511
  713MOL0     H94073   9.282   7.669   6.872 -2.2261 -1.4626 -3.7804
  713MOL0     H94074   9.507   7.606   7.008  3.1751  0.9361  0.9719
  713MOL0     H94075   9.584   7.729   6.928  0.5074  2.7962  1.8111
  713MOL0     H94076   9.325   7.765   7.102  0.5149 -0.3424  1.3849
  713MOL0     H94077   9.415   7.899   7.038  5.4882  1.5947  1.8916
  713MOL0     H94078   9.294   7.914   7.251  0.3275  0.9451 -1.6499
  713MOL0     H94079   9.280   8.086   7.436 -1.0401  1.3508 -2.0319
  713MOL0     H94080   9.777   8.290   7.780 -1.5954  0.4179 -0.6341
  713MOL0     H94081   9.801   8.447   7.980  1.3376  0.0214 -3.5722
  713MOL0     H94082   9.518   8.349   8.283 -2.3850  0.1321 -1.0744
  713MOL0     H94083   9.447   8.510   8.263 -0.3746 -0.2583 -1.5942
  713MOL0     H94084   9.707   8.445   8.421  0.2379  0.4235  0.4303
  713MOL0     H94085   9.555   8.497   8.481 -0.9917  0.8260 -0.3503
  713MOL0     H94086   9.591   8.721   8.338 -0.2910 -0.4314  2.5747
  713MOL0     H94087   9.748   8.641   8.294 -1.0059  0.8594 -1.1167
  713MOL0     H94088   9.662   8.712   8.573  1.9258 -2.6434  3.2000
  713MOL0     H94089   9.815   8.642   8.526  2.6231  3.1169  2.6699
  713MOL0     H94090   9.694   8.920   8.452 -0.9828 -0.0884  2.0675
  713MOL0     H94091   9.858   8.854   8.387  1.4843  0.0360  1.3589
  713MOL0     H94092   9.782   8.963   8.662  3.2469  0.1563  3.6343
  713MOL0     H94093   9.901   9.023   8.545 -3.9147  1.7625  0.1912
  713MOL0     H94094   9.907   8.781   8.724  0.1853 -1.1336 -1.6150
  713MOL0     H94095  10.023   8.823   8.594 -0.3744  1.0982  0.7426
  713MOL0     H94096  10.099   8.916   8.823 -0.7548  0.4888 -0.0111
  713MOL0     H94097   9.966   9.030   8.814 -1.9279 -0.5020 -0.5177
  713MOL0     H94098   9.397   8.330   8.095  0.6320 -1.2643  0.9749
  713MOL0     H94099   9.372   8.216   7.875 -0.9188  1.6278  0.3068
  713MOL0     H94100   9.684   8.026   7.541  1.7748  0.1032 -1.8219
  713MOL0     H94101   9.713   7.872   7.331 -1.4634 -0.8783  0.1478
  713MOL0     H94102  10.035   8.883   7.808 -0.5973 -0.0059 -0.9720
  713MOL0     H94103  10.040   9.052   7.999  0.7552 -1.1720  0.6273
  713MOL0     H94104   9.601   9.233   8.389  2.6274 -0.9803 -1.3018
  713MOL0     H94105   9.637   9.384   8.587  0.6481  2.3213 -0.0408
  713MOL0     H94106   9.744   9.349   8.802 -1.6716 -0.1101 -0.6036
  713MOL0     H94107   9.695   9.501   8.729  2.7450 -0.5050 -3.5208
  713MOL0     H94108   9.899   9.599   8.874 -1.5106  1.9282  0.3501
  713MOL0     H94109   9.746   9.575   8.964 -0.7216 -2.5097  0.2002
  713MOL0     H94110   9.962   9.357   8.948 -1.9954 -2.8850  2.1465
  713MOL0     H94111   9.823   9.342   9.024  0.9515 -2.7082 -2.6661
  713MOL0     H94112   9.848   9.511   9.182 -1.0304 -1.1596 -2.0231
  713MOL0     H94113   9.988   9.399   9.191 -1.3860 -1.3910 -1.8266
  713MOL0     H94114  10.228   9.714   9.186  0.6046 -0.8357  1.6473
  713MOL0     H94115  10.058   9.366   8.515 -0.5984  0.6085  2.5126
  713MOL0     H94116  10.001   9.229   8.293 -1.7569  0.4424 -1.6162
  714MOL0     O94117  10.902   4.713   1.144 -0.5592 -0.7447 -0.0434
  714MOL0     C94118  10.990   4.771   1.079  0.3745 -0.0292  0.3868
  714MOL0     O94119  10.971   4.841   0.960  0.0867  0.5117 -0.5863
  714MOL0     C94120  10.851   4.825   0.890 -1.1446 -0.5342  0.4034
  714MOL0     C94121  10.868   4.799   0.750 -0.4002 -0.7581  0.5108
  714MOL0     C94122  10.755   4.813   0.667 -0.6145  0.3501  0.5820
  714MOL0     C94123  10.631   4.856   0.714 -0.7619  0.2130 -0.3160
  714MOL0     O94124  10.519   4.867   0.634 -0.0682  0.0089  0.8495
  714MOL0     C94125  10.434   4.755   0.612  0.2167  0.5403 -0.1089
  714MOL0     C94126  10.294   4.768   0.679  0.9829 -0.2155  0.1625
  714MOL0     C94127  10.208   4.649   0.657 -0.4343 -0.0578 -0.1740
  714MOL0     C94128  10.068   4.689   0.653 -0.0544  0.0380  0.4190
  714MOL0     C94129   9.971   4.568   0.625 -0.2470  0.1106 -0.3956
  714MOL0     C94130   9.990   4.506   0.490  0.1337  0.3139  0.0629
  714MOL0     C94131   9.869   4.421   0.439 -0.0335  0.9532 -0.4778
  714MOL0     C94132   9.764   4.501   0.377 -0.5377 -0.6559  0.5898
  714MOL0     N94133   9.656   4.420   0.329  0.0449 -0.0187  0.0550
  714MOL0     C94134   9.534   4.398   0.395  0.3135 -0.1627  0.3810
  714MOL0     C94135   9.477   4.300   0.329  0.2246 -1.0705  0.8078
  714MOL0     C94136   9.341   4.234   0.358 -0.0811 -0.1205  1.2539
  714MOL0     C94137   9.349   4.080   0.319 -0.5054 -0.1069 -0.8071
  714MOL0     C94138   9.231   3.994   0.373 -0.7331 -0.4215 -0.2345
  714MOL0     C94139   9.219   3.861   0.294 -0.2000  0.4023  0.3817
  714MOL0     O94140   9.077   3.860   0.288  0.1484  0.4005 -0.2189
  714MOL0     C94141   9.006   3.757   0.244 -0.2976  0.4344  0.0372
  714MOL0     C94142   9.061   3.633   0.194 -0.5270 -0.4636 -0.5103
  714MOL0     C94143   8.972   3.521   0.174 -0.6343 -0.0335 -0.2058
  714MOL0     C94144   8.833   3.525   0.200  0.2593 -0.9488  0.7247
  714MOL0     C94145   8.738   3.404   0.190  0.4506  0.0947  0.1667
  714MOL0     O94146   8.791   3.282   0.170 -0.0676  0.0164 -0.5164
  714MOL0     C94147   8.703   3.175   0.179  0.6868  0.4994 -0.1232
  714MOL0     C94148   8.704   3.095   0.291  0.1185 -0.0690 -0.4576
  714MOL0     C94149   8.613   2.995   0.309 -0.4313  0.1932 -0.9772
  714MOL0     C94150   8.511   2.963   0.211 -1.2072  0.1520 -0.2984
  714MOL0     O94151   8.439   2.849   0.231 -0.8414  0.0968 -0.7725
  714MOL0     C94152   8.451   2.749   0.139 -0.2449  0.3367  0.6993
  714MOL0     C94153   8.378   2.619   0.188  0.1085 -0.5329  0.4480
  714MOL0     C94154   8.403   2.510   0.093  0.9902 -0.1031  0.4986
  714MOL0     C94155   8.293   2.403   0.125  0.2650  0.5600 -1.0467
  714MOL0     C94156   8.325   2.269   0.051 -0.6140 -0.0766 -0.3697
  714MOL0     C94157   8.375   2.288  -0.098 -0.8683 -0.3765  0.4352
  714MOL0     C94158   8.376   2.155  -0.172  0.4209 -0.4363 -0.1891
  714MOL0     C94159   8.405   2.189  -0.313  0.4244 -0.2159  1.1861
  714MOL0    Cl94160   8.261   2.246  -0.405  0.0316  0.1534  0.1925
  714MOL0     C94161   8.514   3.040   0.101 -0.0022  0.0448 -0.5389
  714MOL0     C94162   8.595   3.151   0.089 -0.6483 -0.3281  0.4531
  714MOL0     O94163   8.621   3.435   0.173 -0.5599  0.7850  0.3275
  714MOL0     C94164   8.783   3.645   0.248 -0.4775  0.3259 -0.2989
  714MOL0     C94165   8.869   3.751   0.271 -0.2890  0.1018 -0.0944
  714MOL0     N94166   9.554   4.265   0.226 -0.4427  0.4542  0.6788
  714MOL0     N94167   9.656   4.336   0.225 -0.4432  0.5788  0.0777
  714MOL0     C94168  10.621   4.890   0.846 -0.1385 -0.6588 -1.4790
  714MOL0     C94169  10.727   4.865   0.933  0.2613 -0.2376  0.4113
  714MOL0     C94170  11.121   4.783   1.136 -0.4109 -0.3258  0.4003
  714MOL0     C94171  11.218   4.874   1.086  0.0275  0.5780  0.3236
  714MOL0     C94172  11.344   4.882   1.145 -0.2474  0.3842  0.2646
  714MOL0     C94173  11.388   4.798   1.240 -0.8806  0.6382  0.5223
  714MOL0     O94174  11.512   4.802   1.296  0.5406 -0.2005  0.6426
  714MOL0     C94175  11.562   4.929   1.310 -1.3031  0.3882 -0.3519
  714MOL0     C94176  11.674   4.970   1.212 -1.1155  0.1094 -0.1440
  714MOL0     C94177  11.732   4.861   1.125 -0.8505 -0.0684 -0.2191
  714MOL0     C94178  11.816   4.915   1.013 -0.5716  0.7219  0.6323
  714MOL0     C94179  11.738   4.953   0.897  0.2682  1.0055  0.0204
  714MOL0     C94180  11.684   4.994   0.795 -0.4314 -0.2798 -0.2156
  714MOL0     C94181  11.298   4.700   1.284 -0.3021 -0.2363 -0.1652
  714MOL0     C94182  11.163   4.694   1.238  0.9569 -0.1433  0.5627
  714MOL0     H94183  10.967   4.804   0.707 -1.3711  0.3043 -1.7447
  714MOL0     H94184  10.751   4.787   0.561 -0.8525 -0.1812  0.7201
  714MOL0     H94185  10.474   4.662   0.653  0.6594  1.7480  2.4261
  714MOL0     H94186  10.431   4.741   0.504 -1.1887  0.3834 -0.0782
  714MOL0     H94187  10.238   4.856   0.643 -1.4293 -0.9533  1.8446
  714MOL0     H94188  10.311   4.790   0.785 -0.5547  4.1525 -0.2680
  714MOL0     H94189  10.245   4.569   0.722 -0.3027  0.4082  0.3352
  714MOL0     H94190  10.232   4.604   0.560 -1.9371 -3.7057  0.9703
  714MOL0     H94191  10.054   4.748   0.744  2.8360  3.6103 -1.1977
  714MOL0     H94192  10.055   4.762   0.572 -3.2005  1.3748  1.9486
  714MOL0     H94193   9.874   4.614   0.641  0.5662  1.5870  0.4862
  714MOL0     H94194   9.987   4.493   0.703  0.9451  0.3724 -0.3718
  714MOL0     H94195  10.073   4.435   0.489 -1.2512 -1.3755 -0.5183
  714MOL0     H94196  10.014   4.576   0.410 -1.3852 -0.9900 -1.6139
  714MOL0     H94197   9.901   4.352   0.360 -0.1916 -2.3740  2.1804
  714MOL0     H94198   9.827   4.362   0.520 -1.8337  0.1046 -1.9607
  714MOL0     H94199   9.819   4.564   0.306 -2.3262 -0.6632 -0.8595
  714MOL0     H94200   9.724   4.567   0.455  0.3702  0.8576 -0.1796
  714MOL0     H94201   9.486   4.450   0.478 -0.2249 -2.4813  1.5895
  714MOL0     H94202   9.270   4.289   0.296  2.0677  0.4514 -0.8555
  714MOL0     H94203   9.314   4.240   0.464 -4.6076  0.6974  0.2272
  714MOL0     H94204   9.442   4.042   0.362 -0.5615 -0.4774 -1.0136
  714MOL0     H94205   9.350   4.080   0.210 -2.0070 -2.1819 -0.8647
  714MOL0     H94206   9.216   3.989   0.481 -1.3701  1.0797 -0.2265
  714MOL0     H94207   9.138   4.051   0.360  0.0304  0.9165 -0.0174
  714MOL0     H94208   9.268   3.782   0.351 -1.6243 -0.4360  0.4621
  714MOL0     H94209   9.252   3.862   0.190  0.8754  1.5027  0.6958
  714MOL0     H94210   9.168   3.616   0.186  0.5110  2.9025  3.2543
  714MOL0     H94211   9.014   3.423   0.155  0.5348 -0.5069  3.8147
  714MOL0     H94212   8.779   3.099   0.370  1.6738  2.2529 -1.9248
  714MOL0     H94213   8.609   2.937   0.401  0.8837  2.4617  0.6249
  714MOL0     H94214   8.556   2.726   0.122 -0.4468 -1.0578  1.1939
  714MOL0     H94215   8.403   2.773   0.043  1.0168 -0.6217 -0.2174
  714MOL0     H94216   8.271   2.640   0.187  0.1904  0.1987  2.1348
  714MOL0     H94217   8.405   2.596   0.292 -2.1537 -0.8089  1.0246
  714MOL0     H94218   8.505   2.480   0.119  0.3420  1.0677  5.2738
  714MOL0     H94219   8.393   2.536  -0.013 -1.4377 -0.5620  0.5688
  714MOL0     H94220   8.269   2.375   0.228 -2.2092 -1.5875 -2.1051
  714MOL0     H94221   8.197   2.444   0.093 -0.0240 -2.0666 -4.0163
  714MOL0     H94222   8.233   2.211   0.065 -2.2856  3.0188  3.8855
  714MOL0     H94223   8.403   2.214   0.106 -0.3286  1.0661  0.4192
  714MOL0     H94224   8.476   2.329  -0.102 -1.0268  0.1656  1.5896
  714MOL0     H94225   8.302   2.357  -0.142 -0.2168  1.1337  1.6291
  714MOL0     H94226   8.458   2.094  -0.134  0.0737 -0.3063  0.7943
  714MOL0     H94227   8.283   2.101  -0.151  0.5565  0.6041  3.8953
  714MOL0     H94228   8.436   2.096  -0.362 -0.5123 -0.8671  1.7847
  714MOL0     H94229   8.493   2.251  -0.329 -0.5217  1.3006  1.6363
  714MOL0     H94230   8.429   3.021   0.035 -1.2938  3.8509 -0.1929
  714MOL0     H94231   8.582   3.220   0.007 -0.5403  0.7165  1.3008
  714MOL0     H94232   8.676   3.653   0.264 -0.7433  1.7765 -2.4590
  714MOL0     H94233   8.833   3.839   0.323 -1.4258  0.8969 -2.1485
  714MOL0     H94234  10.520   4.924   0.862  0.0611  0.3688 -2.3298
  714MOL0     H94235  10.698   4.891   1.034 -4.6006 -0.7872 -0.5900
  714MOL0     H94236  11.191   4.942   1.006  4.2475  0.4188 -1.5462
  714MOL0     H94237  11.407   4.960   1.105 -0.4719 -1.3820 -4.0251
  714MOL0     H94238  11.605   4.935   1.410 -0.7599  1.7942 -0.6478
  714MOL0     H94239  11.490   5.011   1.311  0.8437  2.3571 -0.3520
  714MOL0     H94240  11.635   5.055   1.154  2.0646  0.9441 -1.2415
  714MOL0     H94241  11.749   5.014   1.278  0.5885 -2.1252 -0.4999
  714MOL0     H94242  11.652   4.798   1.086 -0.7940  0.3229 -0.9927
  714MOL0     H94243  11.803   4.801   1.183  1.3156  2.4435 -0.0400
  714MOL0     H94244  11.881   4.994   1.052 -3.5469  2.3320  2.7462
  714MOL0     H94245  11.882   4.833   0.985 -0.0782  0.3325  2.7211
  714MOL0     H94246  11.647   5.039   0.705 -0.1902  0.8172  0.2138
  714MOL0     H94247  11.325   4.630   1.362  2.6170 -0.1399 -0.9654
  714MOL0     H94248  11.093   4.621   1.275 -2.0407  2.8957  1.3912
  715MOL0     O94249   6.540   7.941   2.963  0.2259 -0.3395 -0.3690
  715MOL0     C94250   6.435   7.938   3.023  1.0807  0.0277 -0.3957
  715MOL0     O94251   6.355   8.044   3.034 -0.4317  0.4496 -0.7469
  715MOL0     C94252   6.406   8.163   2.995 -0.9564 -0.1486 -1.0716
  715MOL0     C94253   6.479   8.241   3.086  0.3023  0.0322  0.1133
  715MOL0     C94254   6.528   8.370   3.048  0.0771  0.3290  0.2194
  715MOL0     C94255   6.505   8.415   2.915  0.0625  1.1434  0.4608
  715MOL0     O94256   6.558   8.531   2.878 -0.5587  0.3361 -0.0592
  715MOL0     C94257   6.699   8.538   2.902 -1.4176  0.4038  0.2465
  715MOL0     C94258   6.745   8.680   2.915  0.4422 -0.1781  0.7384
  715MOL0     C94259   6.693   8.769   2.805 -0.3695  0.2769 -0.3652
  715MOL0     C94260   6.760   8.908   2.823  0.1720  0.5745 -0.5662
  715MOL0     C94261   6.698   9.020   2.736 -0.2733 -0.0688  0.0424
  715MOL0     C94262   6.769   9.038   2.599  0.5828  0.2853  0.1938
  715MOL0     C94263   6.710   9.158   2.522 -0.3862 -0.4673  0.8076
  715MOL0     C94264   6.788   9.170   2.396  0.3662  0.3661  0.6762
  715MOL0     N94265   6.724   9.276   2.308 -0.0918 -0.0575 -0.6342
  715MOL0     C94266   6.677   9.398   2.334  0.0631  0.3393 -0.5861
  715MOL0     C94267   6.623   9.442   2.216 -0.7379  0.8645  0.2820
  715MOL0     C94268   6.562   9.569   2.189  0.1835  0.1169 -0.5754
  715MOL0     C94269   6.669   9.673   2.148 -0.8618 -1.2427  0.1046
  715MOL0     C94270   6.775   9.696   2.265 -0.6447  0.2804  0.0644
  715MOL0     C94271   6.861   9.820   2.226 -0.4720 -0.0873  0.1439
  715MOL0     O94272   6.770   9.927   2.243 -0.3986  0.8099 -0.1241
  715MOL0     C94273   6.820  10.047   2.210 -0.1658 -0.7953  0.0742
  715MOL0     C94274   6.796  10.146   2.309  0.0268 -0.3119  0.6375
  715MOL0     C94275   6.834  10.275   2.289 -0.0553  0.0177 -0.4365
  715MOL0     C94276   6.895  10.308   2.166  0.4612  0.1342  0.4124
  715MOL0     C94277   6.934  10.445   2.139 -0.2477  0.2050 -0.1363
  715MOL0     O94278   7.058  10.466   2.068  0.5015  0.2160 -0.1686
  715MOL0     C94279   7.120  10.584   2.084  0.5031 -0.9394 -0.6759
  715MOL0     C94280   7.219  10.599   2.183 -0.1410 -0.3946  0.2200
  715MOL0     C94281   7.287  10.717   2.198 -0.2716 -0.0233  0.0513
  715MOL0     C94282   7.278  10.819   2.103  0.4058  0.1081  0.2333
  715MOL0     O94283   7.339  10.937   2.113  0.8860  0.4552  0.0967
  715MOL0     C94284   7.361  11.004   2.238  0.0461  0.2134 -0.0168
  715MOL0     C94285   7.374  11.154   2.210  0.3872  0.6740  0.4415
  715MOL0     C94286   7.372  11.251   2.327 -0.7453 -0.6924 -0.2046
  715MOL0     C94287   7.479  11.234   2.437  0.1940 -0.3941  0.0159
  715MOL0     C94288   7.450  11.360   2.520 -0.7862  0.1649 -0.8514
  715MOL0     C94289   7.525  11.358   2.653 -0.3513  0.0488  0.2486
  715MOL0     C94290   7.503  11.464   2.760 -0.3143 -0.1758  0.2640
  715MOL0     C94291   7.578  11.459   2.890  0.7834  0.1305 -0.3526
  715MOL0    Cl94292   7.749  11.485   2.878  0.1003  0.1441  0.1051
  715MOL0     C94293   7.184  10.799   1.992 -0.2851 -0.3160 -0.9672
  715MOL0     C94294   7.103  10.682   1.979 -0.8533  0.4747 -0.6326
  715MOL0     O94295   6.871  10.536   2.193  0.3044  0.0210  0.1102
  715MOL0     C94296   6.927  10.209   2.070 -0.0593 -0.1366  0.3676
  715MOL0     C94297   6.892  10.079   2.087  0.5555 -0.3028  0.1253
  715MOL0     N94298   6.640   9.343   2.122 -1.1347 -0.2993 -0.4647
  715MOL0     N94299   6.694   9.244   2.175 -0.0086 -0.2172 -0.7403
  715MOL0     C94300   6.431   8.330   2.827 -0.6377 -0.1973 -0.4492
  715MOL0     C94301   6.392   8.203   2.862 -0.5270  0.3055  0.2705
  715MOL0     C94302   6.403   7.819   3.101  0.7889  0.4081  0.2509
  715MOL0     C94303   6.303   7.810   3.202 -0.8725 -0.8412  0.0146
  715MOL0     C94304   6.279   7.696   3.279 -0.7129 -1.1926  0.7222
  715MOL0     C94305   6.347   7.576   3.251 -0.3099  0.1901 -0.4730
  715MOL0     O94306   6.324   7.464   3.325 -0.0916  0.6304 -0.2831
  715MOL0     C94307   6.217   7.463   3.422  0.2469 -0.0740  0.2488
  715MOL0     C94308   6.075   7.427   3.375 -0.6031 -0.7143 -0.9332
  715MOL0     C94309   6.075   7.286   3.318 -0.5971  0.2918 -0.1546
  715MOL0     C94310   6.125   7.282   3.171  0.0283 -0.2290 -0.8555
  715MOL0     C94311   6.076   7.159   3.114 -0.1721  0.2818  0.3537
  715MOL0     C94312   6.044   7.055   3.061 -0.2662 -0.1361 -0.5780
  715MOL0     C94313   6.439   7.565   3.144  0.0497 -0.3553 -0.1828
  715MOL0     C94314   6.460   7.689   3.070 -0.2707  0.8884  1.0446
  715MOL0     H94315   6.492   8.188   3.180  0.5072 -2.0865 -1.0682
  715MOL0     H94316   6.590   8.421   3.121 -3.0391  0.6308  2.8763
  715MOL0     H94317   6.761   8.492   2.825 -2.9445  1.5384 -1.7578
  715MOL0     H94318   6.723   8.492   2.999 -3.3902  2.5355  1.8505
  715MOL0     H94319   6.854   8.679   2.906  0.3633  2.7951 -4.6348
  715MOL0     H94320   6.715   8.722   3.012 -1.7808  0.0785 -0.0017
  715MOL0     H94321   6.583   8.768   2.801 -0.3892 -0.9070 -0.0544
  715MOL0     H94322   6.727   8.729   2.709  0.0805 -0.3465  0.0488
  715MOL0     H94323   6.735   8.937   2.925 -0.9738  2.1508 -1.2500
  715MOL0     H94324   6.868   8.902   2.803  0.4078 -1.8081  1.0021
  715MOL0     H94325   6.699   9.114   2.792 -0.6805  0.1193 -0.2624
  715MOL0     H94326   6.598   8.996   2.700  0.5421 -1.3399 -1.5170
  715MOL0     H94327   6.741   8.943   2.552 -1.3093  1.0391 -0.3132
  715MOL0     H94328   6.874   9.061   2.619 -0.2298  3.4495  1.4117
  715MOL0     H94329   6.605   9.133   2.502  0.5276 -1.8230 -3.3049
  715MOL0     H94330   6.719   9.258   2.565 -0.4586 -0.4609  0.8093
  715MOL0     H94331   6.798   9.071   2.351  2.5228  0.7016  0.3066
  715MOL0     H94332   6.880   9.216   2.432  0.7486  1.2236 -1.3269
  715MOL0     H94333   6.681   9.451   2.429  3.3417  0.5412 -0.7132
  715MOL0     H94334   6.516   9.613   2.278 -1.8483  1.1901 -2.0631
  715MOL0     H94335   6.490   9.563   2.106 -1.0505 -0.5283  0.4954
  715MOL0     H94336   6.619   9.768   2.129 -0.6285 -1.1661 -0.1306
  715MOL0     H94337   6.711   9.647   2.051 -2.8196 -0.7596 -0.9298
  715MOL0     H94338   6.733   9.702   2.365 -0.5556  1.5277  0.0386
  715MOL0     H94339   6.850   9.617   2.271 -2.1880 -1.3356 -0.9533
  715MOL0     H94340   6.896   9.803   2.124  1.5356  0.1421  0.7357
  715MOL0     H94341   6.952   9.808   2.286  0.5954 -0.2182 -1.4556
  715MOL0     H94342   6.774  10.110   2.409 -0.2311 -1.0821  0.3183
  715MOL0     H94343   6.812  10.347   2.367  1.4924  2.3834 -2.0802
  715MOL0     H94344   7.242  10.530   2.264  1.8545  0.9243  0.8466
  715MOL0     H94345   7.353  10.729   2.283  0.8953  3.3265 -1.1560
  715MOL0     H94346   7.449  10.958   2.284  0.6111  1.7594  0.5277
  715MOL0     H94347   7.284  10.976   2.311  1.9885 -0.4687  1.8946
  715MOL0     H94348   7.284  11.164   2.149  0.2159 -3.5234 -0.3402
  715MOL0     H94349   7.459  11.176   2.145 -1.0294 -1.4668 -2.3716
  715MOL0     H94350   7.274  11.246   2.376 -0.6696  0.1899  0.0534
  715MOL0     H94351   7.376  11.352   2.285 -0.5721 -0.0169  1.3613
  715MOL0     H94352   7.460  11.143   2.493  1.0316  0.2753  1.4250
  715MOL0     H94353   7.582  11.233   2.400  0.0839  2.0102 -0.5796
  715MOL0     H94354   7.343  11.366   2.542 -0.3040  3.1044  1.2788
  715MOL0     H94355   7.479  11.457   2.478 -0.6020  1.2381  1.6063
  715MOL0     H94356   7.632  11.367   2.632 -0.2819 -2.0224 -0.5213
  715MOL0     H94357   7.514  11.259   2.698 -0.8083  1.1640  2.7330
  715MOL0     H94358   7.536  11.560   2.720  6.3022 -2.3072 -0.7367
  715MOL0     H94359   7.397  11.483   2.777 -0.5028  0.3347 -1.3387
  715MOL0     H94360   7.544  11.365   2.934 -2.2893  1.4519  0.3116
  715MOL0     H94361   7.547  11.537   2.960  4.1202  0.8426  0.5365
  715MOL0     H94362   7.185  10.877   1.916  0.2735  0.5253 -0.1235
  715MOL0     H94363   7.031  10.672   1.898 -3.5577  1.6208  1.4515
  715MOL0     H94364   6.980  10.239   1.980  1.2628 -1.2917  0.7281
  715MOL0     H94365   6.913  10.001   2.014 -0.7458 -0.1763 -0.4033
  715MOL0     H94366   6.405   8.365   2.727  0.7673  2.3337  0.0008
  715MOL0     H94367   6.327   8.144   2.797 -1.8737  3.7479 -1.7467
  715MOL0     H94368   6.248   7.900   3.228 -0.4551 -0.0230 -1.7766
  715MOL0     H94369   6.200   7.700   3.353 -1.6747  3.0922 -0.2362
  715MOL0     H94370   6.219   7.555   3.481  1.2629  1.7428 -2.4228
  715MOL0     H94371   6.246   7.385   3.493  1.7359 -0.3706 -0.6227
  715MOL0     H94372   6.023   7.439   3.470  1.0913 -0.4688  0.0125
  715MOL0     H94373   6.042   7.502   3.303  1.5058  1.7691  0.5089
  715MOL0     H94374   5.970   7.254   3.322 -1.1046  1.9251  3.7246
  715MOL0     H94375   6.126   7.213   3.383  2.0475  0.7280 -1.6019
  715MOL0     H94376   6.094   7.370   3.113  1.7266 -0.4949 -2.2508
  715MOL0     H94377   6.231   7.292   3.146  0.4571 -0.6634  0.6674
  715MOL0     H94378   6.012   6.965   3.012  0.4001 -0.4972 -0.3514
  715MOL0     H94379   6.492   7.471   3.132  1.4234  0.3480  0.1698
  715MOL0     H94380   6.539   7.679   2.997  0.3785  0.6887  1.7637
  716MOL0     O94381   6.233  10.045   5.724 -0.0362  0.6560 -0.5149
  716MOL0     C94382   6.190  10.158   5.759  0.6248 -0.2547 -0.5665
  716MOL0     O94383   6.069  10.205   5.727 -0.4041 -0.4410 -0.2403
  716MOL0     C94384   5.969  10.123   5.693  0.0375  0.6007  0.2786
  716MOL0     C94385   5.891  10.072   5.796  0.9508  0.7074  0.1277
  716MOL0     C94386   5.762  10.024   5.777  0.2459 -0.2448  0.6310
  716MOL0     C94387   5.715  10.037   5.648 -0.1766 -0.5158  0.0257
  716MOL0     O94388   5.583   9.993   5.629  0.9151 -0.0152 -0.6512
  716MOL0     C94389   5.514   9.901   5.722  0.5287  0.3902  0.1359
  716MOL0     C94390   5.579   9.759   5.711 -0.0087 -0.2111  0.6216
  716MOL0     C94391   5.488   9.663   5.768  0.1322  0.2977  1.0469
  716MOL0     C94392   5.421   9.681   5.905  0.2216 -0.8010 -0.3710
  716MOL0     C94393   5.334   9.557   5.959 -0.2011  0.2620 -0.1875
  716MOL0     C94394   5.209   9.543   5.868  0.3453 -0.4625 -0.1057
  716MOL0     C94395   5.134   9.426   5.934  0.8919 -0.1620 -0.0345
  716MOL0     C94396   5.022   9.385   5.831  0.0074  0.1583 -1.0818
  716MOL0     N94397   4.929   9.275   5.871 -0.7975  0.1197  0.2544
  716MOL0     C94398   4.970   9.146   5.919 -0.0154 -0.2995 -0.1245
  716MOL0     C94399   4.845   9.084   5.924  0.3534  0.0344  0.9847
  716MOL0     C94400   4.823   8.937   5.962 -0.1867  0.0818 -0.0329
  716MOL0     C94401   4.906   8.837   5.871  0.0427 -0.0414 -0.3969
  716MOL0     C94402   4.859   8.687   5.871 -0.4990 -0.9665  0.2089
  716MOL0     C94403   4.901   8.626   6.004 -0.0731  0.4434 -0.7350
  716MOL0     O94404   4.848   8.496   6.007  0.1902 -0.7208 -0.4979
  716MOL0     C94405   4.909   8.387   5.945 -1.1607 -0.4424 -0.3419
  716MOL0     C94406   4.854   8.265   5.963 -1.1381  0.2299 -0.4752
  716MOL0     C94407   4.917   8.154   5.908 -0.7947 -0.2484 -0.3825
  716MOL0     C94408   5.032   8.160   5.820  0.9108  0.4074 -0.5392
  716MOL0     C94409   5.080   8.042   5.759 -0.6705 -0.0025  0.6757
  716MOL0     O94410   5.192   8.046   5.686 -0.3909  0.3194 -1.0107
  716MOL0     C94411   5.228   7.932   5.612 -0.8034  0.4083 -0.0406
  716MOL0     C94412   5.362   7.880   5.618 -0.6124  0.2160 -0.3711
  716MOL0     C94413   5.396   7.763   5.557  0.1633 -0.9382 -0.0378
  716MOL0     C94414   5.306   7.716   5.460  0.0538  0.2090 -0.2461
  716MOL0     O94415   5.358   7.624   5.372 -0.1259  0.3602 -0.7396
  716MOL0     C94416   5.274   7.539   5.284 -0.1035  0.0395 -0.2578
  716MOL0     C94417   5.202   7.432   5.368 -0.2845 -0.5913 -0.1586
  716MOL0     C94418   5.131   7.328   5.283  0.1804  0.4127  0.1424
  716MOL0     C94419   5.209   7.189   5.283 -0.1954 -0.0023  0.8711
  716MOL0     C94420   5.161   7.098   5.178  0.1112 -0.0323  0.2244
  716MOL0     C94421   5.246   6.970   5.163 -1.1824  0.0010 -0.7090
  716MOL0     C94422   5.222   6.885   5.287  0.1376 -0.4209 -0.2863
  716MOL0     C94423   5.226   6.743   5.259  0.1850  0.8255  0.2121
  716MOL0    Cl94424   5.355   6.660   5.329 -0.4854  0.2168 -0.1136
  716MOL0     C94425   5.179   7.766   5.451  0.0329 -0.6616  0.7697
  716MOL0     C94426   5.136   7.872   5.527 -0.4711 -0.1942  0.8896
  716MOL0     O94427   5.015   7.940   5.788  0.0204 -0.5447  0.2517
  716MOL0     C94428   5.082   8.283   5.795 -0.2308  0.0997 -0.0862
  716MOL0     C94429   5.020   8.393   5.856 -1.0641 -0.2243  0.3586
  716MOL0     N94430   4.743   9.166   5.882  0.2961  0.3345  0.3876
  716MOL0     N94431   4.796   9.283   5.855 -0.7944  0.0530 -0.3365
  716MOL0     C94432   5.793  10.075   5.542  0.1715 -0.9103  0.2298
  716MOL0     C94433   5.919  10.128   5.558 -0.0015  0.7370 -1.2186
  716MOL0     C94434   6.275  10.251   5.841  0.0976  0.0020 -0.7647
  716MOL0     C94435   6.416  10.254   5.843  0.2160  0.7857 -0.8776
  716MOL0     C94436   6.488  10.339   5.919 -0.6821 -0.4115  0.9485
  716MOL0     C94437   6.425  10.426   6.004 -0.3065  0.0062  0.2260
  716MOL0     O94438   6.509  10.499   6.093  0.2290  0.2254  0.3726
  716MOL0     C94439   6.459  10.602   6.180  0.5414  0.2296  0.4737
  716MOL0     C94440   6.402  10.547   6.302  0.0136  0.7105  0.0403
  716MOL0     C94441   6.374  10.642   6.418  0.4516 -0.4240 -0.8125
  716MOL0     C94442   6.249  10.597   6.498 -0.9028  0.4680  0.6257
  716MOL0     C94443   6.276  10.470   6.553  1.2854 -0.6330 -0.4469
  716MOL0     C94444   6.303  10.369   6.606  0.0832 -0.3011  0.2522
  716MOL0     C94445   6.286  10.426   6.014  0.1968  0.6574  0.5672
  716MOL0     C94446   6.212  10.343   5.924  0.1788  0.4745  0.4837
  716MOL0     H94447   5.924  10.087   5.899  0.9869  0.6979  0.1176
  716MOL0     H94448   5.712   9.989   5.866  4.8637 -2.9036  2.5375
  716MOL0     H94449   5.408   9.886   5.701  0.4393 -0.4542  1.0960
  716MOL0     H94450   5.505   9.943   5.823 -5.0501  2.3736 -0.8539
  716MOL0     H94451   5.676   9.765   5.761  2.1305  1.4918 -3.2723
  716MOL0     H94452   5.595   9.737   5.605 -0.0832  0.4763  0.4670
  716MOL0     H94453   5.544   9.569   5.767  0.5531  0.4549  3.4609
  716MOL0     H94454   5.405   9.671   5.698  2.7099  0.3798 -2.2626
  716MOL0     H94455   5.499   9.706   5.977  0.4680 -0.1968 -0.8384
  716MOL0     H94456   5.364   9.774   5.896  1.5995  0.2862  1.4345
  716MOL0     H94457   5.306   9.576   6.063 -0.0371 -1.0581  0.1199
  716MOL0     H94458   5.415   9.483   5.953  0.3896  0.9593 -1.0356
  716MOL0     H94459   5.225   9.523   5.761 -4.3941 -1.0407 -0.9461
  716MOL0     H94460   5.145   9.632   5.871 -0.9532 -1.3867  0.3297
  716MOL0     H94461   5.193   9.338   5.959 -0.4523 -0.8376  0.8501
  716MOL0     H94462   5.092   9.457   6.030 -0.1279  1.3485 -0.9080
  716MOL0     H94463   5.069   9.356   5.737  0.0480  0.2489 -1.0884
  716MOL0     H94464   4.954   9.471   5.828 -1.8131 -1.1075  0.6280
  716MOL0     H94465   5.070   9.106   5.923 -0.6492 -2.1203 -1.0840
  716MOL0     H94466   4.720   8.903   5.951  0.1228 -1.3471  1.1255
  716MOL0     H94467   4.868   8.935   6.061  3.2065 -2.0145 -1.4185
  716MOL0     H94468   5.009   8.846   5.906  0.1720  0.1458 -0.8099
  716MOL0     H94469   4.911   8.872   5.767 -1.4271  2.2919  0.2536
  716MOL0     H94470   4.751   8.682   5.853 -0.6877 -2.7787  1.5909
  716MOL0     H94471   4.912   8.646   5.785  4.3665  3.5603  0.5482
  716MOL0     H94472   4.862   8.681   6.090 -1.5402 -2.2177  0.4182
  716MOL0     H94473   5.010   8.632   6.010  0.1924 -1.7226 -2.1077
  716MOL0     H94474   4.776   8.250   6.036 -1.1495  0.8778 -0.3468
  716MOL0     H94475   4.874   8.060   5.941  1.9988 -1.3279  0.5560
  716MOL0     H94476   5.436   7.926   5.683 -1.0539  0.0355  0.2658
  716MOL0     H94477   5.488   7.717   5.593  0.1436 -1.0611 -0.1452
  716MOL0     H94478   5.340   7.498   5.207  0.9911  0.0375  0.6378
  716MOL0     H94479   5.199   7.601   5.236  0.4028  0.6017 -0.3396
  716MOL0     H94480   5.129   7.481   5.433 -0.7709 -1.5603  0.0458
  716MOL0     H94481   5.276   7.384   5.432  0.0595 -2.6733 -2.0169
  716MOL0     H94482   5.133   7.368   5.181  2.0767 -1.2362 -0.5296
  716MOL0     H94483   5.028   7.310   5.317 -0.5353 -2.7839 -3.0844
  716MOL0     H94484   5.312   7.218   5.259 -0.6706  1.3810  0.3951
  716MOL0     H94485   5.207   7.151   5.385 -0.6172 -0.3589  0.7345
  716MOL0     H94486   5.158   7.151   5.082  1.6885 -1.6701 -0.7827
  716MOL0     H94487   5.056   7.068   5.192 -0.8885  1.6193 -2.7226
  716MOL0     H94488   5.350   7.004   5.156 -1.9151  2.8354  0.7546
  716MOL0     H94489   5.204   6.919   5.075 -1.5650 -3.3546  1.2409
  716MOL0     H94490   5.303   6.909   5.357  0.2562  1.0716 -0.9056
  716MOL0     H94491   5.126   6.904   5.336  0.8877 -2.3053  2.1195
  716MOL0     H94492   5.224   6.729   5.150 -1.6877 -2.2186  0.5048
  716MOL0     H94493   5.130   6.699   5.289  1.0596 -1.2411  0.1165
  716MOL0     H94494   5.112   7.728   5.375 -0.7631  1.4790  0.3347
  716MOL0     H94495   5.034   7.907   5.516  0.5341  3.4773  1.7216
  716MOL0     H94496   5.170   8.300   5.732 -0.6361  1.6345 -0.2640
  716MOL0     H94497   5.063   8.487   5.824 -1.7907 -0.3611 -1.0964
  716MOL0     H94498   5.753  10.096   5.444  2.5188 -0.1650 -0.6238
  716MOL0     H94499   5.975  10.175   5.478  1.8593 -2.8855 -2.2652
  716MOL0     H94500   6.462  10.169   5.794 -1.2060 -1.5598  1.5554
  716MOL0     H94501   6.595  10.333   5.902 -1.0714 -0.3178 -2.0459
  716MOL0     H94502   6.376  10.648   6.125 -1.2181 -1.9497  1.1435
  716MOL0     H94503   6.530  10.679   6.210 -0.3215  0.4396  2.0940
  716MOL0     H94504   6.311  10.497   6.265  1.1622 -0.3145 -1.5293
  716MOL0     H94505   6.459  10.470   6.354  0.0644  1.7403  1.5538
  716MOL0     H94506   6.347  10.738   6.371  0.4568  1.5422  2.8445
  716MOL0     H94507   6.458  10.655   6.486 -0.5362 -0.2042  0.4020
  716MOL0     H94508   6.212  10.671   6.570 -4.0171  1.0030 -1.3341
  716MOL0     H94509   6.171  10.589   6.422  3.1678 -1.5776 -3.8349
  716MOL0     H94510   6.325  10.271   6.642 -0.2958 -1.0837 -1.5894
  716MOL0     H94511   6.232  10.496   6.077  0.4362  2.8594 -1.5401
  716MOL0     H94512   6.103  10.351   5.927  0.0694 -1.0057  1.2604
  717MOL0     O94513   6.736   3.788   7.209  0.0804 -0.4983 -0.6009
  717MOL0     C94514   6.789   3.687   7.193 -0.2453  0.3876  0.2322
  717MOL0     O94515   6.927   3.654   7.164  0.4872  0.4328  0.4424
  717MOL0     C94516   7.022   3.747   7.138 -0.0578 -0.8774 -1.0167
  717MOL0     C94517   7.150   3.696   7.107  1.1016  0.7810 -1.2341
  717MOL0     C94518   7.259   3.771   7.057 -0.8197  0.4855 -0.1320
  717MOL0     C94519   7.241   3.899   7.037  0.2326 -0.1937  0.6441
  717MOL0     O94520   7.349   3.983   6.997  0.5107 -0.4367 -0.2666
  717MOL0     C94521   7.469   3.977   7.072 -0.4008  0.5474 -0.0007
  717MOL0     C94522   7.565   4.102   7.051 -0.5704 -0.2847  0.7440
  717MOL0     C94523   7.710   4.065   7.077 -0.0505 -0.2235  0.2759
  717MOL0     C94524   7.797   4.189   7.055  1.1309 -0.3493  0.3402
  717MOL0     C94525   7.936   4.180   7.132  0.7424  0.1518  0.0718
  717MOL0     C94526   8.018   4.302   7.095 -0.4130 -0.2934 -0.5764
  717MOL0     C94527   8.140   4.314   7.183 -0.4890  0.3632  0.2712
  717MOL0     C94528   8.237   4.417   7.137 -1.0154  0.1539 -0.1907
  717MOL0     N94529   8.373   4.391   7.180 -0.5100  0.7214 -0.4267
  717MOL0     C94530   8.468   4.320   7.104 -0.5922  0.4007 -0.5783
  717MOL0     C94531   8.582   4.346   7.161 -0.9939  0.0146  0.3622
  717MOL0     C94532   8.716   4.304   7.110  0.0507 -0.7311 -0.1945
  717MOL0     C94533   8.735   4.149   7.089 -0.2209  0.0325 -0.5259
  717MOL0     C94534   8.757   4.070   7.213 -0.0872  0.3340 -0.2119
  717MOL0     C94535   8.615   4.022   7.266 -0.0063  0.6127  0.9651
  717MOL0     O94536   8.581   3.919   7.179  0.6786  0.3567  0.3455
  717MOL0     C94537   8.448   3.884   7.184 -0.2065 -0.1053 -0.4042
  717MOL0     C94538   8.331   3.967   7.213 -0.0394 -0.1903 -0.5859
  717MOL0     C94539   8.196   3.910   7.206 -0.2415 -0.7091 -0.1303
  717MOL0     C94540   8.179   3.778   7.160  0.8913 -0.3250  0.6933
  717MOL0     C94541   8.046   3.719   7.140  0.4058  0.1451  0.6543
  717MOL0     O94542   7.939   3.811   7.142 -0.3350  0.0536  0.1132
  717MOL0     C94543   7.816   3.757   7.169 -0.1984  0.2979  1.0624
  717MOL0     C94544   7.765   3.766   7.300 -0.2366  0.8986  0.0504
  717MOL0     C94545   7.636   3.712   7.328 -0.8142  0.1018 -0.0502
  717MOL0     C94546   7.552   3.662   7.233 -0.0488  0.5419  0.2593
  717MOL0     O94547   7.423   3.622   7.255 -0.4954  0.0416  0.7988
  717MOL0     C94548   7.379   3.625   7.388 -0.3336 -0.2066  0.7293
  717MOL0     C94549   7.249   3.547   7.413 -1.2873 -0.4395  0.1958
  717MOL0     C94550   7.243   3.390   7.402 -0.7181 -1.0308  0.0451
  717MOL0     C94551   7.100   3.342   7.440 -0.7456  0.0662 -0.7832
  717MOL0     C94552   7.091   3.196   7.407  0.2747  0.3115 -0.3544
  717MOL0     C94553   6.947   3.137   7.414 -0.7070 -0.0730  0.0986
  717MOL0     C94554   6.950   2.981   7.384 -0.0062  0.1175  0.8609
  717MOL0     C94555   7.015   2.924   7.516 -0.6115 -0.2808 -0.3749
  717MOL0    Cl94556   7.042   2.744   7.484  0.0127 -0.0235  0.1263
  717MOL0     C94557   7.598   3.647   7.097  0.6135  0.5803 -0.0626
  717MOL0     C94558   7.738   3.692   7.066 -0.0845 -0.6022  1.0315
  717MOL0     O94559   8.032   3.603   7.119 -0.1070 -0.1884  0.8365
  717MOL0     C94560   8.293   3.695   7.135 -0.0646  0.4079 -0.0007
  717MOL0     C94561   8.417   3.748   7.145  0.3835 -0.1749 -1.1735
  717MOL0     N94562   8.557   4.434   7.273 -0.0008 -0.3822 -0.3065
  717MOL0     N94563   8.434   4.452   7.285  0.3816 -0.7669 -0.1249
  717MOL0     C94564   7.119   3.958   7.070 -0.6857  0.4246  0.1031
  717MOL0     C94565   7.011   3.886   7.111 -0.4783  0.0450 -0.2576
  717MOL0     C94566   6.705   3.560   7.205  1.5120 -0.2525  0.2017
  717MOL0     C94567   6.755   3.435   7.165  0.6554  0.2876  1.3329
  717MOL0     C94568   6.692   3.322   7.181 -0.0466 -0.3661  0.1947
  717MOL0     C94569   6.563   3.312   7.217 -0.7060  0.0836 -1.0977
  717MOL0     O94570   6.510   3.189   7.236  0.1448  0.0319  0.1363
  717MOL0     C94571   6.389   3.170   7.313  0.4737  1.3247  0.8896
  717MOL0     C94572   6.414   3.026   7.361  0.2536 -0.1882  0.2816
  717MOL0     C94573   6.491   3.029   7.497  0.2810  0.0650 -0.6782
  717MOL0     C94574   6.611   3.120   7.515 -1.0894  0.2510 -0.2029
  717MOL0     C94575   6.672   3.071   7.633  0.1089 -0.1115 -1.4028
  717MOL0     C94576   6.716   3.041   7.748  0.5537 -0.5017 -0.5916
  717MOL0     C94577   6.509   3.431   7.259  0.8822  0.5882  0.6969
  717MOL0     C94578   6.564   3.550   7.237 -0.2102 -0.0354 -0.7664
  717MOL0     H94579   7.175   3.593   7.133 -0.2231  0.3664 -1.5464
  717MOL0     H94580   7.354   3.729   7.025  0.6660  3.7815 -0.5215
  717MOL0     H94581   7.532   3.890   7.050 -0.8501 -0.8628  3.5881
  717MOL0     H94582   7.440   3.967   7.177 -0.5889 -0.5149 -0.1335
  717MOL0     H94583   7.531   4.180   7.120 -3.5779 -0.0604 -0.8311
  717MOL0     H94584   7.548   4.142   6.951 -1.1405  0.3561  1.0919
  717MOL0     H94585   7.750   3.981   7.019 -0.3705 -0.7408  0.7980
  717MOL0     H94586   7.719   4.038   7.182  0.0900 -0.8054  0.1206
  717MOL0     H94587   7.821   4.201   6.949  3.0854 -0.3449  0.7339
  717MOL0     H94588   7.748   4.279   7.092 -3.3941 -1.7654 -1.5288
  717MOL0     H94589   7.980   4.084   7.105 -2.3661 -2.1808  2.6360
  717MOL0     H94590   7.925   4.188   7.241  3.7502  1.9233  0.3697
  717MOL0     H94591   7.946   4.385   7.097  0.8174  0.7955  0.9720
  717MOL0     H94592   8.041   4.296   6.988 -1.4356 -0.6264 -0.7941
  717MOL0     H94593   8.098   4.324   7.283 -0.5706  0.3579  0.2380
  717MOL0     H94594   8.194   4.220   7.167 -0.7388 -0.2178  2.5448
  717MOL0     H94595   8.198   4.511   7.176 -3.5431 -1.0599  0.4556
  717MOL0     H94596   8.252   4.424   7.028  0.2187 -0.4390 -0.0729
  717MOL0     H94597   8.468   4.257   7.016 -3.6005 -0.1724 -0.2600
  717MOL0     H94598   8.801   4.342   7.168  0.3788  1.4077 -1.9749
  717MOL0     H94599   8.742   4.346   7.013  1.9106  0.4225  0.7424
  717MOL0     H94600   8.817   4.147   7.016 -1.2424  0.8446 -1.7445
  717MOL0     H94601   8.655   4.109   7.026 -1.2843 -0.0100  0.8202
  717MOL0     H94602   8.820   3.982   7.196  2.7864  1.9715  1.1610
  717MOL0     H94603   8.806   4.132   7.289 -0.0546 -1.6484  1.4651
  717MOL0     H94604   8.548   4.109   7.263 -0.1139  0.5224 -2.5232
  717MOL0     H94605   8.619   3.968   7.361  0.9838 -2.3805 -0.6320
  717MOL0     H94606   8.348   4.073   7.231  2.9623 -0.4489 -1.2844
  717MOL0     H94607   8.110   3.973   7.226  0.7753  0.6440  0.1188
  717MOL0     H94608   7.825   3.818   7.374 -0.3838  5.0399 -2.4166
  717MOL0     H94609   7.606   3.714   7.432  1.9029 -4.6251  1.1173
  717MOL0     H94610   7.365   3.730   7.415 -0.1329  0.9475 -3.1805
  717MOL0     H94611   7.452   3.583   7.458 -1.9968 -1.7908  1.6135
  717MOL0     H94612   7.174   3.603   7.356  0.2477  3.9962  2.0653
  717MOL0     H94613   7.214   3.568   7.515 -0.7971 -2.5761  0.8658
  717MOL0     H94614   7.315   3.341   7.468  0.4911  1.0894  0.3848
  717MOL0     H94615   7.277   3.379   7.299  1.5819  2.3997  0.2734
  717MOL0     H94616   7.080   3.356   7.547  1.5254 -1.8399 -0.0242
  717MOL0     H94617   7.025   3.396   7.382 -0.7048  1.2339  0.1873
  717MOL0     H94618   7.147   3.145   7.486 -0.9245  2.4245  1.9937
  717MOL0     H94619   7.136   3.176   7.309 -1.1035 -0.4417 -0.8510
  717MOL0     H94620   6.887   3.188   7.338 -0.6661  1.2031  0.8812
  717MOL0     H94621   6.908   3.158   7.514  2.1242  1.7632  0.9334
  717MOL0     H94622   6.852   2.933   7.375  0.4985 -1.6371  3.5275
  717MOL0     H94623   7.011   2.954   7.298 -0.2384 -2.0625  1.3304
  717MOL0     H94624   6.955   2.946   7.605 -1.5966 -2.0627 -0.5516
  717MOL0     H94625   7.118   2.954   7.541 -1.1012 -0.2329  1.7880
  717MOL0     H94626   7.540   3.590   7.026  2.4458  0.2506 -1.3820
  717MOL0     H94627   7.786   3.678   6.969 -3.2934 -1.7527 -0.5291
  717MOL0     H94628   8.274   3.593   7.102 -2.4558  0.7670  0.1424
  717MOL0     H94629   8.503   3.687   7.121 -0.4599 -1.2680 -1.5111
  717MOL0     H94630   7.100   4.062   7.046 -0.4329  1.0972  2.6195
  717MOL0     H94631   6.918   3.939   7.130 -1.2809 -1.6600  0.7723
  717MOL0     H94632   6.851   3.427   7.114 -0.7069 -2.5909 -1.0920
  717MOL0     H94633   6.745   3.229   7.162 -1.0383 -1.1105  1.0135
  717MOL0     H94634   6.306   3.170   7.242  2.0004 -2.7713 -1.2023
  717MOL0     H94635   6.379   3.238   7.398 -1.0395  0.7114  1.2308
  717MOL0     H94636   6.324   2.966   7.371  1.4386 -2.2984 -0.9313
  717MOL0     H94637   6.478   2.980   7.284  0.4463 -0.4147  0.5729
  717MOL0     H94638   6.522   2.924   7.502 -1.5468 -0.5134 -0.9280
  717MOL0     H94639   6.421   3.044   7.579  2.2301  0.9629  0.9188
  717MOL0     H94640   6.670   3.109   7.424 -0.4672  0.2026  0.1994
  717MOL0     H94641   6.580   3.223   7.535 -0.2061  0.6227 -0.7311
  717MOL0     H94642   6.763   3.003   7.836 -1.0274 -1.1388  0.0069
  717MOL0     H94643   6.409   3.429   7.301  0.7637  0.8109  0.4300
  717MOL0     H94644   6.515   3.644   7.262 -2.4929 -0.3604 -3.3846
  718MOL0     O94645   6.137   1.629  10.232 -0.2917  0.2678 -0.5443
  718MOL0     C94646   6.214   1.668  10.320  0.1925  0.5514  0.7890
  718MOL0     O94647   6.299   1.583  10.380  0.4087 -0.0221  0.1320
  718MOL0     C94648   6.278   1.454  10.374  0.3099  0.6823  1.0098
  718MOL0     C94649   6.296   1.381  10.252  0.1806  0.2744  0.3682
  718MOL0     C94650   6.292   1.242  10.244 -0.1561  0.1170  0.3497
  718MOL0     C94651   6.255   1.168  10.354 -0.3854 -0.2980 -0.0043
  718MOL0     O94652   6.266   1.026  10.354  0.1737  0.5209 -0.0784
  718MOL0     C94653   6.367   0.966  10.284 -0.9689  0.6501 -0.5661
  718MOL0     C94654   6.424   0.837  10.353  1.0166  0.3352  0.4215
  718MOL0     C94655   6.327   0.719  10.340 -0.1607  0.4854  0.4445
  718MOL0     C94656   6.378   0.595  10.411  0.4060 -0.3295  0.8152
  718MOL0     C94657   6.299   0.472  10.371 -0.8892  0.0268 -1.0960
  718MOL0     C94658   6.364   0.355  10.447  0.9464  0.1972 -0.1473
  718MOL0     C94659   6.308   0.220  10.392 -0.2907 -0.9704  0.2717
  718MOL0     C94660   6.173   0.178  10.443  0.4037  0.1062 -0.1024
  718MOL0     N94661   6.177   0.161  10.592  0.5786  0.1762  0.5200
  718MOL0     C94662   6.266   0.094  10.668 -0.8123  0.0272  0.3544
  718MOL0     C94663   6.241   0.112  10.800 -0.2118 -0.8568 -0.0284
  718MOL0     C94664   6.306   0.070  10.921 -0.4355 -0.5110  0.0711
  718MOL0     C94665   6.431   0.143  10.960  0.7186 -0.5855 -0.3349
  718MOL0     C94666   6.542   0.116  10.859  0.9852 -0.5140 -0.8828
  718MOL0     C94667   6.681   0.160  10.900  0.6211  0.4864 -1.0738
  718MOL0     O94668   6.763   0.121  10.791 -0.0458 -0.7184  0.4349
  718MOL0     C94669   6.814   0.217  10.703 -0.4024  0.1454  1.4882
  718MOL0     C94670   6.919   0.172  10.624  0.1525 -0.3758 -0.7933
  718MOL0     C94671   6.985   0.259  10.537  0.0571  0.5177 -0.0995
  718MOL0     C94672   6.940   0.390  10.523 -1.1347  0.0385  1.2344
  718MOL0     C94673   7.017   0.482  10.457  0.9794 -0.5430 -0.6738
  718MOL0     O94674   6.956   0.599  10.424 -0.3150 -0.6422 -0.9713
  718MOL0     C94675   7.040   0.678  10.338  0.2599  0.7637  0.5962
  718MOL0     C94676   6.995   0.709  10.212 -0.4274 -1.4147 -1.0065
  718MOL0     C94677   7.063   0.786  10.119 -0.4631 -0.6379 -0.1774
  718MOL0     C94678   7.176   0.850  10.170  0.4290  0.0779 -0.9036
  718MOL0     O94679   7.247   0.939  10.098 -0.2682 -0.3842  0.0626
  718MOL0     C94680   7.253   1.070  10.161 -1.0558 -0.3098  0.1283
  718MOL0     C94681   7.314   1.175  10.054 -0.3506  1.1702 -0.4390
  718MOL0     C94682   7.333   1.323  10.117  0.1448 -0.7000 -0.2217
  718MOL0     C94683   7.424   1.405  10.021 -0.5055  0.1606 -0.2290
  718MOL0     C94684   7.382   1.539   9.979  0.2909  0.3892 -1.4328
  718MOL0     C94685   7.368   1.631  10.099  0.0249  0.2479 -0.0509
  718MOL0     C94686   7.373   1.779  10.060 -0.1331 -0.5321 -0.1596
  718MOL0     C94687   7.520   1.836  10.025  0.5343  0.3310 -0.1304
  718MOL0    Cl94688   7.598   1.882  10.177 -0.5349  0.5410 -0.9064
  718MOL0     C94689   7.225   0.830  10.298 -0.7299 -0.2399  0.0843
  718MOL0     C94690   7.146   0.742  10.386 -1.6530  0.0148  0.5214
  718MOL0     O94691   7.126   0.444  10.420  0.1419 -0.2227  0.0040
  718MOL0     C94692   6.825   0.429  10.597 -0.4325  0.1761 -0.2878
  718MOL0     C94693   6.764   0.346  10.679 -0.4631  0.4241 -0.4153
  718MOL0     N94694   6.126   0.189  10.806  0.1569  1.0676  0.0014
  718MOL0     N94695   6.100   0.224  10.683  0.0370 -0.3812 -0.1636
  718MOL0     C94696   6.222   1.236  10.469 -1.3987  0.6830  0.2651
  718MOL0     C94697   6.239   1.377  10.486 -0.4198  0.6460 -0.0381
  718MOL0     C94698   6.207   1.812  10.359  0.0671  0.1334  0.1696
  718MOL0     C94699   6.120   1.902  10.289  0.4994  0.0213  0.1893
  718MOL0     C94700   6.124   2.039  10.315  0.3100  0.6205 -0.5903
  718MOL0     C94701   6.201   2.099  10.413  0.7604 -0.6656  0.4714
  718MOL0     O94702   6.204   2.233  10.437 -0.1174  0.6002 -0.7820
  718MOL0     C94703   6.186   2.275  10.576  0.2499 -0.0005  0.1569
  718MOL0     C94704   6.050   2.246  10.640  0.0340  0.2707 -0.4609
  718MOL0     C94705   6.038   2.111  10.713 -0.5227 -0.2153  0.2337
  718MOL0     C94706   5.911   2.097  10.802 -0.3565  0.7836 -0.6250
  718MOL0     C94707   5.900   2.191  10.914 -0.0510 -1.0830 -0.3344
  718MOL0     C94708   5.887   2.263  11.013  0.5246  0.4706  0.2472
  718MOL0     C94709   6.285   2.007  10.483  0.1910 -0.2359  1.6020
  718MOL0     C94710   6.287   1.870  10.457  0.7720 -0.6521  0.7299
  718MOL0     H94711   6.336   1.439  10.170 -4.1820  0.5505 -1.8101
  718MOL0     H94712   6.329   1.195  10.153 -0.0719  2.3122 -0.8095
  718MOL0     H94713   6.455   1.031  10.289  0.8364 -1.7101  0.3975
  718MOL0     H94714   6.332   0.945  10.182  1.9519 -1.5977 -1.2235
  718MOL0     H94715   6.461   0.855  10.454  1.8743 -1.7939  0.5263
  718MOL0     H94716   6.515   0.811  10.298  0.8739 -1.7423  1.0813
  718MOL0     H94717   6.309   0.700  10.234 -1.0292  1.7922  0.3363
  718MOL0     H94718   6.231   0.738  10.390 -0.8861 -0.1600 -0.6398
  718MOL0     H94719   6.484   0.585  10.388  0.0907  1.8360 -2.1800
  718MOL0     H94720   6.377   0.620  10.518  0.9045  3.9089 -0.0220
  718MOL0     H94721   6.294   0.458  10.263 -1.7089  0.8339 -1.1728
  718MOL0     H94722   6.200   0.484  10.415  1.2897  1.8249  4.0061
  718MOL0     H94723   6.353   0.359  10.555  0.9592 -1.5840 -0.0565
  718MOL0     H94724   6.473   0.361  10.435  0.7808  1.8117 -1.1824
  718MOL0     H94725   6.295   0.218  10.283  1.9029 -0.5534 -0.0398
  718MOL0     H94726   6.393   0.153  10.407  1.4870  1.5149  2.1203
  718MOL0     H94727   6.142   0.081  10.404  3.0274 -0.8477 -0.0035
  718MOL0     H94728   6.103   0.249  10.398  0.0025 -0.1015  0.1957
  718MOL0     H94729   6.356   0.040  10.640 -0.5455  0.2189  0.8417
  718MOL0     H94730   6.316  -0.039  10.924 -1.1367 -0.5593  2.6752
  718MOL0     H94731   6.234   0.085  11.002 -0.7673 -2.3820  0.1661
  718MOL0     H94732   6.457   0.113  11.062  0.9264  1.3832  0.2342
  718MOL0     H94733   6.407   0.250  10.963  2.2906  0.0519 -4.3355
  718MOL0     H94734   6.537   0.009  10.834 -0.7731 -1.1451  1.7137
  718MOL0     H94735   6.527   0.173  10.767 -5.2490  2.0290  1.1380
  718MOL0     H94736   6.711   0.099  10.985  0.4941 -1.3679 -2.3129
  718MOL0     H94737   6.688   0.267  10.925  0.0678 -0.3666  3.7184
  718MOL0     H94738   6.953   0.068  10.624  0.3938 -0.5004  3.8318
  718MOL0     H94739   7.070   0.215  10.486 -0.3108 -1.7587  1.0968
  718MOL0     H94740   6.917   0.650  10.164 -1.0422 -0.0507 -1.7355
  718MOL0     H94741   7.044   0.813  10.016  2.3119 -3.1367 -1.5125
  718MOL0     H94742   7.327   1.083  10.241  0.3556  0.1846 -1.2061
  718MOL0     H94743   7.158   1.110  10.196 -1.2762 -0.4196 -0.3344
  718MOL0     H94744   7.263   1.176   9.957 -5.4150  1.4709  1.9092
  718MOL0     H94745   7.414   1.131  10.042 -1.0157 -0.5553  0.0648
  718MOL0     H94746   7.377   1.314  10.217  0.7895 -1.3252 -0.5485
  718MOL0     H94747   7.233   1.365  10.125  0.2122 -0.0695 -2.0887
  718MOL0     H94748   7.523   1.407  10.068 -1.3481 -2.4585  1.9197
  718MOL0     H94749   7.432   1.356   9.924 -0.9908  1.7922 -1.1212
  718MOL0     H94750   7.291   1.512   9.926  0.2228 -0.1149 -1.0768
  718MOL0     H94751   7.448   1.575   9.900  1.9167 -2.8616 -1.7496
  718MOL0     H94752   7.448   1.606  10.169 -0.9674 -3.1528  0.0140
  718MOL0     H94753   7.277   1.601  10.151  2.5129 -3.1288  2.8308
  718MOL0     H94754   7.306   1.808   9.978 -1.1715  2.7305  1.6252
  718MOL0     H94755   7.333   1.849  10.134 -1.4371 -0.6292 -0.7372
  718MOL0     H94756   7.495   1.932   9.977 -3.0843 -0.0571  0.6655
  718MOL0     H94757   7.585   1.777   9.961  1.7655  1.4222  0.0648
  718MOL0     H94758   7.320   0.874  10.326 -1.2634  0.9085  0.1318
  718MOL0     H94759   7.192   0.740  10.484 -1.1597  5.7413  0.7555
  718MOL0     H94760   6.795   0.534  10.592  1.6540  0.8315 -0.0221
  718MOL0     H94761   6.688   0.387  10.746 -1.1869 -0.5351 -0.6199
  718MOL0     H94762   6.203   1.168  10.552 -0.6774  1.8291  1.4064
  718MOL0     H94763   6.225   1.423  10.583  0.0472  0.3809  0.1573
  718MOL0     H94764   6.038   1.869  10.226 -0.0765  0.4480  0.7040
  718MOL0     H94765   6.060   2.107  10.259  2.3220  4.9353  1.8255
  718MOL0     H94766   6.205   2.382  10.585  0.8037 -0.1379  0.7069
  718MOL0     H94767   6.272   2.228  10.625  0.4069  1.5092  1.4078
  718MOL0     H94768   6.042   2.329  10.710  4.0532 -0.2579  0.8237
  718MOL0     H94769   5.967   2.241  10.568 -0.5198 -1.5184  0.2313
  718MOL0     H94770   6.129   2.093  10.772 -1.0013 -4.1059  0.0023
  718MOL0     H94771   6.041   2.043  10.628 -0.2010  2.1356 -1.7303
  718MOL0     H94772   5.828   2.125  10.737  1.3986 -0.6388 -3.7058
  718MOL0     H94773   5.911   1.995  10.842 -1.8580  0.4176 -1.4764
  718MOL0     H94774   5.884   2.336  11.092  1.0932 -0.3665  1.0661
  718MOL0     H94775   6.357   2.054  10.549 -0.3521  1.7048  0.8758
  718MOL0     H94776   6.361   1.813  10.513  0.2516 -3.0967 -0.8953
  719MOL0     O94777  10.990   6.542   0.630 -1.3424 -0.0689  1.2477
  719MOL0     C94778  11.085   6.465   0.643 -0.9246 -0.7401 -0.2038
  719MOL0     O94779  11.169   6.428   0.539  0.3259 -0.1259  0.7268
  719MOL0     C94780  11.162   6.489   0.411  0.1810 -0.7471 -0.3073
  719MOL0     C94781  11.207   6.389   0.321 -0.5883  1.0556  0.6678
  719MOL0     C94782  11.214   6.412   0.182 -0.2364 -0.3793  0.4005
  719MOL0     C94783  11.183   6.538   0.134  0.3446  0.0631  0.0471
  719MOL0     O94784  11.200   6.542   0.002 -0.3790 -0.0017  0.7099
  719MOL0     C94785  11.255   6.659  -0.068 -0.2223  0.7406 -0.1056
  719MOL0     C94786  11.141   6.715  -0.157 -0.0533 -0.8476  0.1684
  719MOL0     C94787  11.183   6.835  -0.238  0.3592 -0.1733 -0.9477
  719MOL0     C94788  11.173   6.968  -0.170  0.9524  1.2484  0.4162
  719MOL0     C94789  11.189   7.084  -0.269 -0.6595 -0.2338  0.4495
  719MOL0     C94790  11.193   7.216  -0.184  0.0125  0.3793  0.0417
  719MOL0     C94791  11.230   7.344  -0.272  0.9162 -0.0598  0.5949
  719MOL0     C94792  11.237   7.473  -0.189  0.9186  0.2896  0.6764
  719MOL0     N94793  11.234   7.597  -0.274 -0.6264  0.3796 -0.1899
  719MOL0     C94794  11.340   7.632  -0.359  0.6835 -0.6936 -0.8213
  719MOL0     C94795  11.306   7.754  -0.413  1.3175 -0.0260  0.0285
  719MOL0     C94796  11.365   7.833  -0.526  0.0134  0.5023  0.1666
  719MOL0     C94797  11.253   7.868  -0.637 -0.1658  0.7213 -0.1232
  719MOL0     C94798  11.332   7.922  -0.754  0.4157  0.4021 -0.1735
  719MOL0     C94799  11.249   7.936  -0.879  0.9650 -0.2193  0.1160
  719MOL0     O94800  11.325   7.993  -0.993 -0.1767 -0.0630 -0.0223
  719MOL0     C94801  11.383   7.897  -1.069  1.1172 -0.2697 -0.3767
  719MOL0     C94802  11.307   7.803  -1.137  0.0883  0.2728  0.3665
  719MOL0     C94803  11.356   7.710  -1.227 -0.3120 -0.4914 -1.7303
  719MOL0     C94804  11.494   7.715  -1.257  0.7129  0.5559  0.1304
  719MOL0     C94805  11.548   7.609  -1.345  0.1163  0.4701  0.8031
  719MOL0     O94806  11.452   7.520  -1.380 -0.0720 -0.4134  0.1457
  719MOL0     C94807  11.487   7.407  -1.449  0.1172  0.3497 -0.4233
  719MOL0     C94808  11.396   7.363  -1.547 -0.3881 -0.3219 -0.1419
  719MOL0     C94809  11.413   7.239  -1.602 -0.5783 -0.8357  0.6992
  719MOL0     C94810  11.514   7.156  -1.559  0.1296  0.1944  0.2673
  719MOL0     O94811  11.549   7.045  -1.629  0.4652 -0.2277 -0.8720
  719MOL0     C94812  11.478   7.004  -1.733  0.8583 -0.9016 -0.0542
  719MOL0     C94813  11.512   7.083  -1.864 -0.8324 -0.6274 -0.6733
  719MOL0     C94814  11.456   7.035  -1.988 -0.2578  0.2517 -0.3047
  719MOL0     C94815  11.520   7.118  -2.102 -0.3243  1.0420 -0.7396
  719MOL0     C94816  11.483   7.070  -2.243 -0.6547  0.7872 -0.3879
  719MOL0     C94817  11.334   7.099  -2.282 -0.8405  0.3192 -0.3756
  719MOL0     C94818  11.277   7.233  -2.265 -0.0370 -0.9462 -0.5258
  719MOL0     C94819  11.266   7.327  -2.386  0.4425  0.6038  0.3801
  719MOL0    Cl94820  11.111   7.263  -2.481  0.1918 -0.1706  0.7258
  719MOL0     C94821  11.616   7.203  -1.471 -0.1954  1.0483  0.0133
  719MOL0     C94822  11.600   7.329  -1.415  0.5538 -1.1158 -0.6001
  719MOL0     O94823  11.666   7.607  -1.385 -0.7657 -0.9923  0.3254
  719MOL0     C94824  11.571   7.811  -1.193  0.2646  0.2598 -0.0730
  719MOL0     C94825  11.520   7.897  -1.093 -0.0767  1.0903  0.2542
  719MOL0     N94826  11.184   7.785  -0.357  0.3954 -0.1547  0.4403
  719MOL0     N94827  11.148   7.697  -0.275  0.3117  0.4704  0.4722
  719MOL0     C94828  11.141   6.635   0.223 -0.2446  0.9674  0.0496
  719MOL0     C94829  11.129   6.615   0.368  0.5946  0.2077  1.1080
  719MOL0     C94830  11.109   6.404   0.771  0.7914  0.1256  0.5588
  719MOL0     C94831  11.196   6.300   0.784 -0.3935  0.6132 -0.6526
  719MOL0     C94832  11.214   6.247   0.910 -0.7496 -0.0342  0.1914
  719MOL0     C94833  11.154   6.301   1.024 -0.7758 -1.0888  0.3809
  719MOL0     O94834  11.182   6.266   1.160 -0.3141 -0.7702  0.5206
  719MOL0     C94835  11.259   6.153   1.194 -1.1753  0.0424 -0.8192
  719MOL0     C94836  11.267   6.143   1.353 -0.4608 -0.7118  0.2347
  719MOL0     C94837  11.389   6.072   1.401 -0.7036  0.7923  0.5290
  719MOL0     C94838  11.518   6.140   1.393 -0.1804  0.4081  0.2971
  719MOL0     C94839  11.628   6.058   1.453  0.1078  0.3318 -0.1061
  719MOL0     C94840  11.717   5.985   1.488  0.4357  0.3601 -0.0084
  719MOL0     C94841  11.071   6.411   1.007  0.6989  0.2690 -0.5178
  719MOL0     C94842  11.043   6.464   0.881  0.7982 -0.2982  0.0138
  719MOL0     H94843  11.222   6.292   0.366 -2.6295  0.7765  0.8379
  719MOL0     H94844  11.239   6.329   0.118  1.0180  0.6295 -0.4707
  719MOL0     H94845  11.333   6.618  -0.132  0.4963  0.8139  0.7174
  719MOL0     H94846  11.300   6.732   0.000 -0.4402 -0.1450  1.0005
  719MOL0     H94847  11.055   6.742  -0.095  0.2578 -1.8769  1.0701
  719MOL0     H94848  11.105   6.629  -0.215 -1.4983 -2.8590  3.7234
  719MOL0     H94849  11.127   6.834  -0.332 -0.5672 -1.9156 -0.4288
  719MOL0     H94850  11.289   6.830  -0.264  0.2996  0.9154 -1.4234
  719MOL0     H94851  11.070   6.970  -0.134  1.8040  1.4203  3.0490
  719MOL0     H94852  11.239   6.971  -0.083  2.0936  0.0192 -0.3513
  719MOL0     H94853  11.103   7.085  -0.336 -1.4396 -0.3712  1.4302
  719MOL0     H94854  11.275   7.068  -0.334 -0.8620 -0.3256  0.2034
  719MOL0     H94855  11.270   7.207  -0.106  0.1353 -0.4293 -0.1660
  719MOL0     H94856  11.098   7.228  -0.131  1.3109  1.0841  2.3620
  719MOL0     H94857  11.323   7.325  -0.327 -0.6004 -1.2718 -1.7024
  719MOL0     H94858  11.147   7.349  -0.343  1.4716 -2.6033 -0.3405
  719MOL0     H94859  11.325   7.479  -0.124  0.7915  2.7424  0.7147
  719MOL0     H94860  11.152   7.463  -0.121  2.8099 -2.5283  2.8752
  719MOL0     H94861  11.427   7.571  -0.382  1.7952  0.2030  0.8397
  719MOL0     H94862  11.445   7.769  -0.564  0.8807  2.1276 -0.8393
  719MOL0     H94863  11.413   7.921  -0.481  0.9205 -0.9579  2.2697
  719MOL0     H94864  11.186   7.942  -0.593  1.4145  1.9478  0.3145
  719MOL0     H94865  11.200   7.776  -0.664 -1.9136  1.8500 -0.7476
  719MOL0     H94866  11.374   8.015  -0.716  0.2080 -0.0436  1.1879
  719MOL0     H94867  11.417   7.859  -0.783  0.1797  1.3377 -3.1922
  719MOL0     H94868  11.177   8.019  -0.879  2.4220  1.0913  0.1000
  719MOL0     H94869  11.207   7.839  -0.908  1.5839 -0.9505  1.5790
  719MOL0     H94870  11.200   7.796  -1.118 -0.1842  1.1344 -0.7450
  719MOL0     H94871  11.290   7.630  -1.257 -3.4185  0.0375  2.7211
  719MOL0     H94872  11.311   7.425  -1.572  0.0231 -0.0156 -0.7866
  719MOL0     H94873  11.332   7.218  -1.671  0.3200 -1.2633 -0.2552
  719MOL0     H94874  11.371   7.009  -1.711  1.3259  2.0494  2.2131
  719MOL0     H94875  11.498   6.901  -1.762  0.8770 -1.4721  1.8636
  719MOL0     H94876  11.619   7.061  -1.872 -0.8537 -0.3638 -1.7636
  719MOL0     H94877  11.502   7.190  -1.849 -3.0902 -0.2330 -3.9066
  719MOL0     H94878  11.346   7.035  -1.987 -0.3583  3.1351  1.3723
  719MOL0     H94879  11.487   6.930  -1.994 -2.3006 -0.7219  3.3590
  719MOL0     H94880  11.496   7.223  -2.081 -1.5387  0.3071  2.0589
  719MOL0     H94881  11.628   7.110  -2.087 -0.1861 -0.9711 -2.4304
  719MOL0     H94882  11.526   6.972  -2.262  1.2839  1.7965 -1.5508
  719MOL0     H94883  11.534   7.148  -2.300 -0.5490  1.0426  0.0509
  719MOL0     H94884  11.269   7.037  -2.219  0.1405 -0.9597 -0.5829
  719MOL0     H94885  11.318   7.075  -2.388 -0.6886  1.2770 -0.6270
  719MOL0     H94886  11.173   7.229  -2.231  0.3143  4.1709  2.2190
  719MOL0     H94887  11.326   7.296  -2.189  0.6750  0.0520 -1.7702
  719MOL0     H94888  11.356   7.324  -2.448 -0.0771 -2.7105 -0.4207
  719MOL0     H94889  11.249   7.429  -2.349 -0.6587  1.3304 -1.9232
  719MOL0     H94890  11.703   7.138  -1.472 -1.5041 -0.7893  0.7361
  719MOL0     H94891  11.679   7.358  -1.347  2.2438 -4.6934 -0.7881
  719MOL0     H94892  11.679   7.825  -1.203  0.2666  1.4515  1.2900
  719MOL0     H94893  11.585   7.967  -1.041  0.2996  0.1064  1.1267
  719MOL0     H94894  11.127   6.739   0.194  2.6815  1.2638 -0.5685
  719MOL0     H94895  11.097   6.686   0.443  0.3663 -1.2536  2.4312
  719MOL0     H94896  11.257   6.259   0.705  1.4781  0.4155  0.8049
  719MOL0     H94897  11.291   6.173   0.926 -0.5179 -0.4125 -2.2975
  719MOL0     H94898  11.353   6.151   1.139  0.0564  0.5895  1.1524
  719MOL0     H94899  11.206   6.063   1.162 -0.2830 -0.9412  0.3785
  719MOL0     H94900  11.265   6.240   1.404  0.3908 -0.4213 -0.2734
  719MOL0     H94901  11.179   6.083   1.380 -1.4027  0.7032  0.3691
  719MOL0     H94902  11.390   5.980   1.342 -0.1388  2.9313 -3.0422
  719MOL0     H94903  11.367   6.046   1.505 -1.2044 -0.5111  0.1162
  719MOL0     H94904  11.559   6.151   1.293  1.1631 -2.8649  0.3631
  719MOL0     H94905  11.515   6.236   1.445  1.3249  0.0565  1.0788
  719MOL0     H94906  11.796   5.918   1.515 -0.4570 -0.5661  0.3462
  719MOL0     H94907  11.020   6.457   1.090  1.5488 -1.8044  1.2491
  719MOL0     H94908  10.970   6.544   0.886 -0.1145 -1.1768  2.4799
  720MOL0     O94909   6.150   5.179   5.026  0.9550 -0.0291  0.0631
  720MOL0     C94910   6.053   5.123   5.065 -0.8844 -0.5156 -0.2406
  720MOL0     O94911   6.058   5.025   5.167 -0.4415 -0.7392 -0.1310
  720MOL0     C94912   6.167   4.973   5.228 -0.0496 -0.0302  0.0395
  720MOL0     C94913   6.140   4.920   5.359 -0.4720  0.2774  0.7474
  720MOL0     C94914   6.244   4.850   5.409  0.2316 -0.0991 -1.0034
  720MOL0     C94915   6.368   4.833   5.357 -0.4537 -0.1510  0.3268
  720MOL0     O94916   6.464   4.770   5.423  0.4270 -0.0732  0.1026
  720MOL0     C94917   6.445   4.631   5.429  0.3677  0.6522 -0.3312
  720MOL0     C94918   6.467   4.575   5.568  0.5875  0.6177  0.2297
  720MOL0     C94919   6.607   4.527   5.594  0.1289 -0.1770 -0.3853
  720MOL0     C94920   6.643   4.401   5.516  0.5168 -0.8174 -0.1563
  720MOL0     C94921   6.729   4.305   5.606  0.1977 -0.2944  0.4589
  720MOL0     C94922   6.640   4.200   5.680  0.5057  0.5401  0.0748
  720MOL0     C94923   6.704   4.124   5.795  0.8869 -0.0166  0.1827
  720MOL0     C94924   6.835   4.057   5.747 -0.0098  0.5859  0.7074
  720MOL0     N94925   6.875   3.946   5.837 -0.2612 -0.5953 -0.0857
  720MOL0     C94926   6.817   3.822   5.840 -0.2930 -0.1689 -0.6239
  720MOL0     C94927   6.890   3.753   5.935  0.6631  0.1537  0.4215
  720MOL0     C94928   6.861   3.616   5.984 -0.4357 -0.5114  0.2224
  720MOL0     C94929   6.977   3.529   5.945  0.5858  0.3420  0.0324
  720MOL0     C94930   6.925   3.379   5.956 -0.2493 -0.5916 -0.3102
  720MOL0     C94931   7.004   3.272   5.877  0.0052  0.3767 -0.0759
  720MOL0     O94932   7.009   3.330   5.742  0.0536  0.2476 -0.3400
  720MOL0     C94933   7.064   3.245   5.646  0.1753 -0.2855  0.2993
  720MOL0     C94934   7.130   3.132   5.682 -0.4503 -0.0421  0.4936
  720MOL0     C94935   7.191   3.052   5.586  0.2415 -0.4246 -0.1450
  720MOL0     C94936   7.199   3.093   5.445  0.9515 -0.2436 -1.7900
  720MOL0     C94937   7.284   3.035   5.343 -0.6001  0.0629 -0.1033
  720MOL0     O94938   7.289   3.101   5.220  0.4814  0.0108  0.0491
  720MOL0     C94939   7.348   3.044   5.113  0.3157  0.5262  0.2598
  720MOL0     C94940   7.291   3.068   4.986 -0.5765  0.2555  0.2625
  720MOL0     C94941   7.349   3.003   4.874 -0.3001  0.0804  0.2179
  720MOL0     C94942   7.472   2.921   4.876  0.3275 -0.4586  0.1788
  720MOL0     O94943   7.526   2.870   4.759  0.1490  0.6471 -0.9218
  720MOL0     C94944   7.657   2.905   4.733 -0.5237  0.8431  0.1230
  720MOL0     C94945   7.705   2.856   4.593  0.0617  0.4425 -0.4147
  720MOL0     C94946   7.675   2.710   4.573  0.3483  1.2991  1.3129
  720MOL0     C94947   7.738   2.652   4.439 -0.8303  0.5493 -0.6355
  720MOL0     C94948   7.731   2.497   4.408 -0.4915 -0.1279 -0.1973
  720MOL0     C94949   7.595   2.430   4.444 -0.8590 -0.5669  0.0236
  720MOL0     C94950   7.611   2.281   4.417  0.1260  0.0375 -0.5058
  720MOL0     C94951   7.497   2.204   4.477  0.0738  0.2161 -0.4476
  720MOL0    Cl94952   7.363   2.194   4.364  0.0293 -0.0683 -0.1079
  720MOL0     C94953   7.535   2.922   5.002  0.5088 -0.8339 -0.1312
  720MOL0     C94954   7.477   2.972   5.118  0.5348 -0.1207 -0.2027
  720MOL0     O94955   7.342   2.932   5.379  0.8454 -0.3699  0.3033
  720MOL0     C94956   7.141   3.218   5.421 -0.1675  0.4831 -0.1713
  720MOL0     C94957   7.071   3.290   5.514  1.2449  0.0174  0.2396
  720MOL0     N94958   6.995   3.833   5.975 -0.1956  0.2723 -0.0587
  720MOL0     N94959   6.988   3.938   5.903 -0.1203  0.9998  0.0614
  720MOL0     C94960   6.402   4.903   5.249 -1.2101 -0.1326  0.0671
  720MOL0     C94961   6.298   4.970   5.173 -0.7787  0.2695 -0.8945
  720MOL0     C94962   5.929   5.149   5.004  0.1129 -1.1590  0.5128
  720MOL0     C94963   5.816   5.169   5.068  0.9644  0.0209  0.3733
  720MOL0     C94964   5.690   5.187   5.002  0.5843 -0.0468  0.6052
  720MOL0     C94965   5.687   5.185   4.866 -0.3303  0.7721  0.1250
  720MOL0     O94966   5.565   5.176   4.803 -0.2213 -0.2257  0.0107
  720MOL0     C94967   5.503   5.298   4.774 -0.3297  0.2144  0.8447
  720MOL0     C94968   5.402   5.316   4.889 -0.4314  0.7258  0.7121
  720MOL0     C94969   5.320   5.191   4.915  0.5686  0.0942  1.6890
  720MOL0     C94970   5.248   5.141   4.779  0.0969 -0.8271 -0.2331
  720MOL0     C94971   5.150   5.230   4.712 -0.6942 -0.9831  0.3177
  720MOL0     C94972   5.064   5.292   4.651 -0.3715  0.1080  1.4609
  720MOL0     C94973   5.802   5.150   4.783 -0.1297  0.2437  0.1392
  720MOL0     C94974   5.918   5.129   4.858 -0.0247 -0.9116 -0.0136
  720MOL0     H94975   6.038   4.924   5.395 -0.7696  0.3117 -0.0719
  720MOL0     H94976   6.225   4.808   5.508 -2.2651 -1.1413 -1.8330
  720MOL0     H94977   6.523   4.587   5.366 -0.4048 -1.3299  0.0203
  720MOL0     H94978   6.343   4.599   5.404 -0.0646  0.2213  1.7480
  720MOL0     H94979   6.396   4.494   5.588  0.5273  0.3454 -0.9871
  720MOL0     H94980   6.445   4.656   5.637  0.2516  0.7437 -0.0216
  720MOL0     H94981   6.613   4.502   5.700  0.1281 -0.0232 -0.3488
  720MOL0     H94982   6.688   4.598   5.577  0.7002 -0.1151  2.1779
  720MOL0     H94983   6.558   4.350   5.469  1.6741  0.5584 -4.2066
  720MOL0     H94984   6.708   4.439   5.437 -0.7681  3.5154  0.6024
  720MOL0     H94985   6.802   4.361   5.665  1.0682  1.2392 -1.8980
  720MOL0     H94986   6.780   4.237   5.537  1.9311 -0.7114  2.0575
  720MOL0     H94987   6.590   4.142   5.602  2.2258 -0.2966 -0.4476
  720MOL0     H94988   6.566   4.259   5.735 -0.0501 -0.0509 -0.0317
  720MOL0     H94989   6.738   4.192   5.873  1.2262  1.4443 -1.1867
  720MOL0     H94990   6.640   4.043   5.831 -0.6240  0.4552 -1.3350
  720MOL0     H94991   6.919   4.125   5.727 -0.5905  1.3409  0.7947
  720MOL0     H94992   6.814   4.010   5.650  0.2131 -0.9837  1.3848
  720MOL0     H94993   6.731   3.790   5.782  1.0623 -1.7826 -1.8725
  720MOL0     H94994   6.768   3.583   5.938 -1.5497  2.0408  0.4836
  720MOL0     H94995   6.860   3.616   6.093  0.1314  3.8957  0.4169
  720MOL0     H94996   7.066   3.545   6.005  0.3022 -1.3419  0.9721
  720MOL0     H94997   7.010   3.538   5.841  1.0896 -0.0496  0.1532
  720MOL0     H94998   6.922   3.347   6.061  4.0712  0.0628  0.2166
  720MOL0     H94999   6.820   3.378   5.926 -0.7599  2.0837  1.0721
  720MOL0     H95000   6.959   3.173   5.886  4.8755 -1.9778  2.8543
  720MOL0     H95001   7.103   3.263   5.922  0.1821 -1.1177 -0.7280
  720MOL0     H95002   7.135   3.095   5.784  0.6254 -1.2366  0.0358
  720MOL0     H95003   7.234   2.962   5.628 -0.6055  0.3730  2.5933
  720MOL0     H95004   7.200   3.126   4.980 -0.7824  0.1595  1.9381
  720MOL0     H95005   7.293   3.020   4.782 -0.6522  2.4975  0.8199
  720MOL0     H95006   7.732   2.861   4.799  2.2896 -1.9927 -4.4308
  720MOL0     H95007   7.676   3.013   4.729 -0.5972  0.8461 -0.1736
  720MOL0     H95008   7.813   2.873   4.593  0.3853 -1.4031  0.1215
  720MOL0     H95009   7.666   2.913   4.508 -2.8525 -3.4471 -2.0076
  720MOL0     H95010   7.566   2.699   4.581  0.6546 -1.3642  3.9253
  720MOL0     H95011   7.716   2.653   4.657  4.2009 -0.8100 -1.6884
  720MOL0     H95012   7.675   2.701   4.363 -1.5609  0.0987 -0.3265
  720MOL0     H95013   7.841   2.686   4.426 -0.9921  0.7544 -1.5203
  720MOL0     H95014   7.803   2.431   4.458 -1.6505 -0.7096  0.7547
  720MOL0     H95015   7.746   2.479   4.302 -3.1106 -1.2537 -0.4454
  720MOL0     H95016   7.526   2.481   4.376  1.7620  3.6154  0.1590
  720MOL0     H95017   7.562   2.448   4.547 -0.5522 -3.7925  0.8246
  720MOL0     H95018   7.618   2.258   4.310 -0.3108  1.5453 -0.8805
  720MOL0     H95019   7.702   2.250   4.469 -0.2275  0.3444  0.3211
  720MOL0     H95020   7.459   2.258   4.565  1.3684  1.1496 -0.4245
  720MOL0     H95021   7.533   2.104   4.505  1.6394  1.4524  2.5467
  720MOL0     H95022   7.626   2.869   5.028  0.2581 -0.5303  1.4948
  720MOL0     H95023   7.526   2.955   5.213 -1.9992  1.8739  1.6256
  720MOL0     H95024   7.151   3.271   5.326 -0.3901  1.5139  0.3637
  720MOL0     H95025   7.027   3.381   5.475  2.2376  0.6461  0.5650
  720MOL0     H95026   6.505   4.914   5.217 -0.1123 -1.3329  2.8937
  720MOL0     H95027   6.313   5.020   5.078  0.3752  2.4421  0.3418
  720MOL0     H95028   5.806   5.166   5.176 -0.1114  0.1248  0.2892
  720MOL0     H95029   5.596   5.210   5.051  0.0532  0.9646 -0.8119
  720MOL0     H95030   5.461   5.295   4.673  0.3017 -2.2060  0.5895
  720MOL0     H95031   5.579   5.377   4.776 -1.7028  1.5781  3.5734
  720MOL0     H95032   5.450   5.349   4.981  0.2639  0.6767  0.3726
  720MOL0     H95033   5.336   5.400   4.864  0.4757  1.8232  1.9092
  720MOL0     H95034   5.247   5.211   4.994 -1.7656  3.8644 -1.1222
  720MOL0     H95035   5.388   5.109   4.941  2.0904  1.8024  3.4523
  720MOL0     H95036   5.326   5.113   4.708 -0.8309 -2.3585 -0.6982
  720MOL0     H95037   5.194   5.049   4.804  1.9855 -1.8198  0.4226
  720MOL0     H95038   4.984   5.337   4.595  0.5708  2.4490  1.8580
  720MOL0     H95039   5.799   5.128   4.677 -0.9474  0.2457  0.1590
  720MOL0     H95040   6.003   5.105   4.795 -2.7385 -2.3887 -3.4253
  721MOL0     O95041   0.727   2.183   8.194  0.3815  0.8502  0.1986
  721MOL0     C95042   0.847   2.205   8.202  0.7068  0.0384  0.0442
  721MOL0     O95043   0.931   2.154   8.299 -1.3881 -0.1304  0.4537
  721MOL0     C95044   0.873   2.119   8.413  0.7253 -0.3937 -0.7421
  721MOL0     C95045   0.772   2.177   8.489 -0.3448 -0.5235  0.0138
  721MOL0     C95046   0.735   2.144   8.619  0.0804  0.1579 -0.0521
  721MOL0     C95047   0.810   2.054   8.685 -0.4023  0.3405  0.3373
  721MOL0     O95048   0.786   2.016   8.815 -0.2432 -0.0470 -0.3671
  721MOL0     C95049   0.763   2.122   8.904 -0.3652 -0.3263  0.0540
  721MOL0     C95050   0.898   2.188   8.937  0.0638 -0.3864 -0.0215
  721MOL0     C95051   1.009   2.101   8.993  0.6969  0.0042  0.1575
  721MOL0     C95052   1.105   2.158   9.103  0.5152  0.3520  0.6861
  721MOL0     C95053   1.232   2.068   9.114  1.0121 -0.2431 -0.4713
  721MOL0     C95054   1.325   2.108   9.230  0.2644 -0.0833  0.1140
  721MOL0     C95055   1.381   1.983   9.302 -1.1136  1.2549  0.7350
  721MOL0     C95056   1.455   1.892   9.208 -0.4890 -0.1725  0.1012
  721MOL0     N95057   1.555   1.958   9.130  0.1206 -0.2518 -0.3183
  721MOL0     C95058   1.659   2.018   9.187 -0.3301 -0.2496  0.1036
  721MOL0     C95059   1.723   2.088   9.086 -0.8163  0.6748 -0.9911
  721MOL0     C95060   1.850   2.172   9.091  0.0151 -0.5109  0.2526
  721MOL0     C95061   1.952   2.111   9.180 -0.8293  1.1159  0.2809
  721MOL0     C95062   1.970   2.183   9.320  0.3128 -0.4761 -0.4450
  721MOL0     C95063   2.091   2.127   9.402 -0.0741  0.4545 -0.8602
  721MOL0     O95064   2.211   2.130   9.314 -0.6847 -0.2513 -0.0704
  721MOL0     C95065   2.338   2.103   9.357  0.8295 -0.3599  0.0254
  721MOL0     C95066   2.447   2.147   9.280 -1.4140 -0.3417  0.7606
  721MOL0     C95067   2.579   2.117   9.324  0.9761 -0.1740 -0.0092
  721MOL0     C95068   2.604   2.062   9.453 -0.2989  0.2490  0.4107
  721MOL0     C95069   2.742   2.044   9.489  0.1883 -0.1303 -0.2351
  721MOL0     O95070   2.759   2.022   9.624  0.8922 -0.1447  0.1215
  721MOL0     C95071   2.893   2.011   9.667  0.1331  0.3442  0.1038
  721MOL0     C95072   2.980   1.912   9.617 -0.9318  0.0870  0.3480
  721MOL0     C95073   3.119   1.901   9.653  0.3505 -0.2419 -0.1183
  721MOL0     C95074   3.169   1.997   9.741  0.9763 -0.0563  0.0011
  721MOL0     O95075   3.300   1.993   9.785  0.7233  0.1065 -0.2036
  721MOL0     C95076   3.303   1.929   9.917 -0.7084 -0.2330 -0.4235
  721MOL0     C95077   3.444   1.892   9.952 -0.5355 -0.0686 -0.5601
  721MOL0     C95078   3.522   1.797   9.847  0.2946 -0.1415 -0.9650
  721MOL0     C95079   3.429   1.683   9.799  0.2531 -0.3419 -0.0602
  721MOL0     C95080   3.515   1.573   9.730  0.5655 -0.6106  0.3640
  721MOL0     C95081   3.502   1.566   9.574  0.6528  0.4704  1.0524
  721MOL0     C95082   3.608   1.478   9.500  0.9478 -0.9014 -0.1573
  721MOL0     C95083   3.584   1.456   9.354  0.2451 -0.1000 -0.1167
  721MOL0    Cl95084   3.747   1.401   9.299 -0.4741  0.1989  0.2360
  721MOL0     C95085   3.080   2.101   9.793 -0.6334  0.1665  0.1272
  721MOL0     C95086   2.946   2.106   9.762  0.6253 -0.1231  0.2451
  721MOL0     O95087   2.829   2.053   9.400  0.1796 -0.5250 -0.2419
  721MOL0     C95088   2.491   2.010   9.517 -0.0023  0.7664 -0.1601
  721MOL0     C95089   2.361   2.029   9.473  0.3194  0.4237 -0.2834
  721MOL0     N95090   1.665   2.050   8.971 -0.4594  0.1930  0.2925
  721MOL0     N95091   1.573   1.961   8.995 -0.1524 -0.4298 -0.5103
  721MOL0     C95092   0.910   1.986   8.620  0.4239  0.2362 -0.4796
  721MOL0     C95093   0.937   2.007   8.480  0.5000 -0.9279 -0.5587
  721MOL0     C95094   0.912   2.306   8.110  0.8733  0.0600  0.1267
  721MOL0     C95095   0.845   2.393   8.028 -0.6722 -1.3808  0.5854
  721MOL0     C95096   0.911   2.486   7.954  0.6020 -0.6226 -0.4465
  721MOL0     C95097   1.049   2.489   7.952 -1.5215 -0.3028  0.2590
  721MOL0     O95098   1.121   2.561   7.864 -0.1072 -1.1362 -0.3282
  721MOL0     C95099   1.088   2.548   7.722  0.1677  0.5365  0.4230
  721MOL0     C95100   1.172   2.438   7.650  1.1842  0.4496 -0.2191
  721MOL0     C95101   1.201   2.449   7.507  1.6276 -0.6715  0.9040
  721MOL0     C95102   1.080   2.480   7.414  0.0543  0.3053 -1.5518
  721MOL0     C95103   1.023   2.607   7.430  0.5339 -0.0894 -0.6929
  721MOL0     C95104   0.971   2.722   7.436 -0.0409  0.3804 -0.9477
  721MOL0     C95105   1.130   2.409   8.030  0.4439  1.4394  0.1683
  721MOL0     C95106   1.055   2.321   8.105 -0.2715  1.5129 -0.2946
  721MOL0     H95107   0.720   2.255   8.434  0.0463 -1.6431 -2.0559
  721MOL0     H95108   0.659   2.197   8.674  1.0573  2.2387 -0.6031
  721MOL0     H95109   0.731   2.069   8.994 -0.6592 -1.4461 -0.6921
  721MOL0     H95110   0.681   2.186   8.873  2.3148  1.8405 -3.2526
  721MOL0     H95111   0.867   2.271   9.001  0.3159  0.9154 -1.5303
  721MOL0     H95112   0.932   2.243   8.849  3.5008 -0.4008  1.1396
  721MOL0     H95113   1.064   2.071   8.903  0.5641  2.4716 -0.8343
  721MOL0     H95114   0.969   2.010   9.037  1.1607 -0.0279  0.5270
  721MOL0     H95115   1.131   2.261   9.076  2.9373 -0.9270 -2.6177
  721MOL0     H95116   1.044   2.176   9.191  2.5832  6.1850  1.3527
  721MOL0     H95117   1.294   2.078   9.025  3.6098  0.8821  1.3225
  721MOL0     H95118   1.200   1.964   9.127  0.5943 -0.0308  0.2334
  721MOL0     H95119   1.261   2.161   9.302  2.6853  1.5956  1.1691
  721MOL0     H95120   1.410   2.174   9.212  0.2929  1.0351  3.5564
  721MOL0     H95121   1.450   2.017   9.381  2.4158 -0.8260 -1.2048
  721MOL0     H95122   1.302   1.930   9.355  2.2927 -4.5351  0.8925
  721MOL0     H95123   1.390   1.857   9.128  2.1257 -2.5118 -1.1757
  721MOL0     H95124   1.500   1.805   9.258  0.3969 -1.4838 -2.7680
  721MOL0     H95125   1.684   2.021   9.293  1.5090  2.5034 -0.2895
  721MOL0     H95126   1.819   2.273   9.119 -4.6194 -1.8274  0.5835
  721MOL0     H95127   1.900   2.195   8.996  3.6155 -1.6423  1.6767
  721MOL0     H95128   2.039   2.115   9.114 -0.9224 -0.1384  0.0465
  721MOL0     H95129   1.941   2.003   9.196  3.3625  0.4294 -0.2849
  721MOL0     H95130   2.002   2.284   9.291 -1.2830  0.2953  0.3468
  721MOL0     H95131   1.875   2.179   9.373  0.4697 -1.5956 -0.2290
  721MOL0     H95132   2.080   2.022   9.428 -1.4368  1.5002  3.8336
  721MOL0     H95133   2.113   2.173   9.500 -2.7037 -0.5380  0.2911
  721MOL0     H95134   2.439   2.211   9.193 -1.5592 -2.8518 -1.1862
  721MOL0     H95135   2.664   2.144   9.262  1.9957 -0.9549  1.0098
  721MOL0     H95136   2.949   1.859   9.527  0.0944  3.4568 -2.2349
  721MOL0     H95137   3.196   1.832   9.619  3.4052  1.5689  2.5549
  721MOL0     H95138   3.233   1.845   9.917 -1.1179  0.1004  0.0114
  721MOL0     H95139   3.275   2.004   9.992  1.4036 -0.2604  0.4617
  721MOL0     H95140   3.445   1.843  10.049  2.8236  2.7519  1.0713
  721MOL0     H95141   3.502   1.982   9.976 -2.5409  1.2640 -0.4900
  721MOL0     H95142   3.608   1.759   9.904 -1.0947 -0.0547  1.3061
  721MOL0     H95143   3.553   1.859   9.763 -0.1036  0.3595 -0.7437
  721MOL0     H95144   3.385   1.631   9.885 -1.7882  3.2898  1.2957
  721MOL0     H95145   3.350   1.722   9.735  0.3623  0.4958  0.3113
  721MOL0     H95146   3.474   1.481   9.773  0.6334 -0.7334  0.1673
  721MOL0     H95147   3.621   1.584   9.753  0.4315 -0.8939  1.1422
  721MOL0     H95148   3.524   1.658   9.519 -2.1480 -0.5357 -2.1237
  721MOL0     H95149   3.397   1.542   9.555  0.7803  0.5610  0.1873
  721MOL0     H95150   3.701   1.536   9.500 -1.3227  3.1611 -2.2626
  721MOL0     H95151   3.624   1.388   9.561  2.1112 -0.2136  0.5861
  721MOL0     H95152   3.557   1.544   9.295  2.1207  0.3782 -0.3203
  721MOL0     H95153   3.510   1.377   9.343 -0.3206  0.3261  0.5935
  721MOL0     H95154   3.129   2.178   9.852 -1.6249  1.9452 -1.2938
  721MOL0     H95155   2.890   2.194   9.791  1.3065 -0.7730  4.2114
  721MOL0     H95156   2.501   1.952   9.608  3.2828  2.6145  0.8145
  721MOL0     H95157   2.283   1.989   9.537  2.2849 -2.5292  0.4215
  721MOL0     H95158   0.957   1.903   8.673  0.4173 -0.8987 -2.1909
  721MOL0     H95159   1.017   1.956   8.427  2.9640  2.8014 -0.7555
  721MOL0     H95160   0.737   2.386   8.027 -0.7201 -3.0546 -3.5730
  721MOL0     H95161   0.849   2.561   7.905  1.1865  0.5294  0.5171
  721MOL0     H95162   1.104   2.647   7.679 -1.6641  0.3970 -0.6756
  721MOL0     H95163   0.983   2.518   7.717  0.5214 -1.6494  3.2652
  721MOL0     H95164   1.261   2.410   7.707 -0.2728 -1.7266  1.1277
  721MOL0     H95165   1.122   2.342   7.667  1.4855  0.4471  0.6728
  721MOL0     H95166   1.253   2.358   7.476  0.9305 -1.5416  2.1748
  721MOL0     H95167   1.271   2.532   7.493  0.6000  0.0922  0.1274
  721MOL0     H95168   1.111   2.469   7.309 -0.2995 -0.9576 -1.5518
  721MOL0     H95169   1.011   2.402   7.449  0.7378  0.8037  1.0649
  721MOL0     H95170   0.912   2.812   7.440  0.6450  0.9523 -2.6140
  721MOL0     H95171   1.238   2.416   8.033  0.9328 -2.6776 -0.9103
  721MOL0     H95172   1.111   2.253   8.169 -3.3974  0.2418  1.3495
  722MOL0     O95173   3.845  10.010   9.417 -0.4136  0.4931 -0.7616
  722MOL0     C95174   3.804  10.113   9.370 -1.2656 -1.0468  0.8041
  722MOL0     O95175   3.730  10.210   9.441 -0.6003 -0.4730 -0.6791
  722MOL0     C95176   3.701  10.174   9.569 -0.1082  0.2746  0.3545
  722MOL0     C95177   3.798  10.191   9.668  0.8318 -1.1054  0.9949
  722MOL0     C95178   3.754  10.175   9.804 -0.6727  0.2281 -0.4089
  722MOL0     C95179   3.617  10.142   9.835  1.1201  0.8532 -0.0024
  722MOL0     O95180   3.563  10.128   9.963 -0.1568  0.4212  1.6314
  722MOL0     C95181   3.607  10.216  10.059  0.5021 -0.6458 -0.6522
  722MOL0     C95182   3.524  10.197  10.180  0.8137 -0.3802 -0.7717
  722MOL0     C95183   3.375  10.205  10.157  1.3740 -0.2476 -0.1871
  722MOL0     C95184   3.290  10.239  10.285  0.1472  0.1669  0.5983
  722MOL0     C95185   3.141  10.248  10.278  0.4341 -0.4536 -0.8417
  722MOL0     C95186   3.068  10.320  10.167  0.0856  0.6006  0.4773
  722MOL0     C95187   2.920  10.317  10.199  0.2897 -0.4112 -0.1869
  722MOL0     C95188   2.840  10.202  10.142 -0.2104 -0.2636 -0.3101
  722MOL0     N95189   2.693  10.230  10.158  0.1108  1.1699 -0.0798
  722MOL0     C95190   2.617  10.247  10.272 -0.5476 -0.1021 -0.7551
  722MOL0     C95191   2.494  10.250  10.226  0.2142  0.4000 -0.8061
  722MOL0     C95192   2.372  10.293  10.311  1.0492 -0.0167  0.2547
  722MOL0     C95193   2.377  10.434  10.371  0.0764 -0.2566 -0.6339
  722MOL0     C95194   2.432  10.533  10.278 -0.2088  0.3891 -0.1182
  722MOL0     C95195   2.338  10.566  10.163  0.2515 -0.4449  0.9242
  722MOL0     O95196   2.247  10.666  10.214  0.1393  0.5202 -0.0386
  722MOL0     C95197   2.142  10.711  10.139  0.6496 -0.4983  1.0134
  722MOL0     C95198   2.106  10.660  10.014 -0.2440  0.0475 -0.4423
  722MOL0     C95199   2.015  10.733   9.932 -0.7065  0.1090  0.7885
  722MOL0     C95200   1.940  10.841   9.987  0.0931  0.2174 -0.1178
  722MOL0     C95201   1.837  10.915   9.903  0.4223 -0.5715  0.8719
  722MOL0     O95202   1.772  11.022   9.959  1.3697 -0.1945  0.2998
  722MOL0     C95203   1.733  11.126   9.871 -0.7310 -1.0465 -0.7281
  722MOL0     C95204   1.822  11.151   9.678  0.1493 -0.6001 -1.4301
  722MOL0     C95205   1.786  11.333   9.567  0.7222  0.6342  0.3048
  722MOL0     C95206   1.651  11.479   9.646 -0.1398  0.8759 -0.3169
  722MOL0     O95207   1.616  11.571   9.557  0.2123  0.3314  1.3203
  722MOL0     C95208   1.520  11.662   9.596 -0.6443 -0.5418 -0.6365
  722MOL0     C95209   1.583  11.771   9.685  0.0899 -0.6152 -0.1386
  722MOL0     C95210   1.489  11.875   9.738  0.2416  0.4105  0.6434
  722MOL0     C95211   1.584  11.965   9.814 -0.3120 -0.3718  0.3060
  722MOL0     C95212   1.515  12.077   9.903 -1.0780 -0.4188 -0.4540
  722MOL0     C95213   1.404  12.152   9.835  0.3943  0.5092 -0.2300
  722MOL0     C95214   1.396  12.295   9.885  0.2803 -0.0365 -0.4071
  722MOL0     C95215   1.293  12.374   9.802  0.6641  0.3644 -0.2513
  722MOL0    Cl95216   1.267  12.535   9.873 -0.2615 -0.2278  0.0101
  722MOL0     C95217   1.572  11.455   9.834  0.9489  0.3995 -0.5977
  722MOL0     C95218   1.608  11.278   9.951 -0.1061  0.8561  0.4863
  722MOL0     O95219   1.807  10.861   9.795  0.0655  0.1828 -0.3649
  722MOL0     C95220   1.968  10.879  10.118 -0.1920 -0.4752  0.0671
  722MOL0     C95221   2.071  10.817  10.189  0.8810 -0.2098 -0.0793
  722MOL0     N95222   2.495  10.244  10.086  0.0046  0.7170  0.7740
  722MOL0     N95223   2.616  10.230  10.046  0.2282  0.4423 -0.2166
  722MOL0     C95224   3.533  10.111   9.724 -1.0954 -0.5783  1.1350
  722MOL0     C95225   3.574  10.134   9.593 -0.2070 -0.9142 -0.4325
  722MOL0     C95226   3.835  10.137   9.225  0.8195 -0.1850  0.0779
  722MOL0     C95227   3.926  10.051   9.155  0.0465  0.1745  0.0161
  722MOL0     C95228   3.967  10.078   9.022  0.7508  0.4169  0.2497
  722MOL0     C95229   3.912  10.191   8.958  0.1568 -0.3870  0.1740
  722MOL0     O95230   3.949  10.223   8.826  0.3049  0.1615  0.1144
  722MOL0     C95231   3.915  10.139   8.722  0.5960 -0.0718  0.2699
  722MOL0     C95232   3.769  10.111   8.711 -0.2139  0.4595 -0.2135
  722MOL0     C95233   3.689  10.218   8.639 -0.0713  0.6971  1.2761
  722MOL0     C95234   3.698  10.204   8.486 -0.6404  0.6074 -0.2555
  722MOL0     C95235   3.624  10.091   8.428 -0.0609  0.2482  0.6462
  722MOL0     C95236   3.570  10.008   8.362 -0.4366  0.6390 -1.0481
  722MOL0     C95237   3.817  10.277   9.019 -0.2067 -0.3369 -0.3540
  722MOL0     C95238   3.784  10.251   9.151 -0.5328 -1.1887  0.5356
  722MOL0     H95239   3.899  10.220   9.641  0.3551  0.2987  0.6454
  722MOL0     H95240   3.829  10.175   9.882 -0.5147 -0.0549 -0.5588
  722MOL0     H95241   3.603  10.321  10.028  1.7034 -0.0215  1.1379
  722MOL0     H95242   3.709  10.192  10.089  0.3660 -0.7055 -0.2330
  722MOL0     H95243   3.551  10.273  10.253  1.1520 -1.6788  0.5185
  722MOL0     H95244   3.560  10.104  10.227 -0.8891 -0.4172  0.5756
  722MOL0     H95245   3.338  10.112  10.111  1.0672 -1.8523  3.0196
  722MOL0     H95246   3.355  10.286  10.087 -0.4775  0.5022  1.1126
  722MOL0     H95247   3.297  10.158  10.358 -0.7372 -3.2767 -2.7868
  722MOL0     H95248   3.327  10.331  10.331 -1.1085  0.2003  1.5677
  722MOL0     H95249   3.109  10.286  10.375 -0.6509  3.0130 -2.4271
  722MOL0     H95250   3.112  10.142  10.272  2.5812 -1.0608 -1.5151
  722MOL0     H95251   3.090  10.270  10.072  0.1280  0.2501  0.6667
  722MOL0     H95252   3.089  10.427  10.158 -5.2579  1.8117 -0.6440
  722MOL0     H95253   2.906  10.328  10.307 -0.5091  0.7252 -0.3897
  722MOL0     H95254   2.869  10.403  10.154  0.3243  1.2451  2.6780
  722MOL0     H95255   2.870  10.115  10.200  1.7282  0.8009  0.3831
  722MOL0     H95256   2.865  10.191  10.036  0.7606  2.4069 -0.4457
  722MOL0     H95257   2.643  10.260  10.376  0.9937  1.4118 -1.2970
  722MOL0     H95258   2.346  10.222  10.391 -3.5417  1.2553  0.1935
  722MOL0     H95259   2.295  10.295  10.232 -0.2998  1.8992  1.5222
  722MOL0     H95260   2.450  10.421  10.451  1.4922  2.6208 -1.3166
  722MOL0     H95261   2.282  10.470  10.412  0.4875  1.7206 -1.2762
  722MOL0     H95262   2.456  10.625  10.331 -4.5704  0.6300  1.8480
  722MOL0     H95263   2.526  10.493  10.240 -1.7150 -1.0781 -2.5945
  722MOL0     H95264   2.287  10.476  10.128 -0.3403  0.2065  0.0705
  722MOL0     H95265   2.414  10.599  10.092  0.4269  2.5448  2.3543
  722MOL0     H95266   2.147  10.571   9.968 -2.5679 -2.4620  1.9810
  722MOL0     H95267   1.993  10.693   9.833  0.0536  1.2278  0.1491
  722MOL0     H95268   1.887  11.072   9.642 -4.0822 -3.2368 -4.1629
  722MOL0     H95269   1.838  11.349   9.473  0.0069 -1.2701 -0.4659
  722MOL0     H95270   1.433  11.620   9.649  0.9914 -0.5120  2.3045
  722MOL0     H95271   1.492  11.724   9.511 -1.7314 -0.4758 -0.2528
  722MOL0     H95272   1.667  11.816   9.631 -0.7539 -2.3705 -3.2021
  722MOL0     H95273   1.627  11.722   9.772  0.2363  2.8823  1.8965
  722MOL0     H95274   1.428  11.831   9.817  0.8528  2.7765  2.5332
  722MOL0     H95275   1.441  11.918   9.649  1.2326  2.0944  0.8803
  722MOL0     H95276   1.657  11.910   9.874  1.2150  4.0367  2.9050
  722MOL0     H95277   1.636  12.012   9.730 -0.3560 -2.2802 -0.8471
  722MOL0     H95278   1.590  12.143   9.947 -2.3459 -0.9151  2.7673
  722MOL0     H95279   1.470  12.032   9.992 -0.9807  1.5270  0.6348
  722MOL0     H95280   1.308  12.101   9.850  2.5035 -2.9273  3.7174
  722MOL0     H95281   1.434  12.159   9.730  1.7939 -0.9700  0.0323
  722MOL0     H95282   1.369  12.288   9.991  0.5171 -0.5633 -0.3818
  722MOL0     H95283   1.492  12.347   9.886  0.8314 -1.0323  0.6251
  722MOL0     H95284   1.194  12.327   9.802 -0.4645  2.4865  2.8153
  722MOL0     H95285   1.322  12.390   9.697  0.3124 -1.8774 -0.7505
  722MOL0     H95286   1.504  11.531   9.873 -1.1585 -2.3671  1.5146
  722MOL0     H95287   1.571  11.262  10.052 -1.9546 -0.8351 -0.3836
  722MOL0     H95288   1.920  10.966  10.160 -0.0412 -0.0873 -0.5501
  722MOL0     H95289   2.073  10.857  10.290  0.2400  1.7504 -0.8010
  722MOL0     H95290   3.432  10.073   9.736 -2.6159  1.2127 -3.7093
  722MOL0     H95291   3.508  10.123   9.508  0.7157 -0.8966 -1.1735
  722MOL0     H95292   3.977   9.970   9.205 -1.8183 -1.5879 -0.7828
  722MOL0     H95293   4.026  10.008   8.963 -1.2866  0.5389 -2.0474
  722MOL0     H95294   3.958  10.040   8.744 -0.5568 -0.6738 -0.1085
  722MOL0     H95295   3.961  10.170   8.627  0.8422 -0.5052  0.2414
  722MOL0     H95296   3.757  10.019   8.653 -0.5530 -0.4615  1.2935
  722MOL0     H95297   3.736  10.085   8.811 -1.9339 -0.8521 -1.0751
  722MOL0     H95298   3.728  10.313   8.675  4.0663 -1.3342  2.7270
  722MOL0     H95299   3.582  10.209   8.662 -0.7592 -2.1750 -2.0924
  722MOL0     H95300   3.653  10.290   8.436 -0.5661 -0.6086 -2.5309
  722MOL0     H95301   3.799  10.211   8.444 -1.5396  0.4600 -2.5592
  722MOL0     H95302   3.517   9.925   8.318  1.1164 -1.6719  1.2076
  722MOL0     H95303   3.782  10.369   8.975 -2.0466 -0.4995  0.6736
  722MOL0     H95304   3.721  10.321   9.205 -1.0060  0.9318 -2.5258
  723MOL0     O95305   8.666   6.946   7.826 -0.1244  0.2215  0.2511
  723MOL0     C95306   8.667   6.937   7.945  0.8157 -0.3620 -0.6688
  723MOL0     O95307   8.777   6.932   8.024  0.1578 -0.2892 -1.0313
  723MOL0     C95308   8.902   6.962   7.978 -0.2496 -0.4768 -0.2111
  723MOL0     C95309   8.913   7.079   7.916 -0.2013  0.2933  0.0723
  723MOL0     C95310   9.022   7.105   7.836 -0.6442 -0.0412  0.0156
  723MOL0     C95311   9.135   7.010   7.829 -0.7629  0.3522 -1.0481
  723MOL0     O95312   9.244   7.024   7.753 -0.7646  0.1237 -0.0522
  723MOL0     C95313   9.253   7.125   7.654  0.4023  0.1336 -0.0226
  723MOL0     C95314   9.399   7.140   7.619  0.6477  0.5003 -0.5132
  723MOL0     C95315   9.469   7.002   7.581  1.2461  0.1546  0.2563
  723MOL0     C95316   9.614   7.011   7.540 -0.4696 -0.9719  0.0176
  723MOL0     C95317   9.683   6.877   7.535 -0.6937  0.7402 -0.7747
  723MOL0     C95318   9.819   6.888   7.467 -0.5509 -0.2884  0.1564
  723MOL0     C95319   9.862   6.752   7.415 -0.6839 -0.2981  0.2066
  723MOL0     C95320   9.906   6.656   7.518  0.5094  0.1081 -0.7176
  723MOL0     N95321   9.958   6.534   7.453  0.1323  0.1824 -0.0345
  723MOL0     C95322  10.074   6.535   7.377 -0.3393  0.0219 -0.5918
  723MOL0     C95323  10.110   6.409   7.388 -0.0345  0.3783 -0.7175
  723MOL0     C95324  10.237   6.351   7.340  0.6591 -0.0364  0.8247
  723MOL0     C95325  10.295   6.239   7.429 -0.1393 -1.0267  0.1841
  723MOL0     C95326  10.405   6.305   7.519 -0.0708 -0.1627  0.4375
  723MOL0     C95327  10.477   6.193   7.601 -0.6236  1.7217 -1.0691
  723MOL0     O95328  10.597   6.259   7.655 -0.3048  0.5398 -0.0207
  723MOL0     C95329  10.719   6.248   7.592  0.0966  0.0200 -0.1136
  723MOL0     C95330  10.749   6.341   7.489 -0.4358 -0.0113 -0.3058
  723MOL0     C95331  10.865   6.322   7.411  0.2440 -0.4628  0.4508
  723MOL0     C95332  10.964   6.234   7.453  0.1546 -0.2439 -0.0447
  723MOL0     C95333  11.098   6.230   7.378  0.6691  0.4000 -0.0910
  723MOL0     O95334  11.185   6.129   7.421 -1.0463 -0.6068  0.4139
  723MOL0     C95335  11.292   6.117   7.339 -1.9161  0.2337 -1.0961
  723MOL0     C95336  11.312   5.993   7.280  0.4388 -0.4114  0.4563
  723MOL0     C95337  11.439   5.967   7.230  0.0613 -0.5196  0.1274
  723MOL0     C95338  11.555   6.054   7.243  0.8458 -0.1875  0.0287
  723MOL0     O95339  11.689   6.038   7.218  0.8914  0.1020  0.6550
  723MOL0     C95340  11.733   5.919   7.156  0.5474  1.0230 -0.1068
  723MOL0     C95341  11.734   5.801   7.263  0.3632  0.2779 -0.0342
  723MOL0     C95342  11.718   5.667   7.200 -0.6562 -0.2087 -0.1209
  723MOL0     C95343  11.727   5.573   7.324 -0.2178  0.1791  0.5828
  723MOL0     C95344  11.753   5.426   7.299  0.5233 -0.1221 -0.5730
  723MOL0     C95345  11.672   5.379   7.183  0.1232  0.2467  0.4467
  723MOL0     C95346  11.651   5.226   7.181  0.5382  0.8954  0.0403
  723MOL0     C95347  11.583   5.179   7.043 -0.1767  0.3524  0.6826
  723MOL0    Cl95348  11.694   5.172   6.914  0.1339 -0.5558  0.7596
  723MOL0     C95349  11.529   6.177   7.296  0.3673  0.1502  0.2541
  723MOL0     C95350  11.404   6.205   7.334  0.5494 -0.9648 -0.2658
  723MOL0     O95351  11.123   6.314   7.300 -0.0754  0.3982  0.9737
  723MOL0     C95352  10.935   6.148   7.558  0.5042  0.1451 -0.4745
  723MOL0     C95353  10.808   6.160   7.633 -0.2599 -0.4875  0.2283
  723MOL0     N95354  10.028   6.331   7.467 -0.0622 -0.5846 -0.4791
  723MOL0     N95355   9.939   6.412   7.506 -0.2065 -1.4182  0.2880
  723MOL0     C95356   9.124   6.903   7.908  0.4504  0.6641 -0.8354
  723MOL0     C95357   9.002   6.871   7.971 -1.2049 -0.4156  0.3560
  723MOL0     C95358   8.532   6.947   8.019  0.0510 -0.0158  0.4005
  723MOL0     C95359   8.513   6.885   8.139 -0.5700 -0.2914  0.6644
  723MOL0     C95360   8.394   6.892   8.202  0.1212  0.6119  0.1839
  723MOL0     C95361   8.278   6.931   8.141 -0.1364 -0.0272  0.1404
  723MOL0     O95362   8.151   6.918   8.192  0.5173  0.1111 -0.3995
  723MOL0     C95363   8.097   6.779   8.168  0.3131 -0.3004 -1.0193
  723MOL0     C95364   8.070   6.714   8.306 -0.1822  0.0606 -0.0159
  723MOL0     C95365   7.968   6.782   8.399 -0.8624 -0.2513  0.5523
  723MOL0     C95366   7.830   6.806   8.335 -0.1506  0.0453 -0.5633
  723MOL0     C95367   7.767   6.684   8.299 -0.0040 -0.2316 -0.1271
  723MOL0     C95368   7.714   6.583   8.260 -0.2098  0.5019 -0.2333
  723MOL0     C95369   8.293   6.998   8.019 -0.1805  0.3042 -0.7462
  723MOL0     C95370   8.416   7.009   7.954 -0.6437  0.2147 -0.5855
  723MOL0     H95371   8.832   7.151   7.912 -2.3786 -2.0370 -0.4370
  723MOL0     H95372   9.023   7.200   7.784 -1.3919  0.3163  0.6410
  723MOL0     H95373   9.216   7.224   7.683 -0.1621 -0.3076  0.8037
  723MOL0     H95374   9.211   7.079   7.564  1.6083 -2.5857  0.6864
  723MOL0     H95375   9.447   7.169   7.712  2.8253 -1.9783 -0.7470
  723MOL0     H95376   9.406   7.216   7.541 -2.8976  1.4897 -0.0224
  723MOL0     H95377   9.408   6.965   7.499  3.2778 -0.7601 -0.9251
  723MOL0     H95378   9.460   6.936   7.669 -4.4553 -0.7601 -0.6491
  723MOL0     H95379   9.608   7.059   7.442  1.4217  3.5520  1.8140
  723MOL0     H95380   9.665   7.077   7.610  1.1388 -0.8383 -1.2185
  723MOL0     H95381   9.610   6.814   7.482 -0.8052  0.8048 -0.6986
  723MOL0     H95382   9.698   6.833   7.634  2.9460  1.6170 -0.8004
  723MOL0     H95383   9.898   6.931   7.529  2.9909 -2.6494 -2.2989
  723MOL0     H95384   9.801   6.955   7.382 -2.0767  0.2524  0.8772
  723MOL0     H95385   9.784   6.718   7.345 -1.4651  3.9669 -1.2876
  723MOL0     H95386   9.951   6.766   7.353 -1.5770  0.0904 -1.0341
  723MOL0     H95387   9.832   6.631   7.594  1.7431 -1.9258 -0.1203
  723MOL0     H95388   9.978   6.699   7.588 -0.3220  0.1224  0.1467
  723MOL0     H95389  10.130   6.627   7.361 -1.7451  1.7933  3.2729
  723MOL0     H95390  10.310   6.430   7.324  0.8228 -0.2179  0.6674
  723MOL0     H95391  10.209   6.298   7.249 -3.0465 -1.6043  2.6285
  723MOL0     H95392  10.338   6.160   7.366 -2.6412 -3.5717  1.4192
  723MOL0     H95393  10.223   6.184   7.491 -1.2512 -1.2324 -1.2507
  723MOL0     H95394  10.477   6.356   7.454 -1.9663 -0.2745 -1.8994
  723MOL0     H95395  10.358   6.377   7.586 -2.2756  1.3121 -2.4558
  723MOL0     H95396  10.495   6.104   7.541 -2.8420 -0.5832  1.4569
  723MOL0     H95397  10.416   6.160   7.686  2.9828 -1.0250  0.7555
  723MOL0     H95398  10.669   6.414   7.481 -0.6533 -0.1424  0.5995
  723MOL0     H95399  10.870   6.373   7.316 -0.3218 -0.2203  0.5460
  723MOL0     H95400  11.238   5.915   7.290  1.9048 -1.9278  0.0026
  723MOL0     H95401  11.456   5.863   7.202 -0.9662 -1.2131  1.9093
  723MOL0     H95402  11.833   5.945   7.121  1.0056  0.8160  0.9902
  723MOL0     H95403  11.672   5.893   7.069  0.3850 -1.1670  0.5905
  723MOL0     H95404  11.658   5.821   7.339  1.1424  3.0591  0.1165
  723MOL0     H95405  11.826   5.822   7.318  0.1340  3.2052 -0.6263
  723MOL0     H95406  11.798   5.656   7.126 -3.7028  0.0326 -3.7752
  723MOL0     H95407  11.622   5.665   7.148 -1.0926 -1.5142  0.7034
  723MOL0     H95408  11.801   5.612   7.395  2.2582 -0.5302 -1.4471
  723MOL0     H95409  11.634   5.570   7.382 -1.6742  0.5256 -1.6219
  723MOL0     H95410  11.758   5.369   7.391  3.5108 -2.5654 -2.0952
  723MOL0     H95411  11.860   5.414   7.280  0.4089 -0.6868 -0.8897
  723MOL0     H95412  11.707   5.421   7.088 -2.7880  2.3653  0.1772
  723MOL0     H95413  11.577   5.426   7.209  0.8419  1.2984  1.2725
  723MOL0     H95414  11.749   5.179   7.197  0.2486  0.6577  1.1912
  723MOL0     H95415  11.581   5.208   7.263 -0.8415 -0.8211 -1.4238
  723MOL0     H95416  11.500   5.241   7.009  0.0535  0.0199 -0.5300
  723MOL0     H95417  11.552   5.075   7.058  2.4814 -0.6954 -0.4704
  723MOL0     H95418  11.612   6.246   7.310 -1.3524  2.1848  0.9994
  723MOL0     H95419  11.399   6.308   7.367 -0.2183 -0.7321 -1.0843
  723MOL0     H95420  11.006   6.071   7.585 -2.2120 -1.5312  2.6078
  723MOL0     H95421  10.774   6.093   7.711 -1.4405 -0.6181 -0.3784
  723MOL0     H95422   9.199   6.824   7.903 -2.3608 -2.1355 -1.5250
  723MOL0     H95423   8.992   6.779   8.027  0.7842  1.5202  4.2325
  723MOL0     H95424   8.594   6.834   8.190  3.1230  2.5615 -1.7517
  723MOL0     H95425   8.372   6.851   8.300 -0.0730  0.1462 -0.0525
  723MOL0     H95426   8.160   6.707   8.114  0.3877 -0.8788 -0.1800
  723MOL0     H95427   7.998   6.786   8.122 -0.9452  0.9132  1.6842
  723MOL0     H95428   8.040   6.614   8.273  2.7254 -0.9582  0.1291
  723MOL0     H95429   8.162   6.701   8.363 -0.9132 -1.8058  0.8468
  723MOL0     H95430   7.990   6.880   8.441 -2.2407  0.4557 -0.3324
  723MOL0     H95431   7.965   6.715   8.486  1.2784  2.3690  2.8475
  723MOL0     H95432   7.771   6.858   8.410 -2.4358 -2.3414 -0.5856
  723MOL0     H95433   7.837   6.866   8.243 -1.7538  1.9956  0.5115
  723MOL0     H95434   7.659   6.494   8.235  3.7121 -1.8506 -1.3185
  723MOL0     H95435   8.205   7.053   7.987  1.1287  2.7546 -0.3752
  723MOL0     H95436   8.422   7.066   7.862 -0.2793  1.8309  0.3998
  724MOL0     O95437   4.244  10.071   3.436 -0.3268 -0.2110  0.2722
  724MOL0     C95438   4.200  10.189   3.450 -0.5424  0.2334 -0.0294
  724MOL0     O95439   4.069  10.219   3.470  0.1285 -0.7009 -1.0649
  724MOL0     C95440   3.982  10.113   3.493 -0.4583 -0.5976 -0.4633
  724MOL0     C95441   3.895  10.056   3.399 -0.4457 -0.0738  0.3926
  724MOL0     C95442   3.799   9.956   3.427  0.6165 -0.8698  0.9628
  724MOL0     C95443   3.802   9.903   3.557  0.1215 -0.4153 -0.1862
  724MOL0     O95444   3.692   9.824   3.589  0.3893  0.4328 -0.2207
  724MOL0     C95445   3.681   9.762   3.719 -0.7047 -0.7089 -0.8502
  724MOL0     C95446   3.577   9.646   3.722 -1.0507  0.1581  0.5838
  724MOL0     C95447   3.435   9.684   3.678 -0.7069 -0.1233  0.8101
  724MOL0     C95448   3.359   9.757   3.782  0.1549  1.3022  1.0839
  724MOL0     C95449   3.211   9.742   3.754  0.4321 -0.6001  0.3259
  724MOL0     C95450   3.183   9.861   3.652  0.3321  0.2518 -0.8277
  724MOL0     C95451   3.031   9.881   3.639  0.4251 -0.8014 -0.1853
  724MOL0     C95452   2.968   9.953   3.756  0.6044 -0.3876  0.3631
  724MOL0     N95453   2.826   9.924   3.765  0.2948 -0.7986 -0.1386
  724MOL0     C95454   2.735  10.000   3.700  0.6060 -0.3714  0.5806
  724MOL0     C95455   2.624   9.944   3.743  0.8105  0.2337 -0.6376
  724MOL0     C95456   2.492  10.009   3.701 -0.2862 -0.8719  0.4811
  724MOL0     C95457   2.406  10.077   3.803  0.1045 -0.2264 -0.1919
  724MOL0     C95458   2.292  10.139   3.719 -0.0007  0.3134 -0.6813
  724MOL0     C95459   2.162  10.160   3.798  1.3252  0.3190  0.3976
  724MOL0     O95460   2.168  10.284   3.880  0.3960  0.2636  0.1282
  724MOL0     C95461   2.053  10.349   3.908  0.0787  0.4497 -0.8578
  724MOL0     C95462   1.920  10.284   3.909 -0.1872  0.2292 -0.3120
  724MOL0     C95463   1.810  10.373   3.932  1.3080 -0.2708 -0.0125
  724MOL0     C95464   1.841  10.515   3.959  0.4226  0.0212 -0.3790
  724MOL0     C95465   1.729  10.608   3.999 -0.0840  1.1185 -0.1369
  724MOL0     O95466   1.604  10.555   4.007 -1.3560 -0.2351  0.5292
  724MOL0     C95467   1.499  10.639   4.036  0.4918  0.3397  0.0579
  724MOL0     C95468   1.407  10.595   4.128 -1.0947  0.3757 -1.1551
  724MOL0     C95469   1.298  10.669   4.165 -0.5507 -0.0256 -0.2693
  724MOL0     C95470   1.272  10.788   4.096  0.1289 -0.9661  0.1545
  724MOL0     O95471   1.161  10.869   4.134  0.9364 -0.6823  0.0812
  724MOL0     C95472   1.071  10.874   4.028 -0.4058  0.3157  0.2323
  724MOL0     C95473   0.933  10.894   4.088 -0.2373 -0.0572  0.4664
  724MOL0     C95474   0.813  10.865   3.993 -0.2498  1.0331 -0.3376
  724MOL0     C95475   0.812  10.937   3.863  0.5324 -1.0304  0.3576
  724MOL0     C95476   0.775  11.085   3.875 -0.0627  0.0212  0.4156
  724MOL0     C95477   0.625  11.088   3.897 -0.0643 -0.5637  0.0263
  724MOL0     C95478   0.574  11.243   3.925  0.2852  0.4731  0.8063
  724MOL0     C95479   0.639  11.356   3.834 -1.1864  0.9464  0.3649
  724MOL0    Cl95480   0.552  11.502   3.883  0.0211  0.0946 -0.2631
  724MOL0     C95481   1.368  10.834   4.005  0.5029 -0.7448  0.1648
  724MOL0     C95482   1.477  10.759   3.967  0.3615  0.7133  0.5356
  724MOL0     O95483   1.767  10.708   4.053  0.2671  0.4894  1.1119
  724MOL0     C95484   1.968  10.560   3.954  0.4086 -0.2272  0.7977
  724MOL0     C95485   2.082  10.482   3.930  0.2256 -0.5313  0.1638
  724MOL0     N95486   2.641   9.849   3.832  0.6884  0.5198 -0.4951
  724MOL0     N95487   2.769   9.826   3.843 -0.7529  0.4108  0.2369
  724MOL0     C95488   3.889   9.955   3.661 -0.6752 -0.0988  0.2887
  724MOL0     C95489   3.975  10.063   3.627  0.6852 -0.4483 -0.0657
  724MOL0     C95490   4.305  10.297   3.419 -0.1511  0.7274  0.5406
  724MOL0     C95491   4.253  10.425   3.395  0.4843  0.1921  0.2891
  724MOL0     C95492   4.341  10.534   3.366  0.2916  0.8272 -0.0398
  724MOL0     C95493   4.477  10.512   3.347 -0.4633 -0.4498 -0.1199
  724MOL0     O95494   4.567  10.605   3.291  0.6869 -0.5429  0.7770
  724MOL0     C95495   4.518  10.714   3.208  0.3887  0.2845 -0.1974
  724MOL0     C95496   4.623  10.759   3.106 -0.5007  0.0055  0.1361
  724MOL0     C95497   4.750  10.807   3.184 -0.2628  0.0216 -0.6600
  724MOL0     C95498   4.756  10.955   3.215 -0.0439 -1.2686  0.7192
  724MOL0     C95499   4.890  10.970   3.271 -1.1502 -0.5469  0.8882
  724MOL0     C95500   5.003  10.990   3.311  1.1516 -0.1849  0.2389
  724MOL0     C95501   4.529  10.389   3.372 -0.2900  0.5982 -1.0512
  724MOL0     C95502   4.442  10.281   3.413 -0.5643 -0.7452 -0.0286
  724MOL0     H95503   3.905  10.077   3.293 -0.8870 -0.6840  0.2202
  724MOL0     H95504   3.723   9.925   3.355  0.3699  1.1748  0.2766
  724MOL0     H95505   3.652   9.840   3.791 -0.4986 -1.3697 -0.0307
  724MOL0     H95506   3.780   9.726   3.750 -1.0259 -0.3493  0.6846
  724MOL0     H95507   3.580   9.612   3.826  2.8621  2.9791  1.6176
  724MOL0     H95508   3.619   9.569   3.658  1.1164  1.9050 -0.2297
  724MOL0     H95509   3.377   9.595   3.650 -2.2601  0.5974  1.6006
  724MOL0     H95510   3.435   9.744   3.587 -0.5164  1.8473  2.0526
  724MOL0     H95511   3.388   9.717   3.880  3.7960  0.5365 -0.1776
  724MOL0     H95512   3.381   9.863   3.769  0.1076  1.0693 -1.3369
  724MOL0     H95513   3.163   9.768   3.849 -0.3142 -2.5491  0.5333
  724MOL0     H95514   3.177   9.642   3.726 -0.9137  0.4673 -2.2326
  724MOL0     H95515   3.233   9.832   3.559  0.6827 -0.4355 -0.4362
  724MOL0     H95516   3.231   9.953   3.686  0.8370  0.3522 -1.7971
  724MOL0     H95517   3.016   9.936   3.546  0.1830 -0.3120  0.1402
  724MOL0     H95518   2.990   9.779   3.640 -0.2768 -0.5529 -1.5602
  724MOL0     H95519   2.974  10.061   3.740 -1.8137 -0.4052 -1.2206
  724MOL0     H95520   3.017   9.924   3.849 -0.3935 -0.3347  0.9219
  724MOL0     H95521   2.744  10.078   3.625 -0.2095 -0.2461  0.6054
  724MOL0     H95522   2.426   9.933   3.660  0.4750 -1.2252 -0.1355
  724MOL0     H95523   2.519  10.074   3.617 -1.0039 -0.6513  0.4164
  724MOL0     H95524   2.468  10.154   3.849  0.5809 -0.8394  0.2049
  724MOL0     H95525   2.376  10.005   3.879 -2.1358  0.5984 -0.2063
  724MOL0     H95526   2.319  10.239   3.682 -0.9764  1.7086  2.1337
  724MOL0     H95527   2.254  10.086   3.631 -1.9346  0.9145 -0.2539
  724MOL0     H95528   2.144  10.086   3.878  0.5423  1.9736  1.8256
  724MOL0     H95529   2.076  10.156   3.730  2.1532 -5.3706 -0.8565
  724MOL0     H95530   1.898  10.179   3.890 -2.1677 -0.1013  2.9815
  724MOL0     H95531   1.707  10.338   3.921  1.2377  0.4635 -2.1378
  724MOL0     H95532   1.429  10.495   4.164  0.3755  0.1046 -2.6638
  724MOL0     H95533   1.232  10.631   4.243  1.4560  0.4242  1.7556
  724MOL0     H95534   1.071  10.786   3.962 -1.0336 -0.0982  0.7677
  724MOL0     H95535   1.091  10.962   3.967  0.9769 -0.0294  0.1603
  724MOL0     H95536   0.934  11.000   4.116 -0.1369  0.7088 -2.1040
  724MOL0     H95537   0.919  10.845   4.184 -0.9599 -0.4617  0.1575
  724MOL0     H95538   0.726  10.868   4.060  0.7319 -1.1054  1.1647
  724MOL0     H95539   0.836  10.762   3.961 -3.5293  0.8534 -2.5806
  724MOL0     H95540   0.906  10.928   3.808  0.7920  0.2579  0.5470
  724MOL0     H95541   0.727  10.890   3.814  1.0080 -4.3463  2.3905
  724MOL0     H95542   0.793  11.129   3.776  0.4049 -0.9765  0.0363
  724MOL0     H95543   0.827  11.134   3.957 -0.9507 -0.9712  1.6071
  724MOL0     H95544   0.599  11.027   3.984  2.6399 -0.2006  1.2245
  724MOL0     H95545   0.567  11.040   3.818  0.5543 -0.7412 -0.3265
  724MOL0     H95546   0.466  11.245   3.906  0.2959 -0.8327  0.5143
  724MOL0     H95547   0.601  11.272   4.027  3.0806 -3.9029  1.6112
  724MOL0     H95548   0.642  11.324   3.730 -0.5888  3.5302 -0.4752
  724MOL0     H95549   0.747  11.369   3.849 -0.9246 -1.2930  0.7755
  724MOL0     H95550   1.357  10.930   3.954 -0.3305 -0.9480 -0.0667
  724MOL0     H95551   1.556  10.787   3.898  0.5003 -2.1119 -0.5833
  724MOL0     H95552   1.985  10.665   3.974 -0.6928 -0.1798  1.5300
  724MOL0     H95553   2.181  10.525   3.914 -0.2892  1.7541  2.4176
  724MOL0     H95554   3.885   9.917   3.762 -0.7531  0.0902  0.3560
  724MOL0     H95555   4.038  10.098   3.709 -0.7051  0.5457  0.6099
  724MOL0     H95556   4.148  10.449   3.407  0.6845  1.4007 -0.1869
  724MOL0     H95557   4.301  10.633   3.349 -2.8130  0.4496  3.6759
  724MOL0     H95558   4.486  10.798   3.270 -0.1235 -0.5384  0.6701
  724MOL0     H95559   4.428  10.687   3.152  1.4741  0.0459 -1.8955
  724MOL0     H95560   4.653  10.667   3.055  1.0441 -2.2116  4.4888
  724MOL0     H95561   4.582  10.833   3.037 -0.9425  0.4874  0.9051
  724MOL0     H95562   4.842  10.784   3.130  0.7754  1.3512  0.4852
  724MOL0     H95563   4.752  10.753   3.279  2.7425 -0.9300 -1.1784
  724MOL0     H95564   4.756  11.008   3.119  0.6972 -1.9155  0.3457
  724MOL0     H95565   4.690  10.997   3.292  0.3248  1.3142 -0.2824
  724MOL0     H95566   5.105  11.019   3.325  2.0789 -2.3439 -1.4251
  724MOL0     H95567   4.633  10.373   3.345  0.9945  0.2403  3.2803
  724MOL0     H95568   4.476  10.184   3.447  2.1708  0.7696  1.9897
  725MOL0     O95569   1.528  11.393   7.725 -0.7145  0.6113 -0.2771
  725MOL0     C95570   1.521  11.515   7.742 -0.1652  0.0182  0.9031
  725MOL0     O95571   1.448  11.581   7.829  0.0955  0.0636 -0.3820
  725MOL0     C95572   1.372  11.508   7.919 -0.2765  0.1191 -0.1900
  725MOL0     C95573   1.419  11.483   8.043 -0.2766  0.6630 -0.0462
  725MOL0     C95574   1.344  11.414   8.136  0.1370  0.2503 -0.1901
  725MOL0     C95575   1.216  11.368   8.109  0.4619  0.1539 -0.1514
  725MOL0     O95576   1.138  11.295   8.201  0.3565 -0.5780  0.5357
  725MOL0     C95577   1.186  11.250   8.329  0.5699 -0.7625  0.8373
  725MOL0     C95578   1.062  11.211   8.422 -0.7741  1.1004 -0.1846
  725MOL0     C95579   0.935  11.162   8.346 -0.0547  0.1203 -0.5062
  725MOL0     C95580   0.806  11.184   8.426 -0.1057 -0.5535 -0.5328
  725MOL0     C95581   0.819  11.120   8.567 -0.1312  0.0141  0.1594
  725MOL0     C95582   0.677  11.092   8.629 -0.7689  0.8110  0.4181
  725MOL0     C95583   0.676  11.096   8.778  0.0171  0.2861 -0.1466
  725MOL0     C95584   0.553  11.028   8.837 -1.0279  0.1418  0.0344
  725MOL0     N95585   0.545  11.045   8.985 -0.1410  0.1411  1.0994
  725MOL0     C95586   0.617  11.130   9.067  0.4586 -0.2899 -0.3015
  725MOL0     C95587   0.576  11.092   9.193 -1.0932 -0.6003  0.3879
  725MOL0     C95588   0.636  11.138   9.319  0.7359 -1.2737 -0.9041
  725MOL0     C95589   0.749  11.045   9.359  0.0644  0.9136  0.2878
  725MOL0     C95590   0.811  11.080   9.499 -0.0636  0.3600  0.8403
  725MOL0     C95591   0.810  11.227   9.537 -0.2729 -0.5389 -0.7709
  725MOL0     O95592   0.855  11.234   9.668  0.5281  0.4533 -0.1843
  725MOL0     C95593   0.891  11.357   9.712 -0.3127 -0.8981  0.1866
  725MOL0     C95594   1.022  11.403   9.668  0.2904 -0.6244  0.7807
  725MOL0     C95595   1.068  11.525   9.725  0.0232  0.6976 -0.8280
  725MOL0     C95596   0.989  11.609   9.803  0.4544 -0.4638 -0.1071
  725MOL0     C95597   1.036  11.733   9.872 -0.5033  0.1155  0.2661
  725MOL0     O95598   0.976  11.781   9.986 -0.0650  1.2252  0.6806
  725MOL0     C95599   1.019  11.887  10.065  0.1226  0.7795  0.2204
  725MOL0     C95600   0.927  11.958  10.144 -0.4057  0.8223  0.5618
  725MOL0     C95601   0.963  12.053  10.241 -0.6875 -0.5863  1.1632
  725MOL0     C95602   1.097  12.095  10.238 -0.4514 -0.8836  0.1040
  725MOL0     O95603   1.131  12.177  10.343 -0.1956  0.1745  0.4866
  725MOL0     C95604   1.177  12.302  10.297  0.0536  0.1966  0.2300
  725MOL0     C95605   1.207  12.398  10.410  0.0890  0.1146  1.0708
  725MOL0     C95606   1.089  12.476  10.475 -0.4466  0.9228  0.1424
  725MOL0     C95607   0.970  12.397  10.530 -0.6597 -0.8287 -0.0925
  725MOL0     C95608   1.000  12.316  10.659 -0.6708 -0.7829  0.2494
  725MOL0     C95609   1.073  12.379  10.786  0.0329 -0.5586  0.8390
  725MOL0     C95610   0.990  12.485  10.852 -0.8217  0.2611  0.5094
  725MOL0     C95611   1.091  12.542  10.945 -0.5528 -0.7042 -0.6213
  725MOL0    Cl95612   1.141  12.426  11.082 -0.1241 -0.4293  0.2048
  725MOL0     C95613   1.188  12.042  10.147 -0.1236  0.5221  1.2544
  725MOL0     C95614   1.153  11.933  10.067 -0.3648 -0.4191  0.6884
  725MOL0     O95615   1.138  11.780   9.822 -0.1861  0.6135  1.0126
  725MOL0     C95616   0.848  11.569   9.816 -0.1360  0.5475  0.4033
  725MOL0     C95617   0.809  11.446   9.770  0.4230 -0.0962  0.6734
  725MOL0     N95618   0.481  10.990   9.183 -0.0195 -0.4789 -1.3721
  725MOL0     N95619   0.463  10.961   9.061 -1.3486  0.0615 -0.1830
  725MOL0     C95620   1.163  11.395   7.984 -0.1180  0.2514  0.0212
  725MOL0     C95621   1.243  11.462   7.892  0.4334  0.4528 -0.2993
  725MOL0     C95622   1.609  11.584   7.644  0.3172 -0.3200 -0.5492
  725MOL0     C95623   1.708  11.515   7.565  1.2468 -0.2747  0.4556
  725MOL0     C95624   1.791  11.584   7.475  0.9838  0.6618  0.2892
  725MOL0     C95625   1.786  11.719   7.460  0.5614 -0.4022 -0.3632
  725MOL0     O95626   1.866  11.795   7.376 -0.4473  0.6837 -0.0975
  725MOL0     C95627   1.970  11.731   7.298  0.3041  1.2677  0.4126
  725MOL0     C95628   2.082  11.824   7.246 -0.7765  0.5225 -0.3162
  725MOL0     C95629   2.178  11.752   7.152 -0.2744  0.2103  0.1057
  725MOL0     C95630   2.281  11.855   7.097 -0.8158  0.7236  0.5061
  725MOL0     C95631   2.355  11.930   7.201 -0.3999  0.5609 -0.9400
  725MOL0     C95632   2.436  11.989   7.272  0.6276  0.3721  0.9374
  725MOL0     C95633   1.693  11.792   7.537 -0.4991 -0.1236 -1.3739
  725MOL0     C95634   1.613  11.726   7.635  0.5800 -0.8671 -0.4306
  725MOL0     H95635   1.509  11.537   8.071 -0.1344 -0.2734  1.4442
  725MOL0     H95636   1.390  11.401   8.233  1.4078  2.5244 -0.4413
  725MOL0     H95637   1.249  11.331   8.367  1.2759 -0.3404 -1.1296
  725MOL0     H95638   1.253  11.165   8.311  0.8331  0.0818 -2.9031
  725MOL0     H95639   1.034  11.303   8.474 -0.9579  0.3973  0.9935
  725MOL0     H95640   1.098  11.138   8.495 -0.9596 -1.4716 -2.4928
  725MOL0     H95641   0.951  11.055   8.333 -0.7461 -0.4060  2.3955
  725MOL0     H95642   0.931  11.218   8.252 -0.0073  0.2514 -0.4302
  725MOL0     H95643   0.787  11.291   8.421 -0.4464 -0.6627 -4.1596
  725MOL0     H95644   0.713  11.142   8.388 -0.6534 -0.7140  0.9168
  725MOL0     H95645   0.879  11.203   8.607 -0.5373  1.3988 -1.9892
  725MOL0     H95646   0.872  11.026   8.547  0.8498  1.1077 -2.9548
  725MOL0     H95647   0.631  11.004   8.583  2.3284 -0.1272 -1.2353
  725MOL0     H95648   0.626  11.180   8.589  0.7642  0.7395 -1.8840
  725MOL0     H95649   0.770  11.046   8.806 -0.5832  0.1909  1.8266
  725MOL0     H95650   0.688  11.197   8.817  0.9552 -0.0662  0.5200
  725MOL0     H95651   0.555  10.921   8.811 -1.1166  0.4092 -1.1271
  725MOL0     H95652   0.475  11.084   8.786 -1.2281  0.4829  0.7095
  725MOL0     H95653   0.692  11.205   9.044  1.6964 -0.0228  3.8053
  725MOL0     H95654   0.558  11.139   9.396  0.8205  0.1716 -0.8084
  725MOL0     H95655   0.673  11.239   9.303  2.5878 -2.0474 -1.7380
  725MOL0     H95656   0.819  11.060   9.277 -0.0392  4.4132  0.6833
  725MOL0     H95657   0.712  10.942   9.357 -1.0863  1.2799 -3.0629
  725MOL0     H95658   0.739  11.029   9.564  0.1792  0.3273  1.0859
  725MOL0     H95659   0.915  11.047   9.512  0.3301  1.8120  1.5483
  725MOL0     H95660   0.706  11.259   9.533  0.2850  1.4801 -0.2349
  725MOL0     H95661   0.859  11.299   9.469  1.6241 -0.7163  0.3401
  725MOL0     H95662   1.080  11.342   9.601 -0.9523  0.1458 -1.0799
  725MOL0     H95663   1.173  11.546   9.705 -0.1549 -0.5546 -3.4842
  725MOL0     H95664   0.825  11.930  10.120 -0.4339  2.1826 -1.1157
  725MOL0     H95665   0.886  12.100  10.301  1.4083  1.2568  2.5412
  725MOL0     H95666   1.095  12.346  10.239 -0.5297 -1.0944  0.0472
  725MOL0     H95667   1.262  12.294  10.230  0.5035 -4.9161  1.0568
  725MOL0     H95668   1.278  12.467  10.363  0.9055 -2.3220 -1.5544
  725MOL0     H95669   1.258  12.355  10.497  0.5542  1.4991  1.5127
  725MOL0     H95670   1.050  12.539  10.394 -1.7900  2.0179  1.5964
  725MOL0     H95671   1.116  12.545  10.555  1.6508 -1.1530  1.3519
  725MOL0     H95672   0.890  12.470  10.549 -0.1842 -0.9513  2.9582
  725MOL0     H95673   0.933  12.328  10.453  1.2437 -2.2011  0.1667
  725MOL0     H95674   1.061  12.234  10.619  0.8030  1.1989 -1.9249
  725MOL0     H95675   0.899  12.280  10.680 -2.2516  2.1854 -1.6523
  725MOL0     H95676   1.164  12.418  10.741 -0.3172 -2.3089 -1.5761
  725MOL0     H95677   1.103  12.307  10.863 -1.0409 -0.9051  0.9484
  725MOL0     H95678   0.938  12.541  10.774  0.4040 -0.6233 -0.9883
  725MOL0     H95679   0.917  12.423  10.906 -0.7115 -1.3630 -1.0989
  725MOL0     H95680   1.057  12.636  10.991 -0.7093 -2.0618  2.2478
  725MOL0     H95681   1.173  12.575  10.882  0.7552 -1.8972  0.4009
  725MOL0     H95682   1.290  12.080  10.145 -0.0962  0.4215  0.2867
  725MOL0     H95683   1.231  11.887  10.007 -0.3997 -2.7388  2.2888
  725MOL0     H95684   0.795  11.638   9.882  2.9240  0.4767  3.2049
  725MOL0     H95685   0.707  11.427   9.802 -0.5180  1.6721 -1.0650
  725MOL0     H95686   1.064  11.361   7.953  0.0797 -0.1276 -0.2011
  725MOL0     H95687   1.208  11.487   7.793  1.7635  1.7229 -0.4801
  725MOL0     H95688   1.708  11.407   7.551 -1.5040 -0.1007 -1.9576
  725MOL0     H95689   1.856  11.535   7.403 -1.6149  0.4203 -2.0707
  725MOL0     H95690   1.935  11.673   7.212  0.4812  1.1781  0.3996
  725MOL0     H95691   2.027  11.661   7.360  2.3093  2.4888  0.0428
  725MOL0     H95692   2.042  11.907   7.188  2.7241  2.8637  0.2893
  725MOL0     H95693   2.126  11.874   7.333 -3.0533  4.0094 -0.9653
  725MOL0     H95694   2.137  11.696   7.067  2.1309 -1.5738  0.0135
  725MOL0     H95695   2.232  11.676   7.210 -1.1906 -1.6068 -1.3023
  725MOL0     H95696   2.351  11.802   7.032 -0.9522 -0.0317  0.9657
  725MOL0     H95697   2.227  11.930   7.039 -0.2863  0.1236 -0.8097
  725MOL0     H95698   2.516  12.027   7.332  0.1961 -1.6847  2.9392
  725MOL0     H95699   1.712  11.899   7.546 -1.7933  0.0682 -0.6216
  725MOL0     H95700   1.543  11.778   7.700  1.0249 -0.1155 -0.5401
  726MOL0     O95701   2.008   7.156   9.562  0.1667  0.0744 -0.3209
  726MOL0     C95702   2.039   7.178   9.441  0.0488  1.2039  0.3238
  726MOL0     O95703   2.110   7.280   9.395  0.1760 -0.9301  0.6355
  726MOL0     C95704   2.125   7.385   9.479  0.1665 -0.5129 -0.1557
  726MOL0     C95705   2.232   7.390   9.576  1.2288 -0.3830  0.0495
  726MOL0     C95706   2.222   7.482   9.685 -0.0226 -1.1135  0.5179
  726MOL0     C95707   2.124   7.587   9.685 -0.6068  0.4041  0.6524
  726MOL0     O95708   2.116   7.695   9.761  0.3567 -0.5646  0.0548
  726MOL0     C95709   2.226   7.732   9.849 -0.7131  0.3107 -0.2397
  726MOL0     C95710   2.221   7.887   9.852  0.7855  0.1463  0.1162
  726MOL0     C95711   2.243   7.951   9.709  0.4196  0.0333 -0.2114
  726MOL0     C95712   2.198   8.103   9.720  1.3868 -0.1376 -0.9042
  726MOL0     C95713   2.235   8.180   9.603  0.5447  0.7080  0.0536
  726MOL0     C95714   2.123   8.151   9.497  0.7256  0.8005 -0.3015
  726MOL0     C95715   2.129   8.226   9.353  0.3115  0.0177  0.1468
  726MOL0     C95716   2.262   8.216   9.261  0.7806 -0.5873 -0.7535
  726MOL0     N95717   2.303   8.078   9.262  0.3911 -1.1826 -0.3507
  726MOL0     C95718   2.216   7.973   9.225  0.0462 -0.5816 -0.5620
  726MOL0     C95719   2.296   7.863   9.243  0.1971  0.2867 -0.5032
  726MOL0     C95720   2.264   7.723   9.197 -0.3844  0.1078 -0.6470
  726MOL0     C95721   2.214   7.704   9.049 -0.3852 -1.3201  0.6004
  726MOL0     C95722   2.235   7.561   9.008  0.5422  1.1481 -1.9917
  726MOL0     C95723   2.156   7.468   9.091 -0.2412  0.2452 -0.8449
  726MOL0     O95724   2.019   7.500   9.090 -0.0391 -0.3970 -0.4710
  726MOL0     C95725   1.950   7.466   8.976 -0.6012  0.5702  0.4400
  726MOL0     C95726   1.860   7.363   8.999 -1.2047 -0.7022  0.0214
  726MOL0     C95727   1.782   7.328   8.892 -0.1781  0.3866  0.7103
  726MOL0     C95728   1.782   7.386   8.765 -0.5568  0.0377 -0.3030
  726MOL0     C95729   1.703   7.325   8.654 -0.6911 -0.2083 -0.6389
  726MOL0     O95730   1.709   7.401   8.543  0.1520 -0.0156  0.6197
  726MOL0     C95731   1.646   7.347   8.430 -0.3369  0.8119 -0.7432
  726MOL0     C95732   1.524   7.388   8.381 -0.4281 -0.3988  0.6892
  726MOL0     C95733   1.461   7.337   8.265  0.7316  0.0588 -0.2525
  726MOL0     C95734   1.540   7.254   8.198 -0.1565  0.0179 -0.2688
  726MOL0     O95735   1.499   7.207   8.081 -0.6307  0.9817 -0.1712
  726MOL0     C95736   1.359   7.163   8.061 -0.3040  0.6086  0.2195
  726MOL0     C95737   1.338   7.050   7.963 -0.1578  0.6098 -0.1304
  726MOL0     C95738   1.190   7.048   7.928 -0.4055  0.3385  0.6679
  726MOL0     C95739   1.152   6.937   7.835  1.0203  0.4124 -0.1068
  726MOL0     C95740   1.002   6.939   7.783  0.5984 -0.1786  0.1982
  726MOL0     C95741   1.007   6.833   7.664 -0.7524  0.0334 -0.6786
  726MOL0     C95742   0.873   6.850   7.583  0.1403 -0.1359 -0.9522
  726MOL0     C95743   0.741   6.835   7.654  0.6734 -0.3028 -0.0687
  726MOL0    Cl95744   0.627   6.845   7.528  0.2296 -0.6590 -0.1271
  726MOL0     C95745   1.672   7.215   8.239 -0.8973 -0.3609  0.4350
  726MOL0     C95746   1.726   7.261   8.354 -0.1340  0.8202 -0.3326
  726MOL0     O95747   1.669   7.206   8.659 -0.2057 -0.6597  0.7233
  726MOL0     C95748   1.870   7.491   8.744 -0.1632  0.0567  0.1769
  726MOL0     C95749   1.960   7.529   8.846  0.5215  0.0092  0.5340
  726MOL0     N95750   2.418   7.895   9.301 -0.3663 -0.3315 -0.0236
  726MOL0     N95751   2.423   8.025   9.316  0.2176  0.1560  0.8494
  726MOL0     C95752   2.023   7.579   9.590  0.2347 -0.2077  0.8646
  726MOL0     C95753   2.025   7.482   9.483  0.8861 -0.2789  0.9421
  726MOL0     C95754   1.980   7.094   9.334  0.9309  0.0421 -0.6304
  726MOL0     C95755   1.868   7.007   9.364 -0.4599 -0.2433 -1.2179
  726MOL0     C95756   1.815   6.930   9.268 -0.0248  0.1241  1.1861
  726MOL0     C95757   1.856   6.930   9.139  0.4014 -0.4050  0.4722
  726MOL0     O95758   1.798   6.868   9.029 -0.9711 -0.0845  0.3248
  726MOL0     C95759   1.708   6.752   9.051 -0.3172 -1.2590  0.4620
  726MOL0     C95760   1.794   6.630   9.057  0.1185  0.3008 -0.1410
  726MOL0     C95761   1.703   6.502   9.085  0.1855  0.6605 -0.9812
  726MOL0     C95762   1.784   6.368   9.074 -0.3344  0.4178  0.6715
  726MOL0     C95763   1.909   6.362   9.153  0.7692  0.1697 -0.3396
  726MOL0     C95764   2.009   6.349   9.232  0.8652 -0.5507  0.6536
  726MOL0     C95765   1.969   7.017   9.101  0.8077  0.4920 -0.6222
  726MOL0     C95766   2.027   7.099   9.200  0.2727 -0.2691 -1.0920
  726MOL0     H95767   2.302   7.309   9.592  1.6655 -0.0191 -0.0078
  726MOL0     H95768   2.292   7.469   9.767 -0.0164 -3.3021  0.2121
  726MOL0     H95769   2.327   7.689   9.849 -0.5661 -0.2561  5.9374
  726MOL0     H95770   2.191   7.704   9.949 -0.2413  0.9902  0.1209
  726MOL0     H95771   2.305   7.931   9.908  1.1073  2.2441 -1.8442
  726MOL0     H95772   2.126   7.925   9.891  0.9564  3.6518 -2.3748
  726MOL0     H95773   2.174   7.896   9.644  0.7589 -1.2417  0.4782
  726MOL0     H95774   2.347   7.954   9.675  0.8802  2.0459  1.2128
  726MOL0     H95775   2.091   8.106   9.743  1.4290 -2.8152 -0.0280
  726MOL0     H95776   2.255   8.148   9.801 -0.2414 -1.2838  0.9717
  726MOL0     H95777   2.340   8.174   9.570  1.1287  1.4328  1.6582
  726MOL0     H95778   2.217   8.286   9.626 -1.4155  0.8979 -1.9684
  726MOL0     H95779   2.029   8.179   9.544  2.1469  4.1041  0.9011
  726MOL0     H95780   2.119   8.044   9.476  1.9987  0.4871  0.8519
  726MOL0     H95781   2.044   8.182   9.301  0.2770 -0.2133  0.3938
  726MOL0     H95782   2.104   8.332   9.366  0.4748  0.1438 -0.5425
  726MOL0     H95783   2.331   8.282   9.315 -1.3203  0.0175  1.4025
  726MOL0     H95784   2.249   8.252   9.159  1.5196 -1.1728 -1.0686
  726MOL0     H95785   2.120   7.985   9.176 -1.0685  0.4007  1.6859
  726MOL0     H95786   2.206   7.672   9.274  2.3223  1.8726  2.8928
  726MOL0     H95787   2.359   7.668   9.206 -0.3336  0.0481 -1.4662
  726MOL0     H95788   2.277   7.773   8.992  1.3072 -2.4686  0.9956
  726MOL0     H95789   2.110   7.738   9.048 -0.1742 -0.6529  0.5408
  726MOL0     H95790   2.225   7.550   8.900  0.1999  3.7175 -2.2855
  726MOL0     H95791   2.340   7.536   9.029 -0.2728 -1.3926 -0.5271
  726MOL0     H95792   2.200   7.469   9.191  4.1354  1.0793 -2.5672
  726MOL0     H95793   2.172   7.363   9.064 -0.5916 -0.4910  1.5730
  726MOL0     H95794   1.851   7.304   9.090  0.4177 -1.3535 -0.1940
  726MOL0     H95795   1.723   7.240   8.917  2.8800 -2.0443 -0.0010
  726MOL0     H95796   1.482   7.469   8.439 -0.6881 -0.7482  0.9932
  726MOL0     H95797   1.363   7.366   8.227 -1.0022 -1.6512  2.5896
  726MOL0     H95798   1.320   7.255   8.017  2.4442  1.9111  0.2729
  726MOL0     H95799   1.311   7.145   8.158  0.1058  0.6513  0.4333
  726MOL0     H95800   1.368   6.953   8.004 -2.5404  0.4494  1.4043
  726MOL0     H95801   1.392   7.064   7.868  1.7880  2.5536  1.1680
  726MOL0     H95802   1.173   7.141   7.873 -1.1004 -0.7229 -0.9684
  726MOL0     H95803   1.135   7.052   8.022  1.7214  0.8604  1.9764
  726MOL0     H95804   1.215   6.955   7.747  2.2159  0.2965  0.7037
  726MOL0     H95805   1.168   6.840   7.884  0.9908  0.0493 -0.8041
  726MOL0     H95806   0.978   7.042   7.757 -3.1685 -1.4448 -2.1218
  726MOL0     H95807   0.933   6.912   7.864  0.3336  0.8780  0.3420
  726MOL0     H95808   1.025   6.732   7.701 -1.0666  0.7215  1.5268
  726MOL0     H95809   1.086   6.855   7.592  0.6630 -1.6333  0.2958
  726MOL0     H95810   0.864   6.948   7.534  1.0526  0.6458  0.3841
  726MOL0     H95811   0.886   6.774   7.505  2.2743 -2.6494  1.6359
  726MOL0     H95812   0.730   6.913   7.730 -2.0808 -2.3933  1.9227
  726MOL0     H95813   0.755   6.741   7.709  1.7426  0.2567  0.6507
  726MOL0     H95814   1.741   7.182   8.162  0.3047  2.1493  0.3464
  726MOL0     H95815   1.827   7.242   8.390 -0.6249  1.7050  1.6304
  726MOL0     H95816   1.863   7.534   8.645 -0.1067  0.5874  0.3968
  726MOL0     H95817   2.020   7.615   8.819  0.6539 -0.4395 -0.6639
  726MOL0     H95818   1.944   7.653   9.586  0.1901 -0.2390  1.1413
  726MOL0     H95819   1.947   7.472   9.408  3.1782 -1.7691 -1.4202
  726MOL0     H95820   1.824   7.007   9.463  1.8527 -3.1207 -0.0626
  726MOL0     H95821   1.733   6.862   9.289  0.0233  0.5816  3.0202
  726MOL0     H95822   1.653   6.741   8.957  3.8983  1.3891 -2.7106
  726MOL0     H95823   1.638   6.774   9.131  1.4025  4.4072  0.8458
  726MOL0     H95824   1.852   6.610   8.967  3.7566 -0.6825  2.1683
  726MOL0     H95825   1.864   6.648   9.139 -0.0473 -0.3868  0.1611
  726MOL0     H95826   1.630   6.483   9.006 -3.7341 -2.3659  2.8613
  726MOL0     H95827   1.647   6.502   9.179 -2.4298 -1.5824 -2.4069
  726MOL0     H95828   1.724   6.279   9.095  1.1526 -1.0071 -0.7785
  726MOL0     H95829   1.802   6.354   8.967  1.7792  5.3490  0.1174
  726MOL0     H95830   2.101   6.345   9.287  0.3659 -2.0371  1.4361
  726MOL0     H95831   2.019   7.026   9.006  0.5466 -0.7727 -0.9000
  726MOL0     H95832   2.108   7.165   9.170 -0.3507  1.3701  0.6333
  727MOL0     O95833   3.830   5.732  10.690 -0.0343  0.1140  0.7760
  727MOL0     C95834   3.877   5.690  10.793  0.9124 -0.8574 -0.2777
  727MOL0     O95835   3.917   5.767  10.902 -0.0083  0.1395  0.0910
  727MOL0     C95836   3.891   5.898  10.922  0.1407  0.3588 -0.0556
  727MOL0     C95837   3.966   5.960  11.019 -0.9130  0.8459  0.9976
  727MOL0     C95838   3.930   6.086  11.078 -0.7258 -0.4958 -0.8296
  727MOL0     C95839   3.827   6.158  11.031  0.5976 -0.1145  0.1277
  727MOL0     O95840   3.809   6.273  11.102  0.3632 -0.3092  0.1989
  727MOL0     C95841   3.690   6.347  11.078 -0.5678 -0.8506 -0.1478
  727MOL0     C95842   3.690   6.468  11.164  0.9922  0.1861  0.6144
  727MOL0     C95843   3.682   6.438  11.311  0.1326  0.7542  0.2958
  727MOL0     C95844   3.692   6.567  11.397 -0.6500  0.2277 -0.3727
  727MOL0     C95845   3.581   6.555  11.502 -0.3283 -0.3574  0.3236
  727MOL0     C95846   3.603   6.621  11.643 -0.4229 -0.5904 -0.3453
  727MOL0     C95847   3.467   6.650  11.707 -0.3388  0.1803  0.2049
  727MOL0     C95848   3.494   6.719  11.837 -0.0813 -0.4856  0.4117
  727MOL0     N95849   3.360   6.762  11.881 -0.2295  0.3646 -0.3634
  727MOL0     C95850   3.303   6.885  11.845 -1.0394  0.6762  0.2502
  727MOL0     C95851   3.171   6.882  11.866 -0.3603  0.7852  0.0358
  727MOL0     C95852   3.076   6.981  11.815 -0.5387 -0.5055 -0.2988
  727MOL0     C95853   2.975   7.027  11.917 -0.2643  0.1527  0.2176
  727MOL0     C95854   2.900   7.140  11.854  0.1581 -0.0194  0.3024
  727MOL0     C95855   2.784   7.167  11.955  0.3788  0.9593  0.5438
  727MOL0     O95856   2.678   7.072  11.922 -0.0041  0.4848  1.4796
  727MOL0     C95857   2.554   7.084  11.982  0.2252 -0.3028 -0.0089
  727MOL0     C95858   2.518   7.173  12.080  0.3641 -0.3084 -0.2939
  727MOL0     C95859   2.384   7.191  12.125 -0.5858 -0.0383  0.0914
  727MOL0     C95860   2.281   7.122  12.059  0.2315  0.0597 -0.9349
  727MOL0     C95861   2.140   7.154  12.084  0.0549  0.2082  0.0387
  727MOL0     O95862   2.112   7.233  12.194 -0.2088  0.0697  0.1607
  727MOL0     C95863   1.989   7.288  12.209 -0.2415  0.3504 -0.8052
  727MOL0     C95864   1.933   7.361  12.113  0.1722 -0.2549  0.1405
  727MOL0     C95865   1.804   7.414  12.123  0.8252 -0.0835 -0.5712
  727MOL0     C95866   1.728   7.400  12.239 -0.6709 -0.1467  0.9754
  727MOL0     O95867   1.602   7.466  12.244  0.3231  0.0333 -0.4517
  727MOL0     C95868   1.509   7.439  12.148 -0.4296  0.0910  0.5638
  727MOL0     C95869   1.430   7.565  12.114 -0.1129 -0.2646 -0.8500
  727MOL0     C95870   1.515   7.695  12.091 -0.9656 -0.5870  0.2335
  727MOL0     C95871   1.434   7.812  12.037 -0.1132  0.2593 -0.4567
  727MOL0     C95872   1.525   7.932  11.993 -0.6144  0.0809  0.0166
  727MOL0     C95873   1.592   7.900  11.864  0.1738 -0.1427 -0.0483
  727MOL0     C95874   1.635   8.026  11.790 -0.4551  0.5466 -0.1362
  727MOL0     C95875   1.704   8.007  11.655  0.1282  0.3287 -0.1750
  727MOL0    Cl95876   1.655   8.132  11.528 -0.0945 -0.4707 -0.1359
  727MOL0     C95877   1.789   7.338  12.342  0.9971 -0.4438 -0.4698
  727MOL0     C95878   1.917   7.278  12.326  0.9284 -0.1263 -0.2538
  727MOL0     O95879   2.055   7.103  12.005 -0.6159  0.7022  0.3419
  727MOL0     C95880   2.317   7.032  11.966  0.6269  0.9501 -0.2763
  727MOL0     C95881   2.452   7.006  11.923  0.1619  0.4156 -0.3743
  727MOL0     N95882   3.146   6.750  11.906  0.2843 -0.0832  0.0241
  727MOL0     N95883   3.250   6.682  11.916 -1.1103 -0.0925  0.1578
  727MOL0     C95884   3.749   6.100  10.923 -0.6852 -0.8891 -0.8469
  727MOL0     C95885   3.772   5.964  10.887  0.1851  0.2708  0.7933
  727MOL0     C95886   3.917   5.548  10.797  0.2969  0.1727  0.1954
  727MOL0     C95887   3.932   5.493  10.930 -0.6930  1.0168  0.0989
  727MOL0     C95888   3.973   5.354  10.935  0.3960 -0.3397 -0.3636
  727MOL0     C95889   4.007   5.273  10.822 -0.1713 -0.4078 -0.4138
  727MOL0     O95890   4.086   5.164  10.844  0.3846  0.0697  0.1807
  727MOL0     C95891   4.181   5.131  10.745  0.0993 -0.6886 -0.3417
  727MOL0     C95892   4.308   5.057  10.799 -0.0092 -0.4899 -0.2543
  727MOL0     C95893   4.380   5.124  10.914 -1.2512 -0.5217  0.6170
  727MOL0     C95894   4.515   5.055  10.947  0.1647 -0.3564  0.3632
  727MOL0     C95895   4.603   5.041  10.830  0.0165  0.4371  0.0206
  727MOL0     C95896   4.666   5.006  10.739 -0.1077  0.4239  0.1321
  727MOL0     C95897   3.985   5.336  10.701  0.9506  0.4020 -0.2784
  727MOL0     C95898   3.926   5.469  10.681 -0.2559  0.3121 -0.2970
  727MOL0     H95899   4.048   5.900  11.057 -1.2696 -0.1075  0.2916
  727MOL0     H95900   3.987   6.125  11.161 -1.1063 -0.0920 -0.7548
  727MOL0     H95901   3.608   6.280  11.107  0.4754 -1.4413  1.5208
  727MOL0     H95902   3.693   6.379  10.973  1.5735 -2.9081 -0.8160
  727MOL0     H95903   3.606   6.533  11.136 -0.2226 -1.8976 -0.9073
  727MOL0     H95904   3.784   6.521  11.150  0.2672  1.8572  1.7199
  727MOL0     H95905   3.771   6.384  11.343 -0.2888  0.5341  1.1322
  727MOL0     H95906   3.587   6.388  11.335  0.6136  1.0640  3.2958
  727MOL0     H95907   3.789   6.577  11.448 -0.8832  1.3014 -0.1167
  727MOL0     H95908   3.689   6.656  11.334  1.0269 -0.4953 -1.5634
  727MOL0     H95909   3.562   6.450  11.525 -0.8430 -0.1321  0.9527
  727MOL0     H95910   3.494   6.604  11.457  1.4182  2.7696  0.0820
  727MOL0     H95911   3.646   6.720  11.626 -0.1175 -0.7253 -0.3554
  727MOL0     H95912   3.676   6.573  11.708  2.8749  0.9792 -2.6283
  727MOL0     H95913   3.397   6.709  11.646 -4.4797 -2.3494  2.0706
  727MOL0     H95914   3.407   6.560  11.720  0.9647 -0.8235 -0.5071
  727MOL0     H95915   3.562   6.802  11.818  1.0424 -1.8505 -1.9418
  727MOL0     H95916   3.532   6.652  11.915 -0.4827 -1.5052 -0.2484
  727MOL0     H95917   3.348   6.974  11.802 -0.1296 -1.6232 -4.0752
  727MOL0     H95918   3.031   6.938  11.725  1.7746 -3.6741 -0.1038
  727MOL0     H95919   3.133   7.063  11.771  3.0986 -3.3029 -1.2594
  727MOL0     H95920   3.024   7.060  12.009  2.4747  4.1200 -2.3202
  727MOL0     H95921   2.914   6.939  11.941 -2.0734  1.5182  0.9258
  727MOL0     H95922   2.962   7.230  11.852 -3.1638  2.4666  0.4758
  727MOL0     H95923   2.864   7.116  11.753  1.7102 -0.1406 -0.2528
  727MOL0     H95924   2.739   7.265  11.935 -1.8302 -0.1457 -0.1488
  727MOL0     H95925   2.809   7.152  12.060 -0.7063  1.3600  0.8752
  727MOL0     H95926   2.597   7.225  12.133 -1.3008  1.4550  0.5772
  727MOL0     H95927   2.364   7.262  12.205 -0.1711  1.0018 -0.7042
  727MOL0     H95928   1.975   7.362  12.013 -2.3536 -1.8035 -1.0596
  727MOL0     H95929   1.770   7.475  12.039 -1.5966  1.8578  1.6587
  727MOL0     H95930   1.445   7.356  12.179  2.8790 -2.5276  0.9624
  727MOL0     H95931   1.551   7.394  12.057 -2.7610 -1.4179  0.1438
  727MOL0     H95932   1.348   7.585  12.184 -0.4575 -1.4917 -0.8712
  727MOL0     H95933   1.383   7.542  12.018  0.6598  1.8330 -1.7888
  727MOL0     H95934   1.583   7.659  12.012  0.7251 -3.0341  2.6351
  727MOL0     H95935   1.581   7.717  12.175 -0.1482  1.2542 -0.8111
  727MOL0     H95936   1.358   7.799  11.959  0.3104 -0.4510 -0.7588
  727MOL0     H95937   1.379   7.848  12.124 -1.5891  0.1057 -1.2882
  727MOL0     H95938   1.602   7.961  12.064  0.5227  2.0777 -1.9159
  727MOL0     H95939   1.460   8.019  11.976 -1.1825 -0.8143 -3.0162
  727MOL0     H95940   1.542   7.829  11.799 -4.6187 -0.5797  3.6074
  727MOL0     H95941   1.684   7.851  11.898 -0.4677 -1.2200  0.1569
  727MOL0     H95942   1.543   8.085  11.793 -2.2005 -1.8839 -1.6740
  727MOL0     H95943   1.706   8.080  11.854 -0.5061 -0.1952  0.5672
  727MOL0     H95944   1.680   7.909  11.614 -2.6121  0.8427  0.0356
  727MOL0     H95945   1.810   8.026  11.675 -0.9366  3.9173  3.2473
  727MOL0     H95946   1.742   7.341  12.439 -0.7056 -0.1936 -1.2644
  727MOL0     H95947   1.954   7.217  12.408 -0.4416  1.5945  1.7390
  727MOL0     H95948   2.236   6.980  11.916  1.1588 -0.0854 -0.0922
  727MOL0     H95949   2.474   6.923  11.856  1.1744 -0.8557  1.4242
  727MOL0     H95950   3.659   6.154  10.894 -3.1797 -2.6679  2.7262
  727MOL0     H95951   3.694   5.911  10.833  0.5484 -0.8366  1.3196
  727MOL0     H95952   3.900   5.543  11.021  1.3225  0.4743  1.1590
  727MOL0     H95953   3.995   5.299  11.026  4.4635  0.6653 -0.5115
  727MOL0     H95954   4.209   5.218  10.684  1.6273  0.5569  1.9935
  727MOL0     H95955   4.134   5.063  10.673  1.3424 -1.9731  0.0072
  727MOL0     H95956   4.280   4.959  10.838  0.6357 -0.1341  1.1814
  727MOL0     H95957   4.380   5.045  10.717  0.5832 -1.6130  0.4087
  727MOL0     H95958   4.301   5.117  10.988 -0.2800 -2.0220  1.5718
  727MOL0     H95959   4.400   5.230  10.895 -0.7035 -1.2921 -4.7768
  727MOL0     H95960   4.562   5.118  11.023  0.4127  3.1798 -2.4468
  727MOL0     H95961   4.484   4.958  10.985 -0.1732 -0.2927  0.2560
  727MOL0     H95962   4.724   4.984  10.652 -0.5003  2.1826 -0.6162
  727MOL0     H95963   4.005   5.267  10.619  2.1377 -4.2497  3.5054
  727MOL0     H95964   3.908   5.520  10.587 -0.0763  1.4395  0.2674
  728MOL0     O95965  10.104   6.697  10.596  0.1891  0.4691  0.1416
  728MOL0     C95966  10.217   6.753  10.596  0.9502 -0.8849 -0.1495
  728MOL0     O95967  10.242   6.887  10.567  0.7789 -0.4270 -1.0756
  728MOL0     C95968  10.130   6.960  10.540  0.4074 -0.6085  0.6390
  728MOL0     C95969  10.089   7.065  10.623 -0.5272  0.6615 -0.2193
  728MOL0     C95970   9.974   7.137  10.606 -0.4648  0.4989 -1.3646
  728MOL0     C95971   9.900   7.121  10.490  0.0263  0.1212  0.4590
  728MOL0     O95972   9.776   7.178  10.466  0.8494 -0.2153 -0.1122
  728MOL0     C95973   9.688   7.208  10.574  0.7858 -0.6207 -0.8988
  728MOL0     C95974   9.609   7.322  10.513  0.0328  0.6728  0.5017
  728MOL0     C95975   9.514   7.267  10.415  0.2370 -0.6708  0.3783
  728MOL0     C95976   9.431   7.386  10.369 -0.2415 -0.7242  1.0162
  728MOL0     C95977   9.286   7.349  10.342 -0.1363 -0.2939 -0.1763
  728MOL0     C95978   9.275   7.240  10.232 -0.3929 -0.5425  0.6878
  728MOL0     C95979   9.131   7.195  10.205 -0.3980  0.4676  0.1912
  728MOL0     C95980   9.057   7.139  10.325 -0.6871 -0.1097  0.2560
  728MOL0     N95981   8.934   7.078  10.274 -0.6200 -0.2306 -0.0654
  728MOL0     C95982   8.815   7.146  10.266  0.2833 -0.0810 -0.5856
  728MOL0     C95983   8.728   7.050  10.223 -0.6229  1.1073 -0.0586
  728MOL0     C95984   8.581   7.080  10.205 -0.9290 -0.0018  0.9738
  728MOL0     C95985   8.519   7.077  10.351  0.6927  0.6264  0.2992
  728MOL0     C95986   8.469   6.940  10.398 -1.3529 -0.6137  0.2744
  728MOL0     C95987   8.363   6.931  10.506  0.1247 -0.4279 -0.3839
  728MOL0     O95988   8.426   6.983  10.630  0.0737 -1.0693 -1.0997
  728MOL0     C95989   8.350   6.969  10.748 -0.6389 -0.8104 -0.2606
  728MOL0     C95990   8.289   6.857  10.800  0.3315  0.5749  0.6109
  728MOL0     C95991   8.230   6.850  10.928 -0.3919  0.2260 -0.0057
  728MOL0     C95992   8.262   6.960  11.013  0.5015  0.3442 -0.1030
  728MOL0     C95993   8.233   6.951  11.158  0.1060 -0.2358  0.4509
  728MOL0     O95994   8.227   7.066  11.230  0.0194  0.4728  0.0793
  728MOL0     C95995   8.156   7.075  11.348 -0.5043  0.8402  0.5194
  728MOL0     C95996   8.016   7.078  11.352  0.9083 -0.1355  0.2453
  728MOL0     C95997   7.948   7.091  11.471 -0.0355 -1.2776 -0.2010
  728MOL0     C95998   8.009   7.094  11.597  0.0994  0.6593  0.6845
  728MOL0     O95999   7.948   7.118  11.720 -0.6629  0.2799 -0.4137
  728MOL0     C96000   7.832   7.193  11.726 -0.0576 -0.1861 -0.6679
  728MOL0     C96001   7.786   7.239  11.870  0.0772 -0.0697 -0.1622
  728MOL0     C96002   7.644   7.295  11.879 -0.2511 -0.2281  0.4103
  728MOL0     C96003   7.548   7.203  11.812  0.2895  1.0480  0.2086
  728MOL0     C96004   7.404   7.227  11.857 -0.2287 -0.4887  0.5766
  728MOL0     C96005   7.304   7.138  11.789 -0.2046 -0.2679 -1.5774
  728MOL0     C96006   7.161   7.152  11.850  0.0369 -0.4492  0.2356
  728MOL0     C96007   7.080   7.285  11.826 -0.1881 -0.5956  0.0822
  728MOL0    Cl96008   7.153   7.410  11.717  0.2082  0.2687 -0.0395
  728MOL0     C96009   8.149   7.087  11.596 -0.5351 -0.1732  0.4667
  728MOL0     C96010   8.221   7.087  11.470 -0.3990  0.5325  0.6405
  728MOL0     O96011   8.209   6.838  11.216 -0.7203  0.3538  0.0116
  728MOL0     C96012   8.316   7.082  10.961  0.3219  1.1772 -0.0930
  728MOL0     C96013   8.344   7.091  10.822  0.3655 -0.2590  0.1596
  728MOL0     N96014   8.786   6.929  10.222  1.1381 -0.6456 -0.5662
  728MOL0     N96015   8.911   6.948  10.250  0.2026 -0.7248  0.6977
  728MOL0     C96016   9.943   7.031  10.397  0.3959  0.2391  0.1148
  728MOL0     C96017  10.057   6.957  10.421 -0.5667  0.8489 -0.6594
  728MOL0     C96018  10.328   6.670  10.614 -0.0480  0.2384  0.0737
  728MOL0     C96019  10.438   6.675  10.520  0.7870  0.0610 -0.4024
  728MOL0     C96020  10.554   6.591  10.532  0.8093  0.3916 -0.6370
  728MOL0     C96021  10.554   6.495  10.633  0.6750  0.1646 -0.4467
  728MOL0     O96022  10.666   6.416  10.659 -0.2686 -0.0852  0.3664
  728MOL0     C96023  10.765   6.403  10.553  0.2656 -0.6328 -0.6004
  728MOL0     C96024  10.718   6.313  10.447  0.0550 -0.0579  0.7497
  728MOL0     C96025  10.823   6.323  10.330 -0.0114 -0.3423  0.6779
  728MOL0     C96026  10.789   6.225  10.221 -0.3650  0.3582  0.8035
  728MOL0     C96027  10.651   6.174  10.203 -0.1335 -0.9575 -0.1239
  728MOL0     C96028  10.545   6.108  10.195 -0.3753 -0.1442 -0.2618
  728MOL0     C96029  10.442   6.490  10.724  0.2753 -0.1355 -0.9922
  728MOL0     C96030  10.328   6.573  10.715 -0.4805  0.3428  0.9625
  728MOL0     H96031  10.140   7.087  10.717 -0.4736  2.0785 -0.5637
  728MOL0     H96032   9.943   7.198  10.691  1.0269 -0.4946 -0.0452
  728MOL0     H96033   9.731   7.251  10.665 -3.5213  2.0782  0.1343
  728MOL0     H96034   9.612   7.132  10.595 -0.1387 -0.0668 -2.1268
  728MOL0     H96035   9.669   7.396  10.460  2.4916 -2.9490 -2.2714
  728MOL0     H96036   9.548   7.359  10.596 -1.6486 -0.5862 -0.0981
  728MOL0     H96037   9.450   7.192  10.462 -1.8510  0.6969 -0.1563
  728MOL0     H96038   9.564   7.211  10.335  1.2998  0.2178  0.4071
  728MOL0     H96039   9.441   7.464  10.446  0.6770  0.1510  0.0404
  728MOL0     H96040   9.475   7.426  10.277  0.9740 -2.1876  0.9216
  728MOL0     H96041   9.231   7.438  10.311  1.8873  0.7290 -1.0531
  728MOL0     H96042   9.238   7.313  10.434 -2.8943 -0.2833 -1.5419
  728MOL0     H96043   9.334   7.150  10.251 -1.8764 -1.3718  1.4837
  728MOL0     H96044   9.306   7.284  10.136 -1.0737  1.3748  1.2904
  728MOL0     H96045   9.083   7.285  10.166  0.9814  1.8158  1.4748
  728MOL0     H96046   9.127   7.109  10.137 -3.2130 -0.8053  1.7506
  728MOL0     H96047   9.035   7.210  10.405 -0.9484 -0.0931  0.1694
  728MOL0     H96048   9.116   7.062  10.376 -1.7868  1.5787  4.5022
  728MOL0     H96049   8.801   7.252  10.284  3.8342  0.8072 -2.1231
  728MOL0     H96050   8.539   7.003  10.140  0.0732  1.9758 -2.2463
  728MOL0     H96051   8.566   7.181  10.167  2.6134  0.5717  0.7623
  728MOL0     H96052   8.430   7.140  10.338  0.0986 -0.5727 -2.1912
  728MOL0     H96053   8.584   7.123  10.425  1.9103 -0.8326  0.1870
  728MOL0     H96054   8.429   6.904  10.303 -2.5601  3.0908 -0.8026
  728MOL0     H96055   8.550   6.884  10.444 -0.2955  1.5383  1.1863
  728MOL0     H96056   8.319   6.833  10.525 -1.3229  0.3560  0.5191
  728MOL0     H96057   8.274   6.989  10.476 -0.3153 -0.1070  1.4188
  728MOL0     H96058   8.284   6.769  10.737 -0.9369  0.6013  0.6445
  728MOL0     H96059   8.200   6.755  10.970  2.1159 -1.8622 -2.5637
  728MOL0     H96060   7.953   7.056  11.266 -0.8296  0.8022  1.2202
  728MOL0     H96061   7.841   7.107  11.476  0.3571  1.4402  1.9625
  728MOL0     H96062   7.763   7.130  11.670  1.2438 -1.3401 -1.0527
  728MOL0     H96063   7.853   7.287  11.674 -2.2316 -0.5167 -2.2511
  728MOL0     H96064   7.857   7.304  11.920 -0.1567 -0.6642  0.9933
  728MOL0     H96065   7.806   7.151  11.933  1.6756  0.4010  0.0227
  728MOL0     H96066   7.636   7.394  11.832  3.9323 -1.0725 -2.6515
  728MOL0     H96067   7.615   7.305  11.984  1.5195  0.9669  0.8223
  728MOL0     H96068   7.568   7.203  11.704  0.3011  2.4142  0.1972
  728MOL0     H96069   7.570   7.102  11.848 -0.8382  1.8756  3.6288
  728MOL0     H96070   7.372   7.330  11.837  0.2630  0.0930  2.5445
  728MOL0     H96071   7.388   7.219  11.965  1.6584  1.8996  1.1206
  728MOL0     H96072   7.330   7.035  11.813  0.0723 -0.1012 -1.1441
  728MOL0     H96073   7.313   7.160  11.682 -3.2805 -1.5253 -2.2131
  728MOL0     H96074   7.100   7.066  11.820  0.7096 -1.4873  1.7340
  728MOL0     H96075   7.171   7.141  11.958  2.1243  1.0821  0.2754
  728MOL0     H96076   7.077   7.347  11.916 -0.7764  2.5701 -1.9698
  728MOL0     H96077   6.977   7.259  11.803 -0.3985  1.5082 -1.7024
  728MOL0     H96078   8.186   7.105  11.697 -2.5307 -2.3099  1.6770
  728MOL0     H96079   8.328   7.094  11.487  0.2068 -1.1644 -1.9258
  728MOL0     H96080   8.327   7.177  11.013 -0.0726  0.8088  0.6643
  728MOL0     H96081   8.357   7.191  10.781  1.0957 -0.1650  0.6051
  728MOL0     H96082   9.881   6.998  10.315  1.4406 -1.1440 -0.1549
  728MOL0     H96083  10.083   6.883  10.345 -1.0507  2.5828 -2.6044
  728MOL0     H96084  10.446   6.754  10.445  1.1745  0.2962 -0.1132
  728MOL0     H96085  10.634   6.605  10.460  2.0016  1.5651  0.8395
  728MOL0     H96086  10.854   6.359  10.597  0.3658 -1.8174 -1.9095
  728MOL0     H96087  10.795   6.497  10.505  2.4022 -0.4059  1.0281
  728MOL0     H96088  10.718   6.211  10.486 -0.9457 -0.4369 -0.1578
  728MOL0     H96089  10.618   6.335  10.408  0.6248  2.1182  0.4020
  728MOL0     H96090  10.913   6.288  10.382 -2.3100 -2.5058  3.4605
  728MOL0     H96091  10.835   6.422  10.284  2.2242 -1.0548 -0.4215
  728MOL0     H96092  10.832   6.261  10.127  1.0547 -1.7472  0.5636
  728MOL0     H96093  10.846   6.134  10.241 -0.6353 -0.5604 -2.1877
  728MOL0     H96094  10.470   6.038  10.165 -1.2042  0.7875 -0.4364
  728MOL0     H96095  10.431   6.418  10.804 -2.2046  0.2627 -0.8693
  728MOL0     H96096  10.250   6.542  10.783 -3.0640 -3.4794 -3.2045
  729MOL0     O96097   2.351   6.831  10.210  0.5241 -0.1708  0.7963
  729MOL0     C96098   2.446   6.804  10.290  0.6570 -0.1084  0.5181
  729MOL0     O96099   2.569   6.769  10.242  0.7385 -0.8469  0.5189
  729MOL0     C96100   2.614   6.765  10.112  0.8661  0.2112  1.1621
  729MOL0     C96101   2.687   6.869  10.056 -1.1582  0.3876  0.2320
  729MOL0     C96102   2.722   6.863   9.920 -0.9927  0.0561 -0.3533
  729MOL0     C96103   2.691   6.744   9.839  0.0764 -0.5965  0.7495
  729MOL0     O96104   2.713   6.759   9.701 -0.4524 -0.4176 -0.9464
  729MOL0     C96105   2.652   6.681   9.591 -0.3439 -0.4674 -0.7748
  729MOL0     C96106   2.716   6.703   9.463 -0.2985  0.1376 -0.7231
  729MOL0     C96107   2.682   6.839   9.402 -0.9365 -0.0294  0.0068
  729MOL0     C96108   2.765   6.876   9.275 -0.1345  0.3318  0.5555
  729MOL0     C96109   2.748   6.762   9.171 -1.0564  0.0213  0.3389
  729MOL0     C96110   2.804   6.788   9.027  0.7294 -0.6215  0.0938
  729MOL0     C96111   2.731   6.907   8.953  0.5338  0.2077  0.6376
  729MOL0     C96112   2.774   6.934   8.808 -0.4699  0.2811  0.6388
  729MOL0     N96113   2.693   6.848   8.710  0.1713 -0.7022  0.0041
  729MOL0     C96114   2.590   6.874   8.630 -0.0675 -1.3027 -0.5636
  729MOL0     C96115   2.556   6.762   8.561  0.4576  0.3940  0.9447
  729MOL0     C96116   2.437   6.740   8.461  0.1817  0.7245 -0.5228
  729MOL0     C96117   2.476   6.657   8.337 -0.7005 -0.5565 -0.1501
  729MOL0     C96118   2.354   6.612   8.262 -0.6356  0.1402  0.3677
  729MOL0     C96119   2.407   6.545   8.133 -0.2547 -0.5515 -0.7738
  729MOL0     O96120   2.312   6.526   8.034  0.4723  0.6433 -0.3668
  729MOL0     C96121   2.343   6.480   7.914 -0.4359 -0.1572  0.4584
  729MOL0     C96122   2.477   6.470   7.870  0.3411  0.8148  0.0969
  729MOL0     C96123   2.507   6.430   7.739 -0.2705 -1.0256  0.0076
  729MOL0     C96124   2.402   6.415   7.648 -0.6792  0.4525 -0.0001
  729MOL0     C96125   2.436   6.377   7.507 -0.0098  1.1347  0.3570
  729MOL0     O96126   2.569   6.351   7.480  0.8167  0.2654 -0.4416
  729MOL0     C96127   2.606   6.328   7.349  0.3101  0.4856  0.2401
  729MOL0     C96128   2.564   6.209   7.278  0.5631 -0.6224  0.3256
  729MOL0     C96129   2.608   6.182   7.151  0.6512  0.5513 -0.2105
  729MOL0     C96130   2.713   6.257   7.094  0.4146  0.4559 -0.1085
  729MOL0     O96131   2.760   6.212   6.969 -0.2256  0.2553 -0.5525
  729MOL0     C96132   2.764   6.301   6.865  0.3999  0.0782  0.4389
  729MOL0     C96133   2.907   6.304   6.803 -0.0516 -0.1055 -0.2370
  729MOL0     C96134   3.001   6.411   6.867  0.2506 -0.3772 -1.0878
  729MOL0     C96135   3.145   6.374   6.872  0.6574  0.7034  0.3804
  729MOL0     C96136   3.179   6.242   6.958  0.6025 -0.0818 -0.1869
  729MOL0     C96137   3.313   6.198   6.910  0.6557  0.3624  1.0513
  729MOL0     C96138   3.341   6.057   6.959 -0.3134 -0.3829 -0.0998
  729MOL0     C96139   3.472   6.000   6.917 -0.1918  0.0204 -0.5124
  729MOL0    Cl96140   3.502   5.843   6.984  0.1786  0.0391 -0.0114
  729MOL0     C96141   2.753   6.373   7.160 -0.2684  0.1027  0.1393
  729MOL0     C96142   2.699   6.406   7.282  0.3850 -0.8636  0.2455
  729MOL0     O96143   2.340   6.372   7.428 -0.3787 -0.1660 -0.0358
  729MOL0     C96144   2.262   6.426   7.686  0.8155  0.1993  0.6038
  729MOL0     C96145   2.239   6.450   7.825  0.7056  0.5322  0.1702
  729MOL0     N96146   2.648   6.670   8.594  0.0166  0.2443 -0.8016
  729MOL0     N96147   2.728   6.725   8.679  0.5047  0.8177  1.0868
  729MOL0     C96148   2.607   6.648   9.899 -0.3293  0.0210  0.6204
  729MOL0     C96149   2.588   6.650  10.033 -0.3361 -0.6430 -0.3383
  729MOL0     C96150   2.427   6.814  10.436  0.5523 -0.3158  0.2094
  729MOL0     C96151   2.531   6.834  10.520  0.5490  0.3481 -0.9193
  729MOL0     C96152   2.512   6.867  10.658  0.1648 -0.2578 -0.7054
  729MOL0     C96153   2.396   6.841  10.724  0.3137  0.2141 -0.2775
  729MOL0     O96154   2.401   6.858  10.862 -0.2870  0.5625  0.1504
  729MOL0     C96155   2.286   6.809  10.950  1.2179 -0.1923  0.1985
  729MOL0     C96156   2.320   6.668  11.007  0.1658 -0.6659 -1.0683
  729MOL0     C96157   2.236   6.630  11.127 -0.8016 -0.8994 -0.4887
  729MOL0     C96158   2.268   6.496  11.194 -0.4968  0.3906  0.3922
  729MOL0     C96159   2.297   6.376  11.121  0.3734 -0.4275  1.1651
  729MOL0     C96160   2.311   6.269  11.067  0.3186 -0.8526 -0.1422
  729MOL0     C96161   2.290   6.801  10.639 -0.3923 -0.3007 -0.7427
  729MOL0     C96162   2.304   6.799  10.498 -0.0877  0.4471  0.9288
  729MOL0     H96163   2.702   6.954  10.122 -3.0940 -1.2762  3.0145
  729MOL0     H96164   2.764   6.949   9.869 -2.1794  1.7029  1.3374
  729MOL0     H96165   2.548   6.716   9.580 -0.0447  0.3764 -0.9993
  729MOL0     H96166   2.648   6.572   9.599 -0.2433 -0.6391 -2.6015
  729MOL0     H96167   2.678   6.623   9.397 -1.5149  2.3446 -2.8708
  729MOL0     H96168   2.822   6.692   9.488 -0.9515  2.0079  3.6444
  729MOL0     H96169   2.700   6.909   9.484 -0.1741  2.0420 -1.8492
  729MOL0     H96170   2.574   6.828   9.384 -1.0717 -0.7558  1.1728
  729MOL0     H96171   2.726   6.967   9.229  2.7249  1.8804  0.9560
  729MOL0     H96172   2.870   6.896   9.297  0.0182  0.6214 -0.3960
  729MOL0     H96173   2.642   6.738   9.160 -1.0049 -0.4662  0.8686
  729MOL0     H96174   2.787   6.673   9.221  0.3601 -0.3846 -1.3657
  729MOL0     H96175   2.797   6.699   8.965  1.0934  0.3856 -1.4405
  729MOL0     H96176   2.909   6.816   9.032  1.3148 -2.8791  2.0328
  729MOL0     H96177   2.623   6.894   8.966  0.5866 -0.8306  0.1734
  729MOL0     H96178   2.745   7.009   8.989  2.4170 -0.8366  3.1278
  729MOL0     H96179   2.881   6.917   8.798  0.0443  1.4899  3.4052
  729MOL0     H96180   2.753   7.034   8.769 -2.1261  0.9975  3.0852
  729MOL0     H96181   2.533   6.966   8.618  2.8336  0.4486 -2.0223
  729MOL0     H96182   2.382   6.829   8.427  1.1031  1.7240  0.5028
  729MOL0     H96183   2.359   6.685   8.514  1.6580 -0.3328  0.6375
  729MOL0     H96184   2.528   6.569   8.378 -2.8727 -2.3479 -1.0443
  729MOL0     H96185   2.545   6.711   8.271 -1.0868  0.7612  0.4953
  729MOL0     H96186   2.283   6.541   8.305 -1.2055  0.9549  0.8026
  729MOL0     H96187   2.304   6.708   8.249 -1.1071  0.2584  2.6083
  729MOL0     H96188   2.458   6.449   8.147 -0.0988 -0.2189  1.3422
  729MOL0     H96189   2.473   6.622   8.091 -2.9693  2.5481  0.2360
  729MOL0     H96190   2.561   6.468   7.939  3.2784 -0.1749 -3.2535
  729MOL0     H96191   2.609   6.421   7.703 -0.0135 -2.0171  0.9327
  729MOL0     H96192   2.499   6.143   7.335 -0.1127 -0.9463 -0.7968
  729MOL0     H96193   2.565   6.093   7.107 -3.1710  2.2028 -0.1353
  729MOL0     H96194   2.732   6.402   6.893  0.1758 -0.7264  3.4701
  729MOL0     H96195   2.704   6.267   6.780  0.1360  1.1767  0.1701
  729MOL0     H96196   2.906   6.317   6.694 -2.8903 -2.0051 -0.5345
  729MOL0     H96197   2.953   6.205   6.812 -0.3973 -0.4796 -2.0886
  729MOL0     H96198   2.977   6.430   6.971  2.6373 -1.4382 -0.2637
  729MOL0     H96199   2.993   6.502   6.806  1.4881  1.1177  0.8710
  729MOL0     H96200   3.166   6.357   6.766 -2.5055 -0.6291 -0.1521
  729MOL0     H96201   3.207   6.456   6.909  0.2998 -0.1146  2.9767
  729MOL0     H96202   3.112   6.161   6.930  0.9877  0.4118 -2.8242
  729MOL0     H96203   3.171   6.253   7.066  3.3778 -2.9978  0.4793
  729MOL0     H96204   3.389   6.269   6.943  1.3152  0.4509 -0.5375
  729MOL0     H96205   3.319   6.202   6.801  1.1255 -0.6432  1.0365
  729MOL0     H96206   3.340   6.052   7.069 -0.6891 -1.1716 -0.1336
  729MOL0     H96207   3.262   5.986   6.935 -0.6181 -0.3069  0.6280
  729MOL0     H96208   3.545   6.066   6.964  2.7294 -2.9062 -0.6041
  729MOL0     H96209   3.491   6.012   6.810  3.1973  2.1289  0.1656
  729MOL0     H96210   2.833   6.433   7.119 -1.6148  1.3822 -0.7216
  729MOL0     H96211   2.724   6.499   7.332 -0.0557  0.3959 -1.7308
  729MOL0     H96212   2.181   6.414   7.615  2.1096  2.5533 -1.4353
  729MOL0     H96213   2.136   6.458   7.857  0.3065  1.1742 -1.2146
  729MOL0     H96214   2.594   6.558   9.840  1.8556  0.0172  0.0385
  729MOL0     H96215   2.539   6.570  10.087  0.8675 -1.5358 -0.5041
  729MOL0     H96216   2.632   6.835  10.480  0.8460  0.0519 -0.1991
  729MOL0     H96217   2.596   6.903  10.717  1.3638  0.8709 -2.9611
  729MOL0     H96218   2.195   6.799  10.890  0.9901 -1.1834  0.6977
  729MOL0     H96219   2.264   6.887  11.024 -2.7726 -1.8167  0.9822
  729MOL0     H96220   2.312   6.586  10.935  1.8773 -2.3087  0.4820
  729MOL0     H96221   2.428   6.674  11.028  0.3116 -0.2045 -1.9135
  729MOL0     H96222   2.132   6.637  11.093 -1.2643 -0.4703  0.9322
  729MOL0     H96223   2.255   6.714  11.195 -2.9695 -1.8805  1.4834
  729MOL0     H96224   2.359   6.500  11.254  0.2785 -0.0307 -0.7214
  729MOL0     H96225   2.184   6.488  11.263 -0.0149  2.6852  1.3363
  729MOL0     H96226   2.320   6.181  11.008 -0.1040 -0.3331 -0.9945
  729MOL0     H96227   2.197   6.768  10.685  0.3761  0.0419  1.1568
  729MOL0     H96228   2.227   6.760  10.432  0.6585  1.3785 -0.5422
  730MOL0     O96229   1.631  10.458   2.905 -0.2212 -0.2326 -0.0823
  730MOL0     C96230   1.610  10.508   3.017 -0.0864 -1.3285 -1.2248
  730MOL0     O96231   1.705  10.507   3.127 -0.4070  0.0247 -0.1334
  730MOL0     C96232   1.820  10.441   3.092  0.0792 -0.3662  0.1429
  730MOL0     C96233   1.916  10.499   3.005 -0.0420  0.2744  0.8467
  730MOL0     C96234   2.033  10.426   2.969 -0.1943  0.3606  0.8948
  730MOL0     C96235   2.060  10.288   3.007  0.6087  0.3541  0.0756
  730MOL0     O96236   2.160  10.215   2.956  0.5041  0.3162 -0.3708
  730MOL0     C96237   2.202  10.093   3.023 -0.7827 -0.7361  0.2250
  730MOL0     C96238   2.306  10.016   2.941 -0.6874 -0.0846 -0.4890
  730MOL0     C96239   2.420  10.105   2.904 -0.1256  0.0268  0.2950
  730MOL0     C96240   2.542  10.027   2.856 -0.2621  0.4255 -0.1945
  730MOL0     C96241   2.649  10.129   2.816 -0.2568 -0.0027 -0.1338
  730MOL0     C96242   2.785  10.062   2.824 -0.1696  1.2471 -0.5277
  730MOL0     C96243   2.903  10.162   2.817  0.6458 -0.0518 -0.2047
  730MOL0     C96244   3.027  10.118   2.887  0.6595  0.4570  0.6972
  730MOL0     N96245   3.085  10.003   2.820 -0.1211  1.2830  0.4925
  730MOL0     C96246   3.143   9.996   2.698 -0.4427 -0.6810  0.3586
  730MOL0     C96247   3.130   9.867   2.650 -0.6783 -0.0386  0.5262
  730MOL0     C96248   3.162   9.827   2.502 -0.5751  1.0141  0.1604
  730MOL0     C96249   3.299   9.758   2.492 -0.7041  0.8487  0.0758
  730MOL0     C96250   3.303   9.622   2.563  0.1549 -1.6348 -0.1953
  730MOL0     C96251   3.381   9.623   2.701 -0.0653 -0.0963  0.9027
  730MOL0     O96252   3.503   9.692   2.695 -0.1275  0.0393 -0.1605
  730MOL0     C96253   3.613   9.611   2.661  0.6721 -0.5253  0.2663
  730MOL0     C96254   3.729   9.674   2.669 -0.2514 -0.8125  0.5472
  730MOL0     C96255   3.849   9.607   2.657  0.7299  0.0936  0.3274
  730MOL0     C96256   3.848   9.468   2.625 -0.2150 -1.0800 -0.0285
  730MOL0     C96257   3.966   9.384   2.621 -0.7765  0.0046  0.3541
  730MOL0     O96258   4.072   9.439   2.687 -0.3564  0.4605  0.1120
  730MOL0     C96259   4.204   9.405   2.666  0.5922 -0.0764 -0.0905
  730MOL0     C96260   4.262   9.331   2.557  0.0886  0.6445 -0.7019
  730MOL0     C96261   4.395   9.305   2.546  0.0997  0.5238  0.1797
  730MOL0     C96262   4.481   9.347   2.650 -0.5086  0.2787  0.5668
  730MOL0     O96263   4.617   9.337   2.637  0.0055  0.3313 -0.4918
  730MOL0     C96264   4.687   9.246   2.549 -0.4659 -0.0882 -1.0115
  730MOL0     C96265   4.850   9.251   2.574 -0.5212 -0.5844  0.2367
  730MOL0     C96266   4.935   9.256   2.441  0.0738 -0.2620  0.3004
  730MOL0     C96267   5.074   9.187   2.434 -0.9973 -0.8663  0.6011
  730MOL0     C96268   5.180   9.261   2.344  0.2398 -0.4195 -0.3025
  730MOL0     C96269   5.126   9.262   2.202 -0.8885 -0.3253  0.5397
  730MOL0     C96270   5.225   9.352   2.121  1.6525  0.1639  0.0468
  730MOL0     C96271   5.212   9.333   1.964 -0.8088  0.4578  0.0618
  730MOL0    Cl96272   5.039   9.346   1.922  0.5460 -0.0111  0.2501
  730MOL0     C96273   4.432   9.435   2.734  0.5752  0.6911 -0.0597
  730MOL0     C96274   4.299   9.454   2.756  0.8313 -0.6237  0.3475
  730MOL0     O96275   3.963   9.272   2.561 -0.9568 -0.0874  0.4338
  730MOL0     C96276   3.724   9.404   2.608 -0.1474 -0.0988 -0.8613
  730MOL0     C96277   3.609   9.479   2.618 -0.1312  0.3916 -0.0449
  730MOL0     N96278   3.090   9.795   2.761 -0.3694  0.7006 -1.1543
  730MOL0     N96279   3.081   9.876   2.866  0.3435 -0.0784 -0.1104
  730MOL0     C96280   1.966  10.235   3.097  0.0123  0.2483 -0.3660
  730MOL0     C96281   1.847  10.312   3.143  0.9410 -0.3397 -0.4459
  730MOL0     C96282   1.475  10.562   3.046 -0.4910 -0.3863  0.2825
  730MOL0     C96283   1.444  10.619   3.167  0.4850  0.1623  0.1438
  730MOL0     C96284   1.314  10.679   3.189 -0.2094  0.6782 -0.9442
  730MOL0     C96285   1.215  10.657   3.103  0.5482 -0.1441 -0.2648
  730MOL0     O96286   1.075  10.680   3.117 -0.9035 -0.7937  0.3214
  730MOL0     C96287   1.024  10.750   3.234  0.7750  0.4484  0.1089
  730MOL0     C96288   0.884  10.792   3.204  0.4559 -0.3516 -0.0343
  730MOL0     C96289   0.812  10.858   3.325 -1.2072  0.3445  0.1873
  730MOL0     C96290   0.665  10.854   3.309 -0.7851  0.6436  0.0531
  730MOL0     C96291   0.606  10.921   3.425  0.5627  1.6009  0.7326
  730MOL0     C96292   0.550  10.942   3.531  0.5581 -0.9894 -0.0981
  730MOL0     C96293   1.247  10.607   2.977 -0.9682  0.6212 -0.0779
  730MOL0     C96294   1.369  10.558   2.950 -0.4254 -0.5046  0.1451
  730MOL0     H96295   1.895  10.600   2.971 -0.6164 -1.0370 -3.2222
  730MOL0     H96296   2.100  10.485   2.908 -1.5327  0.1620 -0.8410
  730MOL0     H96297   2.124  10.018   3.035 -0.4456 -0.7900  2.4586
  730MOL0     H96298   2.236  10.127   3.121 -0.4276 -1.4556  0.3652
  730MOL0     H96299   2.270   9.965   2.852  0.3369  1.6845 -1.9851
  730MOL0     H96300   2.343   9.940   3.010 -1.2976  0.5717  0.5943
  730MOL0     H96301   2.446  10.147   3.001 -0.6962 -0.0290  0.4731
  730MOL0     H96302   2.390  10.187   2.838 -2.9789  0.2732  1.7795
  730MOL0     H96303   2.577   9.953   2.930  0.0251 -1.3099 -1.9837
  730MOL0     H96304   2.507   9.969   2.770 -2.6278 -2.3512  2.3636
  730MOL0     H96305   2.649  10.207   2.892 -0.7091 -0.1094 -0.0203
  730MOL0     H96306   2.627  10.177   2.720 -3.7330  0.6808  0.8776
  730MOL0     H96307   2.803   9.990   2.743  1.6763 -0.2514  1.1295
  730MOL0     H96308   2.798  10.020   2.924 -2.6386 -0.5953 -0.8642
  730MOL0     H96309   2.931  10.200   2.718  0.0012  0.8551 -0.0453
  730MOL0     H96310   2.866  10.256   2.858 -2.6974 -1.2623 -0.1171
  730MOL0     H96311   2.997  10.097   2.990 -1.0939  3.2469  0.8769
  730MOL0     H96312   3.100  10.199   2.878  2.5972 -1.2328  0.6601
  730MOL0     H96313   3.161  10.083   2.636  1.1338  0.2032  1.9682
  730MOL0     H96314   3.165   9.912   2.433  4.7781 -1.5016 -3.4282
  730MOL0     H96315   3.092   9.753   2.462 -1.0958  1.2469  0.6326
  730MOL0     H96316   3.369   9.829   2.538  1.8397 -1.1642 -0.4662
  730MOL0     H96317   3.320   9.738   2.386 -0.7992 -0.2816  0.2587
  730MOL0     H96318   3.209   9.570   2.583 -1.5642  1.5743  0.8780
  730MOL0     H96319   3.355   9.556   2.493 -0.7007 -0.6548 -1.8032
  730MOL0     H96320   3.394   9.517   2.723  3.9953 -0.5518 -2.4365
  730MOL0     H96321   3.325   9.677   2.778  1.7633  1.6861  1.0871
  730MOL0     H96322   3.721   9.780   2.691 -1.6812 -0.6798 -0.4462
  730MOL0     H96323   3.949   9.650   2.659  0.7071  0.1175  1.2522
  730MOL0     H96324   4.202   9.282   2.481  1.4803  1.9108 -2.7073
  730MOL0     H96325   4.452   9.268   2.462  2.2701  2.6084  0.6067
  730MOL0     H96326   4.669   9.276   2.446  1.7861  0.0529 -1.4121
  730MOL0     H96327   4.649   9.147   2.577 -0.7414  0.6209  1.3470
  730MOL0     H96328   4.889   9.182   2.650  2.4917  2.4284  1.7050
  730MOL0     H96329   4.872   9.353   2.606 -0.5268 -0.2582 -0.7672
  730MOL0     H96330   4.949   9.363   2.420 -0.1089 -0.7042 -2.3300
  730MOL0     H96331   4.876   9.229   2.354 -0.0695  0.8956  0.0118
  730MOL0     H96332   5.116   9.186   2.535  2.0736  0.7420 -0.5375
  730MOL0     H96333   5.062   9.082   2.403  1.6597 -0.7168 -1.3468
  730MOL0     H96334   5.276   9.209   2.347  0.5667  0.1749 -0.3353
  730MOL0     H96335   5.191   9.362   2.384 -1.2981 -0.3768  0.0724
  730MOL0     H96336   5.024   9.299   2.194 -1.3971 -1.5281  1.1853
  730MOL0     H96337   5.122   9.157   2.172  0.7559  0.0089 -1.0678
  730MOL0     H96338   5.214   9.456   2.153  0.5397  0.0061  0.2218
  730MOL0     H96339   5.328   9.324   2.145  1.1214 -1.5546  0.5349
  730MOL0     H96340   5.249   9.231   1.946  0.5518  0.7328  1.2080
  730MOL0     H96341   5.278   9.401   1.909 -0.2432 -0.6886 -0.7391
  730MOL0     H96342   4.496   9.476   2.812  0.2502 -2.2962  1.9291
  730MOL0     H96343   4.278   9.523   2.837 -0.0058 -2.7286  2.0190
  730MOL0     H96344   3.719   9.298   2.583 -3.7365  0.2329 -2.1676
  730MOL0     H96345   3.516   9.431   2.588  1.2311  0.0578 -4.4525
  730MOL0     H96346   1.965  10.132   3.132 -0.9947  0.1357 -0.7015
  730MOL0     H96347   1.769  10.278   3.210 -1.1174 -3.2021 -3.9505
  730MOL0     H96348   1.523  10.627   3.241 -0.0154 -2.9732  1.1526
  730MOL0     H96349   1.305  10.736   3.281  2.0290 -0.1437 -0.1355
  730MOL0     H96350   1.085  10.837   3.260  1.3734  0.1393 -0.2393
  730MOL0     H96351   1.016  10.688   3.324  0.1898  1.7175  0.9603
  730MOL0     H96352   0.882  10.859   3.118 -1.1047  0.7383  0.8110
  730MOL0     H96353   0.827  10.702   3.177  0.9044 -1.1360  1.4940
  730MOL0     H96354   0.843  10.961   3.345  0.8341 -0.7330  3.2506
  730MOL0     H96355   0.836  10.793   3.409 -3.9837 -2.6628 -1.1086
  730MOL0     H96356   0.634  10.912   3.221 -3.2861  2.2045  1.8393
  730MOL0     H96357   0.629  10.754   3.285  1.4050 -0.6721  1.8433
  730MOL0     H96358   0.495  10.977   3.616  2.3647 -0.6505  1.0075
  730MOL0     H96359   1.172  10.598   2.899 -0.1153  2.6688 -1.2255
  730MOL0     H96360   1.378  10.509   2.854  0.0144 -1.4186  0.6319
  731MOL0     O96361   4.924  10.347   3.249  0.0094 -0.9066 -0.7173
  731MOL0     C96362   4.984  10.457   3.264  0.3301  0.0695 -0.2866
  731MOL0     O96363   5.021  10.513   3.382  0.2329  0.3050  0.5010
  731MOL0     C96364   4.959  10.471   3.497 -1.7878 -1.0979 -0.8592
  731MOL0     C96365   4.831  10.499   3.525 -0.3558  0.3250 -0.0594
  731MOL0     C96366   4.763  10.454   3.640 -0.3375 -1.0957 -0.0681
  731MOL0     C96367   4.828  10.378   3.732 -0.3416 -0.4479  0.0184
  731MOL0     O96368   4.768  10.322   3.845 -0.0681 -0.0637  0.1900
  731MOL0     C96369   4.691  10.410   3.930  0.2223  0.1924  0.2932
  731MOL0     C96370   4.577  10.323   3.984 -0.1532 -0.6534  0.4725
  731MOL0     C96371   4.461  10.294   3.883 -0.1796 -0.7043 -0.1287
  731MOL0     C96372   4.369  10.406   3.829 -0.7852 -0.3344  1.5172
  731MOL0     C96373   4.274  10.483   3.922  0.2113 -0.2242 -0.0542
  731MOL0     C96374   4.168  10.565   3.843  0.6341  0.4096 -0.4063
  731MOL0     C96375   4.046  10.481   3.829 -0.3833 -0.1650  0.5545
  731MOL0     C96376   3.961  10.541   3.713  0.6208 -0.5811 -0.0317
  731MOL0     N96377   3.824  10.478   3.712  0.8956 -0.2706 -0.3444
  731MOL0     C96378   3.805  10.338   3.701  0.3893  0.8050  1.1384
  731MOL0     C96379   3.670  10.333   3.687  0.3531  1.0684  0.6837
  731MOL0     C96380   3.588  10.209   3.673 -0.3696 -0.2853  0.0726
  731MOL0     C96381   3.488  10.203   3.549  0.6870 -0.2947 -0.1821
  731MOL0     C96382   3.370  10.305   3.561  0.0164 -0.8945 -0.5335
  731MOL0     C96383   3.239  10.258   3.505 -0.2111 -0.0693 -0.4305
  731MOL0     O96384   3.163  10.381   3.468  0.0207  0.2360 -0.5328
  731MOL0     C96385   3.025  10.367   3.466 -0.3068  0.3041  0.7938
  731MOL0     C96386   2.971  10.257   3.402 -0.4888  0.1656 -0.2862
  731MOL0     C96387   2.840  10.232   3.395  1.4896 -0.5223 -0.9431
  731MOL0     C96388   2.746  10.333   3.448 -0.4145 -1.1472 -0.4921
  731MOL0     C96389   2.597  10.322   3.436  0.0869 -0.8604 -0.2207
  731MOL0     O96390   2.526  10.419   3.485  0.1958  0.2580 -0.6077
  731MOL0     C96391   2.387  10.427   3.475 -0.3734 -0.6471  0.6800
  731MOL0     C96392   2.315  10.388   3.358  0.5979  0.3616 -0.7513
  731MOL0     C96393   2.178  10.398   3.357  0.9330  0.1782 -1.1328
  731MOL0     C96394   2.102  10.446   3.466 -0.3472 -0.0370 -0.0585
  731MOL0     O96395   1.970  10.434   3.457 -0.1026 -1.4060  0.0060
  731MOL0     C96396   1.891  10.428   3.574 -0.2229  0.1153 -0.8594
  731MOL0     C96397   1.752  10.445   3.520 -0.0647 -0.0486  0.1444
  731MOL0     C96398   1.642  10.411   3.622 -0.2648  0.1504  0.3703
  731MOL0     C96399   1.509  10.420   3.552 -0.1331 -0.3329  0.5161
  731MOL0     C96400   1.382  10.396   3.647  1.0227  0.1644  0.0004
  731MOL0     C96401   1.363  10.520   3.739  0.4850 -0.0705 -0.0120
  731MOL0     C96402   1.214  10.565   3.751  0.0290 -0.2720 -0.2831
  731MOL0     C96403   1.139  10.590   3.625  0.5484  0.2431 -0.3689
  731MOL0    Cl96404   1.009  10.714   3.647  0.1201  0.2125 -0.2848
  731MOL0     C96405   2.173  10.481   3.578  0.5655  0.8501 -0.4796
  731MOL0     C96406   2.318  10.480   3.574 -0.0678 -1.2139 -1.3321
  731MOL0     O96407   2.559  10.223   3.374  0.3112 -0.0922  0.6487
  731MOL0     C96408   2.806  10.448   3.508  0.1233  0.6052 -0.3518
  731MOL0     C96409   2.937  10.471   3.504  0.3603 -0.3422  1.0405
  731MOL0     N96410   3.607  10.465   3.709  0.7604  0.4716  0.7355
  731MOL0     N96411   3.708  10.546   3.708  0.2061  0.0339 -0.2464
  731MOL0     C96412   4.957  10.347   3.705 -0.9534  0.4826  0.6507
  731MOL0     C96413   5.028  10.384   3.587 -0.7824 -0.2436 -0.1212
  731MOL0     C96414   4.996  10.522   3.132  0.2814 -0.5201 -0.8777
  731MOL0     C96415   5.111  10.609   3.110  0.0769 -1.1572  0.5612
  731MOL0     C96416   5.128  10.673   2.978  0.2213  0.3051 -0.3419
  731MOL0     C96417   5.025  10.668   2.878  0.8014  0.0348  0.1227
  731MOL0     O96418   5.001  10.755   2.775  0.5210  0.7812 -0.7323
  731MOL0     C96419   5.070  10.877   2.772 -0.6066  1.4430 -0.2102
  731MOL0     C96420   5.020  10.974   2.672  0.5261 -0.7221  0.0421
  731MOL0     C96421   4.891  11.060   2.719  0.0654 -0.4541 -0.2224
  731MOL0     C96422   4.795  10.983   2.812 -0.4818  0.3467 -0.2035
  731MOL0     C96423   4.674  11.054   2.839 -0.2444 -0.5813  0.6173
  731MOL0     C96424   4.561  11.099   2.833 -0.5269 -0.1635 -0.4555
  731MOL0     C96425   4.918  10.586   2.905 -0.3128  0.2019 -0.0628
  731MOL0     C96426   4.911  10.518   3.025  0.9441 -0.4513 -0.4287
  731MOL0     H96427   4.773  10.559   3.456 -0.6770  0.4103  0.2805
  731MOL0     H96428   4.658  10.482   3.643 -0.4781 -1.3026 -2.0494
  731MOL0     H96429   4.658  10.501   3.878 -0.6255  1.1802  2.4506
  731MOL0     H96430   4.744  10.447   4.018 -0.3504 -0.3825  0.8955
  731MOL0     H96431   4.518  10.375   4.061 -0.7561 -0.7314  0.0684
  731MOL0     H96432   4.613  10.230   4.028  2.5123  0.7510  1.5325
  731MOL0     H96433   4.390  10.223   3.927 -1.8112 -1.2077 -3.2217
  731MOL0     H96434   4.507  10.240   3.800 -0.4600  2.3749 -2.4794
  731MOL0     H96435   4.443  10.474   3.786  1.0443 -2.8540  0.4810
  731MOL0     H96436   4.317  10.357   3.747  0.3174  0.4082  0.3430
  731MOL0     H96437   4.346  10.550   3.968  0.8969 -0.4283 -0.8082
  731MOL0     H96438   4.228  10.419   3.999 -0.9969  0.9742  0.2617
  731MOL0     H96439   4.220  10.588   3.749 -0.1183  2.0807 -0.4590
  731MOL0     H96440   4.148  10.663   3.889  1.2599  0.1578  0.4202
  731MOL0     H96441   4.071  10.377   3.804 -1.0066 -0.1457 -0.1570
  731MOL0     H96442   3.985  10.486   3.920 -2.0951 -0.1995 -0.5526
  731MOL0     H96443   4.014  10.517   3.620 -0.1975 -4.0756  0.2902
  731MOL0     H96444   3.959  10.651   3.720  2.5967 -0.4035 -1.3766
  731MOL0     H96445   3.883  10.263   3.696  1.7810  2.2240  0.9152
  731MOL0     H96446   3.538  10.194   3.769 -4.3475 -2.0017 -2.0211
  731MOL0     H96447   3.660  10.129   3.657  0.0736  0.5771 -2.8215
  731MOL0     H96448   3.444  10.103   3.550 -1.7365  0.7017  1.4006
  731MOL0     H96449   3.533  10.219   3.451  0.2975 -2.5527 -0.7721
  731MOL0     H96450   3.361  10.328   3.668  1.0028 -0.8658 -0.4455
  731MOL0     H96451   3.403  10.392   3.503 -2.4642  1.8534  1.8520
  731MOL0     H96452   3.191  10.195   3.580  0.9888  2.7465  2.9846
  731MOL0     H96453   3.254  10.197   3.416  1.7662  0.4567 -0.5238
  731MOL0     H96454   3.040  10.190   3.353 -0.1877 -0.1836  0.5912
  731MOL0     H96455   2.791  10.146   3.351 -0.8239 -1.3048  2.7024
  731MOL0     H96456   2.374  10.347   3.277  3.5928  0.1578  1.3631
  731MOL0     H96457   2.123  10.371   3.267  0.6630 -1.2035 -0.5781
  731MOL0     H96458   1.915  10.500   3.652 -0.8404  0.6914 -1.1960
  731MOL0     H96459   1.890  10.330   3.624 -3.7601  0.2486 -0.4245
  731MOL0     H96460   1.724  10.384   3.433  1.3577 -0.3472 -0.1380
  731MOL0     H96461   1.733  10.547   3.485 -2.2608 -0.6712 -0.6358
  731MOL0     H96462   1.652  10.492   3.695 -2.0054  1.5782 -0.8841
  731MOL0     H96463   1.656  10.319   3.679 -0.3426 -0.0629  0.0478
  731MOL0     H96464   1.497  10.521   3.512  2.5064  1.0262  2.8828
  731MOL0     H96465   1.506  10.352   3.466 -2.1426  0.4806 -0.1387
  731MOL0     H96466   1.403  10.306   3.705  0.3976  0.2797  0.4106
  731MOL0     H96467   1.292  10.381   3.586  1.2619  1.8017 -0.8185
  731MOL0     H96468   1.419  10.603   3.695  0.7930  0.5314  1.4305
  731MOL0     H96469   1.406  10.498   3.838 -1.6060  2.3334  1.5831
  731MOL0     H96470   1.158  10.492   3.812 -1.4798  0.3121 -0.9242
  731MOL0     H96471   1.213  10.657   3.810  3.7424 -0.6789  0.6549
  731MOL0     H96472   1.100  10.493   3.592  2.8924 -1.3526  1.1739
  731MOL0     H96473   1.203  10.624   3.543 -1.1948 -1.0104 -2.3238
  731MOL0     H96474   2.116  10.502   3.668  0.4906 -4.5855  1.1127
  731MOL0     H96475   2.370  10.526   3.657  1.2999  1.0488 -3.3210
  731MOL0     H96476   2.740  10.529   3.539  0.2034  1.4349 -2.2077
  731MOL0     H96477   2.977  10.565   3.540  3.3136 -0.7639 -0.7722
  731MOL0     H96478   5.016  10.289   3.774 -1.6341  1.4803  2.1400
  731MOL0     H96479   5.134  10.361   3.594 -0.6336  0.5461  0.3907
  731MOL0     H96480   5.185  10.620   3.188  0.9751  0.2982 -0.4416
  731MOL0     H96481   5.223  10.718   2.951  0.1537  1.4517  1.1925
  731MOL0     H96482   5.176  10.859   2.751 -0.7113  1.9225 -1.1815
  731MOL0     H96483   5.056  10.926   2.869 -3.4415  0.3968 -0.0159
  731MOL0     H96484   5.098  11.050   2.663 -2.1551  2.4548  1.3437
  731MOL0     H96485   4.992  10.922   2.580  1.4511 -1.5209  0.2012
  731MOL0     H96486   4.827  11.098   2.639 -0.5261  1.3122  1.0076
  731MOL0     H96487   4.916  11.147   2.782 -2.3340  1.3698 -1.6268
  731MOL0     H96488   4.760  10.892   2.762 -0.5381  1.4587 -2.3111
  731MOL0     H96489   4.852  10.956   2.902  1.8215  3.4054 -0.5760
  731MOL0     H96490   4.462  11.139   2.831  0.3576  2.2751  0.7315
  731MOL0     H96491   4.835  10.585   2.834 -0.8993 -0.6621  0.6165
  731MOL0     H96492   4.819  10.461   3.036  1.5018 -1.4404 -0.8606
  732MOL0     O96493   5.379   9.116   4.403  0.1360  0.6596 -0.0613
  732MOL0     C96494   5.441   9.105   4.300  0.3368 -0.2116 -0.3316
  732MOL0     O96495   5.439   9.183   4.197  0.4972 -0.3280 -0.4934
  732MOL0     C96496   5.401   9.316   4.217 -0.5357  0.4671  0.6838
  732MOL0     C96497   5.300   9.367   4.134 -0.0681 -1.1035 -1.3140
  732MOL0     C96498   5.267   9.506   4.139 -0.1813  0.4300  0.3427
  732MOL0     C96499   5.330   9.598   4.235 -0.6594  0.3952 -0.1604
  732MOL0     O96500   5.308   9.734   4.239 -1.4929  0.7073  0.1248
  732MOL0     C96501   5.367   9.807   4.138 -0.8185  0.2187 -0.4064
  732MOL0     C96502   5.261   9.918   4.095  0.2158 -0.0898 -0.4033
  732MOL0     C96503   5.131   9.859   4.026  0.0289 -0.0036  1.6446
  732MOL0     C96504   5.019   9.962   4.018  0.6922  0.1194  0.3796
  732MOL0     C96505   4.885   9.907   3.962  0.7027 -0.5059  0.5650
  732MOL0     C96506   4.776  10.021   3.966 -1.0214 -0.6706  0.7596
  732MOL0     C96507   4.636   9.968   3.952 -0.4167  0.0421 -1.2940
  732MOL0     C96508   4.614   9.890   3.823 -0.8810 -0.8904 -0.8997
  732MOL0     N96509   4.478   9.850   3.800  0.6124 -0.4187  0.1097
  732MOL0     C96510   4.424   9.842   3.673 -0.5400 -0.2977  0.2195
  732MOL0     C96511   4.306   9.774   3.703 -0.0789 -0.9487 -0.2224
  732MOL0     C96512   4.208   9.738   3.599 -0.1022 -1.0258 -0.4182
  732MOL0     C96513   4.269   9.643   3.482  0.4840  0.4067  0.5922
  732MOL0     C96514   4.371   9.534   3.530  0.2157 -0.3144  0.1687
  732MOL0     C96515   4.306   9.404   3.592  0.2430 -0.2536 -0.2581
  732MOL0     O96516   4.374   9.355   3.703  0.1438 -0.9145 -0.0263
  732MOL0     C96517   4.388   9.218   3.715 -0.0556  0.2141 -0.1552
  732MOL0     C96518   4.274   9.132   3.706 -0.0666  0.1595  0.6010
  732MOL0     C96519   4.299   8.993   3.721  0.6748 -0.1759 -0.0292
  732MOL0     C96520   4.423   8.937   3.751 -0.1562 -0.6154  0.4180
  732MOL0     C96521   4.448   8.789   3.756 -0.2354 -0.7358 -0.0927
  732MOL0     O96522   4.553   8.756   3.830  0.1841  0.8343  0.0671
  732MOL0     C96523   4.557   8.621   3.879 -0.4634 -0.4016  0.6941
  732MOL0     C96524   4.526   8.607   4.012 -0.8473  0.6488 -0.5491
  732MOL0     C96525   4.519   8.464   4.053  0.7211 -0.2581  0.0605
  732MOL0     C96526   4.552   8.358   3.972  0.1089  1.0522  0.6588
  732MOL0     O96527   4.546   8.222   4.012 -0.4283  0.5227  1.2447
  732MOL0     C96528   4.497   8.179   4.136  0.3214  0.8250 -0.4191
  732MOL0     C96529   4.533   8.027   4.155 -0.1053  0.7644 -0.6715
  732MOL0     C96530   4.667   8.025   4.233 -0.4093  0.1355 -0.4484
  732MOL0     C96531   4.733   7.887   4.252  0.9326 -0.1909 -0.0191
  732MOL0     C96532   4.654   7.787   4.345  0.1718  0.5892  0.2484
  732MOL0     C96533   4.747   7.693   4.423  0.0883  0.8919  0.7988
  732MOL0     C96534   4.827   7.603   4.333  0.6267  0.6765 -0.1523
  732MOL0     C96535   4.819   7.455   4.368 -0.2891 -0.1158  0.1489
  732MOL0    Cl96536   4.892   7.433   4.529 -0.4526  0.3371 -0.0325
  732MOL0     C96537   4.588   8.376   3.840 -0.5154 -0.5959  0.0981
  732MOL0     C96538   4.587   8.512   3.792 -0.3901  0.6818  0.5086
  732MOL0     O96539   4.361   8.719   3.717  0.5018  0.9580 -0.6226
  732MOL0     C96540   4.538   9.025   3.748  0.9597 -0.5620  0.5924
  732MOL0     C96541   4.512   9.164   3.725  0.8615  0.3512  0.0591
  732MOL0     N96542   4.290   9.744   3.839 -0.0504  0.0470  0.2029
  732MOL0     N96543   4.397   9.788   3.887  0.2550 -0.1980 -0.3689
  732MOL0     C96544   5.412   9.530   4.327 -0.8476  0.7278 -0.2281
  732MOL0     C96545   5.456   9.394   4.317  0.3058 -0.7546 -0.2267
  732MOL0     C96546   5.502   8.968   4.293 -0.3315  0.7437 -0.5075
  732MOL0     C96547   5.514   8.898   4.169 -0.3052  0.3657  1.1425
  732MOL0     C96548   5.572   8.770   4.160  0.7417  0.5793 -0.7167
  732MOL0     C96549   5.626   8.697   4.267  0.0761 -0.1252 -0.4443
  732MOL0     O96550   5.685   8.576   4.241  0.2030 -0.2804  0.0572
  732MOL0     C96551   5.761   8.516   4.351  0.1236  0.8346 -0.2422
  732MOL0     C96552   5.853   8.401   4.304  0.3813  0.0554 -0.6994
  732MOL0     C96553   5.782   8.293   4.223 -0.9018  0.2683  1.0371
  732MOL0     C96554   5.838   8.156   4.230  0.8559 -0.7546 -0.0618
  732MOL0     C96555   5.975   8.142   4.178  0.5248 -0.1769  0.7954
  732MOL0     C96556   6.091   8.132   4.149  0.5833 -0.0468  0.9352
  732MOL0     C96557   5.623   8.778   4.389 -0.1620 -0.9744 -0.8708
  732MOL0     C96558   5.563   8.909   4.399  1.1455 -0.3238  0.7675
  732MOL0     H96559   5.238   9.295   4.082  0.8554 -1.2501 -2.2513
  732MOL0     H96560   5.198   9.550   4.068 -0.0798  0.8670  0.5117
  732MOL0     H96561   5.372   9.737   4.054 -2.0303  1.2066 -1.3438
  732MOL0     H96562   5.468   9.844   4.161 -0.5943 -0.4557 -0.2893
  732MOL0     H96563   5.299   9.985   4.017 -2.2096  1.9946  0.0732
  732MOL0     H96564   5.237   9.982   4.180 -0.1246  1.2455 -1.4635
  732MOL0     H96565   5.101   9.776   4.090 -1.1593 -0.7362  0.2055
  732MOL0     H96566   5.148   9.812   3.929  1.6678  0.2250  1.7844
  732MOL0     H96567   5.013   9.998   4.121  0.2754  1.1599  0.0026
  732MOL0     H96568   5.045  10.043   3.949  1.6407 -0.5259 -0.0470
  732MOL0     H96569   4.867   9.812   4.014  2.8611 -0.5899  1.2537
  732MOL0     H96570   4.897   9.883   3.856 -3.0196 -0.1909 -0.0652
  732MOL0     H96571   4.810  10.099   3.897 -0.4134 -0.0498  1.7163
  732MOL0     H96572   4.769  10.064   4.067 -1.1276 -2.9604  1.7963
  732MOL0     H96573   4.616   9.903   4.038  0.4186  3.2928  1.5776
  732MOL0     H96574   4.569  10.054   3.956 -0.1027  0.2687 -0.8452
  732MOL0     H96575   4.664   9.795   3.803  2.4968  1.0011 -2.2607
  732MOL0     H96576   4.629   9.960   3.740 -1.1278  1.4417  0.9169
  732MOL0     H96577   4.465   9.870   3.577  0.2768  4.0576  1.5801
  732MOL0     H96578   4.160   9.826   3.556 -0.5010 -1.0001  0.0707
  732MOL0     H96579   4.123   9.687   3.645 -1.4136 -1.7560 -3.4173
  732MOL0     H96580   4.312   9.708   3.405  0.6176 -0.6400 -0.2415
  732MOL0     H96581   4.186   9.599   3.427  2.2437  3.0132 -4.9047
  732MOL0     H96582   4.438   9.502   3.450 -0.3094  0.5576 -0.6465
  732MOL0     H96583   4.443   9.579   3.599  1.3867  1.1708 -1.8887
  732MOL0     H96584   4.303   9.328   3.513  0.6004  0.1180 -0.6350
  732MOL0     H96585   4.204   9.427   3.626  0.1278 -1.2455  0.0838
  732MOL0     H96586   4.175   9.174   3.697  0.8655  2.0305 -2.2753
  732MOL0     H96587   4.207   8.935   3.723 -1.0725  2.4471  0.0665
  732MOL0     H96588   4.509   8.690   4.080 -0.0730  1.9345 -1.8732
  732MOL0     H96589   4.495   8.435   4.155 -0.5335  2.0849  0.5013
  732MOL0     H96590   4.392   8.206   4.147 -0.7554 -2.2590 -2.0063
  732MOL0     H96591   4.550   8.230   4.218 -1.0863 -2.2126  2.6069
  732MOL0     H96592   4.546   8.006   4.049  0.7018  1.5528 -0.7406
  732MOL0     H96593   4.470   7.956   4.209 -0.5568  1.4917 -0.2361
  732MOL0     H96594   4.656   8.058   4.337  0.7689 -3.0239  0.7991
  732MOL0     H96595   4.736   8.083   4.172 -0.9719  2.1551  0.7557
  732MOL0     H96596   4.745   7.838   4.155  0.8050 -2.5751  1.0863
  732MOL0     H96597   4.825   7.909   4.306  0.9031 -0.9368  0.3574
  732MOL0     H96598   4.585   7.728   4.283  0.9706  2.4066 -2.5640
  732MOL0     H96599   4.593   7.841   4.417  0.3631 -0.5873  1.3270
  732MOL0     H96600   4.689   7.619   4.477  1.4148 -0.7313  0.0904
  732MOL0     H96601   4.816   7.743   4.492  0.1717  0.6521  0.8891
  732MOL0     H96602   4.787   7.609   4.231 -0.2908  1.1998  0.2192
  732MOL0     H96603   4.932   7.631   4.331  1.3047 -1.1805  3.0933
  732MOL0     H96604   4.867   7.388   4.296 -0.6844 -0.2862  0.0428
  732MOL0     H96605   4.712   7.434   4.368 -0.4832  0.8068  0.5482
  732MOL0     H96606   4.627   8.287   3.791 -2.7569 -2.2015  1.0573
  732MOL0     H96607   4.623   8.528   3.691  1.5646  0.4528  1.1345
  732MOL0     H96608   4.636   8.979   3.744 -0.2120 -3.1341 -0.3105
  732MOL0     H96609   4.589   9.237   3.706  0.1878  1.1430  0.3071
  732MOL0     H96610   5.472   9.581   4.401 -0.7822 -2.2801  2.0059
  732MOL0     H96611   5.520   9.356   4.397  0.1562 -0.3149  0.1064
  732MOL0     H96612   5.466   8.934   4.078 -2.5480 -1.3366  1.5625
  732MOL0     H96613   5.538   8.719   4.070  0.3282  2.7756 -1.8811
  732MOL0     H96614   5.694   8.472   4.425 -2.3666 -1.2226 -3.4721
  732MOL0     H96615   5.821   8.592   4.403 -0.6795  1.8754 -0.8156
  732MOL0     H96616   5.932   8.452   4.248 -1.2796  1.8530 -1.5055
  732MOL0     H96617   5.893   8.345   4.390 -3.5251 -1.8456  0.1102
  732MOL0     H96618   5.780   8.334   4.121  2.2840  0.1017  0.8019
  732MOL0     H96619   5.680   8.285   4.260 -0.8441 -0.4970  1.0415
  732MOL0     H96620   5.837   8.118   4.332  2.5201 -0.6671  0.0286
  732MOL0     H96621   5.765   8.088   4.185 -2.3818  1.9853  0.7145
  732MOL0     H96622   6.193   8.118   4.116  0.0640 -2.0189 -0.0311
  732MOL0     H96623   5.663   8.730   4.478  1.6130 -2.8292 -2.5632
  732MOL0     H96624   5.544   8.959   4.494  2.6434  1.0726  0.3715
  733MOL0     O96625   4.256   3.106   1.574  0.3166  0.0913 -0.3157
  733MOL0     C96626   4.349   3.183   1.574 -0.5490  0.3979 -0.4205
  733MOL0     O96627   4.387   3.255   1.687 -0.3887 -0.7164  0.5970
  733MOL0     C96628   4.305   3.252   1.791  0.0126 -0.2741  0.1511
  733MOL0     C96629   4.178   3.325   1.778 -0.1642 -0.4613  0.7406
  733MOL0     C96630   4.102   3.350   1.890  0.0626 -0.5615 -0.0328
  733MOL0     C96631   4.145   3.307   2.012 -0.0137  0.1383 -0.4350
  733MOL0     O96632   4.066   3.338   2.117 -0.1389  0.1625 -0.4218
  733MOL0     C96633   4.009   3.219   2.179  0.1281 -0.4791  0.2512
  733MOL0     C96634   3.867   3.212   2.118 -0.2964  0.1192 -0.2113
  733MOL0     C96635   3.786   3.113   2.204  0.2649 -0.6313 -0.1310
  733MOL0     C96636   3.860   2.979   2.235 -0.0173 -0.6522  0.3120
  733MOL0     C96637   3.760   2.863   2.256  0.4202 -0.6738 -0.4163
  733MOL0     C96638   3.830   2.731   2.292  0.0102  0.4693 -0.2254
  733MOL0     C96639   3.893   2.655   2.172 -1.0125 -0.2272  0.1912
  733MOL0     C96640   3.930   2.514   2.204 -0.5808  0.0969 -0.0486
  733MOL0     N96641   3.906   2.421   2.089 -0.4400  0.3374  0.0901
  733MOL0     C96642   3.874   2.287   2.103 -0.7050  0.4076  0.7892
  733MOL0     C96643   3.844   2.243   1.973 -0.2470  0.4549 -0.2002
  733MOL0     C96644   3.783   2.113   1.925  0.4027  0.5825 -0.1772
  733MOL0     C96645   3.653   2.098   2.007  0.5358 -0.2664  1.6215
  733MOL0     C96646   3.567   2.221   2.001  0.1051 -0.0542  0.1123
  733MOL0     C96647   3.433   2.203   2.061 -0.0536 -0.1269  0.1001
  733MOL0     O96648   3.437   2.172   2.203 -0.2998 -0.5982  0.1212
  733MOL0     C96649   3.432   2.277   2.284 -0.3311 -0.3420  1.2026
  733MOL0     C96650   3.309   2.339   2.327 -0.6129  0.0597 -0.0916
  733MOL0     C96651   3.303   2.453   2.400 -1.3172  0.4240 -0.4906
  733MOL0     C96652   3.429   2.506   2.456 -0.4887 -0.1090  0.7673
  733MOL0     C96653   3.431   2.622   2.545  0.7790  0.5518  0.1227
  733MOL0     O96654   3.534   2.634   2.643  0.0686 -0.4113 -0.0603
  733MOL0     C96655   3.537   2.755   2.710  0.0112  0.8097  0.3490
  733MOL0     C96656   3.523   2.879   2.651 -0.3844  0.5294 -0.1017
  733MOL0     C96657   3.533   2.991   2.721 -0.0455  0.2121  0.6652
  733MOL0     C96658   3.560   2.993   2.856  0.6722 -0.2015  0.5823
  733MOL0     O96659   3.583   3.116   2.919  0.3835  1.2042  0.6262
  733MOL0     C96660   3.472   3.209   2.923  0.6371 -0.0845  0.4250
  733MOL0     C96661   3.464   3.281   3.069 -0.7341  0.1748  0.3134
  733MOL0     C96662   3.460   3.184   3.187 -0.4118 -0.1439  0.4688
  733MOL0     C96663   3.589   3.142   3.250  0.1819 -0.3814  0.0740
  733MOL0     C96664   3.549   3.061   3.375  0.5334  0.8508  0.5415
  733MOL0     C96665   3.670   3.069   3.480 -0.1751 -0.2363  0.7602
  733MOL0     C96666   3.787   2.993   3.415 -0.1526  0.1201 -0.0223
  733MOL0     C96667   3.912   2.999   3.495 -1.1488  0.4487 -0.2077
  733MOL0    Cl96668   4.028   2.889   3.431 -0.3765 -0.0958 -0.2923
  733MOL0     C96669   3.583   2.867   2.923  0.5563 -0.1573  0.6066
  733MOL0     C96670   3.569   2.752   2.854 -0.4558 -0.1040  0.2178
  733MOL0     O96671   3.333   2.697   2.527 -0.7047 -0.1378  0.2683
  733MOL0     C96672   3.557   2.450   2.412 -0.2396 -0.1494 -1.2039
  733MOL0     C96673   3.559   2.339   2.325  0.1979  0.1641  0.6075
  733MOL0     N96674   3.884   2.345   1.887  0.3315  0.4895 -0.6064
  733MOL0     N96675   3.919   2.446   1.960  0.1539  1.0644 -0.1086
  733MOL0     C96676   4.271   3.249   2.027 -0.1784  0.1068 -1.0406
  733MOL0     C96677   4.350   3.216   1.922  0.1367 -0.2580  0.3009
  733MOL0     C96678   4.425   3.204   1.445 -0.3856 -0.0369 -0.4479
  733MOL0     C96679   4.416   3.109   1.343 -0.2631  0.1325 -0.3278
  733MOL0     C96680   4.488   3.132   1.223  0.9860  0.3336 -0.5454
  733MOL0     C96681   4.562   3.243   1.198  0.5782  0.0695 -0.5326
  733MOL0     O96682   4.639   3.268   1.091 -0.3101  0.0945  0.7622
  733MOL0     C96683   4.645   3.181   0.977 -0.5190  0.4696  1.0920
  733MOL0     C96684   4.739   3.235   0.865 -0.9887  0.1299  0.5941
  733MOL0     C96685   4.860   3.318   0.925  0.2436  1.2758  0.7321
  733MOL0     C96686   4.958   3.360   0.817 -0.6205 -0.8150 -0.9216
  733MOL0     C96687   5.092   3.377   0.882 -0.0409 -0.2335  0.5450
  733MOL0     C96688   5.190   3.370   0.958  0.5037 -0.4469  0.2022
  733MOL0     C96689   4.571   3.338   1.301 -0.2050  0.5342  0.2570
  733MOL0     C96690   4.499   3.317   1.430 -0.4670 -0.6198 -0.3440
  733MOL0     H96691   4.151   3.359   1.678  1.2010 -2.6277 -0.4497
  733MOL0     H96692   4.012   3.410   1.880 -0.7838 -1.9986 -1.4259
  733MOL0     H96693   4.004   3.227   2.288  1.0642  2.3086  0.1577
  733MOL0     H96694   4.076   3.136   2.157  1.3060  0.7846 -1.1017
  733MOL0     H96695   3.856   3.181   2.014 -2.0789  0.6659 -0.2118
  733MOL0     H96696   3.826   3.313   2.111 -1.9442 -0.6353 -2.5964
  733MOL0     H96697   3.698   3.095   2.141 -1.7507  2.7702  1.4369
  733MOL0     H96698   3.749   3.161   2.295  0.0326 -3.4138  1.3693
  733MOL0     H96699   3.920   2.947   2.149  0.6752  1.6380 -0.1430
  733MOL0     H96700   3.930   2.987   2.318  1.2166 -3.8670 -0.2969
  733MOL0     H96701   3.695   2.863   2.168  2.5866 -3.7185 -2.1578
  733MOL0     H96702   3.701   2.894   2.344 -1.3866  1.4882 -2.2427
  733MOL0     H96703   3.742   2.679   2.330  0.2259  0.9354  0.9565
  733MOL0     H96704   3.896   2.753   2.376 -0.2520 -0.9639  0.3918
  733MOL0     H96705   3.815   2.662   2.095 -1.8306 -3.3383  0.5919
  733MOL0     H96706   3.979   2.704   2.127  0.9270 -0.5321  3.3149
  733MOL0     H96707   3.869   2.478   2.287 -0.9258 -1.2268 -0.8586
  733MOL0     H96708   4.037   2.507   2.225 -0.4510 -0.5552 -0.8722
  733MOL0     H96709   3.888   2.231   2.195  2.9077  0.5966  0.4939
  733MOL0     H96710   3.842   2.022   1.932 -0.2627 -0.1871 -3.0643
  733MOL0     H96711   3.762   2.119   1.818 -0.8556 -2.6063 -0.2007
  733MOL0     H96712   3.664   2.061   2.110  0.5002  0.1485  1.7770
  733MOL0     H96713   3.595   2.016   1.964  1.9615 -0.7556  0.5750
  733MOL0     H96714   3.610   2.308   2.049 -1.0443  0.0653  0.9697
  733MOL0     H96715   3.555   2.250   1.896  1.9821  4.5075  0.9201
  733MOL0     H96716   3.395   2.116   2.006 -2.4291 -0.2630  1.8253
  733MOL0     H96717   3.364   2.287   2.048  0.0610  0.1312  1.1244
  733MOL0     H96718   3.212   2.296   2.303  1.2684 -4.5449 -0.6266
  733MOL0     H96719   3.212   2.499   2.436 -1.2801  1.0056 -1.1269
  733MOL0     H96720   3.506   2.886   2.544  1.2228 -0.9295 -0.4995
  733MOL0     H96721   3.521   3.090   2.679  3.5433  0.5021 -0.0411
  733MOL0     H96722   3.374   3.161   2.918  0.4057 -0.4300  4.4286
  733MOL0     H96723   3.494   3.283   2.846  5.6569 -0.5296  1.0485
  733MOL0     H96724   3.377   3.348   3.063  0.3439  1.6624  0.7616
  733MOL0     H96725   3.551   3.347   3.080 -2.6779  2.7728  1.2544
  733MOL0     H96726   3.397   3.101   3.155 -3.4049  1.2918  2.2045
  733MOL0     H96727   3.409   3.253   3.255  2.0000  1.7397  0.5255
  733MOL0     H96728   3.655   3.092   3.178  0.4827  0.2370 -0.0854
  733MOL0     H96729   3.645   3.223   3.296  1.2287  0.2614 -2.1763
  733MOL0     H96730   3.535   2.959   3.338  2.3275  0.7999 -0.0864
  733MOL0     H96731   3.451   3.085   3.418 -0.3219 -1.1114 -0.1580
  733MOL0     H96732   3.642   3.026   3.576  1.4154  0.1891  1.4561
  733MOL0     H96733   3.698   3.174   3.494  0.2646 -0.1333 -0.7534
  733MOL0     H96734   3.761   2.888   3.406 -1.2275  0.3563  0.2237
  733MOL0     H96735   3.809   3.027   3.313 -1.7853  1.2168 -0.0458
  733MOL0     H96736   3.896   2.977   3.601  1.3644 -0.9891 -0.0264
  733MOL0     H96737   3.965   3.094   3.482  1.7607 -0.8839  0.9053
  733MOL0     H96738   3.616   2.866   3.027 -3.5237  0.5736  2.0841
  733MOL0     H96739   3.574   2.655   2.903 -0.3424 -0.9290 -1.3858
  733MOL0     H96740   3.646   2.497   2.452  1.0051 -1.8290 -1.8925
  733MOL0     H96741   3.660   2.300   2.312 -0.1233 -0.8129  1.0186
  733MOL0     H96742   4.302   3.236   2.131 -0.8145 -1.4699 -1.0110
  733MOL0     H96743   4.446   3.169   1.939  0.7916  0.7201 -0.5710
  733MOL0     H96744   4.363   3.015   1.350 -2.8452  1.5313  0.5151
  733MOL0     H96745   4.481   3.053   1.150 -1.6391  0.6088 -0.6820
  733MOL0     H96746   4.548   3.162   0.931  0.8264 -0.2202 -1.6501
  733MOL0     H96747   4.690   3.087   1.012  0.6574  0.5381 -0.1614
  733MOL0     H96748   4.766   3.141   0.815  0.8263 -0.9789  3.4298
  733MOL0     H96749   4.682   3.300   0.797  0.6360 -0.8380 -1.8478
  733MOL0     H96750   4.919   3.258   0.995 -0.9714  0.0086  0.7108
  733MOL0     H96751   4.826   3.408   0.976  2.4662  1.9041  1.2412
  733MOL0     H96752   4.972   3.284   0.741  1.9587  0.0413 -1.3915
  733MOL0     H96753   4.930   3.453   0.766 -2.5899 -0.5279  0.5425
  733MOL0     H96754   5.269   3.365   1.030 -1.7119  0.0767  2.8724
  733MOL0     H96755   4.637   3.425   1.298 -0.5322  0.9235  2.3402
  733MOL0     H96756   4.508   3.388   1.512  0.3530  0.5830 -1.4317
  734MOL0     O96757   3.765   3.674   7.302 -0.6462 -0.0213  0.1825
  734MOL0     C96758   3.809   3.778   7.239  0.9171  0.3958 -0.4982
  734MOL0     O96759   3.730   3.865   7.166  0.1478 -0.1330  0.2887
  734MOL0     C96760   3.599   3.831   7.172 -0.2905  0.7199 -0.2147
  734MOL0     C96761   3.523   3.818   7.291  0.2877 -0.8197  1.3897
  734MOL0     C96762   3.382   3.801   7.286 -0.1224 -0.0241 -0.2074
  734MOL0     C96763   3.314   3.811   7.162  0.7075  0.4316 -0.7266
  734MOL0     O96764   3.188   3.785   7.147  0.4421 -0.4246  0.4371
  734MOL0     C96765   3.092   3.803   7.249  0.6046 -0.6558 -0.2948
  734MOL0     C96766   2.959   3.753   7.204 -0.0859 -0.7931  0.7431
  734MOL0     C96767   2.859   3.766   7.317  0.6823  0.6740 -0.0314
  734MOL0     C96768   2.732   3.700   7.270 -0.7544  0.1475  0.2251
  734MOL0     C96769   2.628   3.725   7.377  0.5010  0.2945  0.4361
  734MOL0     C96770   2.489   3.687   7.322  0.0706  0.4229 -1.7799
  734MOL0     C96771   2.390   3.763   7.412 -0.0307 -0.9087  0.3381
  734MOL0     C96772   2.247   3.780   7.345  0.6999 -0.4228 -0.9270
  734MOL0     N96773   2.147   3.835   7.436  0.3077  0.4805  0.1895
  734MOL0     C96774   2.121   3.785   7.558 -0.7686  0.3887  0.6709
  734MOL0     C96775   2.000   3.832   7.588 -0.4250  0.0721 -0.3456
  734MOL0     C96776   1.920   3.813   7.715  0.0036 -0.4309  0.1129
  734MOL0     C96777   1.844   3.681   7.722  0.1329  0.8409  0.3005
  734MOL0     C96778   1.771   3.643   7.852  0.5582 -0.3849 -0.2350
  734MOL0     C96779   1.697   3.511   7.840  0.6814 -0.7341  0.3901
  734MOL0     O96780   1.646   3.488   7.973  0.3372 -0.0397  0.3796
  734MOL0     C96781   1.528   3.535   8.027 -1.0516  0.1154  0.5162
  734MOL0     C96782   1.513   3.515   8.163 -0.1334 -0.0327 -0.3426
  734MOL0     C96783   1.396   3.558   8.227 -0.3071  0.1292  0.2142
  734MOL0     C96784   1.289   3.616   8.157  0.4712 -0.8898  0.6096
  734MOL0     C96785   1.166   3.644   8.218 -0.4993  0.4035 -0.2126
  734MOL0     O96786   1.171   3.650   8.354  0.4542  0.4105  0.4898
  734MOL0     C96787   1.056   3.682   8.430 -0.3653  0.4974  0.2819
  734MOL0     C96788   0.932   3.625   8.406 -0.7806 -1.0550  0.0885
  734MOL0     C96789   0.826   3.660   8.491  0.5517 -0.1416 -0.8228
  734MOL0     C96790   0.844   3.749   8.600 -0.0686 -1.3686  0.7216
  734MOL0     O96791   0.729   3.783   8.669 -0.1899  0.1299 -0.3008
  734MOL0     C96792   0.752   3.814   8.813 -0.5320  0.0183  0.7747
  734MOL0     C96793   0.744   3.958   8.845 -0.0990 -1.2898  0.2582
  734MOL0     C96794   0.736   3.998   8.987  0.1310  0.3581  0.6361
  734MOL0     C96795   0.853   3.966   9.085 -0.6330  0.1002  0.7930
  734MOL0     C96796   0.817   3.981   9.233  0.5390 -0.8055  0.2717
  734MOL0     C96797   0.946   3.957   9.317 -0.2874 -0.2070  1.0743
  734MOL0     C96798   0.928   3.933   9.464  0.1236 -0.4290  0.5238
  734MOL0     C96799   1.041   3.988   9.549 -0.3945 -0.1830  1.0488
  734MOL0    Cl96800   1.206   3.964   9.477 -0.4431 -0.0628 -0.3797
  734MOL0     C96801   0.970   3.803   8.624  0.3343  0.3193 -0.4984
  734MOL0     C96802   1.078   3.763   8.538 -0.4556 -0.4504 -0.4711
  734MOL0     O96803   1.070   3.669   8.146  0.4248  0.8550 -0.4626
  734MOL0     C96804   1.313   3.646   8.018 -0.0807 -0.7774  0.2944
  734MOL0     C96805   1.426   3.599   7.951 -0.0665  0.2340 -0.0764
  734MOL0     N96806   1.953   3.893   7.477  0.0978  0.1520  0.0973
  734MOL0     N96807   2.045   3.903   7.389 -0.0848 -0.3284  0.9556
  734MOL0     C96808   3.390   3.821   7.047  0.6716  0.1842 -1.1037
  734MOL0     C96809   3.525   3.832   7.046  1.1764  0.0189  0.6500
  734MOL0     C96810   3.952   3.833   7.265  0.0942  0.6367 -0.3515
  734MOL0     C96811   4.044   3.763   7.340 -0.0889 -0.2448  0.0499
  734MOL0     C96812   4.175   3.801   7.353  0.5287 -0.3940  0.2120
  734MOL0     C96813   4.211   3.930   7.301  0.5661 -0.2975 -0.2828
  734MOL0     O96814   4.335   3.997   7.302 -0.1065  0.3506 -0.6425
  734MOL0     C96815   4.438   3.955   7.391 -0.2599  0.1806 -0.5706
  734MOL0     C96816   4.434   4.021   7.535  0.0119 -0.4239 -0.3672
  734MOL0     C96817   4.317   3.975   7.632  0.3273 -0.2333  0.4488
  734MOL0     C96818   4.195   4.071   7.619  0.4127  0.1835 -0.4789
  734MOL0     C96819   4.072   3.993   7.629 -0.0203 -0.7784 -0.0772
  734MOL0     C96820   3.959   3.938   7.626 -0.0322  0.7788 -0.1803
  734MOL0     C96821   4.123   4.004   7.227  0.4055 -0.3956  0.2244
  734MOL0     C96822   3.989   3.956   7.205 -0.6868 -1.1845 -0.1652
  734MOL0     H96823   3.573   3.815   7.387  2.4190  1.4165  0.4403
  734MOL0     H96824   3.332   3.785   7.381 -1.9307  0.3991 -1.0503
  734MOL0     H96825   3.093   3.910   7.271  1.4711 -0.6579 -0.3099
  734MOL0     H96826   3.126   3.759   7.343  3.9934 -1.3135 -1.6810
  734MOL0     H96827   2.968   3.648   7.174  1.4586 -0.6206  0.4774
  734MOL0     H96828   2.936   3.810   7.114 -0.5387 -1.2198  0.5855
  734MOL0     H96829   2.839   3.869   7.347  0.3835  0.4934  0.4116
  734MOL0     H96830   2.902   3.722   7.408 -3.1498  1.0984  2.2219
  734MOL0     H96831   2.698   3.755   7.182  0.5409 -2.7814 -2.2736
  734MOL0     H96832   2.738   3.593   7.251 -0.6845  0.2931 -0.6323
  734MOL0     H96833   2.630   3.832   7.400  1.7482  0.1826  0.9516
  734MOL0     H96834   2.635   3.672   7.472 -3.2859 -0.2876  0.5228
  734MOL0     H96835   2.477   3.578   7.327  1.1791  0.2873  2.8498
  734MOL0     H96836   2.474   3.723   7.220  0.9295  2.9828 -1.0724
  734MOL0     H96837   2.382   3.705   7.504  1.2808 -0.9807  0.4286
  734MOL0     H96838   2.420   3.866   7.437 -1.7049 -0.5323  0.9209
  734MOL0     H96839   2.213   3.683   7.306  2.8974 -1.6665  0.0877
  734MOL0     H96840   2.252   3.846   7.259 -0.6141  2.7685  1.2367
  734MOL0     H96841   2.175   3.710   7.615  2.4186  2.0015  0.0149
  734MOL0     H96842   1.843   3.889   7.702 -0.4575 -1.1047 -1.2748
  734MOL0     H96843   1.972   3.841   7.807 -1.5974  3.2534  0.0419
  734MOL0     H96844   1.909   3.599   7.689 -2.2658 -2.1583  2.4414
  734MOL0     H96845   1.773   3.687   7.640  1.7130 -0.8318 -1.2642
  734MOL0     H96846   1.840   3.644   7.936 -0.3113 -0.5813  0.4926
  734MOL0     H96847   1.712   3.732   7.876  3.6545  1.2493  1.9953
  734MOL0     H96848   1.776   3.437   7.826  3.4774  2.1226 -0.2351
  734MOL0     H96849   1.623   3.502   7.760 -1.1079 -1.0602  2.0211
  734MOL0     H96850   1.605   3.482   8.210 -0.4406  4.8127  4.6749
  734MOL0     H96851   1.391   3.542   8.334  0.8252  3.0361  0.8040
  734MOL0     H96852   0.924   3.565   8.316 -1.8454  0.7989 -1.1267
  734MOL0     H96853   0.724   3.628   8.470 -0.2268  1.0332  0.8993
  734MOL0     H96854   0.840   3.765   8.857  0.0501 -0.0555 -0.4214
  734MOL0     H96855   0.666   3.770   8.863  1.0542 -2.5156  1.4717
  734MOL0     H96856   0.649   3.993   8.803  0.2840 -3.1989 -2.4606
  734MOL0     H96857   0.830   4.012   8.806  0.9715 -2.3879  1.0210
  734MOL0     H96858   0.647   3.958   9.035  0.6632  0.6346  1.9128
  734MOL0     H96859   0.718   4.105   9.005  0.3873  0.1579  2.2413
  734MOL0     H96860   0.891   3.863   9.081  3.3735  1.2740  2.9276
  734MOL0     H96861   0.942   4.023   9.055  1.4947 -3.8588 -1.3194
  734MOL0     H96862   0.742   3.911   9.268 -0.3256  1.5984  3.7249
  734MOL0     H96863   0.776   4.080   9.257  3.0931 -0.1553  2.4953
  734MOL0     H96864   1.007   4.045   9.296 -3.3194  1.5463 -1.2471
  734MOL0     H96865   1.003   3.876   9.270 -0.2315  0.1353  0.5474
  734MOL0     H96866   0.836   3.974   9.506  2.1286  1.1844  3.7098
  734MOL0     H96867   0.909   3.827   9.481 -0.0625 -0.8350 -1.8488
  734MOL0     H96868   1.039   3.947   9.650  3.5542 -2.2335  0.4576
  734MOL0     H96869   1.022   4.094   9.569 -1.3105 -0.2417  0.5454
  734MOL0     H96870   0.982   3.875   8.704  0.6825 -1.1566  0.8353
  734MOL0     H96871   1.176   3.807   8.549 -1.6383  2.1235  0.5837
  734MOL0     H96872   1.237   3.686   7.953  1.7172 -1.1589 -2.1869
  734MOL0     H96873   1.443   3.631   7.849  0.8139 -1.2929 -0.4387
  734MOL0     H96874   3.331   3.815   6.956 -2.0925  1.9696  0.4110
  734MOL0     H96875   3.576   3.851   6.952  0.6788  1.4150  0.6304
  734MOL0     H96876   4.010   3.672   7.389 -1.0706 -0.4650 -0.9821
  734MOL0     H96877   4.250   3.750   7.413  0.1639 -0.7569  0.3587
  734MOL0     H96878   4.538   3.972   7.349  1.3857 -0.5450  2.7298
  734MOL0     H96879   4.437   3.845   7.393 -1.0867  0.1327 -2.2685
  734MOL0     H96880   4.528   3.992   7.582  0.3700  1.3669  0.0840
  734MOL0     H96881   4.441   4.130   7.543 -2.1638 -0.2338 -0.2889
  734MOL0     H96882   4.350   3.976   7.736  3.5745  0.6992 -0.4631
  734MOL0     H96883   4.288   3.874   7.601  1.1003  0.1771 -1.8157
  734MOL0     H96884   4.206   4.154   7.690  0.2263 -2.4447  2.8654
  734MOL0     H96885   4.198   4.116   7.519 -2.3670 -0.1133 -0.7900
  734MOL0     H96886   3.870   3.886   7.599  0.7871 -1.7218  1.5150
  734MOL0     H96887   4.146   4.100   7.183 -1.4732 -1.7659 -4.3080
  734MOL0     H96888   3.927   4.016   7.140  0.1986  1.4862  1.3072
  735MOL0     O96889   7.718   4.303   8.524 -0.0093 -0.0361 -0.2987
  735MOL0     C96890   7.683   4.227   8.605  1.1068 -0.3227  0.2933
  735MOL0     O96891   7.760   4.169   8.698 -0.7496 -0.0110 -1.4872
  735MOL0     C96892   7.902   4.169   8.687 -0.3812  0.4439 -0.2639
  735MOL0     C96893   7.989   4.279   8.706  0.5826  0.3959 -0.5087
  735MOL0     C96894   8.127   4.270   8.712 -1.0666 -0.6195  1.6954
  735MOL0     C96895   8.193   4.144   8.695  0.6728  0.2113  0.0415
  735MOL0     O96896   8.333   4.132   8.687  0.0979  0.6095  0.1579
  735MOL0     C96897   8.388   3.999   8.669  0.1191 -0.1449 -0.7468
  735MOL0     C96898   8.542   4.028   8.669 -0.1753 -0.2117  1.3109
  735MOL0     C96899   8.633   3.908   8.668 -0.4059  0.0819 -0.2574
  735MOL0     C96900   8.605   3.810   8.556 -0.4759  0.8108 -0.0482
  735MOL0     C96901   8.722   3.705   8.525 -0.5714  0.0078 -1.0408
  735MOL0     C96902   8.758   3.619   8.645  0.7998  0.8046  0.6131
  735MOL0     C96903   8.643   3.565   8.738 -0.2574 -0.1218 -0.1446
  735MOL0     C96904   8.542   3.469   8.670  0.6417 -0.1233 -0.1755
  735MOL0     N96905   8.613   3.349   8.624  0.5117 -1.5012 -0.2895
  735MOL0     C96906   8.630   3.234   8.691  0.2526  0.9598  0.1304
  735MOL0     C96907   8.671   3.148   8.596  0.6508  0.5129  0.1069
  735MOL0     C96908   8.684   2.998   8.617  0.4258 -0.1146 -0.2149
  735MOL0     C96909   8.817   2.937   8.651  0.2942 -0.0874  0.2954
  735MOL0     C96910   8.915   2.921   8.531  0.6465 -0.1026 -0.3056
  735MOL0     C96911   8.870   2.835   8.412  1.3079  0.3105 -0.0824
  735MOL0     O96912   8.976   2.766   8.345  0.0790  0.1842  0.4529
  735MOL0     C96913   9.065   2.834   8.268 -0.0602  1.2624  0.0470
  735MOL0     C96914   9.035   2.961   8.213 -0.6227  0.8546 -0.0358
  735MOL0     C96915   9.118   3.016   8.115  0.1981  0.9368 -0.1093
  735MOL0     C96916   9.235   2.941   8.075  0.6244 -0.8801  0.0538
  735MOL0     C96917   9.339   3.013   7.985  2.1415  0.0003  0.2804
  735MOL0     O96918   9.427   2.934   7.926  0.4424  0.7368 -0.6215
  735MOL0     C96919   9.512   2.992   7.826  0.3214 -0.4720  0.4528
  735MOL0     C96920   9.487   2.985   7.692 -0.0655 -0.0702 -0.0072
  735MOL0     C96921   9.557   3.058   7.595  0.4280 -0.1851  0.2528
  735MOL0     C96922   9.650   3.147   7.637  0.4771  0.0094 -0.8312
  735MOL0     O96923   9.714   3.223   7.545  0.0218 -0.1337 -0.6900
  735MOL0     C96924   9.699   3.370   7.548 -1.3442  0.2181  0.3249
  735MOL0     C96925   9.601   3.416   7.440  0.2059 -0.6517 -0.5093
  735MOL0     C96926   9.673   3.439   7.308 -0.9188 -0.0227 -1.0749
  735MOL0     C96927   9.569   3.489   7.213  0.7563 -0.6768 -0.4920
  735MOL0     C96928   9.639   3.546   7.091 -0.2609 -0.9411 -0.1466
  735MOL0     C96929   9.618   3.464   6.962  0.1896 -0.5722  0.0207
  735MOL0     C96930   9.492   3.479   6.887  0.1880  1.0723  0.4495
  735MOL0     C96931   9.470   3.380   6.763 -0.9074 -0.6992  0.1041
  735MOL0    Cl96932   9.599   3.392   6.640 -0.1056 -0.1600 -0.3034
  735MOL0     C96933   9.680   3.158   7.771 -0.0516  0.5646  0.4524
  735MOL0     C96934   9.618   3.075   7.864  0.2520 -0.5757 -0.7902
  735MOL0     O96935   9.329   3.135   7.980 -0.1028  0.2499 -0.6186
  735MOL0     C96936   9.257   2.814   8.132  1.0568  0.5270  0.9198
  735MOL0     C96937   9.168   2.757   8.229  0.2440 -0.3946  0.5409
  735MOL0     N96938   8.701   3.217   8.477  0.5548 -0.4545  0.0637
  735MOL0     N96939   8.661   3.342   8.500  0.1974  0.6616  0.0731
  735MOL0     C96940   8.113   4.034   8.662 -0.4344  0.1741  0.2140
  735MOL0     C96941   7.972   4.049   8.672  0.5241  0.7187  0.4844
  735MOL0     C96942   7.533   4.190   8.598 -0.8806  0.4820 -0.1013
  735MOL0     C96943   7.458   4.241   8.491  0.3011 -0.5771  0.8712
  735MOL0     C96944   7.320   4.222   8.480  0.3310 -0.1545 -0.0229
  735MOL0     C96945   7.259   4.139   8.583  0.5318  0.6006 -0.3725
  735MOL0     O96946   7.120   4.133   8.590 -0.2567 -0.5250  0.9202
  735MOL0     C96947   7.066   4.134   8.725 -0.6697 -0.3039 -0.2145
  735MOL0     C96948   6.986   4.263   8.756 -0.0720  0.7162  0.8741
  735MOL0     C96949   6.867   4.287   8.661 -0.1138  0.2419 -0.0312
  735MOL0     C96950   6.862   4.436   8.633  1.1770  0.2676 -0.0938
  735MOL0     C96951   6.806   4.505   8.747 -0.5114  1.0768  0.0652
  735MOL0     C96952   6.788   4.548   8.859  0.2522 -0.2107  0.2753
  735MOL0     C96953   7.338   4.068   8.677 -0.3055  0.1145  0.0370
  735MOL0     C96954   7.474   4.091   8.681 -0.3772 -0.5919 -0.3472
  735MOL0     H96955   7.941   4.366   8.748 -0.5503 -0.3004 -0.3075
  735MOL0     H96956   8.180   4.364   8.725 -5.3472  2.5366 -0.9875
  735MOL0     H96957   8.359   3.954   8.574 -4.6807 -4.1233  2.0816
  735MOL0     H96958   8.357   3.924   8.743  1.3754  0.1624  0.1214
  735MOL0     H96959   8.570   4.093   8.753 -2.8127  3.6724 -0.5100
  735MOL0     H96960   8.568   4.101   8.592 -2.7542  0.1185  0.6557
  735MOL0     H96961   8.622   3.858   8.765  1.3180  0.1729  0.0266
  735MOL0     H96962   8.739   3.935   8.659 -0.1621 -0.4090  0.8758
  735MOL0     H96963   8.509   3.757   8.565 -0.2554  0.5311  0.7640
  735MOL0     H96964   8.593   3.870   8.466 -0.9976  0.1510 -0.4251
  735MOL0     H96965   8.812   3.766   8.512 -0.7410  1.1263  2.2240
  735MOL0     H96966   8.698   3.648   8.434  2.2552 -1.2681 -1.0777
  735MOL0     H96967   8.815   3.681   8.715 -2.2711  1.3225  2.9068
  735MOL0     H96968   8.812   3.534   8.603 -1.7783 -0.8264  0.3604
  735MOL0     H96969   8.691   3.511   8.820  1.6775 -1.2702 -1.9282
  735MOL0     H96970   8.597   3.658   8.774  2.7641  1.3441  0.2338
  735MOL0     H96971   8.509   3.525   8.582  5.1921  4.2004  0.3822
  735MOL0     H96972   8.461   3.444   8.738  0.3837  1.1751  0.0331
  735MOL0     H96973   8.624   3.220   8.798 -0.3863  2.2972  0.2890
  735MOL0     H96974   8.648   2.957   8.522  2.0729  2.1994 -1.9498
  735MOL0     H96975   8.609   2.962   8.688  0.8409  2.4855  1.6861
  735MOL0     H96976   8.800   2.837   8.692  1.8766 -1.4154 -2.0784
  735MOL0     H96977   8.863   2.997   8.731 -0.6128  2.3268 -0.8885
  735MOL0     H96978   8.931   3.027   8.507  3.1673 -0.7371 -1.8451
  735MOL0     H96979   9.005   2.875   8.574 -0.9593 -1.4091  1.8598
  735MOL0     H96980   8.813   2.898   8.343  1.6876 -0.9949 -1.6855
  735MOL0     H96981   8.796   2.770   8.460  0.1524  1.4058 -0.3397
  735MOL0     H96982   8.937   3.004   8.232 -1.4228 -0.1853 -1.5891
  735MOL0     H96983   9.099   3.114   8.074  3.3550  1.6663 -0.0867
  735MOL0     H96984   9.399   2.930   7.659 -1.2455  0.4268  2.1697
  735MOL0     H96985   9.538   3.055   7.488  2.7690  0.2068 -0.2175
  735MOL0     H96986   9.787   3.434   7.534 -2.6316  2.7971  3.0386
  735MOL0     H96987   9.656   3.391   7.646 -1.2663  1.0256  0.1942
  735MOL0     H96988   9.548   3.502   7.482 -0.5475 -1.4774  0.2874
  735MOL0     H96989   9.530   3.336   7.414 -1.0009  0.1600  0.1816
  735MOL0     H96990   9.734   3.367   7.254  1.8204  3.3399 -2.8741
  735MOL0     H96991   9.741   3.524   7.320 -1.8935  0.8471 -1.6012
  735MOL0     H96992   9.492   3.415   7.189 -1.4915  1.4039 -0.1144
  735MOL0     H96993   9.503   3.565   7.255 -2.5566 -2.5602 -1.9229
  735MOL0     H96994   9.746   3.544   7.110 -0.4653  1.1872  1.5596
  735MOL0     H96995   9.622   3.653   7.073  1.9116 -0.6565 -0.7847
  735MOL0     H96996   9.633   3.357   6.981  1.1437 -0.3062  0.8725
  735MOL0     H96997   9.696   3.494   6.892  0.1121 -2.1561 -0.7848
  735MOL0     H96998   9.407   3.471   6.956  0.9292 -1.2568  1.1762
  735MOL0     H96999   9.485   3.585   6.859 -1.6902  1.2256  1.3239
  735MOL0     H97000   9.373   3.403   6.717 -0.9330  0.6420  0.7786
  735MOL0     H97001   9.461   3.277   6.798 -1.3446 -0.3393  1.0948
  735MOL0     H97002   9.753   3.231   7.803  0.8003 -0.0738 -0.0006
  735MOL0     H97003   9.636   3.092   7.970  0.2680 -0.9511 -0.7331
  735MOL0     H97004   9.352   2.765   8.114  0.7156  0.5116 -1.0474
  735MOL0     H97005   9.189   2.667   8.285  2.7115  0.8532  1.7613
  735MOL0     H97006   8.158   3.941   8.632  3.2903  1.3233  1.7235
  735MOL0     H97007   7.907   3.963   8.663 -0.4083  1.4272  0.2581
  735MOL0     H97008   7.509   4.312   8.426 -0.0376  1.2608  2.5056
  735MOL0     H97009   7.247   4.260   8.409 -0.4624 -1.9157 -0.2262
  735MOL0     H97010   7.133   4.126   8.810 -1.0335  1.7459  0.3304
  735MOL0     H97011   6.988   4.057   8.732 -1.2189  0.2434 -0.1672
  735MOL0     H97012   6.937   4.242   8.852 -2.0887  0.3530 -0.1801
  735MOL0     H97013   7.061   4.341   8.745 -0.1517  0.4932 -1.6872
  735MOL0     H97014   6.771   4.252   8.700  0.4597 -0.4059  0.8453
  735MOL0     H97015   6.881   4.234   8.567 -1.8182  0.0876 -0.2294
  735MOL0     H97016   6.956   4.482   8.600  0.4644 -0.0758 -2.8465
  735MOL0     H97017   6.788   4.461   8.556  2.6932  1.0701 -1.3709
  735MOL0     H97018   6.801   4.587   8.958 -0.7390  1.4279 -0.1912
  735MOL0     H97019   7.301   3.995   8.748 -0.7769  0.7671  0.4866
  735MOL0     H97020   7.547   4.045   8.746  1.4587 -1.0455 -2.5949
  736MOL0     O97021   1.482   9.910   5.963  0.9667 -0.0099  0.2518
  736MOL0     C97022   1.454   9.977   6.063  1.1743 -0.7867 -0.1614
  736MOL0     O97023   1.511  10.098   6.089  0.5232  0.0929  0.5630
  736MOL0     C97024   1.582  10.172   6.004  0.2407  0.3896  0.3486
  736MOL0     C97025   1.720  10.147   5.974 -0.4315  0.8102 -0.9981
  736MOL0     C97026   1.795  10.232   5.895  0.3235  0.3258 -1.5662
  736MOL0     C97027   1.756  10.357   5.858 -0.3997  0.3311 -0.0630
  736MOL0     O97028   1.844  10.446   5.802 -0.6347  1.3459 -0.3643
  736MOL0     C97029   1.811  10.582   5.793 -0.0767  0.3327 -0.1857
  736MOL0     C97030   1.938  10.643   5.724 -0.0947 -0.3926 -0.3751
  736MOL0     C97031   1.909  10.783   5.655 -0.2010 -0.3187  0.7996
  736MOL0     C97032   1.803  10.786   5.541  0.7237  0.2616 -0.2223
  736MOL0     C97033   1.775  10.933   5.521  0.8811 -0.2977  0.2244
  736MOL0     C97034   1.678  10.976   5.407  0.1544 -0.2545 -0.6715
  736MOL0     C97035   1.758  11.029   5.279  0.8461  1.0747  0.3606
  736MOL0     C97036   1.662  11.058   5.162  0.6123  0.6994 -0.1017
  736MOL0     N97037   1.641  11.198   5.139 -0.5684 -1.1209 -0.3319
  736MOL0     C97038   1.569  11.272   5.229  0.5161 -0.6769 -0.4771
  736MOL0     C97039   1.567  11.393   5.179  0.5271  0.0946  1.2325
  736MOL0     C97040   1.490  11.519   5.226  1.5053  0.8626  0.4332
  736MOL0     C97041   1.339  11.496   5.228 -0.5389 -0.6211 -0.6103
  736MOL0     C97042   1.270  11.620   5.280  0.4177  0.4082 -0.2256
  736MOL0     C97043   1.290  11.639   5.434 -0.3431  0.3882 -0.7765
  736MOL0     O97044   1.292  11.504   5.494 -0.4876 -1.4188 -0.5746
  736MOL0     C97045   1.176  11.455   5.550  0.2646 -1.2615  0.3984
  736MOL0     C97046   1.047  11.525   5.542  0.3026 -0.2454 -0.0071
  736MOL0     C97047   0.932  11.465   5.578 -0.2200  0.1534  0.2461
  736MOL0     C97048   0.935  11.332   5.643 -0.2595  0.3055 -0.4796
  736MOL0     C97049   0.824  11.271   5.719 -0.5572  0.7486  0.1335
  736MOL0     O97050   0.849  11.156   5.790  0.2439  0.0239 -0.2040
  736MOL0     C97051   0.770  11.101   5.889 -0.2284  0.1059  0.1275
  736MOL0     C97052   0.783  10.964   5.928 -0.6817  0.4052 -0.5310
  736MOL0     C97053   0.702  10.917   6.031  0.4853 -0.4108  0.4482
  736MOL0     C97054   0.600  10.994   6.088  0.3041 -0.0995 -0.1666
  736MOL0     O97055   0.519  10.944   6.193 -0.6968 -0.9331 -0.8821
  736MOL0     C97056   0.541  10.838   6.277 -0.6846  0.1331 -0.2468
  736MOL0     C97057   0.468  10.721   6.216  0.5655  0.5699  0.8758
  736MOL0     C97058   0.488  10.591   6.299 -0.2835  0.4561  0.0029
  736MOL0     C97059   0.471  10.454   6.211  0.5168  0.2335  0.2035
  736MOL0     C97060   0.546  10.331   6.282  0.1109  0.4586  1.0250
  736MOL0     C97061   0.509  10.317   6.425  0.2177  0.9541  0.1776
  736MOL0     C97062   0.616  10.232   6.493  1.1404  0.2717 -0.3136
  736MOL0     C97063   0.584  10.212   6.645 -0.6172 -0.4314 -0.6725
  736MOL0    Cl97064   0.428  10.129   6.677  0.5843 -0.4687 -0.0689
  736MOL0     C97065   0.579  11.118   6.034 -0.1751 -0.0092 -0.5909
  736MOL0     C97066   0.672  11.168   5.947 -0.1818  0.1990 -0.7666
  736MOL0     O97067   0.719  11.333   5.718 -0.2049  0.5429 -0.0549
  736MOL0     C97068   1.059  11.270   5.643 -0.5441  0.0929  0.1918
  736MOL0     C97069   1.175  11.329   5.593 -0.4406  0.3698 -0.1438
  736MOL0     N97070   1.635  11.389   5.053 -0.4488  0.1487  0.2784
  736MOL0     N97071   1.670  11.271   5.028 -0.9745  0.2174 -0.3796
  736MOL0     C97072   1.618  10.382   5.881  0.2938  0.0858 -0.4105
  736MOL0     C97073   1.531  10.296   5.951 -0.6454  0.2188  0.2555
  736MOL0     C97074   1.380   9.909   6.167  0.0844  0.2872  0.0571
  736MOL0     C97075   1.334   9.780   6.151 -0.1891  0.6613 -0.2915
  736MOL0     C97076   1.277   9.716   6.265 -0.0208  0.2639  0.6078
  736MOL0     C97077   1.264   9.783   6.388  0.2189 -0.6000  0.3935
  736MOL0     O97078   1.207   9.737   6.500 -0.0609  0.3881  0.5256
  736MOL0     C97079   1.162   9.599   6.504  0.2760 -0.3014  0.4259
  736MOL0     C97080   1.071   9.553   6.635 -0.4366  0.3494  0.1764
  736MOL0     C97081   0.935   9.635   6.646  0.5272  0.3416  0.1470
  736MOL0     C97082   0.939   9.748   6.743 -0.2448  0.2470 -0.5616
  736MOL0     C97083   0.812   9.825   6.735 -0.9626 -0.3538 -0.4416
  736MOL0     C97084   0.710   9.894   6.749  0.8540  0.0296 -0.2812
  736MOL0     C97085   1.312   9.915   6.400  0.5478  0.3478  0.3451
  736MOL0     C97086   1.371   9.975   6.293 -0.2797 -0.2596  0.4741
  736MOL0     H97087   1.765  10.056   6.013  1.1929  3.0848  3.0731
  736MOL0     H97088   1.898  10.208   5.872  0.2254 -0.3078 -1.3641
  736MOL0     H97089   1.798  10.623   5.894  0.6548 -0.8134  0.3919
  736MOL0     H97090   1.718  10.597   5.737  1.1087 -2.3487 -3.1753
  736MOL0     H97091   1.957  10.572   5.643 -1.5869 -0.7679 -0.4263
  736MOL0     H97092   2.022  10.654   5.794 -1.2859  1.0918  0.8883
  736MOL0     H97093   2.002  10.824   5.615 -0.9940  0.1867 -0.6275
  736MOL0     H97094   1.867  10.855   5.726  4.5634  1.7183  1.9312
  736MOL0     H97095   1.838  10.736   5.450  0.1125 -0.7243  0.0697
  736MOL0     H97096   1.716  10.738   5.586  1.4232  0.2069  1.1276
  736MOL0     H97097   1.864  10.997   5.516 -2.3222  4.7396 -0.4013
  736MOL0     H97098   1.725  10.979   5.607  0.1717 -2.4431  1.0018
  736MOL0     H97099   1.605  11.048   5.443 -0.5121 -0.5504 -1.4147
  736MOL0     H97100   1.620  10.889   5.376  0.3868 -0.1675 -1.3616
  736MOL0     H97101   1.815  11.120   5.300 -1.4319  2.5696  0.3491
  736MOL0     H97102   1.829  10.949   5.254  1.0491  1.0981  0.8555
  736MOL0     H97103   1.567  11.005   5.173  0.0467  1.6991 -0.0946
  736MOL0     H97104   1.708  11.017   5.071  0.8268  1.0256 -0.1414
  736MOL0     H97105   1.518  11.236   5.318 -0.5428  0.8122 -0.4453
  736MOL0     H97106   1.510  11.599   5.155  0.6801  1.8732  1.2973
  736MOL0     H97107   1.526  11.545   5.326 -0.3619  1.7955  0.9226
  736MOL0     H97108   1.310  11.403   5.278 -1.9721 -0.2142 -0.6301
  736MOL0     H97109   1.330  11.471   5.122  1.7630 -2.6399 -0.4373
  736MOL0     H97110   1.299  11.707   5.222 -2.6439  0.7066 -1.5291
  736MOL0     H97111   1.162  11.612   5.261  1.2195 -1.2034 -5.7981
  736MOL0     H97112   1.213  11.695   5.488 -0.8023 -2.3290  1.6514
  736MOL0     H97113   1.386  11.689   5.450  0.2365 -1.1367  0.8335
  736MOL0     H97114   1.036  11.617   5.486  1.0878  0.5570  1.1075
  736MOL0     H97115   0.834  11.510   5.566 -0.4638 -0.6939 -1.2639
  736MOL0     H97116   0.862  10.914   5.874 -0.6848  0.7703 -0.8718
  736MOL0     H97117   0.709  10.813   6.061 -0.3209 -0.2603  1.1839
  736MOL0     H97118   0.508  10.872   6.375  3.0290  1.1700  0.7960
  736MOL0     H97119   0.650  10.827   6.273 -0.6215  0.9477 -2.9753
  736MOL0     H97120   0.511  10.690   6.121 -1.6723 -3.6494  1.0042
  736MOL0     H97121   0.359  10.728   6.207  0.4297 -2.1445 -0.2593
  736MOL0     H97122   0.423  10.584   6.386  0.5764 -1.9043  0.5178
  736MOL0     H97123   0.588  10.594   6.344 -0.9094 -0.6875  1.5509
  736MOL0     H97124   0.368  10.419   6.206 -0.1871  2.2960 -1.0493
  736MOL0     H97125   0.500  10.462   6.106  0.2205  1.3990  0.1951
  736MOL0     H97126   0.653  10.354   6.273 -0.1518  1.3236 -0.0309
  736MOL0     H97127   0.533  10.245   6.216  0.2744  2.6357 -2.0514
  736MOL0     H97128   0.412  10.268   6.422 -0.5710  2.4980 -1.4457
  736MOL0     H97129   0.493  10.405   6.489 -1.1406  1.5697 -0.9484
  736MOL0     H97130   0.627  10.134   6.446  1.1888  1.4724 -3.0294
  736MOL0     H97131   0.713  10.282   6.483  0.6965  0.8702 -1.9395
  736MOL0     H97132   0.588  10.309   6.695 -0.3209 -0.5025 -0.5557
  736MOL0     H97133   0.665  10.153   6.689 -0.9467  0.4410  1.2069
  736MOL0     H97134   0.490  11.174   6.062 -0.5018 -0.2639 -1.1084
  736MOL0     H97135   0.664  11.274   5.923  0.7244  0.3835 -0.2733
  736MOL0     H97136   1.063  11.171   5.686  0.9090  0.5663  1.2312
  736MOL0     H97137   1.273  11.285   5.579 -0.2042  0.5698  0.7961
  736MOL0     H97138   1.581  10.483   5.863  0.0995 -0.3369 -2.5293
  736MOL0     H97139   1.436  10.333   5.990 -0.6278 -0.6445  1.1303
  736MOL0     H97140   1.378   9.728   6.066  0.2113  1.6645 -0.7239
  736MOL0     H97141   1.268   9.608   6.273  0.7423  0.2225  0.9495
  736MOL0     H97142   1.250   9.536   6.488  0.4149 -0.2990  1.1313
  736MOL0     H97143   1.099   9.573   6.418 -0.2318  1.8359  0.0966
  736MOL0     H97144   1.038   9.451   6.617  0.6572 -0.1370  0.8238
  736MOL0     H97145   1.136   9.556   6.723  2.9110 -3.8183 -1.7818
  736MOL0     H97146   0.843   9.579   6.665  0.1567  1.1273  0.7156
  736MOL0     H97147   0.926   9.675   6.544 -1.1710  0.2223  0.2196
  736MOL0     H97148   0.947   9.718   6.848  0.2203  0.1836 -0.6130
  736MOL0     H97149   1.032   9.804   6.727 -0.6428  0.7001 -1.3790
  736MOL0     H97150   0.617   9.946   6.761  2.0119  2.7606 -2.0339
  736MOL0     H97151   1.285   9.967   6.492  0.1647  2.5131 -0.9035
  736MOL0     H97152   1.417  10.073   6.293  1.9123 -1.1715 -1.5831
  737MOL0     O97153   7.441   8.986   6.489  0.1376  0.6114  1.1145
  737MOL0     C97154   7.384   8.926   6.397  0.8824 -0.4268  0.1542
  737MOL0     O97155   7.450   8.863   6.298  0.2374  0.1045  0.5019
  737MOL0     C97156   7.586   8.841   6.320 -0.0215 -0.6210  0.7062
  737MOL0     C97157   7.675   8.929   6.253  0.2616 -0.3902  0.0772
  737MOL0     C97158   7.813   8.910   6.252 -0.4861  0.2011 -0.5359
  737MOL0     C97159   7.875   8.801   6.313  0.4149  0.0042  0.2415
  737MOL0     O97160   8.004   8.777   6.320  0.8146 -0.2562 -0.2919
  737MOL0     C97161   8.096   8.887   6.353 -0.1663  0.3746  0.7196
  737MOL0     C97162   8.232   8.842   6.305 -1.3815  0.4860 -0.8418
  737MOL0     C97163   8.349   8.921   6.340  0.0187  0.0430  0.4429
  737MOL0     C97164   8.365   9.049   6.268 -0.0096 -0.0918 -0.1115
  737MOL0     C97165   8.464   9.137   6.335  0.2411 -0.1976 -0.9689
  737MOL0     C97166   8.507   9.245   6.239  0.3053  0.8030 -0.8417
  737MOL0     C97167   8.595   9.357   6.307  0.5069 -0.3047  0.0510
  737MOL0     C97168   8.627   9.459   6.204 -0.0690  0.0974 -0.0507
  737MOL0     N97169   8.520   9.533   6.137  0.7208  0.6972 -0.0577
  737MOL0     C97170   8.457   9.648   6.181  0.2493 -1.1486  0.7851
  737MOL0     C97171   8.414   9.704   6.067  1.0030 -0.9672  0.2620
  737MOL0     C97172   8.335   9.833   6.053 -0.1979  0.5114  0.3568
  737MOL0     C97173   8.402   9.942   6.137  0.1695  0.8774 -0.0116
  737MOL0     C97174   8.529   9.988   6.072 -0.2921 -1.1028 -0.1847
  737MOL0     C97175   8.631  10.012   6.191  0.2150  0.4251 -0.4332
  737MOL0     O97176   8.749  10.083   6.137  0.5375  0.1407 -0.9803
  737MOL0     C97177   8.846  10.117   6.226  0.2224 -0.2503 -0.1506
  737MOL0     C97178   8.920  10.224   6.178 -0.1067 -0.4111  0.4793
  737MOL0     C97179   9.019  10.275   6.264  0.5904  0.1332  0.3180
  737MOL0     C97180   9.051  10.211   6.383 -0.4091 -0.2359 -0.1127
  737MOL0     C97181   9.171  10.249   6.467 -0.1311  0.1210 -0.0224
  737MOL0     O97182   9.225  10.155   6.540 -0.8713  0.3192 -0.5505
  737MOL0     C97183   9.352  10.176   6.580 -0.2252 -0.1551 -0.3763
  737MOL0     C97184   9.460  10.155   6.494 -0.6185  0.1393  0.5184
  737MOL0     C97185   9.590  10.170   6.533  0.5724  0.7270  1.3514
  737MOL0     C97186   9.625  10.227   6.651  0.3656 -0.0884 -0.9128
  737MOL0     O97187   9.755  10.248   6.690 -0.6321 -0.2467 -0.1681
  737MOL0     C97188   9.830  10.344   6.615 -0.3235  0.5787  0.3459
  737MOL0     C97189   9.902  10.283   6.495  0.7317  0.1941 -0.5796
  737MOL0     C97190   9.943  10.133   6.515  0.8347  0.1524  0.8232
  737MOL0     C97191  10.005  10.066   6.394  0.5316 -0.0422  0.8319
  737MOL0     C97192  10.164  10.086   6.382  0.0963  0.2113 -0.4187
  737MOL0     C97193  10.247  10.050   6.509  0.4437 -0.1364 -0.0967
  737MOL0     C97194  10.271   9.903   6.512  0.1182  0.4626  0.7556
  737MOL0     C97195  10.355   9.835   6.400 -1.3706 -0.2705  1.0076
  737MOL0    Cl97196  10.385   9.664   6.434 -0.1950 -0.2741  0.2457
  737MOL0     C97197   9.515  10.254   6.737 -0.1881  0.9410 -0.3313
  737MOL0     C97198   9.381  10.218   6.705  0.1959  0.2323 -0.6654
  737MOL0     O97199   9.223  10.360   6.449  0.8220  0.8597 -0.3005
  737MOL0     C97200   8.969  10.114   6.437 -0.9111 -0.7241  0.4209
  737MOL0     C97201   8.867  10.056   6.353 -0.0547 -0.2478 -0.1013
  737MOL0     N97202   8.448   9.618   5.960 -0.6459  0.8698 -0.7421
  737MOL0     N97203   8.511   9.515   6.000 -0.4944  0.0208  0.5224
  737MOL0     C97204   7.791   8.711   6.389  0.1991 -0.2892  1.3298
  737MOL0     C97205   7.653   8.735   6.385 -0.6896  0.8599  0.0702
  737MOL0     C97206   7.232   8.921   6.397  0.0717 -0.1620 -0.3243
  737MOL0     C97207   7.155   8.899   6.277  0.1319 -0.8286  0.2001
  737MOL0     C97208   7.018   8.885   6.283  0.6019  0.4571  0.1333
  737MOL0     C97209   6.944   8.902   6.405  0.1763  0.0423  0.5893
  737MOL0     O97210   6.808   8.912   6.414 -0.0950 -0.1706 -0.4102
  737MOL0     C97211   6.711   8.879   6.310  0.4551  0.0138 -0.0769
  737MOL0     C97212   6.600   8.987   6.289 -0.5725 -0.1029  0.2649
  737MOL0     C97213   6.641   9.100   6.187  0.7200 -0.2394  0.3380
  737MOL0     C97214   6.737   9.206   6.221 -0.4455  0.5579  1.2635
  737MOL0     C97215   6.750   9.297   6.107  0.9044  1.0326  0.0851
  737MOL0     C97216   6.739   9.385   6.019 -0.0350  0.7708  0.0370
  737MOL0     C97217   7.018   8.932   6.512 -0.0969 -0.6310 -0.3876
  737MOL0     C97218   7.155   8.943   6.514  0.3591  0.2444  0.4880
  737MOL0     H97219   7.644   9.015   6.195  1.7059 -0.4775 -0.8688
  737MOL0     H97220   7.877   8.968   6.186 -1.1033  0.0231 -1.3112
  737MOL0     H97221   8.086   8.925   6.455  0.7028  0.5723  0.7346
  737MOL0     H97222   8.060   8.967   6.288 -1.0513 -2.6141 -2.8626
  737MOL0     H97223   8.232   8.830   6.196  1.5475  2.5177 -1.1997
  737MOL0     H97224   8.243   8.743   6.349 -0.5970 -0.3933 -2.8654
  737MOL0     H97225   8.440   8.866   6.317 -2.4093 -3.2854 -2.3078
  737MOL0     H97226   8.350   8.926   6.450  1.0620 -2.2684  0.5837
  737MOL0     H97227   8.386   9.025   6.163  0.7302  0.7649 -0.1679
  737MOL0     H97228   8.271   9.099   6.244  1.0105  0.1152 -4.6999
  737MOL0     H97229   8.546   9.071   6.363 -0.4067 -0.7450 -0.3248
  737MOL0     H97230   8.442   9.195   6.425  0.4725  2.6321 -2.5930
  737MOL0     H97231   8.419   9.290   6.192 -0.3084  0.8176  0.2771
  737MOL0     H97232   8.575   9.203   6.164  1.1938  1.6052 -0.5019
  737MOL0     H97233   8.544   9.415   6.384 -0.0185 -1.1351  0.3489
  737MOL0     H97234   8.687   9.324   6.356  2.6003  4.1639 -0.3797
  737MOL0     H97235   8.682   9.406   6.126  0.4806  1.1655 -0.4046
  737MOL0     H97236   8.703   9.525   6.248  2.6206 -1.5160 -1.9353
  737MOL0     H97237   8.439   9.684   6.282 -1.7252  2.1984 -0.5823
  737MOL0     H97238   8.236   9.804   6.091  2.3236 -4.5846  4.3134
  737MOL0     H97239   8.336   9.866   5.949 -0.5337  1.4620  0.6487
  737MOL0     H97240   8.420   9.894   6.234 -0.1160  2.3951  0.8230
  737MOL0     H97241   8.328  10.023   6.142 -3.1882 -2.0143  0.6270
  737MOL0     H97242   8.567   9.921   5.994 -0.2546  0.3947 -1.4969
  737MOL0     H97243   8.513  10.081   6.016  1.6939 -0.6769 -0.1226
  737MOL0     H97244   8.660   9.913   6.227 -3.2746 -0.0052  1.5727
  737MOL0     H97245   8.594  10.082   6.266  2.1329  0.8086  0.2035
  737MOL0     H97246   8.904  10.278   6.085  1.5698  1.6259  1.3049
  737MOL0     H97247   9.076  10.362   6.232  0.7559  1.7101  4.3763
  737MOL0     H97248   9.423  10.131   6.395  0.6635 -2.1199  0.5214
  737MOL0     H97249   9.664  10.149   6.456  1.2156 -0.2069  2.1780
  737MOL0     H97250   9.908  10.384   6.680 -0.4130  2.9319 -0.9037
  737MOL0     H97251   9.774  10.431   6.580 -0.2887  0.9556  1.2148
  737MOL0     H97252   9.981  10.358   6.479  1.0368  0.2073  0.8993
  737MOL0     H97253   9.836  10.278   6.407  0.4450  0.5459 -0.3856
  737MOL0     H97254   9.863  10.067   6.546  0.2695  1.7334  2.9462
  737MOL0     H97255  10.018  10.137   6.594  4.3091 -3.0486 -1.9574
  737MOL0     H97256   9.991   9.958   6.406  1.4480 -0.3369 -0.5614
  737MOL0     H97257   9.954  10.111   6.309  1.2673 -1.3500 -0.3268
  737MOL0     H97258  10.163  10.195   6.369  0.4862 -0.1497 -5.0556
  737MOL0     H97259  10.203  10.047   6.288  2.5870  1.0228  0.1968
  737MOL0     H97260  10.205  10.085   6.604 -0.6382  0.1456 -0.6628
  737MOL0     H97261  10.346  10.093   6.495  0.7373 -1.1184 -1.2201
  737MOL0     H97262  10.317   9.890   6.611  0.0971 -1.5622  0.5363
  737MOL0     H97263  10.175   9.850   6.507 -0.8819  1.9754  2.5819
  737MOL0     H97264  10.443   9.892   6.368 -2.1698 -0.4685 -1.8414
  737MOL0     H97265  10.307   9.847   6.303  0.8599  0.5979 -0.0560
  737MOL0     H97266   9.516  10.300   6.836  0.1391  0.2726 -0.0206
  737MOL0     H97267   9.301  10.245   6.773 -1.1604 -1.6748 -1.4154
  737MOL0     H97268   8.996  10.070   6.533  1.2033  1.4307  0.8998
  737MOL0     H97269   8.801   9.977   6.386  0.3037 -0.0998  1.0035
  737MOL0     H97270   7.819   8.628   6.454  0.6484 -0.2059  1.2474
  737MOL0     H97271   7.592   8.663   6.437  1.3887 -0.4960  0.7388
  737MOL0     H97272   7.205   8.893   6.180 -3.2545  0.8979 -1.8527
  737MOL0     H97273   6.954   8.876   6.196  1.7295 -0.3730 -0.6299
  737MOL0     H97274   6.655   8.792   6.347 -1.1003  0.9067 -0.2611
  737MOL0     H97275   6.751   8.863   6.210 -0.3754  3.3640 -1.0536
  737MOL0     H97276   6.514   8.935   6.246 -2.0257  2.8784 -0.7310
  737MOL0     H97277   6.573   9.011   6.392  0.4224  0.9440  0.3059
  737MOL0     H97278   6.545   9.146   6.160  1.3396  1.3972  0.7761
  737MOL0     H97279   6.674   9.047   6.097 -1.0185 -1.0138  0.1141
  737MOL0     H97280   6.696   9.257   6.308 -1.1594  1.4067  0.4442
  737MOL0     H97281   6.833   9.156   6.237  0.8325  1.5525 -2.2336
  737MOL0     H97282   6.726   9.454   5.939  1.8087  1.2004  0.0635
  737MOL0     H97283   6.964   8.957   6.603 -3.9254  0.2337 -2.6794
  737MOL0     H97284   7.230   8.969   6.588  1.2148  0.3829 -0.3992
  738MOL0     O97285   1.309   5.744   4.555  0.3440  0.3016  0.5450
  738MOL0     C97286   1.201   5.733   4.503 -1.0733 -0.1688 -0.0959
  738MOL0     O97287   1.104   5.648   4.544  0.2674  0.3381 -0.6380
  738MOL0     C97288   1.137   5.574   4.650  0.4815  0.0876  0.3078
  738MOL0     C97289   1.086   5.598   4.777  0.5609  0.2842 -1.2002
  738MOL0     C97290   1.129   5.516   4.884 -0.2079  0.2035 -0.0881
  738MOL0     C97291   1.226   5.418   4.859  0.0728 -0.2033  0.6279
  738MOL0     O97292   1.255   5.339   4.966 -0.1846 -0.8350  0.0867
  738MOL0     C97293   1.335   5.222   4.949 -0.1098  0.2800  0.0297
  738MOL0     C97294   1.477   5.246   5.002  0.0408  1.0728 -0.7672
  738MOL0     C97295   1.551   5.122   5.037  0.3301 -0.3382 -0.4267
  738MOL0     C97296   1.704   5.134   5.068  0.8041 -0.6070 -0.6603
  738MOL0     C97297   1.723   5.239   5.170  0.4742  0.6982  0.7544
  738MOL0     C97298   1.859   5.258   5.217 -0.2314  0.1561  0.4034
  738MOL0     C97299   1.887   5.388   5.293  0.9097 -0.2286 -0.3391
  738MOL0     C97300   2.027   5.375   5.355 -0.6178  0.0677  0.4447
  738MOL0     N97301   2.066   5.490   5.433 -0.5914 -1.1873 -0.0944
  738MOL0     C97302   2.159   5.588   5.397  1.0501  0.1337 -0.7309
  738MOL0     C97303   2.175   5.675   5.505  0.3780 -0.1912 -1.1471
  738MOL0     C97304   2.285   5.761   5.536  0.4636  1.1592 -0.0747
  738MOL0     C97305   2.320   5.884   5.448 -1.4842 -0.7337  0.3410
  738MOL0     C97306   2.216   5.990   5.420 -0.3166  0.3550 -0.1032
  738MOL0     C97307   2.251   6.115   5.348  0.1520  0.1649  0.2032
  738MOL0     O97308   2.136   6.187   5.300  0.3008  0.0620 -0.8368
  738MOL0     C97309   2.137   6.314   5.248 -0.2144 -0.3250 -0.1887
  738MOL0     C97310   2.022   6.357   5.180 -0.2841 -0.5199 -0.1365
  738MOL0     C97311   2.019   6.481   5.106  0.6783 -0.2088 -0.2583
  738MOL0     C97312   2.137   6.559   5.099  0.3220 -0.7586 -0.3330
  738MOL0     C97313   2.131   6.695   5.037  0.3411 -0.4554  0.8072
  738MOL0     O97314   2.004   6.747   5.024 -0.0489 -0.5741 -0.3502
  738MOL0     C97315   1.989   6.873   4.980  0.2363 -0.2209 -1.0354
  738MOL0     C97316   1.986   6.982   5.060  0.2534 -0.4127 -1.4958
  738MOL0     C97317   1.973   7.113   5.005  1.5044 -0.2139 -0.9453
  738MOL0     C97318   1.930   7.131   4.875  0.4496 -0.2586  0.8949
  738MOL0     O97319   1.909   7.244   4.807 -0.4458 -0.1969  0.0593
  738MOL0     C97320   1.887   7.363   4.882 -0.9667  0.7808  0.2095
  738MOL0     C97321   1.755   7.372   4.955  0.5081  0.5430 -0.0893
  738MOL0     C97322   1.728   7.524   4.984  0.1407  0.2452  0.1648
  738MOL0     C97323   1.583   7.531   5.048  0.2419 -0.2171 -0.6565
  738MOL0     C97324   1.518   7.659   5.045  0.3478 -0.3455 -0.1076
  738MOL0     C97325   1.619   7.763   5.110 -0.1417  0.4240 -0.9881
  738MOL0     C97326   1.560   7.891   5.140  0.2286  0.3655  0.4108
  738MOL0     C97327   1.634   7.984   5.223 -0.1531  0.1225  0.6861
  738MOL0    Cl97328   1.783   8.013   5.138  0.2720 -0.2093 -0.3795
  738MOL0     C97329   1.918   7.023   4.794 -1.3124  0.1566 -0.5175
  738MOL0     C97330   1.946   6.892   4.854  0.3926 -0.2059 -0.2478
  738MOL0     O97331   2.233   6.759   5.010  0.2169  0.1081 -0.3572
  738MOL0     C97332   2.251   6.515   5.170  0.2296  0.4248 -0.2178
  738MOL0     C97333   2.257   6.391   5.239  0.4101  0.3559 -0.4307
  738MOL0     N97334   2.090   5.615   5.606 -0.5453 -0.1124  1.0691
  738MOL0     N97335   2.043   5.506   5.562  0.0451 -0.2906 -0.2349
  738MOL0     C97336   1.285   5.412   4.743 -0.8809  0.9574 -0.6052
  738MOL0     C97337   1.242   5.480   4.635  0.7693  0.1785  0.2672
  738MOL0     C97338   1.171   5.816   4.388 -0.2357 -0.0224  0.9081
  738MOL0     C97339   1.274   5.895   4.314 -0.4760 -0.0409 -1.0233
  738MOL0     C97340   1.246   5.957   4.193  0.2904  0.0179  0.9687
  738MOL0     C97341   1.119   5.945   4.134  0.2674  1.1212  0.3836
  738MOL0     O97342   1.087   6.018   4.023 -0.0775 -0.8640  0.5308
  738MOL0     C97343   1.179   6.115   3.966 -0.8130 -0.7688 -0.5325
  738MOL0     C97344   1.121   6.141   3.827  0.5973 -0.3739  0.2527
  738MOL0     C97345   1.216   6.255   3.773  0.8521 -0.6370  0.2455
  738MOL0     C97346   1.171   6.400   3.807  0.5946  0.2692  0.4685
  738MOL0     C97347   1.189   6.494   3.694  0.0387  0.3891  0.3847
  738MOL0     C97348   1.185   6.586   3.619 -1.1299 -0.0634  0.3980
  738MOL0     C97349   1.017   5.876   4.208 -1.0194  0.5572 -0.2529
  738MOL0     C97350   1.046   5.803   4.323  1.1867 -0.1273 -0.9648
  738MOL0     H97351   1.011   5.667   4.815  0.4170 -1.5408  2.2482
  738MOL0     H97352   1.136   5.554   4.985  0.4781  4.1815 -1.4415
  738MOL0     H97353   1.318   5.162   4.859  0.7916 -1.9738  1.2820
  738MOL0     H97354   1.309   5.142   5.019  2.2466  0.2433  0.9297
  738MOL0     H97355   1.479   5.294   5.101  3.1839  2.3295 -1.3405
  738MOL0     H97356   1.541   5.305   4.937  0.8921 -1.5206 -2.4248
  738MOL0     H97357   1.549   5.052   4.954 -0.6245  2.6418 -3.1447
  738MOL0     H97358   1.508   5.072   5.125  0.7111 -1.9125 -1.1073
  738MOL0     H97359   1.755   5.043   5.101  2.1996 -0.5675 -2.5218
  738MOL0     H97360   1.761   5.174   4.983 -1.0563  2.1477 -0.7062
  738MOL0     H97361   1.652   5.211   5.248 -0.5588  0.9269 -0.0962
  738MOL0     H97362   1.686   5.333   5.129  0.0804  0.1260 -0.2325
  738MOL0     H97363   1.916   5.256   5.124  1.1270 -1.0020  1.2115
  738MOL0     H97364   1.913   5.174   5.262 -0.2398 -0.7626 -1.2096
  738MOL0     H97365   1.875   5.478   5.233  0.0900  0.3819  0.7055
  738MOL0     H97366   1.808   5.406   5.366  0.7048 -0.1463 -0.5801
  738MOL0     H97367   2.108   5.367   5.283  0.6502  0.6208  1.7482
  738MOL0     H97368   2.029   5.284   5.415 -2.9112 -0.3976 -0.0724
  738MOL0     H97369   2.208   5.607   5.303  1.9969  0.0494 -0.2646
  738MOL0     H97370   2.367   5.688   5.545 -3.7126 -4.0360  1.1740
  738MOL0     H97371   2.256   5.801   5.633 -0.6137 -1.5871  0.8265
  738MOL0     H97372   2.363   5.850   5.353 -2.5102  1.2169 -0.9062
  738MOL0     H97373   2.402   5.934   5.500 -1.2147 -0.2603 -0.5204
  738MOL0     H97374   2.143   5.936   5.359  0.1965 -1.9157  1.2122
  738MOL0     H97375   2.168   6.004   5.517 -1.2783  1.9137 -0.7565
  738MOL0     H97376   2.310   6.088   5.260  0.7723  0.5992  0.4835
  738MOL0     H97377   2.303   6.177   5.421  2.7084 -1.5630 -0.0314
  738MOL0     H97378   1.930   6.299   5.172  1.0280 -2.4020 -4.5996
  738MOL0     H97379   1.924   6.509   5.061  0.3164 -4.9691 -3.1181
  738MOL0     H97380   2.015   6.974   5.164  1.2813 -0.3195 -1.7647
  738MOL0     H97381   1.974   7.197   5.073 -0.3683 -0.0142 -1.1057
  738MOL0     H97382   1.897   7.451   4.818  2.9435  0.4901  0.1787
  738MOL0     H97383   1.963   7.381   4.958 -0.4742 -3.2244  0.8941
  738MOL0     H97384   1.760   7.306   5.043  1.0892 -0.1395 -0.6225
  738MOL0     H97385   1.670   7.332   4.899  1.0591 -1.0281  0.1542
  738MOL0     H97386   1.722   7.577   4.888  2.9120  1.7662  0.7127
  738MOL0     H97387   1.809   7.571   5.041  2.2511 -0.0399 -2.4015
  738MOL0     H97388   1.517   7.464   4.992  1.9237 -3.4119  0.8396
  738MOL0     H97389   1.581   7.490   5.150 -2.3945  1.6147  0.1200
  738MOL0     H97390   1.422   7.663   5.098  0.1376  0.9503 -0.5564
  738MOL0     H97391   1.503   7.687   4.941 -2.9604 -0.2629  0.2870
  738MOL0     H97392   1.709   7.777   5.050  0.4025 -0.2918 -0.3554
  738MOL0     H97393   1.642   7.718   5.207 -1.6794  1.4873 -0.0901
  738MOL0     H97394   1.536   7.932   5.041 -0.5596  2.7112  1.4975
  738MOL0     H97395   1.456   7.886   5.173  1.5248 -2.7606  4.9052
  738MOL0     H97396   1.650   7.951   5.326  2.5283  1.7409  0.8717
  738MOL0     H97397   1.571   8.074   5.226  1.3276  1.2623 -0.8780
  738MOL0     H97398   1.895   7.019   4.688  1.2381 -0.0832 -1.1418
  738MOL0     H97399   1.955   6.804   4.792  1.8593 -1.9331  2.2308
  738MOL0     H97400   2.339   6.577   5.187 -0.5445  1.6306 -0.4227
  738MOL0     H97401   2.348   6.357   5.287  1.2831  4.3369  1.1314
  738MOL0     H97402   1.363   5.337   4.741  0.7762  2.4922  1.8524
  738MOL0     H97403   1.283   5.461   4.536 -1.4099 -1.5225 -0.3849
  738MOL0     H97404   1.369   5.900   4.366 -1.4948 -0.1303  0.9179
  738MOL0     H97405   1.323   6.022   4.153 -0.2149 -0.9645 -1.8053
  738MOL0     H97406   1.276   6.065   3.955  0.5016  1.3638  0.7627
  738MOL0     H97407   1.184   6.205   4.027  0.7761  0.6850 -2.6958
  738MOL0     H97408   1.124   6.050   3.767 -4.6219 -0.8914  0.3459
  738MOL0     H97409   1.015   6.167   3.833  0.1723 -2.1015  0.6738
  738MOL0     H97410   1.195   6.238   3.667 -1.0389 -0.5135  0.5637
  738MOL0     H97411   1.319   6.237   3.806  0.4596 -1.4680  1.0746
  738MOL0     H97412   1.065   6.385   3.827  0.5513 -0.8064 -0.5233
  738MOL0     H97413   1.211   6.434   3.904 -1.9956 -1.5332  2.2823
  738MOL0     H97414   1.191   6.659   3.540 -0.4873 -2.4929 -1.9667
  738MOL0     H97415   0.919   5.870   4.161 -0.2393 -2.1635 -1.6761
  738MOL0     H97416   0.968   5.739   4.362  0.4153  0.5567 -1.3397
  739MOL0     O97417   6.862   8.694   0.765 -0.4421 -0.4436  0.3663
  739MOL0     C97418   6.926   8.632   0.679  0.1454  0.4323  0.6369
  739MOL0     O97419   7.062   8.628   0.657 -0.0357  1.0155 -0.4476
  739MOL0     C97420   7.152   8.697   0.736  0.2173  0.2460  0.0229
  739MOL0     C97421   7.276   8.715   0.682 -1.5815 -1.2807 -0.3055
  739MOL0     C97422   7.378   8.766   0.760  0.4916  0.3597 -0.3807
  739MOL0     C97423   7.370   8.766   0.907 -0.6601 -0.1499  0.3410
  739MOL0     O97424   7.479   8.800   0.992  0.3849  0.7204 -0.3325
  739MOL0     C97425   7.596   8.877   0.929  0.3761  0.6328  0.0777
  739MOL0     C97426   7.708   8.893   1.035  0.1216  0.4963  0.8413
  739MOL0     C97427   7.643   8.942   1.175 -0.3305  0.3524  0.1402
  739MOL0     C97428   7.775   8.973   1.263 -0.1904  0.5519 -0.0605
  739MOL0     C97429   7.760   9.070   1.376 -0.7032 -0.4004 -0.9251
  739MOL0     C97430   7.783   9.215   1.341  0.0230  0.4458  0.0591
  739MOL0     C97431   7.764   9.306   1.468 -0.2191  0.7092 -0.1379
  739MOL0     C97432   7.652   9.404   1.446  0.1796  0.1549  0.7482
  739MOL0     N97433   7.620   9.495   1.558 -0.0145  0.7039 -0.3766
  739MOL0     C97434   7.712   9.560   1.630  0.2402  0.2790  0.3081
  739MOL0     C97435   7.644   9.615   1.733  0.9844 -0.4945 -0.0777
  739MOL0     C97436   7.689   9.712   1.842  0.1149  0.1128 -0.2292
  739MOL0     C97437   7.728   9.849   1.794  0.5948 -1.0802  0.1555
  739MOL0     C97438   7.758   9.945   1.908  0.1310 -1.2399  0.7005
  739MOL0     C97439   7.773  10.095   1.874  0.0287 -0.6730 -0.3990
  739MOL0     O97440   7.857  10.169   1.971 -0.3161  0.2063 -0.0804
  739MOL0     C97441   7.879  10.302   1.940 -1.5510  0.4775 -0.3146
  739MOL0     C97442   7.892  10.354   1.805  0.1774 -0.4394 -0.6529
  739MOL0     C97443   7.926  10.488   1.779  0.1156 -0.3101 -0.4799
  739MOL0     C97444   7.943  10.587   1.884  0.1326 -0.5147  0.4758
  739MOL0     C97445   7.963  10.728   1.860 -0.3647 -0.4259  0.4609
  739MOL0     O97446   8.002  10.807   1.963  0.4675 -0.6939 -0.3870
  739MOL0     C97447   8.006  10.949   1.949 -0.6810 -0.3234  0.6116
  739MOL0     C97448   7.884  11.019   1.924 -0.8926 -0.5149 -0.6712
  739MOL0     C97449   7.895  11.160   1.923  0.3556  0.3666 -0.3199
  739MOL0     C97450   8.005  11.229   1.947  0.3425 -0.1346 -0.7144
  739MOL0     O97451   7.995  11.368   1.926 -0.4382 -0.7742  0.1809
  739MOL0     C97452   8.101  11.424   1.841 -0.1084 -0.0737 -0.2193
  739MOL0     C97453   8.034  11.549   1.769 -0.1658  0.9429 -0.0756
  739MOL0     C97454   8.097  11.584   1.623  0.2423  0.0375 -0.2270
  739MOL0     C97455   8.256  11.616   1.626  0.0682  1.1086 -0.8182
  739MOL0     C97456   8.325  11.600   1.487 -0.2754  0.2086  0.2690
  739MOL0     C97457   8.270  11.711   1.409  0.3290  0.1242  1.2189
  739MOL0     C97458   8.341  11.713   1.268 -0.1205 -0.4463  0.0878
  739MOL0     C97459   8.279  11.819   1.182 -1.5609  0.3869  0.2179
  739MOL0    Cl97460   8.353  11.810   1.020 -0.1794 -0.0068  0.1052
  739MOL0     C97461   8.125  11.162   1.981 -0.5571  0.7256  0.1296
  739MOL0     C97462   8.121  11.020   1.978  0.4736 -0.1234  0.2234
  739MOL0     O97463   7.918  10.774   1.754 -0.7043 -0.3744 -0.0979
  739MOL0     C97464   7.926  10.539   2.021 -0.7300 -0.0741 -0.8073
  739MOL0     C97465   7.900  10.400   2.038  0.1337 -0.9244  1.0790
  739MOL0     N97466   7.511   9.572   1.724  0.6859  0.0275 -0.1073
  739MOL0     N97467   7.501   9.501   1.620  0.0935  0.3763 -0.6017
  739MOL0     C97468   7.247   8.728   0.962  0.3248 -0.8987 -0.2343
  739MOL0     C97469   7.146   8.700   0.876 -1.2760 -0.2796 -0.0153
  739MOL0     C97470   6.850   8.542   0.592  0.2214 -0.1172 -0.5053
  739MOL0     C97471   6.710   8.523   0.618 -0.7930  0.2133  0.4550
  739MOL0     C97472   6.643   8.422   0.555  0.1761  1.0002 -0.1862
  739MOL0     C97473   6.690   8.367   0.437 -0.3965 -0.6739  0.8334
  739MOL0     O97474   6.618   8.283   0.353  0.1097 -0.2915  0.1368
  739MOL0     C97475   6.474   8.285   0.375  0.2408 -0.2322  0.0572
  739MOL0     C97476   6.404   8.201   0.268  1.0407  0.2152 -0.6733
  739MOL0     C97477   6.256   8.201   0.298 -0.1320  0.1004 -0.1539
  739MOL0     C97478   6.177   8.099   0.203  0.5191 -0.0130 -0.6268
  739MOL0     C97479   6.172   8.158   0.073  0.1628  0.1376 -0.5701
  739MOL0     C97480   6.188   8.200  -0.037 -0.5188 -0.5414  1.1527
  739MOL0     C97481   6.825   8.407   0.397 -0.1107  0.7985 -0.2731
  739MOL0     C97482   6.901   8.492   0.470  0.3118  0.2753 -0.8280
  739MOL0     H97483   7.293   8.690   0.578 -0.9095 -0.0416 -0.5110
  739MOL0     H97484   7.478   8.790   0.723  0.7619 -0.6210 -0.3175
  739MOL0     H97485   7.557   8.970   0.887 -1.0138  0.0963  0.1306
  739MOL0     H97486   7.647   8.812   0.858  0.3415  1.3582 -0.6201
  739MOL0     H97487   7.784   8.960   0.993 -1.9825  3.8697  2.0309
  739MOL0     H97488   7.742   8.791   1.054  1.9378  1.4900  3.5944
  739MOL0     H97489   7.576   8.870   1.221  1.8475 -3.1960 -1.7619
  739MOL0     H97490   7.583   9.033   1.170 -0.7240  0.0592 -0.7732
  739MOL0     H97491   7.802   8.876   1.306  0.6403  1.5838  1.8754
  739MOL0     H97492   7.861   8.998   1.199 -0.0130 -1.7500 -0.8184
  739MOL0     H97493   7.844   9.051   1.443 -1.1362  3.1390  0.8558
  739MOL0     H97494   7.668   9.050   1.433 -1.0823  2.8313 -0.1828
  739MOL0     H97495   7.722   9.239   1.254 -0.2329  0.2503  0.1837
  739MOL0     H97496   7.886   9.215   1.303 -0.1254  1.0828 -0.3715
  739MOL0     H97497   7.737   9.232   1.544 -1.4994  0.7539 -0.5292
  739MOL0     H97498   7.857   9.360   1.487  1.6068 -2.7720  2.0544
  739MOL0     H97499   7.565   9.342   1.422 -0.5585  1.2739  0.4399
  739MOL0     H97500   7.670   9.475   1.365  0.0358  1.3243  1.7062
  739MOL0     H97501   7.817   9.567   1.606  0.4469  1.6873  1.4050
  739MOL0     H97502   7.767   9.665   1.902 -1.1205 -1.2605  0.3550
  739MOL0     H97503   7.606   9.716   1.913  1.0595  2.0313  0.8576
  739MOL0     H97504   7.649   9.893   1.732  1.7868 -1.3752 -1.6421
  739MOL0     H97505   7.813   9.847   1.726  1.7607 -0.5347  1.5431
  739MOL0     H97506   7.672   9.943   1.975  0.0985 -3.8140  0.6701
  739MOL0     H97507   7.847   9.908   1.960 -0.8624 -1.4983  2.2883
  739MOL0     H97508   7.672  10.133   1.857  1.8534  4.7423 -1.3081
  739MOL0     H97509   7.828  10.107   1.779  3.5285 -0.4266  1.4979
  739MOL0     H97510   7.886  10.294   1.715  1.3960 -1.9661  0.2229
  739MOL0     H97511   7.928  10.530   1.679 -4.2112  2.3686  0.2635
  739MOL0     H97512   7.800  10.960   1.890  0.1735 -1.4976 -1.6716
  739MOL0     H97513   7.801  11.209   1.898  0.0543  0.0133  0.0962
  739MOL0     H97514   8.128  11.351   1.765 -3.1064 -0.0206 -1.4525
  739MOL0     H97515   8.191  11.462   1.892 -1.0761 -0.2113  1.6761
  739MOL0     H97516   8.044  11.627   1.845 -3.1189  0.1606  1.2671
  739MOL0     H97517   7.926  11.536   1.761 -0.2449  1.9089 -0.8252
  739MOL0     H97518   8.051  11.680   1.596 -1.6131  0.3985  3.5451
  739MOL0     H97519   8.095  11.507   1.545  3.8914 -0.3309 -0.1186
  739MOL0     H97520   8.275  11.716   1.666  4.3548  0.3587 -0.4988
  739MOL0     H97521   8.310  11.548   1.692  2.1158 -1.7612 -5.0094
  739MOL0     H97522   8.302  11.498   1.455  0.4232 -0.2105  1.0623
  739MOL0     H97523   8.434  11.611   1.489 -0.4186  1.7448  0.7584
  739MOL0     H97524   8.288  11.809   1.452 -2.0852  2.6578 -2.9165
  739MOL0     H97525   8.165  11.703   1.379  0.8384 -1.5432 -0.3513
  739MOL0     H97526   8.446  11.741   1.282  0.6428 -0.8159 -3.8973
  739MOL0     H97527   8.340  11.608   1.239  1.7499 -0.6667  0.6718
  739MOL0     H97528   8.294  11.922   1.216 -2.0444  0.6953 -0.4687
  739MOL0     H97529   8.173  11.794   1.166 -1.2128 -1.5335  0.6036
  739MOL0     H97530   8.221  11.203   2.012 -1.3190  2.4186  0.3835
  739MOL0     H97531   8.212  10.972   2.012  1.7214  1.7432 -0.2891
  739MOL0     H97532   7.941  10.615   2.097  2.9421  0.2245 -1.6482
  739MOL0     H97533   7.902  10.369   2.142 -2.5712  0.7543  1.7445
  739MOL0     H97534   7.225   8.745   1.067  0.0046  3.7842 -0.8340
  739MOL0     H97535   7.066   8.657   0.936 -0.3184 -1.2313  0.6302
  739MOL0     H97536   6.669   8.570   0.707  0.3189 -0.1135  1.1659
  739MOL0     H97537   6.548   8.392   0.596  0.0193 -0.2061 -1.3654
  739MOL0     H97538   6.429   8.385   0.369 -1.1900 -0.9085 -1.9033
  739MOL0     H97539   6.447   8.255   0.476  2.0378  2.6107  1.4947
  739MOL0     H97540   6.438   8.239   0.171  2.3523 -1.6492 -1.0026
  739MOL0     H97541   6.436   8.096   0.272 -0.2153 -0.2829 -2.4225
  739MOL0     H97542   6.212   8.299   0.280 -1.6788 -0.3244  1.1136
  739MOL0     H97543   6.238   8.174   0.402  1.4331 -1.6248 -0.2734
  739MOL0     H97544   6.238   8.009   0.196  0.5496 -0.2148  1.6764
  739MOL0     H97545   6.077   8.061   0.226  0.6331 -0.5255 -0.9682
  739MOL0     H97546   6.204   8.248  -0.131  2.9577  0.2702  2.0267
  739MOL0     H97547   6.867   8.357   0.310  2.8660  0.8039  1.0347
  739MOL0     H97548   7.005   8.498   0.441  1.4048 -0.3700  2.5323
  740MOL0     O97549   9.823  10.971   8.560 -0.4598  0.4575 -0.4625
  740MOL0     C97550   9.931  10.920   8.533 -1.0773 -0.2649  0.2890
  740MOL0     O97551  10.029  10.889   8.615 -0.2443  0.2398 -0.3436
  740MOL0     C97552   9.988  10.895   8.750  0.3223  0.3825  0.6571
  740MOL0     C97553  10.069  10.974   8.832  0.3118  0.0589 -0.1731
  740MOL0     C97554  10.054  10.962   8.973 -0.5741 -0.2526 -0.2942
  740MOL0     C97555   9.956  10.878   9.026 -0.8243 -0.3238 -0.0231
  740MOL0     O97556   9.932  10.838   9.160  0.1393 -0.0335 -0.7112
  740MOL0     C97557  10.029  10.864   9.260  0.2866  0.6796  0.2886
  740MOL0     C97558   9.985  10.802   9.390  0.0328  0.1229  0.6775
  740MOL0     C97559  10.001  10.656   9.372  0.5204 -0.4832  0.2780
  740MOL0     C97560   9.978  10.587   9.504 -0.9815 -0.9178 -0.0636
  740MOL0     C97561   9.835  10.564   9.552 -0.3256  0.0760  0.6254
  740MOL0     C97562   9.809  10.491   9.680 -1.2059  0.1285 -0.8312
  740MOL0     C97563   9.662  10.443   9.696 -0.8853 -0.4388  0.1891
  740MOL0     C97564   9.638  10.367   9.832 -0.2300  0.6193  0.3421
  740MOL0     N97565   9.498  10.322   9.843 -0.3010 -0.7166  0.4472
  740MOL0     C97566   9.441  10.196   9.825  0.1221 -0.4913  0.2841
  740MOL0     C97567   9.305  10.218   9.848 -0.9149 -0.7463  0.4472
  740MOL0     C97568   9.210  10.111   9.825  1.6935 -0.2749 -0.9169
  740MOL0     C97569   9.152  10.113   9.689  0.4655  0.2636  0.4342
  740MOL0     C97570   9.039  10.017   9.671 -0.9723  0.0848  0.5375
  740MOL0     C97571   9.018  10.005   9.521 -0.4619 -0.0379  0.2751
  740MOL0     O97572   8.925   9.897   9.499  0.3377 -0.2744  0.0282
  740MOL0     C97573   8.895   9.865   9.364  0.3163 -0.2682 -0.0702
  740MOL0     C97574   8.956   9.923   9.253  0.2058  0.0913 -0.7054
  740MOL0     C97575   8.944   9.867   9.128  0.6916  1.0227 -0.3377
  740MOL0     C97576   8.870   9.755   9.109 -0.1545  0.0526 -0.1097
  740MOL0     C97577   8.865   9.701   8.980 -0.5153 -1.0795  0.2421
  740MOL0     O97578   8.936   9.761   8.873 -1.2442 -0.1482  0.0879
  740MOL0     C97579   8.943   9.668   8.766 -0.6067 -0.1277  0.8237
  740MOL0     C97580   9.043   9.576   8.766  0.3387  0.5063 -0.5468
  740MOL0     C97581   9.050   9.475   8.663  0.5492  0.4165  0.2640
  740MOL0     C97582   8.962   9.489   8.557  0.4763  0.0969 -0.2603
  740MOL0     O97583   8.958   9.394   8.452 -0.1071 -0.1463  0.3478
  740MOL0     C97584   8.838   9.304   8.432 -0.2465  0.7018 -0.1228
  740MOL0     C97585   8.835   9.188   8.534 -0.8273  0.3879 -0.0868
  740MOL0     C97586   8.735   9.075   8.502  1.1567  0.1137  0.5430
  740MOL0     C97587   8.732   8.971   8.620 -0.6934 -0.0196 -1.2228
  740MOL0     C97588   8.668   8.840   8.588  0.4866 -0.4654 -0.8025
  740MOL0     C97589   8.657   8.730   8.696 -0.0025  0.2780  0.0147
  740MOL0     C97590   8.788   8.687   8.755 -0.5036 -0.3006 -0.3722
  740MOL0     C97591   8.782   8.555   8.826  0.3351  0.2383 -0.3251
  740MOL0    Cl97592   8.636   8.541   8.941 -0.0794  0.4457 -0.4612
  740MOL0     C97593   8.883   9.595   8.543  0.2047  0.4117  0.5216
  740MOL0     C97594   8.863   9.679   8.649 -1.0276 -0.5729 -0.9101
  740MOL0     O97595   8.804   9.591   8.983  0.1039  0.4670 -0.0997
  740MOL0     C97596   8.807   9.691   9.219 -0.7907  0.6700  0.9161
  740MOL0     C97597   8.821   9.747   9.344 -0.4129 -0.3700 -0.5618
  740MOL0     N97598   9.288  10.347   9.874  0.2304  0.3519 -0.2647
  740MOL0     N97599   9.399  10.411   9.875  0.9173  0.1937  0.2778
  740MOL0     C97600   9.878  10.812   8.941  0.1789 -0.4237  0.5877
  740MOL0     C97601   9.893  10.811   8.798 -0.4351  0.4846  0.4547
  740MOL0     C97602   9.973  10.937   8.387 -0.1035  0.2607 -0.0461
  740MOL0     C97603   9.899  11.018   8.295  0.4001  0.8304  0.2638
  740MOL0     C97604   9.935  11.031   8.154 -0.2008 -0.1396  0.3103
  740MOL0     C97605  10.052  10.971   8.121  0.5021 -0.0885  0.3736
  740MOL0     O97606  10.091  10.960   7.987 -0.0438  0.3616  0.3884
  740MOL0     C97607  10.047  10.845   7.919  0.6377  0.2706  0.4910
  740MOL0     C97608  10.149  10.793   7.823 -0.4482  0.9822  0.0615
  740MOL0     C97609  10.078  10.735   7.696 -0.6484 -0.5701  0.4009
  740MOL0     C97610   9.991  10.608   7.722  0.2476  0.7589 -0.4218
  740MOL0     C97611  10.060  10.501   7.784  0.7237 -0.2110  0.6318
  740MOL0     C97612  10.106  10.405   7.834 -0.4011  0.1158 -0.2164
  740MOL0     C97613  10.129  10.880   8.200 -0.6716  1.4680 -0.6294
  740MOL0     C97614  10.091  10.861   8.332 -0.8990  0.2605 -0.1298
  740MOL0     H97615  10.135  11.051   8.794 -2.6327  2.1952 -1.3292
  740MOL0     H97616  10.107  11.037   9.029 -2.0182 -0.8404  1.9802
  740MOL0     H97617  10.029  10.973   9.272 -0.4760  0.7908 -0.5931
  740MOL0     H97618  10.130  10.826   9.241 -0.7656 -3.4463  1.9386
  740MOL0     H97619   9.886  10.833   9.425  0.7271  1.5402  1.4751
  740MOL0     H97620  10.051  10.841   9.468 -0.1958 -1.4687  1.7095
  740MOL0     H97621  10.096  10.623   9.329  0.4039 -1.7407  0.9567
  740MOL0     H97622   9.927  10.626   9.297  0.1466  1.3351 -0.1437
  740MOL0     H97623  10.032  10.492   9.504  2.8781  1.0774 -0.3747
  740MOL0     H97624  10.022  10.641   9.589  0.8670 -3.8999  1.0352
  740MOL0     H97625   9.799  10.501   9.470 -2.9733  1.6653  0.4740
  740MOL0     H97626   9.777  10.656   9.562 -0.3436  0.1740 -0.2753
  740MOL0     H97627   9.833  10.557   9.764  1.4890 -2.2889  0.4571
  740MOL0     H97628   9.870  10.402   9.697 -2.7496 -0.5057  2.0509
  740MOL0     H97629   9.604  10.535   9.683  2.6532  1.9768  0.2983
  740MOL0     H97630   9.643  10.380   9.609  0.5655 -0.6515  0.0110
  740MOL0     H97631   9.661  10.432   9.917 -0.1567  1.9889 -0.6996
  740MOL0     H97632   9.689  10.270   9.832  0.3777  0.9362  0.4707
  740MOL0     H97633   9.490  10.104   9.794 -0.3316 -0.0068 -2.0583
  740MOL0     H97634   9.131  10.124   9.901  0.3093  0.8335 -2.4576
  740MOL0     H97635   9.257  10.013   9.830  3.2956  0.5040  0.2031
  740MOL0     H97636   9.232  10.093   9.617  1.3663 -0.6430  1.6471
  740MOL0     H97637   9.114  10.212   9.660 -1.0911 -0.8986 -1.8103
  740MOL0     H97638   9.064   9.922   9.719 -0.2371  0.9521  1.9150
  740MOL0     H97639   8.948  10.045   9.725 -1.7937 -0.5220 -0.4968
  740MOL0     H97640   9.110   9.978   9.469 -3.4272 -5.1007 -3.2499
  740MOL0     H97641   8.974  10.100   9.487 -1.1891 -0.2178  0.6918
  740MOL0     H97642   9.009  10.018   9.245 -0.0748  0.4140  0.8515
  740MOL0     H97643   8.986   9.924   9.046  1.8674  0.1693 -0.3529
  740MOL0     H97644   9.100   9.560   8.857  0.4345 -0.1947 -0.7247
  740MOL0     H97645   9.111   9.386   8.665 -1.2204 -0.8432  0.7888
  740MOL0     H97646   8.846   9.261   8.331  3.4789 -1.3693  0.8852
  740MOL0     H97647   8.745   9.359   8.447 -2.4623 -1.6468 -3.5842
  740MOL0     H97648   8.814   9.227   8.634 -0.6332  3.8419 -1.2702
  740MOL0     H97649   8.932   9.137   8.538  0.3763  2.2110 -2.8816
  740MOL0     H97650   8.772   9.025   8.412  0.0177 -0.2806  0.2775
  740MOL0     H97651   8.636   9.117   8.482  0.9551 -1.9161 -3.8784
  740MOL0     H97652   8.835   8.964   8.657  0.0765 -1.2288 -3.4344
  740MOL0     H97653   8.675   9.008   8.706  1.2822 -1.5075  0.8669
  740MOL0     H97654   8.715   8.802   8.497  1.0678 -0.5688 -0.4644
  740MOL0     H97655   8.570   8.866   8.547  0.7036 -0.1488 -1.1266
  740MOL0     H97656   8.616   8.642   8.645  1.6318 -0.5570  0.0729
  740MOL0     H97657   8.592   8.765   8.777 -2.0064  1.4436 -1.9740
  740MOL0     H97658   8.859   8.682   8.672  1.3146  2.5704  0.8341
  740MOL0     H97659   8.814   8.767   8.825  0.1532 -1.1738  0.3980
  740MOL0     H97660   8.875   8.534   8.879 -0.0279  0.0989  0.2617
  740MOL0     H97661   8.779   8.477   8.749  3.0791  1.6580 -2.0249
  740MOL0     H97662   8.815   9.622   8.463 -0.9749 -2.6986  0.3324
  740MOL0     H97663   8.786   9.755   8.642 -0.7637  0.2163  2.6984
  740MOL0     H97664   8.755   9.595   9.220 -0.6638  0.5493 -1.0406
  740MOL0     H97665   8.795   9.691   9.433  2.6229  2.3454  2.2960
  740MOL0     H97666   9.806  10.745   8.987  0.5121 -1.6455 -0.6093
  740MOL0     H97667   9.826  10.744   8.746  1.8287 -1.2469 -0.4184
  740MOL0     H97668   9.812  11.070   8.333 -1.1355 -1.5110  0.1728
  740MOL0     H97669   9.870  11.076   8.079  1.1460 -2.1899 -2.2393
  740MOL0     H97670   9.946  10.863   7.883  0.7881  2.8107  1.1937
  740MOL0     H97671  10.025  10.760   7.985 -2.7183 -1.6728 -2.7403
  740MOL0     H97672  10.227  10.857   7.781 -2.0755  0.5356 -4.0991
  740MOL0     H97673  10.197  10.705   7.867 -2.0856 -2.0176 -3.6209
  740MOL0     H97674  10.161  10.712   7.629 -2.2839  0.8091 -2.2832
  740MOL0     H97675  10.032  10.818   7.641  3.4219  3.4182  2.3689
  740MOL0     H97676   9.906  10.632   7.787  1.5869  0.9135  1.3683
  740MOL0     H97677   9.961  10.566   7.626  1.8404  0.4035 -0.7848
  740MOL0     H97678  10.142  10.318   7.886  0.4699  1.1122  0.9057
  740MOL0     H97679  10.203  10.813   8.157  0.0606  1.6897  0.2415
  740MOL0     H97680  10.146  10.788   8.390 -2.2449 -0.5677  0.1446
  741MOL0     O97681   2.170   6.710   2.223 -0.2330  0.1709 -0.4673
  741MOL0     C97682   2.256   6.736   2.303 -0.0241  0.2344 -0.4651
  741MOL0     O97683   2.382   6.710   2.288  0.1410  0.9919  0.1374
  741MOL0     C97684   2.419   6.627   2.186 -0.0192  0.2253  0.1359
  741MOL0     C97685   2.404   6.490   2.204  0.4609 -0.4172  0.9000
  741MOL0     C97686   2.435   6.395   2.100 -1.3011 -0.5725  0.9340
  741MOL0     C97687   2.476   6.441   1.974  0.3930 -0.4848 -0.2116
  741MOL0     O97688   2.501   6.349   1.876 -0.2012  0.1340 -0.7758
  741MOL0     C97689   2.429   6.223   1.887 -0.7181  0.0895  0.2418
  741MOL0     C97690   2.447   6.131   1.770  1.4171  0.3864  0.7630
  741MOL0     C97691   2.413   6.189   1.628  0.0799 -0.3364  0.2624
  741MOL0     C97692   2.378   6.085   1.528  0.0065 -0.1573  0.0360
  741MOL0     C97693   2.454   6.085   1.394 -0.0682 -0.5245  0.5490
  741MOL0     C97694   2.430   5.953   1.310 -0.1082  0.7230 -0.1703
  741MOL0     C97695   2.517   5.837   1.370 -1.0255  0.1680 -0.2009
  741MOL0     C97696   2.534   5.718   1.278 -0.2106 -0.0383 -0.5900
  741MOL0     N97697   2.641   5.624   1.320 -1.7323  0.9541 -0.5125
  741MOL0     C97698   2.749   5.582   1.237 -0.0538  0.0379 -0.0213
  741MOL0     C97699   2.824   5.494   1.304  0.0673 -0.7057 -0.2568
  741MOL0     C97700   2.967   5.436   1.264  0.4631  0.3430 -1.0586
  741MOL0     C97701   3.031   5.358   1.377  0.0095 -0.3158 -1.1953
  741MOL0     C97702   3.176   5.332   1.371 -1.3929  0.0758  0.2479
  741MOL0     C97703   3.204   5.245   1.258 -0.5768  0.2627  1.3779
  741MOL0     O97704   3.133   5.119   1.273 -0.2065 -0.4446  0.2424
  741MOL0     C97705   3.161   5.017   1.184 -1.1020 -0.4017 -0.1958
  741MOL0     C97706   3.268   5.010   1.096  0.6064 -0.2726  0.5476
  741MOL0     C97707   3.297   4.895   1.030 -0.5278 -0.8404 -0.0903
  741MOL0     C97708   3.207   4.783   1.040 -0.6444  0.1378  0.2154
  741MOL0     C97709   3.233   4.653   0.961 -0.2170  0.3073  0.3023
  741MOL0     O97710   3.151   4.548   0.970  0.6671 -0.2622  0.6851
  741MOL0     C97711   3.175   4.442   0.891  0.4957  0.2965 -0.7604
  741MOL0     C97712   3.061   4.386   0.828  0.1316 -0.0470 -0.8310
  741MOL0     C97713   3.061   4.261   0.764 -0.4487 -0.2317 -0.9029
  741MOL0     C97714   3.185   4.192   0.745 -0.0481  0.4491  0.2606
  741MOL0     O97715   3.211   4.078   0.673 -0.1730 -0.1424  0.0325
  741MOL0     C97716   3.105   4.022   0.599 -0.5648  0.1240 -0.4231
  741MOL0     C97717   3.137   3.865   0.587  0.1103  0.3900  0.0153
  741MOL0     C97718   3.159   3.781   0.721 -0.7141  0.1562 -0.0418
  741MOL0     C97719   3.044   3.797   0.822  0.3313 -0.2694  0.7531
  741MOL0     C97720   3.031   3.690   0.931  0.2081  0.6857  0.4186
  741MOL0     C97721   3.004   3.545   0.883  0.3303 -0.2397 -0.4157
  741MOL0     C97722   2.862   3.542   0.817  0.0711  0.6046 -0.2837
  741MOL0     C97723   2.837   3.407   0.759 -0.1697  0.7407 -0.6366
  741MOL0    Cl97724   2.859   3.414   0.583 -0.4786  0.0400 -0.5035
  741MOL0     C97725   3.298   4.252   0.794 -0.7079  0.0142  0.5879
  741MOL0     C97726   3.297   4.371   0.879  1.0002  1.0433  0.8975
  741MOL0     O97727   3.330   4.658   0.879 -0.2019  0.7970 -0.5338
  741MOL0     C97728   3.097   4.786   1.124 -0.5801  0.0878 -0.7222
  741MOL0     C97729   3.080   4.901   1.203 -0.3447 -0.6672  0.2506
  741MOL0     N97730   2.745   5.476   1.424  0.3891  0.6836  0.5285
  741MOL0     N97731   2.645   5.560   1.438 -0.1227 -0.7577  0.5930
  741MOL0     C97732   2.502   6.583   1.964  0.0712  0.2966  0.2638
  741MOL0     C97733   2.474   6.668   2.064  0.5610 -1.0307 -0.0550
  741MOL0     C97734   2.230   6.822   2.412  0.1636  0.3371  0.1681
  741MOL0     C97735   2.317   6.823   2.519 -0.5714  0.5007  0.3273
  741MOL0     C97736   2.287   6.895   2.631  0.8572  0.5923 -0.9267
  741MOL0     C97737   2.173   6.966   2.644  1.0073  0.1612 -0.3602
  741MOL0     O97738   2.147   7.045   2.756 -0.4442  0.0780  0.8766
  741MOL0     C97739   2.129   6.984   2.885  0.5908  0.3794  1.0103
  741MOL0     C97740   2.195   7.075   2.987  0.2003  0.4610  0.0252
  741MOL0     C97741   2.346   7.087   2.987 -0.8194 -0.2949 -0.9632
  741MOL0     C97742   2.404   7.190   3.083 -0.2296 -0.6779  0.8903
  741MOL0     C97743   2.383   7.332   3.063 -1.1058 -0.4936 -1.0330
  741MOL0     C97744   2.381   7.452   3.061 -0.1012  0.0901  0.4694
  741MOL0     C97745   2.082   6.963   2.541 -0.1801 -0.4067  0.4228
  741MOL0     C97746   2.112   6.903   2.425  0.8022  0.4100  0.7364
  741MOL0     H97747   2.347   6.455   2.290 -0.3434  0.7415  0.8704
  741MOL0     H97748   2.429   6.290   2.127  0.6208 -0.8338  0.4760
  741MOL0     H97749   2.326   6.243   1.915 -0.2701  1.6345  0.9044
  741MOL0     H97750   2.461   6.158   1.970  0.5450  2.7030  1.9360
  741MOL0     H97751   2.393   6.037   1.783  0.0015  1.1585  0.7359
  741MOL0     H97752   2.554   6.112   1.766  1.5252  1.0507  0.4261
  741MOL0     H97753   2.499   6.241   1.585  1.6935 -2.6198  0.5199
  741MOL0     H97754   2.335   6.265   1.637 -1.2717 -1.5699 -0.5498
  741MOL0     H97755   2.393   5.985   1.570 -2.2733 -0.2374  0.8278
  741MOL0     H97756   2.272   6.084   1.499  0.6225 -4.4528 -3.0349
  741MOL0     H97757   2.561   6.103   1.407  0.2033 -2.1670  0.9070
  741MOL0     H97758   2.432   6.171   1.330  2.5744 -0.5878 -0.5830
  741MOL0     H97759   2.463   5.987   1.212  2.6667 -1.1068  0.0322
  741MOL0     H97760   2.325   5.927   1.296  0.1879 -0.4660 -0.2808
  741MOL0     H97761   2.616   5.873   1.401 -0.8785 -0.5762  0.2288
  741MOL0     H97762   2.468   5.790   1.456 -2.6231 -1.0718 -1.7157
  741MOL0     H97763   2.574   5.763   1.186  2.3959 -0.9606 -0.0035
  741MOL0     H97764   2.435   5.674   1.264 -1.5358  2.3057  0.7432
  741MOL0     H97765   2.768   5.627   1.140 -1.4721  0.8583  0.0615
  741MOL0     H97766   3.029   5.520   1.230 -1.0100  1.4489 -1.1134
  741MOL0     H97767   2.946   5.367   1.182 -1.8494  1.5477 -1.5728
  741MOL0     H97768   2.984   5.261   1.392 -0.3917 -0.2902 -2.2719
  741MOL0     H97769   3.024   5.428   1.462 -2.3493 -0.9023 -0.8421
  741MOL0     H97770   3.229   5.427   1.360  0.9900 -1.3191 -1.2263
  741MOL0     H97771   3.208   5.293   1.468  0.9577  0.3761 -0.3509
  741MOL0     H97772   3.309   5.215   1.253 -0.2730  1.2594  1.7613
  741MOL0     H97773   3.196   5.290   1.159  3.3926 -3.0983 -0.7929
  741MOL0     H97774   3.327   5.097   1.068 -0.3667  0.3318  0.3308
  741MOL0     H97775   3.373   4.885   0.953 -0.1089  0.1354  0.1728
  741MOL0     H97776   2.967   4.439   0.842 -1.3540 -3.0737  1.8777
  741MOL0     H97777   2.961   4.222   0.745 -0.5500 -1.1722  1.1637
  741MOL0     H97778   3.100   4.059   0.496 -0.5245  2.3654  0.3289
  741MOL0     H97779   3.008   4.037   0.648 -0.7171 -0.2341 -0.6125
  741MOL0     H97780   3.228   3.854   0.528  0.2142  0.4462  0.1641
  741MOL0     H97781   3.049   3.823   0.538  0.4221 -1.8805  1.2418
  741MOL0     H97782   3.254   3.816   0.762  0.1293 -1.8990 -0.1147
  741MOL0     H97783   3.163   3.674   0.699 -1.8933 -0.0966  0.8906
  741MOL0     H97784   3.043   3.895   0.869 -0.0311 -0.9891  2.3334
  741MOL0     H97785   2.945   3.798   0.775  0.0300  1.1128  1.3734
  741MOL0     H97786   2.945   3.719   0.992 -0.3756 -1.2469  0.5814
  741MOL0     H97787   3.117   3.685   0.998  2.5321 -0.0652 -2.4100
  741MOL0     H97788   3.006   3.473   0.964 -2.1831 -0.4686 -0.4633
  741MOL0     H97789   3.079   3.504   0.815  0.8180 -0.8883  0.5002
  741MOL0     H97790   2.804   3.533   0.910 -1.2966 -1.2200 -1.2541
  741MOL0     H97791   2.813   3.627   0.767  0.9221  1.4243  0.2481
  741MOL0     H97792   2.737   3.371   0.784 -0.4493  0.4193 -2.1140
  741MOL0     H97793   2.905   3.339   0.810 -1.2322  1.2905  1.6206
  741MOL0     H97794   3.395   4.206   0.777  1.2071  2.7059  3.1070
  741MOL0     H97795   3.389   4.409   0.922  1.0661  3.6825 -1.3209
  741MOL0     H97796   3.025   4.705   1.122  1.1993 -1.6023  0.1704
  741MOL0     H97797   3.006   4.885   1.281  1.9707  1.6197  3.1708
  741MOL0     H97798   2.532   6.625   1.869  0.4122 -1.1286 -0.2834
  741MOL0     H97799   2.494   6.774   2.063  0.1103 -0.9069  1.4001
  741MOL0     H97800   2.410   6.768   2.518 -0.2061  1.0980  0.6563
  741MOL0     H97801   2.352   6.897   2.717 -0.1952 -1.6808  0.0265
  741MOL0     H97802   2.188   6.893   2.897  4.0896  2.4251  0.9737
  741MOL0     H97803   2.024   6.965   2.906  0.7390 -2.0937 -0.1453
  741MOL0     H97804   2.144   7.169   2.960 -0.2321  0.0848 -0.4879
  741MOL0     H97805   2.169   7.045   3.089  2.5872  0.7899  0.7786
  741MOL0     H97806   2.383   7.110   2.886  2.5184 -0.2699  0.1470
  741MOL0     H97807   2.386   6.988   3.011  0.3205  1.0057  3.4516
  741MOL0     H97808   2.364   7.162   3.180  0.7841 -1.5681  1.0700
  741MOL0     H97809   2.513   7.178   3.084 -0.2013 -0.4543  0.7010
  741MOL0     H97810   2.389   7.559   3.059  2.1527 -0.0498 -0.6441
  741MOL0     H97811   1.984   7.010   2.546  0.0377  0.1627 -0.4850
  741MOL0     H97812   2.042   6.913   2.343  1.6188  2.8753  0.2601
  742MOL0     O97813  11.471  11.444   0.560  0.6457  0.5003 -0.5930
  742MOL0     C97814  11.427  11.408   0.673  0.0461 -0.7176  0.6440
  742MOL0     O97815  11.325  11.473   0.746  0.2044 -0.4310 -0.1448
  742MOL0     C97816  11.269  11.582   0.680 -0.2853 -0.1539 -0.0297
  742MOL0     C97817  11.345  11.695   0.641  0.0812 -0.3780 -0.0670
  742MOL0     C97818  11.287  11.807   0.584 -0.1740 -0.1997 -0.8650
  742MOL0     C97819  11.144  11.805   0.561 -0.0548 -0.7731  0.0202
  742MOL0     O97820  11.084  11.911   0.499  0.9475 -0.0907  0.3971
  742MOL0     C97821  11.164  12.026   0.459 -0.0718 -0.0991  0.5107
  742MOL0     C97822  11.095  12.161   0.434  0.3411  0.9318  0.1349
  742MOL0     C97823  11.020  12.230   0.554  0.0647  0.4247  0.4295
  742MOL0     C97824  10.976  12.371   0.546 -0.0536  0.3303 -0.1852
  742MOL0     C97825  11.087  12.470   0.579  0.0044 -0.0012 -0.0717
  742MOL0     C97826  11.123  12.484   0.722 -0.3466  1.0279 -0.2354
  742MOL0     C97827  11.238  12.578   0.748 -0.3284  0.0481 -0.3995
  742MOL0     C97828  11.211  12.730   0.757  0.1387 -0.9814  0.0348
  742MOL0     N97829  11.153  12.780   0.878  0.2135  0.6340 -0.3336
  742MOL0     C97830  11.219  12.810   1.001 -0.2560  0.0033 -0.6993
  742MOL0     C97831  11.117  12.837   1.094 -0.4956  0.8178 -0.4718
  742MOL0     C97832  11.142  12.875   1.241  0.9900  0.7237  1.1620
  742MOL0     C97833  11.018  12.938   1.316  0.5842 -0.6143  0.6497
  742MOL0     C97834  10.994  12.887   1.454 -0.9195 -0.3861  0.3384
  742MOL0     C97835  11.114  12.909   1.546 -0.7381  0.3140  0.1418
  742MOL0     O97836  11.191  12.790   1.532  0.0216  0.0374  0.0862
  742MOL0     C97837  11.311  12.815   1.586  0.5989 -0.6423  0.8818
  742MOL0     C97838  11.325  12.814   1.730  0.6551 -0.8761  0.6363
  742MOL0     C97839  11.460  12.822   1.769  0.3064  0.1396 -1.3813
  742MOL0     C97840  11.576  12.834   1.686 -0.0900  0.0941 -0.2833
  742MOL0     C97841  11.709  12.849   1.734  0.9574 -0.4036  0.4535
  742MOL0     O97842  11.721  12.876   1.866  0.0284  0.2170 -0.3861
  742MOL0     C97843  11.848  12.894   1.927 -0.1267  0.9928 -0.0581
  742MOL0     C97844  11.940  12.983   1.884 -0.2258  0.7539  0.4896
  742MOL0     C97845  12.056  13.000   1.956  0.1704  0.8849 -0.4435
  742MOL0     C97846  12.089  12.928   2.076  0.0336  0.8205 -0.2440
  742MOL0     O97847  12.205  12.958   2.147 -0.4852  0.6461 -0.1960
  742MOL0     C97848  12.218  12.882   2.266  0.4772  0.1536  0.1053
  742MOL0     C97849  12.358  12.906   2.324 -0.1969 -0.3672  0.8078
  742MOL0     C97850  12.377  13.057   2.350 -0.8103  0.0364 -0.0516
  742MOL0     C97851  12.522  13.097   2.386 -0.0585 -0.8047  0.7167
  742MOL0     C97852  12.549  13.248   2.411 -0.4222 -0.1900 -0.9067
  742MOL0     C97853  12.674  13.317   2.341 -0.4490 -0.5239  0.9319
  742MOL0     C97854  12.647  13.324   2.189  0.1184 -0.2147 -0.5662
  742MOL0     C97855  12.755  13.412   2.124  0.6530  0.2550 -0.7071
  742MOL0    Cl97856  12.754  13.566   2.195 -0.1756  0.4772  0.2397
  742MOL0     C97857  11.981  12.844   2.119 -0.4810 -0.3075  0.1898
  742MOL0     C97858  11.866  12.827   2.039  0.3837  0.9761  0.8061
  742MOL0     O97859  11.805  12.824   1.663  0.0499  0.7055 -0.2452
  742MOL0     C97860  11.551  12.826   1.546 -0.1279 -0.3435  0.3423
  742MOL0     C97861  11.420  12.826   1.499 -0.7541 -0.2186 -0.6996
  742MOL0     N97862  10.996  12.817   1.030  0.8526 -0.1121  0.6324
  742MOL0     N97863  11.019  12.780   0.904 -0.2645  0.0238  0.4289
  742MOL0     C97864  11.071  11.703   0.617 -0.0705  0.8201 -0.2873
  742MOL0     C97865  11.129  11.584   0.675 -0.7471 -0.5456  0.1104
  742MOL0     C97866  11.491  11.283   0.720 -0.3509  0.6154 -0.7028
  742MOL0     C97867  11.434  11.196   0.813 -0.3870  0.4152  0.4787
  742MOL0     C97868  11.492  11.072   0.855 -0.0333 -0.8432 -0.2871
  742MOL0     C97869  11.615  11.036   0.810 -0.3180 -0.2403  0.6764
  742MOL0     O97870  11.647  10.909   0.855 -0.5776 -0.2807 -0.3788
  742MOL0     C97871  11.766  10.847   0.800 -0.7095  0.7382  0.3732
  742MOL0     C97872  11.890  10.918   0.868 -0.8398 -0.5727  0.2648
  742MOL0     C97873  11.918  10.872   1.013 -0.0582 -0.6657  0.2874
  742MOL0     C97874  12.021  10.964   1.069  0.1096  0.2518  0.2391
  742MOL0     C97875  12.160  10.939   1.026  0.0240 -0.7093  0.2929
  742MOL0     C97876  12.275  10.913   1.015 -0.5734 -0.5492 -0.5845
  742MOL0     C97877  11.676  11.127   0.718  0.2136 -0.6014  0.7357
  742MOL0     C97878  11.620  11.243   0.675  0.8122 -0.3992  0.1678
  742MOL0     H97879  11.447  11.700   0.678 -0.9690 -2.5976  3.7079
  742MOL0     H97880  11.361  11.881   0.554 -2.0700  0.6745 -3.6757
  742MOL0     H97881  11.213  12.004   0.364 -1.1890 -2.0937  0.3465
  742MOL0     H97882  11.234  12.048   0.541  0.8886 -1.4270  0.0847
  742MOL0     H97883  11.027  12.156   0.348  0.7043 -0.1099 -0.1159
  742MOL0     H97884  11.177  12.226   0.402  3.0333 -2.4076 -0.3260
  742MOL0     H97885  11.074  12.206   0.646  2.1169  1.0455 -0.5749
  742MOL0     H97886  10.927  12.175   0.574  1.2610 -1.4319  1.1071
  742MOL0     H97887  10.926  12.393   0.452  0.1721 -0.2829 -0.4544
  742MOL0     H97888  10.898  12.370   0.622 -0.1432  0.7962 -0.2659
  742MOL0     H97889  11.069  12.570   0.540  4.6454  0.9428 -0.3932
  742MOL0     H97890  11.181  12.438   0.534  0.7525  1.6545  0.2300
  742MOL0     H97891  11.161  12.389   0.762 -1.2682  1.8314  2.8484
  742MOL0     H97892  11.039  12.513   0.785 -2.8047 -2.1657 -1.7389
  742MOL0     H97893  11.286  12.545   0.840 -0.8422 -1.5955 -0.6826
  742MOL0     H97894  11.314  12.556   0.672 -1.1144  0.8811 -1.4719
  742MOL0     H97895  11.144  12.748   0.673  2.7963 -3.2421 -2.7856
  742MOL0     H97896  11.305  12.778   0.729  0.9507 -2.5177  0.0009
  742MOL0     H97897  11.325  12.816   1.024  0.1593 -0.8330 -2.2803
  742MOL0     H97898  11.230  12.941   1.248  1.4902 -0.0808  2.9889
  742MOL0     H97899  11.176  12.781   1.286  0.5568  0.0020  0.0283
  742MOL0     H97900  10.929  12.916   1.256  0.2337 -1.6271  1.5005
  742MOL0     H97901  11.031  13.046   1.325  2.6442 -0.6067 -1.5040
  742MOL0     H97902  10.912  12.943   1.501 -1.8348 -0.7724 -0.7492
  742MOL0     H97903  10.953  12.786   1.452 -0.4509 -0.5824  0.5486
  742MOL0     H97904  11.072  12.915   1.647 -0.0704  4.4861  0.3579
  742MOL0     H97905  11.169  13.002   1.528  0.5321 -0.5406 -0.5721
  742MOL0     H97906  11.236  12.819   1.792 -1.8311 -0.0146 -2.7082
  742MOL0     H97907  11.491  12.840   1.872 -0.3199  3.6944 -1.6774
  742MOL0     H97908  11.929  13.037   1.791  2.8831  0.4299 -0.1724
  742MOL0     H97909  12.126  13.071   1.912 -0.3841  1.1534 -0.8964
  742MOL0     H97910  12.198  12.778   2.239 -1.2814  1.2644 -3.5757
  742MOL0     H97911  12.141  12.904   2.341 -1.3460 -0.9769 -1.3311
  742MOL0     H97912  12.432  12.869   2.252  1.7336  2.5037  1.1901
  742MOL0     H97913  12.379  12.844   2.412 -2.7842 -0.1248  1.6849
  742MOL0     H97914  12.304  13.104   2.416  1.0187  1.6962  0.8905
  742MOL0     H97915  12.370  13.106   2.252  2.1641  0.4523 -0.1696
  742MOL0     H97916  12.545  13.039   2.476  3.0004 -0.7563  0.0722
  742MOL0     H97917  12.605  13.077   2.317 -0.1715  1.3589 -0.1157
  742MOL0     H97918  12.567  13.257   2.519  3.0745 -1.4085 -1.2730
  742MOL0     H97919  12.459  13.307   2.392 -1.8516 -1.1432  2.2039
  742MOL0     H97920  12.759  13.249   2.352 -0.3628 -0.5729  0.0592
  742MOL0     H97921  12.687  13.417   2.382  2.7353 -0.0398 -0.8743
  742MOL0     H97922  12.643  13.225   2.142 -0.2049  0.9544 -3.1562
  742MOL0     H97923  12.556  13.383   2.175  1.6632  2.1169 -1.1158
  742MOL0     H97924  12.731  13.423   2.018 -1.5779 -0.1464 -0.2797
  742MOL0     H97925  12.859  13.377   2.135  0.6533  0.9529  2.1302
  742MOL0     H97926  12.007  12.784   2.206  1.5710  1.7522  1.1099
  742MOL0     H97927  11.791  12.751   2.060 -0.0124  0.6596 -1.4882
  742MOL0     H97928  11.633  12.823   1.475  0.1794 -2.2373  0.7101
  742MOL0     H97929  11.383  12.812   1.398 -0.4954  2.8418 -1.3205
  742MOL0     H97930  10.963  11.704   0.614 -0.3510  0.0392  3.9770
  742MOL0     H97931  11.068  11.504   0.716 -1.7338 -1.1356 -2.3252
  742MOL0     H97932  11.332  11.216   0.845 -0.9743 -1.0718 -0.3623
  742MOL0     H97933  11.437  11.015   0.929 -2.2993  0.3822 -0.9357
  742MOL0     H97934  11.766  10.845   0.691  3.4702 -3.3888  0.1483
  742MOL0     H97935  11.765  10.743   0.832  3.7438  1.2336  3.1516
  742MOL0     H97936  11.978  10.882   0.815  1.5618  3.0439  1.4604
  742MOL0     H97937  11.880  11.026   0.857  1.2594 -0.4041 -0.4152
  742MOL0     H97938  11.939  10.765   1.007 -0.3866 -0.7913  1.1742
  742MOL0     H97939  11.827  10.895   1.069  1.1113  1.2153  1.5245
  742MOL0     H97940  11.994  11.070   1.059  1.3346  0.8270  2.2530
  742MOL0     H97941  12.023  10.933   1.174 -3.2078  0.6715  0.5138
  742MOL0     H97942  12.377  10.881   1.020 -0.7759 -1.0666  3.3083
  742MOL0     H97943  11.769  11.091   0.677 -0.8488 -1.5174 -0.9861
  742MOL0     H97944  11.669  11.303   0.599  0.0048  3.4057  2.4248
  743MOL0     O97945   2.663   1.662   1.479  0.2360 -0.0939 -0.5112
  743MOL0     C97946   2.691   1.654   1.362 -0.4342  0.2985 -0.0317
  743MOL0     O97947   2.686   1.746   1.262 -0.0786  0.8386  0.3380
  743MOL0     C97948   2.593   1.844   1.264  0.2958  0.3201  0.4962
  743MOL0     C97949   2.452   1.814   1.269  0.0710 -0.1190  0.5040
  743MOL0     C97950   2.359   1.917   1.276  0.6109 -0.0174 -0.1699
  743MOL0     C97951   2.415   2.051   1.275  0.7164 -0.6423 -1.4224
  743MOL0     O97952   2.336   2.165   1.280  0.1883  0.0028 -0.1362
  743MOL0     C97953   2.194   2.162   1.298 -0.5655  0.7160 -1.0108
  743MOL0     C97954   2.133   2.303   1.336 -0.2047 -0.4402  0.2511
  743MOL0     C97955   1.981   2.304   1.357 -0.3612  0.1765 -0.6283
  743MOL0     C97956   1.915   2.441   1.350 -0.5022 -0.4479  0.3018
  743MOL0     C97957   1.770   2.431   1.400 -0.0667 -0.7403  0.3752
  743MOL0     C97958   1.695   2.559   1.358  0.0531 -0.2836  0.2232
  743MOL0     C97959   1.568   2.579   1.444  0.1187 -0.9169  0.1665
  743MOL0     C97960   1.454   2.523   1.367 -0.1342 -0.0540 -0.6692
  743MOL0     N97961   1.326   2.552   1.438 -0.2616  0.1092 -0.0413
  743MOL0     C97962   1.226   2.460   1.452  0.2872  0.9265 -0.5718
  743MOL0     C97963   1.117   2.527   1.488 -0.6043 -0.1856  0.6753
  743MOL0     C97964   0.978   2.473   1.523 -0.0234 -0.8045 -0.6385
  743MOL0     C97965   0.881   2.465   1.397 -0.4475 -0.1872  0.4630
  743MOL0     C97966   0.757   2.386   1.438 -0.2907  0.7785 -0.5874
  743MOL0     C97967   0.659   2.469   1.528  0.5075  0.9011  0.6314
  743MOL0     O97968   0.597   2.385   1.628 -0.1986  0.3559 -0.8745
  743MOL0     C97969   0.484   2.441   1.678 -1.0453 -0.1034 -0.1768
  743MOL0     C97970   0.366   2.452   1.607  0.0762 -0.3126  0.6252
  743MOL0     C97971   0.254   2.521   1.664  0.7278  0.2760  1.1058
  743MOL0     C97972   0.249   2.557   1.797 -0.7492  0.5809  0.5854
  743MOL0     C97973   0.124   2.617   1.853 -0.1837  0.0915  0.9075
  743MOL0     O97974   0.017   2.609   1.783  0.6368 -0.1763 -0.2025
  743MOL0     C97975  -0.094   2.676   1.838 -0.3508 -1.6527 -0.0824
  743MOL0     C97976  -0.116   2.811   1.806 -0.8122  0.7979 -0.1049
  743MOL0     C97977  -0.212   2.874   1.878 -0.2066 -0.5851  0.5682
  743MOL0     C97978  -0.297   2.817   1.971 -0.6169 -0.0686 -1.5016
  743MOL0     O97979  -0.417   2.859   2.004  0.5382 -0.3488  0.0780
  743MOL0     C97980  -0.507   2.916   1.911  0.9150 -0.7443  0.2127
  743MOL0     C97981  -0.641   2.946   1.990  0.0291 -0.1405 -0.6745
  743MOL0     C97982  -0.719   3.046   1.893 -0.7892  0.9192  0.1221
  743MOL0     C97983  -0.866   3.017   1.911 -0.1406 -0.0028 -0.1917
  743MOL0     C97984  -0.943   3.106   1.814  0.0460  0.3459 -0.3920
  743MOL0     C97985  -1.097   3.089   1.825  0.3601 -0.3861 -0.6188
  743MOL0     C97986  -1.136   2.986   1.720  0.3166  0.6566 -0.1647
  743MOL0     C97987  -1.282   2.939   1.721  0.5641  1.0550 -0.7165
  743MOL0    Cl97988  -1.306   2.812   1.596 -0.0928  0.1879 -0.0527
  743MOL0     C97989  -0.284   2.678   1.991  0.0373 -0.1109 -0.1514
  743MOL0     C97990  -0.186   2.603   1.920  1.5651  0.3727 -0.3846
  743MOL0     O97991   0.138   2.675   1.958  0.3275 -0.1587 -0.4852
  743MOL0     C97992   0.366   2.526   1.870 -0.1426 -0.5188 -0.1482
  743MOL0     C97993   0.486   2.472   1.816  0.4038  0.5882 -1.1603
  743MOL0     N97994   1.156   2.660   1.496 -0.3404 -0.2185 -0.7900
  743MOL0     N97995   1.275   2.679   1.458 -1.0129  0.2740 -0.4431
  743MOL0     C97996   2.548   2.077   1.274  0.0721 -0.0947  0.5674
  743MOL0     C97997   2.639   1.970   1.266 -0.2442 -0.3539 -0.3162
  743MOL0     C97998   2.759   1.520   1.318 -0.4152 -1.3722 -0.8853
  743MOL0     C97999   2.815   1.513   1.186  0.1846  1.1318 -0.3965
  743MOL0     C98000   2.881   1.398   1.148 -0.2101  1.4793  1.0899
  743MOL0     C98001   2.883   1.277   1.234 -0.8104 -0.4291 -0.1560
  743MOL0     O98002   2.957   1.159   1.209 -0.0053  0.4546  0.4648
  743MOL0     C98003   2.996   1.118   1.075 -0.2533 -0.1399  0.6188
  743MOL0     C98004   3.046   0.973   1.080  0.8905 -0.5211 -0.4109
  743MOL0     C98005   3.169   0.957   1.164  0.2144  0.3301  0.4745
  743MOL0     C98006   3.220   0.814   1.160 -0.0373 -0.1122 -0.0857
  743MOL0     C98007   3.359   0.807   1.205  0.3020  0.3102  0.0936
  743MOL0     C98008   3.480   0.802   1.222 -0.1962  0.6347 -0.9372
  743MOL0     C98009   2.837   1.288   1.364  0.2431 -0.6094 -0.2230
  743MOL0     C98010   2.781   1.411   1.408  0.4931 -0.8128 -0.9100
  743MOL0     H98011   2.411   1.713   1.260 -1.3699  0.5834 -1.6992
  743MOL0     H98012   2.254   1.894   1.292  0.3022  1.2303 -0.2801
  743MOL0     H98013   2.177   2.090   1.378  1.4698 -1.9035 -2.7516
  743MOL0     H98014   2.151   2.116   1.208  0.7269 -1.4621 -0.6034
  743MOL0     H98015   2.153   2.361   1.246 -0.8520 -2.3194 -1.1772
  743MOL0     H98016   2.187   2.354   1.416 -0.6930  0.2447  0.1488
  743MOL0     H98017   1.981   2.254   1.454  2.0041 -2.6546 -1.9306
  743MOL0     H98018   1.926   2.231   1.296  0.1635 -2.1471  1.5272
  743MOL0     H98019   1.965   2.526   1.398 -0.8648  0.0786 -0.2383
  743MOL0     H98020   1.920   2.468   1.244 -3.9317  0.3778  0.2286
  743MOL0     H98021   1.755   2.415   1.507 -2.9918  1.8943  0.5117
  743MOL0     H98022   1.728   2.351   1.339  0.3972  0.2102 -1.2682
  743MOL0     H98023   1.670   2.548   1.253  0.7323 -3.9487  0.3099
  743MOL0     H98024   1.755   2.646   1.385 -0.3168 -0.4073  1.5343
  743MOL0     H98025   1.584   2.530   1.541  0.9458  2.4091  1.8604
  743MOL0     H98026   1.553   2.687   1.457 -1.8240 -0.9400 -1.4345
  743MOL0     H98027   1.473   2.419   1.338  0.3562 -0.3515  0.6348
  743MOL0     H98028   1.447   2.570   1.269  1.9895  0.3964 -0.6427
  743MOL0     H98029   1.225   2.353   1.432  1.2689  0.6354  0.8117
  743MOL0     H98030   0.929   2.525   1.605  3.7672 -0.5713  1.7184
  743MOL0     H98031   1.005   2.372   1.554  0.1786 -0.6579 -0.3313
  743MOL0     H98032   0.939   2.408   1.324  0.3625  2.4425 -1.0665
  743MOL0     H98033   0.855   2.564   1.357 -1.7901 -0.8427 -0.3632
  743MOL0     H98034   0.701   2.348   1.351  1.7294  2.4913 -2.7735
  743MOL0     H98035   0.789   2.296   1.489  3.7202  2.1844 -0.3240
  743MOL0     H98036   0.591   2.520   1.459  1.0154  0.9927  0.1928
  743MOL0     H98037   0.717   2.553   1.568 -0.9279  2.0131  0.4828
  743MOL0     H98038   0.372   2.418   1.504  0.1648  2.3740 -0.3198
  743MOL0     H98039   0.164   2.533   1.604  0.8062 -3.3164  0.0445
  743MOL0     H98040  -0.054   2.871   1.740 -0.4381  3.8745  2.7518
  743MOL0     H98041  -0.225   2.978   1.852  4.2843  0.2509  0.8465
  743MOL0     H98042  -0.520   2.858   1.820 -1.0741  1.5906 -1.1158
  743MOL0     H98043  -0.464   3.014   1.888  0.9378 -0.7218  0.3487
  743MOL0     H98044  -0.622   2.992   2.088  0.9339  4.5255 -2.7735
  743MOL0     H98045  -0.686   2.846   1.990  2.2909 -1.2259 -0.9040
  743MOL0     H98046  -0.696   3.024   1.789 -0.2419 -0.9633  0.5989
  743MOL0     H98047  -0.704   3.152   1.914  0.3719  1.1619 -1.7518
  743MOL0     H98048  -0.876   2.911   1.887  3.0856 -0.5288  0.3283
  743MOL0     H98049  -0.899   3.037   2.014 -0.7169 -1.6275 -0.0197
  743MOL0     H98050  -0.916   3.085   1.710 -2.9952 -4.0140 -0.5827
  743MOL0     H98051  -0.912   3.209   1.832 -0.6427  0.3442  0.9357
  743MOL0     H98052  -1.148   3.186   1.818 -2.8081 -1.7438  1.2363
  743MOL0     H98053  -1.135   3.044   1.917 -2.7293 -3.0002 -2.9020
  743MOL0     H98054  -1.117   3.025   1.620 -1.7449  0.6083 -0.6194
  743MOL0     H98055  -1.064   2.905   1.731  0.2877  0.3834 -1.8543
  743MOL0     H98056  -1.338   3.031   1.699 -0.8458  1.0409  2.3427
  743MOL0     H98057  -1.319   2.897   1.814 -2.0102 -6.4850 -4.3685
  743MOL0     H98058  -0.357   2.630   2.055 -0.8018 -0.4345 -1.3096
  743MOL0     H98059  -0.162   2.498   1.933  2.9425  0.7334  0.1935
  743MOL0     H98060   0.386   2.548   1.975  3.2141  0.3828 -0.8521
  743MOL0     H98061   0.568   2.456   1.885  0.4370  0.7061 -1.1718
  743MOL0     H98062   2.576   2.181   1.288 -1.2682  0.3032  0.4646
  743MOL0     H98063   2.746   1.979   1.250 -0.0186 -1.9585  0.0542
  743MOL0     H98064   2.804   1.588   1.109 -0.2800  1.7922  0.3039
  743MOL0     H98065   2.928   1.401   1.050  0.2206  1.5243  1.2961
  743MOL0     H98066   3.065   1.186   1.025 -1.9819  0.7038 -0.7691
  743MOL0     H98067   2.907   1.135   1.013 -0.1424  0.1640  0.5436
  743MOL0     H98068   2.968   0.909   1.120  0.2753  0.1439 -0.5329
  743MOL0     H98069   3.074   0.934   0.982  1.8646 -0.8534 -0.0218
  743MOL0     H98070   3.147   1.002   1.261 -1.2983  2.8028 -0.9100
  743MOL0     H98071   3.241   1.022   1.113  0.5890 -0.4687 -0.0397
  743MOL0     H98072   3.158   0.749   1.223 -2.0826  1.3689 -0.4803
  743MOL0     H98073   3.210   0.786   1.055  2.5077  0.4971 -0.5411
  743MOL0     H98074   3.583   0.798   1.251 -0.5050  2.2491  0.5184
  743MOL0     H98075   2.858   1.211   1.437  0.3174 -0.0488  0.3570
  743MOL0     H98076   2.755   1.412   1.513  1.6617 -2.5559 -0.5610
  744MOL0     O98077   9.986   8.382  10.364  0.8643  0.2406 -0.0490
  744MOL0     C98078   9.982   8.386  10.244  0.7390  0.7222  0.1346
  744MOL0     O98079  10.028   8.283  10.166 -0.3158  0.2602 -0.7352
  744MOL0     C98080  10.101   8.188  10.239 -1.5212  0.3489 -0.6193
  744MOL0     C98081  10.095   8.049  10.205  0.4321  0.3073 -0.6362
  744MOL0     C98082  10.178   7.949  10.252  0.2580 -0.1849 -1.1431
  744MOL0     C98083  10.275   7.995  10.343 -0.5550  0.4831 -1.3928
  744MOL0     O98084  10.355   7.907  10.417  0.6175 -0.1994  0.3369
  744MOL0     C98085  10.276   7.828  10.518 -0.8036 -0.0483  0.3514
  744MOL0     C98086  10.293   7.889  10.661  0.1940  1.0079 -0.1260
  744MOL0     C98087  10.440   7.873  10.707 -0.2963  0.0466  0.0785
  744MOL0     C98088  10.461   7.966  10.830  0.3630  1.0178 -0.8435
  744MOL0     C98089  10.599   7.937  10.896 -0.1004 -0.4009 -0.0598
  744MOL0     C98090  10.723   8.004  10.822 -0.4844  0.4517  0.2881
  744MOL0     C98091  10.858   7.964  10.884  0.5318  0.7622 -0.4818
  744MOL0     C98092  10.893   7.981  11.032  0.1844 -0.8338 -0.0536
  744MOL0     N98093  10.846   8.106  11.087 -0.3093  0.2629 -0.1348
  744MOL0     C98094  10.784   8.119  11.205  0.5103 -0.2029  0.0861
  744MOL0     C98095  10.773   8.246  11.230 -0.2312  0.6784  0.6935
  744MOL0     C98096  10.709   8.294  11.360  0.4432  0.2188 -0.5176
  744MOL0     C98097  10.594   8.392  11.359  0.0464  0.8136 -0.2669
  744MOL0     C98098  10.513   8.387  11.491 -0.4919 -0.5205  0.7518
  744MOL0     C98099  10.445   8.264  11.529  0.1469  0.2556 -0.0074
  744MOL0     O98100  10.377   8.189  11.423 -0.7712 -0.4858  0.3210
  744MOL0     C98101  10.399   8.063  11.380 -0.3512 -0.1426 -1.5840
  744MOL0     C98102  10.341   8.013  11.267  0.0016  0.6244 -0.0425
  744MOL0     C98103  10.375   7.893  11.206  2.1672  0.5373 -0.5086
  744MOL0     C98104  10.479   7.813  11.264  0.2292  0.1021 -0.6381
  744MOL0     C98105  10.545   7.704  11.196  0.1655 -0.5661 -0.1201
  744MOL0     O98106  10.670   7.674  11.232  0.3074 -0.5639 -0.2692
  744MOL0     C98107  10.727   7.559  11.175 -0.7869  0.2495 -0.1004
  744MOL0     C98108  10.846   7.563  11.110 -0.7728 -0.5918 -0.5616
  744MOL0     C98109  10.902   7.454  11.056 -0.0907 -0.2275 -0.3675
  744MOL0     C98110  10.839   7.327  11.064  0.0919  0.5280 -0.0520
  744MOL0     O98111  10.896   7.216  11.009  0.3392  0.4014  0.0466
  744MOL0     C98112  10.804   7.104  10.977 -0.4592 -0.3327 -0.2189
  744MOL0     C98113  10.881   6.993  10.897  0.2369  0.5523 -0.1338
  744MOL0     C98114  10.769   6.887  10.859  1.4109 -0.3892 -0.6550
  744MOL0     C98115  10.827   6.765  10.792 -0.3666 -0.1322 -0.5630
  744MOL0     C98116  10.907   6.666  10.893 -0.5954  0.0550 -0.4440
  744MOL0     C98117  10.972   6.543  10.815  0.5232 -0.0074  0.2935
  744MOL0     C98118  11.086   6.492  10.900 -0.3001 -0.2033  0.7132
  744MOL0     C98119  11.052   6.379  10.998 -0.1024  0.7371  0.6445
  744MOL0    Cl98120  11.184   6.365  11.124 -0.4088  0.2298  0.6330
  744MOL0     C98121  10.712   7.319  11.130 -0.3067  0.2972  0.4430
  744MOL0     C98122  10.663   7.434  11.183  0.5417  0.9457 -0.4322
  744MOL0     O98123  10.489   7.662  11.091  0.1098 -0.1396 -0.8278
  744MOL0     C98124  10.535   7.853  11.391 -0.0186 -0.0229  0.4954
  744MOL0     C98125  10.482   7.972  11.445 -0.7227 -0.0340  0.0535
  744MOL0     N98126  10.826   8.313  11.120  0.6423 -0.4292  0.2158
  744MOL0     N98127  10.869   8.232  11.034  0.5972 -0.2541 -0.1713
  744MOL0     C98128  10.295   8.126  10.380  0.6391 -1.0184  0.7398
  744MOL0     C98129  10.215   8.229  10.314 -0.3997 -0.0603 -0.2002
  744MOL0     C98130   9.933   8.507  10.169  0.8025  0.2782 -0.7834
  744MOL0     C98131   9.842   8.586  10.245 -0.4391 -0.0432 -0.0788
  744MOL0     C98132   9.777   8.699  10.198 -0.8327 -0.8572  0.1083
  744MOL0     C98133   9.804   8.751  10.072  0.5390  1.1612 -0.5142
  744MOL0     O98134   9.756   8.880  10.042 -1.2998  0.7209 -0.4961
  744MOL0     C98135   9.746   8.914   9.902  0.0497 -0.2050 -0.2535
  744MOL0     C98136   9.665   9.053   9.884  0.2439 -0.4141  0.2424
  744MOL0     C98137   9.752   9.185   9.897  0.4413 -0.2371  0.3262
  744MOL0     C98138   9.652   9.298   9.904 -1.1697  0.2235  0.2535
  744MOL0     C98139   9.577   9.293   9.774 -0.0397  0.3508 -0.4978
  744MOL0     C98140   9.500   9.281   9.679  0.6060 -0.0839 -0.1713
  744MOL0     C98141   9.892   8.675   9.986 -0.6148 -0.4508 -0.8989
  744MOL0     C98142   9.949   8.549  10.039 -0.2398  0.8052  0.0063
  744MOL0     H98143  10.027   8.019  10.126  3.4169 -0.0732 -3.2689
  744MOL0     H98144  10.165   7.845  10.222 -0.7589 -0.8273  1.3241
  744MOL0     H98145  10.315   7.725  10.514  1.2319  0.5760  2.0920
  744MOL0     H98146  10.173   7.822  10.481 -0.8089 -0.0486  0.3663
  744MOL0     H98147  10.234   7.838  10.738  0.0626  2.4910  0.7835
  744MOL0     H98148  10.271   7.996  10.658  3.7190  2.0138  2.6940
  744MOL0     H98149  10.503   7.903  10.623  3.0356 -2.7307  1.3578
  744MOL0     H98150  10.466   7.768  10.726  3.1641  0.4735 -1.5555
  744MOL0     H98151  10.452   8.072  10.805 -4.2309  1.5325  1.8853
  744MOL0     H98152  10.377   7.943  10.896 -0.6079 -0.8972 -2.6428
  744MOL0     H98153  10.601   7.829  10.917  0.9877 -0.1650  1.1914
  744MOL0     H98154  10.588   7.999  10.986 -0.4879  0.0467 -0.4134
  744MOL0     H98155  10.729   8.113  10.822  2.1730  0.3949  1.9106
  744MOL0     H98156  10.729   7.980  10.715  1.9282  0.1166  0.4421
  744MOL0     H98157  10.874   7.857  10.868  0.7252  0.3338  2.0616
  744MOL0     H98158  10.928   8.015  10.818 -2.6934  3.2847 -2.2240
  744MOL0     H98159  11.001   7.969  11.041  1.0747  2.1936 -4.0382
  744MOL0     H98160  10.840   7.898  11.080  1.3317 -0.5992  1.7217
  744MOL0     H98161  10.758   8.036  11.271  1.5322 -2.3792 -2.0786
  744MOL0     H98162  10.785   8.362  11.402 -1.1136  1.2349  0.7937
  744MOL0     H98163  10.683   8.214  11.430 -2.1164  2.0892  0.8524
  744MOL0     H98164  10.528   8.357  11.279 -0.7302  1.0633  0.2532
  744MOL0     H98165  10.631   8.491  11.332  0.7734 -0.0613 -2.7052
  744MOL0     H98166  10.571   8.427  11.574 -0.3713  1.3760 -0.1914
  744MOL0     H98167  10.428   8.455  11.483  0.4067  0.6780  1.1622
  744MOL0     H98168  10.360   8.286  11.594 -1.2023 -3.4737 -0.2654
  744MOL0     H98169  10.523   8.204  11.578  3.7068  4.2364 -0.2494
  744MOL0     H98170  10.281   8.084  11.211  1.9356  2.4474  0.0580
  744MOL0     H98171  10.326   7.872  11.112 -2.4705 -1.6786  2.0694
  744MOL0     H98172  10.902   7.656  11.100  1.4438 -1.6701  1.0105
  744MOL0     H98173  10.995   7.462  11.001 -0.1550 -2.0247 -0.8142
  744MOL0     H98174  10.730   7.137  10.903  1.3875 -2.1774 -3.0712
  744MOL0     H98175  10.766   7.056  11.068 -0.6787 -1.5469 -0.9319
  744MOL0     H98176  10.963   6.953  10.957  0.7804  0.8418 -0.6855
  744MOL0     H98177  10.925   7.035  10.806 -0.1705  0.6674 -0.2799
  744MOL0     H98178  10.715   6.935  10.777 -0.0936 -2.3820 -0.9015
  744MOL0     H98179  10.696   6.873  10.939  0.7875 -0.9845 -1.3180
  744MOL0     H98180  10.749   6.706  10.743 -2.0620 -1.6078  3.4788
  744MOL0     H98181  10.894   6.804  10.715  1.0974  0.3718  0.9208
  744MOL0     H98182  10.829   6.640  10.965  0.5868  0.8918  1.1894
  744MOL0     H98183  10.988   6.718  10.945 -3.2262  2.3801  1.5700
  744MOL0     H98184  11.006   6.572  10.715 -0.6699 -0.0765 -0.1524
  744MOL0     H98185  10.891   6.471  10.801 -2.1494  2.5876  1.6000
  744MOL0     H98186  11.159   6.450  10.831 -0.5523 -1.5415  1.2175
  744MOL0     H98187  11.145   6.565  10.957 -1.8090 -1.3991  4.0770
  744MOL0     H98188  11.047   6.286  10.941 -2.1880  0.4452  1.2060
  744MOL0     H98189  10.955   6.399  11.045 -0.9905 -0.3247 -0.6768
  744MOL0     H98190  10.656   7.226  11.132  0.6954 -0.3734 -1.0341
  744MOL0     H98191  10.564   7.417  11.225  1.2973 -2.5530  0.3067
  744MOL0     H98192  10.606   7.807  11.458 -1.1519  1.1159  2.6009
  744MOL0     H98193  10.538   7.996  11.534 -1.6390 -0.6048  0.7984
  744MOL0     H98194  10.365   8.158  10.457  0.6342 -0.2762  0.4449
  744MOL0     H98195  10.234   8.333  10.339 -0.6189  0.1169 -0.7324
  744MOL0     H98196   9.839   8.560  10.350  2.3962 -1.9223 -0.3434
  744MOL0     H98197   9.721   8.766  10.262  1.8808  2.9672 -1.1742
  744MOL0     H98198   9.678   8.839   9.858 -0.3210  0.3235 -0.5892
  744MOL0     H98199   9.839   8.922   9.844 -1.6568  0.7381 -3.0718
  744MOL0     H98200   9.620   9.053   9.784  1.5109  2.0043 -0.4313
  744MOL0     H98201   9.587   9.056   9.960 -0.2568  3.7833 -0.1689
  744MOL0     H98202   9.819   9.191   9.811 -1.1745 -0.4558 -0.9778
  744MOL0     H98203   9.804   9.176   9.993 -0.2934 -0.7805  0.6810
  744MOL0     H98204   9.584   9.273   9.986 -1.7382 -2.1812 -0.8436
  744MOL0     H98205   9.713   9.388   9.918 -3.2064  1.8369 -0.7922
  744MOL0     H98206   9.430   9.280   9.598  0.0217 -1.8885  0.3051
  744MOL0     H98207   9.926   8.692   9.884 -1.0497  3.4098 -0.5345
  744MOL0     H98208  10.009   8.493   9.968 -0.9702  1.4402 -1.1532
  745MOL0     O98209   6.763   7.868   8.064  0.0263  0.5269  0.4786
  745MOL0     C98210   6.728   7.827   8.173  0.1545 -0.8374 -0.1278
  745MOL0     O98211   6.614   7.763   8.205  0.2072  0.1536 -0.1065
  745MOL0     C98212   6.516   7.764   8.118  0.1742 -1.0020 -0.4444
  745MOL0     C98213   6.428   7.882   8.115  0.6804  0.7383 -0.2704
  745MOL0     C98214   6.317   7.881   8.023 -0.2508 -0.7302 -0.3395
  745MOL0     C98215   6.297   7.768   7.940 -0.1688 -0.3632 -0.1889
  745MOL0     O98216   6.176   7.764   7.879 -0.5566 -0.4260  0.6754
  745MOL0     C98217   6.176   7.793   7.736  0.9708 -0.8156 -0.2383
  745MOL0     C98218   6.181   7.942   7.696  0.1030  0.4380 -0.4424
  745MOL0     C98219   6.072   8.019   7.776 -0.6159 -0.4873 -0.9737
  745MOL0     C98220   6.087   8.175   7.755 -0.5389  0.3003 -0.6391
  745MOL0     C98221   5.971   8.244   7.822  0.1530 -0.7860  0.5258
  745MOL0     C98222   5.959   8.394   7.785  0.0210  0.2108  0.2706
  745MOL0     C98223   5.853   8.482   7.863  0.0599  0.4372 -0.4999
  745MOL0     C98224   5.843   8.490   8.010 -0.1483  0.7535 -0.1064
  745MOL0     N98225   5.962   8.556   8.061  0.9671 -0.5512  0.4079
  745MOL0     C98226   6.079   8.493   8.094 -0.2275 -0.5049 -1.3457
  745MOL0     C98227   6.163   8.586   8.121 -0.9929 -1.0239  0.3909
  745MOL0     C98228   6.319   8.560   8.135 -0.7378  0.3543 -0.8868
  745MOL0     C98229   6.346   8.404   8.173  0.1001 -1.2585 -0.0009
  745MOL0     C98230   6.493   8.396   8.182  0.7468  0.4261  0.0021
  745MOL0     C98231   6.581   8.468   8.283  0.1890 -0.2893 -0.2101
  745MOL0     O98232   6.520   8.467   8.412  0.9474  0.0146 -0.6954
  745MOL0     C98233   6.536   8.563   8.508 -0.2681 -0.6936 -0.1869
  745MOL0     C98234   6.434   8.622   8.593  0.0978 -0.4966  1.3204
  745MOL0     C98235   6.469   8.725   8.682  0.4705 -0.5437 -0.3696
  745MOL0     C98236   6.596   8.776   8.710 -0.2941  1.1210 -0.1145
  745MOL0     C98237   6.627   8.878   8.805  0.3702 -0.6198 -1.2459
  745MOL0     O98238   6.549   8.863   8.919  0.2072  0.4979  0.7647
  745MOL0     C98239   6.587   8.931   9.030  0.2292 -0.3495  0.8128
  745MOL0     C98240   6.701   8.888   9.097 -0.4357 -0.4009  0.9730
  745MOL0     C98241   6.740   8.956   9.202 -1.0626 -1.0703  0.3536
  745MOL0     C98242   6.665   9.062   9.261 -0.0999  0.3186 -0.5097
  745MOL0     O98243   6.698   9.103   9.389  0.3132  0.6576  0.3223
  745MOL0     C98244   6.608   9.184   9.470  0.2722  0.1502  0.9572
  745MOL0     C98245   6.664   9.210   9.609  0.0477 -0.3600 -0.6650
  745MOL0     C98246   6.560   9.290   9.682 -0.7696  0.5311  0.1178
  745MOL0     C98247   6.605   9.300   9.828  0.3591  0.0444 -0.6506
  745MOL0     C98248   6.750   9.322   9.864 -0.0735  0.5674 -0.3269
  745MOL0     C98249   6.780   9.340  10.018 -0.5893  0.2096 -0.0288
  745MOL0     C98250   6.734   9.225  10.107 -0.1924  0.2193  0.1598
  745MOL0     C98251   6.836   9.191  10.221  1.4388  0.0557  1.0803
  745MOL0    Cl98252   6.859   9.343  10.316 -0.1588  0.2291  0.2461
  745MOL0     C98253   6.546   9.099   9.194  0.5685 -1.0171  0.2342
  745MOL0     C98254   6.504   9.028   9.082 -0.4171 -1.0308  0.0450
  745MOL0     O98255   6.711   8.966   8.784 -0.1205 -0.0074  0.4481
  745MOL0     C98256   6.691   8.716   8.623 -0.1820  0.1891 -0.5341
  745MOL0     C98257   6.663   8.605   8.530 -0.0210 -0.6678 -0.3814
  745MOL0     N98258   6.100   8.708   8.095  0.8994  0.3500  0.5206
  745MOL0     N98259   5.972   8.690   8.066  0.3586 -0.0437 -1.1201
  745MOL0     C98260   6.382   7.654   7.956 -0.5282 -0.0004 -0.5566
  745MOL0     C98261   6.500   7.652   8.034 -0.3768 -0.0560  0.5336
  745MOL0     C98262   6.820   7.858   8.282  0.2850  0.1972 -0.2673
  745MOL0     C98263   6.782   7.813   8.407 -0.5734 -0.3671  0.4280
  745MOL0     C98264   6.887   7.802   8.499  0.5678 -0.2663 -0.2083
  745MOL0     C98265   7.009   7.873   8.475 -0.4772 -0.7234  0.5937
  745MOL0     O98266   7.124   7.875   8.553  0.0339 -0.3246 -0.8709
  745MOL0     C98267   7.124   7.801   8.672 -0.9428  0.3360 -1.4262
  745MOL0     C98268   7.233   7.841   8.767 -0.6086 -0.3702  0.2345
  745MOL0     C98269   7.216   7.763   8.894  0.2139 -0.5920 -1.4607
  745MOL0     C98270   7.327   7.806   8.992 -0.7797  0.3249  1.4520
  745MOL0     C98271   7.301   7.929   9.066 -0.4940  0.5715  0.5256
  745MOL0     C98272   7.279   8.021   9.137  0.6691 -0.7100  1.0151
  745MOL0     C98273   7.038   7.941   8.352  0.7839 -0.0938 -0.3661
  745MOL0     C98274   6.942   7.920   8.257  0.5375 -0.3908  0.1085
  745MOL0     H98275   6.438   7.967   8.181 -0.5734  0.2459  0.5932
  745MOL0     H98276   6.242   7.959   8.029  1.4676  1.0934 -1.1270
  745MOL0     H98277   6.079   7.760   7.697  1.0832 -3.8889  1.7121
  745MOL0     H98278   6.253   7.728   7.694 -0.8542 -2.4773 -1.1832
  745MOL0     H98279   6.161   7.955   7.589 -1.3863 -1.1599 -0.4211
  745MOL0     H98280   6.277   7.985   7.726  0.7825 -2.1208  1.4102
  745MOL0     H98281   6.073   8.004   7.885  0.8045  4.6092 -0.0286
  745MOL0     H98282   5.974   7.976   7.751  0.8436 -3.8002 -1.4747
  745MOL0     H98283   6.182   8.209   7.796 -0.3674  0.6160 -1.2861
  745MOL0     H98284   6.081   8.201   7.649  0.6394  1.8445 -0.3728
  745MOL0     H98285   5.975   8.238   7.931 -0.7097 -1.6924  0.5190
  745MOL0     H98286   5.883   8.185   7.796 -1.8319  0.9396  2.8912
  745MOL0     H98287   5.947   8.406   7.677 -2.2493  1.3701  0.5811
  745MOL0     H98288   6.059   8.434   7.805  0.6703 -1.7475  1.2226
  745MOL0     H98289   5.848   8.581   7.818 -4.5470 -0.5357 -2.7956
  745MOL0     H98290   5.754   8.435   7.854 -0.3181  0.4177  2.5711
  745MOL0     H98291   5.831   8.387   8.045 -0.9743  0.6177 -0.7427
  745MOL0     H98292   5.751   8.544   8.036  0.5638  0.0665  4.6910
  745MOL0     H98293   6.097   8.387   8.110  4.3857  0.5066  2.5754
  745MOL0     H98294   6.354   8.628   8.213 -0.2410  0.4616 -1.1938
  745MOL0     H98295   6.382   8.579   8.048  1.7925  0.0121  0.7809
  745MOL0     H98296   6.308   8.344   8.090 -3.2612  1.5091 -0.7122
  745MOL0     H98297   6.301   8.367   8.265 -0.7566 -1.4238 -0.4686
  745MOL0     H98298   6.514   8.293   8.211  0.0173 -0.0763 -1.1771
  745MOL0     H98299   6.546   8.415   8.088  1.8388  1.2326  0.7406
  745MOL0     H98300   6.601   8.571   8.252  1.2538 -0.9721 -1.9484
  745MOL0     H98301   6.677   8.416   8.286 -1.9309 -4.6523  0.7128
  745MOL0     H98302   6.330   8.605   8.567  0.4587 -1.0820  0.1813
  745MOL0     H98303   6.383   8.775   8.726  1.6533  0.8614  0.4500
  745MOL0     H98304   6.752   8.798   9.063 -0.2711  0.5235 -1.4664
  745MOL0     H98305   6.827   8.931   9.261  0.4183 -1.8137 -2.0229
  745MOL0     H98306   6.513   9.131   9.477  1.3029 -2.2330 -1.3010
  745MOL0     H98307   6.595   9.272   9.407  0.6827 -2.4610 -3.1549
  745MOL0     H98308   6.760   9.263   9.607  0.7560 -1.5989 -0.3250
  745MOL0     H98309   6.683   9.114   9.658  0.8165 -1.7664 -3.4893
  745MOL0     H98310   6.462   9.244   9.663  0.0378 -0.5336 -1.6812
  745MOL0     H98311   6.558   9.387   9.632  3.9579  0.6025 -0.3637
  745MOL0     H98312   6.541   9.368   9.884  0.8226  0.1976 -0.2993
  745MOL0     H98313   6.592   9.198   9.864  2.0406 -0.6668 -1.9121
  745MOL0     H98314   6.790   9.405   9.804 -0.0149  0.1673 -0.8451
  745MOL0     H98315   6.813   9.237   9.836 -0.1559  0.8351 -1.3864
  745MOL0     H98316   6.744   9.442  10.033 -3.0713 -0.6828  0.6806
  745MOL0     H98317   6.888   9.346  10.033 -0.6718  0.2564  0.5737
  745MOL0     H98318   6.637   9.254  10.146 -0.6356 -1.8677  0.7571
  745MOL0     H98319   6.728   9.142  10.036 -2.3119 -0.8249  1.4773
  745MOL0     H98320   6.927   9.157  10.170  3.5044  3.8196  1.9078
  745MOL0     H98321   6.800   9.108  10.282 -0.7405  0.8933  1.0323
  745MOL0     H98322   6.488   9.178   9.240 -1.7254  0.0609 -3.9762
  745MOL0     H98323   6.401   9.035   9.048 -1.3300  3.2347  2.9368
  745MOL0     H98324   6.794   8.742   8.645 -0.1431 -0.2530 -0.1936
  745MOL0     H98325   6.750   8.563   8.481  1.0065  0.0798  0.7282
  745MOL0     H98326   6.349   7.565   7.904 -0.5819 -0.5917  0.4458
  745MOL0     H98327   6.571   7.570   8.024 -1.7091 -1.1181 -0.7285
  745MOL0     H98328   6.685   7.771   8.430 -0.6334 -0.6121 -0.2515
  745MOL0     H98329   6.869   7.742   8.587  1.9602 -2.5923 -1.4228
  745MOL0     H98330   7.140   7.693   8.664  3.2364  0.7895 -1.2295
  745MOL0     H98331   7.025   7.802   8.720  0.7138 -2.4987  2.5894
  745MOL0     H98332   7.332   7.823   8.725  0.3361  2.3635  1.0424
  745MOL0     H98333   7.229   7.944   8.804  0.5407 -0.1060 -0.3396
  745MOL0     H98334   7.241   7.658   8.881 -0.2413 -1.1923  1.6764
  745MOL0     H98335   7.118   7.768   8.943  0.3913  1.9351 -1.2387
  745MOL0     H98336   7.344   7.727   9.065  2.8966 -0.5084 -0.0736
  745MOL0     H98337   7.422   7.820   8.940 -1.1036  0.3376  0.8533
  745MOL0     H98338   7.258   8.119   9.174 -0.8989 -0.0928 -1.3281
  745MOL0     H98339   7.136   7.986   8.345  1.3818 -1.3106 -0.0146
  745MOL0     H98340   6.964   7.950   8.155  0.3104  1.4057  0.5529
  746MOL0     O98341   3.716   2.419  11.415  0.1185  0.3519  0.0780
  746MOL0     C98342   3.810   2.334  11.421  1.4899 -0.6649  0.1615
  746MOL0     O98343   3.872   2.281  11.536  0.0855  0.2325  0.1117
  746MOL0     C98344   3.836   2.328  11.661  0.3240 -0.0941  0.7181
  746MOL0     C98345   3.806   2.470  11.677  0.2389 -0.8994 -0.2235
  746MOL0     C98346   3.755   2.514  11.802  0.3475 -0.4047 -0.2982
  746MOL0     C98347   3.732   2.421  11.907 -1.0043  0.2137 -0.1165
  746MOL0     O98348   3.669   2.448  12.027  0.6021  0.3521  0.3361
  746MOL0     C98349   3.550   2.525  12.018  0.8510  0.2902  0.0851
  746MOL0     C98350   3.502   2.573  12.150  0.3255  0.5927  0.3892
  746MOL0     C98351   3.611   2.649  12.224  0.5878 -0.2549  0.5468
  746MOL0     C98352   3.666   2.764  12.139 -0.5848 -1.1830  0.0267
  746MOL0     C98353   3.567   2.876  12.111  0.3827 -0.1032 -0.4838
  746MOL0     C98354   3.630   2.972  12.014 -0.3536  0.2554  0.5843
  746MOL0     C98355   3.762   3.048  12.057 -0.8975  0.4546 -0.5548
  746MOL0     C98356   3.750   3.133  12.184 -0.5442 -0.5444  0.0931
  746MOL0     N98357   3.848   3.245  12.206  0.4852  1.1253  0.2117
  746MOL0     C98358   3.982   3.242  12.232 -1.2293 -0.1345 -0.2130
  746MOL0     C98359   4.022   3.368  12.240 -0.4977 -0.4305 -0.4026
  746MOL0     C98360   4.165   3.413  12.258 -0.2716 -0.1568  0.4445
  746MOL0     C98361   4.257   3.369  12.373  0.4294  0.1839  0.4952
  746MOL0     C98362   4.211   3.397  12.517 -0.2582  0.4596 -0.3018
  746MOL0     C98363   4.220   3.540  12.556  0.8853  0.0037  0.3463
  746MOL0     O98364   4.344   3.593  12.508 -0.2148 -0.0460  1.2152
  746MOL0     C98365   4.451   3.628  12.595 -0.3105 -0.3785  0.3091
  746MOL0     C98366   4.577   3.652  12.525 -0.6949 -0.4371  0.7454
  746MOL0     C98367   4.692   3.687  12.587 -0.1190 -0.0106 -0.3137
  746MOL0     C98368   4.689   3.705  12.728 -0.9279  0.2157  0.9632
  746MOL0     C98369   4.812   3.720  12.801  0.1042 -0.7664  0.6166
  746MOL0     O98370   4.925   3.759  12.733  0.2400 -0.3932 -0.3280
  746MOL0     C98371   5.036   3.746  12.809 -0.0860  0.1419 -0.0414
  746MOL0     C98372   5.100   3.866  12.840 -0.2752 -0.5298 -0.4082
  746MOL0     C98373   5.223   3.861  12.912  0.6739 -0.2125  0.1649
  746MOL0     C98374   5.284   3.737  12.956 -0.1722 -0.3858 -0.8708
  746MOL0     O98375   5.389   3.748  13.045 -0.2619  0.0520  0.3466
  746MOL0     C98376   5.430   3.635  13.129  0.0838  0.4384  0.0755
  746MOL0     C98377   5.514   3.539  13.041  1.0390  0.4210 -0.4034
  746MOL0     C98378   5.660   3.606  13.050 -0.0364  1.6256  1.4187
  746MOL0     C98379   5.765   3.532  12.967  0.1788 -0.2293  0.1285
  746MOL0     C98380   5.901   3.578  12.976 -0.5609 -0.2432  0.7846
  746MOL0     C98381   5.983   3.511  12.870 -0.5262 -0.0461  1.1310
  746MOL0     C98382   6.117   3.575  12.848  0.3208 -0.4046 -0.0417
  746MOL0     C98383   6.205   3.504  12.748 -0.8248  0.3188 -0.0198
  746MOL0    Cl98384   6.354   3.599  12.696  0.1329  0.1838  0.1834
  746MOL0     C98385   5.212   3.623  12.924  0.1773  1.0444  0.1412
  746MOL0     C98386   5.097   3.622  12.845  0.9739 -0.2713 -0.4959
  746MOL0     O98387   4.804   3.708  12.925  0.6128 -0.3713  0.0221
  746MOL0     C98388   4.564   3.689  12.791 -0.6278 -0.6668  0.3161
  746MOL0     C98389   4.449   3.655  12.730  0.2274  0.0999  0.3860
  746MOL0     N98390   3.908   3.447  12.214 -0.3087 -0.2948 -0.8296
  746MOL0     N98391   3.807   3.376  12.196  0.4523 -0.1537 -0.8762
  746MOL0     C98392   3.768   2.287  11.889 -1.0296 -0.2194  0.0764
  746MOL0     C98393   3.819   2.238  11.764  0.4703 -0.0356 -0.3786
  746MOL0     C98394   3.863   2.283  11.293  0.2412 -0.4461 -0.1431
  746MOL0     C98395   3.931   2.163  11.278  0.2145 -0.2963 -0.1617
  746MOL0     C98396   3.976   2.105  11.160 -0.0505  0.1374  0.9760
  746MOL0     C98397   3.965   2.184  11.036  0.2428  1.0662  0.6259
  746MOL0     O98398   4.028   2.126  10.926 -0.2885 -0.5793  0.1154
  746MOL0     C98399   3.993   2.188  10.801  0.2053 -0.1714 -0.4835
  746MOL0     C98400   3.965   2.081  10.696  0.3191  0.1601  0.1070
  746MOL0     C98401   4.079   1.974  10.684  0.1446 -0.2188 -0.5545
  746MOL0     C98402   4.026   1.847  10.608  0.3229 -0.0710  0.2620
  746MOL0     C98403   4.143   1.753  10.594  0.3859 -0.4915 -0.6632
  746MOL0     C98404   4.242   1.689  10.594 -0.1396 -0.2670  0.3316
  746MOL0     C98405   3.899   2.314  11.042  0.4630  0.3599  0.9031
  746MOL0     C98406   3.849   2.362  11.168  0.2676 -0.4029 -0.7135
  746MOL0     H98407   3.820   2.543  11.598 -2.7575  1.8011  1.5170
  746MOL0     H98408   3.730   2.620  11.805  0.6187 -0.3543  1.8260
  746MOL0     H98409   3.467   2.470  11.972  2.9700 -2.4523 -0.7133
  746MOL0     H98410   3.559   2.612  11.951 -2.5706  0.4020 -0.4364
  746MOL0     H98411   3.474   2.485  12.210  2.0891  0.6106  1.3011
  746MOL0     H98412   3.412   2.633  12.135  0.5255  1.2684  1.7155
  746MOL0     H98413   3.699   2.588  12.246  0.5537 -2.5409 -4.3276
  746MOL0     H98414   3.567   2.701  12.309  1.0717  2.1566 -0.5955
  746MOL0     H98415   3.743   2.812  12.201 -0.9076  1.3072 -1.3674
  746MOL0     H98416   3.712   2.723  12.048 -0.2567 -1.1894  0.1923
  746MOL0     H98417   3.543   2.925  12.205  0.7433  0.0242 -0.4586
  746MOL0     H98418   3.475   2.836  12.066  0.4386  0.0227 -0.7137
  746MOL0     H98419   3.553   3.043  11.980  0.3148 -0.5225 -2.9426
  746MOL0     H98420   3.646   2.922  11.918 -0.5087 -1.1235  1.2530
  746MOL0     H98421   3.848   2.980  12.058 -0.3078  1.1911 -0.3467
  746MOL0     H98422   3.780   3.113  11.971  3.3954  0.3299  0.0070
  746MOL0     H98423   3.761   3.070  12.273  0.2101 -0.7910 -0.1673
  746MOL0     H98424   3.653   3.182  12.178  0.6883  2.0893  0.3400
  746MOL0     H98425   4.044   3.155  12.255 -2.8527 -1.4199 -0.5015
  746MOL0     H98426   4.174   3.522  12.250  0.9747 -0.3509 -1.7597
  746MOL0     H98427   4.222   3.380  12.170 -1.3770 -2.3912  0.4851
  746MOL0     H98428   4.354   3.416  12.355  0.4314 -0.6492 -2.2410
  746MOL0     H98429   4.275   3.262  12.355  1.1694  0.3767  0.0313
  746MOL0     H98430   4.116   3.354  12.550  0.3541 -0.4504  0.3533
  746MOL0     H98431   4.291   3.348  12.574 -0.5407  0.8428  0.4333
  746MOL0     H98432   4.195   3.556  12.661 -2.0261  1.4815 -0.4553
  746MOL0     H98433   4.131   3.574  12.502 -2.2633 -4.0844  2.4202
  746MOL0     H98434   4.570   3.610  12.425 -0.9384 -1.1659  1.0559
  746MOL0     H98435   4.786   3.665  12.536 -0.6816 -1.0951 -0.9126
  746MOL0     H98436   5.069   3.951  12.780  2.0790 -0.4124 -1.5614
  746MOL0     H98437   5.278   3.954  12.926  2.1203 -0.9565 -0.4117
  746MOL0     H98438   5.351   3.572  13.170  1.9869 -2.4385 -0.3918
  746MOL0     H98439   5.480   3.675  13.218 -0.3042 -2.0030  1.4717
  746MOL0     H98440   5.490   3.551  12.935 -0.3207 -2.1781 -0.4577
  746MOL0     H98441   5.521   3.435  13.074 -0.3757  0.5601  0.4012
  746MOL0     H98442   5.702   3.613  13.151  2.3768  3.3391  0.3936
  746MOL0     H98443   5.640   3.711  13.025 -5.1178  1.0584  1.9312
  746MOL0     H98444   5.771   3.424  12.981  0.8550 -0.1415  0.5503
  746MOL0     H98445   5.739   3.536  12.861  0.8612 -1.3219 -0.0925
  746MOL0     H98446   5.937   3.563  13.078  1.0611 -1.8454  0.0269
  746MOL0     H98447   5.895   3.682  12.943  3.7997  0.2211  0.8470
  746MOL0     H98448   5.934   3.500  12.773 -1.3292 -1.3181  1.6638
  746MOL0     H98449   5.996   3.406  12.894 -1.8749 -0.2036  1.1990
  746MOL0     H98450   6.105   3.679  12.814  3.9469  0.4948  0.9876
  746MOL0     H98451   6.178   3.579  12.939 -0.0053 -1.5492  0.2425
  746MOL0     H98452   6.158   3.469  12.656  1.1260 -2.2173 -0.1697
  746MOL0     H98453   6.227   3.409  12.798 -0.0458  0.0104 -0.9081
  746MOL0     H98454   5.236   3.523  12.958 -0.5349  0.4366 -1.0572
  746MOL0     H98455   5.047   3.527  12.826  1.5778 -0.3076 -2.1063
  746MOL0     H98456   4.578   3.707  12.897 -0.6883 -0.0272  0.2189
  746MOL0     H98457   4.356   3.624  12.777 -0.4782 -0.1177 -1.1068
  746MOL0     H98458   3.744   2.226  11.975 -3.4929  3.1202  1.9687
  746MOL0     H98459   3.835   2.131  11.759  0.3058 -0.0236 -1.2050
  746MOL0     H98460   3.943   2.114  11.375  1.9978  1.6052  0.6631
  746MOL0     H98461   4.030   2.011  11.166  0.8709  0.5005 -0.8693
  746MOL0     H98462   4.078   2.246  10.764 -1.2350  1.3853 -1.5275
  746MOL0     H98463   3.900   2.245  10.793 -1.1237 -2.0840  0.5981
  746MOL0     H98464   3.869   2.035  10.719  0.7411  0.2215  2.2806
  746MOL0     H98465   3.948   2.124  10.597 -2.0422 -2.1531 -0.6033
  746MOL0     H98466   4.117   1.955  10.785 -2.2781  1.2630  0.7273
  746MOL0     H98467   4.167   2.011  10.630  4.3271  0.2354  5.6054
  746MOL0     H98468   3.946   1.801  10.668  0.0014  0.2549  0.0900
  746MOL0     H98469   3.986   1.882  10.513  1.6440  0.8741  0.0309
  746MOL0     H98470   4.323   1.620  10.610  2.4958  2.0748 -1.8804
  746MOL0     H98471   3.890   2.387  10.962 -3.6830 -1.2163 -0.3361
  746MOL0     H98472   3.797   2.457  11.170  1.2439  0.1622 -1.4279
  747MOL0     O98473   7.201   3.419  10.851 -0.1605  0.2003  1.1623
  747MOL0     C98474   7.188   3.346  10.949 -0.5070  1.0227 -0.2129
  747MOL0     O98475   7.169   3.209  10.952 -0.0577  0.3529 -0.7874
  747MOL0     C98476   7.105   3.164  10.835  0.9458 -0.2800 -0.5700
  747MOL0     C98477   6.978   3.113  10.867  1.0610  0.3772  0.8976
  747MOL0     C98478   6.908   3.040  10.784  0.3496  0.4837  0.2496
  747MOL0     C98479   6.952   3.024  10.651  0.9312  0.4776  1.2628
  747MOL0     O98480   6.865   2.963  10.563 -0.1039  0.3071  0.5701
  747MOL0     C98481   6.884   2.961  10.420  0.2607 -0.2760 -0.2588
  747MOL0     C98482   6.761   2.899  10.345 -0.2886  0.0187 -0.4139
  747MOL0     C98483   6.721   2.760  10.402 -1.0872  0.0956  0.5137
  747MOL0     C98484   6.612   2.694  10.329  0.6716 -0.5976  0.0573
  747MOL0     C98485   6.588   2.556  10.392 -0.0763 -0.9119 -0.3028
  747MOL0     C98486   6.526   2.461  10.293  0.7538  0.3688 -0.7135
  747MOL0     C98487   6.391   2.504  10.227  0.6852  0.2867 -0.1910
  747MOL0     C98488   6.293   2.557  10.335  0.9484  0.7059  0.5129
  747MOL0     N98489   6.158   2.564  10.277 -0.4456  0.4735  0.1100
  747MOL0     C98490   6.099   2.467  10.197 -0.2879 -0.3364  0.1221
  747MOL0     C98491   5.975   2.518  10.173  0.2153 -0.7756 -1.2851
  747MOL0     C98492   5.868   2.454  10.086 -0.0869  0.1611  0.1759
  747MOL0     C98493   5.827   2.554   9.972 -0.3385 -0.3266  0.1472
  747MOL0     C98494   5.935   2.585   9.874  0.5054 -0.1507 -0.1508
  747MOL0     C98495   5.896   2.627   9.734 -0.0702 -0.6286 -0.2285
  747MOL0     O98496   5.810   2.744   9.732 -0.2099 -0.0555 -0.7307
  747MOL0     C98497   5.729   2.736   9.625  0.0735 -0.4403  0.1178
  747MOL0     C98498   5.608   2.664   9.636 -0.3101  0.0677 -1.1536
  747MOL0     C98499   5.531   2.652   9.518  0.7124  0.0234 -0.2276
  747MOL0     C98500   5.566   2.705   9.394 -0.0233  0.7053 -0.4380
  747MOL0     C98501   5.470   2.712   9.286  0.5580 -0.7276 -0.4718
  747MOL0     O98502   5.496   2.795   9.180 -0.7192 -0.1173  0.0449
  747MOL0     C98503   5.389   2.837   9.111 -0.4113  0.8496 -0.1129
  747MOL0     C98504   5.351   2.969   9.140 -0.6169  0.6660 -0.1931
  747MOL0     C98505   5.241   3.024   9.074  1.1685 -0.3363 -0.3597
  747MOL0     C98506   5.172   2.951   8.970 -0.4590 -1.0758  0.9715
  747MOL0     O98507   5.078   3.027   8.904  0.0769 -0.1216  0.2363
  747MOL0     C98508   5.003   2.962   8.805  0.0791 -0.5146  1.0736
  747MOL0     C98509   4.867   3.032   8.799  1.0053  0.5635 -0.2965
  747MOL0     C98510   4.765   2.957   8.706  0.1505  0.3229 -0.6248
  747MOL0     C98511   4.648   3.043   8.651  0.5664 -0.4413  0.1905
  747MOL0     C98512   4.567   2.980   8.538 -0.3599  0.0259 -0.1812
  747MOL0     C98513   4.630   3.008   8.395  0.7914 -0.4153 -0.6963
  747MOL0     C98514   4.565   2.921   8.300  0.2948  0.1811  0.4680
  747MOL0     C98515   4.646   2.901   8.170 -0.1323 -0.6511 -0.5061
  747MOL0    Cl98516   4.714   3.050   8.089 -0.6196  0.3095 -0.4034
  747MOL0     C98517   5.222   2.825   8.935 -0.1915 -0.3174  0.9128
  747MOL0     C98518   5.331   2.777   9.001  0.2524 -0.2441  0.1133
  747MOL0     O98519   5.363   2.652   9.298  0.6517 -0.2261 -0.2188
  747MOL0     C98520   5.691   2.775   9.390 -0.0787 -0.1448 -0.1672
  747MOL0     C98521   5.763   2.796   9.503 -0.0372  1.2111 -1.4270
  747MOL0     N98522   5.964   2.647  10.231  0.1089 -0.1101  0.4217
  747MOL0     N98523   6.086   2.674  10.285  0.6127  0.0555  0.1591
  747MOL0     C98524   7.076   3.065  10.611  0.3234  0.1370  0.3881
  747MOL0     C98525   7.158   3.140  10.706 -0.0683 -1.2282 -0.2352
  747MOL0     C98526   7.206   3.407  11.077 -0.1339 -0.1954 -0.6682
  747MOL0     C98527   7.274   3.529  11.091 -0.4463 -0.4914 -1.0468
  747MOL0     C98528   7.311   3.588  11.209  0.9470 -0.2163 -0.0047
  747MOL0     C98529   7.291   3.507  11.330 -0.4264 -0.4154 -0.5000
  747MOL0     O98530   7.324   3.557  11.455 -0.2565  0.0202 -0.3313
  747MOL0     C98531   7.356   3.700  11.468 -0.5533  0.6264  0.1501
  747MOL0     C98532   7.367   3.707  11.616 -0.2177 -0.3928 -0.5249
  747MOL0     C98533   7.430   3.832  11.671  1.5438 -0.2255 -0.1074
  747MOL0     C98534   7.500   3.804  11.809  0.1575  0.7113  0.5899
  747MOL0     C98535   7.588   3.919  11.847 -1.1456 -0.1645  0.7994
  747MOL0     C98536   7.662   4.004  11.893  0.0480  0.2093 -0.7721
  747MOL0     C98537   7.218   3.390  11.328  0.2035 -0.3164 -0.3684
  747MOL0     C98538   7.172   3.350  11.199 -0.2904  0.3003  0.6927
  747MOL0     H98539   6.938   3.125  10.968 -0.7682 -1.8006  0.5122
  747MOL0     H98540   6.814   2.996  10.817  0.9748 -2.2791 -1.3432
  747MOL0     H98541   6.973   2.901  10.398  0.5904 -0.1985  0.7869
  747MOL0     H98542   6.892   3.064  10.383  2.2851 -1.0964 -2.3713
  747MOL0     H98543   6.776   2.895  10.237 -1.9033  2.5253 -0.8184
  747MOL0     H98544   6.677   2.967  10.364 -1.5517 -1.6139  0.1248
  747MOL0     H98545   6.697   2.772  10.508 -0.0722  2.0021  0.5583
  747MOL0     H98546   6.811   2.698  10.403  1.2831  3.2910  1.2264
  747MOL0     H98547   6.520   2.753  10.334  0.4460 -0.8849 -0.6037
  747MOL0     H98548   6.652   2.695  10.228  3.3730 -3.0246  0.9472
  747MOL0     H98549   6.532   2.576  10.483  1.4325 -1.0579  0.7025
  747MOL0     H98550   6.677   2.505  10.430  0.9138  1.7044  1.1376
  747MOL0     H98551   6.517   2.380  10.366 -1.2900  0.0336 -1.2512
  747MOL0     H98552   6.597   2.430  10.215 -0.1304 -2.1755 -0.6201
  747MOL0     H98553   6.426   2.579  10.156  0.9459  0.5389  0.1972
  747MOL0     H98554   6.349   2.418  10.174 -1.3429  1.6510 -0.9017
  747MOL0     H98555   6.321   2.658  10.363 -3.0177  2.1107  0.0959
  747MOL0     H98556   6.296   2.488  10.420  1.3336 -2.2011 -1.6912
  747MOL0     H98557   6.132   2.370  10.160 -1.4087 -2.1395  3.4678
  747MOL0     H98558   5.771   2.437  10.133 -0.2773 -1.3402 -0.6895
  747MOL0     H98559   5.905   2.358  10.049 -5.6776 -1.8161 -1.2162
  747MOL0     H98560   5.783   2.647  10.009 -1.4728 -0.6382 -0.3681
  747MOL0     H98561   5.758   2.502   9.905  0.3533 -1.0493 -0.0109
  747MOL0     H98562   5.992   2.667   9.919 -1.7308  0.2871  2.0620
  747MOL0     H98563   5.998   2.496   9.862  2.1185  0.6518  1.7727
  747MOL0     H98564   5.847   2.535   9.701 -0.9938 -0.3326  0.2788
  747MOL0     H98565   5.981   2.642   9.667 -1.9241  2.2950 -2.2035
  747MOL0     H98566   5.572   2.620   9.728 -2.8365  1.5532 -1.3332
  747MOL0     H98567   5.433   2.607   9.524 -0.0944  1.7983  0.5463
  747MOL0     H98568   5.394   3.030   9.218  1.5047 -0.4660 -0.4067
  747MOL0     H98569   5.212   3.120   9.116  0.5160 -0.5906 -0.2126
  747MOL0     H98570   4.983   2.858   8.833 -0.8560 -0.6236  0.0469
  747MOL0     H98571   5.046   2.956   8.705  0.3104 -0.5728  1.1753
  747MOL0     H98572   4.872   3.134   8.760 -2.0135  0.2791 -1.6511
  747MOL0     H98573   4.825   3.041   8.900 -2.6930 -1.3535 -1.4849
  747MOL0     H98574   4.724   2.869   8.755  0.9657  0.0983 -0.3351
  747MOL0     H98575   4.820   2.926   8.616 -3.1859 -2.0698 -2.0335
  747MOL0     H98576   4.581   3.051   8.738 -2.1838  1.4514 -1.9559
  747MOL0     H98577   4.674   3.140   8.608 -1.0139 -1.3173 -3.0235
  747MOL0     H98578   4.463   3.012   8.547 -1.2879 -2.5738 -0.7348
  747MOL0     H98579   4.555   2.872   8.551 -2.0128  0.2189  0.0796
  747MOL0     H98580   4.736   2.984   8.383  0.8131 -0.9093  0.3645
  747MOL0     H98581   4.601   3.113   8.381 -1.6607 -1.0789 -1.1146
  747MOL0     H98582   4.535   2.825   8.343  1.0958 -0.6162 -0.7180
  747MOL0     H98583   4.472   2.975   8.284  1.0764  1.2118 -0.7513
  747MOL0     H98584   4.568   2.855   8.108 -2.5004  1.3696  0.7732
  747MOL0     H98585   4.730   2.833   8.182  0.0943 -0.1125  1.4129
  747MOL0     H98586   5.171   2.772   8.855 -0.0949  2.7006 -1.3182
  747MOL0     H98587   5.371   2.677   8.984 -2.1642 -1.1149 -0.8867
  747MOL0     H98588   5.734   2.826   9.304  0.6609 -3.0335 -1.6766
  747MOL0     H98589   5.862   2.841   9.499 -0.3427  1.8254 -2.9294
  747MOL0     H98590   7.104   3.040  10.509  0.0464  0.6876  0.1797
  747MOL0     H98591   7.258   3.180  10.693  0.6850 -3.1886 -0.8078
  747MOL0     H98592   7.297   3.570  10.993 -0.3690 -3.7966 -2.5288
  747MOL0     H98593   7.379   3.672  11.213  2.1108 -1.0611 -1.2286
  747MOL0     H98594   7.268   3.753  11.431 -1.6847 -0.8023  0.6849
  747MOL0     H98595   7.454   3.727  11.429 -0.5882  3.4180  1.7348
  747MOL0     H98596   7.268   3.684  11.656 -0.8687  0.5977 -1.5649
  747MOL0     H98597   7.445   3.632  11.640 -0.8318 -0.2816  2.2286
  747MOL0     H98598   7.364   3.919  11.678  2.2901  0.2731  0.9085
  747MOL0     H98599   7.497   3.872  11.594  0.5458  2.8570  0.4679
  747MOL0     H98600   7.436   3.793  11.897  1.0370  1.0046  1.2757
  747MOL0     H98601   7.563   3.715  11.807  0.3498  0.8486  0.5919
  747MOL0     H98602   7.728   4.079  11.932 -0.3416 -1.2612  3.2354
  747MOL0     H98603   7.213   3.331  11.419  0.1580 -0.3666 -0.4034
  747MOL0     H98604   7.116   3.257  11.192  1.7585 -0.8404 -3.0894
  748MOL0     O98605  10.927   6.576   3.628 -0.2210  0.3332 -0.1297
  748MOL0     C98606  11.016   6.559   3.543 -0.2635  0.2106 -0.6543
  748MOL0     O98607  11.160   6.568   3.566  0.6737  0.7693  0.1214
  748MOL0     C98608  11.216   6.589   3.690 -0.2946 -0.7226  0.0070
  748MOL0     C98609  11.159   6.538   3.804  0.2629  0.5048 -0.4451
  748MOL0     C98610  11.218   6.554   3.932 -0.2159  0.4110  0.5882
  748MOL0     C98611  11.347   6.623   3.938 -0.0819 -0.2119 -0.3249
  748MOL0     O98612  11.406   6.642   4.057 -0.3042  0.9260 -0.2859
  748MOL0     C98613  11.343   6.604   4.185  0.2619  0.1096 -0.0814
  748MOL0     C98614  11.225   6.697   4.219 -0.3069 -0.0682  0.5795
  748MOL0     C98615  11.278   6.836   4.247  0.1796  0.6616 -0.1598
  748MOL0     C98616  11.375   6.842   4.364  0.6298 -0.4282 -0.2761
  748MOL0     C98617  11.437   6.975   4.395  0.3570  1.0102  0.6215
  748MOL0     C98618  11.326   7.074   4.453  1.0015  0.5900 -0.2610
  748MOL0     C98619  11.396   7.209   4.475 -0.1896  0.9483 -0.5134
  748MOL0     C98620  11.307   7.302   4.555  0.1997  0.1780  0.2228
  748MOL0     N98621  11.263   7.413   4.470  0.9844  0.1540 -0.6490
  748MOL0     C98622  11.144   7.396   4.400 -1.1864 -0.1273 -0.4424
  748MOL0     C98623  11.136   7.520   4.337 -0.0190 -0.1663  0.4099
  748MOL0     C98624  11.016   7.551   4.246  0.6260  0.2244 -0.6782
  748MOL0     C98625  11.053   7.603   4.102 -0.3897  0.1078 -1.0467
  748MOL0     C98626  10.927   7.618   4.028  0.1535 -0.4192  0.1215
  748MOL0     C98627  10.965   7.640   3.878  0.2193  0.1425  0.0679
  748MOL0     O98628  11.075   7.738   3.858 -0.0588 -0.2004 -0.0425
  748MOL0     C98629  11.111   7.778   3.726 -0.1522  0.2203 -0.2414
  748MOL0     C98630  11.080   7.699   3.617 -0.2210  0.0672  0.4007
  748MOL0     C98631  11.118   7.731   3.486 -0.8146  0.0489 -0.3301
  748MOL0     C98632  11.188   7.852   3.460 -0.0362  0.4880 -0.1704
  748MOL0     C98633  11.208   7.902   3.322  0.1852 -0.4253 -0.8231
  748MOL0     O98634  11.238   8.029   3.314 -0.7249  0.8431  0.9740
  748MOL0     C98635  11.297   8.075   3.198  0.2683 -0.8981 -0.5090
  748MOL0     C98636  11.398   8.014   3.115  0.8553  0.0708 -0.1360
  748MOL0     C98637  11.440   8.063   2.993 -0.3093  0.3268 -1.1150
  748MOL0     C98638  11.390   8.186   2.956 -0.0303  1.2383  1.2982
  748MOL0     O98639  11.434   8.261   2.841  0.3703 -0.2511 -0.2782
  748MOL0     C98640  11.552   8.233   2.786 -0.2825 -0.2438  0.4075
  748MOL0     C98641  11.548   8.130   2.675  0.8692  0.1931 -0.2446
  748MOL0     C98642  11.656   8.030   2.678  0.3579 -0.3459 -0.5632
  748MOL0     C98643  11.647   7.936   2.560 -1.3214 -0.4620 -0.4013
  748MOL0     C98644  11.768   7.841   2.548 -0.5078 -0.0158 -0.3129
  748MOL0     C98645  11.755   7.756   2.420  0.1152 -0.7181  0.3141
  748MOL0     C98646  11.873   7.675   2.394 -0.2435 -0.3623 -0.4176
  748MOL0     C98647  11.857   7.596   2.266 -0.3293  0.1001  0.4075
  748MOL0    Cl98648  11.856   7.687   2.121  0.0019 -0.4523  0.0418
  748MOL0     C98649  11.296   8.249   3.040  0.2505 -0.9203 -0.0823
  748MOL0     C98650  11.255   8.200   3.164  0.6664 -0.0169  0.9192
  748MOL0     O98651  11.214   7.816   3.233 -0.2520 -0.1199 -0.0498
  748MOL0     C98652  11.219   7.932   3.571  0.1257 -0.2976  0.2437
  748MOL0     C98653  11.186   7.891   3.704  0.7968 -0.5925  0.4541
  748MOL0     N98654  11.246   7.603   4.375  0.6058  0.6663 -0.0138
  748MOL0     N98655  11.311   7.534   4.467 -0.2828 -0.3940  0.4284
  748MOL0     C98656  11.393   6.688   3.825 -0.3138 -0.7192  0.1999
  748MOL0     C98657  11.331   6.661   3.704 -0.4509 -0.9508 -0.0667
  748MOL0     C98658  10.984   6.542   3.406 -0.1099 -0.1301 -0.0571
  748MOL0     C98659  11.085   6.523   3.310  0.1599 -0.1673  0.0884
  748MOL0     C98660  11.046   6.499   3.170 -0.5235 -0.4032 -0.8010
  748MOL0     C98661  10.907   6.495   3.139 -1.1357 -0.3245  0.6902
  748MOL0     O98662  10.868   6.493   3.008 -0.1136 -0.1838 -0.1887
  748MOL0     C98663  10.794   6.599   2.950  1.0188 -0.2245 -0.5074
  748MOL0     C98664  10.746   6.570   2.814  0.1558 -0.1729 -0.2353
  748MOL0     C98665  10.658   6.444   2.820  0.4147 -0.3315 -0.0032
  748MOL0     C98666  10.595   6.415   2.691 -0.6254  0.5010  0.5845
  748MOL0     C98667  10.482   6.329   2.683  0.5844 -1.1420  0.5287
  748MOL0     C98668  10.391   6.247   2.666 -0.1152 -0.7189 -0.4998
  748MOL0     C98669  10.817   6.526   3.240  1.3402  0.0800  0.5534
  748MOL0     C98670  10.850   6.551   3.370 -0.9670 -0.7318  0.0239
  748MOL0     H98671  11.072   6.474   3.791  0.9636 -0.1815 -2.0773
  748MOL0     H98672  11.164   6.502   4.010 -2.7612 -1.8828 -2.4516
  748MOL0     H98673  11.409   6.605   4.272 -0.8320  2.3253  0.8034
  748MOL0     H98674  11.316   6.499   4.173  1.9537 -0.6824  2.3868
  748MOL0     H98675  11.170   6.651   4.302 -0.0292  0.3417  0.9951
  748MOL0     H98676  11.159   6.702   4.132  2.6257 -0.2464 -1.8177
  748MOL0     H98677  11.190   6.894   4.275 -1.8248 -2.2118 -0.0902
  748MOL0     H98678  11.335   6.867   4.159 -0.4962 -2.2275 -1.7404
  748MOL0     H98679  11.328   6.802   4.455  0.8805 -1.1212 -0.4426
  748MOL0     H98680  11.467   6.786   4.342  0.5777 -0.0574 -1.4875
  748MOL0     H98681  11.495   7.017   4.313  0.8255  0.3149  0.5942
  748MOL0     H98682  11.506   6.952   4.477  0.8041 -1.8281 -0.4586
  748MOL0     H98683  11.308   7.020   4.547  4.1688 -2.1299 -1.0262
  748MOL0     H98684  11.243   7.080   4.383  1.4887  1.4419 -0.7753
  748MOL0     H98685  11.481   7.194   4.542 -1.7553 -0.7574  1.2114
  748MOL0     H98686  11.426   7.260   4.383 -2.0263 -0.3338 -1.9079
  748MOL0     H98687  11.376   7.343   4.630  0.0420 -4.6769  3.4912
  748MOL0     H98688  11.229   7.249   4.610 -1.5294  1.7431 -0.6135
  748MOL0     H98689  11.091   7.301   4.392  0.2766 -0.9669 -0.3532
  748MOL0     H98690  10.965   7.636   4.292 -0.2777 -1.6086  1.9129
  748MOL0     H98691  10.943   7.471   4.239 -1.1100  1.7996 -1.3168
  748MOL0     H98692  11.121   7.533   4.054  0.5211 -1.1392  1.8659
  748MOL0     H98693  11.090   7.705   4.118 -3.6130  1.3334 -0.5644
  748MOL0     H98694  10.864   7.531   4.043 -1.1968  0.8112  2.0949
  748MOL0     H98695  10.869   7.703   4.066  0.0969 -0.6175  0.4812
  748MOL0     H98696  10.877   7.670   3.820 -0.3364 -0.7275  0.4331
  748MOL0     H98697  10.988   7.537   3.846 -2.0639 -0.6100  0.6528
  748MOL0     H98698  11.027   7.607   3.638  2.0798 -1.0434  1.7103
  748MOL0     H98699  11.082   7.673   3.401 -1.1218  0.4792 -0.4943
  748MOL0     H98700  11.438   7.917   3.144 -0.9883 -1.1163 -1.3196
  748MOL0     H98701  11.518   8.020   2.932  3.3076  2.9798  1.2485
  748MOL0     H98702  11.620   8.188   2.859 -1.1225 -1.0336  0.7102
  748MOL0     H98703  11.591   8.327   2.745  0.4028 -1.2360 -1.3218
  748MOL0     H98704  11.555   8.195   2.587  2.9951  2.5235  1.4944
  748MOL0     H98705  11.449   8.083   2.675  2.0881 -2.6353  1.0889
  748MOL0     H98706  11.633   7.963   2.761  0.4638 -1.6153 -1.5270
  748MOL0     H98707  11.759   8.062   2.693  0.1341  1.2775 -2.1129
  748MOL0     H98708  11.552   7.882   2.552 -1.1881 -0.5901 -1.1636
  748MOL0     H98709  11.653   8.001   2.472 -1.2670  0.6335  0.3936
  748MOL0     H98710  11.782   7.786   2.642 -0.4912  1.6579  0.7143
  748MOL0     H98711  11.853   7.908   2.532  1.2822 -1.6549  1.6650
  748MOL0     H98712  11.743   7.827   2.338  0.4661  0.8185  1.5445
  748MOL0     H98713  11.669   7.690   2.432 -0.8093  0.4906  0.4552
  748MOL0     H98714  11.956   7.746   2.391  0.9605 -1.7029  0.2760
  748MOL0     H98715  11.886   7.607   2.478  0.0199 -3.4278 -2.7853
  748MOL0     H98716  11.763   7.540   2.275 -0.4091  0.4964  2.7069
  748MOL0     H98717  11.932   7.517   2.270  1.3937  1.6706  0.3888
  748MOL0     H98718  11.256   8.342   3.000  2.8133 -0.3479 -1.5796
  748MOL0     H98719  11.197   8.254   3.238  2.3059  3.7665 -0.2898
  748MOL0     H98720  11.264   8.030   3.557  1.5672 -0.8193  1.0354
  748MOL0     H98721  11.194   7.965   3.782  2.0112 -0.7566  0.5060
  748MOL0     H98722  11.476   6.758   3.835  1.5487 -2.2454 -3.0413
  748MOL0     H98723  11.389   6.685   3.616 -2.4483 -0.7637 -1.4123
  748MOL0     H98724  11.187   6.526   3.346  0.3536  1.3509 -0.5385
  748MOL0     H98725  11.122   6.477   3.096 -2.3586 -2.1291 -2.2934
  748MOL0     H98726  10.856   6.686   2.928  1.8865 -1.1271 -1.7947
  748MOL0     H98727  10.720   6.630   3.024  0.6221  0.3355 -1.1402
  748MOL0     H98728  10.685   6.653   2.777 -0.5328 -0.3868  0.4035
  748MOL0     H98729  10.822   6.555   2.737 -2.2853  0.1562 -2.8810
  748MOL0     H98730  10.569   6.457   2.883 -0.9276 -2.1830 -1.3643
  748MOL0     H98731  10.711   6.359   2.864  0.2688  0.5315  1.9197
  748MOL0     H98732  10.554   6.503   2.640  2.6886  2.7157  1.4239
  748MOL0     H98733  10.665   6.366   2.623 -3.9668 -2.3892 -1.1105
  748MOL0     H98734  10.313   6.174   2.656  0.8380 -1.9557  0.6614
  748MOL0     H98735  10.711   6.531   3.220  1.5888  1.5957 -0.5996
  748MOL0     H98736  10.769   6.580   3.436  0.7694  4.9722  0.2335
  749MOL0     O98737   0.119  10.593   0.664 -0.1244  0.3558 -1.1752
  749MOL0     C98738   0.089  10.689   0.597 -0.9394  0.6090  0.5133
  749MOL0     O98739   0.176  10.746   0.509  0.3757 -0.7022  0.0946
  749MOL0     C98740   0.298  10.688   0.483  0.0918 -0.4316  0.1638
  749MOL0     C98741   0.412  10.775   0.458  1.0387  0.5876 -0.7762
  749MOL0     C98742   0.541  10.712   0.416 -0.3723 -0.5045  0.0250
  749MOL0     C98743   0.556  10.577   0.396 -0.3530 -0.2595  0.3110
  749MOL0     O98744   0.680  10.537   0.335 -0.3300 -0.4296 -0.6246
  749MOL0     C98745   0.730  10.412   0.374  0.6863 -0.0694  0.7876
  749MOL0     C98746   0.886  10.394   0.349  0.3763  0.4957  0.1928
  749MOL0     C98747   0.931  10.277   0.426  0.0128  0.3359 -0.1181
  749MOL0     C98748   1.080  10.241   0.413  0.8714 -0.0622 -0.2878
  749MOL0     C98749   1.112  10.178   0.276 -0.9023  0.1872 -0.7221
  749MOL0     C98750   1.253  10.143   0.231 -0.1916 -0.7096 -0.4893
  749MOL0     C98751   1.310  10.006   0.299 -0.3969 -1.3487 -0.1250
  749MOL0     C98752   1.383  10.018   0.435 -0.7706 -0.7275  0.0938
  749MOL0     N98753   1.474  10.140   0.448  0.0903  0.5912  0.5779
  749MOL0     C98754   1.447  10.244   0.532  0.1556  0.2389  0.7608
  749MOL0     C98755   1.547  10.328   0.511  0.4712  1.0015 -0.5546
  749MOL0     C98756   1.570  10.461   0.588  0.3704 -0.4130  0.7890
  749MOL0     C98757   1.460  10.572   0.558  0.0646 -0.5666  1.3355
  749MOL0     C98758   1.467  10.620   0.416  0.2951 -0.0320 -0.8840
  749MOL0     C98759   1.350  10.720   0.386 -0.0615  0.0248 -0.1285
  749MOL0     O98760   1.354  10.845   0.462 -0.4416  0.0568  0.6243
  749MOL0     C98761   1.435  10.951   0.427  0.4315  0.2837  0.4210
  749MOL0     C98762   1.400  11.075   0.487  0.5972 -0.1575 -0.5044
  749MOL0     C98763   1.458  11.194   0.456 -0.0955  0.2651 -0.1879
  749MOL0     C98764   1.566  11.194   0.362  0.8844 -0.1906  0.4151
  749MOL0     C98765   1.625  11.326   0.317 -0.3511  0.4777  0.5882
  749MOL0     O98766   1.723  11.315   0.208  0.3579  0.0461  0.4317
  749MOL0     C98767   1.787  11.424   0.161  0.1377 -0.0281 -0.1872
  749MOL0     C98768   1.924  11.417   0.137 -0.4708 -0.1233  0.2559
  749MOL0     C98769   1.995  11.528   0.088  0.0095 -0.2957  0.2739
  749MOL0     C98770   1.920  11.634   0.045  0.7497  0.0483  0.2745
  749MOL0     O98771   1.992  11.737  -0.003 -0.5155  0.7091  0.0801
  749MOL0     C98772   1.951  11.788  -0.130 -0.4026  0.7313 -0.6551
  749MOL0     C98773   2.045  11.889  -0.184  0.0196 -0.1863  0.3118
  749MOL0     C98774   2.185  11.824  -0.204  0.2911 -0.6695 -0.1270
  749MOL0     C98775   2.283  11.925  -0.272  1.1073  0.1072  0.0822
  749MOL0     C98776   2.402  11.859  -0.347 -0.3851 -0.1436 -0.3492
  749MOL0     C98777   2.491  11.789  -0.240 -0.1690  0.2439  0.0589
  749MOL0     C98778   2.565  11.888  -0.139  0.2382  0.3092 -0.4577
  749MOL0     C98779   2.602  12.026  -0.194  0.1729  0.3557 -0.7187
  749MOL0    Cl98780   2.645  12.138  -0.053 -0.0564  0.0985  0.5297
  749MOL0     C98781   1.782  11.639   0.062  0.3444  0.4242 -0.5329
  749MOL0     C98782   1.715  11.539   0.125 -0.0007  0.1551  0.7808
  749MOL0     O98783   1.578  11.431   0.362  0.0862 -0.7928  0.8294
  749MOL0     C98784   1.602  11.071   0.301  0.7687  1.1223 -0.9130
  749MOL0     C98785   1.534  10.945   0.333  0.0127 -0.0797  0.0470
  749MOL0     N98786   1.633  10.271   0.419  0.7047 -0.0365 -0.1745
  749MOL0     N98787   1.593  10.156   0.388 -0.1204  0.1562  0.8893
  749MOL0     C98788   0.441  10.496   0.430 -0.4307 -1.2036 -0.0894
  749MOL0     C98789   0.320  10.549   0.477  0.0641  0.2207 -0.2487
  749MOL0     C98790  -0.035  10.751   0.636  0.6305 -0.2382 -0.0188
  749MOL0     C98791  -0.106  10.702   0.751  0.1120 -0.8560 -1.1894
  749MOL0     C98792  -0.216  10.778   0.794 -0.1816 -0.0980 -0.4062
  749MOL0     C98793  -0.255  10.900   0.744 -0.1925 -0.3056  0.2732
  749MOL0     O98794  -0.356  10.990   0.773  0.3532  0.4289  0.2134
  749MOL0     C98795  -0.430  10.975   0.893  0.1422  0.1682  0.1944
  749MOL0     C98796  -0.389  11.049   1.016  0.1043  0.1169  0.3321
  749MOL0     C98797  -0.407  11.196   1.008  0.2526 -0.2167  0.7588
  749MOL0     C98798  -0.372  11.254   1.150 -0.7041  0.7332 -0.0418
  749MOL0     C98799  -0.415  11.388   1.162  0.6449  0.6228  0.2353
  749MOL0     C98800  -0.462  11.499   1.182 -0.3954 -0.2941  0.8993
  749MOL0     C98801  -0.188  10.943   0.630 -0.1889 -0.0275  0.9604
  749MOL0     C98802  -0.078  10.869   0.579 -0.0058  1.0487  0.2259
  749MOL0     H98803   0.415  10.883   0.468  2.5137  0.7877 -2.6807
  749MOL0     H98804   0.616  10.787   0.392  0.2997 -0.5196  1.9347
  749MOL0     H98805   0.678  10.336   0.315  3.6629 -0.5115 -1.5200
  749MOL0     H98806   0.712  10.394   0.480  2.3749  5.1166  2.2709
  749MOL0     H98807   0.931  10.486   0.389  3.5025  0.2277 -2.2666
  749MOL0     H98808   0.913  10.392   0.243  0.8503  0.8512  0.3038
  749MOL0     H98809   0.865  10.195   0.395  0.1537  0.4349 -0.6795
  749MOL0     H98810   0.895  10.292   0.529 -1.3486 -0.9049 -0.3762
  749MOL0     H98811   1.142  10.326   0.443 -0.3093  0.8645 -0.3633
  749MOL0     H98812   1.103  10.154   0.475 -1.7765  0.0756  1.0333
  749MOL0     H98813   1.076  10.239   0.192  0.6096  1.0319 -0.7994
  749MOL0     H98814   1.040  10.096   0.274 -2.2828  1.2782  0.9170
  749MOL0     H98815   1.320  10.225   0.258 -1.6524 -0.0153  1.1755
  749MOL0     H98816   1.272  10.132   0.124 -0.2735  0.3443 -0.6160
  749MOL0     H98817   1.226   9.936   0.306 -0.6988 -0.8501  2.1543
  749MOL0     H98818   1.395   9.965   0.244  1.5394 -0.9608  2.3799
  749MOL0     H98819   1.448   9.931   0.448  1.2097  0.6907 -0.0314
  749MOL0     H98820   1.313  10.030   0.518  2.2123  2.8629  2.3745
  749MOL0     H98821   1.362  10.241   0.600 -1.6416 -3.5696 -1.3081
  749MOL0     H98822   1.670  10.503   0.572  0.6839  0.1372  3.6593
  749MOL0     H98823   1.568  10.441   0.695 -1.2963  0.8434  1.0282
  749MOL0     H98824   1.489  10.648   0.631  0.1809  0.8278 -0.1141
  749MOL0     H98825   1.358  10.554   0.591 -0.3888  2.2111  1.7105
  749MOL0     H98826   1.562  10.674   0.416  0.8699 -0.4967  4.4266
  749MOL0     H98827   1.464  10.536   0.347 -1.3443  0.3076 -1.2743
  749MOL0     H98828   1.257  10.665   0.404  0.3378 -0.9587 -0.9725
  749MOL0     H98829   1.338  10.748   0.281 -4.8328  1.1195  0.4723
  749MOL0     H98830   1.328  11.071   0.567  4.0064 -6.1160  2.9438
  749MOL0     H98831   1.428  11.291   0.494 -0.5026  0.3729 -0.7655
  749MOL0     H98832   1.989  11.332   0.152  0.5344 -0.5642 -4.7821
  749MOL0     H98833   2.103  11.529   0.078 -0.0163 -1.3938 -0.2942
  749MOL0     H98834   1.853  11.830  -0.108 -0.8085 -1.5143  2.7007
  749MOL0     H98835   1.938  11.711  -0.207  1.5606 -0.4791  0.1409
  749MOL0     H98836   2.058  11.973  -0.114  3.5908  0.3679 -0.8215
  749MOL0     H98837   2.011  11.926  -0.281  0.6672 -1.1742 -0.3105
  749MOL0     H98838   2.179  11.750  -0.284 -1.4560 -0.9648  0.2246
  749MOL0     H98839   2.223  11.784  -0.110  1.5360  0.0478 -0.2987
  749MOL0     H98840   2.237  11.972  -0.359  1.6218  3.0778  1.2802
  749MOL0     H98841   2.308  12.002  -0.198 -0.0838  1.1829 -0.5938
  749MOL0     H98842   2.437  11.939  -0.412  0.7120  2.0571  2.6988
  749MOL0     H98843   2.375  11.779  -0.416  0.2457  2.6678 -4.1383
  749MOL0     H98844   2.572  11.732  -0.288 -0.5664  0.6226 -1.0964
  749MOL0     H98845   2.437  11.712  -0.185  1.4752 -1.6910 -0.8940
  749MOL0     H98846   2.499  11.899  -0.053 -0.5291 -0.4098 -0.9398
  749MOL0     H98847   2.662  11.852  -0.102  0.1034 -0.6784 -1.0380
  749MOL0     H98848   2.516  12.071  -0.244 -1.1185  0.0725  1.1759
  749MOL0     H98849   2.688  12.008  -0.260 -1.7193 -0.6632 -3.0399
  749MOL0     H98850   1.731  11.734   0.046 -1.0114 -0.4534 -1.7479
  749MOL0     H98851   1.608  11.559   0.130  0.5873  3.6675  3.4861
  749MOL0     H98852   1.686  11.075   0.233  0.4738  0.9079 -1.2920
  749MOL0     H98853   1.549  10.855   0.274 -1.5279 -0.6672  0.5124
  749MOL0     H98854   0.442  10.387   0.430 -1.4615 -1.4034  3.9836
  749MOL0     H98855   0.237  10.480   0.495  1.2711 -0.6855  2.3549
  749MOL0     H98856  -0.087  10.615   0.812 -1.8626  1.0145  2.4542
  749MOL0     H98857  -0.270  10.729   0.874 -0.3612 -0.6073 -0.8368
  749MOL0     H98858  -0.426  10.871   0.927  0.7306 -0.7626 -2.4848
  749MOL0     H98859  -0.538  10.979   0.874  0.0661  0.9040  0.7352
  749MOL0     H98860  -0.451  11.007   1.095 -0.7778 -1.5793 -1.1872
  749MOL0     H98861  -0.281  11.032   1.027 -0.0895 -1.3399  0.2490
  749MOL0     H98862  -0.512  11.212   0.979  0.3016 -0.3424  0.5016
  749MOL0     H98863  -0.352  11.255   0.934 -2.7861 -0.4527 -1.9113
  749MOL0     H98864  -0.412  11.185   1.225  1.8770  0.4543  1.1892
  749MOL0     H98865  -0.264  11.254   1.168 -0.3247 -2.8746 -1.3576
  749MOL0     H98866  -0.494  11.598   1.204 -0.2601  0.2611 -1.1558
  749MOL0     H98867  -0.202  11.036   0.576  3.9619  2.5545  3.7421
  749MOL0     H98868  -0.014  10.910   0.500  3.1181  0.8241  2.4381
  750MOL0     O98869   8.719   4.679   4.369 -0.8334  0.0845 -0.3929
  750MOL0     C98870   8.828   4.627   4.361  0.1872 -0.1476 -0.2418
  750MOL0     O98871   8.913   4.646   4.258 -0.8984 -0.6060  0.3776
  750MOL0     C98872   8.897   4.739   4.161  0.2132 -0.4447 -0.7531
  750MOL0     C98873   8.932   4.700   4.036 -0.3375 -0.2223 -0.2225
  750MOL0     C98874   8.909   4.790   3.928 -0.9738  0.4146  0.6197
  750MOL0     C98875   8.829   4.905   3.945 -0.1177 -0.6170  0.5841
  750MOL0     O98876   8.800   4.985   3.839 -0.6909 -0.2221 -0.3426
  750MOL0     C98877   8.784   4.929   3.705 -0.4470  0.1762  0.0343
  750MOL0     C98878   8.728   5.033   3.598  0.2558  0.7463 -0.0904
  750MOL0     C98879   8.796   5.169   3.621  0.3566 -0.3008  0.1316
  750MOL0     C98880   8.944   5.175   3.600 -0.1595  0.3282  0.0437
  750MOL0     C98881   9.004   5.317   3.634 -0.1053 -0.5387  0.0215
  750MOL0     C98882   9.056   5.341   3.782  0.1009  0.3718 -0.5865
  750MOL0     C98883   8.962   5.363   3.903  0.3023 -1.4271  0.8246
  750MOL0     C98884   9.021   5.380   4.044 -0.1432  0.7510  0.2411
  750MOL0     N98885   9.133   5.475   4.036 -0.1724  0.0440  0.4807
  750MOL0     C98886   9.126   5.608   4.063 -0.6453  0.1953  1.1150
  750MOL0     C98887   9.257   5.653   4.036  0.3834  0.2639  0.2376
  750MOL0     C98888   9.320   5.785   4.054 -0.3498 -1.4064  0.4237
  750MOL0     C98889   9.404   5.806   4.182  0.6277  0.6807  0.2503
  750MOL0     C98890   9.316   5.778   4.310  0.7397 -0.8108 -0.5633
  750MOL0     C98891   9.402   5.775   4.435 -0.5629 -0.6040 -0.5417
  750MOL0     O98892   9.316   5.769   4.552  0.1623  0.6252 -0.1296
  750MOL0     C98893   9.363   5.799   4.669 -0.4648  0.5474  0.7435
  750MOL0     C98894   9.480   5.874   4.703  0.2313  0.4564 -0.0916
  750MOL0     C98895   9.512   5.892   4.839 -0.4170 -0.0644 -0.2139
  750MOL0     C98896   9.433   5.842   4.940 -1.2290 -0.0793 -0.7003
  750MOL0     C98897   9.469   5.862   5.079  0.1024 -0.5997 -0.0508
  750MOL0     O98898   9.394   5.827   5.180 -0.2470  0.2277 -0.3556
  750MOL0     C98899   9.425   5.886   5.302  0.4851  0.2611 -0.2288
  750MOL0     C98900   9.452   6.018   5.327 -0.3923 -0.1418 -0.7621
  750MOL0     C98901   9.483   6.068   5.459 -0.4263 -0.2962  1.3457
  750MOL0     C98902   9.511   5.970   5.551  0.2657 -0.1382  0.1846
  750MOL0     O98903   9.542   5.998   5.682 -0.3312  0.4368 -0.9619
  750MOL0     C98904   9.451   6.078   5.762 -0.8274 -0.5237  0.3840
  750MOL0     C98905   9.505   6.108   5.897 -0.1933 -0.7124 -0.6048
  750MOL0     C98906   9.403   6.192   5.978 -0.3490 -0.2150 -0.1435
  750MOL0     C98907   9.443   6.203   6.124  0.9300  0.8744 -0.1189
  750MOL0     C98908   9.352   6.276   6.225  0.0723  0.6490  0.3274
  750MOL0     C98909   9.414   6.302   6.363  0.2643  0.4561  0.7945
  750MOL0     C98910   9.423   6.168   6.435 -0.5993 -0.1637 -0.7589
  750MOL0     C98911   9.524   6.166   6.548  0.2790 -0.3824 -1.0796
  750MOL0    Cl98912   9.505   6.284   6.684  0.2164 -0.1135  0.0911
  750MOL0     C98913   9.488   5.841   5.526  0.4816  0.5825 -0.0635
  750MOL0     C98914   9.439   5.796   5.403  0.5823 -0.5329 -0.0883
  750MOL0     O98915   9.572   5.938   5.093  1.0018 -0.1304  0.0144
  750MOL0     C98916   9.315   5.776   4.904 -0.1481 -0.6270  0.3480
  750MOL0     C98917   9.284   5.756   4.772 -0.4679  0.4176 -0.3296
  750MOL0     N98918   9.328   5.549   3.991 -0.0428  0.1738  0.6696
  750MOL0     N98919   9.265   5.436   4.012  0.8945  0.3824 -0.3830
  750MOL0     C98920   8.797   4.945   4.077  0.4215 -0.2385 -0.9515
  750MOL0     C98921   8.835   4.862   4.185 -0.6969  0.6653 -1.6400
  750MOL0     C98922   8.864   4.541   4.470 -0.2474  0.2917  0.1110
  750MOL0     C98923   8.982   4.459   4.468  0.0139 -0.3627 -0.8548
  750MOL0     C98924   9.004   4.375   4.582  0.3553  0.1427  0.1938
  750MOL0     C98925   8.911   4.356   4.680  0.4811 -0.7115 -1.4504
  750MOL0     O98926   8.940   4.281   4.790  0.2218  0.2576  0.1170
  750MOL0     C98927   8.835   4.201   4.842 -0.4846 -0.3400 -0.3857
  750MOL0     C98928   8.904   4.083   4.896 -0.1135 -0.0191 -0.1902
  750MOL0     C98929   8.997   4.004   4.796  0.3334 -0.2205  0.8669
  750MOL0     C98930   9.014   3.851   4.831  1.3363 -0.0754  0.4496
  750MOL0     C98931   9.128   3.831   4.927 -0.0062 -0.7467 -0.0404
  750MOL0     C98932   9.240   3.835   4.977 -0.1787  0.7638 -0.2601
  750MOL0     C98933   8.794   4.431   4.673  0.3070  0.1682  1.2033
  750MOL0     C98934   8.769   4.516   4.570  0.1785  0.3490 -0.3299
  750MOL0     H98935   8.992   4.613   4.011  4.6528  3.4697 -3.0502
  750MOL0     H98936   8.944   4.773   3.827 -2.6605 -1.3386  0.2801
  750MOL0     H98937   8.726   4.837   3.696  1.0904 -0.7450 -0.9657
  750MOL0     H98938   8.883   4.893   3.675 -0.4614 -0.3477  0.6071
  750MOL0     H98939   8.620   5.046   3.613 -0.6005 -0.9884 -3.7095
  750MOL0     H98940   8.751   5.000   3.497  1.0427  1.2894 -0.1012
  750MOL0     H98941   8.772   5.195   3.724 -1.4615 -0.4321 -0.2227
  750MOL0     H98942   8.760   5.239   3.545 -0.4337 -2.8443 -1.9974
  750MOL0     H98943   8.993   5.099   3.662  1.9461 -0.2091 -2.1370
  750MOL0     H98944   8.944   5.150   3.494 -2.4174 -1.2197  0.3473
  750MOL0     H98945   8.924   5.389   3.614 -0.1498 -0.5848  0.0343
  750MOL0     H98946   9.092   5.338   3.574 -0.3633  2.0938  0.4407
  750MOL0     H98947   9.115   5.433   3.773  0.4193  0.7986  3.7540
  750MOL0     H98948   9.121   5.257   3.809  1.6655  0.5322 -3.3850
  750MOL0     H98949   8.915   5.460   3.883  1.6449 -1.0462 -0.6898
  750MOL0     H98950   8.887   5.284   3.910  2.1296 -3.5110 -1.4431
  750MOL0     H98951   9.068   5.285   4.069  0.6865  1.0127 -0.2743
  750MOL0     H98952   8.954   5.408   4.125 -0.3979 -2.2018  1.1460
  750MOL0     H98953   9.050   5.676   4.099 -0.4233  1.3861 -0.5367
  750MOL0     H98954   9.245   5.864   4.057  1.6793  0.6539  0.5868
  750MOL0     H98955   9.386   5.800   3.968 -1.9872 -2.9862 -1.1718
  750MOL0     H98956   9.439   5.908   4.194 -3.2448  2.1176  0.8085
  750MOL0     H98957   9.468   5.717   4.185 -1.4157 -0.8364  1.0099
  750MOL0     H98958   9.260   5.871   4.325  0.6720 -1.0976  1.2284
  750MOL0     H98959   9.250   5.691   4.300 -1.0160  0.7080 -6.1585
  750MOL0     H98960   9.470   5.861   4.426 -1.0728 -0.1561 -0.1861
  750MOL0     H98961   9.457   5.682   4.421 -1.8502 -1.5634  0.5341
  750MOL0     H98962   9.553   5.911   4.631 -0.2858  0.9332 -0.3758
  750MOL0     H98963   9.604   5.944   4.864  0.5832 -1.6421 -0.4157
  750MOL0     H98964   9.441   6.098   5.255  1.5559  1.8867  1.0384
  750MOL0     H98965   9.500   6.175   5.461 -0.0486  0.0014 -3.6074
  750MOL0     H98966   9.356   6.024   5.766 -0.3844 -1.4057 -0.5791
  750MOL0     H98967   9.427   6.178   5.724 -0.3303  0.4950  2.5399
  750MOL0     H98968   9.605   6.154   5.899 -0.4100  0.0047  3.4736
  750MOL0     H98969   9.528   6.008   5.935 -1.8209 -1.8887 -2.5188
  750MOL0     H98970   9.298   6.164   5.961 -0.6112  0.0650  0.9386
  750MOL0     H98971   9.416   6.295   5.944  0.7836 -0.0771  0.6635
  750MOL0     H98972   9.463   6.102   6.162  1.5425  1.6995  1.9111
  750MOL0     H98973   9.540   6.252   6.131  0.9847  0.5580  2.0517
  750MOL0     H98974   9.270   6.204   6.238 -1.7071  2.5286  0.1246
  750MOL0     H98975   9.307   6.360   6.171 -1.0417 -0.6859 -0.9033
  750MOL0     H98976   9.349   6.370   6.420  0.4811  3.2980 -2.0774
  750MOL0     H98977   9.516   6.341   6.364  0.0076  1.2565  3.3514
  750MOL0     H98978   9.322   6.154   6.474  0.3445 -0.8206  1.6560
  750MOL0     H98979   9.456   6.079   6.381 -0.1002 -3.7125  4.5835
  750MOL0     H98980   9.627   6.181   6.512  0.6908  0.4125  0.3402
  750MOL0     H98981   9.516   6.065   6.588  0.1309  1.2184  3.5657
  750MOL0     H98982   9.515   5.764   5.597  1.0057  2.8953  2.3799
  750MOL0     H98983   9.421   5.690   5.386 -2.0376 -0.7867  3.1831
  750MOL0     H98984   9.248   5.751   4.986 -0.8327 -0.0369 -0.0208
  750MOL0     H98985   9.189   5.711   4.744 -0.0280 -2.8375  2.6854
  750MOL0     H98986   8.747   5.039   4.100  0.8469  0.0061 -1.0112
  750MOL0     H98987   8.810   4.882   4.288  2.4471 -3.1300  0.1184
  750MOL0     H98988   9.049   4.451   4.384  3.0487 -1.3967  1.4959
  750MOL0     H98989   9.090   4.308   4.575 -1.5480 -2.3942 -0.2930
  750MOL0     H98990   8.773   4.177   4.755 -0.8931  2.5528 -1.0084
  750MOL0     H98991   8.772   4.248   4.918  1.0855 -1.9741  2.0633
  750MOL0     H98992   8.977   4.126   4.966 -2.9132  0.1677  2.8487
  750MOL0     H98993   8.838   4.014   4.949  0.1620  0.3573  0.6583
  750MOL0     H98994   9.092   4.057   4.794  0.7087 -0.9025  0.1289
  750MOL0     H98995   8.960   4.016   4.694  2.9925  1.6078  0.0373
  750MOL0     H98996   8.917   3.823   4.874  1.1968 -1.5891 -0.7397
  750MOL0     H98997   9.047   3.787   4.748  2.7985 -0.2440  1.1390
  750MOL0     H98998   9.335   3.833   5.026  0.4395 -0.0363 -1.4397
  750MOL0     H98999   8.715   4.423   4.746  1.8773  4.8515  3.8959
  750MOL0     H99000   8.670   4.560   4.571 -1.6911 -3.4494 -1.1734
  751MOL0     O99001  10.057  10.150   2.590 -0.7931 -1.2306 -0.1661
  751MOL0     C99002  10.128  10.082   2.525 -0.4030 -0.5255 -0.1636
  751MOL0     O99003  10.120  10.053   2.389 -0.6745  0.1987 -0.0244
  751MOL0     C99004  10.012  10.109   2.310  0.1851  0.8263 -0.1227
  751MOL0     C99005  10.032  10.132   2.172 -0.2082  0.3665  0.3960
  751MOL0     C99006   9.937  10.187   2.089 -0.0589  0.4544  0.0178
  751MOL0     C99007   9.808  10.213   2.144 -0.8807  0.3442 -1.0957
  751MOL0     O99008   9.732  10.282   2.064 -0.0275 -0.0922  0.4344
  751MOL0     C99009   9.691  10.419   2.093 -0.4494  0.5837 -0.5949
  751MOL0     C99010   9.543  10.430   2.130 -0.0102 -0.7525  0.4252
  751MOL0     C99011   9.520  10.576   2.105  0.1329  0.0757 -0.1830
  751MOL0     C99012   9.386  10.634   2.161 -0.2278  0.9216  0.6258
  751MOL0     C99013   9.390  10.652   2.316 -0.1693  0.2509 -0.0278
  751MOL0     C99014   9.252  10.704   2.360 -0.2622 -0.2901  0.5383
  751MOL0     C99015   9.246  10.726   2.511  0.2574 -1.3111  0.5086
  751MOL0     C99016   9.310  10.868   2.536 -0.3539  0.5979  0.2461
  751MOL0     N99017   9.211  10.973   2.505 -0.7986  0.6616  0.2559
  751MOL0     C99018   9.102  11.004   2.589 -0.6411  0.4910  0.7075
  751MOL0     C99019   9.045  11.112   2.530  0.7029 -0.5742 -0.3877
  751MOL0     C99020   8.937  11.192   2.597 -0.4001  0.2340  0.3694
  751MOL0     C99021   8.978  11.277   2.715 -1.5446  0.2879 -0.5831
  751MOL0     C99022   8.865  11.328   2.797 -0.7654  0.4104  0.8565
  751MOL0     C99023   8.907  11.393   2.935 -0.0802 -1.0698  0.4519
  751MOL0     O99024   8.796  11.473   2.996  0.2624 -0.0939  0.1705
  751MOL0     C99025   8.693  11.408   3.065 -0.0039  0.3649 -0.2707
  751MOL0     C99026   8.597  11.493   3.126 -0.1463  0.1005  0.7000
  751MOL0     C99027   8.506  11.453   3.228 -0.4846 -0.0630  0.0675
  751MOL0     C99028   8.512  11.313   3.255  0.1497  0.2554 -0.2054
  751MOL0     C99029   8.429  11.257   3.362  0.4942  0.3147 -1.0526
  751MOL0     O99030   8.465  11.132   3.412 -0.1485  0.3142 -0.9623
  751MOL0     C99031   8.403  11.093   3.530 -0.0227  1.2158 -1.0889
  751MOL0     C99032   8.444  11.148   3.659 -0.6845  0.3648  0.3976
  751MOL0     C99033   8.393  11.093   3.776 -0.3025 -1.2937  0.3802
  751MOL0     C99034   8.299  10.991   3.766  0.1947 -0.4712 -1.0868
  751MOL0     O99035   8.243  10.922   3.877 -0.0499  0.8212 -0.0530
  751MOL0     C99036   8.329  10.893   3.987 -0.1562  0.1778  0.5136
  751MOL0     C99037   8.286  10.762   4.050  0.4500  0.6061 -0.2045
  751MOL0     C99038   8.231  10.661   3.946 -0.2142 -0.1094 -0.1886
  751MOL0     C99039   8.205  10.522   4.002  0.0603  0.1677  0.5392
  751MOL0     C99040   8.178  10.413   3.890  0.8006 -0.5486 -0.3531
  751MOL0     C99041   8.050  10.320   3.911 -0.6514  0.7564  0.3692
  751MOL0     C99042   8.026  10.266   4.061  0.5198 -0.7567  0.1058
  751MOL0     C99043   7.909  10.170   4.051 -0.0331 -0.2914  0.0103
  751MOL0    Cl99044   7.897  10.094   4.210 -0.1209 -0.1468 -0.2540
  751MOL0     C99045   8.262  10.939   3.646 -0.2074 -0.5449  0.1403
  751MOL0     C99046   8.323  10.976   3.530 -0.0458  0.4934 -0.3912
  751MOL0     O99047   8.338  11.331   3.409 -0.4243 -0.5868 -0.9131
  751MOL0     C99048   8.606  11.229   3.197  0.2897 -1.4704  0.3271
  751MOL0     C99049   8.691  11.277   3.101 -0.3282  0.6321  0.4215
  751MOL0     N99050   9.122  11.153   2.413  0.1342  0.2241  0.1576
  751MOL0     N99051   9.222  11.069   2.404  0.1519  0.1566  0.4450
  751MOL0     C99052   9.780  10.179   2.276  0.4335 -1.0652  0.8842
  751MOL0     C99053   9.883  10.127   2.352 -0.1373 -0.0685  0.2136
  751MOL0     C99054  10.241  10.034   2.594  0.0674  0.0861  1.0453
  751MOL0     C99055  10.319  10.109   2.685  0.2757  0.1900  0.1228
  751MOL0     C99056  10.439  10.051   2.741  0.3122  0.0749  0.2134
  751MOL0     C99057  10.485   9.921   2.707 -0.4441  1.1367 -0.2157
  751MOL0     O99058  10.597   9.876   2.777  0.5080 -0.3511 -0.0877
  751MOL0     C99059  10.688   9.803   2.688  1.0495  0.5381  0.8829
  751MOL0     C99060  10.814   9.782   2.765 -0.2899  0.6044 -1.1816
  751MOL0     C99061  10.883   9.914   2.794  1.0684 -1.2493 -1.2402
  751MOL0     C99062  10.995   9.886   2.897 -0.3471  0.0765  0.8154
  751MOL0     C99063  11.124   9.970   2.869  0.6213  0.5063 -0.0898
  751MOL0     C99064  11.228  10.031   2.841  0.3987 -0.3273 -0.1059
  751MOL0     C99065  10.407   9.857   2.612 -0.0404  0.2931  0.2807
  751MOL0     C99066  10.290   9.908   2.552 -0.4677  0.1508  0.0034
  751MOL0     H99067  10.121  10.088   2.129 -1.6738 -1.4811 -0.9025
  751MOL0     H99068   9.969  10.223   1.992 -2.1413  1.5935 -0.2939
  751MOL0     H99069   9.707  10.448   1.989 -0.1662 -3.3328 -1.7917
  751MOL0     H99070   9.759  10.473   2.159  2.0741 -1.3140 -1.4720
  751MOL0     H99071   9.505  10.391   2.225 -1.7272  1.7303  0.8403
  751MOL0     H99072   9.472  10.386   2.059  0.7625 -0.5150 -0.5181
  751MOL0     H99073   9.521  10.584   1.996 -1.0925 -3.9279 -0.6499
  751MOL0     H99074   9.602  10.639   2.140  2.2191 -0.6233 -3.4356
  751MOL0     H99075   9.364  10.736   2.128 -0.5499  0.9730  1.0003
  751MOL0     H99076   9.310  10.560   2.134  2.2114 -1.2987 -0.6903
  751MOL0     H99077   9.465  10.729   2.337 -0.5291  0.1162  1.9717
  751MOL0     H99078   9.422  10.560   2.365 -1.2057  0.4136  0.9806
  751MOL0     H99079   9.175  10.632   2.331 -1.1442  0.9907 -0.4378
  751MOL0     H99080   9.223  10.790   2.299 -1.7422 -0.3082  1.1698
  751MOL0     H99081   9.140  10.726   2.539  0.3105  1.8845  1.1117
  751MOL0     H99082   9.295  10.651   2.574 -0.2056  1.2336  4.2608
  751MOL0     H99083   9.402  10.882   2.477 -2.3464  1.1756 -3.0037
  751MOL0     H99084   9.338  10.874   2.641 -0.3005  0.3658  0.2446
  751MOL0     H99085   9.066  10.946   2.674 -1.6645 -0.9145 -0.6407
  751MOL0     H99086   8.862  11.118   2.626 -0.2632 -0.0508  0.0029
  751MOL0     H99087   8.896  11.252   2.515 -1.0394 -0.3061  0.2865
  751MOL0     H99088   9.035  11.360   2.672 -3.2118 -1.1178 -6.5062
  751MOL0     H99089   9.048  11.223   2.779  2.5688 -0.1459 -4.8751
  751MOL0     H99090   8.817  11.403   2.733 -1.1304 -0.3495  0.2265
  751MOL0     H99091   8.795  11.248   2.823 -1.7783  0.6533 -0.9581
  751MOL0     H99092   8.984  11.465   2.906 -0.9927 -0.1704  0.2373
  751MOL0     H99093   8.936  11.305   2.994 -2.9983 -1.1295  1.9627
  751MOL0     H99094   8.615  11.597   3.102 -0.4153  0.8177  3.2869
  751MOL0     H99095   8.449  11.523   3.289 -0.5706  0.3122 -0.4363
  751MOL0     H99096   8.503  11.239   3.652  0.2276 -0.0076  2.5488
  751MOL0     H99097   8.432  11.141   3.866  0.1684  2.6015 -1.6875
  751MOL0     H99098   8.334  10.966   4.067  2.3340 -0.4271  0.9790
  751MOL0     H99099   8.432  10.873   3.956 -0.1361 -1.6437  1.5983
  751MOL0     H99100   8.208  10.772   4.125  0.2262  1.7848 -0.5746
  751MOL0     H99101   8.370  10.715   4.102 -1.6070 -3.2628 -0.0139
  751MOL0     H99102   8.290  10.662   3.854 -1.6504 -1.0260 -1.1746
  751MOL0     H99103   8.134  10.704   3.917 -0.2535 -1.0200 -1.5188
  751MOL0     H99104   8.295  10.484   4.051 -0.4139  0.8091  1.9763
  751MOL0     H99105   8.118  10.518   4.068  0.6680 -2.9647  1.3147
  751MOL0     H99106   8.259  10.345   3.864 -0.2999 -2.7772  1.6626
  751MOL0     H99107   8.146  10.473   3.804 -1.7710 -0.0078  0.8977
  751MOL0     H99108   8.056  10.236   3.841 -1.2382  1.4526 -0.5442
  751MOL0     H99109   7.957  10.368   3.882 -1.0444 -0.6423 -0.8195
  751MOL0     H99110   8.115  10.222   4.107  0.5075  0.8338  1.7356
  751MOL0     H99111   7.991  10.348   4.125 -1.0979 -0.1354 -1.4889
  751MOL0     H99112   7.934  10.096   3.975  0.8863  0.7563 -0.7315
  751MOL0     H99113   7.818  10.227   4.031 -0.1127  0.1837  1.5936
  751MOL0     H99114   8.205  10.847   3.643 -0.3990 -0.5723  2.5631
  751MOL0     H99115   8.306  10.909   3.446  1.4275 -0.5466  0.0953
  751MOL0     H99116   8.608  11.122   3.212 -0.3729 -1.5532 -0.1349
  751MOL0     H99117   8.764  11.202   3.073  0.5395  1.7309 -0.3404
  751MOL0     H99118   9.680  10.205   2.310  1.2243  1.3441  1.6014
  751MOL0     H99119   9.856  10.100   2.454  2.1489  2.0872  1.5028
  751MOL0     H99120  10.297  10.216   2.683 -1.3294  0.0143  2.8358
  751MOL0     H99121  10.491  10.103   2.821 -1.5944 -0.1477  1.6583
  751MOL0     H99122  10.700   9.851   2.590 -2.8061  1.1692  0.5556
  751MOL0     H99123  10.649   9.704   2.661  0.9356  0.4679  1.3073
  751MOL0     H99124  10.788   9.729   2.857  2.5649  0.7278 -0.1942
  751MOL0     H99125  10.879   9.714   2.709 -1.1096 -3.2085  2.0704
  751MOL0     H99126  10.819   9.991   2.839  3.0581 -1.8610  3.1539
  751MOL0     H99127  10.924   9.952   2.700 -1.9514  2.4627 -1.3248
  751MOL0     H99128  10.946   9.908   2.992 -0.6666  1.5523  0.3371
  751MOL0     H99129  11.022   9.781   2.882 -1.3000 -0.7032  3.8226
  751MOL0     H99130  11.318  10.086   2.824  1.3915  0.0146  4.7169
  751MOL0     H99131  10.432   9.753   2.592 -1.1684 -0.8864  4.1295
  751MOL0     H99132  10.251   9.843   2.474  0.9056  0.7227 -1.2246
  752MOL0     O99133   6.224   4.084   9.097  0.5660 -0.5503 -0.4828
  752MOL0     C99134   6.194   4.001   9.007 -0.7070 -0.3356 -0.1858
  752MOL0     O99135   6.100   4.025   8.907 -0.3812  0.6588  0.3770
  752MOL0     C99136   6.034   4.145   8.916  0.3782 -0.5116 -0.0050
  752MOL0     C99137   5.896   4.149   8.937 -0.5695  0.4112  0.3197
  752MOL0     C99138   5.818   4.262   8.940 -0.2861 -0.4389  0.4453
  752MOL0     C99139   5.888   4.390   8.923  0.3331 -0.0781 -0.2519
  752MOL0     O99140   5.814   4.506   8.933 -0.3347  0.3327  0.0966
  752MOL0     C99141   5.861   4.651   8.915 -0.6618  0.6133  0.2982
  752MOL0     C99142   5.748   4.754   8.920  0.2552 -0.1074 -0.4323
  752MOL0     C99143   5.802   4.890   8.976 -1.0042  0.5216  0.5997
  752MOL0     C99144   5.767   5.007   8.895 -0.2892 -0.2230  0.3583
  752MOL0     C99145   5.843   4.998   8.756  1.2040  0.7451 -0.4253
  752MOL0     C99146   5.869   5.142   8.703  0.1477  0.6341 -0.2217
  752MOL0     C99147   5.734   5.219   8.656 -0.4879  0.9939 -0.5761
  752MOL0     C99148   5.713   5.326   8.758 -1.4424  0.5905 -0.8753
  752MOL0     N99149   5.656   5.443   8.701  0.9656 -0.2862  1.5487
  752MOL0     C99150   5.719   5.552   8.649  0.5738 -0.4129 -0.1315
  752MOL0     C99151   5.636   5.632   8.588  0.2851  0.1825  0.6078
  752MOL0     C99152   5.679   5.747   8.508 -0.5725 -0.2016  0.5065
  752MOL0     C99153   5.600   5.864   8.564  0.5578 -0.7413  0.3599
  752MOL0     C99154   5.464   5.897   8.503  0.3117  0.0534  0.6080
  752MOL0     C99155   5.480   5.901   8.349  0.5661 -0.5787  0.8648
  752MOL0     O99156   5.391   6.002   8.292  0.0282 -0.3860  0.4508
  752MOL0     C99157   5.365   6.006   8.157 -0.5432  0.4047  0.9002
  752MOL0     C99158   5.463   5.959   8.057  0.1390 -0.1226 -0.8066
  752MOL0     C99159   5.437   5.946   7.913 -0.0633 -0.2027 -0.2486
  752MOL0     C99160   5.316   5.995   7.868 -0.0499  0.7434  0.0246
  752MOL0     C99161   5.282   5.990   7.728  0.4016 -0.1022 -1.3020
  752MOL0     O99162   5.376   5.949   7.639  0.8936  0.2358 -0.5670
  752MOL0     C99163   5.338   5.936   7.510 -0.1968  0.5920  0.8236
  752MOL0     C99164   5.246   6.018   7.444 -0.1971  0.5643  0.2319
  752MOL0     C99165   5.223   5.991   7.306  0.4009 -0.6120 -0.3005
  752MOL0     C99166   5.290   5.891   7.236  0.6960  0.3802  0.1979
  752MOL0     O99167   5.257   5.856   7.107  0.5964  0.0590  1.0535
  752MOL0     C99168   5.183   5.947   7.019 -0.0577 -0.4770 -0.0336
  752MOL0     C99169   5.123   5.868   6.910  0.4787  0.5146 -0.1299
  752MOL0     C99170   5.061   5.961   6.807 -1.4042 -1.0074  0.2682
  752MOL0     C99171   4.985   5.908   6.692 -0.3665  0.7979  0.9762
  752MOL0     C99172   4.911   6.020   6.601  0.6371  0.2372  0.2085
  752MOL0     C99173   5.022   6.095   6.530 -0.8368  0.1386  0.5001
  752MOL0     C99174   4.981   6.172   6.407 -0.4421 -1.0007  0.3769
  752MOL0     C99175   5.102   6.244   6.323  0.2551 -0.1304 -0.1897
  752MOL0    Cl99176   5.215   6.119   6.253 -0.1246  0.1865 -0.3830
  752MOL0     C99177   5.385   5.812   7.308 -0.0598 -0.4268  0.4621
  752MOL0     C99178   5.404   5.836   7.441 -0.0677 -0.0320 -0.2074
  752MOL0     O99179   5.164   6.000   7.706 -0.1153 -0.1862 -0.9490
  752MOL0     C99180   5.222   6.039   7.966 -0.0075  0.8826  0.4690
  752MOL0     C99181   5.248   6.046   8.103 -0.4138  0.2649 -0.7523
  752MOL0     N99182   5.516   5.563   8.590 -0.5138  0.3785 -0.6362
  752MOL0     N99183   5.522   5.451   8.658 -0.2105  0.2382  0.5857
  752MOL0     C99184   6.029   4.393   8.909 -0.9885  0.0021 -0.1925
  752MOL0     C99185   6.099   4.267   8.889  0.2113 -0.3547  0.3176
  752MOL0     C99186   6.291   3.898   8.977 -0.3480 -0.0534 -0.4007
  752MOL0     C99187   6.304   3.839   8.853 -0.2712 -0.2720  0.9735
  752MOL0     C99188   6.409   3.741   8.821 -0.0966 -0.5330 -0.2685
  752MOL0     C99189   6.499   3.713   8.924  0.5466 -0.5982  0.1499
  752MOL0     O99190   6.597   3.621   8.919 -0.2669 -0.7476  0.6672
  752MOL0     C99191   6.572   3.502   8.843  0.0408  0.2236 -0.5285
  752MOL0     C99192   6.622   3.377   8.920  1.3805 -0.2530  0.8167
  752MOL0     C99193   6.549   3.346   9.050  0.7071 -0.5964 -0.2375
  752MOL0     C99194   6.615   3.226   9.132  0.0550 -0.0544  0.3504
  752MOL0     C99195   6.610   3.095   9.067  0.2634 -0.2854  0.0121
  752MOL0     C99196   6.611   2.988   9.005 -0.2352 -0.3058 -0.0414
  752MOL0     C99197   6.491   3.783   9.047  0.1647  1.3579  0.7302
  752MOL0     C99198   6.389   3.867   9.073  0.7745 -0.5506  0.2564
  752MOL0     H99199   5.835   4.060   8.950 -4.6210  2.7176 -1.0956
  752MOL0     H99200   5.711   4.257   8.957 -0.6451 -0.3113 -1.5958
  752MOL0     H99201   5.915   4.659   8.820 -0.5457 -1.7889  0.1130
  752MOL0     H99202   5.937   4.677   8.988 -1.4518  1.8756  0.7118
  752MOL0     H99203   5.670   4.721   8.990 -0.4018  3.1232  0.5245
  752MOL0     H99204   5.714   4.776   8.818  1.3635  4.2233 -0.0673
  752MOL0     H99205   5.910   4.893   8.965 -0.9614 -1.9495 -0.3202
  752MOL0     H99206   5.775   4.906   9.081 -1.5088  3.2230  0.1396
  752MOL0     H99207   5.658   5.012   8.881  0.0888  1.5054 -2.9634
  752MOL0     H99208   5.802   5.094   8.951  2.1203  1.5382 -3.4252
  752MOL0     H99209   5.798   4.920   8.694  1.3928 -1.5713  2.0996
  752MOL0     H99210   5.942   4.955   8.775 -1.0512 -5.6826 -0.6411
  752MOL0     H99211   5.933   5.130   8.615  0.3532 -1.8302  0.1803
  752MOL0     H99212   5.924   5.184   8.787 -4.5221  0.7102  3.1774
  752MOL0     H99213   5.762   5.269   8.563 -0.2667  1.8445 -0.0643
  752MOL0     H99214   5.648   5.155   8.634 -1.9914  2.9778 -0.7703
  752MOL0     H99215   5.807   5.362   8.801 -2.2334  1.2058  0.3681
  752MOL0     H99216   5.655   5.283   8.839 -1.0492  2.6165  0.5665
  752MOL0     H99217   5.827   5.564   8.649  0.8198 -2.3003  0.2734
  752MOL0     H99218   5.658   5.719   8.405  2.1631 -2.4159  0.4592
  752MOL0     H99219   5.786   5.768   8.511 -0.7709  2.2007 -3.2240
  752MOL0     H99220   5.663   5.953   8.561 -1.2127  0.5816  0.4971
  752MOL0     H99221   5.586   5.850   8.671  1.2004  4.2678  1.3454
  752MOL0     H99222   5.388   5.822   8.531 -0.9212  0.9240 -0.2824
  752MOL0     H99223   5.427   5.987   8.553  1.8593  0.8316  0.3914
  752MOL0     H99224   5.460   5.801   8.308  1.3433 -0.8049  1.0221
  752MOL0     H99225   5.580   5.931   8.314 -1.0660  1.9081 -2.2462
  752MOL0     H99226   5.564   5.934   8.088 -0.4382 -0.7020  0.6927
  752MOL0     H99227   5.517   5.916   7.846 -0.1024 -0.7294 -0.0607
  752MOL0     H99228   5.194   6.106   7.482 -2.4311 -0.6371  0.0978
  752MOL0     H99229   5.145   6.051   7.261 -1.3916 -2.4028  0.3208
  752MOL0     H99230   5.249   6.018   6.967 -0.2293  0.7853  1.3932
  752MOL0     H99231   5.105   6.010   7.064 -1.7296 -2.1734 -0.4420
  752MOL0     H99232   5.043   5.800   6.940 -0.4339  1.2529 -0.8619
  752MOL0     H99233   5.189   5.790   6.870 -1.0241 -0.0816 -1.5471
  752MOL0     H99234   5.143   6.029   6.782 -2.0294 -0.0096  0.8466
  752MOL0     H99235   4.997   6.037   6.853  2.5767  1.5203  2.2408
  752MOL0     H99236   5.041   5.835   6.631 -0.9260 -1.1671  2.6842
  752MOL0     H99237   4.910   5.846   6.741 -0.3039  3.0052  4.1477
  752MOL0     H99238   4.849   6.090   6.658 -0.0671  1.2179 -1.6805
  752MOL0     H99239   4.847   5.967   6.531  1.4030 -1.6594  0.8837
  752MOL0     H99240   5.102   6.029   6.493 -1.6153 -0.8185  0.4807
  752MOL0     H99241   5.060   6.171   6.600 -0.0506 -2.1806  2.7670
  752MOL0     H99242   4.925   6.104   6.343  0.8980 -0.5834 -1.3186
  752MOL0     H99243   4.916   6.257   6.431 -0.4813  0.0902 -3.0486
  752MOL0     H99244   5.173   6.301   6.384  0.9756  0.2695 -1.3769
  752MOL0     H99245   5.067   6.319   6.251 -1.0958 -1.2391 -0.7345
  752MOL0     H99246   5.433   5.732   7.253  2.1563  0.4488  1.0347
  752MOL0     H99247   5.477   5.775   7.493 -0.9625  0.4855  1.7762
  752MOL0     H99248   5.130   6.081   7.926  1.6554  1.2491 -3.4337
  752MOL0     H99249   5.174   6.095   8.166  1.1720  0.6891  0.8685
  752MOL0     H99250   6.083   4.485   8.890 -0.8377 -0.1899 -0.7189
  752MOL0     H99251   6.205   4.263   8.866  0.5415  3.6749  0.4629
  752MOL0     H99252   6.224   3.844   8.780 -2.3564  2.0046  3.2418
  752MOL0     H99253   6.416   3.689   8.726 -3.3398 -2.5449  0.4244
  752MOL0     H99254   6.632   3.500   8.752  3.0905  2.0804  1.2752
  752MOL0     H99255   6.464   3.488   8.829  0.1872 -2.1225  0.3521
  752MOL0     H99256   6.596   3.289   8.859 -1.5337  1.4493 -0.6258
  752MOL0     H99257   6.728   3.383   8.945  1.4331 -2.3687  1.3245
  752MOL0     H99258   6.441   3.334   9.032 -0.0481  1.5621  2.1762
  752MOL0     H99259   6.538   3.434   9.114 -3.0158 -2.7743  2.5253
  752MOL0     H99260   6.721   3.247   9.148  0.0724 -0.2242  0.4575
  752MOL0     H99261   6.562   3.227   9.228  1.3495  0.9461  1.0909
  752MOL0     H99262   6.598   2.890   8.965  0.2161  0.0394 -1.0562
  752MOL0     H99263   6.559   3.768   9.130  1.0674  2.4024  0.1957
  752MOL0     H99264   6.379   3.911   9.172 -2.5074 -2.9852  1.1449
  753MOL0     O99265   5.249   3.323  10.441  0.0094 -0.5639 -0.3369
  753MOL0     C99266   5.311   3.214  10.411  0.7940 -0.1628  0.2544
  753MOL0     O99267   5.302   3.142  10.289 -0.3200  0.2936 -0.0469
  753MOL0     C99268   5.184   3.168  10.209  0.5311  0.4485 -0.5088
  753MOL0     C99269   5.203   3.247  10.099 -0.6225  1.4565  0.1254
  753MOL0     C99270   5.091   3.255  10.008 -0.7787 -0.9422 -0.5303
  753MOL0     C99271   4.968   3.203  10.031 -0.8093  1.0579 -0.0512
  753MOL0     O99272   4.860   3.214   9.951  0.0818  1.0711  0.3283
  753MOL0     C99273   4.875   3.219   9.811 -0.3356  0.5082 -0.5141
  753MOL0     C99274   4.731   3.222   9.755  0.2718  0.0589 -0.5588
  753MOL0     C99275   4.723   3.215   9.603  0.1594  0.0588 -0.5462
  753MOL0     C99276   4.580   3.220   9.549  0.4336 -0.5636 -0.1780
  753MOL0     C99277   4.589   3.178   9.410  0.5387  0.0975  0.1192
  753MOL0     C99278   4.450   3.123   9.351 -0.3426  0.8160  0.9704
  753MOL0     C99279   4.342   3.225   9.327 -0.7249  0.3488  0.8518
  753MOL0     C99280   4.373   3.322   9.214 -0.4522 -0.1279  0.7045
  753MOL0     N99281   4.267   3.417   9.189 -0.6399  0.3937 -0.1990
  753MOL0     C99282   4.269   3.560   9.211 -0.2982  0.6104 -0.7164
  753MOL0     C99283   4.139   3.602   9.190 -0.0552  0.4278 -0.1274
  753MOL0     C99284   4.075   3.735   9.192 -0.2997 -0.2712  0.4082
  753MOL0     C99285   4.160   3.856   9.131  0.3209 -0.3115  0.6210
  753MOL0     C99286   4.291   3.884   9.217  0.4936  0.9895  1.0043
  753MOL0     C99287   4.342   4.024   9.209  0.5760  0.3957 -0.0039
  753MOL0     O99288   4.384   4.061   9.077  0.5142 -0.1491  0.1429
  753MOL0     C99289   4.322   4.169   9.019 -0.6962  0.1664  0.2132
  753MOL0     C99290   4.300   4.155   8.881 -0.2003  0.7782 -0.4947
  753MOL0     C99291   4.237   4.255   8.813 -0.5312 -0.1200 -0.6895
  753MOL0     C99292   4.210   4.385   8.865 -0.1248 -1.2053  0.2993
  753MOL0     C99293   4.134   4.479   8.777  0.0984  0.1903 -0.5635
  753MOL0     O99294   4.118   4.432   8.654  0.8357 -0.7701 -0.0262
  753MOL0     C99295   4.051   4.511   8.565 -0.2780 -0.4534  0.0756
  753MOL0     C99296   4.112   4.612   8.499  0.8962 -0.5542 -0.5550
  753MOL0     C99297   4.037   4.670   8.387 -1.0165  0.3390 -0.4529
  753MOL0     C99298   3.910   4.625   8.356 -0.5054 -0.2573  0.3567
  753MOL0     O99299   3.862   4.686   8.249 -0.5372 -0.2302  0.7429
  753MOL0     C99300   3.744   4.639   8.180 -0.1437  0.1599 -0.6285
  753MOL0     C99301   3.704   4.737   8.069  0.5514  0.3897  0.1907
  753MOL0     C99302   3.684   4.886   8.114 -0.9974  0.1453 -0.0223
  753MOL0     C99303   3.562   4.897   8.217 -0.1181  0.3412 -0.3712
  753MOL0     C99304   3.528   5.051   8.248  0.3936  1.0602 -0.8077
  753MOL0     C99305   3.432   5.117   8.157  0.6452  1.0091  0.4208
  753MOL0     C99306   3.291   5.056   8.164  0.1249 -0.2199 -0.5043
  753MOL0     C99307   3.197   5.141   8.078  0.9558 -1.1353 -0.5828
  753MOL0    Cl99308   3.016   5.083   8.110 -0.2499  0.7557  0.0504
  753MOL0     C99309   3.854   4.538   8.433  0.6273 -1.4453  0.5460
  753MOL0     C99310   3.925   4.475   8.535  0.8999 -1.1093  0.5239
  753MOL0     O99311   4.086   4.581   8.821  0.0439 -0.2279  0.2574
  753MOL0     C99312   4.233   4.402   9.006 -0.7145 -0.9441 -0.0241
  753MOL0     C99313   4.291   4.294   9.085 -0.2117  0.3409 -0.5724
  753MOL0     N99314   4.062   3.483   9.179 -0.4758 -0.2848 -0.3169
  753MOL0     N99315   4.139   3.380   9.168  0.7873 -0.1676 -0.0699
  753MOL0     C99316   4.947   3.138  10.164 -0.0270  0.8613 -0.4132
  753MOL0     C99317   5.057   3.125  10.252  1.0857 -0.6897  0.9284
  753MOL0     C99318   5.407   3.158  10.507  0.2726  0.0748 -0.0336
  753MOL0     C99319   5.480   3.038  10.472  0.2214  0.2383 -0.2106
  753MOL0     C99320   5.573   2.990  10.563 -0.2390 -0.8329 -0.1098
  753MOL0     C99321   5.597   3.050  10.679  0.4831 -0.2404  0.1436
  753MOL0     O99322   5.701   2.995  10.760 -0.1492 -0.2469  0.5975
  753MOL0     C99323   5.710   3.031  10.902 -0.2996  0.4732 -0.0066
  753MOL0     C99324   5.794   2.923  10.970  1.1550 -0.1240  0.0853
  753MOL0     C99325   5.704   2.802  10.996 -0.3721 -0.0686  0.3846
  753MOL0     C99326   5.774   2.694  11.082 -0.3606 -1.1525  0.2662
  753MOL0     C99327   5.873   2.625  11.002 -0.1516  0.8120 -0.0861
  753MOL0     C99328   5.962   2.558  10.953 -0.3834 -0.8739 -0.5709
  753MOL0     C99329   5.532   3.164  10.715  0.2184  0.8711  0.0840
  753MOL0     C99330   5.432   3.213  10.634 -0.0208  0.4211 -0.4096
  753MOL0     H99331   5.308   3.273  10.088  0.6848 -2.2968  1.8517
  753MOL0     H99332   5.113   3.303   9.914  1.6843 -2.4518 -0.8228
  753MOL0     H99333   4.930   3.128   9.782  1.6588  0.7821  2.0856
  753MOL0     H99334   4.939   3.303   9.784  0.8613 -0.3789 -0.5511
  753MOL0     H99335   4.680   3.317   9.774 -0.9363 -0.2201 -2.1270
  753MOL0     H99336   4.668   3.143   9.797 -0.4416  0.3909 -0.9752
  753MOL0     H99337   4.754   3.115   9.571  0.6259  0.0924 -0.2209
  753MOL0     H99338   4.786   3.292   9.558  0.2641  0.2559 -0.0716
  753MOL0     H99339   4.517   3.144   9.596 -0.2488  0.0544 -0.0625
  753MOL0     H99340   4.537   3.320   9.564 -0.0387 -1.0783  2.4727
  753MOL0     H99341   4.646   3.085   9.405  1.5276  0.6884  0.1592
  753MOL0     H99342   4.649   3.245   9.349  1.6466  0.1661  1.2465
  753MOL0     H99343   4.412   3.043   9.416 -0.3879  0.9445  1.1025
  753MOL0     H99344   4.460   3.062   9.260 -1.7730  1.8847  0.0582
  753MOL0     H99345   4.252   3.171   9.297 -0.3763  0.3517 -0.2514
  753MOL0     H99346   4.317   3.284   9.415  1.5828  2.8560 -0.0458
  753MOL0     H99347   4.403   3.258   9.131  0.9870 -1.7569  2.3922
  753MOL0     H99348   4.458   3.380   9.251 -2.1254  3.0656 -0.0958
  753MOL0     H99349   4.352   3.628   9.228 -0.3034  0.2977  0.6949
  753MOL0     H99350   4.062   3.758   9.298  1.7002 -0.8227  0.8202
  753MOL0     H99351   3.973   3.729   9.153 -0.8063 -0.7277  1.7644
  753MOL0     H99352   4.103   3.948   9.144  2.4423  1.2502 -0.4336
  753MOL0     H99353   4.182   3.839   9.025  0.2212 -0.5786  0.6422
  753MOL0     H99354   4.281   3.862   9.324  1.3716 -3.5971  0.3504
  753MOL0     H99355   4.370   3.815   9.186 -2.7795 -2.6392 -0.0800
  753MOL0     H99356   4.427   4.025   9.277  0.2514 -2.0686  0.5505
  753MOL0     H99357   4.267   4.090   9.254 -0.1675  0.7624 -1.7054
  753MOL0     H99358   4.323   4.056   8.843 -0.5144  0.1746  0.8068
  753MOL0     H99359   4.227   4.227   8.709  1.3305  0.5365 -1.0806
  753MOL0     H99360   4.209   4.644   8.534  0.6148 -2.6297  2.4763
  753MOL0     H99361   4.078   4.749   8.325 -0.3786  1.2406  1.0653
  753MOL0     H99362   3.670   4.628   8.260 -1.7861  1.9081 -1.8352
  753MOL0     H99363   3.768   4.543   8.133  2.1981  1.3886 -2.1459
  753MOL0     H99364   3.615   4.692   8.024  1.0283  0.8929 -1.3087
  753MOL0     H99365   3.790   4.736   8.001 -0.2344 -1.1545 -0.8432
  753MOL0     H99366   3.658   4.950   8.028 -1.3878 -2.3153 -1.8362
  753MOL0     H99367   3.770   4.922   8.170 -2.0133  1.5336  0.7106
  753MOL0     H99368   3.481   4.835   8.178  2.3031 -2.6782 -0.9478
  753MOL0     H99369   3.600   4.853   8.310  0.4027  0.7478 -0.3842
  753MOL0     H99370   3.623   5.105   8.243  0.0785  2.0897  2.5092
  753MOL0     H99371   3.488   5.062   8.349 -4.2643  2.3140 -2.5596
  753MOL0     H99372   3.469   5.103   8.055 -1.5380 -0.3425 -0.2605
  753MOL0     H99373   3.418   5.224   8.174  1.2796  0.5906  4.5601
  753MOL0     H99374   3.291   4.958   8.117 -0.0013 -0.8105  0.6949
  753MOL0     H99375   3.256   5.063   8.267  0.9112  0.1477 -0.2592
  753MOL0     H99376   3.228   5.127   7.974  4.3494  1.6494 -0.1398
  753MOL0     H99377   3.193   5.250   8.089 -2.7983 -0.5201 -4.8357
  753MOL0     H99378   3.757   4.498   8.404 -0.4698  1.6601 -0.4528
  753MOL0     H99379   3.879   4.390   8.583 -6.8943  0.7627 -2.1831
  753MOL0     H99380   4.220   4.500   9.051  2.3909 -0.0077 -0.8775
  753MOL0     H99381   4.308   4.329   9.186  1.4988  1.3300 -1.1579
  753MOL0     H99382   4.852   3.091  10.188  0.5541  0.6260  1.6735
  753MOL0     H99383   5.042   3.061  10.338 -0.9765 -1.2983  0.1786
  753MOL0     H99384   5.468   2.991  10.375 -0.6427  1.6824 -0.8273
  753MOL0     H99385   5.635   2.906  10.535  0.8556  1.2967 -5.2199
  753MOL0     H99386   5.611   3.039  10.947 -0.1318 -0.5368  0.5722
  753MOL0     H99387   5.764   3.122  10.930  2.2135 -0.5878 -1.1125
  753MOL0     H99388   5.879   2.902  10.905  1.6764  1.7770  0.0978
  753MOL0     H99389   5.840   2.951  11.065 -0.0142 -1.5806  1.1183
  753MOL0     H99390   5.672   2.762  10.899 -2.5935  1.2932  0.4949
  753MOL0     H99391   5.610   2.838  11.041  1.8329  3.0392  2.9607
  753MOL0     H99392   5.835   2.748  11.155  4.6618 -0.8825 -3.5499
  753MOL0     H99393   5.691   2.635  11.121 -1.6008  1.2751  1.5677
  753MOL0     H99394   6.037   2.492  10.915  2.5834  1.8036  0.1707
  753MOL0     H99395   5.561   3.208  10.810 -0.3294 -3.2512  2.4355
  753MOL0     H99396   5.386   3.306  10.665  3.3585  2.0844  0.0315
  754MOL0     O99397   5.638   6.057  10.799  0.2579 -0.3337  0.5025
  754MOL0     C99398   5.742   6.061  10.727 -0.2931 -0.0167  0.4483
  754MOL0     O99399   5.855   5.992  10.751  0.0913  0.1237 -0.6354
  754MOL0     C99400   5.850   5.907  10.855 -0.6337 -0.4541 -0.5036
  754MOL0     C99401   5.868   5.947  10.979  0.2757 -0.2079 -1.2502
  754MOL0     C99402   5.881   5.863  11.092 -0.1696  0.6130 -0.4245
  754MOL0     C99403   5.854   5.723  11.075  0.0488 -1.0754  0.1638
  754MOL0     O99404   5.863   5.636  11.180  0.2914  0.1245 -0.0339
  754MOL0     C99405   5.959   5.663  11.285  0.0683  0.9629  0.4735
  754MOL0     C99406   5.972   5.551  11.382  0.0295  0.3060 -0.8647
  754MOL0     C99407   5.842   5.468  11.403  0.5211  0.6553 -0.4182
  754MOL0     C99408   5.869   5.357  11.508 -0.1633 -0.1633 -0.3931
  754MOL0     C99409   5.752   5.246  11.516  0.0199 -0.6390  0.3424
  754MOL0     C99410   5.650   5.274  11.635  0.0436  0.6806  0.5834
  754MOL0     C99411   5.619   5.142  11.706  0.5064  0.3104 -0.3137
  754MOL0     C99412   5.518   5.143  11.825 -1.0086  0.5759  0.3531
  754MOL0     N99413   5.387   5.189  11.792 -0.5877  0.8325 -0.1968
  754MOL0     C99414   5.290   5.100  11.726  0.4232 -0.3312  0.1589
  754MOL0     C99415   5.181   5.183  11.717  0.2801  0.2583 -0.6650
  754MOL0     C99416   5.046   5.155  11.666  0.6352  0.1089 -0.8443
  754MOL0     C99417   5.061   5.071  11.541  0.2399 -0.1120  0.4011
  754MOL0     C99418   5.074   4.922  11.577 -0.9908 -0.6137  0.0071
  754MOL0     C99419   5.111   4.844  11.455 -1.0353  0.5404 -0.4408
  754MOL0     O99420   5.251   4.860  11.437 -0.0525  0.6036 -0.1035
  754MOL0     C99421   5.309   4.783  11.339 -0.6020 -1.0365 -0.2000
  754MOL0     C99422   5.448   4.765  11.357  1.2715  0.5920 -1.0638
  754MOL0     C99423   5.525   4.682  11.276 -0.4588 -1.2600  0.3502
  754MOL0     C99424   5.479   4.623  11.158  0.3111  0.2833 -0.0958
  754MOL0     C99425   5.564   4.549  11.055 -0.5169  0.8636  0.9360
  754MOL0     O99426   5.500   4.494  10.946  0.6027 -0.2466 -0.7388
  754MOL0     C99427   5.565   4.421  10.858  0.2268 -0.6903  0.5020
  754MOL0     C99428   5.676   4.466  10.790  0.5114 -0.4838  0.2626
  754MOL0     C99429   5.755   4.397  10.698 -0.1699  0.9975  0.3800
  754MOL0     C99430   5.717   4.263  10.673 -1.1201 -0.0248 -0.0206
  754MOL0     O99431   5.782   4.181  10.587 -0.4079  0.1961  0.4228
  754MOL0     C99432   5.843   4.239  10.469  0.2957  0.0747 -0.7389
  754MOL0     C99433   5.939   4.131  10.411  0.8681  0.8316  0.3093
  754MOL0     C99434   6.086   4.118  10.482 -0.4226  0.3043  0.1951
  754MOL0     C99435   6.178   4.017  10.417  0.6736  0.3201  0.0919
  754MOL0     C99436   6.121   3.882  10.428 -0.5959  0.0812 -0.3674
  754MOL0     C99437   6.212   3.751  10.415  0.1611 -0.7825 -0.3812
  754MOL0     C99438   6.300   3.740  10.542 -0.1997  1.2812  0.1702
  754MOL0     C99439   6.386   3.608  10.562 -0.1493 -0.8042 -0.6752
  754MOL0    Cl99440   6.285   3.485  10.614  0.1209 -0.1074 -0.3537
  754MOL0     C99441   5.613   4.208  10.751  1.1557  0.0745  0.9355
  754MOL0     C99442   5.539   4.282  10.837 -0.3345 -1.2075 -0.0500
  754MOL0     O99443   5.686   4.534  11.070  0.2606 -1.0061  0.2767
  754MOL0     C99444   5.338   4.641  11.144  0.0795 -0.3657 -0.0444
  754MOL0     C99445   5.253   4.717  11.233 -0.6530  0.0070 -0.3942
  754MOL0     N99446   5.216   5.315  11.752  0.3403 -0.0607 -0.2066
  754MOL0     N99447   5.334   5.310  11.798  0.3066  0.5359 -0.2655
  754MOL0     C99448   5.800   5.686  10.953 -1.1423 -0.0962  0.1536
  754MOL0     C99449   5.803   5.773  10.844  0.1002 -0.6811 -0.5027
  754MOL0     C99450   5.733   6.147  10.614 -0.0291 -0.0440 -0.1116
  754MOL0     C99451   5.619   6.220  10.570 -0.0312  1.3827 -0.6672
  754MOL0     C99452   5.621   6.307  10.461 -1.0196 -0.2933  0.3810
  754MOL0     C99453   5.743   6.325  10.395  0.3597  0.0346  0.4842
  754MOL0     O99454   5.740   6.432  10.304 -0.3622 -0.0289  0.5105
  754MOL0     C99455   5.868   6.454  10.239 -0.1082 -0.3246  0.5804
  754MOL0     C99456   5.872   6.561  10.129  0.2326 -1.3858  0.8848
  754MOL0     C99457   5.789   6.531   9.999 -0.7478  0.2504  0.9157
  754MOL0     C99458   5.860   6.571   9.864  0.0870  0.5673 -0.1268
  754MOL0     C99459   5.864   6.712   9.831 -0.2673 -1.1406 -0.0388
  754MOL0     C99460   5.863   6.831   9.808 -0.0697  0.3721  0.5712
  754MOL0     C99461   5.859   6.245  10.429  0.2247  0.6318 -0.7133
  754MOL0     C99462   5.847   6.158  10.530 -0.2309  1.3031  0.1684
  754MOL0     H99463   5.878   6.054  10.992 -5.7845  0.9341 -2.7316
  754MOL0     H99464   5.902   5.904  11.190  0.1816  0.6912 -0.5326
  754MOL0     H99465   5.918   5.741  11.350 -1.6897 -0.0933  0.6996
  754MOL0     H99466   6.053   5.692  11.238  1.2438  0.7495  2.5763
  754MOL0     H99467   6.000   5.587  11.481 -1.6604 -2.5300  0.7805
  754MOL0     H99468   6.050   5.488  11.339  0.8666  0.3875  0.4784
  754MOL0     H99469   5.822   5.420  11.306 -0.2481  0.2940 -0.0854
  754MOL0     H99470   5.761   5.535  11.434  1.0649  0.2770  1.9773
  754MOL0     H99471   5.967   5.313  11.484  1.0522  1.9251  0.5231
  754MOL0     H99472   5.881   5.394  11.610 -1.6552  1.5564 -0.7932
  754MOL0     H99473   5.805   5.153  11.537  1.0169 -0.0933  0.2771
  754MOL0     H99474   5.696   5.249  11.422  2.9241  2.0941 -1.5033
  754MOL0     H99475   5.561   5.332  11.608  0.6612  0.8508 -1.2278
  754MOL0     H99476   5.709   5.330  11.708  4.6557 -2.9286  0.0899
  754MOL0     H99477   5.555   5.080  11.642 -4.1143  2.9193  1.2370
  754MOL0     H99478   5.708   5.092  11.743  0.1265  0.7238  1.2263
  754MOL0     H99479   5.564   5.196  11.910  2.4988 -1.6166  0.0464
  754MOL0     H99480   5.516   5.039  11.858  2.1494  0.0723 -0.6923
  754MOL0     H99481   5.304   4.993  11.714 -3.2431 -1.0100  0.7712
  754MOL0     H99482   4.988   5.248  11.658 -1.4662 -1.0166  0.2038
  754MOL0     H99483   4.991   5.094  11.739  1.7019 -1.0568 -0.9789
  754MOL0     H99484   5.145   5.106  11.480 -1.3412 -1.9116 -3.0791
  754MOL0     H99485   4.976   5.083  11.472 -2.0486 -2.1289  2.6789
  754MOL0     H99486   5.149   4.901  11.654  0.4565 -1.2752 -1.5014
  754MOL0     H99487   4.983   4.875  11.615  0.4765 -1.5124  2.6283
  754MOL0     H99488   5.053   4.861  11.364 -0.8228 -0.8457 -0.8663
  754MOL0     H99489   5.095   4.737  11.471  1.6567 -0.4337 -3.2291
  754MOL0     H99490   5.490   4.819  11.441 -0.5382  5.4084 -2.8606
  754MOL0     H99491   5.630   4.670  11.302 -0.8359 -1.8483  1.6931
  754MOL0     H99492   5.696   4.571  10.807 -1.9050 -0.0297  0.6854
  754MOL0     H99493   5.826   4.452  10.635 -1.0442 -0.9487 -2.5175
  754MOL0     H99494   5.895   4.333  10.488  2.2048 -0.6768 -1.9130
  754MOL0     H99495   5.765   4.263  10.396 -0.5001 -1.7773 -0.5478
  754MOL0     H99496   5.950   4.159  10.305 -1.5952  4.1002  0.7795
  754MOL0     H99497   5.881   4.039  10.424 -0.6378  2.0229  2.6871
  754MOL0     H99498   6.062   4.082  10.583  1.1083 -5.4739 -1.1004
  754MOL0     H99499   6.139   4.214  10.485  0.1108  0.1366 -2.0167
  754MOL0     H99500   6.196   4.039  10.312 -1.7409  3.3352  0.1913
  754MOL0     H99501   6.279   4.029  10.458  0.6160 -0.6784  0.5539
  754MOL0     H99502   6.049   3.867  10.347  0.6007 -0.9610 -1.2729
  754MOL0     H99503   6.067   3.877  10.523 -0.8470 -2.2007 -0.5763
  754MOL0     H99504   6.275   3.775  10.329 -1.3509  3.1976 -0.6028
  754MOL0     H99505   6.159   3.659  10.393 -0.1334 -0.8760  0.6406
  754MOL0     H99506   6.373   3.821  10.536  0.6316  0.6128  1.0126
  754MOL0     H99507   6.243   3.755  10.634  2.8660 -1.7700  2.8430
  754MOL0     H99508   6.468   3.625  10.634 -0.1737  3.9768 -1.4520
  754MOL0     H99509   6.439   3.572  10.474  0.4473 -0.8213 -0.3165
  754MOL0     H99510   5.573   4.108  10.736 -1.0669  0.8050  1.6369
  754MOL0     H99511   5.450   4.238  10.881  1.1014 -3.3683  0.8428
  754MOL0     H99512   5.298   4.615  11.046 -4.1064  0.9288  1.1068
  754MOL0     H99513   5.147   4.730  11.214 -1.6291  0.8354  4.3125
  754MOL0     H99514   5.770   5.584  10.932  2.0223 -0.9908 -0.5715
  754MOL0     H99515   5.746   5.745  10.757 -1.6985 -1.1596  0.7714
  754MOL0     H99516   5.522   6.212  10.617  0.9679  0.4801  1.3601
  754MOL0     H99517   5.537   6.370  10.434  1.0706  2.0357 -1.0960
  754MOL0     H99518   5.910   6.367  10.188 -3.4232 -0.9538 -1.3654
  754MOL0     H99519   5.933   6.486  10.321  0.8183 -0.6116 -0.0347
  754MOL0     H99520   5.828   6.644  10.185 -1.1488 -2.8064  1.9739
  754MOL0     H99521   5.977   6.581  10.106  0.0964  0.8594  1.9243
  754MOL0     H99522   5.692   6.582   9.997 -2.0780 -2.0861  1.9301
  754MOL0     H99523   5.771   6.423   9.998 -1.1900  0.3238  0.5108
  754MOL0     H99524   5.962   6.533   9.853 -0.5558 -1.0402 -0.8794
  754MOL0     H99525   5.808   6.523   9.781 -1.9143 -2.9610  2.8462
  754MOL0     H99526   5.869   6.935   9.786  0.7360  0.9520  3.1768
  754MOL0     H99527   5.947   6.257  10.366 -0.7550  0.6807 -2.1414
  754MOL0     H99528   5.935   6.097  10.550  1.9062  3.8243 -0.9294
  755MOL0     O99529   1.628   4.127   2.082 -0.1328 -0.2648  0.1647
  755MOL0     C99530   1.685   4.071   2.178  0.2995  0.0351 -0.6866
  755MOL0     O99531   1.633   4.055   2.308  0.1569 -0.3580  0.8181
  755MOL0     C99532   1.510   4.101   2.344  0.5460  0.8487 -0.3892
  755MOL0     C99533   1.465   4.224   2.290  0.1093 -0.7144 -0.5678
  755MOL0     C99534   1.338   4.263   2.329 -0.0465  0.1915 -0.7700
  755MOL0     C99535   1.272   4.200   2.435  0.3585  0.1028  0.4609
  755MOL0     O99536   1.164   4.263   2.503 -0.0812  0.2479 -0.0010
  755MOL0     C99537   1.125   4.401   2.466  0.6060  0.1660  0.2138
  755MOL0     C99538   1.038   4.455   2.577 -0.5866 -0.8180 -0.4382
  755MOL0     C99539   1.119   4.545   2.675  0.4459 -0.2448 -0.1251
  755MOL0     C99540   1.055   4.597   2.804 -0.8268  0.2956  0.7179
  755MOL0     C99541   1.007   4.493   2.912  0.1381  0.9404  1.0616
  755MOL0     C99542   0.956   4.564   3.041 -0.5982  0.7482 -1.0283
  755MOL0     C99543   1.076   4.632   3.127  0.1933 -0.8057  0.1893
  755MOL0     C99544   1.174   4.538   3.197 -0.3629  1.5831  0.3918
  755MOL0     N99545   1.114   4.467   3.316 -0.2148 -0.2794 -0.0513
  755MOL0     C99546   1.051   4.526   3.418 -0.3457 -0.2445  0.1435
  755MOL0     C99547   1.051   4.442   3.521 -0.7005  0.8994  0.7451
  755MOL0     C99548   0.987   4.460   3.653 -0.1588  0.7531 -0.4103
  755MOL0     C99549   1.063   4.422   3.781  0.7853 -0.0381 -0.7551
  755MOL0     C99550   1.006   4.491   3.906  1.3221  0.0817 -0.5949
  755MOL0     C99551   1.104   4.477   4.021  1.0369 -0.5668  0.3655
  755MOL0     O99552   1.141   4.341   4.033  0.2024  0.2566 -0.3093
  755MOL0     C99553   1.255   4.310   4.103  0.2104 -0.3437 -0.0297
  755MOL0     C99554   1.249   4.202   4.194  1.2057  0.4104  0.1450
  755MOL0     C99555   1.352   4.159   4.265 -0.3063 -0.4235 -1.2959
  755MOL0     C99556   1.475   4.225   4.247 -0.0753  0.5929  0.0481
  755MOL0     C99557   1.589   4.190   4.331  0.7065 -0.5300  0.2108
  755MOL0     O99558   1.664   4.306   4.370  0.0918  0.4363  0.1481
  755MOL0     C99559   1.790   4.270   4.406  1.1762 -1.0744  0.1643
  755MOL0     C99560   1.811   4.263   4.542 -0.3725  0.4857 -0.2405
  755MOL0     C99561   1.934   4.223   4.591 -0.5434 -0.1939  0.1461
  755MOL0     C99562   2.038   4.191   4.504  0.5363 -1.1746  0.6824
  755MOL0     O99563   2.152   4.130   4.547  0.2465  0.6961 -0.1957
  755MOL0     C99564   2.140   4.068   4.673 -0.2814  0.1414 -0.6348
  755MOL0     C99565   2.264   3.986   4.713 -0.1063  0.2967  0.2523
  755MOL0     C99566   2.233   3.891   4.837  0.4134  0.1387  0.5568
  755MOL0     C99567   2.187   3.752   4.789  0.0324 -0.1077 -0.1706
  755MOL0     C99568   2.150   3.667   4.912 -0.3789 -1.9181 -0.7824
  755MOL0     C99569   2.126   3.524   4.870  0.3653 -0.4123 -0.3619
  755MOL0     C99570   2.064   3.445   4.989 -0.0492  1.1132  0.5474
  755MOL0     C99571   1.987   3.318   4.930  0.9626 -0.1139 -0.2818
  755MOL0    Cl99572   1.901   3.256   5.073  0.0153  0.2970  0.2403
  755MOL0     C99573   2.028   4.216   4.365  0.5533  0.3829  0.1876
  755MOL0     C99574   1.896   4.254   4.319 -0.8968  0.8360  0.2613
  755MOL0     O99575   1.609   4.077   4.362 -0.2374 -0.4514  0.3450
  755MOL0     C99576   1.488   4.329   4.161 -0.1671 -0.9366  0.3146
  755MOL0     C99577   1.376   4.372   4.085 -0.3740 -0.1630 -0.0704
  755MOL0     N99578   1.119   4.326   3.473 -0.7489 -0.3387  0.3570
  755MOL0     N99579   1.150   4.339   3.348 -0.5648 -0.1696  1.1375
  755MOL0     C99580   1.302   4.073   2.477 -0.4567 -0.0813  0.0449
  755MOL0     C99581   1.430   4.024   2.438 -0.6524 -0.1780  0.6519
  755MOL0     C99582   1.818   4.007   2.146  0.1082 -1.0457  0.0237
  755MOL0     C99583   1.858   3.902   2.222  0.3313  0.0393 -1.7809
  755MOL0     C99584   1.978   3.840   2.205 -0.2924  0.4355 -0.6595
  755MOL0     C99585   2.057   3.870   2.094  0.2441 -0.5279 -1.2290
  755MOL0     O99586   2.179   3.802   2.075  0.3508 -0.2771  0.6507
  755MOL0     C99587   2.225   3.711   2.175 -0.5831  0.2032 -0.5668
  755MOL0     C99588   2.367   3.656   2.157 -0.2678  0.2185 -0.5456
  755MOL0     C99589   2.378   3.542   2.046 -0.1178  0.3007 -0.0886
  755MOL0     C99590   2.513   3.458   2.057  0.7685  0.1359  1.4070
  755MOL0     C99591   2.518   3.395   2.185  0.3233 -1.0988  0.0624
  755MOL0     C99592   2.530   3.350   2.297 -0.7420 -1.2703 -0.0331
  755MOL0     C99593   2.020   3.976   2.011  0.2320 -0.6595 -0.0904
  755MOL0     C99594   1.897   4.036   2.034  1.4210  0.1092 -0.4617
  755MOL0     H99595   1.531   4.287   2.232 -1.6470  0.4148 -1.4429
  755MOL0     H99596   1.307   4.354   2.279 -0.2695 -0.4220 -1.7764
  755MOL0     H99597   1.073   4.410   2.370  2.7307  2.5115 -0.8480
  755MOL0     H99598   1.216   4.461   2.457  0.4983  0.5099  1.2958
  755MOL0     H99599   0.997   4.373   2.637 -0.7219 -0.1997  0.3501
  755MOL0     H99600   0.961   4.502   2.515 -0.3060  0.4315  0.1148
  755MOL0     H99601   1.157   4.635   2.626 -0.0209 -0.4598 -0.8962
  755MOL0     H99602   1.202   4.479   2.701 -3.0342 -4.7787  0.7900
  755MOL0     H99603   1.122   4.669   2.850  1.1133 -1.3411  0.5870
  755MOL0     H99604   0.961   4.642   2.768 -0.6856  0.2403  0.2752
  755MOL0     H99605   1.083   4.419   2.937  1.3290  1.2750 -1.3372
  755MOL0     H99606   0.924   4.446   2.859  1.0416 -0.3257  0.7371
  755MOL0     H99607   0.907   4.493   3.108  0.6841  1.4703  0.7558
  755MOL0     H99608   0.892   4.650   3.016 -3.2735  0.0918  2.7275
  755MOL0     H99609   1.138   4.694   3.062  1.8480 -1.0824  1.4523
  755MOL0     H99610   1.032   4.697   3.203  2.2127 -0.1727  0.8666
  755MOL0     H99611   1.259   4.597   3.232  0.7187  0.4025 -0.1473
  755MOL0     H99612   1.218   4.468   3.126 -0.0032  2.9133 -0.7331
  755MOL0     H99613   0.999   4.621   3.413 -0.7251 -0.4796 -0.4938
  755MOL0     H99614   0.899   4.395   3.665  0.5197  0.1702  1.7689
  755MOL0     H99615   0.953   4.564   3.656 -0.2138  0.8545 -2.9474
  755MOL0     H99616   1.169   4.446   3.769  1.1349 -1.1708 -0.0896
  755MOL0     H99617   1.053   4.313   3.789 -2.0269  0.2698  1.9229
  755MOL0     H99618   1.009   4.598   3.881  4.6712  0.1053 -0.4962
  755MOL0     H99619   0.904   4.462   3.934  0.9317  3.2298  1.8580
  755MOL0     H99620   1.054   4.511   4.111  0.0484  2.4039 -1.1561
  755MOL0     H99621   1.185   4.544   3.990 -3.2766  4.0548 -2.3879
  755MOL0     H99622   1.153   4.156   4.214  1.6899 -2.3479 -2.9598
  755MOL0     H99623   1.339   4.073   4.329  1.7366  0.6504  0.7019
  755MOL0     H99624   1.731   4.283   4.613 -0.8187  1.3759 -0.9794
  755MOL0     H99625   1.934   4.208   4.698 -2.4205 -0.9397  0.0790
  755MOL0     H99626   2.055   4.000   4.666  0.3837 -0.5553 -2.8151
  755MOL0     H99627   2.138   4.147   4.749  0.9139 -0.9481  0.5911
  755MOL0     H99628   2.342   4.057   4.742 -0.6997 -0.3270  3.8891
  755MOL0     H99629   2.308   3.921   4.638  1.5355 -1.1063  2.3193
  755MOL0     H99630   2.158   3.937   4.903  1.2864  0.8658  1.0645
  755MOL0     H99631   2.326   3.877   4.892  0.9513  2.0790  0.2142
  755MOL0     H99632   2.104   3.751   4.718 -0.6698 -2.6424  0.5996
  755MOL0     H99633   2.274   3.711   4.736 -0.0364 -2.7324  1.5756
  755MOL0     H99634   2.070   3.718   4.966  0.0863  1.0617 -2.6985
  755MOL0     H99635   2.233   3.675   4.983 -1.8346  3.1203  0.7654
  755MOL0     H99636   2.226   3.483   4.851  0.8952  0.5693  0.2305
  755MOL0     H99637   2.064   3.545   4.782  1.3401  1.7801 -0.5860
  755MOL0     H99638   2.136   3.398   5.056 -0.4286 -1.8015 -0.9264
  755MOL0     H99639   1.993   3.508   5.045 -3.6845 -1.9309 -0.2071
  755MOL0     H99640   2.051   3.249   4.874  1.4218  0.1430 -0.0786
  755MOL0     H99641   1.903   3.361   4.875 -0.3355  2.4160  3.3701
  755MOL0     H99642   2.107   4.172   4.304 -0.3643 -0.5156 -0.3909
  755MOL0     H99643   1.870   4.255   4.213  3.9943 -1.3002 -1.2628
  755MOL0     H99644   1.582   4.383   4.150 -0.7919  0.2812  0.7218
  755MOL0     H99645   1.384   4.451   4.010 -1.2564 -0.8756 -0.9434
  755MOL0     H99646   1.242   4.028   2.555  0.3394  2.7110  2.4390
  755MOL0     H99647   1.476   3.929   2.461  1.6722  0.8816  0.6657
  755MOL0     H99648   1.796   3.853   2.296  1.1150 -1.7730 -2.2878
  755MOL0     H99649   2.005   3.765   2.279 -0.7457  2.2042  1.4005
  755MOL0     H99650   2.159   3.624   2.174 -1.3496  0.7047  1.2799
  755MOL0     H99651   2.216   3.747   2.278 -2.0432 -1.0503 -0.2255
  755MOL0     H99652   2.433   3.743   2.150 -0.9576  0.8944  0.9674
  755MOL0     H99653   2.394   3.610   2.252  0.2627  0.0169 -0.7905
  755MOL0     H99654   2.381   3.582   1.944  1.6203 -1.1394 -0.6786
  755MOL0     H99655   2.297   3.469   2.049 -0.8704  1.0207 -1.5873
  755MOL0     H99656   2.507   3.388   1.973  0.5264  4.2469 -2.3667
  755MOL0     H99657   2.600   3.516   2.025  0.1053 -0.6365 -2.2965
  755MOL0     H99658   2.572   3.307   2.386  2.7800 -1.3619 -1.5818
  755MOL0     H99659   2.081   4.016   1.930 -1.2885  0.9610 -0.5115
  755MOL0     H99660   1.865   4.123   1.977  1.1229  2.0266  2.4195
  756MOL0     O99661  10.738   5.469   8.935  0.0438  0.0620 -0.6659
  756MOL0     C99662  10.799   5.364   8.944  0.1441  0.3178  0.3038
  756MOL0     O99663  10.760   5.266   9.035 -0.6246 -0.3688 -0.4734
  756MOL0     C99664  10.653   5.280   9.114  0.4162 -0.0538 -0.6196
  756MOL0     C99665  10.519   5.279   9.062 -0.0533 -0.8036 -0.3272
  756MOL0     C99666  10.410   5.292   9.155  0.2360 -0.0580 -0.0067
  756MOL0     C99667  10.430   5.285   9.295 -0.4125  0.7354 -0.0682
  756MOL0     O99668  10.320   5.296   9.383  0.2812  0.1031  0.1380
  756MOL0     C99669  10.284   5.433   9.404 -0.1309  0.7871  0.1410
  756MOL0     C99670  10.142   5.445   9.457 -0.0216 -0.2347  0.0851
  756MOL0     C99671  10.039   5.365   9.371 -0.1518  0.1836  0.1556
  756MOL0     C99672   9.895   5.431   9.397  0.6951  0.9071  0.8511
  756MOL0     C99673   9.801   5.353   9.311  0.6676 -0.6534  0.3220
  756MOL0     C99674   9.661   5.432   9.304 -0.5567 -0.1406  0.4019
  756MOL0     C99675   9.589   5.396   9.174  0.1020  0.3588  0.0014
  756MOL0     C99676   9.455   5.480   9.165  0.3877 -0.3169  0.3142
  756MOL0     N99677   9.483   5.615   9.133 -0.2624 -0.6151 -0.0009
  756MOL0     C99678   9.514   5.670   9.012 -0.3435  0.4045  0.3267
  756MOL0     C99679   9.518   5.797   9.028  0.6051 -0.7049  0.3959
  756MOL0     C99680   9.555   5.896   8.923 -0.0002  0.6594  0.0907
  756MOL0     C99681   9.490   6.033   8.937 -0.3206 -0.4803 -0.3576
  756MOL0     C99682   9.510   6.126   8.819  1.0836  0.4837 -0.3001
  756MOL0     C99683   9.391   6.113   8.728 -0.6942 -0.1637  0.7735
  756MOL0     O99684   9.268   6.159   8.787  0.5491 -0.2030 -0.3881
  756MOL0     C99685   9.170   6.170   8.695 -0.3042  0.5881  0.4145
  756MOL0     C99686   9.084   6.282   8.699  0.0972  0.1769 -0.6232
  756MOL0     C99687   8.977   6.304   8.613  0.1785 -0.3627  0.7364
  756MOL0     C99688   8.956   6.206   8.514 -0.5206 -0.6520 -0.6250
  756MOL0     C99689   8.831   6.218   8.438  0.1624  0.5919 -0.7295
  756MOL0     O99690   8.766   6.338   8.430 -0.1914 -0.0681  0.7261
  756MOL0     C99691   8.641   6.360   8.377  0.8629 -0.5064 -0.4534
  756MOL0     C99692   8.540   6.261   8.344 -0.8098  0.0324  0.6523
  756MOL0     C99693   8.420   6.299   8.282 -0.2128  0.2705 -0.0070
  756MOL0     C99694   8.387   6.432   8.246  0.1905  0.4055 -0.3201
  756MOL0     O99695   8.268   6.462   8.189  0.2143  0.5087 -0.0601
  756MOL0     C99696   8.239   6.415   8.058  0.3246  0.6341 -0.0717
  756MOL0     C99697   8.091   6.362   8.069 -0.5327 -0.1602  0.2100
  756MOL0     C99698   8.058   6.288   8.202 -0.2125 -0.8355 -0.3052
  756MOL0     C99699   7.924   6.211   8.197 -0.3195  0.6645  0.5337
  756MOL0     C99700   7.874   6.146   8.326  0.3344  0.6471  0.0491
  756MOL0     C99701   7.963   6.020   8.366 -0.2190  0.9444 -0.0685
  756MOL0     C99702   7.909   5.964   8.495  0.0347 -1.0311  0.5410
  756MOL0     C99703   8.007   5.869   8.557 -0.4289  0.4504  0.7505
  756MOL0    Cl99704   8.087   5.755   8.441 -0.0583  0.0208 -0.3432
  756MOL0     C99705   8.475   6.529   8.279 -0.4782  1.9167 -1.2934
  756MOL0     C99706   8.602   6.491   8.329 -0.6391  0.4836 -0.0954
  756MOL0     O99707   8.789   6.113   8.400 -0.1968 -0.1565 -0.0314
  756MOL0     C99708   9.047   6.100   8.497 -0.1959 -0.4476  0.5280
  756MOL0     C99709   9.151   6.082   8.589  0.0278  0.8276 -0.0777
  756MOL0     N99710   9.500   5.827   9.163 -0.4189 -0.0207  0.2764
  756MOL0     N99711   9.475   5.716   9.220  0.3862 -0.0933 -0.6136
  756MOL0     C99712  10.564   5.287   9.342  0.0543  0.2375  0.0186
  756MOL0     C99713  10.674   5.276   9.252 -0.3988  1.3524 -0.1140
  756MOL0     C99714  10.911   5.323   8.856 -0.2816 -0.8503 -0.8284
  756MOL0     C99715  10.931   5.399   8.740 -0.2287 -1.0080 -0.8760
  756MOL0     C99716  11.039   5.376   8.663  0.1992 -0.3613  0.2349
  756MOL0     C99717  11.128   5.283   8.705 -1.0731 -0.0013  0.1840
  756MOL0     O99718  11.234   5.259   8.626  1.0364 -0.7658  0.2893
  756MOL0     C99719  11.365   5.259   8.669 -0.3002  0.6712 -0.4944
  756MOL0     C99720  11.406   5.385   8.750  0.1711 -0.2208  0.0053
  756MOL0     C99721  11.560   5.400   8.784  0.2041  0.5685  0.4429
  756MOL0     C99722  11.618   5.280   8.854  0.5334  0.8688 -0.7369
  756MOL0     C99723  11.758   5.302   8.855  0.3227  1.1844 -0.0454
  756MOL0     C99724  11.883   5.321   8.863  0.4102  0.0263  0.5249
  756MOL0     C99725  11.125   5.208   8.824  0.1922  1.2013 -0.0609
  756MOL0     C99726  11.005   5.226   8.897 -0.0362 -0.6093  0.2796
  756MOL0     H99727  10.508   5.282   8.954  2.3594  0.8480 -0.6057
  756MOL0     H99728  10.306   5.295   9.124 -0.8756 -0.6834  3.2254
  756MOL0     H99729  10.279   5.491   9.311 -2.2308  2.1072  0.9829
  756MOL0     H99730  10.350   5.482   9.476 -0.8905  4.1589 -1.2496
  756MOL0     H99731  10.123   5.552   9.467 -3.1637 -0.7755  0.9951
  756MOL0     H99732  10.138   5.399   9.556 -1.8607 -2.2013 -0.8191
  756MOL0     H99733  10.034   5.263   9.408 -0.2504 -1.2987 -3.4725
  756MOL0     H99734  10.059   5.369   9.263  0.4255  3.1377  0.2729
  756MOL0     H99735   9.867   5.425   9.503 -0.3829  1.7459  0.6307
  756MOL0     H99736   9.891   5.538   9.376 -0.8996  0.7159  0.0218
  756MOL0     H99737   9.789   5.258   9.365 -1.1052 -0.8861 -0.4153
  756MOL0     H99738   9.844   5.339   9.211 -2.9356 -0.7513 -1.3737
  756MOL0     H99739   9.678   5.538   9.284 -3.5273  0.0132 -2.0294
  756MOL0     H99740   9.602   5.411   9.394 -0.3879 -0.2935  0.4784
  756MOL0     H99741   9.647   5.428   9.087 -0.6689  2.1222  0.0886
  756MOL0     H99742   9.566   5.289   9.175 -0.3916  0.4617  0.0709
  756MOL0     H99743   9.404   5.488   9.262 -1.3833  1.1812 -0.6867
  756MOL0     H99744   9.381   5.428   9.104  1.3885 -0.3980 -0.8626
  756MOL0     H99745   9.520   5.619   8.916 -1.5247  3.6060 -1.6167
  756MOL0     H99746   9.540   5.849   8.825  0.9482  0.4543  0.0323
  756MOL0     H99747   9.664   5.904   8.925  0.0598  0.3110 -1.0911
  756MOL0     H99748   9.537   6.072   9.029  1.2451 -0.2642 -1.2126
  756MOL0     H99749   9.384   6.028   8.963 -0.5200  2.5005 -0.1969
  756MOL0     H99750   9.512   6.232   8.847 -1.2943  0.2516  1.0054
  756MOL0     H99751   9.600   6.108   8.759  0.6304  1.3707 -1.2787
  756MOL0     H99752   9.395   6.009   8.693  0.4654 -0.3121  1.3028
  756MOL0     H99753   9.415   6.181   8.646  0.4877 -3.4283 -1.7978
  756MOL0     H99754   9.103   6.349   8.782  0.9841 -0.2728 -0.4471
  756MOL0     H99755   8.912   6.391   8.617 -1.3628 -1.3030 -1.7196
  756MOL0     H99756   8.546   6.154   8.363 -1.8523 -0.1391  0.1090
  756MOL0     H99757   8.346   6.221   8.268 -0.6589  0.9650 -1.8360
  756MOL0     H99758   8.301   6.331   8.024 -0.2977  0.5023 -0.9082
  756MOL0     H99759   8.238   6.491   7.980  1.5586  0.0937 -0.6476
  756MOL0     H99760   8.095   6.305   7.976  0.4692 -0.7346  0.5882
  756MOL0     H99761   8.016   6.441   8.060  2.0505  2.7184  1.9641
  756MOL0     H99762   8.038   6.358   8.283 -0.1236  0.2279 -1.1772
  756MOL0     H99763   8.143   6.222   8.223  1.5493  2.0298  2.3502
  756MOL0     H99764   7.838   6.276   8.179  0.4006  1.4899  0.0024
  756MOL0     H99765   7.930   6.138   8.116  2.9743  0.9402  0.4286
  756MOL0     H99766   7.770   6.118   8.309  0.8414  0.4068 -3.1800
  756MOL0     H99767   7.888   6.220   8.406  0.0872 -0.1860  0.8847
  756MOL0     H99768   8.061   6.059   8.393 -0.2632  0.4156  0.9125
  756MOL0     H99769   7.962   5.943   8.288 -1.7203  0.8296  0.0201
  756MOL0     H99770   7.900   6.052   8.559 -0.7079  0.4685 -1.5008
  756MOL0     H99771   7.806   5.931   8.478 -0.6040 -0.1367  2.3572
  756MOL0     H99772   7.961   5.811   8.637  2.1205 -4.6469 -1.0907
  756MOL0     H99773   8.082   5.929   8.610 -0.1718  1.2172 -0.4354
  756MOL0     H99774   8.459   6.635   8.262 -2.9262  2.0546  1.2647
  756MOL0     H99775   8.673   6.571   8.352  0.4252 -1.0173  2.3610
  756MOL0     H99776   9.045   6.035   8.410  1.2815  0.6540 -0.3726
  756MOL0     H99777   9.221   6.001   8.574  0.2669  0.6216  1.8839
  756MOL0     H99778  10.581   5.304   9.448 -1.0096  0.8266  0.1137
  756MOL0     H99779  10.777   5.271   9.286  0.6646  1.0728 -3.1379
  756MOL0     H99780  10.868   5.484   8.720 -3.9735 -3.9970 -3.2904
  756MOL0     H99781  11.063   5.438   8.578  1.2564  5.0146  3.9120
  756MOL0     H99782  11.436   5.250   8.587  0.2400  2.6770 -0.2961
  756MOL0     H99783  11.377   5.172   8.734 -1.0453  0.5002 -0.5744
  756MOL0     H99784  11.364   5.470   8.697  0.3254 -0.0686  0.1267
  756MOL0     H99785  11.358   5.378   8.848 -0.9201  1.1779 -0.4079
  756MOL0     H99786  11.571   5.491   8.844 -0.2775  0.6716  0.3820
  756MOL0     H99787  11.613   5.415   8.689 -0.3280  1.2509  0.2427
  756MOL0     H99788  11.582   5.294   8.956  0.2206  1.5480 -0.9302
  756MOL0     H99789  11.583   5.185   8.813 -0.9389  0.2032  1.8296
  756MOL0     H99790  11.986   5.350   8.862  0.2448  0.7878 -2.0046
  756MOL0     H99791  11.195   5.129   8.848  0.7816  0.7809 -2.7961
  756MOL0     H99792  10.984   5.174   8.990  2.2807 -0.9717  0.6711
  757MOL0     O99793   4.389   3.773   4.340  0.9316  0.2780  0.1026
  757MOL0     C99794   4.448   3.875   4.385 -1.3003  1.9681 -0.0778
  757MOL0     O99795   4.400   3.958   4.477 -0.1634 -0.6314 -0.2648
  757MOL0     C99796   4.269   3.966   4.518 -0.8974 -0.4252  0.6339
  757MOL0     C99797   4.166   3.897   4.457  0.1581 -0.1871 -0.3462
  757MOL0     C99798   4.044   3.897   4.510 -0.0856  0.5911 -0.4788
  757MOL0     C99799   4.023   3.957   4.637  0.5477 -0.2024 -1.1608
  757MOL0     O99800   3.905   3.957   4.701 -0.3654 -0.2808 -0.0249
  757MOL0     C99801   3.809   3.854   4.688  0.4301  0.3244 -0.3219
  757MOL0     C99802   3.674   3.941   4.695  0.4982  0.3859  0.6737
  757MOL0     C99803   3.535   3.872   4.691 -1.7994  0.3418  0.6590
  757MOL0     C99804   3.425   3.971   4.704  0.3297 -0.1333  0.2922
  757MOL0     C99805   3.287   3.906   4.705 -0.8334 -0.2458  0.6228
  757MOL0     C99806   3.182   4.017   4.710  0.9842  0.5315 -0.1110
  757MOL0     C99807   3.043   3.952   4.692  1.2610  0.0990  0.6512
  757MOL0     C99808   2.938   4.062   4.658 -0.1283 -0.1618 -0.1064
  757MOL0     N99809   2.798   4.005   4.646  0.0647 -0.5852  0.4010
  757MOL0     C99810   2.758   3.925   4.537 -0.5090 -0.9689  0.7060
  757MOL0     C99811   2.633   3.895   4.577 -0.2680 -0.3238 -0.6257
  757MOL0     C99812   2.536   3.833   4.484 -0.2331 -0.1473  0.2262
  757MOL0     C99813   2.510   3.921   4.362 -0.0572 -1.1019 -1.7197
  757MOL0     C99814   2.402   3.858   4.272 -0.5816 -0.1065 -0.0302
  757MOL0     C99815   2.260   3.849   4.338 -0.3878  0.0823  0.4512
  757MOL0     O99816   2.161   3.838   4.236  0.0691 -0.2337 -0.2775
  757MOL0     C99817   2.121   3.711   4.180  0.6094  0.9993  0.3743
  757MOL0     C99818   2.207   3.593   4.184 -0.3081 -0.0679 -0.5866
  757MOL0     C99819   2.180   3.468   4.125 -0.2427  0.1379 -0.3908
  757MOL0     C99820   2.057   3.453   4.052  0.5880  0.1186  0.2531
  757MOL0     C99821   2.009   3.326   3.992 -0.7302  0.0502 -0.0565
  757MOL0     O99822   1.880   3.307   3.983  0.4596  0.6960  0.2034
  757MOL0     C99823   1.811   3.203   3.919  0.8817 -1.0867 -0.1482
  757MOL0     C99824   1.675   3.176   3.965  0.5246 -0.6045  0.7608
  757MOL0     C99825   1.602   3.077   3.908 -0.1360  0.0665 -0.5753
  757MOL0     C99826   1.656   3.000   3.804  0.4800 -0.1785 -0.5181
  757MOL0     O99827   1.585   2.895   3.741  1.9808 -0.4781  0.7534
  757MOL0     C99828   1.523   2.800   3.836 -1.3272 -0.4920 -0.0468
  757MOL0     C99829   1.410   2.731   3.768 -0.6825  0.6532  0.0229
  757MOL0     C99830   1.381   2.584   3.812  0.3604 -0.4717 -0.8084
  757MOL0     C99831   1.313   2.498   3.704 -0.2897  0.9048 -0.2077
  757MOL0     C99832   1.347   2.348   3.730 -0.0435  0.3586  0.7533
  757MOL0     C99833   1.251   2.249   3.650  0.2488  0.9210  0.1404
  757MOL0     C99834   1.288   2.106   3.675  0.7394  0.4362 -0.7055
  757MOL0     C99835   1.232   2.049   3.810  0.0533 -1.3554  0.5455
  757MOL0    Cl99836   1.273   1.872   3.820  0.1092 -0.4038 -0.0116
  757MOL0     C99837   1.781   3.041   3.752 -0.9268  0.3851 -0.6769
  757MOL0     C99838   1.861   3.139   3.808  0.3703  0.2522  0.8265
  757MOL0     O99839   2.092   3.240   3.970 -0.9341 -0.8397  0.1484
  757MOL0     C99840   1.982   3.569   4.036  0.3924 -0.1448 -0.0611
  757MOL0     C99841   2.008   3.690   4.099 -0.4018 -0.1349  0.4629
  757MOL0     N99842   2.585   3.961   4.694 -0.3611  0.4903  0.5620
  757MOL0     N99843   2.693   4.021   4.734 -0.0843  0.8684  0.8789
  757MOL0     C99844   4.118   4.031   4.706  0.2771  0.3608  1.2218
  757MOL0     C99845   4.247   4.038   4.643  0.3924 -0.1489  1.0604
  757MOL0     C99846   4.589   3.892   4.349 -0.2580  0.7714 -0.1465
  757MOL0     C99847   4.663   3.778   4.312  0.6971  0.4182 -0.4985
  757MOL0     C99848   4.794   3.782   4.278 -0.9666 -0.5076 -0.7312
  757MOL0     C99849   4.869   3.901   4.286 -0.4935 -0.5088 -0.6889
  757MOL0     O99850   5.005   3.903   4.246 -0.6533 -0.2533  0.0934
  757MOL0     C99851   5.076   4.029   4.212  0.4272 -0.5758  0.6268
  757MOL0     C99852   5.014   4.090   4.082 -0.5761  0.4234 -0.4799
  757MOL0     C99853   5.116   4.142   3.985 -0.0987 -0.5063  0.1933
  757MOL0     C99854   5.070   4.169   3.840 -0.9985 -0.2123 -0.0640
  757MOL0     C99855   4.947   4.238   3.827 -1.3284  0.5669 -0.1761
  757MOL0     C99856   4.849   4.307   3.813 -0.2768 -0.2366 -1.0937
  757MOL0     C99857   4.807   4.008   4.338 -0.4430 -0.8577  0.0722
  757MOL0     C99858   4.665   4.009   4.369 -0.7076  0.7880 -0.4408
  757MOL0     H99859   4.178   3.844   4.362  1.1572  0.8800 -0.8358
  757MOL0     H99860   3.959   3.859   4.454 -1.7335  2.5965  0.5036
  757MOL0     H99861   3.816   3.798   4.782  1.7469  3.6967  1.7774
  757MOL0     H99862   3.799   3.795   4.596 -0.2699 -1.5233  0.8858
  757MOL0     H99863   3.674   4.011   4.611 -3.0989 -1.7863 -1.3302
  757MOL0     H99864   3.682   3.996   4.790  1.2447 -0.6559  1.2395
  757MOL0     H99865   3.541   3.783   4.755  3.8462  0.3301  0.5898
  757MOL0     H99866   3.534   3.827   4.592  1.2369 -1.1455  1.1755
  757MOL0     H99867   3.429   4.045   4.785  0.2647 -0.4806  0.6150
  757MOL0     H99868   3.437   4.018   4.605 -0.3644 -1.6396 -0.5377
  757MOL0     H99869   3.279   3.841   4.793 -1.2221 -1.3686 -0.2127
  757MOL0     H99870   3.280   3.846   4.613  5.2128 -0.0235 -0.4505
  757MOL0     H99871   3.185   4.102   4.642 -2.4911  1.5774  0.8267
  757MOL0     H99872   3.184   4.060   4.811 -0.1360  1.5006 -0.4853
  757MOL0     H99873   3.045   3.878   4.612  0.8216  2.1860 -1.3838
  757MOL0     H99874   3.010   3.910   4.787 -5.2797 -0.4969 -1.4282
  757MOL0     H99875   2.970   4.115   4.568 -0.0355 -0.5731 -0.3217
  757MOL0     H99876   2.936   4.127   4.745 -1.2238  0.1864 -0.3715
  757MOL0     H99877   2.809   3.892   4.447  1.3865  0.3464  1.2326
  757MOL0     H99878   2.437   3.812   4.527  0.4440  0.5310  2.1934
  757MOL0     H99879   2.595   3.746   4.452  0.0377 -0.2982  1.1076
  757MOL0     H99880   2.607   3.936   4.313  0.6655 -0.5223 -0.1456
  757MOL0     H99881   2.477   4.022   4.386 -1.9428 -2.6743  3.7261
  757MOL0     H99882   2.392   3.915   4.179 -1.6093  3.0791  1.8614
  757MOL0     H99883   2.450   3.764   4.244  2.4486  0.5404  2.3957
  757MOL0     H99884   2.241   3.937   4.401  0.9957 -0.0085  1.0216
  757MOL0     H99885   2.259   3.754   4.392 -2.1107  0.8580  1.8996
  757MOL0     H99886   2.299   3.602   4.241 -2.9611  1.9280  3.9786
  757MOL0     H99887   2.258   3.393   4.116  0.1781  0.7101 -1.9566
  757MOL0     H99888   1.627   3.238   4.040 -0.2490 -1.0107  0.6166
  757MOL0     H99889   1.505   3.048   3.946  0.1737  0.2823  0.4056
  757MOL0     H99890   1.478   2.843   3.926 -3.5103 -0.3523 -1.1420
  757MOL0     H99891   1.601   2.729   3.866 -0.5921  0.9094  1.5163
  757MOL0     H99892   1.439   2.734   3.663 -2.6903  2.0974 -0.5317
  757MOL0     H99893   1.320   2.791   3.780 -0.6666  0.6211  0.3060
  757MOL0     H99894   1.322   2.613   3.900  0.8968  1.1583 -0.9573
  757MOL0     H99895   1.472   2.532   3.841 -0.1032  0.6812  3.3151
  757MOL0     H99896   1.208   2.527   3.719 -0.1382  1.5206 -0.3228
  757MOL0     H99897   1.347   2.529   3.605  3.4900  2.0871  1.2869
  757MOL0     H99898   1.335   2.326   3.837 -2.3751 -3.5977 -0.1289
  757MOL0     H99899   1.452   2.340   3.700 -0.9202 -1.5056 -2.3333
  757MOL0     H99900   1.270   2.269   3.544  1.5021  1.7791  0.4958
  757MOL0     H99901   1.146   2.267   3.672 -0.6134 -1.8879 -1.2014
  757MOL0     H99902   1.240   2.038   3.604 -1.3307 -1.7349  2.4862
  757MOL0     H99903   1.396   2.091   3.661  0.8843  1.5123 -0.8577
  757MOL0     H99904   1.124   2.069   3.816  0.2829 -0.2027  0.8914
  757MOL0     H99905   1.281   2.103   3.890  2.3612 -0.7068 -1.2038
  757MOL0     H99906   1.806   2.972   3.672  0.2073  1.4724 -1.2971
  757MOL0     H99907   1.953   3.161   3.755  0.4661 -1.7468  0.0816
  757MOL0     H99908   1.901   3.568   3.964  0.5607  1.5089 -0.3092
  757MOL0     H99909   1.941   3.771   4.071 -0.4763  0.0560  1.1576
  757MOL0     H99910   4.099   4.077   4.803  2.9763 -2.0162  3.0577
  757MOL0     H99911   4.322   4.092   4.700  0.2272  2.6320 -1.0953
  757MOL0     H99912   4.601   3.690   4.295 -0.4005  1.2894 -1.0922
  757MOL0     H99913   4.850   3.702   4.230 -0.3103 -0.7646  0.4151
  757MOL0     H99914   5.178   3.996   4.188  0.0961  0.1838 -2.0765
  757MOL0     H99915   5.089   4.106   4.289  2.4244 -2.2129  2.0510
  757MOL0     H99916   4.956   4.012   4.033 -2.0562  1.7738 -0.9618
  757MOL0     H99917   4.934   4.163   4.097 -1.9240 -1.3046  1.2997
  757MOL0     H99918   5.192   4.062   3.982  1.4696  0.9486 -0.3704
  757MOL0     H99919   5.157   4.238   4.017 -3.8274  1.1223  0.5769
  757MOL0     H99920   5.141   4.233   3.785 -1.8550 -1.1513 -2.3991
  757MOL0     H99921   5.071   4.077   3.780  0.5330 -2.8132  3.6082
  757MOL0     H99922   4.764   4.372   3.823 -1.1915 -1.7508  3.8105
  757MOL0     H99923   4.851   4.107   4.348  0.8351 -1.2449 -1.3710
  757MOL0     H99924   4.631   4.104   4.408 -4.8507 -0.6193 -0.0336
  758MOL0     O99925  10.445   0.917   4.415  0.3887  0.0432  0.1514
  758MOL0     C99926  10.487   1.035   4.426  0.2687  0.4376  0.6359
  758MOL0     O99927  10.576   1.086   4.520  0.3220  0.0259  1.6534
  758MOL0     C99928  10.597   0.999   4.620 -0.3160  0.8355  0.4741
  758MOL0     C99929  10.649   0.874   4.602  0.1666  1.1426  0.8226
  758MOL0     C99930  10.675   0.785   4.710  0.0205 -0.1256  0.5406
  758MOL0     C99931  10.635   0.827   4.839 -0.2710 -0.0854 -1.1044
  758MOL0     O99932  10.672   0.747   4.945  0.5593 -0.0289 -0.7789
  758MOL0     C99933  10.733   0.818   5.057 -0.0291 -0.0027  0.1260
  758MOL0     C99934  10.851   0.904   5.032 -0.4949 -0.4212  0.3840
  758MOL0     C99935  10.970   0.828   4.981 -0.1753 -0.5905  0.0267
  758MOL0     C99936  11.109   0.896   5.007 -0.9562  0.2228 -0.3053
  758MOL0     C99937  11.217   0.858   4.896  0.4469  0.0650  0.6268
  758MOL0     C99938  11.261   0.711   4.903  0.1467 -0.5650 -0.0268
  758MOL0     C99939  11.328   0.652   5.027 -0.5080 -0.3907  0.1770
  758MOL0     C99940  11.430   0.745   5.096  0.4597  0.1442 -0.3487
  758MOL0     N99941  11.531   0.662   5.166 -0.0906 -0.5004  0.5268
  758MOL0     C99942  11.539   0.635   5.299  0.2652 -0.0821 -0.3117
  758MOL0     C99943  11.655   0.573   5.315  0.6954  0.0770  0.0792
  758MOL0     C99944  11.712   0.518   5.449 -0.1679 -0.1719 -0.0828
  758MOL0     C99945  11.852   0.566   5.474  0.9116 -0.5008 -0.4567
  758MOL0     C99946  11.871   0.713   5.484 -0.1598  0.1240 -0.1319
  758MOL0     C99947  11.805   0.794   5.597  0.6717 -0.3670  0.7140
  758MOL0     O99948  11.670   0.817   5.563 -0.3300  0.2085  0.3618
  758MOL0     C99949  11.613   0.938   5.580 -0.4690  0.8095 -0.0227
  758MOL0     C99950  11.484   0.947   5.534  0.3214 -0.3570 -1.5349
  758MOL0     C99951  11.403   1.060   5.557 -0.8658  0.1506  0.8704
  758MOL0     C99952  11.450   1.170   5.627  0.4244 -0.5826  0.2243
  758MOL0     C99953  11.377   1.304   5.643  0.2144  0.5220  0.1191
  758MOL0     O99954  11.237   1.304   5.650 -0.0913  0.0708 -0.1771
  758MOL0     C99955  11.167   1.401   5.713  0.2468 -0.0399  0.1843
  758MOL0     C99956  11.189   1.458   5.844  0.5515  0.9325  0.0286
  758MOL0     C99957  11.107   1.539   5.905 -0.5210 -0.1710 -0.3689
  758MOL0     C99958  10.989   1.575   5.839 -0.1312  0.0952 -0.2084
  758MOL0     O99959  10.896   1.660   5.889  0.3903 -0.0817 -0.0416
  758MOL0     C99960  10.955   1.774   5.962  0.6691  0.0500 -0.2962
  758MOL0     C99961  10.827   1.864   5.985  0.0724  0.1790  0.3185
  758MOL0     C99962  10.771   1.926   5.865  0.0769  0.6918 -0.1413
  758MOL0     C99963  10.855   2.045   5.815  0.7873 -0.6608 -0.5856
  758MOL0     C99964  10.831   2.086   5.667 -1.0173  0.2638 -0.4015
  758MOL0     C99965  10.898   2.225   5.616  0.2527 -0.6806 -0.1313
  758MOL0     C99966  10.865   2.355   5.702  0.9956  0.5767  0.4484
  758MOL0     C99967  10.720   2.384   5.676 -1.1469 -0.3471 -0.9561
  758MOL0    Cl99968  10.691   2.505   5.548 -0.1686  0.3096  0.3888
  758MOL0     C99969  10.955   1.525   5.711 -0.2309 -0.2402  0.3186
  758MOL0     C99970  11.044   1.434   5.653 -0.8857 -0.9614  0.9585
  758MOL0     O99971  11.447   1.405   5.664  0.3726 -0.0475  0.2522
  758MOL0     C99972  11.575   1.160   5.689  0.4198 -0.5549  0.6192
  758MOL0     C99973  11.658   1.043   5.661 -1.2834 -0.4871  1.3341
  758MOL0     N99974  11.711   0.563   5.187 -0.4204 -0.5729  0.4317
  758MOL0     N99975  11.636   0.621   5.098  0.0121  0.0391 -0.3088
  758MOL0     C99976  10.587   0.957   4.850  0.1675  0.4950 -0.6979
  758MOL0     C99977  10.574   1.043   4.745 -0.4555  0.2680  1.5401
  758MOL0     C99978  10.432   1.122   4.329 -0.1247 -0.2720 -1.3328
  758MOL0     C99979  10.482   1.255   4.314 -0.3259 -0.8112 -0.4286
  758MOL0     C99980  10.410   1.351   4.233  0.2457 -0.0286 -0.4305
  758MOL0     C99981  10.315   1.296   4.138 -0.5966  0.3195  0.0632
  758MOL0     O99982  10.257   1.364   4.034  0.2697 -0.3488  0.6647
  758MOL0     C99983  10.351   1.449   3.968 -0.8586 -0.0766 -0.1254
  758MOL0     C99984  10.302   1.459   3.820  0.0801 -0.7831  0.1544
  758MOL0     C99985  10.161   1.519   3.816  0.0048  0.1696 -0.0058
  758MOL0     C99986  10.059   1.432   3.743  0.0177  0.4825 -0.0173
  758MOL0     C99987   9.928   1.495   3.731 -0.4559  0.3802 -0.8096
  758MOL0     C99988   9.821   1.558   3.729  0.3237  0.4807  0.3407
  758MOL0     C99989  10.281   1.161   4.152  0.2240 -0.2838  0.8665
  758MOL0     C99990  10.334   1.074   4.243  0.2301 -0.6390 -0.0453
  758MOL0     H99991  10.675   0.836   4.504 -2.7397  1.9872 -0.3662
  758MOL0     H99992  10.734   0.696   4.692 -1.3820 -0.8945 -0.4650
  758MOL0     H99993  10.764   0.738   5.124  1.2461  0.6227  0.3028
  758MOL0     H99994  10.664   0.875   5.119  1.7686 -0.1209  2.3539
  758MOL0     H99995  10.874   0.951   5.128  1.2397  1.1858 -0.7577
  758MOL0     H99996  10.838   0.988   4.963 -0.2347  0.8096  1.7725
  758MOL0     H99997  10.941   0.826   4.875 -0.5438  1.8444  0.0300
  758MOL0     H99998  10.972   0.726   5.022 -0.7599  0.0965  1.8483
  758MOL0     H99999  11.109   1.004   5.020 -0.6184  0.0922  0.8321
  758MOL0     H    0  11.143   0.856   5.103  0.7565  2.1511 -0.0564
  758MOL0     H    1  11.309   0.918   4.902  0.7765 -0.2212 -1.0293
  758MOL0     H    2  11.162   0.887   4.805 -0.8914  4.2085  2.5181
  758MOL0     H    3  11.329   0.695   4.819 -1.3303 -0.3466 -1.2932
  758MOL0     H    4  11.178   0.642   4.887  1.4317 -2.1206 -0.2901
  758MOL0     H    5  11.256   0.626   5.105  1.1417  2.9473  3.1542
  758MOL0     H    6  11.378   0.559   4.997  2.5086  1.2466 -0.3732
  758MOL0     H    7  11.363   0.801   5.162 -4.7699 -0.8726 -4.1739
  758MOL0     H    8  11.485   0.817   5.034  0.8331  1.4741  1.4526
  758MOL0     H    9  11.477   0.652   5.387  1.4297 -0.1920  0.5591
  758MOL0     H   10  11.708   0.410   5.436  2.6342 -0.0338 -3.8451
  758MOL0     H   11  11.656   0.553   5.536  0.5969  0.6090  0.1076
  758MOL0     H   12  11.907   0.555   5.380 -0.8762  0.5672 -1.6828
  758MOL0     H   13  11.902   0.521   5.560 -0.1181  0.0500  0.4413
  758MOL0     H   14  11.976   0.717   5.514  0.4704 -4.0909 -1.1900
  758MOL0     H   15  11.857   0.767   5.389 -1.2721  1.2691  0.6410
  758MOL0     H   16  11.864   0.886   5.607 -3.0363  2.0339  3.2201
  758MOL0     H   17  11.808   0.742   5.693  0.8749 -1.7528 -0.0285
  758MOL0     H   18  11.444   0.857   5.486  2.8774 -1.1717 -2.2774
  758MOL0     H   19  11.307   1.053   5.506  0.0523 -1.4868 -0.7262
  758MOL0     H   20  11.278   1.432   5.902 -1.1783 -2.8110  1.3007
  758MOL0     H   21  11.137   1.578   6.002 -2.6235  0.9532 -0.1064
  758MOL0     H   22  11.033   1.828   5.909  2.0962  0.1661  1.8071
  758MOL0     H   23  10.995   1.742   6.060  2.2009 -1.9690 -1.4917
  758MOL0     H   24  10.843   1.936   6.066 -2.2825 -1.2220  2.1450
  758MOL0     H   25  10.752   1.798   6.029 -0.3050 -1.8207 -2.9475
  758MOL0     H   26  10.671   1.963   5.891 -0.3927 -1.8666  2.2198
  758MOL0     H   27  10.763   1.854   5.783 -2.7575  0.1624  0.4915
  758MOL0     H   28  10.831   2.128   5.883 -1.4289 -2.9052  1.5917
  758MOL0     H   29  10.956   2.004   5.816  0.5325 -1.5641 -3.2607
  758MOL0     H   30  10.725   2.093   5.641 -0.4978  1.8736 -2.4237
  758MOL0     H   31  10.863   2.013   5.592 -0.1371  1.6904 -1.4780
  758MOL0     H   32  10.880   2.244   5.510  0.6615  0.9462  0.0660
  758MOL0     H   33  11.006   2.220   5.625  0.2894  1.2055  1.1304
  758MOL0     H   34  10.871   2.330   5.808  2.0644 -2.3791 -0.1960
  758MOL0     H   35  10.939   2.433   5.681  0.8392  0.5253 -0.3419
  758MOL0     H   36  10.678   2.420   5.771 -0.4447 -2.5802  0.2608
  758MOL0     H   37  10.661   2.293   5.667 -1.0143 -0.6238  0.7048
  758MOL0     H   38  10.868   1.555   5.654  0.1758 -1.8102 -1.2365
  758MOL0     H   39  11.025   1.394   5.554 -1.6767  0.5069  0.4829
  758MOL0     H   40  11.616   1.236   5.755  3.3929  0.1097 -1.7695
  758MOL0     H   41  11.759   1.051   5.700 -0.1113 -2.8078 -0.9641
  758MOL0     H   42  10.566   0.997   4.948 -1.6448  2.5323 -1.8097
  758MOL0     H   43  10.561   1.151   4.752  1.0843  0.4706  1.6136
  758MOL0     H   44  10.569   1.283   4.372  1.6597 -2.1561 -2.5484
  758MOL0     H   45  10.457   1.448   4.229  0.5684 -0.1903 -0.7292
  758MOL0     H   46  10.449   1.402   3.956 -0.2697  0.7801  1.2456
  758MOL0     H   47  10.361   1.545   4.018  1.8461 -1.3656  2.0955
  758MOL0     H   48  10.372   1.511   3.754 -2.2023  4.3948  1.2990
  758MOL0     H   49  10.289   1.355   3.787  0.6184  0.0117 -2.8202
  758MOL0     H   50  10.156   1.619   3.771 -0.8669  0.6632  1.1295
  758MOL0     H   51  10.125   1.538   3.918  2.7733  2.3777  0.6793
  758MOL0     H   52  10.101   1.402   3.646 -3.3517 -0.2933 -1.4035
  758MOL0     H   53  10.048   1.338   3.798 -0.5415  0.5112 -0.0693
  758MOL0     H   54   9.736   1.622   3.744 -0.0558  0.0468  0.0741
  758MOL0     H   55  10.204   1.121   4.087  0.6970  0.0027  0.1071
  758MOL0     H   56  10.309   0.969   4.239 -0.8562 -0.3494 -1.6348
  759MOL0     O   57  11.432   3.494  10.348 -0.2049  0.4695 -0.5867
  759MOL0     C   58  11.381   3.379  10.358 -0.0836 -0.4196  0.1258
  759MOL0     O   59  11.418   3.288  10.450  0.1299  0.3249  0.1135
  759MOL0     C   60  11.518   3.312  10.540  0.4264  0.5988  0.0631
  759MOL0     C   61  11.514   3.424  10.624  0.0243 -0.2029  0.8871
  759MOL0     C   62  11.622   3.436  10.710 -0.3781 -0.3086 -0.1825
  759MOL0     C   63  11.725   3.341  10.735 -0.7487  0.3748  0.2334
  759MOL0     O   64  11.837   3.360  10.813  0.2870  0.1858 -0.6662
  759MOL0     C   65  11.931   3.469  10.796  0.8080 -0.4441 -0.4029
  759MOL0     C   66  12.016   3.432  10.670 -0.3536  0.2565  0.0225
  759MOL0     C   67  12.127   3.533  10.671 -0.4857 -1.2163 -0.2939
  759MOL0     C   68  12.206   3.531  10.535 -0.1903  0.4010  0.1802
  759MOL0     C   69  12.280   3.655  10.480  0.0857 -0.2752  0.5835
  759MOL0     C   70  12.375   3.711  10.568  0.0796 -0.6142 -0.1502
  759MOL0     C   71  12.510   3.633  10.562  0.0408 -0.3305 -1.4461
  759MOL0     C   72  12.590   3.640  10.694 -0.7674 -0.2065 -0.1719
  759MOL0     N   73  12.696   3.541  10.710  0.7169  0.4858 -0.6472
  759MOL0     C   74  12.798   3.498  10.624 -0.5320 -0.7049 -0.0080
  759MOL0     C   75  12.884   3.424  10.700  0.6564 -0.5043 -0.2907
  759MOL0     C   76  13.017   3.391  10.638  0.5991  0.4047  0.6427
  759MOL0     C   77  13.008   3.314  10.501 -0.8139  0.9759 -0.0315
  759MOL0     C   78  13.075   3.178  10.509  0.2708 -0.0817 -0.0887
  759MOL0     C   79  13.069   3.101  10.375 -0.2673  0.0797 -0.1510
  759MOL0     O   80  13.186   3.131  10.297 -0.0452 -0.5719  0.0676
  759MOL0     C   81  13.201   3.080  10.169  0.0121  0.2210  0.4026
  759MOL0     C   82  13.234   2.945  10.141  0.2434 -0.6457 -0.9228
  759MOL0     C   83  13.237   2.910  10.008  0.3183  0.6623  0.4073
  759MOL0     C   84  13.210   2.995   9.896 -0.7279  1.4887 -0.0551
  759MOL0     C   85  13.216   2.939   9.763  0.1011  0.2042 -0.0623
  759MOL0     O   86  13.162   3.010   9.667  0.6781 -0.2703  0.6439
  759MOL0     C   87  13.142   2.948   9.541  0.1321 -1.0749 -0.0510
  759MOL0     C   88  13.219   2.979   9.434 -0.6272 -0.0825 -0.1811
  759MOL0     C   89  13.183   2.925   9.309 -0.1206 -0.2345  0.0517
  759MOL0     C   90  13.069   2.839   9.297  0.3037  0.1245  0.0646
  759MOL0     O   91  13.040   2.792   9.167 -0.0850  0.3028  0.2743
  759MOL0     C   92  12.911   2.830   9.115  0.2890 -0.2887 -0.3442
  759MOL0     C   93  12.847   2.692   9.090 -0.1464 -0.1252  0.5817
  759MOL0     C   94  12.738   2.689   8.975  0.4785  0.2058  0.3544
  759MOL0     C   95  12.665   2.551   8.960  0.4979 -0.2637 -0.2558
  759MOL0     C   96  12.552   2.548   8.851 -0.4039 -0.1635 -0.1194
  759MOL0     C   97  12.438   2.643   8.851  0.2781 -0.6749 -0.9423
  759MOL0     C   98  12.356   2.626   8.975 -0.5508 -0.6417  0.7244
  759MOL0     C   99  12.228   2.541   8.959 -0.3549  0.6824 -0.2416
  759MOL0    Cl  100  12.082   2.640   8.942  0.3624  0.0218 -0.2357
  759MOL0     C  101  12.988   2.816   9.415  0.7241  0.5934  0.4550
  759MOL0     C  102  13.023   2.872   9.536  0.1760 -0.4148  0.4462
  759MOL0     O  103  13.268   2.830   9.743  0.5866 -0.4093  0.3823
  759MOL0     C  104  13.197   3.126   9.930  0.8642 -1.4493  0.1670
  759MOL0     C  105  13.187   3.175  10.064  0.6969 -0.6368 -0.1552
  759MOL0     N  106  12.841   3.429  10.835 -0.2321  0.3709 -0.0185
  759MOL0     N  107  12.728   3.497  10.838 -0.0883  0.4425  0.1582
  759MOL0     C  108  11.710   3.227  10.659 -0.1731 -0.0700  0.8182
  759MOL0     C  109  11.599   3.208  10.572  0.2859 -0.6782  0.4108
  759MOL0     C  110  11.273   3.345  10.271  0.4297 -0.3072  0.9856
  759MOL0     C  111  11.208   3.221  10.283  0.1222  1.5650 -0.2986
  759MOL0     C  112  11.100   3.174  10.194  0.5005 -0.3193 -0.2204
  759MOL0     C  113  11.075   3.256  10.085  0.8385  0.9283 -0.2242
  759MOL0     O  114  11.003   3.197   9.983 -0.3101  0.5384  0.1166
  759MOL0     C  115  10.967   3.279   9.874  0.9598  0.9627  0.1715
  759MOL0     C  116  10.875   3.203   9.788  0.6298  0.3682  0.7161
  759MOL0     C  117  10.741   3.202   9.854  0.0963 -0.1040 -0.3907
  759MOL0     C  118  10.659   3.084   9.807  0.5607  0.3487  0.5668
  759MOL0     C  119  10.653   3.091   9.655  0.8104 -0.1537  0.7505
  759MOL0     C  120  10.656   3.102   9.533  0.2642  0.7434  0.1895
  759MOL0     C  121  11.126   3.382  10.081  0.4289  0.1371  1.1435
  759MOL0     C  122  11.226   3.431  10.166 -0.0421 -0.6180  0.7590
  759MOL0     H  123  11.449   3.507  10.600 -1.3157 -1.9985 -2.3905
  759MOL0     H  124  11.628   3.534  10.757  2.7468 -0.9972  1.0887
  759MOL0     H  125  12.000   3.467  10.881  3.1344 -3.0439 -2.1878
  759MOL0     H  126  11.874   3.561  10.783 -0.4500 -1.1765 -0.1944
  759MOL0     H  127  11.947   3.455  10.588  1.0195  2.1143 -0.6802
  759MOL0     H  128  12.048   3.327  10.671 -2.2592 -0.3606  0.3117
  759MOL0     H  129  12.195   3.520  10.756 -1.8988 -0.4906  0.9986
  759MOL0     H  130  12.086   3.635  10.680 -2.2570 -1.8310 -1.0384
  759MOL0     H  131  12.264   3.439  10.526  1.2067  1.0315  2.0610
  759MOL0     H  132  12.134   3.523  10.454 -1.9174  0.1044  1.6796
  759MOL0     H  133  12.196   3.718  10.451  1.8166  1.9613  0.0759
  759MOL0     H  134  12.336   3.632  10.389 -0.9351  0.1720 -0.1782
  759MOL0     H  135  12.339   3.711  10.671  2.1191  0.9213  0.6352
  759MOL0     H  136  12.399   3.810  10.528  1.2926 -0.2111  1.4618
  759MOL0     H  137  12.471   3.532  10.553  0.0409 -0.6767  1.4524
  759MOL0     H  138  12.572   3.670  10.479  3.4197 -2.3965 -0.0704
  759MOL0     H  139  12.510   3.631  10.768  1.4869 -2.6423  2.2021
  759MOL0     H  140  12.644   3.735  10.697  1.8040 -1.4090 -3.1269
  759MOL0     H  141  12.815   3.527  10.521  1.8410 -0.0156  0.5164
  759MOL0     H  142  13.073   3.323  10.702  0.4732 -0.8514 -0.5276
  759MOL0     H  143  13.068   3.487  10.630 -1.2189  1.4813  1.3917
  759MOL0     H  144  13.052   3.373  10.420  1.7601  4.1458  3.3244
  759MOL0     H  145  12.901   3.298  10.480 -0.6343 -0.1713 -0.1256
  759MOL0     H  146  13.178   3.187  10.544  0.4867  2.1250 -1.1086
  759MOL0     H  147  13.029   3.117  10.588 -0.9009  2.5950  1.4364
  759MOL0     H  148  12.975   3.140  10.335 -0.2898 -0.8548 -1.0485
  759MOL0     H  149  13.052   2.993  10.369  1.3400 -0.1818 -0.6256
  759MOL0     H  150  13.246   2.879  10.227 -2.8317 -1.3427 -0.9082
  759MOL0     H  151  13.255   2.805   9.989  1.7688  1.3539 -2.6993
  759MOL0     H  152  13.311   3.034   9.452 -1.0222  0.8762 -1.0393
  759MOL0     H  153  13.244   2.944   9.221 -1.7950  1.5876 -0.7925
  759MOL0     H  154  12.916   2.889   9.023 -0.8982  1.4680  0.6550
  759MOL0     H  155  12.853   2.885   9.190 -0.8125 -1.2495 -0.4635
  759MOL0     H  156  12.812   2.653   9.186  1.4520 -0.7079  0.9591
  759MOL0     H  157  12.921   2.620   9.055  0.4049  0.5135  0.4182
  759MOL0     H  158  12.776   2.715   8.875 -0.4601 -0.3420 -0.1559
  759MOL0     H  159  12.676   2.772   9.007  0.1516 -0.0839  0.4791
  759MOL0     H  160  12.742   2.478   8.933  0.7836 -0.6324  1.4617
  759MOL0     H  161  12.629   2.524   9.060  2.2405 -1.0059  0.2117
  759MOL0     H  162  12.503   2.450   8.853  1.5358 -1.3320 -2.9802
  759MOL0     H  163  12.601   2.538   8.754 -1.7712  0.4205 -0.8923
  759MOL0     H  164  12.378   2.648   8.760 -0.6187  3.1476 -0.3034
  759MOL0     H  165  12.485   2.742   8.849  0.5263 -0.7973 -2.8356
  759MOL0     H  166  12.413   2.591   9.062 -2.0240  1.4779  2.6538
  759MOL0     H  167  12.347   2.730   9.007  2.7507 -0.4705  1.4397
  759MOL0     H  168  12.205   2.471   9.040 -0.3163 -0.4243 -1.1641
  759MOL0     H  169  12.248   2.465   8.883 -1.4005 -3.8706  3.5707
  759MOL0     H  170  12.911   2.740   9.412  0.9541  0.3533 -3.0025
  759MOL0     H  171  12.964   2.861   9.627  2.8946 -1.8121  2.1695
  759MOL0     H  172  13.183   3.201   9.852  0.0977 -0.3163  1.3495
  759MOL0     H  173  13.170   3.272  10.107 -2.4338 -1.0224 -0.2968
  759MOL0     H  174  11.777   3.143  10.673 -0.5396 -0.6406 -0.6908
  759MOL0     H  175  11.611   3.113  10.521  1.1645 -1.3195  1.7252
  759MOL0     H  176  11.227   3.152  10.365 -1.2596  1.1356 -0.3107
  759MOL0     H  177  11.053   3.076  10.197  0.1315 -0.4756 -4.5390
  759MOL0     H  178  11.057   3.309   9.820  0.0269  0.6067 -1.6867
  759MOL0     H  179  10.912   3.363   9.917  0.5274  0.7517  0.0422
  759MOL0     H  180  10.862   3.243   9.687 -0.8717 -0.7961  0.4010
  759MOL0     H  181  10.921   3.104   9.779  2.8024  1.4946 -3.5335
  759MOL0     H  182  10.689   3.298   9.845 -2.6274 -1.0712  2.8339
  759MOL0     H  183  10.744   3.190   9.962  1.0226 -1.3172 -0.5373
  759MOL0     H  184  10.702   2.984   9.803 -1.8310 -0.7503 -3.6879
  759MOL0     H  185  10.562   3.087   9.858  0.1335  1.4087 -0.2657
  759MOL0     H  186  10.654   3.132   9.430  1.3182  3.4754  0.8672
  759MOL0     H  187  11.093   3.460  10.014  0.1260 -1.6031 -0.8401
  759MOL0     H  188  11.254   3.536  10.160 -0.6850 -0.3683  1.8017
  760MOL0     O  189   7.928   5.200   8.542 -0.2563  0.7999  0.5886
  760MOL0     C  190   7.995   5.293   8.571  0.5179 -0.4227 -0.1301
  760MOL0     O  191   7.955   5.421   8.606 -0.0197 -0.2733 -0.3817
  760MOL0     C  192   7.826   5.439   8.582  0.1536 -0.2874 -0.2550
  760MOL0     C  193   7.720   5.392   8.667 -0.0725  0.2147 -0.4502
  760MOL0     C  194   7.587   5.434   8.624  0.4963  0.7916 -0.0208
  760MOL0     C  195   7.565   5.528   8.526 -0.0210  0.9939  0.2707
  760MOL0     O  196   7.430   5.557   8.513 -0.4755  0.1322  0.2924
  760MOL0     C  197   7.407   5.651   8.399  0.4423  0.2048 -0.4709
  760MOL0     C  198   7.261   5.695   8.407 -0.4709 -0.2274  0.2428
  760MOL0     C  199   7.227   5.794   8.302  0.4923  0.0341  0.2211
  760MOL0     C  200   7.078   5.831   8.301 -0.2607  0.3152  0.1739
  760MOL0     C  201   7.041   5.918   8.175  0.4475  0.1941  0.0767
  760MOL0     C  202   6.890   5.929   8.145  0.0194 -0.4999 -0.7309
  760MOL0     C  203   6.818   5.801   8.108  0.8208  0.3651  0.5287
  760MOL0     C  204   6.668   5.816   8.106  0.8952  0.3655 -1.0852
  760MOL0     N  205   6.611   5.930   8.025  0.0553  0.4961  0.5817
  760MOL0     C  206   6.597   5.954   7.885  0.7656  0.4818  0.3646
  760MOL0     C  207   6.525   6.073   7.875  1.0024 -0.8336 -1.0759
  760MOL0     C  208   6.503   6.162   7.759 -0.6249 -0.0309  0.3375
  760MOL0     C  209   6.411   6.089   7.653 -0.0502 -0.3692 -0.3146
  760MOL0     C  210   6.357   6.190   7.547  0.4580 -0.3211  0.3894
  760MOL0     C  211   6.291   6.107   7.430 -0.4417  0.4231 -0.3226
  760MOL0     O  212   6.204   6.185   7.346 -0.2523 -0.3051 -1.2785
  760MOL0     C  213   6.096   6.129   7.293  1.1284  0.2072 -0.2126
  760MOL0     C  214   6.086   6.110   7.155  0.4804  0.5103 -0.8707
  760MOL0     C  215   5.987   6.026   7.094 -0.4036 -0.6408 -0.4133
  760MOL0     C  216   5.886   5.962   7.168 -0.0700 -0.3263  0.3611
  760MOL0     C  217   5.775   5.887   7.109  0.0560 -0.0729  0.2710
  760MOL0     O  218   5.796   5.858   6.984  0.0119 -0.1688  0.4623
  760MOL0     C  219   5.691   5.800   6.912 -0.1342  0.3142  0.3866
  760MOL0     C  220   5.566   5.873   6.889 -0.2015  0.3713 -0.6110
  760MOL0     C  221   5.466   5.803   6.804 -0.4312 -0.0987 -1.0521
  760MOL0     C  222   5.503   5.693   6.734 -0.1182  0.5352 -0.8537
  760MOL0     O  223   5.433   5.620   6.637  0.2105 -0.4491 -0.2950
  760MOL0     C  224   5.293   5.596   6.662 -0.3007 -0.6712 -0.3660
  760MOL0     C  225   5.239   5.505   6.552  0.1904  0.0019 -0.2887
  760MOL0     C  226   5.102   5.461   6.588 -0.1231  0.9308  0.3865
  760MOL0     C  227   5.052   5.364   6.479  0.6496  0.5246  0.4489
  760MOL0     C  228   4.911   5.327   6.492  0.7960 -0.0092 -0.2620
  760MOL0     C  229   4.885   5.236   6.357  0.8009  0.3479  0.6718
  760MOL0     C  230   4.739   5.208   6.341 -0.2264  0.8476  0.6959
  760MOL0     C  231   4.698   5.137   6.209 -0.9354 -0.3452  0.0946
  760MOL0    Cl  232   4.522   5.103   6.238 -0.2634 -0.3585  0.0493
  760MOL0     C  233   5.627   5.630   6.754 -0.9737  0.1141  0.3757
  760MOL0     C  234   5.721   5.682   6.849 -0.3863 -0.5811  0.7935
  760MOL0     O  235   5.675   5.852   7.175  0.8705  0.2074 -0.5901
  760MOL0     C  236   5.883   5.988   7.306  0.3907  0.0776 -0.2026
  760MOL0     C  237   5.991   6.069   7.368 -0.0430 -0.1078 -0.5690
  760MOL0     N  238   6.503   6.122   8.000 -0.0484  0.6922 -0.4554
  760MOL0     N  239   6.562   6.047   8.093 -0.1038 -0.0688  0.9699
  760MOL0     C  240   7.669   5.558   8.439 -0.3177 -0.5070  0.4510
  760MOL0     C  241   7.800   5.520   8.478  0.0868  0.3861  0.3494
  760MOL0     C  242   8.142   5.274   8.542  1.3668 -0.3436  0.2005
  760MOL0     C  243   8.198   5.163   8.469 -0.6423 -0.2167  0.3890
  760MOL0     C  244   8.335   5.171   8.440  0.1426 -0.6202  0.2588
  760MOL0     C  245   8.417   5.278   8.475  0.1445 -0.1158  0.3094
  760MOL0     O  246   8.553   5.282   8.454  0.1883  0.2610  0.5349
  760MOL0     C  247   8.613   5.204   8.349 -0.1376 -0.0883 -0.5529
  760MOL0     C  248   8.767   5.219   8.377  0.0600 -0.0388 -0.1113
  760MOL0     C  249   8.826   5.355   8.335  0.1417 -0.0652 -0.0105
  760MOL0     C  250   8.862   5.444   8.451  0.7697 -0.0557 -0.7320
  760MOL0     C  251   8.962   5.392   8.549  0.8848  0.3579 -0.3321
  760MOL0     C  252   9.062   5.368   8.607  0.2915 -0.0835 -1.0267
  760MOL0     C  253   8.369   5.364   8.570  1.0769 -0.0987  0.2541
  760MOL0     C  254   8.229   5.368   8.604 -0.4575 -0.5476  0.0205
  760MOL0     H  255   7.725   5.330   8.757 -2.8863 -0.7919 -0.8850
  760MOL0     H  256   7.500   5.410   8.684  1.9412 -0.5703  1.6341
  760MOL0     H  257   7.436   5.603   8.305  1.3150 -0.3833  0.0846
  760MOL0     H  258   7.464   5.740   8.426 -0.1204  0.1463  1.0002
  760MOL0     H  259   7.234   5.739   8.503 -1.7399  2.7547 -1.3598
  760MOL0     H  260   7.194   5.610   8.393  1.1594 -1.1244 -2.9681
  760MOL0     H  261   7.259   5.746   8.209  0.2001 -2.2025  1.2076
  760MOL0     H  262   7.271   5.893   8.319 -1.5383  0.7913  1.3435
  760MOL0     H  263   7.005   5.749   8.304 -0.7208  0.6256 -1.5006
  760MOL0     H  264   7.062   5.893   8.390 -0.7177  3.6010 -2.0226
  760MOL0     H  265   7.082   5.877   8.082 -0.9094 -1.6605  0.2363
  760MOL0     H  266   7.083   6.019   8.184  1.0437  0.1748 -1.9813
  760MOL0     H  267   6.879   6.011   8.074 -0.5483  1.6772  1.6943
  760MOL0     H  268   6.846   5.957   8.241  1.2579 -1.8952  0.2940
  760MOL0     H  269   6.854   5.769   8.009  1.1603  2.8153 -0.2157
  760MOL0     H  270   6.841   5.729   8.187 -1.3532 -2.3329 -1.1232
  760MOL0     H  271   6.647   5.819   8.213 -0.3927  1.5889 -1.3540
  760MOL0     H  272   6.621   5.725   8.067 -1.4363 -0.8713  3.8603
  760MOL0     H  273   6.627   5.901   7.795 -0.8132 -0.8270  0.5558
  760MOL0     H  274   6.596   6.188   7.707 -2.0632  0.5172 -2.1674
  760MOL0     H  275   6.453   6.253   7.792 -1.8829 -0.5673 -0.0345
  760MOL0     H  276   6.318   6.060   7.703 -1.2973  0.1920 -2.2201
  760MOL0     H  277   6.463   6.006   7.605  1.9622  1.5004 -1.5885
  760MOL0     H  278   6.279   6.256   7.587  0.0902 -0.7534  0.3939
  760MOL0     H  279   6.439   6.250   7.506  1.1751 -2.7552 -1.9977
  760MOL0     H  280   6.234   6.024   7.473 -0.0227 -0.6397 -1.7148
  760MOL0     H  281   6.379   6.068   7.378  0.9885  1.9519  0.8806
  760MOL0     H  282   6.170   6.145   7.096 -1.2812  0.9779 -3.2500
  760MOL0     H  283   5.986   6.012   6.986 -0.4544 -1.7914 -0.2717
  760MOL0     H  284   5.564   5.974   6.926  3.4046 -0.0618  1.0916
  760MOL0     H  285   5.372   5.851   6.782  1.6964  3.9213 -2.2727
  760MOL0     H  286   5.245   5.694   6.670  1.9546  0.6188 -1.4043
  760MOL0     H  287   5.271   5.547   6.757 -2.0612 -0.2105 -0.4950
  760MOL0     H  288   5.300   5.417   6.532 -0.9571 -0.7448 -0.6613
  760MOL0     H  289   5.235   5.556   6.456  0.4485  2.4213  0.9177
  760MOL0     H  290   5.034   5.547   6.596 -1.2791  0.0551  0.3404
  760MOL0     H  291   5.095   5.411   6.686 -2.4993  2.0281  0.8555
  760MOL0     H  292   5.073   5.408   6.381 -1.3670  1.6376  0.4532
  760MOL0     H  293   5.114   5.274   6.482 -0.4642 -0.3611 -1.3317
  760MOL0     H  294   4.846   5.415   6.497  1.5408  0.4722  3.2778
  760MOL0     H  295   4.905   5.271   6.585 -1.4377 -3.9943 -2.5332
  760MOL0     H  296   4.941   5.142   6.364 -1.0749 -0.8572  0.2837
  760MOL0     H  297   4.919   5.287   6.266 -3.9913  0.8263 -1.1463
  760MOL0     H  298   4.703   5.142   6.421  1.9198  1.6810  2.4518
  760MOL0     H  299   4.683   5.301   6.349  0.4121  1.2277  0.7397
  760MOL0     H  300   4.742   5.039   6.188 -0.9482 -0.7466  1.8305
  760MOL0     H  301   4.712   5.201   6.121 -4.8783 -0.2713 -0.6295
  760MOL0     H  302   5.648   5.532   6.713 -0.7536 -0.0888  0.9600
  760MOL0     H  303   5.812   5.631   6.880  1.3214  2.0420  0.3804
  760MOL0     H  304   5.804   5.948   7.369  0.0439  1.7477  0.4977
  760MOL0     H  305   5.985   6.057   7.476  0.3592 -1.1654 -0.6509
  760MOL0     H  306   7.653   5.621   8.353 -1.7294 -2.0208 -0.4617
  760MOL0     H  307   7.889   5.545   8.421 -0.7099  1.1271 -0.5946
  760MOL0     H  308   8.140   5.082   8.427 -1.3465 -0.0277  0.9720
  760MOL0     H  309   8.373   5.095   8.371 -1.6171 -2.1704  0.9165
  760MOL0     H  310   8.583   5.240   8.251 -0.5668 -0.2879 -0.4955
  760MOL0     H  311   8.595   5.096   8.351  1.6966 -0.4278 -0.4637
  760MOL0     H  312   8.771   5.198   8.484  1.4455  1.6101  0.1971
  760MOL0     H  313   8.807   5.135   8.319  2.3174  0.0412  1.2352
  760MOL0     H  314   8.760   5.406   8.264  2.2804  0.7636 -1.5113
  760MOL0     H  315   8.923   5.335   8.289 -0.0675  1.1753 -1.0513
  760MOL0     H  316   8.896   5.541   8.416  0.1158  1.2581  2.0041
  760MOL0     H  317   8.770   5.467   8.504  0.9023  0.9306 -0.9067
  760MOL0     H  318   9.162   5.333   8.627  0.4297 -0.7882 -2.7562
  760MOL0     H  319   8.439   5.440   8.605  0.7642 -0.5636  1.9748
  760MOL0     H  320   8.195   5.455   8.658 -0.5120  0.3645 -1.4213
  761MOL0     O  321   2.076  11.122  11.354  0.2341 -0.0808 -0.5167
  761MOL0     C  322   1.989  11.173  11.281  0.6615 -0.3647  0.9650
  761MOL0     O  323   2.011  11.260  11.170  0.1911  0.8386 -0.7651
  761MOL0     C  324   2.133  11.314  11.145 -0.0372  0.0112  1.0866
  761MOL0     C  325   2.182  11.327  11.012  0.1082  0.0700 -0.4334
  761MOL0     C  326   2.310  11.375  10.984 -0.0078  0.1699  0.6248
  761MOL0     C  327   2.399  11.387  11.086 -0.2884 -0.0460  0.6266
  761MOL0     O  328   2.523  11.439  11.045  0.0268  0.5741 -0.2520
  761MOL0     C  329   2.650  11.389  11.103 -0.0780  0.7088 -1.0237
  761MOL0     C  330   2.759  11.344  10.999 -0.7206  0.3500 -0.3770
  761MOL0     C  331   2.883  11.302  11.067 -0.7191  0.3706 -0.9665
  761MOL0     C  332   2.974  11.233  10.962 -0.1212  0.5535  1.0972
  761MOL0     C  333   3.100  11.162  11.008  0.8497  0.4856  0.0099
  761MOL0     C  334   3.167  11.078  10.901  0.3941  1.1283  0.5841
  761MOL0     C  335   3.214  11.150  10.763  0.2166  0.1412 -1.0318
  761MOL0     C  336   3.250  11.039  10.655 -0.4715 -0.0267  0.7297
  761MOL0     N  337   3.370  10.970  10.688  1.0542  0.1533 -1.0340
  761MOL0     C  338   3.493  11.010  10.721  0.2439 -0.0895  0.2873
  761MOL0     C  339   3.579  10.903  10.715  0.1204  0.7769 -0.7927
  761MOL0     C  340   3.731  10.899  10.742  0.9566  0.0678  0.7769
  761MOL0     C  341   3.800  11.002  10.647  0.0239 -0.7676  0.3679
  761MOL0     C  342   3.946  11.030  10.686 -0.8036  0.3027  0.3501
  761MOL0     C  343   4.045  10.907  10.669 -0.7639 -0.5410 -0.3694
  761MOL0     O  344   4.182  10.940  10.702  0.3307 -0.8762 -0.0025
  761MOL0     C  345   4.260  10.834  10.731 -0.0186  0.8599 -0.2038
  761MOL0     C  346   4.379  10.863  10.804 -0.5439 -0.1089 -0.0644
  761MOL0     C  347   4.462  10.765  10.857 -0.8056 -0.3960 -0.2932
  761MOL0     C  348   4.432  10.630  10.841 -0.7625 -0.8077 -0.2399
  761MOL0     C  349   4.523  10.528  10.891 -0.6785 -0.7791 -0.0128
  761MOL0     O  350   4.496  10.397  10.865  0.0366  0.2206  0.0408
  761MOL0     C  351   4.554  10.307  10.953  0.7307 -0.0420  0.4212
  761MOL0     C  352   4.474  10.244  11.049  0.0163  0.6835 -0.7520
  761MOL0     C  353   4.519  10.126  11.116  0.6838  0.0749 -1.1485
  761MOL0     C  354   4.650  10.076  11.093 -0.1109  0.0008 -0.1903
  761MOL0     O  355   4.705   9.964  11.153 -0.0735 -0.6247  0.2002
  761MOL0     C  356   4.619   9.867  11.204 -0.1409  0.7357 -1.2006
  761MOL0     C  357   4.705   9.747  11.233  0.3493  0.7461 -0.6684
  761MOL0     C  358   4.627   9.641  11.318  0.3452  0.0420  0.2939
  761MOL0     C  359   4.696   9.507  11.342  0.7551 -0.2014 -0.2783
  761MOL0     C  360   4.613   9.428  11.454  0.2488  1.3053  0.1243
  761MOL0     C  361   4.687   9.295  11.483 -0.2695  0.8356 -0.4051
  761MOL0     C  362   4.580   9.199  11.541 -0.4051 -0.6297 -0.1758
  761MOL0     C  363   4.573   9.203  11.695  0.3918  0.3139 -0.2053
  761MOL0    Cl  364   4.739   9.171  11.763 -0.6493 -0.2393  0.0381
  761MOL0     C  365   4.724  10.139  11.003 -0.1593 -0.4200 -1.4511
  761MOL0     C  366   4.686  10.255  10.934  0.4776 -0.3128  0.2627
  761MOL0     O  367   4.616  10.565  10.967  0.0182 -0.4612  0.0772
  761MOL0     C  368   4.317  10.594  10.764  0.2973  0.8731 -0.4778
  761MOL0     C  369   4.229  10.694  10.718  0.8884 -0.1627  0.8610
  761MOL0     N  370   3.489  10.794  10.701 -0.3803  0.3882 -0.0145
  761MOL0     N  371   3.365  10.834  10.689 -0.4781 -0.0344 -0.6268
  761MOL0     C  372   2.354  11.395  11.213 -0.1596 -0.1786  0.1769
  761MOL0     C  373   2.221  11.354  11.241 -0.3670  0.8194 -0.4920
  761MOL0     C  374   1.849  11.150  11.315  1.0719 -0.5166  0.5610
  761MOL0     C  375   1.809  11.041  11.375 -0.0683  0.1838 -0.0195
  761MOL0     C  376   1.677  11.023  11.417 -0.1792 -0.5011  0.8043
  761MOL0     C  377   1.584  11.129  11.405 -0.1829 -0.5737 -0.5180
  761MOL0     O  378   1.451  11.108  11.456  0.0585  0.5053  0.3628
  761MOL0     C  379   1.377  11.217  11.494  0.5376 -0.3032  0.2492
  761MOL0     C  380   1.281  11.195  11.611 -0.2206 -0.6146  0.2751
  761MOL0     C  381   1.186  11.081  11.573  0.4354 -0.2176  0.1864
  761MOL0     C  382   1.109  11.024  11.693 -0.5763 -0.7706 -0.3844
  761MOL0     C  383   1.023  10.911  11.662  1.2804 -0.0312  0.6053
  761MOL0     C  384   0.941  10.817  11.646  0.1540 -0.9265  0.2996
  761MOL0     C  385   1.620  11.252  11.333 -1.1257 -0.3027  0.3525
  761MOL0     C  386   1.756  11.255  11.283 -0.5047  1.0161 -0.6191
  761MOL0     H  387   2.108  11.317  10.934 -1.1213 -2.5446  0.9214
  761MOL0     H  388   2.335  11.392  10.880 -2.8666  0.8226 -0.0556
  761MOL0     H  389   2.624  11.301  11.162 -1.7364  0.0244 -2.6891
  761MOL0     H  390   2.676  11.472  11.169  1.0428  1.2852 -2.1612
  761MOL0     H  391   2.784  11.426  10.931  0.7887 -0.0403 -0.3239
  761MOL0     H  392   2.712  11.267  10.938  0.3888 -2.9811  2.6622
  761MOL0     H  393   2.867  11.236  11.153  0.0798  0.8267 -0.4496
  761MOL0     H  394   2.939  11.391  11.100 -0.9033  0.7225 -1.5772
  761MOL0     H  395   2.916  11.148  10.923  2.2113 -0.6524  0.0278
  761MOL0     H  396   3.004  11.299  10.881 -1.3611 -0.1403  0.0396
  761MOL0     H  397   3.086  11.100  11.097  3.2005 -0.5765 -0.2667
  761MOL0     H  398   3.166  11.240  11.048 -0.6884  0.8398  1.9958
  761MOL0     H  399   3.095  10.996  10.889  0.1085  1.3377  0.8608
  761MOL0     H  400   3.251  11.029  10.950 -1.8909 -0.2783  3.3861
  761MOL0     H  401   3.124  11.197  10.724 -1.0639 -1.0017  0.3816
  761MOL0     H  402   3.297  11.219  10.779 -0.0593  0.3707 -0.5667
  761MOL0     H  403   3.258  11.081  10.555  1.4053  1.5141  1.4510
  761MOL0     H  404   3.170  10.965  10.658 -1.1660  0.5115 -2.0982
  761MOL0     H  405   3.512  11.115  10.736 -1.9676  0.8794 -2.6762
  761MOL0     H  406   3.766  10.800  10.713 -2.7093 -1.0476 -0.2786
  761MOL0     H  407   3.757  10.918  10.847  1.2062  2.4107  0.3586
  761MOL0     H  408   3.742  11.093  10.659 -0.2667 -1.1643  2.2589
  761MOL0     H  409   3.803  10.977  10.540  2.7805  1.8555 -0.3154
  761MOL0     H  410   3.979  11.118  10.630  2.4959 -1.2303 -0.3575
  761MOL0     H  411   3.953  11.049  10.794 -2.3627 -0.1563  0.5565
  761MOL0     H  412   4.038  10.865  10.568 -2.8818 -0.4048 -0.3292
  761MOL0     H  413   4.012  10.833  10.743 -0.3688 -3.4933 -2.9409
  761MOL0     H  414   4.398  10.966  10.832  1.9787 -0.4050 -0.4179
  761MOL0     H  415   4.556  10.781  10.908 -0.8351 -0.6896 -0.1451
  761MOL0     H  416   4.376  10.282  11.077 -0.1525 -0.6964  0.6650
  761MOL0     H  417   4.450  10.068  11.177 -0.5234  2.1770 -0.4096
  761MOL0     H  418   4.544   9.832  11.132  0.5385  1.0500 -2.0783
  761MOL0     H  419   4.577   9.902  11.299 -2.1660  0.2333 -1.8506
  761MOL0     H  420   4.799   9.779  11.280 -0.1485  2.0931 -0.5406
  761MOL0     H  421   4.722   9.692  11.140 -1.9991 -2.8946  0.8559
  761MOL0     H  422   4.524   9.627  11.285 -0.1659 -1.8073  2.4259
  761MOL0     H  423   4.619   9.690  11.416 -3.5361 -2.0439  1.2059
  761MOL0     H  424   4.682   9.459  11.244  0.2127 -1.7488  0.5068
  761MOL0     H  425   4.799   9.521  11.375  0.9799 -2.4282  0.1476
  761MOL0     H  426   4.515   9.411  11.408  0.2145 -1.3477  1.0056
  761MOL0     H  427   4.596   9.484  11.547  1.6507 -2.8663  3.1694
  761MOL0     H  428   4.764   9.315  11.557 -2.2721 -0.3903  2.1482
  761MOL0     H  429   4.736   9.241  11.401 -1.0641 -3.5632  1.7713
  761MOL0     H  430   4.481   9.201  11.496 -0.0468 -2.8298 -1.2124
  761MOL0     H  431   4.615   9.098  11.515 -0.0103 -1.6760  3.7530
  761MOL0     H  432   4.498   9.134  11.732  1.8581 -2.0863 -1.4453
  761MOL0     H  433   4.539   9.303  11.725 -0.9872  0.3395 -1.6996
  761MOL0     H  434   4.817  10.095  10.969 -1.1169 -1.8219 -2.3407
  761MOL0     H  435   4.745  10.306  10.858 -1.8643 -1.5045 -2.5462
  761MOL0     H  436   4.286  10.493  10.743 -0.2641  0.4578  2.0674
  761MOL0     H  437   4.138  10.666  10.666  2.6547 -0.8452 -2.0948
  761MOL0     H  438   2.430  11.438  11.277  1.9526  2.5920 -3.7265
  761MOL0     H  439   2.189  11.360  11.345  0.3545  1.1874 -0.2819
  761MOL0     H  440   1.871  10.952  11.386  0.0685  0.0221 -1.9128
  761MOL0     H  441   1.644  10.926  11.453 -0.2406 -0.3653  1.1250
  761MOL0     H  442   1.314  11.245  11.409 -0.4676  1.1871  1.4167
  761MOL0     H  443   1.447  11.297  11.523  1.4791 -0.2348 -2.0229
  761MOL0     H  444   1.331  11.169  11.705 -1.5680 -0.1268  1.1620
  761MOL0     H  445   1.222  11.287  11.612 -0.5612 -0.8315  0.2247
  761MOL0     H  446   1.242  10.997  11.533  0.7177 -0.0523  0.2322
  761MOL0     H  447   1.116  11.102  11.491  0.9206 -2.9191 -1.0158
  761MOL0     H  448   1.188  10.986  11.758  0.8712  4.0351  1.1542
  761MOL0     H  449   1.052  11.094  11.755  0.4777 -0.0938 -0.1386
  761MOL0     H  450   0.871  10.737  11.628 -0.5982  0.2017 -2.3956
  761MOL0     H  451   1.548  11.333  11.325 -0.6140  0.0582 -0.6967
  761MOL0     H  452   1.795  11.347  11.241  3.0861  0.8622  1.9300
  762MOL0     O  453   2.765   0.484   6.743 -0.7154  0.8706 -0.1041
  762MOL0     C  454   2.670   0.548   6.787 -0.1817 -0.1534 -0.5312
  762MOL0     O  455   2.570   0.501   6.869 -0.0938  0.9960 -0.7937
  762MOL0     C  456   2.592   0.371   6.922  0.8649  0.3556  0.3031
  762MOL0     C  457   2.663   0.346   7.033 -0.6837  0.7476  0.8794
  762MOL0     C  458   2.676   0.207   7.065  0.3400  0.1809 -0.2707
  762MOL0     C  459   2.630   0.100   6.986 -0.1003 -0.1274  0.0893
  762MOL0     O  460   2.666  -0.030   7.004 -0.2591 -0.0269 -0.3901
  762MOL0     C  461   2.806  -0.049   7.049  0.2179  0.4912 -0.5705
  762MOL0     C  462   2.818  -0.194   7.101  0.3132  0.0554 -0.1783
  762MOL0     C  463   2.960  -0.236   7.119 -0.2224  0.6167  0.4498
  762MOL0     C  464   2.966  -0.378   7.161  0.2014 -0.6682 -0.1873
  762MOL0     C  465   3.112  -0.417   7.196 -0.3873 -0.7695 -0.1926
  762MOL0     C  466   3.126  -0.566   7.237 -0.3521  0.1163 -0.7074
  762MOL0     C  467   3.128  -0.594   7.394  0.3011  0.2256  0.6453
  762MOL0     C  468   3.108  -0.748   7.419  0.2931  0.1375 -0.0212
  762MOL0     N  469   3.090  -0.786   7.560  0.4821 -0.1961 -0.2122
  762MOL0     C  470   3.195  -0.832   7.632  0.3570  0.6724  0.1983
  762MOL0     C  471   3.148  -0.854   7.761 -0.4845  0.3127  0.8174
  762MOL0     C  472   3.225  -0.892   7.879  0.8632 -0.4273  0.1486
  762MOL0     C  473   3.336  -0.795   7.902  0.5756 -0.5440 -0.1423
  762MOL0     C  474   3.382  -0.814   8.054  0.9912 -0.3350  0.5039
  762MOL0     C  475   3.510  -0.737   8.074 -0.2601  1.1932 -0.9315
  762MOL0     O  476   3.611  -0.809   8.015  0.1969 -0.3197 -0.8149
  762MOL0     C  477   3.734  -0.746   8.047 -0.4671  0.0438  0.4677
  762MOL0     C  478   3.768  -0.630   7.975  0.1079 -0.5323  0.3900
  762MOL0     C  479   3.885  -0.561   8.000 -0.4214  0.2577  0.4716
  762MOL0     C  480   3.961  -0.593   8.113 -0.6182  0.6952  0.3397
  762MOL0     C  481   4.083  -0.515   8.160  0.0639 -0.3140  0.2697
  762MOL0     O  482   4.122  -0.397   8.091  0.2622  0.3662  1.2397
  762MOL0     C  483   4.239  -0.342   8.146  0.7167  0.3728 -0.3673
  762MOL0     C  484   4.239  -0.244   8.244  0.2163  1.0094 -0.2381
  762MOL0     C  485   4.354  -0.185   8.295 -0.6264 -0.1613  0.0995
  762MOL0     C  486   4.482  -0.223   8.241  0.6718  0.5292  0.6500
  762MOL0     O  487   4.587  -0.163   8.297 -0.1196 -0.4099 -0.3434
  762MOL0     C  488   4.721  -0.200   8.245  0.7846  0.1155 -0.5017
  762MOL0     C  489   4.837  -0.111   8.297 -0.0626  0.9189  0.1357
  762MOL0     C  490   4.818   0.038   8.280  0.3670 -0.1840  0.0786
  762MOL0     C  491   4.743   0.094   8.411  1.4059  0.1313  0.4479
  762MOL0     C  492   4.784   0.234   8.466  1.1523  0.0045 -0.1974
  762MOL0     C  493   4.741   0.353   8.386  0.4025  0.5513 -0.1604
  762MOL0     C  494   4.758   0.481   8.473  0.4578 -0.6526 -0.1800
  762MOL0     C  495   4.787   0.600   8.379  0.3643  0.4111 -0.5364
  762MOL0    Cl  496   4.947   0.595   8.295 -0.1363  0.3071  0.3012
  762MOL0     C  497   4.483  -0.313   8.132 -0.1273  0.2381  0.8494
  762MOL0     C  498   4.362  -0.372   8.091  0.1710 -0.1061  0.9846
  762MOL0     O  499   4.147  -0.563   8.249  0.2891  0.7011 -1.1103
  762MOL0     C  500   3.937  -0.724   8.173  0.0872  0.1919 -0.0689
  762MOL0     C  501   3.815  -0.792   8.149 -0.3376  0.4398  0.2217
  762MOL0     N  502   3.016  -0.835   7.766 -0.9536  0.2747  0.5785
  762MOL0     N  503   2.983  -0.783   7.648 -0.1733 -0.2119  1.7359
  762MOL0     C  504   2.555   0.134   6.871 -0.4017  0.6070 -1.0843
  762MOL0     C  505   2.543   0.268   6.845 -0.1491 -0.7507 -0.7684
  762MOL0     C  506   2.676   0.689   6.737 -0.2754 -0.6741 -0.6817
  762MOL0     C  507   2.580   0.775   6.795 -1.4348 -0.8817  0.0647
  762MOL0     C  508   2.575   0.914   6.774  0.1312  0.5186  1.3673
  762MOL0     C  509   2.675   0.972   6.694 -0.5916  0.0290 -0.5830
  762MOL0     O  510   2.678   1.107   6.674  0.1755  0.3208  0.1901
  762MOL0     C  511   2.597   1.155   6.562 -0.5979  1.1423  0.5302
  762MOL0     C  512   2.683   1.232   6.463 -0.0985 -0.4951  0.1663
  762MOL0     C  513   2.731   1.372   6.507 -0.5897  0.3296 -0.0404
  762MOL0     C  514   2.859   1.418   6.436  0.0690  0.1206 -0.5007
  762MOL0     C  515   2.853   1.422   6.287 -0.2918 -0.3116  0.3792
  762MOL0     C  516   2.828   1.432   6.171 -0.6046 -0.1467 -0.3261
  762MOL0     C  517   2.774   0.892   6.631  0.7400  0.6198  0.5572
  762MOL0     C  518   2.781   0.752   6.659 -0.2891  0.0769 -0.3490
  762MOL0     H  519   2.709   0.419   7.099  0.0294 -0.7666  2.1222
  762MOL0     H  520   2.719   0.193   7.164  0.0258 -3.8297 -0.5182
  762MOL0     H  521   2.840   0.013   7.132  1.3240  1.1116 -1.4681
  762MOL0     H  522   2.865  -0.013   6.965  0.1314  1.9929 -0.0168
  762MOL0     H  523   2.777  -0.257   7.022  2.9006  1.4656 -2.8518
  762MOL0     H  524   2.761  -0.212   7.193 -1.3451 -1.1549 -1.3949
  762MOL0     H  525   3.004  -0.165   7.189 -2.2698  1.4468  0.9871
  762MOL0     H  526   3.006  -0.232   7.021 -2.0450  2.9452 -0.3969
  762MOL0     H  527   2.905  -0.398   7.250  0.7201  0.5754  0.4674
  762MOL0     H  528   2.933  -0.432   7.072  1.5539 -1.6450 -0.1276
  762MOL0     H  529   3.160  -0.361   7.277  0.4416 -1.9224  0.1346
  762MOL0     H  530   3.174  -0.389   7.110  0.0258  2.1283  0.9453
  762MOL0     H  531   3.225  -0.604   7.212 -0.6500 -1.7564  0.7226
  762MOL0     H  532   3.052  -0.627   7.184  0.1707 -1.8259  0.6642
  762MOL0     H  533   3.219  -0.551   7.439 -0.3690  1.8902  0.4526
  762MOL0     H  534   3.036  -0.548   7.431 -1.3208 -0.8250 -1.8124
  762MOL0     H  535   3.187  -0.810   7.377 -1.2071 -0.8265 -1.5791
  762MOL0     H  536   3.018  -0.770   7.361  1.6584  0.2168 -2.2981
  762MOL0     H  537   3.299  -0.839   7.600 -0.4056 -1.9814 -2.0925
  762MOL0     H  538   3.276  -0.987   7.866  2.1425  0.3772 -1.0412
  762MOL0     H  539   3.153  -0.900   7.961 -0.2114 -0.3659 -0.7633
  762MOL0     H  540   3.299  -0.695   7.876 -0.4019 -1.0184 -0.6536
  762MOL0     H  541   3.430  -0.810   7.847  2.9536  1.1002  3.1446
  762MOL0     H  542   3.305  -0.787   8.127 -0.4481  2.2026 -1.7657
  762MOL0     H  543   3.406  -0.919   8.071  0.3213 -0.5670  0.0571
  762MOL0     H  544   3.532  -0.737   8.181 -3.4866  0.3823 -0.1582
  762MOL0     H  545   3.511  -0.633   8.039  1.7538  1.6430  0.3179
  762MOL0     H  546   3.703  -0.600   7.894  1.3884 -0.8006 -0.7639
  762MOL0     H  547   3.911  -0.471   7.945 -0.5283 -1.3669 -2.4504
  762MOL0     H  548   4.140  -0.227   8.286  0.6443  1.5772  0.5726
  762MOL0     H  549   4.350  -0.115   8.378 -3.5135  0.6592 -0.6280
  762MOL0     H  550   4.711  -0.199   8.136 -3.0067  1.6181 -0.3128
  762MOL0     H  551   4.744  -0.305   8.264  0.2500 -0.1848 -1.4485
  762MOL0     H  552   4.922  -0.147   8.238 -0.9216 -0.5374 -0.2588
  762MOL0     H  553   4.857  -0.136   8.402 -2.5795  0.1542  0.5018
  762MOL0     H  554   4.764   0.065   8.188 -2.8101  0.0057  1.8239
  762MOL0     H  555   4.917   0.083   8.281  0.7189 -0.9559  1.2599
  762MOL0     H  556   4.637   0.084   8.386  1.1672  0.7957  1.1544
  762MOL0     H  557   4.764   0.028   8.495 -0.7534 -0.0162  0.9313
  762MOL0     H  558   4.891   0.236   8.485  0.9183  0.6678  1.2071
  762MOL0     H  559   4.740   0.241   8.566  2.3053 -0.1260  0.3313
  762MOL0     H  560   4.635   0.348   8.360  0.3957  2.4794 -0.6587
  762MOL0     H  561   4.803   0.340   8.297 -1.1892 -6.6379 -0.8702
  762MOL0     H  562   4.675   0.491   8.544  1.7283  3.4230  1.0019
  762MOL0     H  563   4.852   0.476   8.529  1.4559  1.7260 -1.4785
  762MOL0     H  564   4.777   0.690   8.440 -0.4085 -0.2665  0.3685
  762MOL0     H  565   4.703   0.599   8.309  2.2772  1.3425 -2.9827
  762MOL0     H  566   4.576  -0.332   8.078 -2.4126 -2.6710 -2.5171
  762MOL0     H  567   4.360  -0.433   8.002  0.5458  0.4842  0.5640
  762MOL0     H  568   4.005  -0.763   8.249 -1.8950 -0.8590  1.2377
  762MOL0     H  569   3.794  -0.885   8.201  1.0697  0.0183  0.0742
  762MOL0     H  570   2.491   0.069   6.813 -1.7958 -1.4614  2.4282
  762MOL0     H  571   2.493   0.295   6.753 -1.6252 -0.2949  0.1350
  762MOL0     H  572   2.534   0.739   6.886  1.3953 -2.3240  1.0682
  762MOL0     H  573   2.501   0.965   6.835 -0.7336  0.7384  0.1646
  762MOL0     H  574   2.514   1.212   6.603 -0.3427  2.0127 -0.1490
  762MOL0     H  575   2.542   1.072   6.517  0.8971  1.0985 -1.3533
  762MOL0     H  576   2.764   1.175   6.417 -0.5501 -0.5105 -0.6136
  762MOL0     H  577   2.615   1.249   6.380  1.2980  1.5816 -0.6446
  762MOL0     H  578   2.740   1.375   6.616  0.6730 -1.0128 -0.0856
  762MOL0     H  579   2.641   1.431   6.488 -0.3840  0.5212 -0.4213
  762MOL0     H  580   2.867   1.523   6.467 -0.2957  0.4868 -1.6118
  762MOL0     H  581   2.950   1.358   6.450  0.9603  1.1192 -1.8423
  762MOL0     H  582   2.780   1.444   6.076 -0.6242  3.0558 -0.0024
  762MOL0     H  583   2.857   0.935   6.576 -0.4361  0.5267 -1.3871
  762MOL0     H  584   2.851   0.684   6.612 -0.0157  1.8638 -2.7035
  763MOL0     O  585   0.625   6.554   0.115  0.0700  0.3357  0.0510
  763MOL0     C  586   0.522   6.549   0.053 -0.1868  0.0127  0.4070
  763MOL0     O  587   0.407   6.638   0.071  0.1190  0.8021 -0.4435
  763MOL0     C  588   0.416   6.737   0.160  0.0988 -0.4015  0.2815
  763MOL0     C  589   0.512   6.837   0.149 -0.3842 -0.3913  0.8126
  763MOL0     C  590   0.526   6.935   0.250  1.2701  0.8950 -0.5487
  763MOL0     C  591   0.436   6.940   0.356 -0.3675 -0.7173 -0.2770
  763MOL0     O  592   0.432   7.038   0.447  0.8842 -0.2808 -0.3986
  763MOL0     C  593   0.449   6.987   0.580  0.1066 -0.3344 -0.4928
  763MOL0     C  594   0.432   7.093   0.694 -0.3308  0.7785 -0.8478
  763MOL0     C  595   0.468   7.053   0.841 -0.1708 -0.1351  1.3302
  763MOL0     C  596   0.618   7.030   0.851 -0.4985  0.4024  0.2949
  763MOL0     C  597   0.662   7.048   0.996 -1.3349 -0.1778 -0.6282
  763MOL0     C  598   0.795   6.993   1.042  0.0491  0.7938  0.2685
  763MOL0     C  599   0.860   7.064   1.152 -0.2433  0.6159 -0.5395
  763MOL0     C  600   0.777   7.065   1.282  0.5986  0.4002  0.5318
  763MOL0     N  601   0.721   6.935   1.341  0.7272 -0.7089  0.2329
  763MOL0     C  602   0.794   6.819   1.364  0.2047 -0.4207  0.8359
  763MOL0     C  603   0.705   6.717   1.401  0.3595  0.0782  1.2840
  763MOL0     C  604   0.701   6.568   1.445  0.1384 -0.1383 -1.0827
  763MOL0     C  605   0.785   6.538   1.568 -0.1260 -0.1661  0.1645
  763MOL0     C  606   0.719   6.439   1.661 -0.3151 -0.6244  0.7629
  763MOL0     C  607   0.734   6.285   1.621  0.6706 -0.1159  0.5121
  763MOL0     O  608   0.780   6.272   1.486 -0.1014 -0.2177 -0.2222
  763MOL0     C  609   0.691   6.229   1.390  0.7979  0.3058  0.8878
  763MOL0     C  610   0.553   6.260   1.394  0.3266 -0.4181  0.2173
  763MOL0     C  611   0.469   6.193   1.307 -0.0736  0.2812  0.4527
  763MOL0     C  612   0.520   6.115   1.192  0.6551 -0.0146  0.0616
  763MOL0     C  613   0.435   6.086   1.078 -0.1848  0.0221 -0.2313
  763MOL0     O  614   0.310   6.154   1.068 -0.4748  0.5979  0.3096
  763MOL0     C  615   0.239   6.111   0.963 -1.4535 -0.7692  0.6143
  763MOL0     C  616   0.276   6.164   0.832  0.3740 -0.1947  0.4744
  763MOL0     C  617   0.211   6.136   0.714 -0.2548  0.1338  0.0186
  763MOL0     C  618   0.098   6.049   0.728 -0.3810  0.3028 -0.7198
  763MOL0     O  619   0.028   6.021   0.617 -0.1423 -0.0868 -0.2576
  763MOL0     C  620  -0.111   5.983   0.637 -0.4181  0.3548  0.6544
  763MOL0     C  621  -0.172   6.045   0.515 -0.5728 -0.5332  0.1540
  763MOL0     C  622  -0.112   5.978   0.398  0.0134 -0.0487  0.6491
  763MOL0     C  623  -0.187   6.008   0.260  0.6230 -0.2198 -0.2839
  763MOL0     C  624  -0.200   5.882   0.177 -0.0924  0.0040 -1.2583
  763MOL0     C  625  -0.060   5.823   0.136  0.8414 -0.4449 -0.2718
  763MOL0     C  626  -0.062   5.754  -0.004 -1.4993  0.5936 -0.7068
  763MOL0     C  627   0.031   5.630  -0.017  0.5330  0.3719 -0.1593
  763MOL0    Cl  628  -0.022   5.516  -0.152 -0.0647  0.5300 -0.2581
  763MOL0     C  629   0.070   5.995   0.858  0.5158  0.3215 -0.1176
  763MOL0     C  630   0.132   6.034   0.979  0.2115 -0.5366 -0.1628
  763MOL0     O  631   0.479   6.004   1.004 -0.2112  0.2804  0.4471
  763MOL0     C  632   0.656   6.115   1.180  0.2566  0.0644 -0.2658
  763MOL0     C  633   0.742   6.153   1.286  0.2517  0.5157  0.0077
  763MOL0     N  634   0.580   6.784   1.408 -0.1671 -0.3546  0.5621
  763MOL0     N  635   0.598   6.913   1.379  1.1077 -0.0014  0.2249
  763MOL0     C  636   0.328   6.847   0.349 -0.0811 -0.1163  0.2246
  763MOL0     C  637   0.328   6.742   0.262 -0.2238 -0.0626  0.3570
  763MOL0     C  638   0.512   6.438  -0.046 -1.3274 -0.2122  0.2169
  763MOL0     C  639   0.628   6.366  -0.093  0.3539 -0.5388  0.4174
  763MOL0     C  640   0.607   6.264  -0.189  0.6376 -0.2158  0.5716
  763MOL0     C  641   0.480   6.222  -0.230  0.9547 -0.8206  0.4431
  763MOL0     O  642   0.456   6.127  -0.327 -0.0738 -0.5925 -0.2057
  763MOL0     C  643   0.563   6.068  -0.398  0.4629 -0.2982 -1.3368
  763MOL0     C  644   0.512   6.031  -0.528  0.1120  0.0938  0.6865
  763MOL0     C  645   0.614   5.950  -0.612 -0.1896  0.0782 -0.2013
  763MOL0     C  646   0.536   5.899  -0.730 -0.1313  0.1794  0.0395
  763MOL0     C  647   0.550   5.988  -0.853 -0.5569  0.1922 -1.1245
  763MOL0     C  648   0.563   6.064  -0.947  0.1398  0.2339 -0.4805
  763MOL0     C  649   0.380   6.296  -0.183  0.0028  0.5312  0.8377
  763MOL0     C  650   0.388   6.394  -0.081  0.4767  0.4863 -0.6484
  763MOL0     H  651   0.581   6.837   0.066 -1.0779 -0.4957  0.2329
  763MOL0     H  652   0.601   7.013   0.242  1.7710  0.7671  2.1070
  763MOL0     H  653   0.542   6.937   0.607 -0.7793 -0.4770  2.7093
  763MOL0     H  654   0.387   6.899   0.601 -1.8200  1.0395 -0.1643
  763MOL0     H  655   0.325   7.118   0.697  0.4151  4.9449  3.0920
  763MOL0     H  656   0.485   7.187   0.675  0.8692 -0.0868 -1.9795
  763MOL0     H  657   0.414   6.964   0.874  1.3833 -1.5473  0.2593
  763MOL0     H  658   0.439   7.131   0.912 -2.0594  0.8243 -0.4019
  763MOL0     H  659   0.652   6.932   0.816  1.8340 -0.5693  4.5671
  763MOL0     H  660   0.669   7.111   0.798  0.8661 -0.7901 -0.2621
  763MOL0     H  661   0.596   7.009   1.074 -1.2794  0.5210 -0.2318
  763MOL0     H  662   0.675   7.155   1.012 -1.7240 -0.1465 -0.5120
  763MOL0     H  663   0.877   6.994   0.970 -0.2763 -1.7651 -0.2463
  763MOL0     H  664   0.786   6.892   1.082  4.6720 -0.8277 -2.0062
  763MOL0     H  665   0.960   7.022   1.164 -0.5867  0.3614  2.0443
  763MOL0     H  666   0.861   7.168   1.119 -1.5036  0.4384 -1.2125
  763MOL0     H  667   0.696   7.138   1.275 -0.6157 -0.8565  0.9012
  763MOL0     H  668   0.841   7.103   1.362  1.2466  1.8848 -0.6459
  763MOL0     H  669   0.901   6.805   1.354  0.1221 -1.5042  1.3961
  763MOL0     H  670   0.734   6.509   1.358 -0.0006 -0.2476 -1.0611
  763MOL0     H  671   0.600   6.533   1.467  0.3590 -0.1206 -0.0092
  763MOL0     H  672   0.810   6.628   1.625 -2.0596 -0.8385  2.2220
  763MOL0     H  673   0.879   6.511   1.520  1.0593  1.1082  1.6557
  763MOL0     H  674   0.774   6.442   1.755  1.0072 -1.5540  0.0425
  763MOL0     H  675   0.612   6.459   1.674 -1.0058 -0.4241 -3.6125
  763MOL0     H  676   0.638   6.233   1.630  0.4857 -0.4825 -2.5639
  763MOL0     H  677   0.812   6.235   1.679  1.0174  0.7192  0.7834
  763MOL0     H  678   0.497   6.318   1.466 -0.8564 -2.8865  1.4096
  763MOL0     H  679   0.364   6.220   1.321 -0.0761  0.2604  0.4746
  763MOL0     H  680   0.357   6.235   0.817  0.6457  0.2774  3.4749
  763MOL0     H  681   0.246   6.167   0.616  3.6522 -3.9740 -0.2056
  763MOL0     H  682  -0.156   6.029   0.725  1.2624  1.8855  0.7564
  763MOL0     H  683  -0.114   5.875   0.655  1.3500  0.0641 -0.5513
  763MOL0     H  684  -0.147   6.151   0.515 -0.6834 -0.5059  0.6279
  763MOL0     H  685  -0.280   6.032   0.507 -0.6486  0.2133 -0.1149
  763MOL0     H  686  -0.119   5.873   0.427  0.2455 -0.3431 -0.3384
  763MOL0     H  687  -0.007   6.002   0.381  0.1237 -1.0090 -0.0631
  763MOL0     H  688  -0.286   6.050   0.277  1.3040  0.5530  2.1689
  763MOL0     H  689  -0.135   6.081   0.197 -0.5641  1.1181  0.2356
  763MOL0     H  690  -0.268   5.894   0.092 -0.0930  0.1771 -1.2322
  763MOL0     H  691  -0.250   5.808   0.240  3.0697 -2.6946 -1.6051
  763MOL0     H  692  -0.031   5.751   0.212 -2.7023  0.2294  1.9592
  763MOL0     H  693   0.020   5.898   0.146  2.1279 -1.8440  0.2867
  763MOL0     H  694  -0.160   5.723  -0.039 -2.0022 -0.0815  1.2155
  763MOL0     H  695  -0.032   5.823  -0.084  0.9207 -0.0045 -0.4187
  763MOL0     H  696   0.015   5.577   0.077 -1.4562 -0.7981 -1.1050
  763MOL0     H  697   0.130   5.677  -0.023 -0.4253  2.8661  1.8976
  763MOL0     H  698  -0.014   5.929   0.876 -0.4356  1.4254 -0.4039
  763MOL0     H  699   0.099   6.018   1.081 -1.5712  0.0242 -0.6226
  763MOL0     H  700   0.692   6.055   1.097 -1.5946  0.3748 -1.3483
  763MOL0     H  701   0.845   6.119   1.290  0.2474  0.5475  0.3965
  763MOL0     H  702   0.251   6.871   0.422  0.1724  0.0110  0.4524
  763MOL0     H  703   0.235   6.686   0.255  0.2408 -0.9259  0.8453
  763MOL0     H  704   0.732   6.389  -0.072 -0.0485  2.6424 -0.5591
  763MOL0     H  705   0.695   6.213  -0.225  0.4507  1.1048 -1.9764
  763MOL0     H  706   0.586   5.988  -0.327  1.9653  1.2872  0.0306
  763MOL0     H  707   0.661   6.111  -0.418  1.9450 -2.1464  1.2492
  763MOL0     H  708   0.409   5.995  -0.532 -0.1827  0.9979 -0.1609
  763MOL0     H  709   0.520   6.126  -0.582  0.9240 -0.7513 -0.7487
  763MOL0     H  710   0.647   5.862  -0.556 -1.3354 -0.2687 -0.0392
  763MOL0     H  711   0.705   6.010  -0.613  2.4623 -3.6168  0.5613
  763MOL0     H  712   0.579   5.811  -0.779 -1.7628 -0.3770 -0.4262
  763MOL0     H  713   0.430   5.895  -0.706 -0.1286  0.9292  0.2085
  763MOL0     H  714   0.580   6.142  -1.019 -1.5471  2.5370  1.4764
  763MOL0     H  715   0.282   6.262  -0.216  0.6424  0.0756 -0.7208
  763MOL0     H  716   0.299   6.443  -0.044 -1.1916 -0.6695 -2.8735
  764MOL0     O  717   1.633   9.537   1.045 -0.4905  0.6678 -0.1053
  764MOL0     C  718   1.695   9.581   1.147  0.3298 -0.4349  0.2131
  764MOL0     O  719   1.793   9.665   1.147  0.1697 -0.3810  0.3268
  764MOL0     C  720   1.865   9.674   1.029 -0.3808 -0.1642 -0.9541
  764MOL0     C  721   1.976   9.595   0.992 -0.1229 -0.1293  0.6043
  764MOL0     C  722   2.027   9.595   0.868  0.5076 -0.3389  0.3613
  764MOL0     C  723   1.967   9.681   0.764 -1.0804  1.8301  0.2275
  764MOL0     O  724   2.028   9.686   0.642 -0.2701 -0.1491  0.4880
  764MOL0     C  725   1.966   9.727   0.519  0.1418 -0.0553  0.4515
  764MOL0     C  726   2.068   9.740   0.402 -0.7147 -0.4759  0.0112
  764MOL0     C  727   2.035   9.682   0.259 -0.1693  1.0329  1.0003
  764MOL0     C  728   1.906   9.732   0.194  0.5203  0.7108  0.0731
  764MOL0     C  729   1.922   9.883   0.158 -0.7080 -0.3654  0.1069
  764MOL0     C  730   1.788   9.944   0.118 -0.1376  0.0899  0.7489
  764MOL0     C  731   1.804  10.101   0.129  0.0921  0.3964 -0.1254
  764MOL0     C  732   1.684  10.170   0.063  0.0952  0.5876 -0.6599
  764MOL0     N  733   1.737  10.305   0.047  0.4231  0.2120 -0.6866
  764MOL0     C  734   1.744  10.396   0.146 -1.3261 -0.2374 -0.7473
  764MOL0     C  735   1.746  10.522   0.084  0.0431 -0.5661 -0.9029
  764MOL0     C  736   1.779  10.650   0.153  0.4150 -0.7391 -0.7531
  764MOL0     C  737   1.918  10.659   0.214  0.3281  0.1745  0.1365
  764MOL0     C  738   2.019  10.646   0.096  0.2535 -0.7392 -0.3103
  764MOL0     C  739   2.085  10.510   0.100  0.2058  0.4227  0.7351
  764MOL0     O  740   2.183  10.500  -0.006 -0.6622 -0.2063  0.4217
  764MOL0     C  741   2.201  10.372  -0.044 -0.0085 -0.8102  0.0225
  764MOL0     C  742   2.329  10.320  -0.022  0.5170 -0.5120 -0.6649
  764MOL0     C  743   2.350  10.188  -0.047  1.1085  0.3706  1.5000
  764MOL0     C  744   2.245  10.105  -0.112 -0.3285 -0.8528  0.7523
  764MOL0     C  745   2.261   9.958  -0.152  0.0077  0.7746 -0.1954
  764MOL0     O  746   2.182   9.891  -0.248 -0.4269 -0.4851  0.1172
  764MOL0     C  747   2.175   9.754  -0.253  0.5566 -0.3731  0.2631
  764MOL0     C  748   2.276   9.663  -0.248  0.3737  0.6060 -0.4033
  764MOL0     C  749   2.259   9.523  -0.276 -0.1910 -1.2984  1.0380
  764MOL0     C  750   2.135   9.478  -0.314  0.4443  1.6827 -0.7684
  764MOL0     O  751   2.099   9.343  -0.333  0.0596 -1.0231  0.4826
  764MOL0     C  752   2.198   9.246  -0.303  0.1777  0.3354 -0.0489
  764MOL0     C  753   2.125   9.145  -0.210  0.4067 -0.5374 -0.4493
  764MOL0     C  754   2.203   9.024  -0.167 -0.3699  0.2932 -0.0623
  764MOL0     C  755   2.106   8.918  -0.105 -0.3850  0.1190 -1.1315
  764MOL0     C  756   2.168   8.865   0.029 -0.8553  0.3717 -0.4185
  764MOL0     C  757   2.195   8.976   0.131  0.4298 -0.6816  1.1850
  764MOL0     C  758   2.188   8.932   0.280  0.4223  0.2193  0.7788
  764MOL0     C  759   2.279   8.824   0.327 -0.6646 -0.5698 -0.6894
  764MOL0    Cl  760   2.453   8.873   0.334 -0.0031  0.1952  0.6276
  764MOL0     C  761   2.026   9.574  -0.315  0.9963 -0.7111 -0.4124
  764MOL0     C  762   2.052   9.713  -0.296  0.3242  0.0974  0.8968
  764MOL0     O  763   2.330   9.895  -0.071  0.9219 -0.3110  0.7505
  764MOL0     C  764   2.119  10.164  -0.127 -0.0650 -0.3126  0.4919
  764MOL0     C  765   2.094  10.299  -0.091 -0.1187  0.4803  0.2676
  764MOL0     N  766   1.740  10.511  -0.056  0.5113  0.8465  0.1980
  764MOL0     N  767   1.743  10.378  -0.072 -0.2760  0.6594 -0.0640
  764MOL0     C  768   1.861   9.763   0.803 -0.7297 -0.4716 -0.1003
  764MOL0     C  769   1.803   9.762   0.930 -0.1072  0.6863 -0.8276
  764MOL0     C  770   1.629   9.558   1.283 -0.8949 -0.5285  1.0018
  764MOL0     C  771   1.680   9.611   1.398 -0.3552 -0.0480 -1.0599
  764MOL0     C  772   1.620   9.598   1.523  0.2331  0.0905 -0.5816
  764MOL0     C  773   1.498   9.519   1.529 -0.4966 -0.0016 -0.3378
  764MOL0     O  774   1.432   9.525   1.653 -0.4380  0.6002 -0.3174
  764MOL0     C  775   1.310   9.454   1.680  0.1478 -0.0377 -0.2165
  764MOL0     C  776   1.182   9.538   1.668 -1.4221 -0.1457  0.2560
  764MOL0     C  777   1.072   9.458   1.722  0.2646  0.5076 -0.2589
  764MOL0     C  778   1.034   9.352   1.624 -0.8377 -0.1187  0.1168
  764MOL0     C  779   0.899   9.304   1.658  0.5240  0.2307  0.9401
  764MOL0     C  780   0.795   9.256   1.693  0.1170 -0.1822 -0.4280
  764MOL0     C  781   1.448   9.458   1.413  0.1704 -0.1229 -0.2653
  764MOL0     C  782   1.505   9.481   1.287 -0.6277 -0.8499 -1.5240
  764MOL0     H  783   2.026   9.529   1.063 -2.5332  0.2404  2.8142
  764MOL0     H  784   2.113   9.543   0.827  0.8898  0.8747 -0.4336
  764MOL0     H  785   1.913   9.822   0.527  1.8239  0.9853 -0.0598
  764MOL0     H  786   1.903   9.644   0.485 -1.4520 -0.0511  3.1549
  764MOL0     H  787   2.151   9.686   0.448 -1.1179 -0.4314  0.8120
  764MOL0     H  788   2.102   9.844   0.404 -1.1995 -0.3105  0.0026
  764MOL0     H  789   2.024   9.575   0.279 -3.9506  1.4141  1.6634
  764MOL0     H  790   2.112   9.696   0.182  0.6822  0.2926  1.6867
  764MOL0     H  791   1.886   9.683   0.098 -1.3172  0.5061  0.5327
  764MOL0     H  792   1.817   9.725   0.257  1.0922  1.4399  0.9974
  764MOL0     H  793   1.992   9.891   0.074 -1.6555  1.5715 -0.5640
  764MOL0     H  794   1.968   9.940   0.240  1.1012 -0.8247 -0.5374
  764MOL0     H  795   1.707   9.918   0.187 -0.6299  0.1737  0.2187
  764MOL0     H  796   1.753   9.919   0.017  0.9041 -0.3624  0.4936
  764MOL0     H  797   1.801  10.130   0.234  1.6794  0.2871 -0.0317
  764MOL0     H  798   1.899  10.132   0.085  0.0065 -2.2477 -2.4835
  764MOL0     H  799   1.598  10.175   0.131  1.8958  1.2483  1.7184
  764MOL0     H  800   1.663  10.139  -0.040  1.6488  0.9382 -1.1085
  764MOL0     H  801   1.759  10.377   0.252 -0.4056  0.8035 -0.6769
  764MOL0     H  802   1.711  10.643   0.239  2.0447 -1.0351  0.5679
  764MOL0     H  803   1.755  10.736   0.090  0.1511  1.0549  1.6142
  764MOL0     H  804   1.930  10.587   0.296 -0.4418  0.5591  0.6014
  764MOL0     H  805   1.942  10.755   0.261 -1.0322 -0.0091  1.3036
  764MOL0     H  806   1.966  10.652   0.001 -3.3291 -3.0569  1.2862
  764MOL0     H  807   2.085  10.732   0.108  1.2566 -1.4548 -0.5929
  764MOL0     H  808   2.009  10.433   0.106  1.0694 -0.4383  0.8929
  764MOL0     H  809   2.144  10.486   0.189  1.1360 -3.5564 -0.7715
  764MOL0     H  810   2.413  10.374   0.019 -1.1849  0.4428  1.8234
  764MOL0     H  811   2.434  10.132  -0.006  0.7249 -2.6540 -1.3328
  764MOL0     H  812   2.377   9.697  -0.227  1.3711 -2.9956  1.5267
  764MOL0     H  813   2.349   9.463  -0.274  1.3224  0.7411 -0.7982
  764MOL0     H  814   2.291   9.283  -0.259 -0.1962 -0.3940  1.4159
  764MOL0     H  815   2.225   9.189  -0.393  1.1226  0.5056  0.1170
  764MOL0     H  816   2.040   9.107  -0.266  1.6097 -1.4174 -1.7368
  764MOL0     H  817   2.077   9.203  -0.130  3.2388  1.3981 -0.0150
  764MOL0     H  818   2.287   9.049  -0.102  1.3691  0.9411 -2.4195
  764MOL0     H  819   2.260   8.987  -0.253 -0.1562 -2.9697  1.3755
  764MOL0     H  820   2.009   8.960  -0.077 -0.6217 -1.9469  1.5460
  764MOL0     H  821   2.082   8.846  -0.184  2.2050 -0.7055 -1.2516
  764MOL0     H  822   2.260   8.814   0.001  0.7571  2.6951  0.3489
  764MOL0     H  823   2.095   8.793   0.069  0.2327  0.2060  1.3597
  764MOL0     H  824   2.122   9.056   0.114  2.7909  0.9744 -2.3449
  764MOL0     H  825   2.293   9.022   0.114 -0.0478  0.2753  0.9453
  764MOL0     H  826   2.194   9.022   0.341 -1.9835  0.5269  0.6733
  764MOL0     H  827   2.084   8.904   0.298  1.5515 -5.3646  0.3704
  764MOL0     H  828   2.271   8.741   0.256 -0.4780  0.7290 -2.2897
  764MOL0     H  829   2.249   8.786   0.426 -0.5380 -2.6678 -1.4114
  764MOL0     H  830   1.927   9.536  -0.336  1.5137 -2.2643 -0.1660
  764MOL0     H  831   1.981   9.792  -0.320 -0.6282 -1.2240 -0.7846
  764MOL0     H  832   2.039  10.096  -0.154 -3.7442  3.0145  2.0590
  764MOL0     H  833   1.997  10.345  -0.102 -0.1247 -0.1120 -3.8544
  764MOL0     H  834   1.815   9.819   0.722  0.0246 -0.7508 -0.7374
  764MOL0     H  835   1.707   9.802   0.960 -0.8950 -0.7582 -1.3184
  764MOL0     H  836   1.773   9.667   1.404 -0.1663 -0.4029 -0.6438
  764MOL0     H  837   1.667   9.648   1.607  0.1040 -1.9288  0.7557
  764MOL0     H  838   1.327   9.424   1.784 -3.2283  3.3570  1.5574
  764MOL0     H  839   1.309   9.371   1.610 -1.0854 -0.0728 -0.1721
  764MOL0     H  840   1.193   9.634   1.718  1.2268  0.0543 -0.5499
  764MOL0     H  841   1.148   9.560   1.566  1.9157  1.7071 -0.5880
  764MOL0     H  842   0.979   9.517   1.725 -2.2368 -3.0822 -0.1043
  764MOL0     H  843   1.103   9.421   1.820  5.1642 -0.0176 -1.7736
  764MOL0     H  844   1.040   9.376   1.518 -0.5863  0.1944  0.2012
  764MOL0     H  845   1.103   9.270   1.645  0.3783  0.6852 -0.6346
  764MOL0     H  846   0.717   9.197   1.737  1.7365 -2.2545 -0.1954
  764MOL0     H  847   1.370   9.383   1.417  0.5153 -0.4753  4.1199
  764MOL0     H  848   1.447   9.443   1.204 -2.5899 -3.9743  1.0237
  765MOL0     O  849   6.335   9.301   7.796 -0.1329  0.8690  0.1440
  765MOL0     C  850   6.271   9.276   7.898 -0.1607  0.3806  0.7734
  765MOL0     O  851   6.217   9.155   7.943 -0.1211 -0.5222 -0.2958
  765MOL0     C  852   6.258   9.041   7.880 -0.5493 -0.2798  0.2699
  765MOL0     C  853   6.174   8.935   7.868  0.6915  0.0564  0.3006
  765MOL0     C  854   6.227   8.815   7.808 -0.5813 -0.2265  0.7907
  765MOL0     C  855   6.355   8.803   7.741 -0.4346  1.1679  0.6939
  765MOL0     O  856   6.390   8.694   7.660  0.0999 -0.2688  0.2185
  765MOL0     C  857   6.307   8.577   7.674  0.4579 -0.0632  1.1985
  765MOL0     C  858   6.363   8.470   7.576  0.1667  1.1206  0.2021
  765MOL0     C  859   6.515   8.442   7.604 -0.5647 -0.0780 -0.8476
  765MOL0     C  860   6.577   8.364   7.481  0.7614  0.8382  0.2249
  765MOL0     C  861   6.515   8.235   7.446  0.3453 -0.4032 -0.7173
  765MOL0     C  862   6.513   8.118   7.542  0.5737  0.5020  0.6763
  765MOL0     C  863   6.654   8.067   7.569 -0.8157 -0.6100 -0.0181
  765MOL0     C  864   6.644   7.924   7.615  0.2041  0.2983  0.3694
  765MOL0     N  865   6.778   7.873   7.645 -1.1433 -0.1999 -0.3255
  765MOL0     C  866   6.859   7.902   7.751  0.1323  0.5566  0.3628
  765MOL0     C  867   6.980   7.853   7.708 -0.6471  1.0796 -0.0362
  765MOL0     C  868   7.106   7.843   7.795  0.0946 -0.5884  0.2155
  765MOL0     C  869   7.110   7.738   7.904 -0.1797 -0.2987 -0.2289
  765MOL0     C  870   7.219   7.764   8.018  0.7376  0.0869 -0.6214
  765MOL0     C  871   7.254   7.648   8.098  0.1446 -0.6169 -0.3866
  765MOL0     O  872   7.298   7.690   8.231 -0.2160 -0.0274  0.2717
  765MOL0     C  873   7.314   7.598   8.335  0.6286 -0.4510  0.3301
  765MOL0     C  874   7.318   7.461   8.303  0.2467  0.4939 -0.3034
  765MOL0     C  875   7.348   7.370   8.402 -0.2110 -1.1327  0.4731
  765MOL0     C  876   7.369   7.410   8.536  0.6465 -0.0843  0.2852
  765MOL0     C  877   7.391   7.309   8.643 -0.3557 -0.0187  0.1422
  765MOL0     O  878   7.336   7.193   8.612  0.0670  0.0136  0.2189
  765MOL0     C  879   7.397   7.081   8.665 -0.3180  0.2044 -0.3954
  765MOL0     C  880   7.411   7.053   8.811  0.1280  0.4081 -0.4078
  765MOL0     C  881   7.473   6.935   8.853  0.1254  0.0710 -0.2276
  765MOL0     C  882   7.521   6.840   8.760 -0.7128 -0.5428 -0.1298
  765MOL0     O  883   7.562   6.720   8.803 -0.5210 -0.0559  0.4239
  765MOL0     C  884   7.628   6.624   8.711 -0.1869  0.0161  0.0569
  765MOL0     C  885   7.637   6.481   8.771  0.3149  0.0369  0.3694
  765MOL0     C  886   7.698   6.406   8.640 -0.3377 -0.2751  0.1065
  765MOL0     C  887   7.735   6.258   8.672 -0.2604  0.2410 -0.0791
  765MOL0     C  888   7.850   6.253   8.774 -0.1055  0.3867 -0.4154
  765MOL0     C  889   7.983   6.322   8.720  0.2330  0.4357  0.9281
  765MOL0     C  890   8.108   6.315   8.810  0.0560 -0.7106  0.6055
  765MOL0     C  891   8.190   6.185   8.810  0.3221  0.2860 -1.0221
  765MOL0    Cl  892   8.278   6.183   8.661 -0.0343  0.4764 -0.1528
  765MOL0     C  893   7.517   6.870   8.623  0.0117  0.2213  0.5695
  765MOL0     C  894   7.446   6.982   8.575  0.4824 -0.1451 -0.6108
  765MOL0     O  895   7.461   7.333   8.740 -0.2518 -0.1965  0.0147
  765MOL0     C  896   7.378   7.549   8.557 -1.2958 -1.0608 -0.3060
  765MOL0     C  897   7.353   7.640   8.454  0.4649 -0.0080 -0.1548
  765MOL0     N  898   6.978   7.810   7.574  0.1750 -0.6317 -0.7119
  765MOL0     N  899   6.853   7.830   7.536  0.3267 -0.0280 -0.4974
  765MOL0     C  900   6.439   8.910   7.752  0.5242 -0.4358  0.0753
  765MOL0     C  901   6.394   9.027   7.822  0.8841 -0.4376  0.7622
  765MOL0     C  902   6.257   9.387   7.997  0.0328 -0.2276  0.5956
  765MOL0     C  903   6.335   9.503   7.980  0.6442 -0.1563 -1.0333
  765MOL0     C  904   6.327   9.609   8.078 -0.5809 -0.9910 -0.8752
  765MOL0     C  905   6.236   9.598   8.180  0.8987  0.1879 -0.2232
  765MOL0     O  906   6.189   9.697   8.263  0.0747  0.2823 -0.3103
  765MOL0     C  907   6.262   9.823   8.257  0.8026  0.2426 -0.6002
  765MOL0     C  908   6.387   9.801   8.343 -0.6252  0.9953  0.0925
  765MOL0     C  909   6.429   9.934   8.411 -1.2582 -0.6446 -0.4593
  765MOL0     C  910   6.576   9.974   8.377  0.4798  1.3659  0.4636
  765MOL0     C  911   6.592  10.018   8.241  1.3765  0.7216 -0.0053
  765MOL0     C  912   6.595  10.089   8.140 -0.9812 -0.2787  0.1923
  765MOL0     C  913   6.157   9.487   8.194  0.2731 -0.9283  0.8056
  765MOL0     C  914   6.169   9.378   8.099 -0.3676 -0.3909  0.5685
  765MOL0     H  915   6.074   8.939   7.909  1.7612 -0.0560  3.1826
  765MOL0     H  916   6.150   8.739   7.796 -0.3432 -0.1507 -1.9948
  765MOL0     H  917   6.202   8.594   7.649 -0.2735 -1.8653  2.8005
  765MOL0     H  918   6.309   8.540   7.777  2.2242 -1.8191  0.6042
  765MOL0     H  919   6.362   8.504   7.472 -0.2448  1.2467  0.2479
  765MOL0     H  920   6.305   8.381   7.599  2.6934 -0.2683  1.7037
  765MOL0     H  921   6.521   8.382   7.695 -0.5669 -1.5607 -1.7932
  765MOL0     H  922   6.564   8.539   7.620 -0.6220 -0.1562 -0.1905
  765MOL0     H  923   6.570   8.425   7.391 -2.4179 -0.0188 -0.2162
  765MOL0     H  924   6.682   8.342   7.504  0.9320 -2.3625 -2.7443
  765MOL0     H  925   6.563   8.192   7.357 -1.0135 -1.8343 -0.8266
  765MOL0     H  926   6.409   8.253   7.426 -0.1788 -1.1302  1.1800
  765MOL0     H  927   6.457   8.038   7.493  1.6530  1.2369 -1.8958
  765MOL0     H  928   6.472   8.147   7.640  1.0763 -3.5265  2.2642
  765MOL0     H  929   6.728   8.068   7.488  1.0762  1.4288  1.5893
  765MOL0     H  930   6.699   8.130   7.646  0.2054 -1.0992 -0.1857
  765MOL0     H  931   6.599   7.863   7.536  0.1312 -1.1749  1.4961
  765MOL0     H  932   6.573   7.917   7.699 -1.5043  4.0909 -0.5559
  765MOL0     H  933   6.812   7.950   7.836 -0.3528 -0.4521  0.6761
  765MOL0     H  934   7.126   7.940   7.843  0.9658  1.1399 -3.2857
  765MOL0     H  935   7.194   7.833   7.731  0.9143  1.4949  0.9306
  765MOL0     H  936   7.127   7.636   7.871  0.9403  0.1592 -1.1583
  765MOL0     H  937   7.006   7.745   7.939 -1.1080  5.5892 -2.9671
  765MOL0     H  938   7.309   7.795   7.964 -0.4981 -0.0047 -2.8339
  765MOL0     H  939   7.178   7.839   8.086  2.6886 -1.1700  2.1485
  765MOL0     H  940   7.334   7.592   8.049  2.3437  1.3764  0.7310
  765MOL0     H  941   7.165   7.583   8.100  0.6108 -1.3321 -1.7200
  765MOL0     H  942   7.303   7.410   8.208  0.9256 -0.9175  0.3197
  765MOL0     H  943   7.382   7.268   8.385 -1.7725 -1.4187 -1.2820
  765MOL0     H  944   7.371   7.117   8.889 -1.3047 -0.3424 -0.4882
  765MOL0     H  945   7.479   6.917   8.960 -0.0528 -1.5225 -0.4533
  765MOL0     H  946   7.718   6.662   8.664  1.0541 -3.7623 -0.9889
  765MOL0     H  947   7.548   6.601   8.639  0.7091 -0.8110 -0.6940
  765MOL0     H  948   7.541   6.432   8.789  1.5085 -2.3562  0.6016
  765MOL0     H  949   7.698   6.486   8.862 -0.2405  3.1059  0.6576
  765MOL0     H  950   7.782   6.462   8.599  1.3870 -0.1554  3.4491
  765MOL0     H  951   7.620   6.403   8.563 -1.3176  1.0105  1.0022
  765MOL0     H  952   7.651   6.205   8.718  0.7566 -2.7293 -1.3981
  765MOL0     H  953   7.757   6.206   8.579  4.9549 -1.2834  1.6231
  765MOL0     H  954   7.878   6.148   8.787 -2.0530 -0.8005 -4.2803
  765MOL0     H  955   7.817   6.310   8.861  0.9055 -1.1948  1.0872
  765MOL0     H  956   7.961   6.427   8.702 -2.0135  0.0557  1.2150
  765MOL0     H  957   8.002   6.285   8.619 -3.7629 -2.0609  0.8810
  765MOL0     H  958   8.178   6.394   8.780 -2.8881  0.8570 -2.7666
  765MOL0     H  959   8.071   6.320   8.913 -1.3399 -1.5754  0.1653
  765MOL0     H  960   8.117   6.104   8.808 -0.7035  0.9769  2.0194
  765MOL0     H  961   8.255   6.172   8.897 -0.5226 -3.4165 -0.7783
  765MOL0     H  962   7.527   6.798   8.542 -2.1876  1.1348 -0.6047
  765MOL0     H  963   7.430   6.997   8.469 -1.9355  1.7492 -0.0725
  765MOL0     H  964   7.411   7.569   8.659  0.6314 -3.7473 -0.2954
  765MOL0     H  965   7.343   7.744   8.484 -1.8656 -0.5350  1.2346
  765MOL0     H  966   6.533   8.916   7.699 -2.5945  0.9381 -6.3416
  765MOL0     H  967   6.472   9.100   7.837  0.0676  0.0859  2.9350
  765MOL0     H  968   6.390   9.508   7.887 -0.7482  2.1854 -1.8036
  765MOL0     H  969   6.389   9.696   8.063  0.3508 -0.9391  2.5002
  765MOL0     H  970   6.199   9.897   8.307 -2.0346 -1.6591 -1.1375
  765MOL0     H  971   6.290   9.856   8.157 -2.8904 -0.7077 -2.0978
  765MOL0     H  972   6.360   9.728   8.420  1.1557  0.0814 -0.0996
  765MOL0     H  973   6.467   9.746   8.292 -0.1375 -2.5412  4.0876
  765MOL0     H  974   6.432   9.912   8.519 -0.2901 -1.1153 -0.5724
  765MOL0     H  975   6.364  10.021   8.401 -1.5035 -0.8152 -0.3671
  765MOL0     H  976   6.604  10.059   8.439 -1.4802  0.6034  2.5102
  765MOL0     H  977   6.647   9.892   8.393  2.5135  2.7005 -1.2191
  765MOL0     H  978   6.591  10.144   8.049  2.8392 -0.8263 -0.4793
  765MOL0     H  979   6.087   9.480   8.276  0.2590 -4.6888  0.6543
  765MOL0     H  980   6.115   9.284   8.107  3.1251 -2.8647 -1.9459
  766MOL0     O  981   5.468  10.630   1.327 -0.2812 -0.0792  0.3523
  766MOL0     C  982   5.410  10.599   1.429  0.1417 -0.6767  0.6927
  766MOL0     O  983   5.309  10.664   1.478  0.7785 -0.2677  0.6049
  766MOL0     C  984   5.265  10.773   1.404 -0.4287 -0.6286 -0.0876
  766MOL0     C  985   5.188  10.761   1.290 -0.2921 -0.9717  0.1841
  766MOL0     C  986   5.140  10.879   1.225 -0.5271  0.6527  0.1862
  766MOL0     C  987   5.160  11.011   1.272 -0.2222 -0.2861  0.1658
  766MOL0     O  988   5.107  11.118   1.208  0.2735 -1.0833  0.4445
  766MOL0     C  989   4.971  11.142   1.220  0.9255 -0.0261 -0.1229
  766MOL0     C  990   4.956  11.284   1.261  0.0503 -0.2211 -1.0469
  766MOL0     C  991   5.020  11.306   1.398 -0.2951  1.2578  0.4607
  766MOL0     C  992   5.017  11.459   1.401 -0.3036 -0.0962  0.3242
  766MOL0     C  993   5.147  11.505   1.315  0.0320  0.1459 -0.0990
  766MOL0     C  994   5.203  11.633   1.367 -1.3860  0.0331 -1.0398
  766MOL0     C  995   5.305  11.698   1.275 -0.3696  0.1819  0.1769
  766MOL0     C  996   5.328  11.844   1.329 -0.7887  0.7724 -0.5862
  766MOL0     N  997   5.353  11.938   1.223 -0.4815  0.0925  0.4094
  766MOL0     C  998   5.253  11.994   1.154 -0.2066  0.4709 -0.3623
  766MOL0     C  999   5.310  12.087   1.076  0.6247  0.3666  0.2839
  766MOL0     C 1000   5.227  12.158   0.962 -0.1817 -0.5087 -0.4180
  766MOL0     C 1001   5.255  12.317   0.969  0.0859  0.6640  0.2202
  766MOL0     C 1002   5.223  12.379   1.101  0.3419 -0.4356  0.1741
  766MOL0     C 1003   5.259  12.520   1.125 -0.8453  0.6092  0.0610
  766MOL0     O 1004   5.225  12.622   1.032 -0.2837 -0.8328  0.0462
  766MOL0     C 1005   5.090  12.661   1.042  0.2364 -0.6784  0.5502
  766MOL0     C 1006   5.057  12.742   0.939  0.6107 -0.1143  0.2214
  766MOL0     C 1007   4.921  12.778   0.921  0.4257 -0.0688  0.3596
  766MOL0     C 1008   4.817  12.748   1.015  0.5819  0.2495 -0.2729
  766MOL0     C 1009   4.679  12.798   1.005  0.4968  0.6903  1.3121
  766MOL0     O 1010   4.639  12.856   0.887 -1.1053  0.1712  0.0146
  766MOL0     C 1011   4.523  12.920   0.849  0.4364 -0.0601 -0.4870
  766MOL0     C 1012   4.429  12.971   0.944 -0.2006  0.0114 -0.1293
  766MOL0     C 1013   4.307  13.034   0.896 -1.0199  0.7346 -0.4404
  766MOL0     C 1014   4.290  13.052   0.761 -0.1588 -0.4174 -0.7542
  766MOL0     O 1015   4.176  13.111   0.720  0.5180  0.8807 -0.2736
  766MOL0     C 1016   4.095  13.026   0.632  0.0828  0.1292 -0.2974
  766MOL0     C 1017   4.090  13.088   0.492 -0.0886  0.0713 -0.3123
  766MOL0     C 1018   4.068  13.236   0.488 -0.4023  1.2266  0.6949
  766MOL0     C 1019   4.094  13.296   0.345  0.0141 -0.1258 -0.6394
  766MOL0     C 1020   3.972  13.245   0.266 -0.2472  1.3183 -0.7234
  766MOL0     C 1021   3.961  13.331   0.137  0.4055 -0.0569 -0.5023
  766MOL0     C 1022   3.832  13.293   0.063  0.2733 -0.3876  0.3242
  766MOL0     C 1023   3.852  13.165  -0.027  0.0559 -0.2262 -0.2394
  766MOL0    Cl 1024   3.937  13.206  -0.176  0.1193  0.5158 -0.1564
  766MOL0     C 1025   4.389  13.006   0.671 -0.1776  0.2391  0.4412
  766MOL0     C 1026   4.497  12.938   0.714 -0.0314  0.2609 -0.6124
  766MOL0     O 1027   4.607  12.773   1.102  0.0573  0.4527 -0.2638
  766MOL0     C 1028   4.854  12.655   1.112  0.1838 -0.3574  0.3109
  766MOL0     C 1029   4.988  12.615   1.132  0.3463 -0.0387  0.2346
  766MOL0     N 1030   5.448  12.089   1.105  0.5309 -0.3819 -0.7109
  766MOL0     N 1031   5.468  12.004   1.195  0.4469  0.6571  0.3213
  766MOL0     C 1032   5.243  11.024   1.386 -0.0805 -0.3605  0.8118
  766MOL0     C 1033   5.296  10.909   1.449 -0.3799 -0.9011  1.0266
  766MOL0     C 1034   5.466  10.482   1.498 -0.1059  0.2909 -0.3671
  766MOL0     C 1035   5.598  10.442   1.466 -0.0625 -0.2407 -0.0034
  766MOL0     C 1036   5.653  10.331   1.528  0.2760 -0.1553  0.9078
  766MOL0     C 1037   5.584  10.266   1.635 -0.3433 -0.5868 -0.2484
  766MOL0     O 1038   5.650  10.171   1.711 -1.0610 -0.2571 -0.3200
  766MOL0     C 1039   5.590  10.121   1.827  0.1624 -0.1484 -1.0182
  766MOL0     C 1040   5.675   9.994   1.866  0.0311  0.2062  0.3671
  766MOL0     C 1041   5.619   9.934   2.001 -0.1409  0.0408  0.2404
  766MOL0     C 1042   5.713   9.971   2.110  0.1806  0.6836  0.9540
  766MOL0     C 1043   5.732  10.111   2.134 -0.4694  0.9783  0.4496
  766MOL0     C 1044   5.765  10.229   2.132 -0.3939 -0.0895 -0.2400
  766MOL0     C 1045   5.458  10.314   1.672  0.2359  0.4018 -0.1798
  766MOL0     C 1046   5.393  10.416   1.598 -0.8172  0.0349 -0.4903
  766MOL0     H 1047   5.172  10.668   1.236  0.1755 -1.6139  1.1116
  766MOL0     H 1048   5.094  10.882   1.126  0.1013 -2.1645 -0.2732
  766MOL0     H 1049   4.913  11.088   1.295 -1.1412 -1.1842 -2.3999
  766MOL0     H 1050   4.912  11.128   1.129 -3.3230  4.1480  1.6010
  766MOL0     H 1051   4.855  11.327   1.269  0.4716  0.4268  1.9241
  766MOL0     H 1052   5.006  11.348   1.188  1.3361  1.5016  1.2085
  766MOL0     H 1053   5.122  11.269   1.416  0.7288  3.0274 -1.3235
  766MOL0     H 1054   4.950  11.256   1.466  0.0384  0.1159 -0.0105
  766MOL0     H 1055   4.931  11.507   1.355 -1.5164  0.7284  3.2328
  766MOL0     H 1056   5.016  11.497   1.503 -0.6731  0.1569  0.2287
  766MOL0     H 1057   5.115  11.520   1.211 -2.8278 -3.4998  0.0610
  766MOL0     H 1058   5.222  11.427   1.301  2.0120  1.6409  1.5701
  766MOL0     H 1059   5.256  11.598   1.455  0.4067 -1.2925 -2.5687
  766MOL0     H 1060   5.123  11.705   1.389 -0.2580  0.8481  0.5082
  766MOL0     H 1061   5.400  11.644   1.267  0.3453  1.4345 -0.0724
  766MOL0     H 1062   5.271  11.706   1.171 -0.4193  0.1198  0.1881
  766MOL0     H 1063   5.406  11.845   1.406 -1.6553  0.7191  0.3091
  766MOL0     H 1064   5.234  11.873   1.376 -1.3550  0.8251 -1.7337
  766MOL0     H 1065   5.148  11.965   1.160 -1.2366  4.1374  2.6215
  766MOL0     H 1066   5.118  12.159   0.973 -0.2111 -0.6240 -0.6718
  766MOL0     H 1067   5.255  12.112   0.867  1.7177  0.6704 -0.4793
  766MOL0     H 1068   5.206  12.355   0.879 -0.8132 -0.7605  0.0744
  766MOL0     H 1069   5.365  12.319   0.964  0.3803 -1.5565  3.0874
  766MOL0     H 1070   5.116  12.365   1.119 -0.4392  2.3067 -1.6422
  766MOL0     H 1071   5.269  12.330   1.187  0.6675  1.5936  1.2159
  766MOL0     H 1072   5.365  12.512   1.099 -1.4454 -2.1244 -2.0921
  766MOL0     H 1073   5.248  12.558   1.226 -2.3137 -1.6064  0.8261
  766MOL0     H 1074   5.135  12.766   0.867  0.3624 -1.4745 -0.5264
  766MOL0     H 1075   4.908  12.850   0.840  1.1362  2.6717  2.5241
  766MOL0     H 1076   4.439  12.966   1.052  1.4924  1.2576 -0.1832
  766MOL0     H 1077   4.231  13.058   0.970 -1.4230 -1.6436 -0.0090
  766MOL0     H 1078   3.998  13.021   0.683  1.4741 -0.8711  2.4248
  766MOL0     H 1079   4.140  12.927   0.623  1.1498  0.1638  3.1717
  766MOL0     H 1080   4.021  13.024   0.436  0.1846 -0.4852 -0.0183
  766MOL0     H 1081   4.186  13.070   0.442  0.2785  1.9625 -0.3430
  766MOL0     H 1082   4.137  13.284   0.559  1.1042 -3.2190  2.6122
  766MOL0     H 1083   3.966  13.251   0.523 -1.6096 -3.0040 -0.3834
  766MOL0     H 1084   4.093  13.405   0.353  2.1333 -0.1960  2.0744
  766MOL0     H 1085   4.183  13.266   0.290 -0.2341 -1.2059 -0.4730
  766MOL0     H 1086   3.882  13.250   0.328 -1.8800 -0.6125 -2.8235
  766MOL0     H 1087   3.985  13.143   0.230 -0.1038 -0.0720  2.8717
  766MOL0     H 1088   4.047  13.314   0.071 -1.2067  0.2254 -2.8275
  766MOL0     H 1089   3.957  13.438   0.160 -2.7851 -0.4220  1.2446
  766MOL0     H 1090   3.744  13.287   0.127  0.2871  1.8620  0.6378
  766MOL0     H 1091   3.803  13.373  -0.006 -1.3411 -1.0634  0.2005
  766MOL0     H 1092   3.752  13.142  -0.063  0.7145 -0.6814 -1.8544
  766MOL0     H 1093   3.904  13.088   0.032  0.6512  0.1214 -0.3041
  766MOL0     H 1094   4.378  13.013   0.563  1.6442 -2.7584 -0.0381
  766MOL0     H 1095   4.567  12.899   0.641  1.1933  1.4591 -0.1274
  766MOL0     H 1096   4.774  12.623   1.178 -1.0657  0.5829 -0.6893
  766MOL0     H 1097   5.022  12.557   1.218  0.7755  0.0934  0.1578
  766MOL0     H 1098   5.268  11.123   1.426 -3.6643  1.0849 -0.1332
  766MOL0     H 1099   5.366  10.919   1.532  4.9574  1.8131 -3.1781
  766MOL0     H 1100   5.673  10.488   1.402  2.8318 -1.0509  2.5932
  766MOL0     H 1101   5.751  10.297   1.497 -0.0347  1.4633 -2.2400
  766MOL0     H 1102   5.490  10.091   1.796  0.5586 -1.3549 -1.1733
  766MOL0     H 1103   5.587  10.196   1.906  0.4463 -0.7223 -0.4577
  766MOL0     H 1104   5.683   9.912   1.794 -0.1707 -1.5283  2.2349
  766MOL0     H 1105   5.780  10.018   1.887 -0.1867 -1.3064  3.8261
  766MOL0     H 1106   5.629   9.825   1.998  2.4765  0.2310 -0.4860
  766MOL0     H 1107   5.519   9.962   2.034 -0.5089  0.6753 -1.3206
  766MOL0     H 1108   5.674   9.918   2.198  2.9625 -1.8528  0.8353
  766MOL0     H 1109   5.815   9.936   2.096 -0.2022 -0.0771 -0.0427
  766MOL0     H 1110   5.775  10.335   2.143  3.3030 -0.1809 -1.3670
  766MOL0     H 1111   5.391  10.259   1.736  3.4983 -2.1966  1.2936
  766MOL0     H 1112   5.290  10.433   1.626 -0.1609  0.5508  1.8008
  767MOL0     O 1113   3.223   4.167   5.562 -0.2067 -0.0882  0.5944
  767MOL0     C 1114   3.295   4.263   5.592  1.1693  0.7376  0.9724
  767MOL0     O 1115   3.314   4.373   5.514 -0.7166 -0.2206 -0.5538
  767MOL0     C 1116   3.224   4.399   5.410 -0.5353  0.8155 -0.2884
  767MOL0     C 1117   3.088   4.417   5.441 -0.1627 -1.1362  0.1608
  767MOL0     C 1118   2.995   4.435   5.338 -0.1531  0.5529  0.0714
  767MOL0     C 1119   3.052   4.440   5.206 -0.0815  0.9489  0.2224
  767MOL0     O 1120   2.962   4.464   5.094 -0.9238  0.2605  0.2850
  767MOL0     C 1121   2.838   4.407   5.112 -0.6044  0.3834 -0.1959
  767MOL0     C 1122   2.767   4.398   4.975 -0.3465  1.0905 -0.8406
  767MOL0     C 1123   2.626   4.330   4.986 -0.3310  0.8208 -0.1487
  767MOL0     C 1124   2.623   4.192   5.049 -0.2358  0.8234  0.3845
  767MOL0     C 1125   2.502   4.102   5.018 -0.6461 -0.1888  0.2156
  767MOL0     C 1126   2.365   4.160   5.077  0.5919  0.6473  1.0125
  767MOL0     C 1127   2.372   4.248   5.205  0.3560 -0.2028  0.1793
  767MOL0     C 1128   2.238   4.321   5.230 -0.1448 -0.0203 -0.3599
  767MOL0     N 1129   2.186   4.426   5.154 -0.7520 -0.2936  0.1605
  767MOL0     C 1130   2.054   4.460   5.134 -0.1951  0.1500 -0.3547
  767MOL0     C 1131   2.064   4.588   5.081 -0.3510  0.1100 -0.0650
  767MOL0     C 1132   1.961   4.685   5.037  0.5462 -0.4351 -0.1414
  767MOL0     C 1133   1.839   4.700   5.131  0.2331 -0.9918  0.2011
  767MOL0     C 1134   1.879   4.777   5.264  0.9671  0.7296 -0.3807
  767MOL0     C 1135   1.998   4.874   5.259  0.2277 -0.6469 -0.9863
  767MOL0     O 1136   2.014   4.928   5.390  0.4021 -0.3560 -0.8019
  767MOL0     C 1137   2.058   4.848   5.496  0.5964  0.2560 -0.4652
  767MOL0     C 1138   2.187   4.793   5.500 -0.2657 -0.0007  0.0933
  767MOL0     C 1139   2.222   4.714   5.613 -0.4707 -0.8977  0.0840
  767MOL0     C 1140   2.125   4.690   5.724 -0.2846 -0.0840  0.1603
  767MOL0     C 1141   2.162   4.621   5.857  0.7615 -0.4478 -0.0307
  767MOL0     O 1142   2.289   4.598   5.878  0.6917  0.8453 -0.1968
  767MOL0     C 1143   2.335   4.533   5.984 -1.1333 -0.5007 -0.6814
  767MOL0     C 1144   2.298   4.557   6.114  0.6478 -0.2565 -0.7439
  767MOL0     C 1145   2.374   4.504   6.218 -0.6293  0.5145 -0.1949
  767MOL0     C 1146   2.475   4.411   6.195  0.0636 -0.2607 -1.0103
  767MOL0     O 1147   2.530   4.368   6.311  0.0309  0.2147 -0.5192
  767MOL0     C 1148   2.663   4.303   6.296  1.5191  0.7520 -0.1174
  767MOL0     C 1149   2.717   4.258   6.434  0.9923 -0.3750 -0.8599
  767MOL0     C 1150   2.656   4.133   6.491  0.0238  0.0073  0.4491
  767MOL0     C 1151   2.737   4.091   6.614 -0.2770  0.3088  0.0990
  767MOL0     C 1152   2.741   3.944   6.633 -0.4058 -0.2717  0.5242
  767MOL0     C 1153   2.803   3.914   6.774  0.0233 -0.5745  0.6337
  767MOL0     C 1154   2.815   3.763   6.804 -0.1966  0.5710 -0.4504
  767MOL0     C 1155   2.930   3.687   6.737  0.7602  0.5167  0.0599
  767MOL0    Cl 1156   3.086   3.779   6.740  0.2092 -0.4803 -0.8274
  767MOL0     C 1157   2.520   4.389   6.066 -0.6599 -0.4368 -0.8067
  767MOL0     C 1158   2.446   4.449   5.962 -0.0662  0.1362 -0.2923
  767MOL0     O 1159   2.073   4.590   5.932  0.0404  0.2324 -0.2527
  767MOL0     C 1160   1.998   4.753   5.724  0.0124  0.1912 -0.3956
  767MOL0     C 1161   1.969   4.839   5.610  1.1287  0.8780  0.2662
  767MOL0     N 1162   2.197   4.619   5.048 -0.0276 -0.2716 -0.6824
  767MOL0     N 1163   2.267   4.531   5.109  0.1129  0.3488  0.0546
  767MOL0     C 1164   3.185   4.425   5.178 -0.3776  0.2253  0.1760
  767MOL0     C 1165   3.275   4.404   5.286  0.0338  0.6727  1.0194
  767MOL0     C 1166   3.370   4.244   5.719 -0.6979  0.5425  0.1909
  767MOL0     C 1167   3.349   4.132   5.804 -0.9722  0.2481  0.3235
  767MOL0     C 1168   3.434   4.101   5.912 -0.5248 -0.6755 -0.2589
  767MOL0     C 1169   3.525   4.206   5.953  0.7411 -0.1770  0.4762
  767MOL0     O 1170   3.611   4.176   6.054  0.4951  0.4514  0.2853
  767MOL0     C 1171   3.746   4.214   6.046 -0.9171 -0.4151 -0.5579
  767MOL0     C 1172   3.825   4.106   6.116  0.4051  0.0607 -0.3398
  767MOL0     C 1173   3.794   4.087   6.270  0.6958 -1.0738  0.0133
  767MOL0     C 1174   3.885   4.181   6.353  0.3202  0.0973 -0.3697
  767MOL0     C 1175   4.014   4.111   6.361  0.6184 -0.0327  0.2026
  767MOL0     C 1176   4.116   4.042   6.377  0.3862  0.5834  0.1358
  767MOL0     C 1177   3.541   4.319   5.877  0.6471 -0.2750  0.6420
  767MOL0     C 1178   3.466   4.334   5.760  1.2073  0.4777  1.1949
  767MOL0     H 1179   3.074   4.429   5.548 -1.3925 -0.1737 -0.0834
  767MOL0     H 1180   2.894   4.467   5.358 -0.5634  0.3604 -1.5322
  767MOL0     H 1181   2.769   4.469   5.170 -2.6602 -1.5296 -0.4881
  767MOL0     H 1182   2.845   4.306   5.153  0.7325  0.6353  0.2684
  767MOL0     H 1183   2.820   4.348   4.893 -0.6852  0.4778 -0.6897
  767MOL0     H 1184   2.765   4.504   4.948  1.6602  1.1619 -0.8538
  767MOL0     H 1185   2.591   4.316   4.884  0.2825 -1.8016 -0.0763
  767MOL0     H 1186   2.567   4.399   5.047  2.0364 -0.0335  3.4042
  767MOL0     H 1187   2.706   4.128   5.015 -1.9393 -1.2272 -0.1100
  767MOL0     H 1188   2.633   4.211   5.156 -0.2763  1.2200  0.3185
  767MOL0     H 1189   2.518   3.999   5.051  0.8172 -0.3262 -0.8427
  767MOL0     H 1190   2.488   4.096   4.910  0.0040 -0.6535  0.1567
  767MOL0     H 1191   2.296   4.076   5.087  0.0569  1.0184  0.4996
  767MOL0     H 1192   2.327   4.225   4.997  1.2213  0.3707  0.4716
  767MOL0     H 1193   2.399   4.191   5.294  0.2973 -1.3150 -0.5071
  767MOL0     H 1194   2.454   4.321   5.199  0.6602 -0.1773  3.2954
  767MOL0     H 1195   2.235   4.360   5.332  0.7497  1.1497 -0.7560
  767MOL0     H 1196   2.158   4.250   5.252 -0.1746  0.8933  3.0498
  767MOL0     H 1197   1.962   4.402   5.144  2.2208 -4.3687 -1.7528
  767MOL0     H 1198   1.917   4.655   4.941  1.3367  1.2105 -1.0709
  767MOL0     H 1199   2.019   4.778   5.028  3.9365 -1.8051  4.0559
  767MOL0     H 1200   1.787   4.606   5.152  1.6445 -1.5761  1.2483
  767MOL0     H 1201   1.771   4.761   5.071 -1.8509 -0.9971  2.3897
  767MOL0     H 1202   1.792   4.840   5.287  3.3218  3.3389  2.0798
  767MOL0     H 1203   1.898   4.716   5.353 -0.6479 -1.5869 -1.5111
  767MOL0     H 1204   1.984   4.957   5.190  0.0319  0.6688  0.5690
  767MOL0     H 1205   2.089   4.825   5.224  0.0140 -0.6966 -1.4854
  767MOL0     H 1206   2.256   4.816   5.420  1.0268  2.2068  1.7109
  767MOL0     H 1207   2.321   4.669   5.611  1.3459  2.8010 -0.7405
  767MOL0     H 1208   2.214   4.622   6.137  1.2688 -0.0710  1.1856
  767MOL0     H 1209   2.349   4.523   6.322 -2.7495 -0.7417 -0.4182
  767MOL0     H 1210   2.739   4.366   6.249  2.6718 -0.5615 -0.0799
  767MOL0     H 1211   2.646   4.209   6.243 -1.4487 -1.3626  4.0317
  767MOL0     H 1212   2.694   4.345   6.497 -3.8894  0.4530 -3.2940
  767MOL0     H 1213   2.826   4.257   6.432  1.0506 -1.0914  0.7920
  767MOL0     H 1214   2.652   4.047   6.423  1.2528 -2.5901  3.4398
  767MOL0     H 1215   2.555   4.150   6.527 -0.3181 -1.7311  0.3970
  767MOL0     H 1216   2.842   4.118   6.621  0.3362 -1.6315 -1.1098
  767MOL0     H 1217   2.672   4.139   6.688 -0.2525  3.2825 -1.6505
  767MOL0     H 1218   2.801   3.900   6.554 -1.7982  0.4273 -0.9823
  767MOL0     H 1219   2.636   3.911   6.633 -0.9553  1.3773  1.0094
  767MOL0     H 1220   2.734   3.961   6.846 -0.9170  1.2044 -1.3266
  767MOL0     H 1221   2.903   3.957   6.781 -0.8401  2.4277 -2.6100
  767MOL0     H 1222   2.838   3.748   6.909  2.2289 -4.6323 -1.4088
  767MOL0     H 1223   2.713   3.726   6.787 -0.7375  2.7870 -2.8789
  767MOL0     H 1224   2.908   3.662   6.633 -2.0692 -0.9291  0.9264
  767MOL0     H 1225   2.930   3.592   6.791 -1.3354  1.1500  1.2912
  767MOL0     H 1226   2.620   4.357   6.040  0.5902  1.3158  1.4723
  767MOL0     H 1227   2.475   4.435   5.858  1.6129  0.8671  0.0470
  767MOL0     H 1228   1.938   4.741   5.813 -1.4355  0.2205 -1.3325
  767MOL0     H 1229   1.879   4.900   5.611  1.2573  1.0699  0.3993
  767MOL0     H 1230   3.215   4.446   5.076  0.7088 -1.6724  0.0576
  767MOL0     H 1231   3.383   4.390   5.281 -0.0075  0.4423  0.6613
  767MOL0     H 1232   3.278   4.054   5.776  1.0486 -1.4656 -0.3110
  767MOL0     H 1233   3.424   4.016   5.978 -0.8503  1.1769  2.2065
  767MOL0     H 1234   3.757   4.313   6.091  0.6811  0.3439 -2.4662
  767MOL0     H 1235   3.787   4.221   5.945  0.2541 -0.6361 -0.1160
  767MOL0     H 1236   3.790   4.015   6.065  1.7661 -0.5578 -0.2252
  767MOL0     H 1237   3.932   4.122   6.095 -0.2317  2.5426 -2.1682
  767MOL0     H 1238   3.811   3.982   6.297 -1.2285 -0.9032  2.1999
  767MOL0     H 1239   3.690   4.104   6.296  0.2646 -2.9583 -0.3307
  767MOL0     H 1240   3.896   4.283   6.315  0.5487  0.4386  0.5993
  767MOL0     H 1241   3.832   4.190   6.448  0.0601  1.1236 -0.6096
  767MOL0     H 1242   4.203   3.980   6.384 -0.4001 -0.5551  0.2185
  767MOL0     H 1243   3.606   4.401   5.904 -0.3744  0.9140 -0.3971
  767MOL0     H 1244   3.470   4.425   5.701  0.0221 -0.3274 -0.1834
  768MOL0     O 1245   2.878  11.082   3.110  0.1811 -1.4234 -1.0063
  768MOL0     C 1246   2.929  11.180   3.162  0.0783  0.0008 -0.2226
  768MOL0     O 1247   3.053  11.188   3.214 -0.4276  0.3405  1.0153
  768MOL0     C 1248   3.141  11.088   3.194  0.1083  0.2764  0.5564
  768MOL0     C 1249   3.125  10.947   3.199  0.2922 -0.2711  0.3254
  768MOL0     C 1250   3.232  10.860   3.187 -0.1565 -0.0163  0.4235
  768MOL0     C 1251   3.363  10.904   3.157 -0.6516  0.9789 -0.4650
  768MOL0     O 1252   3.460  10.799   3.131 -0.4278  0.3891 -0.2527
  768MOL0     C 1253   3.552  10.819   3.014  0.1126 -0.2803 -0.3302
  768MOL0     C 1254   3.492  10.751   2.888 -0.8437  0.2114 -0.5634
  768MOL0     C 1255   3.597  10.761   2.786  0.4066  0.7481  0.0221
  768MOL0     C 1256   3.595  10.900   2.719  0.5355  0.2090  0.6496
  768MOL0     C 1257   3.736  10.943   2.677 -0.1759 -1.3458  0.6316
  768MOL0     C 1258   3.719  11.085   2.620 -0.1082 -0.0110  0.7809
  768MOL0     C 1259   3.867  11.137   2.576  0.8800  0.2136 -0.9207
  768MOL0     C 1260   3.934  11.034   2.477 -0.2844 -0.7755  0.7167
  768MOL0     N 1261   3.879  11.021   2.342 -0.2078  0.7125 -0.0734
  768MOL0     C 1262   3.774  10.945   2.300 -0.1619 -0.4726 -0.9014
  768MOL0     C 1263   3.767  10.975   2.163  0.3259 -0.8060  0.0415
  768MOL0     C 1264   3.655  10.943   2.065  0.1393  0.2458 -0.2573
  768MOL0     C 1265   3.532  11.029   2.108 -0.9196  1.1041 -0.2381
  768MOL0     C 1266   3.536  11.179   2.075  0.1331 -1.0540 -0.6467
  768MOL0     C 1267   3.409  11.255   2.109  0.8496 -1.1113 -0.2736
  768MOL0     O 1268   3.326  11.244   1.993  0.4377  0.1193 -0.5555
  768MOL0     C 1269   3.220  11.331   1.968  1.1200  0.1319 -0.3865
  768MOL0     C 1270   3.116  11.297   1.877  0.1066 -0.2812 -1.1088
  768MOL0     C 1271   3.010  11.385   1.840 -0.1598 -1.3231 -0.9541
  768MOL0     C 1272   3.003  11.518   1.902 -0.3350 -0.0682  0.7878
  768MOL0     C 1273   2.885  11.621   1.887 -1.9216  0.8911  1.0046
  768MOL0     O 1274   2.903  11.741   1.943 -0.1456 -0.2567  0.0271
  768MOL0     C 1275   2.806  11.831   1.954  0.6270  0.4807  0.2352
  768MOL0     C 1276   2.841  11.966   1.969 -0.2927 -0.4136 -0.7557
  768MOL0     C 1277   2.745  12.063   1.958  0.3557 -0.2644 -0.1136
  768MOL0     C 1278   2.608  12.042   1.968 -0.7851  0.1318 -0.0059
  768MOL0     O 1279   2.522  12.154   1.961  0.0250  0.8317 -0.5039
  768MOL0     C 1280   2.408  12.144   2.051 -0.4449  1.0702  0.2855
  768MOL0     C 1281   2.429  12.244   2.159  0.7069 -0.6457  0.4556
  768MOL0     C 1282   2.301  12.268   2.240 -1.2168  0.7012  0.1401
  768MOL0     C 1283   2.219  12.131   2.240 -0.3308 -0.4242 -0.7327
  768MOL0     C 1284   2.092  12.147   2.319  1.0838  0.0649 -0.0155
  768MOL0     C 1285   2.095  12.222   2.453 -0.0212  0.1306 -0.8218
  768MOL0     C 1286   1.947  12.260   2.513  0.0979  0.3863  0.2961
  768MOL0     C 1287   1.911  12.154   2.610  0.9529  0.3568  0.8824
  768MOL0    Cl 1288   1.754  12.067   2.577  0.5455 -0.0235 -0.1873
  768MOL0     C 1289   2.581  11.906   1.978  0.5935  1.0013  0.3080
  768MOL0     C 1290   2.669  11.796   1.960 -0.1862  0.1630 -0.8166
  768MOL0     O 1291   2.796  11.591   1.806  0.5255  0.1227 -0.2694
  768MOL0     C 1292   3.114  11.555   1.984 -0.6382  0.0177 -0.4669
  768MOL0     C 1293   3.212  11.463   2.021 -0.0519 -0.1657  0.3488
  768MOL0     N 1294   3.883  11.037   2.129  0.3688  1.0039 -0.1378
  768MOL0     N 1295   3.945  11.071   2.234  0.7266  0.6369 -0.0427
  768MOL0     C 1296   3.390  11.042   3.159 -0.2916  0.4881  0.1059
  768MOL0     C 1297   3.271  11.130   3.172  0.6088  0.4416 -0.2801
  768MOL0     C 1298   2.860  11.314   3.163  0.5309  0.5151 -0.1655
  768MOL0     C 1299   2.902  11.408   3.259 -1.2027 -0.3252 -0.1714
  768MOL0     C 1300   2.836  11.537   3.255 -0.3573  0.5975  0.4128
  768MOL0     C 1301   2.737  11.574   3.160  0.0425 -0.1416  0.9054
  768MOL0     O 1302   2.648  11.680   3.163  0.1322 -0.1407 -0.2608
  768MOL0     C 1303   2.572  11.690   3.287 -0.1517 -0.6949  0.5253
  768MOL0     C 1304   2.464  11.591   3.308  0.6609 -0.3629 -0.6707
  768MOL0     C 1305   2.346  11.626   3.400 -0.5598 -0.0540 -0.9055
  768MOL0     C 1306   2.272  11.759   3.374 -0.1727 -0.0422 -0.4963
  768MOL0     C 1307   2.188  11.744   3.250 -0.0475  0.1144 -0.5371
  768MOL0     C 1308   2.146  11.713   3.143 -0.9743  0.0515  0.0271
  768MOL0     C 1309   2.692  11.473   3.082  0.0657  0.1861  0.3835
  768MOL0     C 1310   2.749  11.349   3.077 -0.5171 -0.2723 -0.6686
  768MOL0     H 1311   3.034  10.892   3.215 -1.9519  2.6471 -1.3452
  768MOL0     H 1312   3.219  10.752   3.186  0.0630 -0.0464  0.5584
  768MOL0     H 1313   3.654  10.786   3.037  0.8506  0.2014 -2.7012
  768MOL0     H 1314   3.538  10.926   2.997 -1.8960 -0.7343 -1.9039
  768MOL0     H 1315   3.403  10.809   2.862 -2.0075 -1.4827 -0.5658
  768MOL0     H 1316   3.452  10.649   2.898 -1.1923  0.4196  0.2764
  768MOL0     H 1317   3.573  10.689   2.706 -5.2454  0.8062  1.2439
  768MOL0     H 1318   3.689  10.726   2.834 -0.6859 -2.4357  0.0926
  768MOL0     H 1319   3.524  10.897   2.636 -2.7291 -3.1391  3.1507
  768MOL0     H 1320   3.552  10.972   2.790 -0.7988  0.4495 -0.3701
  768MOL0     H 1321   3.775  10.868   2.608  0.7685  0.8348 -1.3527
  768MOL0     H 1322   3.798  10.962   2.765  0.0669 -2.4909  0.7170
  768MOL0     H 1323   3.670  11.144   2.698 -0.8720  0.1718  0.1837
  768MOL0     H 1324   3.654  11.072   2.533  1.5670 -1.6218 -0.3039
  768MOL0     H 1325   3.856  11.234   2.527 -2.7602 -0.5108 -1.8506
  768MOL0     H 1326   3.914  11.141   2.674 -0.1775 -2.8220 -0.1803
  768MOL0     H 1327   3.958  10.935   2.517  1.1841 -0.0948  1.5914
  768MOL0     H 1328   4.033  11.078   2.461  1.0487 -2.6462  3.1202
  768MOL0     H 1329   3.702  10.896   2.364  1.2898  2.5762  3.5208
  768MOL0     H 1330   3.615  10.842   2.062 -4.0577  1.6946  0.2945
  768MOL0     H 1331   3.684  10.957   1.960 -2.4805  3.4472 -0.7130
  768MOL0     H 1332   3.530  11.028   2.217  2.6932  1.6119 -0.0542
  768MOL0     H 1333   3.444  10.977   2.066  0.6374 -0.5600 -1.6130
  768MOL0     H 1334   3.610  11.228   2.137 -0.5598  1.6318 -1.7917
  768MOL0     H 1335   3.546  11.199   1.968 -5.9994  0.1683 -1.3843
  768MOL0     H 1336   3.437  11.359   2.124 -0.8463 -0.6641 -0.1122
  768MOL0     H 1337   3.363  11.201   2.193  2.3229 -3.8973 -1.1069
  768MOL0     H 1338   3.120  11.200   1.827 -1.1569 -0.9644  0.0342
  768MOL0     H 1339   2.940  11.341   1.769  0.6720 -3.4542 -0.5489
  768MOL0     H 1340   2.945  11.998   1.967 -1.1950  2.9178 -1.1187
  768MOL0     H 1341   2.781  12.166   1.962 -0.3771  0.0749 -1.7013
  768MOL0     H 1342   2.407  12.044   2.096  2.0680  0.3053 -1.1757
  768MOL0     H 1343   2.317  12.168   1.996 -1.0688 -0.7931  0.4202
  768MOL0     H 1344   2.451  12.333   2.098 -1.9004 -2.4230 -3.4949
  768MOL0     H 1345   2.507  12.210   2.228 -0.2885 -0.1466  1.8521
  768MOL0     H 1346   2.232  12.341   2.197 -1.4606  0.9205  0.8835
  768MOL0     H 1347   2.324  12.303   2.342 -1.3723 -1.0090  0.7933
  768MOL0     H 1348   2.186  12.110   2.138  1.3034 -1.9783 -0.9974
  768MOL0     H 1349   2.281  12.046   2.271  1.5014 -1.2557 -5.7326
  768MOL0     H 1350   2.055  12.045   2.337  1.7082  0.1614  2.1367
  768MOL0     H 1351   2.019  12.197   2.257  1.4308 -1.6136 -1.8844
  768MOL0     H 1352   2.132  12.324   2.440 -3.1006  1.9367  2.7338
  768MOL0     H 1353   2.151  12.163   2.526  1.0125 -0.7233 -2.2502
  768MOL0     H 1354   1.968  12.349   2.573  0.1041  0.6734 -0.1270
  768MOL0     H 1355   1.869  12.284   2.441 -0.5063 -0.4590  0.6563
  768MOL0     H 1356   1.881  12.210   2.699 -0.2783  3.5940 -1.3941
  768MOL0     H 1357   1.988  12.079   2.632  1.0734  0.3279  0.3743
  768MOL0     H 1358   2.477  11.874   1.982  0.2602  2.1873  3.0102
  768MOL0     H 1359   2.632  11.694   1.960  1.2630 -0.4155  1.0967
  768MOL0     H 1360   3.127  11.656   2.021  1.5857 -0.3752  0.0047
  768MOL0     H 1361   3.291  11.498   2.087 -0.1344 -2.6048  1.8658
  768MOL0     H 1362   3.482  11.093   3.130 -1.5456  1.2769 -2.9078
  768MOL0     H 1363   3.286  11.237   3.158 -5.1121  1.4323 -1.0293
  768MOL0     H 1364   2.981  11.389   3.331 -2.5596 -1.2796  1.1400
  768MOL0     H 1365   2.871  11.612   3.324 -1.7477  1.3046  0.3760
  768MOL0     H 1366   2.526  11.785   3.315 -1.4248 -0.5750 -1.6964
  768MOL0     H 1367   2.649  11.688   3.364 -0.2714 -0.4784  0.6529
  768MOL0     H 1368   2.423  11.573   3.208  1.2027 -0.7911 -0.8189
  768MOL0     H 1369   2.496  11.494   3.347 -0.6581  0.9918  4.5215
  768MOL0     H 1370   2.397  11.624   3.497  0.1893  3.4891 -1.0709
  768MOL0     H 1371   2.275  11.544   3.393  1.5397 -2.0510  0.0028
  768MOL0     H 1372   2.208  11.781   3.459  0.0640  2.7465 -0.9431
  768MOL0     H 1373   2.342  11.842   3.358  1.6353 -1.8095 -2.3694
  768MOL0     H 1374   2.111  11.692   3.044 -0.2018  0.7865 -0.4150
  768MOL0     H 1375   2.599  11.486   3.028  0.1676  0.4919  0.2832
  768MOL0     H 1376   2.715  11.267   3.014  2.3843 -2.6861  0.6080
  769MOL0     O 1377   3.240   0.290   5.223 -0.0051 -0.1341  0.3667
  769MOL0     C 1378   3.308   0.381   5.176  0.8668  0.1967  0.6650
  769MOL0     O 1379   3.292   0.511   5.212 -0.3331  0.5539 -0.5975
  769MOL0     C 1380   3.171   0.544   5.263 -0.3255  0.2082  1.1222
  769MOL0     C 1381   3.077   0.584   5.160 -0.1560 -0.2416  0.6956
  769MOL0     C 1382   2.949   0.614   5.200  0.0544  0.7709 -0.4696
  769MOL0     C 1383   2.907   0.605   5.333 -0.4388 -0.3246  0.2611
  769MOL0     O 1384   2.780   0.616   5.374  0.2483  0.4792 -0.7323
  769MOL0     C 1385   2.680   0.621   5.274 -0.2937  0.3308 -0.5690
  769MOL0     C 1386   2.554   0.637   5.354  0.9840 -1.2137 -0.2248
  769MOL0     C 1387   2.444   0.697   5.256  0.3838  0.1957  0.6048
  769MOL0     C 1388   2.307   0.700   5.332 -0.0478 -0.3821  0.4623
  769MOL0     C 1389   2.193   0.703   5.227 -0.6675 -0.0439 -0.2757
  769MOL0     C 1390   2.060   0.765   5.274  0.2682 -0.6924 -0.5700
  769MOL0     C 1391   1.940   0.725   5.192  0.0998  0.6012 -0.8401
  769MOL0     C 1392   1.810   0.795   5.240  0.3990 -0.9395  0.9527
  769MOL0     N 1393   1.816   0.945   5.224 -0.2781 -0.2849  0.2880
  769MOL0     C 1394   1.803   1.019   5.111  0.1035 -0.1932  0.5119
  769MOL0     C 1395   1.767   1.143   5.150 -0.5760 -0.4245  0.5284
  769MOL0     C 1396   1.734   1.253   5.052 -0.9920  0.5975  0.3539
  769MOL0     C 1397   1.841   1.362   5.037  0.3264 -0.1859  0.3304
  769MOL0     C 1398   1.987   1.315   5.024  0.0899  0.5063 -0.0642
  769MOL0     C 1399   2.075   1.438   5.059  0.4054  0.7011 -1.0469
  769MOL0     O 1400   2.211   1.381   5.063  0.7493 -0.5298  0.7218
  769MOL0     C 1401   2.286   1.420   4.960  0.0501  0.7220  0.5176
  769MOL0     C 1402   2.427   1.414   4.984  1.6646 -0.6791 -0.1609
  769MOL0     C 1403   2.514   1.442   4.882 -0.1685  0.1798 -0.3033
  769MOL0     C 1404   2.469   1.478   4.755  0.0312 -0.3466  0.8847
  769MOL0     C 1405   2.563   1.487   4.636  0.5339  0.6112 -0.6162
  769MOL0     O 1406   2.504   1.506   4.514 -0.4919  0.7588 -0.7803
  769MOL0     C 1407   2.571   1.476   4.400  0.5615 -0.2529 -0.2950
  769MOL0     C 1408   2.543   1.542   4.277 -0.4847 -0.1154 -1.2387
  769MOL0     C 1409   2.599   1.509   4.151  0.0010 -0.8649 -0.0213
  769MOL0     C 1410   2.689   1.401   4.141  0.1683  0.3928 -0.0097
  769MOL0     O 1411   2.743   1.344   4.028  0.3498  0.6710  0.4889
  769MOL0     C 1412   2.707   1.419   3.911  0.1320  0.6454  0.0946
  769MOL0     C 1413   2.564   1.378   3.870  0.1284 -0.1722  0.2355
  769MOL0     C 1414   2.514   1.446   3.745  0.4158 -0.5466  0.6863
  769MOL0     C 1415   2.597   1.418   3.623 -0.4500  0.3842 -0.3024
  769MOL0     C 1416   2.513   1.400   3.491 -0.0195  0.5713 -0.2479
  769MOL0     C 1417   2.505   1.521   3.404 -0.0510  0.4067 -0.5801
  769MOL0     C 1418   2.408   1.497   3.290  0.5018  0.5469  0.9560
  769MOL0     C 1419   2.431   1.603   3.179 -0.1548  0.6546 -0.0277
  769MOL0    Cl 1420   2.561   1.549   3.065 -0.2956 -0.2689 -0.2129
  769MOL0     C 1421   2.716   1.332   4.260 -0.1193  0.3582  0.0682
  769MOL0     C 1422   2.661   1.366   4.385  0.0270  0.3671  0.3997
  769MOL0     O 1423   2.684   1.473   4.663 -1.2509 -0.1120 -0.2670
  769MOL0     C 1424   2.335   1.471   4.722  0.9472 -0.3722 -0.4843
  769MOL0     C 1425   2.246   1.437   4.824 -0.7237 -0.0207  0.4232
  769MOL0     N 1426   1.750   1.147   5.288 -0.5605  1.1537  0.9850
  769MOL0     N 1427   1.783   1.033   5.329  0.1158  0.7604  0.0685
  769MOL0     C 1428   3.002   0.585   5.426 -0.2845 -0.3301  0.2188
  769MOL0     C 1429   3.133   0.552   5.397 -0.3911 -0.3692  0.0523
  769MOL0     C 1430   3.399   0.351   5.071 -0.0131  0.0024  0.1086
  769MOL0     C 1431   3.450   0.219   5.045  0.4286 -0.8973  0.5421
  769MOL0     C 1432   3.572   0.203   4.958  0.6141  0.8354  0.4537
  769MOL0     C 1433   3.628   0.313   4.887  0.4506 -0.5310  0.6567
  769MOL0     O 1434   3.724   0.317   4.787  0.6584  0.9423  0.1084
  769MOL0     C 1435   3.818   0.204   4.790 -0.5771  0.2445  0.5844
  769MOL0     C 1436   3.941   0.237   4.877 -0.2522 -0.9936 -0.3352
  769MOL0     C 1437   4.009   0.380   4.841 -0.3802  0.8365  0.4534
  769MOL0     C 1438   4.099   0.383   4.719 -1.1924 -0.5983 -0.0961
  769MOL0     C 1439   4.127   0.523   4.680 -0.5411 -0.1629 -0.3932
  769MOL0     C 1440   4.149   0.647   4.653 -0.2175  0.3528 -0.6299
  769MOL0     C 1441   3.569   0.432   4.903  0.1183  0.4240 -0.0887
  769MOL0     C 1442   3.459   0.458   4.993 -0.4717 -0.1379 -0.1718
  769MOL0     H 1443   3.104   0.611   5.058 -0.7547  1.3001  0.9187
  769MOL0     H 1444   2.880   0.627   5.117  1.6097  0.5288 -1.8635
  769MOL0     H 1445   2.676   0.523   5.227  0.6263 -0.2508  0.5000
  769MOL0     H 1446   2.700   0.701   5.202 -0.3752 -0.6332 -1.6844
  769MOL0     H 1447   2.577   0.716   5.426  3.7306  0.0724 -2.3463
  769MOL0     H 1448   2.517   0.543   5.396  0.1750  1.3080  5.8087
  769MOL0     H 1449   2.438   0.631   5.168 -1.5435  1.1204  0.0049
  769MOL0     H 1450   2.459   0.800   5.222 -2.4293  1.0241  1.6006
  769MOL0     H 1451   2.294   0.615   5.400  0.7033 -0.9759 -0.1288
  769MOL0     H 1452   2.308   0.785   5.402 -2.0972 -0.6278  0.8535
  769MOL0     H 1453   2.173   0.602   5.192 -1.3123 -0.7703  2.0439
  769MOL0     H 1454   2.221   0.765   5.141  0.1537  3.3725  2.2098
  769MOL0     H 1455   2.072   0.872   5.255 -0.7539 -0.7157 -1.4152
  769MOL0     H 1456   2.045   0.747   5.380 -0.8039  2.3996 -0.1066
  769MOL0     H 1457   1.954   0.742   5.084 -1.2352  2.8915 -0.7242
  769MOL0     H 1458   1.933   0.617   5.207  0.1442  0.4972 -1.5244
  769MOL0     H 1459   1.795   0.764   5.344 -0.6117  2.1751  1.8312
  769MOL0     H 1460   1.739   0.752   5.169  1.1049  0.7514 -0.8736
  769MOL0     H 1461   1.811   0.983   5.010 -0.3617  2.0520 -0.3864
  769MOL0     H 1462   1.636   1.295   5.079 -0.9617  0.0579  1.3438
  769MOL0     H 1463   1.718   1.205   4.955 -4.4000 -2.6026  2.2208
  769MOL0     H 1464   1.828   1.430   5.121  0.5065 -0.6429  0.7355
  769MOL0     H 1465   1.802   1.418   4.951 -1.9705 -3.5210 -1.0285
  769MOL0     H 1466   2.011   1.235   5.095 -2.4349 -0.0220  0.3032
  769MOL0     H 1467   2.007   1.281   4.922  1.2051  0.1128  0.2747
  769MOL0     H 1468   2.047   1.473   5.159  1.3590  0.7937 -0.8008
  769MOL0     H 1469   2.058   1.526   4.995  0.1386  1.4261 -0.0048
  769MOL0     H 1470   2.468   1.406   5.084  4.9313  0.7449 -1.2443
  769MOL0     H 1471   2.619   1.431   4.908 -0.1937 -1.0708 -0.6684
  769MOL0     H 1472   2.472   1.624   4.287  0.9643  0.8894  3.1238
  769MOL0     H 1473   2.567   1.573   4.068  0.9534  0.7861  0.8296
  769MOL0     H 1474   2.763   1.379   3.826 -3.2923 -2.6408 -0.9193
  769MOL0     H 1475   2.723   1.526   3.902  0.8666  0.6035  0.8528
  769MOL0     H 1476   2.489   1.396   3.946  1.1350  0.9844  0.9945
  769MOL0     H 1477   2.561   1.269   3.856 -1.4739 -0.0870 -0.3176
  769MOL0     H 1478   2.502   1.551   3.774 -1.8972 -0.5002 -0.2470
  769MOL0     H 1479   2.414   1.406   3.727 -0.6569  2.5003 -0.9135
  769MOL0     H 1480   2.679   1.489   3.608 -1.0279  1.6343  2.0236
  769MOL0     H 1481   2.641   1.319   3.639  0.0152  0.9004  1.8687
  769MOL0     H 1482   2.414   1.361   3.513  0.6825 -1.1368  0.0950
  769MOL0     H 1483   2.573   1.332   3.429  0.9369  1.3352 -0.1912
  769MOL0     H 1484   2.600   1.533   3.350 -0.0109 -0.8925 -0.8337
  769MOL0     H 1485   2.477   1.613   3.455  2.8650  0.1082  1.8103
  769MOL0     H 1486   2.416   1.395   3.251  1.8305  1.5947 -1.7278
  769MOL0     H 1487   2.307   1.507   3.332  0.4989  0.6023  0.9348
  769MOL0     H 1488   2.453   1.704   3.215  0.4516  1.2039 -1.8683
  769MOL0     H 1489   2.333   1.607   3.132  0.3104 -0.3101 -1.1444
  769MOL0     H 1490   2.772   1.240   4.247  0.5426  0.7042  0.4781
  769MOL0     H 1491   2.679   1.316   4.480 -0.9570 -0.9505 -0.0737
  769MOL0     H 1492   2.289   1.510   4.632  1.5466  1.0443 -0.2107
  769MOL0     H 1493   2.141   1.423   4.799 -0.8934 -3.2728  2.3470
  769MOL0     H 1494   2.974   0.569   5.530 -0.4152 -0.1219  0.2151
  769MOL0     H 1495   3.197   0.525   5.481  1.0309  2.7814  0.1364
  769MOL0     H 1496   3.430   0.130   5.104 -0.1818 -0.3398  1.1949
  769MOL0     H 1497   3.610   0.104   4.932 -2.1194 -0.2554  0.2537
  769MOL0     H 1498   3.858   0.195   4.689 -1.7356  0.6787  0.0616
  769MOL0     H 1499   3.771   0.108   4.814  1.3716 -1.6297 -2.3810
  769MOL0     H 1500   3.915   0.240   4.983 -0.3894  1.5222 -0.3938
  769MOL0     H 1501   4.016   0.159   4.856  0.8977  0.2346 -0.9684
  769MOL0     H 1502   4.078   0.418   4.917  0.3114  0.6289 -0.0617
  769MOL0     H 1503   3.923   0.446   4.821 -0.8210  0.0019 -0.5014
  769MOL0     H 1504   4.194   0.340   4.752 -1.3840  0.7758  2.4559
  769MOL0     H 1505   4.046   0.328   4.640 -1.5978 -1.5508  0.8123
  769MOL0     H 1506   4.149   0.754   4.644 -1.0939  0.2652 -1.8603
  769MOL0     H 1507   3.605   0.519   4.849 -1.2544  1.2802  0.3158
  769MOL0     H 1508   3.440   0.565   4.998  2.4818  0.7122 -3.2265
  770MOL0     O 1509   5.422  11.355   1.548  0.5202  0.1359 -0.4096
  770MOL0     C 1510   5.537  11.302   1.545 -0.1323  0.1676 -1.0569
  770MOL0     O 1511   5.618  11.281   1.445  0.0365  0.1940  0.3951
  770MOL0     C 1512   5.605  11.365   1.335 -0.0209  0.7222 -0.5678
  770MOL0     C 1513   5.502  11.346   1.248  0.1845  0.8282  1.0260
  770MOL0     C 1514   5.489  11.433   1.140 -0.4740  0.2028  0.2582
  770MOL0     C 1515   5.584  11.524   1.101 -0.6149 -0.2188 -0.1698
  770MOL0     O 1516   5.573  11.612   1.000 -0.4154  0.5919  0.9215
  770MOL0     C 1517   5.483  11.591   0.892 -0.0834 -0.5340  0.4775
  770MOL0     C 1518   5.503  11.703   0.791 -0.4965  0.3654  0.3098
  770MOL0     C 1519   5.641  11.759   0.776  0.1401 -0.5325  0.1106
  770MOL0     C 1520   5.766  11.672   0.759  0.2501 -0.9852  0.4640
  770MOL0     C 1521   5.902  11.750   0.761  1.1182  0.3270  0.1238
  770MOL0     C 1522   5.948  11.787   0.898 -0.7639 -0.1554  0.0067
  770MOL0     C 1523   6.027  11.679   0.968 -0.1772 -1.1543  0.0726
  770MOL0     C 1524   6.115  11.741   1.081 -0.0275 -0.0384 -0.6584
  770MOL0     N 1525   6.039  11.750   1.203 -0.0268  0.4455 -0.3687
  770MOL0     C 1526   6.015  11.863   1.286 -0.7505  0.6417 -0.6754
  770MOL0     C 1527   5.946  11.812   1.389  0.1003  0.5499  0.0191
  770MOL0     C 1528   5.875  11.882   1.497 -0.6371 -1.2038 -0.5663
  770MOL0     C 1529   5.772  11.974   1.430 -0.1817  0.5425  0.1162
  770MOL0     C 1530   5.703  12.057   1.536 -0.5372 -1.0395  0.6773
  770MOL0     C 1531   5.598  12.143   1.483 -1.1654 -0.0136 -0.1103
  770MOL0     O 1532   5.532  12.220   1.577 -0.9282 -0.4659  0.5511
  770MOL0     C 1533   5.399  12.267   1.556 -0.3558 -0.1996 -0.0266
  770MOL0     C 1534   5.362  12.356   1.658 -0.1427  0.3820  0.7115
  770MOL0     C 1535   5.235  12.417   1.647 -0.6032  0.6196  0.4819
  770MOL0     C 1536   5.144  12.380   1.547 -0.2124  0.5652 -0.2657
  770MOL0     C 1537   5.023  12.458   1.522  0.0810  0.4494 -0.5490
  770MOL0     O 1538   5.003  12.545   1.628 -0.5432  1.5523  0.6611
  770MOL0     C 1539   4.905  12.640   1.641  0.2485  0.2787  0.6441
  770MOL0     C 1540   4.788  12.610   1.703 -0.1061  0.4946  1.0147
  770MOL0     C 1541   4.702  12.714   1.742 -0.1719 -0.4306  0.4713
  770MOL0     C 1542   4.725  12.847   1.714  0.1941  0.4763 -0.0682
  770MOL0     O 1543   4.662  12.959   1.773  0.1175 -0.1860  0.2925
  770MOL0     C 1544   4.545  12.947   1.859  0.3047 -0.5383 -0.2262
  770MOL0     C 1545   4.418  12.951   1.776  0.1037  0.3376  0.1567
  770MOL0     C 1546   4.322  13.062   1.830 -0.1779 -0.5596  0.3726
  770MOL0     C 1547   4.207  13.103   1.731  0.1674  0.1268 -0.5546
  770MOL0     C 1548   4.186  13.252   1.701 -0.2213 -0.0906  0.3475
  770MOL0     C 1549   4.128  13.330   1.820 -0.0824  0.0207 -0.6960
  770MOL0     C 1550   4.231  13.361   1.927 -0.4554  0.1087 -0.4698
  770MOL0     C 1551   4.203  13.473   2.018  0.6975  0.3059  0.2801
  770MOL0    Cl 1552   4.048  13.455   2.094 -0.0545  0.3183 -0.1497
  770MOL0     C 1553   4.828  12.873   1.631  0.6803 -0.4171  0.9616
  770MOL0     C 1554   4.921  12.771   1.599  1.0642 -0.7709 -0.3002
  770MOL0     O 1555   4.960  12.456   1.419 -0.3762  0.7538 -1.1919
  770MOL0     C 1556   5.184  12.277   1.458  0.1193 -0.4062  0.1536
  770MOL0     C 1557   5.306  12.227   1.456 -0.8105  0.3915 -0.6095
  770MOL0     N 1558   5.950  11.675   1.384 -0.1269  0.4647  0.5087
  770MOL0     N 1559   6.011  11.637   1.278  0.0143 -0.4379  0.0345
  770MOL0     C 1560   5.686  11.548   1.201 -0.2388  1.1113 -0.2773
  770MOL0     C 1561   5.698  11.460   1.317  0.0916 -0.2035  0.4564
  770MOL0     C 1562   5.576  11.264   1.680  0.2374 -0.8195  0.3391
  770MOL0     C 1563   5.692  11.177   1.702  0.8371 -0.2235  0.6373
  770MOL0     C 1564   5.744  11.151   1.826  0.5343  0.7983  0.4517
  770MOL0     C 1565   5.670  11.185   1.936  0.2502 -1.2701 -0.5000
  770MOL0     O 1566   5.728  11.149   2.061  0.0174 -0.1971  1.3474
  770MOL0     C 1567   5.710  11.239   2.166  0.1959 -0.6359 -0.4633
  770MOL0     C 1568   5.781  11.370   2.146  0.5797 -0.3229  0.3111
  770MOL0     C 1569   5.784  11.449   2.273 -0.7437  0.4224 -0.0369
  770MOL0     C 1570   5.904  11.443   2.369 -0.2092  0.0145  0.3487
  770MOL0     C 1571   5.964  11.309   2.370  0.4165  0.7139 -0.5085
  770MOL0     C 1572   6.006  11.192   2.374 -0.0012  0.0602  0.2027
  770MOL0     C 1573   5.562  11.271   1.922 -0.3486  0.3172  0.1664
  770MOL0     C 1574   5.517  11.306   1.797  0.0136 -0.3932  0.3085
  770MOL0     H 1575   5.429  11.273   1.282  1.6796 -1.3410 -0.1792
  770MOL0     H 1576   5.402  11.424   1.075 -0.1937 -0.7137 -0.0001
  770MOL0     H 1577   5.382  11.607   0.929 -0.9067 -0.0772 -1.8104
  770MOL0     H 1578   5.481  11.490   0.850 -4.0302 -0.0436 -0.8898
  770MOL0     H 1579   5.426  11.776   0.816 -0.2437  0.1547  1.8097
  770MOL0     H 1580   5.477  11.649   0.699 -0.7987  1.8445 -0.4990
  770MOL0     H 1581   5.651  11.822   0.864 -4.0679 -1.5244  1.5522
  770MOL0     H 1582   5.638  11.826   0.689 -1.0715 -2.4802 -1.4520
  770MOL0     H 1583   5.784  11.610   0.847  0.8919 -0.4688  0.7087
  770MOL0     H 1584   5.757  11.615   0.666  0.3565  0.7361 -0.6477
  770MOL0     H 1585   5.882  11.843   0.707 -0.0605  1.3768  2.2461
  770MOL0     H 1586   5.979  11.695   0.706  0.8474  1.2193 -1.1909
  770MOL0     H 1587   5.874  11.825   0.968  0.8090 -1.9532  2.8274
  770MOL0     H 1588   6.022  11.866   0.881  2.0530 -2.7387 -0.5648
  770MOL0     H 1589   5.961  11.600   1.005 -0.7382 -0.5230  0.4540
  770MOL0     H 1590   6.102  11.632   0.905 -0.8388  0.3870 -1.9663
  770MOL0     H 1591   6.157  11.838   1.053 -1.2651  0.5630 -0.4818
  770MOL0     H 1592   6.190  11.661   1.084  1.2648  0.9566 -3.0941
  770MOL0     H 1593   6.021  11.970   1.264  0.7884  0.8318  0.5086
  770MOL0     H 1594   5.946  11.928   1.567 -3.1085  0.5973  0.9295
  770MOL0     H 1595   5.815  11.811   1.556 -1.4541 -0.4123 -0.4254
  770MOL0     H 1596   5.694  11.924   1.373  2.0336  1.3683 -3.9998
  770MOL0     H 1597   5.821  12.049   1.369  0.1625  1.5177  1.5350
  770MOL0     H 1598   5.653  12.001   1.616  1.8237 -1.2649  2.0880
  770MOL0     H 1599   5.779  12.122   1.581 -0.3575 -1.2385  0.6607
  770MOL0     H 1600   5.526  12.075   1.437 -0.6630 -0.6032 -0.0460
  770MOL0     H 1601   5.640  12.201   1.401 -0.0862 -1.2496 -0.4762
  770MOL0     H 1602   5.431  12.380   1.738  0.4482  0.8186  0.0676
  770MOL0     H 1603   5.221  12.508   1.705 -0.0074 -0.0409  1.6943
  770MOL0     H 1604   4.783  12.505   1.732  3.0805  0.3779  1.5028
  770MOL0     H 1605   4.621  12.681   1.806  0.1728 -2.2384  0.0347
  770MOL0     H 1606   4.562  13.034   1.922  0.5267  1.9873 -3.4719
  770MOL0     H 1607   4.548  12.854   1.916 -0.2316 -0.6717 -0.4087
  770MOL0     H 1608   4.367  12.855   1.762  1.5150 -0.0728 -3.0355
  770MOL0     H 1609   4.448  12.986   1.677 -0.1781  0.9887  0.2987
  770MOL0     H 1610   4.385  13.150   1.845 -1.6322  0.7219 -0.7662
  770MOL0     H 1611   4.275  13.028   1.922 -1.6944  0.4229 -0.0162
  770MOL0     H 1612   4.219  13.049   1.637 -1.4779 -2.6384  0.6744
  770MOL0     H 1613   4.114  13.065   1.775 -0.5072  2.0040 -0.2797
  770MOL0     H 1614   4.113  13.272   1.623 -0.6859  0.7927  0.9904
  770MOL0     H 1615   4.283  13.294   1.675  0.0785 -0.8990  0.1202
  770MOL0     H 1616   4.047  13.276   1.870 -0.8928  0.7056 -1.2231
  770MOL0     H 1617   4.084  13.424   1.783 -0.9312 -0.6853 -1.5364
  770MOL0     H 1618   4.231  13.275   1.994  1.2383  0.0418 -0.5075
  770MOL0     H 1619   4.325  13.381   1.874  1.2048 -1.3112  1.7147
  770MOL0     H 1620   4.203  13.566   1.960  1.7573  2.4374  3.4049
  770MOL0     H 1621   4.273  13.499   2.098  1.8664 -1.0222 -0.2739
  770MOL0     H 1622   4.847  12.979   1.615 -0.4821 -0.4210 -0.6569
  770MOL0     H 1623   5.012  12.802   1.548 -1.2344  1.3729 -3.4981
  770MOL0     H 1624   5.109  12.237   1.391 -1.0177  2.1588 -0.2380
  770MOL0     H 1625   5.334  12.152   1.382  3.2251  0.5905  0.4542
  770MOL0     H 1626   5.740  11.642   1.202 -0.3845  1.3033 -3.1074
  770MOL0     H 1627   5.773  11.471   1.395  0.6248 -1.8710  0.2257
  770MOL0     H 1628   5.742  11.128   1.619  1.0969  1.9732 -0.5677
  770MOL0     H 1629   5.838  11.098   1.831  1.1324  1.6401 -1.1237
  770MOL0     H 1630   5.750  11.192   2.257  2.1769 -1.1228 -1.5195
  770MOL0     H 1631   5.604  11.256   2.186  0.0516 -1.4514 -0.5130
  770MOL0     H 1632   5.884  11.365   2.110  1.0826 -0.1204  1.6461
  770MOL0     H 1633   5.713  11.420   2.077 -2.1732 -1.1994  2.1810
  770MOL0     H 1634   5.699  11.418   2.335  0.9329  1.5289  2.9682
  770MOL0     H 1635   5.775  11.554   2.244  0.6613 -0.2728 -3.4449
  770MOL0     H 1636   5.988  11.508   2.344  3.0012 -2.7822  3.0209
  770MOL0     H 1637   5.868  11.475   2.467 -0.1035  1.4082 -0.0464
  770MOL0     H 1638   6.046  11.094   2.356  1.1765  0.3107  1.3193
  770MOL0     H 1639   5.504  11.308   2.006 -3.1702 -0.9736 -1.0651
  770MOL0     H 1640   5.439  11.380   1.783 -0.2582 -0.4214  1.5522
  771MOL0     O 1641   9.675   9.183  11.270  0.9069  0.3686  0.6629
  771MOL0     C 1642   9.754   9.276  11.284  0.2578 -0.2894  0.3503
  771MOL0     O 1643   9.749   9.369  11.389 -0.3946 -0.4683  0.5515
  771MOL0     C 1644   9.650   9.358  11.472  0.1220 -0.1819 -1.0675
  771MOL0     C 1645   9.546   9.452  11.467 -0.8981  0.6103  1.4690
  771MOL0     C 1646   9.452   9.454  11.564  0.3543 -0.3037  0.1572
  771MOL0     C 1647   9.444   9.349  11.656  0.5570 -0.3401 -0.6646
  771MOL0     O 1648   9.354   9.344  11.762  0.7278 -0.0671 -0.1349
  771MOL0     C 1649   9.292   9.471  11.797 -0.3082  0.1936 -0.2165
  771MOL0     C 1650   9.242   9.460  11.938 -0.6644 -0.1674 -1.1771
  771MOL0     C 1651   9.361   9.437  12.029  0.2442 -0.2182  0.3460
  771MOL0     C 1652   9.316   9.464  12.162  0.9132 -0.4410  0.5590
  771MOL0     C 1653   9.433   9.444  12.262  1.3020 -0.2198  0.0239
  771MOL0     C 1654   9.384   9.397  12.407 -0.7330 -0.1760 -0.0403
  771MOL0     C 1655   9.332   9.250  12.419  0.1829  0.0803 -0.8462
  771MOL0     C 1656   9.283   9.217  12.556  0.0469  0.2963  0.1201
  771MOL0     N 1657   9.384   9.218  12.660  0.0074  0.3065  0.5744
  771MOL0     C 1658   9.490   9.129  12.675  0.2516 -0.5946  0.4336
  771MOL0     C 1659   9.568   9.173  12.772  0.2034 -0.3722  0.6478
  771MOL0     C 1660   9.699   9.117  12.813  0.4278 -0.7191  0.1901
  771MOL0     C 1661   9.749   9.154  12.945  0.4832 -0.4265 -1.2058
  771MOL0     C 1662   9.891   9.112  12.993  0.2055  0.0483  0.7574
  771MOL0     C 1663   9.930   8.959  12.981  0.1100 -0.2168  0.5178
  771MOL0     O 1664   9.818   8.896  13.043 -0.7225 -0.6702 -0.8447
  771MOL0     C 1665   9.831   8.852  13.177  0.2247 -0.1086  0.2883
  771MOL0     C 1666   9.937   8.894  13.259 -0.1521  0.8152 -0.0768
  771MOL0     C 1667   9.958   8.855  13.397 -0.0247 -0.5258  1.0246
  771MOL0     C 1668   9.863   8.763  13.447  0.3916 -0.2104  0.1190
  771MOL0     C 1669   9.867   8.723  13.596  0.3908  0.6001  0.5823
  771MOL0     O 1670   9.747   8.665  13.635 -0.1329 -0.0560  0.2243
  771MOL0     C 1671   9.737   8.600  13.758 -0.7803  0.4593 -0.0353
  771MOL0     C 1672   9.639   8.638  13.856 -0.3286  0.1809 -0.0873
  771MOL0     C 1673   9.640   8.577  13.985 -0.2176 -0.1386  0.2182
  771MOL0     C 1674   9.722   8.471  14.014  0.9078  0.3302  0.1339
  771MOL0     O 1675   9.698   8.414  14.136 -0.1503  0.6707 -0.5651
  771MOL0     C 1676   9.813   8.351  14.191 -0.1175  0.2522 -0.9982
  771MOL0     C 1677   9.777   8.202  14.167 -0.7584  0.8848  0.0235
  771MOL0     C 1678   9.644   8.162  14.231  0.1032  0.9587 -0.4726
  771MOL0     C 1679   9.647   8.012  14.249 -0.8963 -0.6819  0.5684
  771MOL0     C 1680   9.523   7.964  14.320 -1.2915  0.3081 -0.5073
  771MOL0     C 1681   9.531   7.810  14.336 -0.2727 -0.1764  1.0678
  771MOL0     C 1682   9.392   7.756  14.375 -0.3981 -0.6015 -0.8402
  771MOL0     C 1683   9.407   7.615  14.435  0.1203 -0.5199  0.0369
  771MOL0    Cl 1684   9.244   7.552  14.415 -0.3300  0.1498  0.5022
  771MOL0     C 1685   9.805   8.427  13.914  0.2462 -0.5123 -0.3516
  771MOL0     C 1686   9.829   8.497  13.798  0.1133 -0.0343  0.2253
  771MOL0     O 1687   9.961   8.753  13.667 -0.4494  0.3685 -0.9287
  771MOL0     C 1688   9.752   8.733  13.371  1.2709  0.5915  1.4453
  771MOL0     C 1689   9.738   8.771  13.235  0.7906  0.5115 -0.5851
  771MOL0     N 1690   9.521   9.299  12.809  0.5362  0.0765  0.1585
  771MOL0     N 1691   9.403   9.311  12.752 -0.1011 -0.4896  0.7163
  771MOL0     C 1692   9.531   9.245  11.648 -0.3590  0.7496 -0.0666
  771MOL0     C 1693   9.634   9.249  11.552  0.0500  0.0709 -0.3110
  771MOL0     C 1694   9.846   9.296  11.173  0.6351  0.4158 -0.1582
  771MOL0     C 1695   9.872   9.424  11.121 -0.1189  0.0518  0.6606
  771MOL0     C 1696   9.951   9.448  11.019  0.7076 -0.2426  0.1165
  771MOL0     C 1697  10.003   9.333  10.949  0.3061 -0.6707 -0.1663
  771MOL0     O 1698  10.057   9.363  10.829  0.1405  0.1789 -1.4017
  771MOL0     C 1699  10.176   9.293  10.804  0.7095 -0.4984  0.0143
  771MOL0     C 1700  10.225   9.356  10.673  0.4029  0.4997 -0.2044
  771MOL0     C 1701  10.345   9.281  10.614  0.1931 -0.8302 -0.1119
  771MOL0     C 1702  10.460   9.266  10.706  0.7111  0.3973 -0.1480
  771MOL0     C 1703  10.525   9.397  10.725 -0.2548  0.7413 -0.0063
  771MOL0     C 1704  10.576   9.506  10.753  0.8192 -0.1656  1.2786
  771MOL0     C 1705   9.987   9.206  11.004 -0.3578  0.0486 -0.1121
  771MOL0     C 1706   9.902   9.185  11.115 -0.3176 -0.5869 -0.1183
  771MOL0     H 1707   9.557   9.540  11.403  1.5748 -1.9533 -1.9993
  771MOL0     H 1708   9.373   9.528  11.561 -3.1150 -3.3220  4.3599
  771MOL0     H 1709   9.206   9.490  11.733 -0.0083 -0.5343 -0.8494
  771MOL0     H 1710   9.366   9.551  11.790 -2.6837  2.5805  0.3570
  771MOL0     H 1711   9.169   9.380  11.949 -2.1076  1.4110  2.0131
  771MOL0     H 1712   9.188   9.549  11.969  0.8874  0.4693 -0.1533
  771MOL0     H 1713   9.439   9.505  11.994 -0.7788 -0.0855 -1.8155
  771MOL0     H 1714   9.387   9.334  12.003 -0.6157 -0.7946  1.6268
  771MOL0     H 1715   9.284   9.568  12.152  1.6125 -0.3536 -1.1297
  771MOL0     H 1716   9.228   9.410  12.200  0.7240 -0.8963 -0.4997
  771MOL0     H 1717   9.479   9.542  12.275 -0.4700  0.4198  2.4082
  771MOL0     H 1718   9.502   9.381  12.205 -0.9475 -0.6871 -2.3676
  771MOL0     H 1719   9.298   9.461  12.428 -1.5391  0.8181 -5.0525
  771MOL0     H 1720   9.465   9.418  12.477 -0.6680  1.4866 -0.5640
  771MOL0     H 1721   9.248   9.248  12.349 -2.0616  0.5976  1.6838
  771MOL0     H 1722   9.403   9.176  12.380  0.3211 -0.2504  0.0210
  771MOL0     H 1723   9.233   9.121  12.542 -3.2662  2.2887 -3.7455
  771MOL0     H 1724   9.208   9.295  12.573  1.1556  0.7455  3.8873
  771MOL0     H 1725   9.513   9.040  12.616  0.8300 -0.0444 -0.1887
  771MOL0     H 1726   9.763   9.144  12.729 -2.8129  3.3544 -1.2949
  771MOL0     H 1727   9.687   9.008  12.809 -1.3834 -0.5130 -2.0463
  771MOL0     H 1728   9.679   9.111  13.017  0.1277  3.1289  0.7939
  771MOL0     H 1729   9.749   9.262  12.960 -1.2997 -0.5759  0.4131
  771MOL0     H 1730   9.951   9.171  12.924  0.1813 -1.2463 -0.4053
  771MOL0     H 1731   9.908   9.151  13.094  0.6343 -2.3847  1.6984
  771MOL0     H 1732  10.030   8.924  13.009 -0.8774 -0.8309  3.6953
  771MOL0     H 1733   9.913   8.937  12.875 -2.0247  1.1527  0.5133
  771MOL0     H 1734  10.014   8.961  13.223  0.0948 -0.5076 -2.1564
  771MOL0     H 1735  10.035   8.901  13.458  2.1379  0.6000 -2.2755
  771MOL0     H 1736   9.584   8.730  13.837  0.7459  1.9450  4.1250
  771MOL0     H 1737   9.575   8.630  14.054 -1.5759  1.2259 -2.0170
  771MOL0     H 1738   9.811   8.365  14.300 -0.9229 -1.5924 -0.7499
  771MOL0     H 1739   9.914   8.361  14.150  1.1035 -0.4592  1.5971
  771MOL0     H 1740   9.867   8.153  14.208  0.4952  1.6281 -1.6965
  771MOL0     H 1741   9.786   8.181  14.060 -0.3205 -0.4661  0.2992
  771MOL0     H 1742   9.557   8.193  14.172  1.2229  0.2643 -2.6091
  771MOL0     H 1743   9.640   8.212  14.328  0.4579  2.6481 -1.2775
  771MOL0     H 1744   9.652   7.971  14.147  1.0318 -2.8056  1.4244
  771MOL0     H 1745   9.735   7.976  14.302  0.0827 -0.4565 -0.8311
  771MOL0     H 1746   9.433   7.981  14.260 -1.4592 -1.7508 -0.9096
  771MOL0     H 1747   9.519   8.008  14.420  2.3800 -0.2120  0.0005
  771MOL0     H 1748   9.619   7.787  14.398  2.5919  1.0629 -2.1993
  771MOL0     H 1749   9.564   7.756  14.247  0.3832 -1.5246  2.0947
  771MOL0     H 1750   9.332   7.831  14.427 -0.8803 -0.3362 -1.7442
  771MOL0     H 1751   9.347   7.723  14.281 -0.1305 -3.3454 -0.0829
  771MOL0     H 1752   9.432   7.615  14.542 -2.8800 -1.2451  0.8363
  771MOL0     H 1753   9.478   7.553  14.378  2.0340 -0.8879  2.6243
  771MOL0     H 1754   9.863   8.336  13.926  3.0111  1.4878  4.2618
  771MOL0     H 1755   9.902   8.456  13.728  2.5484 -2.0950  3.6523
  771MOL0     H 1756   9.688   8.662  13.422  2.4974 -0.6252  1.3636
  771MOL0     H 1757   9.646   8.766  13.179 -1.8478  0.3142  3.3926
  771MOL0     H 1758   9.517   9.166  11.722  1.0163  0.7670  0.2330
  771MOL0     H 1759   9.712   9.175  11.536  0.6303 -0.1951  3.1490
  771MOL0     H 1760   9.825   9.515  11.158 -1.6500  0.5104 -2.1369
  771MOL0     H 1761   9.958   9.551  10.987  1.7099 -0.1603  0.5591
  771MOL0     H 1762  10.151   9.189  10.784 -0.7821 -0.3823  1.1125
  771MOL0     H 1763  10.252   9.291  10.882  0.1737 -3.2857  0.5520
  771MOL0     H 1764  10.151   9.358  10.593  1.7118 -1.6753 -1.5567
  771MOL0     H 1765  10.256   9.459  10.693 -2.4397  1.4472 -0.2957
  771MOL0     H 1766  10.380   9.318  10.517 -0.2639 -2.2078 -0.8342
  771MOL0     H 1767  10.330   9.175  10.595  0.8388 -1.1908  1.2524
  771MOL0     H 1768  10.437   9.236  10.808  1.9772 -0.8940 -0.2096
  771MOL0     H 1769  10.540   9.207  10.660 -0.1030  0.0897 -1.1891
  771MOL0     H 1770  10.589   9.609  10.779 -0.4063  0.1928  0.5794
  771MOL0     H 1771  10.028   9.116  10.959 -1.8719 -1.0875  0.6708
  771MOL0     H 1772   9.875   9.087  11.154 -0.8998  0.0989  1.2470
  772MOL0     O 1773   2.724  10.379   0.465 -0.4269 -0.0047  0.8446
  772MOL0     C 1774   2.712  10.309   0.369 -1.0594  0.0702 -0.2663
  772MOL0     O 1775   2.600  10.268   0.312 -0.4427  0.0163  0.5177
  772MOL0     C 1776   2.475  10.320   0.350 -1.0202  0.8075  0.0875
  772MOL0     C 1777   2.378  10.216   0.339  0.6967 -0.5256 -0.1357
  772MOL0     C 1778   2.245  10.245   0.371  0.5756  0.6160  0.0664
  772MOL0     C 1779   2.212  10.374   0.418 -0.8844  0.1351 -1.0998
  772MOL0     O 1780   2.094  10.410   0.490 -0.1484  0.1883  0.7251
  772MOL0     C 1781   2.014  10.302   0.531  0.1746  0.6937 -0.1719
  772MOL0     C 1782   1.932  10.349   0.650  1.1159 -0.2125  0.1470
  772MOL0     C 1783   2.004  10.303   0.783  0.1025  0.2421  0.5093
  772MOL0     C 1784   1.971  10.172   0.848  0.2651  0.5065 -0.3805
  772MOL0     C 1785   2.035  10.165   0.993  0.0906  0.8551  0.4403
  772MOL0     C 1786   2.030  10.032   1.063  0.0708 -0.5579 -0.2928
  772MOL0     C 1787   2.069  10.047   1.213 -0.8819  0.5232  0.3712
  772MOL0     C 1788   2.063   9.911   1.273 -0.2360 -0.2020  0.0061
  772MOL0     N 1789   2.131   9.905   1.405 -0.7390  0.2086  0.4142
  772MOL0     C 1790   2.267   9.909   1.431  0.1925  0.2532 -0.1428
  772MOL0     C 1791   2.281   9.906   1.563  0.4122 -0.0591  0.4570
  772MOL0     C 1792   2.410   9.907   1.639  0.2356  0.0465  0.2393
  772MOL0     C 1793   2.501  10.029   1.615  0.7349  0.7511 -0.1425
  772MOL0     C 1794   2.627  10.049   1.700  0.4861  1.1207 -0.1268
  772MOL0     C 1795   2.710   9.926   1.734  0.8178  0.7044 -0.0225
  772MOL0     O 1796   2.806   9.937   1.838 -0.0486 -0.5221 -0.1963
  772MOL0     C 1797   2.895  10.040   1.809  0.0635 -0.2676 -0.3614
  772MOL0     C 1798   2.895  10.156   1.881  0.2586  0.9789  0.8136
  772MOL0     C 1799   2.989  10.258   1.853  0.6880  0.3549  0.0962
  772MOL0     C 1800   3.079  10.247   1.742 -0.4299 -0.1653 -0.0301
  772MOL0     C 1801   3.182  10.353   1.711 -0.2953 -0.0946  0.0798
  772MOL0     O 1802   3.183  10.414   1.582  0.1257  0.0641  0.4133
  772MOL0     C 1803   3.312  10.446   1.527 -0.3185  0.0987  0.6348
  772MOL0     C 1804   3.439  10.388   1.559 -0.6225 -0.5544  0.0726
  772MOL0     C 1805   3.559  10.451   1.520 -0.4917  0.1600  0.9147
  772MOL0     C 1806   3.558  10.572   1.444  0.6154 -1.1962 -0.3133
  772MOL0     O 1807   3.674  10.626   1.395  0.4316  0.4985  0.1678
  772MOL0     C 1808   3.803  10.572   1.426  0.2907 -0.0737  0.4793
  772MOL0     C 1809   3.897  10.634   1.327 -0.5708 -0.8613 -0.5780
  772MOL0     C 1810   4.052  10.649   1.380  0.9135 -1.4051 -0.1212
  772MOL0     C 1811   4.134  10.524   1.369  0.1726 -0.0781 -0.9211
  772MOL0     C 1812   4.269  10.548   1.452 -0.1736 -0.9861  0.7591
  772MOL0     C 1813   4.368  10.430   1.411  0.3090  0.0821 -0.5911
  772MOL0     C 1814   4.509  10.463   1.461  0.2441  0.2837  0.5596
  772MOL0     C 1815   4.596  10.344   1.423 -0.5455 -0.0956 -0.0617
  772MOL0    Cl 1816   4.699  10.318   1.567 -0.3400 -0.4347  0.4393
  772MOL0     C 1817   3.433  10.616   1.405 -0.1857  0.7312  0.3566
  772MOL0     C 1818   3.321  10.552   1.446 -0.1816 -0.1263 -0.1332
  772MOL0     O 1819   3.255  10.385   1.802 -0.2908 -0.5232 -0.4191
  772MOL0     C 1820   3.078  10.129   1.667  0.6606 -0.4966 -0.2106
  772MOL0     C 1821   2.983  10.027   1.695 -0.1610 -0.1913 -0.7230
  772MOL0     N 1822   2.152   9.895   1.605 -0.7916  0.3436 -0.3257
  772MOL0     N 1823   2.065   9.879   1.517  0.4167 -0.5524 -0.3598
  772MOL0     C 1824   2.311  10.477   0.412 -0.1565  0.4726  1.7050
  772MOL0     C 1825   2.446  10.447   0.381  0.1291 -0.3055 -0.4865
  772MOL0     C 1826   2.837  10.243   0.317  0.2084 -0.6454 -0.4033
  772MOL0     C 1827   2.971  10.263   0.361 -0.8886 -0.1465 -0.0630
  772MOL0     C 1828   3.081  10.191   0.310 -0.8722  0.0320  0.3661
  772MOL0     C 1829   3.060  10.078   0.220 -0.0462  0.0318  0.4031
  772MOL0     O 1830   3.172  10.014   0.178  0.6835 -0.2179 -0.2140
  772MOL0     C 1831   3.161   9.878   0.142  0.1404  0.0190  0.0399
  772MOL0     C 1832   3.292   9.821   0.079 -0.1979  1.2227  0.0996
  772MOL0     C 1833   3.292   9.675   0.043  0.1908 -0.5458 -0.8539
  772MOL0     C 1834   3.417   9.637  -0.051  1.3714  0.6481  0.4069
  772MOL0     C 1835   3.435   9.485  -0.038  0.3757 -0.9623  0.6113
  772MOL0     C 1836   3.472   9.376  -0.062 -0.1052 -0.5165  0.2428
  772MOL0     C 1837   2.926  10.054   0.180 -0.1258  0.4772 -1.1153
  772MOL0     C 1838   2.817  10.130   0.234 -0.2627 -0.3612 -0.2314
  772MOL0     H 1839   2.408  10.122   0.293  1.6073 -1.2308  1.8019
  772MOL0     H 1840   2.182  10.156   0.369 -0.9697  1.6206  1.2559
  772MOL0     H 1841   2.061  10.205   0.551 -2.6133 -1.2210 -2.2030
  772MOL0     H 1842   1.938  10.294   0.453 -2.2709 -1.2563  2.2006
  772MOL0     H 1843   1.839  10.292   0.649 -0.2221  1.8161  1.3376
  772MOL0     H 1844   1.913  10.456   0.640  2.7174  0.0200 -0.6662
  772MOL0     H 1845   1.985  10.383   0.855 -1.5194  0.8913 -0.5682
  772MOL0     H 1846   2.112  10.297   0.765 -0.2232 -5.1735 -1.2512
  772MOL0     H 1847   1.865  10.152   0.865  0.6428 -1.2409  0.1296
  772MOL0     H 1848   2.007  10.093   0.781 -0.6531 -1.4413  1.3089
  772MOL0     H 1849   1.992  10.251   1.045 -0.9650 -1.5865  3.9851
  772MOL0     H 1850   2.143  10.169   0.974  0.5468 -6.2350 -1.0613
  772MOL0     H 1851   2.107   9.966   1.022  5.0001  3.0114  2.1892
  772MOL0     H 1852   1.928   9.993   1.057  0.1875 -0.6677 -3.2056
  772MOL0     H 1853   2.170  10.086   1.220 -0.8117  0.0984  2.6587
  772MOL0     H 1854   2.001  10.116   1.264  2.2213  1.7599  3.1485
  772MOL0     H 1855   2.120   9.840   1.212  2.6298 -0.1735  2.4246
  772MOL0     H 1856   1.959   9.878   1.273 -0.3856  0.1056  2.3076
  772MOL0     H 1857   2.337   9.919   1.348 -0.4793 -0.4197 -0.8011
  772MOL0     H 1858   2.468   9.821   1.604  1.0102 -1.1010  3.8958
  772MOL0     H 1859   2.387   9.901   1.745  1.5810 -0.2309  0.5402
  772MOL0     H 1860   2.444  10.119   1.642 -0.3181  0.2776 -0.7165
  772MOL0     H 1861   2.524  10.033   1.508 -0.6368  1.5826 -0.4403
  772MOL0     H 1862   2.695  10.109   1.639 -0.9966 -0.4262 -3.6074
  772MOL0     H 1863   2.603  10.103   1.792 -0.7025  0.3583  0.0419
  772MOL0     H 1864   2.762   9.895   1.643  1.3292  0.9742  0.1705
  772MOL0     H 1865   2.633   9.854   1.762 -0.5325  2.1695  0.2031
  772MOL0     H 1866   2.845  10.160   1.978  0.4155  2.6440  0.8421
  772MOL0     H 1867   2.992  10.339   1.926 -1.8376 -1.0585  1.9256
  772MOL0     H 1868   3.444  10.300   1.623 -0.9570 -0.6877 -0.0864
  772MOL0     H 1869   3.650  10.404   1.555  0.8027  0.6925 -1.5111
  772MOL0     H 1870   3.805  10.467   1.396 -2.0125  0.1723 -0.7512
  772MOL0     H 1871   3.845  10.588   1.526  2.4551  3.2040 -0.7655
  772MOL0     H 1872   3.850  10.732   1.319 -0.4393 -0.6002  1.2745
  772MOL0     H 1873   3.888  10.598   1.224  1.3078 -0.1807 -1.0130
  772MOL0     H 1874   4.049  10.681   1.485 -0.6395  0.8911 -0.7861
  772MOL0     H 1875   4.097  10.730   1.322 -0.2744 -0.8459 -0.3081
  772MOL0     H 1876   4.078  10.437   1.406 -0.5157  0.9970  0.6829
  772MOL0     H 1877   4.161  10.502   1.265 -0.1971 -1.3083 -0.7720
  772MOL0     H 1878   4.246  10.566   1.558  3.4568  1.9354  1.2363
  772MOL0     H 1879   4.315  10.643   1.425  1.2391 -0.8693  3.2801
  772MOL0     H 1880   4.359  10.410   1.304  0.0217 -0.5408 -0.4562
  772MOL0     H 1881   4.344  10.338   1.466  0.9209 -0.3932 -1.1053
  772MOL0     H 1882   4.538  10.560   1.419  0.7897  0.0043  0.2685
  772MOL0     H 1883   4.496  10.472   1.569  0.0686  0.2287  0.5438
  772MOL0     H 1884   4.650  10.363   1.330 -2.4590 -1.1553 -1.4690
  772MOL0     H 1885   4.543  10.258   1.382  0.8511 -0.6443 -0.7911
  772MOL0     H 1886   3.431  10.705   1.344 -3.5775  1.0468  0.7507
  772MOL0     H 1887   3.230  10.596   1.408  0.5962  1.0996 -0.6506
  772MOL0     H 1888   3.135  10.119   1.575 -0.4380  0.7852 -1.0643
  772MOL0     H 1889   2.996   9.943   1.628  0.3493  1.0327 -2.2008
  772MOL0     H 1890   2.273  10.578   0.420 -2.1900  0.1202 -1.5265
  772MOL0     H 1891   2.525  10.522   0.387 -0.0409 -0.2113  2.6789
  772MOL0     H 1892   2.987  10.346   0.429 -0.2157 -1.9266  2.0556
  772MOL0     H 1893   3.183  10.214   0.340 -1.2222  2.2950 -0.0197
  772MOL0     H 1894   3.079   9.872   0.069 -0.2364  0.9687  0.3715
  772MOL0     H 1895   3.140   9.815   0.229  3.5834  0.2788  1.1776
  772MOL0     H 1896   3.306   9.873  -0.016  0.2309 -3.7513 -2.9039
  772MOL0     H 1897   3.366   9.842   0.158 -0.0596 -2.0877  1.0058
  772MOL0     H 1898   3.194   9.655  -0.003 -1.0544  1.4153  0.7549
  772MOL0     H 1899   3.279   9.609   0.129  0.6974  0.8005  0.2818
  772MOL0     H 1900   3.402   9.671  -0.154  0.1134  0.2224  0.4228
  772MOL0     H 1901   3.497   9.695  -0.006  2.6533 -1.3867  0.9072
  772MOL0     H 1902   3.506   9.276  -0.079 -0.4991 -0.4020 -1.3242
  772MOL0     H 1903   2.901   9.978   0.107  2.2863 -3.5161  1.7844
  772MOL0     H 1904   2.725  10.111   0.181 -1.1144 -0.1877  1.1231
  773MOL0     O 1905  11.454   8.801   5.540  0.4153 -0.3634  0.2639
  773MOL0     C 1906  11.439   8.896   5.465  0.9834  0.0787  0.5533
  773MOL0     O 1907  11.471   8.898   5.327 -0.0113  0.1829 -0.3465
  773MOL0     C 1908  11.540   8.794   5.266  0.6832 -0.0079 -0.2437
  773MOL0     C 1909  11.510   8.659   5.278  0.3542  0.7272 -1.2857
  773MOL0     C 1910  11.582   8.556   5.215 -0.1490 -1.2547 -0.0232
  773MOL0     C 1911  11.684   8.588   5.119  0.2471 -0.3713  0.7010
  773MOL0     O 1912  11.754   8.509   5.026 -0.4663  0.1274 -0.0033
  773MOL0     C 1913  11.716   8.378   5.016  0.4798 -0.0531 -0.5697
  773MOL0     C 1914  11.820   8.304   4.944 -0.5630 -0.2098 -0.6538
  773MOL0     C 1915  11.840   8.343   4.799 -0.9490 -0.7620  0.8990
  773MOL0     C 1916  11.988   8.335   4.755 -0.3156  0.0889 -0.3696
  773MOL0     C 1917  12.011   8.366   4.602 -0.2943  0.9568  0.0953
  773MOL0     C 1918  12.039   8.510   4.562  0.3410 -0.1699  0.1049
  773MOL0     C 1919  12.112   8.516   4.426  0.4353 -0.6820  0.2109
  773MOL0     C 1920  12.139   8.664   4.386  0.0524  0.2828 -0.1836
  773MOL0     N 1921  12.220   8.684   4.262  0.0735 -0.3423 -0.8759
  773MOL0     C 1922  12.349   8.665   4.272 -0.7130  0.5159  0.9466
  773MOL0     C 1923  12.392   8.636   4.148  0.2786  0.0517 -0.2275
  773MOL0     C 1924  12.532   8.657   4.102 -0.0354 -0.3724  0.1835
  773MOL0     C 1925  12.592   8.513   4.112 -0.5342 -0.5863 -1.1445
  773MOL0     C 1926  12.744   8.498   4.071  0.0961 -0.6205  1.5501
  773MOL0     C 1927  12.838   8.579   4.159  0.3068 -0.5540  1.0112
  773MOL0     O 1928  12.958   8.508   4.171  0.1550  0.2048 -0.0394
  773MOL0     C 1929  13.058   8.567   4.237 -0.1028 -0.4872  0.7444
  773MOL0     C 1930  13.139   8.481   4.313 -0.3861 -0.4947  0.5275
  773MOL0     C 1931  13.253   8.513   4.390  0.1705 -1.1329  0.2638
  773MOL0     C 1932  13.291   8.651   4.381 -0.1883 -0.6765  0.0988
  773MOL0     C 1933  13.417   8.712   4.444  0.9863 -0.7151  0.5626
  773MOL0     O 1934  13.447   8.844   4.415 -0.6860 -0.2979 -0.1980
  773MOL0     C 1935  13.546   8.907   4.492 -1.0794  0.7033  0.1834
  773MOL0     C 1936  13.514   8.998   4.591 -0.8844 -0.4842  0.4228
  773MOL0     C 1937  13.621   9.073   4.660 -0.4827 -0.0799 -0.1837
  773MOL0     C 1938  13.754   9.024   4.648  0.0923  0.0474  0.7605
  773MOL0     O 1939  13.854   9.067   4.726  0.1419 -0.6288 -0.4116
  773MOL0     C 1940  13.833   9.152   4.840 -0.5464  1.0922  0.0022
  773MOL0     C 1941  13.974   9.205   4.885  0.9216  0.2417  0.5265
  773MOL0     C 1942  13.993   9.354   4.941  0.7204  0.0031  0.1722
  773MOL0     C 1943  13.899   9.386   5.060 -0.0692  0.1511 -0.7373
  773MOL0     C 1944  13.933   9.318   5.186 -0.5636 -0.1547 -0.1289
  773MOL0     C 1945  14.057   9.393   5.247  0.5464  0.2968 -0.2981
  773MOL0     C 1946  14.077   9.326   5.389  1.7562  0.7362  0.5730
  773MOL0     C 1947  14.181   9.390   5.464 -0.3574 -0.2628  0.3396
  773MOL0    Cl 1948  14.195   9.326   5.635 -0.1555  0.0693 -0.1477
  773MOL0     C 1949  13.784   8.926   4.558  0.1794 -0.0380 -0.1797
  773MOL0     C 1950  13.685   8.869   4.475  0.8455  0.2985  0.6871
  773MOL0     O 1951  13.490   8.638   4.507  0.4339  0.2728 -0.2797
  773MOL0     C 1952  13.217   8.744   4.295 -0.9095 -0.1142  0.5021
  773MOL0     C 1953  13.110   8.702   4.223 -0.7641  0.2274  0.6351
  773MOL0     N 1954  12.277   8.646   4.073 -0.3312 -1.0335  0.1656
  773MOL0     N 1955  12.171   8.669   4.135  0.4128  1.2041 -0.0224
  773MOL0     C 1956  11.705   8.725   5.101  0.3980 -1.1599 -0.7121
  773MOL0     C 1957  11.638   8.820   5.171  1.3970 -0.5218 -0.6014
  773MOL0     C 1958  11.362   9.008   5.514  0.5017  0.6204  0.0945
  773MOL0     C 1959  11.288   9.097   5.431 -0.3161  0.2346  0.4910
  773MOL0     C 1960  11.226   9.205   5.489  0.3629  0.1933  0.3341
  773MOL0     C 1961  11.232   9.233   5.625  0.8651  0.5731 -1.1586
  773MOL0     O 1962  11.172   9.334   5.694 -0.0561  0.0196  0.0992
  773MOL0     C 1963  11.222   9.460   5.696 -0.4264  0.6214  0.1242
  773MOL0     C 1964  11.218   9.522   5.836 -0.1152 -0.3401  0.0131
  773MOL0     C 1965  11.294   9.657   5.835 -0.4881 -0.3446 -0.6355
  773MOL0     C 1966  11.310   9.709   5.984  0.1773 -0.2587  0.6439
  773MOL0     C 1967  11.275   9.848   6.001  0.1145  0.1364  0.5043
  773MOL0     C 1968  11.265   9.968   6.045  0.6885 -0.0884 -0.1998
  773MOL0     C 1969  11.274   9.136   5.705  0.1011 -0.7778 -0.3566
  773MOL0     C 1970  11.334   9.021   5.654  0.1984  0.0402  0.0677
  773MOL0     H 1971  11.443   8.628   5.357  2.0493 -0.4491 -0.2366
  773MOL0     H 1972  11.538   8.456   5.220  1.4285 -2.0027 -0.4213
  773MOL0     H 1973  11.621   8.367   4.962  1.4021 -0.6490 -2.1198
  773MOL0     H 1974  11.698   8.343   5.118 -1.1281  3.0121  0.3432
  773MOL0     H 1975  11.790   8.199   4.940 -3.7373  0.4630  1.7605
  773MOL0     H 1976  11.914   8.303   5.000 -0.3656 -2.8290 -0.8983
  773MOL0     H 1977  11.799   8.443   4.783 -2.6280 -1.6703 -0.7480
  773MOL0     H 1978  11.781   8.287   4.726  0.2669  1.9190 -2.3880
  773MOL0     H 1979  12.040   8.414   4.811  0.8927  1.0909 -2.7435
  773MOL0     H 1980  12.025   8.236   4.782 -0.1888  0.0074 -0.8251
  773MOL0     H 1981  11.925   8.332   4.544  1.8280 -0.1917 -2.5734
  773MOL0     H 1982  12.094   8.298   4.583  0.0876  1.2277  0.7566
  773MOL0     H 1983  12.096   8.553   4.645 -2.6097 -3.1126  4.0151
  773MOL0     H 1984  11.944   8.562   4.555  2.1562  3.5528  0.7664
  773MOL0     H 1985  12.195   8.445   4.422  0.9547 -0.0891  0.2363
  773MOL0     H 1986  12.042   8.478   4.351  0.3275 -0.2039  0.0639
  773MOL0     H 1987  12.193   8.706   4.472  0.4634  1.2116 -0.8828
  773MOL0     H 1988  12.042   8.714   4.380  0.3143  0.8306  0.0347
  773MOL0     H 1989  12.410   8.683   4.361  2.4149  0.7257 -1.0607
  773MOL0     H 1990  12.583   8.724   4.172  0.6197 -0.9993  0.3024
  773MOL0     H 1991  12.539   8.709   4.006  0.1009  1.1520  0.9749
  773MOL0     H 1992  12.530   8.438   4.063 -1.4558 -0.1710 -0.6406
  773MOL0     H 1993  12.591   8.491   4.220  0.9534  1.8268 -0.5612
  773MOL0     H 1994  12.763   8.393   4.092 -1.3694 -0.3607  4.6632
  773MOL0     H 1995  12.762   8.519   3.965  0.7056 -6.5896  0.1046
  773MOL0     H 1996  12.796   8.579   4.260 -0.5106 -3.0450  0.7353
  773MOL0     H 1997  12.846   8.680   4.118  1.8172 -0.7135  0.8429
  773MOL0     H 1998  13.100   8.381   4.328 -0.5942 -0.5351 -0.2582
  773MOL0     H 1999  13.313   8.438   4.440 -0.6201 -2.7398 -1.1145
  773MOL0     H 2000  13.411   9.030   4.606 -0.3411  0.8363  1.4833
  773MOL0     H 2001  13.596   9.159   4.722 -0.8260  1.7501 -2.7009
  773MOL0     H 2002  13.782   9.100   4.922 -1.7143  1.0292 -0.7484
  773MOL0     H 2003  13.782   9.240   4.801 -3.4795  0.3835  1.9170
  773MOL0     H 2004  14.038   9.190   4.798 -1.0389 -0.0564 -0.9202
  773MOL0     H 2005  14.014   9.137   4.961  0.9291  0.4647  0.7232
  773MOL0     H 2006  13.971   9.432   4.867 -3.9508 -0.0191  1.2392
  773MOL0     H 2007  14.093   9.380   4.976  0.9740 -1.4261  0.5626
  773MOL0     H 2008  13.900   9.492   5.084  2.2103  0.1623 -0.7118
  773MOL0     H 2009  13.795   9.360   5.036 -1.2789  0.5475  3.2604
  773MOL0     H 2010  13.952   9.211   5.173  0.8165  0.0031  0.5106
  773MOL0     H 2011  13.856   9.324   5.263 -2.0026  2.0225 -1.6134
  773MOL0     H 2012  14.027   9.498   5.260  0.3066  0.1519  0.4008
  773MOL0     H 2013  14.147   9.385   5.185  2.3370  3.9773  1.4649
  773MOL0     H 2014  13.988   9.342   5.451  1.3852  1.2217 -0.0675
  773MOL0     H 2015  14.104   9.220   5.390  2.9890  0.9995  3.4138
  773MOL0     H 2016  14.152   9.494   5.483  4.1086  1.3557 -0.5301
  773MOL0     H 2017  14.275   9.376   5.409 -2.0690 -1.1438 -2.5879
  773MOL0     H 2018  13.888   8.897   4.549  1.2911  3.3663  0.2907
  773MOL0     H 2019  13.716   8.786   4.412 -1.1338 -1.8569  2.3771
  773MOL0     H 2020  13.247   8.845   4.268  1.3001 -0.2294  2.2589
  773MOL0     H 2021  13.077   8.762   4.138 -0.3638 -0.7592 -0.2380
  773MOL0     H 2022  11.769   8.753   5.017  0.2724 -1.3553 -0.8733
  773MOL0     H 2023  11.654   8.926   5.157  1.2429 -0.0447  2.2681
  773MOL0     H 2024  11.283   9.084   5.324 -0.1722  0.6103  0.4373
  773MOL0     H 2025  11.175   9.282   5.432  1.1792 -2.4612 -4.4560
  773MOL0     H 2026  11.167   9.519   5.622  2.1003 -0.1672 -2.5971
  773MOL0     H 2027  11.326   9.454   5.665  0.2729 -1.9382  2.5364
  773MOL0     H 2028  11.116   9.554   5.859 -0.8835 -0.7066 -2.5533
  773MOL0     H 2029  11.248   9.455   5.917  1.8011  0.9171  0.4174
  773MOL0     H 2030  11.248   9.738   5.778  1.7197  0.0789 -1.9373
  773MOL0     H 2031  11.391   9.644   5.784  0.7010 -0.5023  1.5473
  773MOL0     H 2032  11.242   9.656   6.052 -2.2708  3.7583  1.7064
  773MOL0     H 2033  11.414   9.707   6.018 -0.0135  3.0871  1.8044
  773MOL0     H 2034  11.254  10.065   6.088 -1.9690 -1.0040  1.4218
  773MOL0     H 2035  11.263   9.161   5.810  2.0446  1.7109 -0.6401
  773MOL0     H 2036  11.375   8.943   5.718 -1.8920  0.3268  1.8727
  774MOL0     O 2037   1.218   7.989   7.625  0.0456  0.7180  0.3340
  774MOL0     C 2038   1.145   7.893   7.621  0.6720  0.2838 -0.1280
  774MOL0     O 2039   1.142   7.793   7.724 -0.2246  0.5890  0.3971
  774MOL0     C 2040   1.228   7.788   7.824  0.4754  0.2169  0.1123
  774MOL0     C 2041   1.237   7.894   7.917  0.1445 -0.6026  0.7079
  774MOL0     C 2042   1.327   7.891   8.022  0.7996 -0.2876 -0.8418
  774MOL0     C 2043   1.401   7.775   8.048  0.2087  0.7414  0.9039
  774MOL0     O 2044   1.478   7.760   8.155 -0.0734  0.5842  0.0796
  774MOL0     C 2045   1.407   7.727   8.285  0.3230  0.5341  0.5940
  774MOL0     C 2046   1.513   7.769   8.395  0.2650 -0.0978 -0.0946
  774MOL0     C 2047   1.450   7.755   8.531 -1.1560  0.5958 -0.1639
  774MOL0     C 2048   1.554   7.820   8.633 -0.2597 -1.4258 -0.1120
  774MOL0     C 2049   1.525   7.774   8.770 -0.1332 -0.4892 -0.4293
  774MOL0     C 2050   1.651   7.778   8.863  0.4874 -0.5958 -0.0196
  774MOL0     C 2051   1.729   7.914   8.872  0.3011  0.6383  0.4524
  774MOL0     C 2052   1.818   7.929   8.996 -0.8211 -0.2633  0.3931
  774MOL0     N 2053   1.880   8.055   8.998 -0.2082 -0.4990  0.7308
  774MOL0     C 2054   1.841   8.170   9.069 -0.1225 -0.0288  0.6590
  774MOL0     C 2055   1.944   8.253   9.043 -0.0561  0.5649 -0.1871
  774MOL0     C 2056   1.950   8.401   9.097 -1.2846  0.3219 -0.7893
  774MOL0     C 2057   1.908   8.510   8.999 -0.2372 -0.4920 -0.1347
  774MOL0     C 2058   1.761   8.479   8.941 -0.1889  0.6043 -0.2166
  774MOL0     C 2059   1.647   8.486   9.034  0.5900 -0.9227 -0.2617
  774MOL0     O 2060   1.518   8.467   8.972 -0.6967 -0.4881  0.2948
  774MOL0     C 2061   1.445   8.576   8.925 -1.0157  0.1153 -0.6935
  774MOL0     C 2062   1.398   8.567   8.793  0.5277 -0.1489  0.1546
  774MOL0     C 2063   1.313   8.664   8.742 -0.7214 -0.0035 -0.2799
  774MOL0     C 2064   1.261   8.766   8.830  0.3026  0.2623  1.4919
  774MOL0     C 2065   1.147   8.863   8.794 -0.5881 -1.0787  0.1932
  774MOL0     O 2066   1.075   8.910   8.884 -0.3231  0.1232 -0.4901
  774MOL0     C 2067   0.944   8.954   8.861  0.0839 -0.2525 -0.5656
  774MOL0     C 2068   0.863   8.901   8.763 -0.2863 -0.1466  0.7443
  774MOL0     C 2069   0.731   8.932   8.746 -0.0408  1.1925  0.5100
  774MOL0     C 2070   0.679   9.035   8.818 -0.0577  0.3626 -0.1615
  774MOL0     O 2071   0.553   9.088   8.803  0.4855  0.3110  0.4985
  774MOL0     C 2072   0.441   9.003   8.758 -0.4502  0.5648 -0.4756
  774MOL0     C 2073   0.312   9.084   8.746  0.1812  0.2417  0.3845
  774MOL0     C 2074   0.275   9.154   8.871  0.4748  0.2308  0.1035
  774MOL0     C 2075   0.153   9.248   8.850 -0.8765  0.3068  0.6931
  774MOL0     C 2076   0.166   9.366   8.742  0.4656  1.1325  0.4297
  774MOL0     C 2077   0.306   9.432   8.719  0.7151  0.6739  0.0639
  774MOL0     C 2078   0.373   9.498   8.839  1.1443 -0.1152  0.2252
  774MOL0     C 2079   0.523   9.470   8.845  0.2278  0.1879  0.2270
  774MOL0    Cl 2080   0.597   9.559   8.706  0.1636  0.4320  0.4140
  774MOL0     C 2081   0.768   9.108   8.909 -0.1501 -0.2021 -0.3201
  774MOL0     C 2082   0.899   9.062   8.935  0.2587  1.6368 -0.0624
  774MOL0     O 2083   1.143   8.887   8.673  0.1273  0.3069  0.8866
  774MOL0     C 2084   1.305   8.772   8.962  0.1223 -1.2262 -0.1772
  774MOL0     C 2085   1.405   8.688   9.005 -1.3543 -0.0387  0.4481
  774MOL0     N 2086   2.045   8.185   8.973  0.7061  0.4271 -0.0202
  774MOL0     N 2087   2.013   8.067   8.945 -0.3146  0.9752  0.4696
  774MOL0     C 2088   1.382   7.670   7.961  0.2572  0.3242  0.0972
  774MOL0     C 2089   1.299   7.679   7.851  0.3887  0.1156 -0.0034
  774MOL0     C 2090   1.055   7.901   7.501 -0.4911  0.5276 -0.9026
  774MOL0     C 2091   0.963   7.804   7.495  0.2486  0.0214 -0.1926
  774MOL0     C 2092   0.866   7.804   7.389 -0.4403  0.0947 -0.5952
  774MOL0     C 2093   0.858   7.898   7.294 -0.8262  0.5027 -0.2448
  774MOL0     O 2094   0.765   7.912   7.198  0.6182  0.3593 -0.3360
  774MOL0     C 2095   0.717   7.786   7.136  1.1352  0.2500  0.2150
  774MOL0     C 2096   0.671   7.807   6.991  0.0469  1.0628 -0.6138
  774MOL0     C 2097   0.771   7.879   6.912 -0.0494 -0.0086 -0.6042
  774MOL0     C 2098   0.717   7.905   6.770 -0.6912  0.5351  0.8497
  774MOL0     C 2099   0.803   8.000   6.688  0.4371 -0.1895 -0.0025
  774MOL0     C 2100   0.866   8.066   6.609 -0.5978 -0.4989  0.1486
  774MOL0     C 2101   0.953   8.003   7.302  0.2748 -0.5092 -0.2930
  774MOL0     C 2102   1.045   8.011   7.409  0.0803  0.1273  0.1434
  774MOL0     H 2103   1.186   7.987   7.894  2.6973  1.0577  1.2263
  774MOL0     H 2104   1.343   7.988   8.067 -0.2109 -0.5794  0.1955
  774MOL0     H 2105   1.391   7.619   8.289 -2.3649  0.8803  1.2773
  774MOL0     H 2106   1.312   7.781   8.292  1.0890  1.9634  0.3526
  774MOL0     H 2107   1.540   7.871   8.367 -0.4924  0.4187  1.0059
  774MOL0     H 2108   1.601   7.704   8.392  2.4690  2.6058  1.4230
  774MOL0     H 2109   1.411   7.655   8.553 -0.2676  0.3183  0.1996
  774MOL0     H 2110   1.352   7.804   8.534 -0.9405  1.1876 -1.7295
  774MOL0     H 2111   1.655   7.789   8.603  0.8584  1.2535  0.5536
  774MOL0     H 2112   1.547   7.929   8.627  1.0187 -1.2964  0.3718
  774MOL0     H 2113   1.493   7.670   8.768 -3.7593  0.4228  1.7796
  774MOL0     H 2114   1.440   7.821   8.820 -0.8145 -3.7824  1.8202
  774MOL0     H 2115   1.719   7.698   8.832 -0.8778 -2.8732  2.4814
  774MOL0     H 2116   1.617   7.734   8.957 -1.8778 -3.7883 -2.1570
  774MOL0     H 2117   1.787   7.929   8.781 -2.3795  1.8670 -1.1844
  774MOL0     H 2118   1.652   7.992   8.869  0.4260  0.7745 -2.9011
  774MOL0     H 2119   1.902   7.859   8.998 -0.3495  0.3174  1.5851
  774MOL0     H 2120   1.752   7.925   9.083 -1.1068 -0.2411  0.1816
  774MOL0     H 2121   1.753   8.175   9.132  1.3526 -0.1169  2.8485
  774MOL0     H 2122   2.056   8.428   9.105 -1.1967  1.2549 -3.9268
  774MOL0     H 2123   1.900   8.401   9.194 -0.1334 -2.8102 -0.0670
  774MOL0     H 2124   1.976   8.513   8.913 -0.6968  0.8773 -0.4696
  774MOL0     H 2125   1.926   8.607   9.047  1.4908  0.2213 -2.0335
  774MOL0     H 2126   1.731   8.543   8.858  1.8579  0.2667 -1.2939
  774MOL0     H 2127   1.764   8.377   8.902  1.0976  0.1702  0.9267
  774MOL0     H 2128   1.667   8.565   9.107  2.4769 -1.9740  0.4394
  774MOL0     H 2129   1.651   8.401   9.103 -1.4994 -1.9369 -1.3014
  774MOL0     H 2130   1.433   8.488   8.728  0.4583 -1.1096  1.2610
  774MOL0     H 2131   1.287   8.673   8.637 -1.5741  1.7960  0.0385
  774MOL0     H 2132   0.905   8.829   8.693 -0.2254 -0.0539  0.6844
  774MOL0     H 2133   0.680   8.884   8.663  3.1911  0.8069 -1.4537
  774MOL0     H 2134   0.418   8.919   8.824 -2.0641  2.4036  1.4582
  774MOL0     H 2135   0.466   8.970   8.657 -1.0508 -0.2958 -0.3589
  774MOL0     H 2136   0.232   9.012   8.724  0.8501 -1.1900  2.4185
  774MOL0     H 2137   0.312   9.154   8.662 -0.8344 -0.0541  0.1160
  774MOL0     H 2138   0.352   9.217   8.917 -1.0437  2.7299 -0.5708
  774MOL0     H 2139   0.261   9.073   8.943  2.3045 -1.7708 -1.6542
  774MOL0     H 2140   0.066   9.183   8.832  0.2845 -1.5695  1.5530
  774MOL0     H 2141   0.145   9.302   8.944  2.6283 -0.7146  1.7188
  774MOL0     H 2142   0.094   9.443   8.768 -0.6560  0.1712  0.2627
  774MOL0     H 2143   0.140   9.326   8.643 -1.2742  2.7371  0.1894
  774MOL0     H 2144   0.300   9.508   8.640 -0.4716 -0.5009 -1.0299
  774MOL0     H 2145   0.376   9.354   8.686  0.6645  0.5643  0.2162
  774MOL0     H 2146   0.364   9.607   8.843  2.3202 -0.0390  3.1806
  774MOL0     H 2147   0.315   9.472   8.928 -1.7142  2.8051 -0.6049
  774MOL0     H 2148   0.551   9.365   8.837  3.0029  0.8911 -0.5560
  774MOL0     H 2149   0.561   9.518   8.935 -4.6290  1.5579  1.8267
  774MOL0     H 2150   0.729   9.193   8.963  1.9464 -0.1020  1.1516
  774MOL0     H 2151   0.974   9.111   8.996  1.5048 -1.3632  0.9940
  774MOL0     H 2152   1.275   8.854   9.027 -0.4081 -0.0204 -1.8685
  774MOL0     H 2153   1.437   8.719   9.104  0.3463  2.4468 -0.7449
  774MOL0     H 2154   1.443   7.581   7.971 -1.0040 -1.0953 -3.3526
  774MOL0     H 2155   1.303   7.600   7.777 -0.0465 -0.2720  0.3799
  774MOL0     H 2156   0.949   7.723   7.567 -0.9118 -2.0177 -2.5531
  774MOL0     H 2157   0.796   7.721   7.376  0.6867 -0.9681 -0.0750
  774MOL0     H 2158   0.636   7.742   7.195  2.2077  1.2626  2.5851
  774MOL0     H 2159   0.798   7.712   7.132  1.3284  0.4534  0.3522
  774MOL0     H 2160   0.636   7.713   6.948 -0.6984  1.3545 -0.6595
  774MOL0     H 2161   0.580   7.868   6.990 -0.5024  0.4966  2.7248
  774MOL0     H 2162   0.860   7.816   6.924 -1.0559 -1.1891  1.1005
  774MOL0     H 2163   0.784   7.977   6.959 -3.5192  1.9916 -3.3174
  774MOL0     H 2164   0.697   7.812   6.716 -2.3349  2.1070 -1.4326
  774MOL0     H 2165   0.614   7.942   6.772 -2.0595 -2.7097 -1.0980
  774MOL0     H 2166   0.903   8.126   6.529  1.1463 -2.0913 -0.2958
  774MOL0     H 2167   0.950   8.090   7.238 -0.1624 -0.6329 -0.4452
  774MOL0     H 2168   1.127   8.083   7.408  1.5506 -1.4805  0.1466
  775MOL0     O 2169   0.708   3.075   9.291  0.5149 -0.6304 -0.0209
  775MOL0     C 2170   0.746   3.032   9.184  0.5387  0.5246 -0.0691
  775MOL0     O 2171   0.870   2.995   9.156 -0.1475 -0.5643 -0.1737
  775MOL0     C 2172   0.969   3.005   9.254  0.1776 -0.3277  1.2723
  775MOL0     C 2173   1.015   2.891   9.301  0.5356  0.2136 -0.7361
  775MOL0     C 2174   1.104   2.887   9.411 -0.2722  0.4921 -0.1340
  775MOL0     C 2175   1.151   3.009   9.459 -0.1533 -0.4209  0.3060
  775MOL0     O 2176   1.234   3.003   9.570 -0.2326  0.5773  0.3558
  775MOL0     C 2177   1.181   2.941   9.697 -0.1557 -0.3137  0.4188
  775MOL0     C 2178   1.135   3.046   9.792 -0.4107 -0.8887 -1.1331
  775MOL0     C 2179   1.264   3.117   9.857  1.1439 -0.5884  0.0586
  775MOL0     C 2180   1.347   3.007   9.937  0.2487 -0.4466 -0.4301
  775MOL0     C 2181   1.275   2.907  10.024 -0.3420 -0.6193  1.0121
  775MOL0     C 2182   1.380   2.830  10.107 -0.1227  0.7321  0.3587
  775MOL0     C 2183   1.326   2.699  10.163  0.5013  0.2918 -1.9688
  775MOL0     C 2184   1.213   2.719  10.264 -0.4213  0.1170 -1.0459
  775MOL0     N 2185   1.269   2.746  10.402 -0.4171 -0.7489 -0.0473
  775MOL0     C 2186   1.252   2.660  10.506  1.8166  0.3935 -1.1037
  775MOL0     C 2187   1.324   2.695  10.610  0.3257 -0.2727  0.2199
  775MOL0     C 2188   1.325   2.640  10.745  0.4104  1.0240  0.1214
  775MOL0     C 2189   1.213   2.692  10.840 -1.3533 -0.1749 -0.3231
  775MOL0     C 2190   1.123   2.580  10.884 -0.1895 -0.8850  0.2974
  775MOL0     C 2191   0.995   2.581  10.795  1.2618  0.3882 -0.6950
  775MOL0     O 2192   1.001   2.503  10.671 -0.0072  0.3585 -1.4220
  775MOL0     C 2193   0.883   2.503  10.596  0.3228 -0.5410 -0.6177
  775MOL0     C 2194   0.761   2.572  10.620 -0.5490  0.1236  0.5203
  775MOL0     C 2195   0.659   2.576  10.524  0.5017 -0.3885  0.5596
  775MOL0     C 2196   0.671   2.506  10.405  0.0875  0.8310  0.1492
  775MOL0     C 2197   0.557   2.511  10.306  0.4891  0.3997  0.2212
  775MOL0     O 2198   0.510   2.636  10.279 -0.4495  0.4644  0.2937
  775MOL0     C 2199   0.408   2.647  10.189 -0.3804  0.6966  0.6054
  775MOL0     C 2200   0.434   2.663  10.048 -0.3619 -1.1745 -0.1173
  775MOL0     C 2201   0.334   2.679   9.946  0.4668 -0.2113 -1.0364
  775MOL0     C 2202   0.204   2.672   9.994 -0.3802  0.9951 -0.6947
  775MOL0     O 2203   0.103   2.678   9.903  0.5202 -0.3113 -1.0229
  775MOL0     C 2204   0.110   2.791   9.803 -0.2110  0.0053 -0.1098
  775MOL0     C 2205  -0.024   2.818   9.744  0.9031  0.6874 -0.7878
  775MOL0     C 2206  -0.016   2.948   9.659  1.5562  0.0270  0.2960
  775MOL0     C 2207  -0.149   2.976   9.585  0.8480  0.5169  0.1102
  775MOL0     C 2208  -0.181   2.893   9.460 -0.1029 -0.3570  0.0792
  775MOL0     C 2209  -0.316   2.913   9.400 -0.3949  1.1435 -0.8344
  775MOL0     C 2210  -0.338   3.047   9.343  0.1400  0.0938 -0.6954
  775MOL0     C 2211  -0.384   3.046   9.198 -0.7179 -0.1652  0.4960
  775MOL0    Cl 2212  -0.550   2.992   9.201 -0.0321 -0.1538  0.5343
  775MOL0     C 2213   0.175   2.659  10.133  0.3529 -0.5775  0.1041
  775MOL0     C 2214   0.278   2.654  10.230 -0.4082  0.2306  0.1418
  775MOL0     O 2215   0.521   2.407  10.254  1.6714  0.3155  0.2720
  775MOL0     C 2216   0.796   2.433  10.371 -0.1738 -0.4272  0.9656
  775MOL0     C 2217   0.898   2.428  10.474  0.7078  0.3123 -1.2625
  775MOL0     N 2218   1.392   2.810  10.574  0.0169 -0.3722 -0.1589
  775MOL0     N 2219   1.362   2.836  10.446 -0.1250  0.5327  0.3954
  775MOL0     C 2220   1.101   3.131   9.407 -1.6198  0.7977  0.9891
  775MOL0     C 2221   1.014   3.132   9.297 -0.3137 -0.0282  0.5013
  775MOL0     C 2222   0.651   3.002   9.076 -0.4930 -0.5398 -0.4306
  775MOL0     C 2223   0.703   2.984   8.942  0.1544 -0.0916 -0.3753
  775MOL0     C 2224   0.614   2.969   8.839  0.2053  0.0741  0.2793
  775MOL0     C 2225   0.476   2.954   8.861  0.2529 -0.5982 -0.0165
  775MOL0     O 2226   0.383   2.941   8.770 -0.4417 -0.2866 -0.1500
  775MOL0     C 2227   0.392   3.029   8.653 -0.4845 -0.2112 -0.3070
  775MOL0     C 2228   0.271   3.023   8.549  0.4036  0.3808  0.1924
  775MOL0     C 2229   0.146   2.973   8.628  0.8367  0.0988 -0.2921
  775MOL0     C 2230   0.104   3.087   8.722 -0.8745  0.1655 -0.2367
  775MOL0     C 2231   0.067   3.221   8.670 -0.2770 -0.1980 -0.7004
  775MOL0     C 2232   0.039   3.332   8.639 -1.3582  0.1826  0.3266
  775MOL0     C 2233   0.429   2.966   8.995  0.1391  0.6259 -0.1006
  775MOL0     C 2234   0.516   2.995   9.103  0.3460 -0.0666  0.2612
  775MOL0     H 2235   0.976   2.799   9.259  1.1205 -1.3134  1.8400
  775MOL0     H 2236   1.131   2.791   9.453  0.4107 -0.9591 -3.5249
  775MOL0     H 2237   1.250   2.873   9.748  0.7950  1.6775  1.8869
  775MOL0     H 2238   1.084   2.899   9.669 -1.2277  2.2525  0.0348
  775MOL0     H 2239   1.068   3.000   9.865 -1.8414  0.3571 -1.6165
  775MOL0     H 2240   1.075   3.119   9.738  1.1038 -0.7437 -2.7043
  775MOL0     H 2241   1.232   3.180   9.940  0.6593 -0.9901  0.1825
  775MOL0     H 2242   1.321   3.176   9.784 -2.3947 -0.3021 -2.7694
  775MOL0     H 2243   1.408   2.944   9.872  0.8993 -0.1071 -0.1588
  775MOL0     H 2244   1.416   3.062  10.000 -0.9247 -2.7831  3.1886
  775MOL0     H 2245   1.234   2.826   9.963 -0.5387 -0.0357  0.3532
  775MOL0     H 2246   1.191   2.949  10.080 -3.1473 -0.8917 -2.6112
  775MOL0     H 2247   1.418   2.897  10.184  0.3609  1.5320 -0.5453
  775MOL0     H 2248   1.462   2.795  10.044 -1.1738 -2.4815  0.6037
  775MOL0     H 2249   1.274   2.634  10.092 -1.1086 -1.6245  0.7695
  775MOL0     H 2250   1.415   2.642  10.192  0.0979  0.0355 -1.2032
  775MOL0     H 2251   1.136   2.642  10.269 -1.8777  1.5870  0.3549
  775MOL0     H 2252   1.160   2.811  10.236 -0.7576  0.6903  1.2308
  775MOL0     H 2253   1.202   2.564  10.517  1.1081  0.8527 -0.2099
  775MOL0     H 2254   1.418   2.663  10.798  0.3081  1.8111 -0.0322
  775MOL0     H 2255   1.322   2.532  10.729 -3.6402  1.0305  0.0111
  775MOL0     H 2256   1.159   2.777  10.797 -1.7020  0.8098  1.9548
  775MOL0     H 2257   1.257   2.733  10.931 -1.0335  1.4309 -1.1688
  775MOL0     H 2258   1.160   2.478  10.876  2.0661 -0.2589  1.7367
  775MOL0     H 2259   1.093   2.586  10.989  0.9022 -0.2712  0.5824
  775MOL0     H 2260   0.964   2.681  10.763  2.8556  0.6495 -1.5510
  775MOL0     H 2261   0.917   2.552  10.865  0.8887  2.7079 -0.0553
  775MOL0     H 2262   0.742   2.624  10.713 -2.5883 -2.9472  1.9798
  775MOL0     H 2263   0.557   2.611  10.540  0.5203 -0.0845  0.0379
  775MOL0     H 2264   0.538   2.671  10.018 -0.3797 -0.0778  0.0454
  775MOL0     H 2265   0.349   2.677   9.839  0.6200  0.7411 -1.0446
  775MOL0     H 2266   0.175   2.758   9.721  0.0665 -1.4843  0.6695
  775MOL0     H 2267   0.144   2.886   9.845 -4.0976 -0.2982  4.6138
  775MOL0     H 2268  -0.109   2.815   9.812  1.3193  0.5575 -0.2620
  775MOL0     H 2269  -0.030   2.734   9.675  0.9736  1.0812 -1.2759
  775MOL0     H 2270   0.063   2.946   9.583  1.2181 -1.5283 -0.0418
  775MOL0     H 2271  -0.005   3.032   9.729  2.2020 -1.5762  2.2437
  775MOL0     H 2272  -0.228   2.967   9.661  3.2928  0.4970  2.8174
  775MOL0     H 2273  -0.165   3.084   9.573 -3.9830  0.5002  3.3712
  775MOL0     H 2274  -0.169   2.786   9.479 -1.9264 -1.0277 -2.0904
  775MOL0     H 2275  -0.103   2.918   9.387  0.9864  0.0771  1.3486
  775MOL0     H 2276  -0.393   2.904   9.478  0.9837  3.9755  1.0390
  775MOL0     H 2277  -0.331   2.832   9.328  0.0902  0.6626 -0.4055
  775MOL0     H 2278  -0.408   3.110   9.399  0.4473  0.3904 -0.6424
  775MOL0     H 2279  -0.250   3.112   9.342 -0.4868  0.9757 -2.9584
  775MOL0     H 2280  -0.317   2.985   9.136 -1.1504 -1.2144  1.0254
  775MOL0     H 2281  -0.382   3.149   9.162 -1.4586 -0.8390 -1.6204
  775MOL0     H 2282   0.071   2.664  10.162  1.2705  3.2905  3.6451
  775MOL0     H 2283   0.241   2.651  10.332 -0.6231  1.3671  0.1117
  775MOL0     H 2284   0.811   2.383  10.276  1.6840  2.1582 -0.2030
  775MOL0     H 2285   0.988   2.371  10.453  1.2054  1.5970 -2.8261
  775MOL0     H 2286   1.124   3.231   9.443 -0.4884 -0.0341  2.6965
  775MOL0     H 2287   0.965   3.221   9.258  0.2075  0.2376  0.4423
  775MOL0     H 2288   0.809   2.973   8.926  0.1479 -1.0058  0.1721
  775MOL0     H 2289   0.648   2.958   8.737 -0.0076  0.1273  0.2033
  775MOL0     H 2290   0.479   3.017   8.588  0.0789 -3.6780  0.9091
  775MOL0     H 2291   0.410   3.128   8.698  1.2536 -1.4024  1.8149
  775MOL0     H 2292   0.260   3.116   8.492 -0.4692  0.1225 -0.0826
  775MOL0     H 2293   0.289   2.937   8.484  1.1110 -0.3422  1.3313
  775MOL0     H 2294   0.167   2.879   8.679 -0.6475 -1.1523 -1.8783
  775MOL0     H 2295   0.066   2.958   8.554  2.2948 -0.8432 -1.7570
  775MOL0     H 2296   0.018   3.054   8.780 -0.1481 -2.1121 -0.3638
  775MOL0     H 2297   0.180   3.103   8.800  0.6222  0.2090 -1.6527
  775MOL0     H 2298   0.009   3.431   8.612  2.4968  0.8971 -2.0359
  775MOL0     H 2299   0.321   2.959   9.005  0.1627 -2.4027 -1.0198
  775MOL0     H 2300   0.482   3.010   9.205 -0.9727 -2.0765  0.1652
  776MOL0     O 2301   2.866   2.728  10.313 -0.2995  0.3481 -0.0695
  776MOL0     C 2302   2.947   2.800  10.364 -0.9500  0.5830  0.4015
  776MOL0     O 2303   3.047   2.761  10.455  0.1850 -0.9230  0.1870
  776MOL0     C 2304   3.045   2.632  10.487  0.7975 -0.6158 -0.9745
  776MOL0     C 2305   2.980   2.580  10.604 -0.1215  0.4666 -0.1354
  776MOL0     C 2306   2.974   2.437  10.627 -0.3982 -1.2224 -1.4136
  776MOL0     C 2307   3.050   2.351  10.554  0.2846 -0.0327 -0.4528
  776MOL0     O 2308   3.052   2.222  10.581 -1.6622  0.5808 -0.3413
  776MOL0     C 2309   3.180   2.161  10.566  0.2933  0.4673 -0.4251
  776MOL0     C 2310   3.173   2.046  10.665  0.5356 -0.6356  0.0896
  776MOL0     C 2311   3.300   1.958  10.682 -0.2198 -0.4074 -0.5628
  776MOL0     C 2312   3.283   1.863  10.802  0.6884 -0.5015  0.0530
  776MOL0     C 2313   3.349   1.733  10.795 -0.4061 -0.4737 -0.4203
  776MOL0     C 2314   3.352   1.651  10.929 -0.0710 -0.0598 -0.7718
  776MOL0     C 2315   3.385   1.506  10.909 -0.3358  0.3258  0.8460
  776MOL0     C 2316   3.459   1.431  11.028  0.1437  0.3334  0.6541
  776MOL0     N 2317   3.354   1.381  11.119 -1.0228  1.2216  0.1912
  776MOL0     C 2318   3.292   1.260  11.116 -0.2932 -0.4650 -0.3812
  776MOL0     C 2319   3.189   1.274  11.205  0.0053 -0.9999 -0.7123
  776MOL0     C 2320   3.090   1.173  11.236 -0.0911  0.9407 -1.2919
  776MOL0     C 2321   3.048   1.096  11.109  0.3420 -0.1457  0.1159
  776MOL0     C 2322   2.983   0.963  11.157 -0.4137 -0.4562  0.0696
  776MOL0     C 2323   2.861   0.980  11.257  0.7546 -0.5399  0.2246
  776MOL0     O 2324   2.762   1.052  11.189  0.1057  0.5752 -0.5193
  776MOL0     C 2325   2.637   0.995  11.162 -0.7690 -0.3862  0.0961
  776MOL0     C 2326   2.560   0.932  11.260  0.4106 -0.0583 -0.4211
  776MOL0     C 2327   2.425   0.884  11.235 -0.1139 -0.2017  0.5622
  776MOL0     C 2328   2.380   0.886  11.106  0.5301  0.1807 -0.0455
  776MOL0     C 2329   2.254   0.821  11.063  0.9072  0.2468 -0.2563
  776MOL0     O 2330   2.213   0.835  10.925 -0.1165 -0.6686 -0.8254
  776MOL0     C 2331   2.119   0.746  10.876 -0.3192  0.3547 -0.2998
  776MOL0     C 2332   1.995   0.710  10.948  0.4963 -0.8818 -0.5021
  776MOL0     C 2333   1.917   0.601  10.910  0.2673 -0.5428 -0.5785
  776MOL0     C 2334   1.953   0.519  10.799  1.1335 -0.6660 -0.4476
  776MOL0     O 2335   1.870   0.421  10.750  0.0586 -1.7371  0.1762
  776MOL0     C 2336   1.842   0.320  10.847  0.4998  0.6524 -0.0182
  776MOL0     C 2337   1.927   0.192  10.842 -0.2130  0.5080  0.4946
  776MOL0     C 2338   1.896   0.116  10.713  0.0022  0.0588 -0.5382
  776MOL0     C 2339   1.979  -0.009  10.725  0.1226  0.7068 -0.5828
  776MOL0     C 2340   1.954  -0.099  10.592 -0.2206 -0.2712  0.2149
  776MOL0     C 2341   2.078  -0.182  10.567 -0.9281  0.0366  0.5073
  776MOL0     C 2342   2.066  -0.276  10.438 -0.0635 -0.1214  0.4043
  776MOL0     C 2343   1.958  -0.388  10.459  0.7227 -0.7359  0.1048
  776MOL0    Cl 2344   2.021  -0.497  10.589  0.1848  0.2245  0.0604
  776MOL0     C 2345   2.067   0.564  10.728  0.3219  0.3668 -0.0018
  776MOL0     C 2346   2.154   0.665  10.770 -0.2586 -0.0610 -0.6706
  776MOL0     O 2347   2.218   0.730  11.137  0.4475 -0.0930  0.2913
  776MOL0     C 2348   2.467   0.956  11.008  0.2836 -0.2743 -0.9614
  776MOL0     C 2349   2.592   1.006  11.033  0.2003  0.1542  1.1430
  776MOL0     N 2350   3.186   1.406  11.256 -0.5468 -0.0444 -0.1341
  776MOL0     N 2351   3.288   1.466  11.202 -0.9945  0.0218 -0.2741
  776MOL0     C 2352   3.111   2.400  10.433 -0.0625  0.3391  0.1110
  776MOL0     C 2353   3.110   2.536  10.405 -0.7183 -0.4261 -0.0903
  776MOL0     C 2354   2.950   2.939  10.318  0.7135 -0.1963  0.6131
  776MOL0     C 2355   3.029   3.034  10.374 -0.2773 -0.2836  0.0703
  776MOL0     C 2356   3.020   3.165  10.321  0.0353 -0.3241 -0.7687
  776MOL0     C 2357   2.928   3.207  10.240  0.1014 -0.2381 -0.2049
  776MOL0     O 2358   2.931   3.340  10.216  0.9212  0.2040 -0.3219
  776MOL0     C 2359   2.831   3.403  10.130 -0.2553  1.3320 -0.4744
  776MOL0     C 2360   2.850   3.367   9.977  0.1727  0.0940 -0.8468
  776MOL0     C 2361   2.815   3.490   9.897 -0.8356  0.7425  0.0682
  776MOL0     C 2362   2.802   3.451   9.743 -0.1281  0.0929  0.1591
  776MOL0     C 2363   2.678   3.380   9.710 -0.6565 -1.0464  0.8214
  776MOL0     C 2364   2.582   3.318   9.675  0.5756  0.1374 -0.2721
  776MOL0     C 2365   2.836   3.118  10.191  0.1822  1.0024 -0.2917
  776MOL0     C 2366   2.847   2.985  10.227 -0.0730 -1.2388 -1.2393
  776MOL0     H 2367   2.925   2.637  10.678 -0.2743  1.6844 -1.1335
  776MOL0     H 2368   2.929   2.399  10.718  2.4058 -2.2249 -0.3450
  776MOL0     H 2369   3.250   2.231  10.612 -0.1382  0.3519  0.4266
  776MOL0     H 2370   3.210   2.126  10.467 -0.4845 -1.2599 -0.0784
  776MOL0     H 2371   3.091   1.980  10.634 -0.5221  0.9627 -0.6366
  776MOL0     H 2372   3.152   2.092  10.761  3.1282  2.1597 -0.5215
  776MOL0     H 2373   3.390   2.020  10.686 -1.1537  0.9427  0.3969
  776MOL0     H 2374   3.303   1.897  10.592 -0.2391  0.4353 -1.1396
  776MOL0     H 2375   3.317   1.923  10.887 -2.2310  1.1045  0.2220
  776MOL0     H 2376   3.175   1.856  10.817  0.2634 -0.8380 -2.6668
  776MOL0     H 2377   3.453   1.740  10.760  0.1893 -2.8314  0.6360
  776MOL0     H 2378   3.294   1.667  10.727 -0.0762 -1.0812 -0.1102
  776MOL0     H 2379   3.246   1.652  10.954 -0.4093  1.2118 -2.1266
  776MOL0     H 2380   3.408   1.697  11.012  1.0161 -0.4146 -1.2982
  776MOL0     H 2381   3.301   1.445  10.874 -2.1558  2.9601  0.3108
  776MOL0     H 2382   3.450   1.502  10.821 -3.3905 -1.7252 -1.5180
  776MOL0     H 2383   3.528   1.498  11.081 -1.1136  3.2432 -1.1564
  776MOL0     H 2384   3.522   1.352  10.985 -0.3168  0.1060  0.3964
  776MOL0     H 2385   3.322   1.175  11.055 -1.6776 -0.8941 -0.4986
  776MOL0     H 2386   3.008   1.226  11.284  0.3347  1.7086 -1.3955
  776MOL0     H 2387   3.132   1.100  11.307 -0.2962  1.2469 -0.8519
  776MOL0     H 2388   3.134   1.070  11.047 -0.7523 -3.8792 -0.1028
  776MOL0     H 2389   2.981   1.154  11.046  0.2063 -1.2364 -0.7746
  776MOL0     H 2390   2.938   0.910  11.072 -7.2411 -0.4590  3.0698
  776MOL0     H 2391   3.062   0.898  11.195 -2.6561 -0.5507  5.3898
  776MOL0     H 2392   2.886   1.043  11.342 -0.7518  2.0869 -1.1615
  776MOL0     H 2393   2.815   0.881  11.271 -2.8489  0.8569 -0.5237
  776MOL0     H 2394   2.602   0.924  11.360  1.3802  0.9496 -0.7297
  776MOL0     H 2395   2.372   0.843  11.320 -2.0300 -0.7706 -0.8328
  776MOL0     H 2396   1.975   0.772  11.035 -0.2655 -2.3052  0.3719
  776MOL0     H 2397   1.827   0.590  10.969 -1.2313  0.3337 -2.6014
  776MOL0     H 2398   1.740   0.284  10.833  1.3675 -1.5745 -1.2039
  776MOL0     H 2399   1.853   0.347  10.952  0.4456 -0.8074  0.3956
  776MOL0     H 2400   1.908   0.124  10.926 -0.9350  1.3353  1.0101
  776MOL0     H 2401   2.034   0.217  10.848 -0.9377  4.1670  0.0640
  776MOL0     H 2402   1.932   0.163  10.621 -0.9688  0.7726 -0.5636
  776MOL0     H 2403   1.789   0.095  10.712  0.0355 -0.1551  0.0037
  776MOL0     H 2404   2.086   0.010  10.740  0.0071 -0.1165  1.5699
  776MOL0     H 2405   1.952  -0.078  10.805  3.4594  3.2296  3.1254
  776MOL0     H 2406   1.938  -0.032  10.508  0.7452 -0.2693  0.0231
  776MOL0     H 2407   1.863  -0.159  10.603  0.2358 -1.6255 -2.5032
  776MOL0     H 2408   2.122  -0.241  10.648  1.1548  1.8957  0.8282
  776MOL0     H 2409   2.156  -0.114  10.534 -1.3988 -0.3875 -1.5845
  776MOL0     H 2410   2.050  -0.220  10.346  0.5281  2.1270  1.6058
  776MOL0     H 2411   2.159  -0.331  10.420  0.4186  0.9106 -0.3084
  776MOL0     H 2412   1.938  -0.440  10.365 -3.5683  1.9552 -0.7423
  776MOL0     H 2413   1.859  -0.342  10.472  0.0478 -0.8864 -3.4518
  776MOL0     H 2414   2.099   0.504  10.644 -1.6018 -0.9922  0.1638
  776MOL0     H 2415   2.251   0.678  10.724 -0.3354 -3.2378 -1.9713
  776MOL0     H 2416   2.420   0.965  10.910 -0.9039  1.6572 -0.2616
  776MOL0     H 2417   2.652   1.048  10.953 -2.0804  0.4772 -0.5024
  776MOL0     H 2418   3.168   2.323  10.382  0.8602  1.0101  0.0962
  776MOL0     H 2419   3.168   2.570  10.320 -0.6291  0.9146  0.4787
  776MOL0     H 2420   3.093   3.005  10.456  1.6634  2.1574 -0.4846
  776MOL0     H 2421   3.078   3.247  10.362  1.9914 -0.3750 -3.1327
  776MOL0     H 2422   2.848   3.510  10.144  0.2454  0.9569  2.3417
  776MOL0     H 2423   2.729   3.395  10.168 -0.9279  3.2101 -1.7293
  776MOL0     H 2424   2.954   3.336   9.967 -0.2670 -1.4720 -0.8329
  776MOL0     H 2425   2.782   3.287   9.947  0.3372 -0.6193  0.5712
  776MOL0     H 2426   2.901   3.556   9.907 -0.1893  0.4437 -2.6125
  776MOL0     H 2427   2.727   3.547   9.930 -0.1962  3.1638 -2.0763
  776MOL0     H 2428   2.794   3.534   9.673 -1.2500 -1.7422 -2.0434
  776MOL0     H 2429   2.886   3.386   9.717 -1.1223 -1.2292  0.1080
  776MOL0     H 2430   2.486   3.282   9.644  0.2903  0.7508 -0.1160
  776MOL0     H 2431   2.759   3.156  10.123 -2.3290 -0.9081  1.2992
  776MOL0     H 2432   2.779   2.917  10.178 -2.1205  0.0497 -0.3201
  777MOL0     O 2433   4.978   2.904   7.677  0.1948 -0.2790  0.8597
  777MOL0     C 2434   4.860   2.877   7.712  0.2057 -0.2976 -0.3944
  777MOL0     O 2435   4.742   2.940   7.676  0.7105  1.2488 -0.0734
  777MOL0     C 2436   4.765   3.038   7.574  0.2702  1.0736  0.1065
  777MOL0     C 2437   4.739   3.170   7.586 -0.0522 -0.0845 -0.2448
  777MOL0     C 2438   4.759   3.263   7.482  0.2822 -0.2247  0.3523
  777MOL0     C 2439   4.773   3.228   7.354  0.2111  0.0685  0.1445
  777MOL0     O 2440   4.806   3.331   7.270  0.6003  0.7362  0.1820
  777MOL0     C 2441   4.826   3.305   7.129 -0.2549 -0.4390  0.0825
  777MOL0     C 2442   4.713   3.336   7.037  0.1835  0.8585 -0.1331
  777MOL0     C 2443   4.737   3.285   6.890 -0.6964 -0.1829 -0.3887
  777MOL0     C 2444   4.630   3.324   6.802 -0.2200 -0.2059 -0.6746
  777MOL0     C 2445   4.677   3.340   6.658 -0.1046 -0.0280  0.7924
  777MOL0     C 2446   4.568   3.343   6.557  0.5156  0.7718  0.9185
  777MOL0     C 2447   4.484   3.215   6.540 -0.5764  0.6800  0.8953
  777MOL0     C 2448   4.562   3.082   6.559 -0.9337  0.1082 -0.1316
  777MOL0     N 2449   4.480   2.957   6.557  0.4196 -0.1245 -0.8532
  777MOL0     C 2450   4.467   2.866   6.654  0.1041  1.2010  0.0877
  777MOL0     C 2451   4.356   2.805   6.621  0.1030  1.4254  0.3940
  777MOL0     C 2452   4.277   2.698   6.704  0.1111 -0.0492 -0.0126
  777MOL0     C 2453   4.133   2.720   6.685 -0.3469 -0.5012  1.0943
  777MOL0     C 2454   4.044   2.670   6.798 -0.0440  0.1139  0.8709
  777MOL0     C 2455   4.066   2.746   6.932 -0.0054  0.4113 -0.3701
  777MOL0     O 2456   3.959   2.708   7.014 -0.0625 -0.3660  0.3057
  777MOL0     C 2457   3.918   2.787   7.116  0.6159 -0.9531  0.2550
  777MOL0     C 2458   3.796   2.755   7.193 -0.3861 -0.1968  0.7353
  777MOL0     C 2459   3.768   2.807   7.314  0.1832  0.2622 -0.0648
  777MOL0     C 2460   3.828   2.925   7.356 -0.1523  0.6920 -0.7307
  777MOL0     C 2461   3.770   2.995   7.476 -1.2465  0.2363  0.7713
  777MOL0     O 2462   3.732   2.916   7.575  0.2376  0.1672 -0.2155
  777MOL0     C 2463   3.660   2.975   7.681 -0.3643  0.3627 -0.4159
  777MOL0     C 2464   3.539   3.043   7.664  0.1881 -0.0228  0.7439
  777MOL0     C 2465   3.472   3.087   7.774  0.3100  0.2484 -0.9118
  777MOL0     C 2466   3.530   3.060   7.902 -0.4301  0.0643 -0.1093
  777MOL0     O 2467   3.488   3.115   8.019 -0.7913  0.5403  0.5064
  777MOL0     C 2468   3.399   3.228   8.017  0.3745  1.3250 -0.3588
  777MOL0     C 2469   3.377   3.281   8.158  0.6441 -0.3904 -0.5453
  777MOL0     C 2470   3.329   3.183   8.270 -0.5880 -0.2859  0.0289
  777MOL0     C 2471   3.290   3.264   8.389  0.3168  0.0580  0.2933
  777MOL0     C 2472   3.310   3.199   8.525  0.0204 -0.4391  0.8273
  777MOL0     C 2473   3.289   3.299   8.633 -0.5381 -0.0176 -0.2321
  777MOL0     C 2474   3.304   3.238   8.780  0.1911 -1.3826 -0.0642
  777MOL0     C 2475   3.256   3.340   8.883 -0.7134  0.7800 -0.5905
  777MOL0    Cl 2476   3.373   3.462   8.896 -0.1780 -0.4898 -0.2710
  777MOL0     C 2477   3.644   2.982   7.921  0.6858 -0.3197  0.3315
  777MOL0     C 2478   3.712   2.935   7.807 -0.0481  0.2067 -0.4040
  777MOL0     O 2479   3.783   3.124   7.478  0.2741  0.5922 -0.1936
  777MOL0     C 2480   3.934   2.967   7.281 -0.0400 -0.2869  0.5190
  777MOL0     C 2481   3.974   2.913   7.159  0.6426 -0.7994 -0.1534
  777MOL0     N 2482   4.306   2.847   6.496 -0.1957  0.1727 -0.3520
  777MOL0     N 2483   4.384   2.941   6.459  0.0316 -0.4316 -0.4506
  777MOL0     C 2484   4.793   3.091   7.330 -0.7829  0.5740 -0.8907
  777MOL0     C 2485   4.796   2.996   7.441 -0.8677  0.8916 -2.1723
  777MOL0     C 2486   4.827   2.778   7.823 -0.2294  0.8344 -0.7924
  777MOL0     C 2487   4.931   2.716   7.901 -0.5300  0.2857  0.0647
  777MOL0     C 2488   4.912   2.613   7.993 -0.3492 -0.1677  0.8827
  777MOL0     C 2489   4.781   2.576   8.018  0.4729  0.7562  0.3475
  777MOL0     O 2490   4.740   2.486   8.112 -0.3624 -0.2889  0.1975
  777MOL0     C 2491   4.677   2.532   8.224 -0.3656  0.0937 -1.2233
  777MOL0     C 2492   4.787   2.566   8.335  0.1348  0.3820 -0.4602
  777MOL0     C 2493   4.717   2.616   8.468 -0.0577  0.1261 -0.0605
  777MOL0     C 2494   4.803   2.593   8.590 -0.4660 -0.8750  0.2741
  777MOL0     C 2495   4.937   2.642   8.574 -0.4951  0.6428 -0.5031
  777MOL0     C 2496   5.046   2.686   8.573  1.1438 -0.4569  0.1415
  777MOL0     C 2497   4.678   2.625   7.939  0.0398  0.3425  0.0921
  777MOL0     C 2498   4.704   2.717   7.838  0.1046  0.4026 -0.6313
  777MOL0     H 2499   4.696   3.208   7.679 -0.5743  0.9533 -0.8892
  777MOL0     H 2500   4.752   3.369   7.503  0.6995 -0.0628 -0.2995
  777MOL0     H 2501   4.860   3.202   7.115  1.6189  0.1028  0.3400
  777MOL0     H 2502   4.906   3.362   7.081 -0.4840 -0.8149 -0.7477
  777MOL0     H 2503   4.690   3.443   7.039  0.1342  0.8758  2.3672
  777MOL0     H 2504   4.622   3.285   7.069  2.0898 -0.8968  3.1284
  777MOL0     H 2505   4.755   3.177   6.895  0.7122  0.0916  1.3534
  777MOL0     H 2506   4.836   3.322   6.861 -0.7457  0.6466  0.4532
  777MOL0     H 2507   4.546   3.256   6.818 -0.4795 -0.0786 -1.4683
  777MOL0     H 2508   4.585   3.415   6.842 -2.4052 -0.6161 -2.0442
  777MOL0     H 2509   4.744   3.259   6.627 -0.0071  0.7526 -1.1786
  777MOL0     H 2510   4.728   3.437   6.659 -0.6594  0.3689 -2.0925
  777MOL0     H 2511   4.610   3.349   6.456 -2.1183 -0.2142 -0.3502
  777MOL0     H 2512   4.500   3.426   6.580 -1.1098 -0.8289  2.1863
  777MOL0     H 2513   4.409   3.206   6.619 -0.0351 -2.2031  1.1864
  777MOL0     H 2514   4.429   3.210   6.445  0.4521 -1.0839  0.3584
  777MOL0     H 2515   4.615   3.093   6.654  2.2430 -2.2065 -1.4605
  777MOL0     H 2516   4.643   3.069   6.487  1.8590 -1.8232  3.0377
  777MOL0     H 2517   4.513   2.860   6.752  3.8394 -0.7240 -1.5428
  777MOL0     H 2518   4.300   2.719   6.809 -2.6427 -0.1020  0.6937
  777MOL0     H 2519   4.311   2.600   6.669 -3.3300 -1.4478  0.1676
  777MOL0     H 2520   4.088   2.673   6.597  1.8283  0.0588 -0.3884
  777MOL0     H 2521   4.113   2.827   6.678  0.5566 -0.3951 -0.2575
  777MOL0     H 2522   3.948   2.709   6.763  1.2431  2.1411 -0.6108
  777MOL0     H 2523   4.030   2.564   6.820  0.2692 -0.2143 -0.4703
  777MOL0     H 2524   4.087   2.852   6.914  1.2103  0.1917 -0.3173
  777MOL0     H 2525   4.163   2.716   6.973  0.9251  0.3844 -2.4388
  777MOL0     H 2526   3.737   2.674   7.150 -1.3832  1.3492 -0.9844
  777MOL0     H 2527   3.691   2.751   7.366 -0.7672  0.7226 -0.9341
  777MOL0     H 2528   3.489   3.050   7.568 -0.0381 -2.7445  0.5840
  777MOL0     H 2529   3.383   3.149   7.769  0.0712  0.2386  1.7915
  777MOL0     H 2530   3.303   3.192   7.978  1.3078  0.7892 -2.2993
  777MOL0     H 2531   3.418   3.310   7.948 -1.2542  0.3149 -2.1215
  777MOL0     H 2532   3.295   3.354   8.154  1.0005  0.0562  0.0667
  777MOL0     H 2533   3.463   3.332   8.203  0.1474 -1.0177  1.1870
  777MOL0     H 2534   3.413   3.115   8.286  2.5103  2.9499 -1.0134
  777MOL0     H 2535   3.252   3.108   8.254  0.1951 -1.1064  0.0666
  777MOL0     H 2536   3.336   3.363   8.380 -1.4351  0.8670 -0.1835
  777MOL0     H 2537   3.183   3.282   8.376  0.8757  2.6401 -1.4704
  777MOL0     H 2538   3.413   3.170   8.545 -0.0678 -1.2458  0.1839
  777MOL0     H 2539   3.233   3.121   8.526 -0.8075  0.3573  0.4686
  777MOL0     H 2540   3.187   3.339   8.624 -1.2341 -1.7641 -0.5748
  777MOL0     H 2541   3.359   3.381   8.618  0.5574 -0.4415  2.0891
  777MOL0     H 2542   3.238   3.152   8.792  1.5020 -2.2880  1.0369
  777MOL0     H 2543   3.402   3.190   8.790  0.4477 -1.0130 -0.6825
  777MOL0     H 2544   3.253   3.305   8.986  0.5201  0.1245 -0.7562
  777MOL0     H 2545   3.161   3.387   8.857 -0.0521  2.6692  0.2394
  777MOL0     H 2546   3.680   2.974   8.024 -1.0505  0.8082  1.0623
  777MOL0     H 2547   3.793   2.864   7.816 -1.0087 -0.6741  2.0808
  777MOL0     H 2548   3.982   3.058   7.316 -2.4175  1.4175 -0.3922
  777MOL0     H 2549   4.068   2.951   7.121  1.4848 -1.3283  1.3425
  777MOL0     H 2550   4.823   3.059   7.231  2.6056  0.8447 -0.0792
  777MOL0     H 2551   4.810   2.890   7.423  1.4609  0.6354  0.3658
  777MOL0     H 2552   5.027   2.766   7.893  0.4273 -1.3414  0.9369
  777MOL0     H 2553   4.997   2.580   8.051  1.1000  1.6733 -0.0659
  777MOL0     H 2554   4.616   2.449   8.263 -0.3283  1.5406  2.3470
  777MOL0     H 2555   4.611   2.618   8.211 -1.7037 -0.5136  0.9283
  777MOL0     H 2556   4.852   2.484   8.364  1.5014  0.0886 -3.8140
  777MOL0     H 2557   4.853   2.646   8.298  0.7246 -0.0047 -0.2429
  777MOL0     H 2558   4.637   2.545   8.490 -0.9265  0.8484 -0.8615
  777MOL0     H 2559   4.693   2.722   8.466 -1.6290 -0.1570 -3.8174
  777MOL0     H 2560   4.755   2.633   8.680 -1.9246 -0.9407 -0.4386
  777MOL0     H 2561   4.815   2.486   8.605  0.0198 -1.0768 -1.3465
  777MOL0     H 2562   5.146   2.721   8.558  1.6514 -1.9017  0.0395
  777MOL0     H 2563   4.580   2.579   7.946  1.0302 -2.9416 -3.5629
  777MOL0     H 2564   4.624   2.723   7.765 -1.0346 -2.2099  0.2505
  778MOL0     O 2565   6.573   1.954  10.640  0.2079 -0.2323 -0.2678
  778MOL0     C 2566   6.665   2.040  10.625 -0.7875  0.3853 -1.0066
  778MOL0     O 2567   6.794   2.019  10.570 -0.0006 -0.0530  0.5862
  778MOL0     C 2568   6.829   1.886  10.536 -0.2390  0.4881  0.3166
  778MOL0     C 2569   6.752   1.781  10.484 -1.4705 -0.2439 -0.3595
  778MOL0     C 2570   6.807   1.654  10.468 -0.0397  0.4066 -0.5058
  778MOL0     C 2571   6.953   1.627  10.489  0.5462 -0.3321  0.6429
  778MOL0     O 2572   7.002   1.508  10.441 -0.0202  0.7141 -0.5005
  778MOL0     C 2573   6.976   1.475  10.302 -0.2377  0.6968 -0.5184
  778MOL0     C 2574   6.969   1.318  10.285 -0.7542 -0.1227 -0.0812
  778MOL0     C 2575   6.839   1.265  10.345 -0.5343 -0.1980  0.2114
  778MOL0     C 2576   6.853   1.120  10.388 -1.2301  0.4463  0.2962
  778MOL0     C 2577   6.728   1.048  10.439 -0.4435 -0.6340 -0.5786
  778MOL0     C 2578   6.649   1.144  10.543  0.5462 -0.1620 -0.3610
  778MOL0     C 2579   6.732   1.173  10.667 -0.3876  0.0215 -0.3251
  778MOL0     C 2580   6.654   1.212  10.787 -0.0098 -0.0290  1.2055
  778MOL0     N 2581   6.600   1.347  10.794 -0.6499  0.8369 -0.3767
  778MOL0     C 2582   6.530   1.382  10.911  0.0126  0.3185  0.0928
  778MOL0     C 2583   6.508   1.514  10.895  0.0036  0.5429  0.1130
  778MOL0     C 2584   6.450   1.605  10.987  0.4584 -0.3601  0.4327
  778MOL0     C 2585   6.522   1.614  11.129  0.2337  0.1561 -0.1582
  778MOL0     C 2586   6.678   1.644  11.116  0.2209 -1.0049 -1.0029
  778MOL0     C 2587   6.723   1.774  11.040 -0.4121  1.0285  0.7952
  778MOL0     O 2588   6.863   1.790  11.039  0.1984  0.2900  0.4777
  778MOL0     C 2589   6.929   1.698  10.959  0.2169 -0.6467 -0.3488
  778MOL0     C 2590   6.887   1.628  10.850 -0.2319  0.3583  0.3383
  778MOL0     C 2591   6.967   1.537  10.780  0.3273 -0.5601 -0.0206
  778MOL0     C 2592   7.099   1.528  10.813 -0.4741 -0.2845 -0.5278
  778MOL0     C 2593   7.188   1.427  10.755 -0.0525 -0.1724  0.7618
  778MOL0     O 2594   7.141   1.329  10.679 -0.3594  0.0833  0.1488
  778MOL0     C 2595   7.241   1.241  10.616 -0.0402 -1.0355 -0.5591
  778MOL0     C 2596   7.332   1.275  10.517  0.3410  0.0384  0.2850
  778MOL0     C 2597   7.444   1.197  10.486  0.4976  0.4736 -0.1119
  778MOL0     C 2598   7.445   1.071  10.519 -0.2800  0.7418 -0.8464
  778MOL0     O 2599   7.538   0.972  10.500 -0.0082  0.5994  0.3705
  778MOL0     C 2600   7.672   0.997  10.436  0.4734 -0.1607  0.8777
  778MOL0     C 2601   7.753   1.077  10.540 -0.0019  0.0277 -0.1400
  778MOL0     C 2602   7.778   1.010  10.681 -0.9862 -0.7948  0.2600
  778MOL0     C 2603   7.906   0.920  10.667 -0.0290  0.3114 -0.2383
  778MOL0     C 2604   7.938   0.846  10.789  0.0103  0.2336  0.0783
  778MOL0     C 2605   7.834   0.736  10.834 -0.0606 -0.0045 -0.2378
  778MOL0     C 2606   7.796   0.645  10.719  0.1008 -0.3346 -0.0720
  778MOL0     C 2607   7.672   0.567  10.751 -0.0156  0.2768  1.1739
  778MOL0    Cl 2608   7.510   0.654  10.716 -0.4632  0.0696 -0.2656
  778MOL0     C 2609   7.338   1.026  10.604  0.1900  0.0354  0.3599
  778MOL0     C 2610   7.241   1.107  10.654  0.4505  0.1477  0.2575
  778MOL0     O 2611   7.307   1.440  10.786  0.9277  0.9145  0.6796
  778MOL0     C 2612   7.150   1.612  10.921 -0.4144  0.2542  0.3948
  778MOL0     C 2613   7.066   1.693  10.989  0.0779  0.0995 -0.7248
  778MOL0     N 2614   6.560   1.557  10.778 -0.8179 -0.0760 -0.5298
  778MOL0     N 2615   6.625   1.460  10.719 -0.4065  0.5515 -0.3661
  778MOL0     C 2616   7.029   1.730  10.529  0.2812  0.7107  0.2579
  778MOL0     C 2617   6.968   1.856  10.543 -0.0502 -0.5187 -0.1726
  778MOL0     C 2618   6.635   2.175  10.670  0.4564  0.6101  0.3337
  778MOL0     C 2619   6.713   2.283  10.643 -1.4862 -0.7807  0.7397
  778MOL0     C 2620   6.681   2.404  10.703 -0.1539 -0.1200 -0.3000
  778MOL0     C 2621   6.570   2.425  10.784 -0.4624 -0.1665  0.5412
  778MOL0     O 2622   6.535   2.542  10.833 -0.0561  0.2604 -0.2427
  778MOL0     C 2623   6.628   2.649  10.826  0.3099  1.4141  0.2628
  778MOL0     C 2624   6.561   2.769  10.877  0.0359  0.0391  0.0820
  778MOL0     C 2625   6.496   2.743  11.017 -0.0170  0.6353 -0.4110
  778MOL0     C 2626   6.449   2.872  11.100 -0.1956  0.2615  0.0187
  778MOL0     C 2627   6.572   2.951  11.145  0.6043  0.8407  0.4274
  778MOL0     C 2628   6.674   3.008  11.162 -0.6300  0.4731 -0.1507
  778MOL0     C 2629   6.484   2.310  10.805 -0.7607  1.0086 -0.0239
  778MOL0     C 2630   6.522   2.189  10.747  0.4135  0.4746 -0.9026
  778MOL0     H 2631   6.646   1.797  10.470 -1.3706 -1.8835 -3.9894
  778MOL0     H 2632   6.754   1.563  10.443 -2.2263  1.8796 -1.4589
  778MOL0     H 2633   7.066   1.515  10.253  0.8932 -2.2701 -1.0494
  778MOL0     H 2634   6.880   1.508  10.263 -0.6648 -2.8035 -2.8565
  778MOL0     H 2635   7.058   1.290  10.342  0.5517  4.3956  0.5517
  778MOL0     H 2636   6.984   1.287  10.182 -0.1987  3.0789 -1.0747
  778MOL0     H 2637   6.761   1.273  10.268 -1.6608  0.4859  1.3733
  778MOL0     H 2638   6.806   1.321  10.434 -0.2554 -2.2579  1.6847
  778MOL0     H 2639   6.882   1.062  10.301 -2.0874  0.6342 -0.1271
  778MOL0     H 2640   6.935   1.103  10.459 -1.3530 -1.3541  0.0545
  778MOL0     H 2641   6.744   0.951  10.488 -6.3816 -1.2160  0.9653
  778MOL0     H 2642   6.661   1.038  10.353 -2.5275  0.5773  0.8159
  778MOL0     H 2643   6.556   1.095  10.573  1.3698 -0.5624  1.7001
  778MOL0     H 2644   6.612   1.237  10.497 -1.6703 -1.0372 -0.4797
  778MOL0     H 2645   6.787   1.084  10.697  0.4108  0.5216 -0.2798
  778MOL0     H 2646   6.819   1.237  10.646  1.1516 -2.4740 -2.1687
  778MOL0     H 2647   6.709   1.185  10.878  0.6853 -3.2764 -0.0638
  778MOL0     H 2648   6.571   1.142  10.785 -0.1765  0.1738  0.8784
  778MOL0     H 2649   6.492   1.325  10.995  0.9103  2.8555  2.3822
  778MOL0     H 2650   6.344   1.578  10.998 -0.4351  2.3606 -0.8138
  778MOL0     H 2651   6.452   1.704  10.942 -1.4101  0.1521  1.3845
  778MOL0     H 2652   6.496   1.519  11.178 -1.9852  2.0421  2.7103
  778MOL0     H 2653   6.467   1.682  11.196  1.4827  0.3316  0.7300
  778MOL0     H 2654   6.713   1.669  11.216 -3.1887  1.6443 -0.2617
  778MOL0     H 2655   6.729   1.548  11.101 -0.1431 -1.4858  0.6057
  778MOL0     H 2656   6.692   1.866  11.091  1.0334  0.1812  3.3843
  778MOL0     H 2657   6.671   1.777  10.944 -1.9489 -2.9388  1.3190
  778MOL0     H 2658   6.781   1.636  10.832 -0.8317 -2.3195  2.0131
  778MOL0     H 2659   6.934   1.477  10.696  2.7961 -2.3009  0.1491
  778MOL0     H 2660   7.334   1.378  10.481  1.8157  1.3834  3.7913
  778MOL0     H 2661   7.524   1.241  10.427 -0.2536  1.8246 -0.1713
  778MOL0     H 2662   7.667   1.066  10.352  0.6256  2.6249  2.9942
  778MOL0     H 2663   7.725   0.901  10.424 -1.9063 -1.3719 -0.5878
  778MOL0     H 2664   7.708   1.173  10.566  1.7949  1.0807 -0.7036
  778MOL0     H 2665   7.857   1.093  10.508  1.0335 -0.3958  2.6955
  778MOL0     H 2666   7.688   0.961  10.720 -2.7049  0.7479 -1.5554
  778MOL0     H 2667   7.782   1.098  10.745  0.0404  0.5304 -1.5425
  778MOL0     H 2668   7.917   0.850  10.584  2.6551  0.6327 -0.2211
  778MOL0     H 2669   7.988   0.990  10.651 -1.4583  2.0519 -0.3083
  778MOL0     H 2670   7.955   0.914  10.873  2.0196 -1.5268  1.1888
  778MOL0     H 2671   8.032   0.792  10.776  0.6641  1.5992 -1.2139
  778MOL0     H 2672   7.747   0.792  10.869 -1.0743 -1.1773 -0.7963
  778MOL0     H 2673   7.876   0.680  10.919 -0.6910  2.5055  1.8639
  778MOL0     H 2674   7.772   0.696  10.625 -1.0648 -0.2110  0.2783
  778MOL0     H 2675   7.874   0.570  10.702 -0.0326 -0.7428  1.0338
  778MOL0     H 2676   7.666   0.522  10.850 -2.0659  0.2324  1.0777
  778MOL0     H 2677   7.660   0.481  10.684  1.7405  1.3952 -0.6988
  778MOL0     H 2678   7.340   0.922  10.635 -2.2739  0.8589  3.8760
  778MOL0     H 2679   7.159   1.066  10.713 -1.7951  1.1245 -1.9929
  778MOL0     H 2680   7.257   1.608  10.942 -0.3624 -0.8847 -0.0398
  778MOL0     H 2681   7.093   1.761  11.069  2.3179 -0.9247 -0.5225
  778MOL0     H 2682   7.136   1.712  10.534  0.1263 -2.7150 -3.4385
  778MOL0     H 2683   7.034   1.938  10.572  3.6841 -3.0841 -0.7130
  778MOL0     H 2684   6.813   2.270  10.603  0.1916 -3.5039  4.9966
  778MOL0     H 2685   6.764   2.473  10.703  1.2720 -1.6089  3.3171
  778MOL0     H 2686   6.658   2.672  10.723 -0.9689 -2.6847 -1.2321
  778MOL0     H 2687   6.721   2.623  10.878 -0.3340 -2.1423 -0.1557
  778MOL0     H 2688   6.638   2.845  10.886  0.3644 -0.2639 -0.1245
  778MOL0     H 2689   6.485   2.802  10.805  0.6390 -0.5176 -0.8301
  778MOL0     H 2690   6.567   2.692  11.083 -1.4579  0.0997  0.8123
  778MOL0     H 2691   6.406   2.681  11.012  0.4046 -0.6015  3.6891
  778MOL0     H 2692   6.386   2.924  11.028  0.4530  0.4491 -0.4229
  778MOL0     H 2693   6.386   2.842  11.184  0.3374 -1.6101 -0.1942
  778MOL0     H 2694   6.768   3.058  11.175 -0.7533  0.7049 -0.1301
  778MOL0     H 2695   6.404   2.325  10.877 -0.1751 -0.1456  0.8863
  778MOL0     H 2696   6.445   2.114  10.767  1.3937 -0.5795 -0.9877
  779MOL0     O 2697  10.226   3.769   3.990 -0.3124 -0.6276 -0.8749
  779MOL0     C 2698  10.258   3.667   4.054  0.1288  0.3950 -0.5195
  779MOL0     O 2699  10.179   3.555   4.070  0.0983  0.2097 -0.4070
  779MOL0     C 2700  10.058   3.537   4.003 -0.8052 -0.9199 -0.0202
  779MOL0     C 2701   9.952   3.489   4.080  0.5309 -0.2971 -0.3243
  779MOL0     C 2702   9.831   3.448   4.011 -0.2077  1.2150  1.2113
  779MOL0     C 2703   9.819   3.467   3.870 -1.0349 -0.7819  0.7042
  779MOL0     O 2704   9.716   3.458   3.789 -0.0415 -0.6257 -0.3751
  779MOL0     C 2705   9.593   3.410   3.845 -0.3884 -0.7152 -0.4473
  779MOL0     C 2706   9.509   3.364   3.725  0.5353 -0.3397 -0.2182
  779MOL0     C 2707   9.447   3.481   3.641  0.1031 -0.8170 -0.5320
  779MOL0     C 2708   9.559   3.543   3.551 -0.6492  0.5558  1.7423
  779MOL0     C 2709   9.486   3.610   3.427  0.0773  1.2477  0.3369
  779MOL0     C 2710   9.560   3.585   3.297  0.6708 -0.4567 -0.2941
  779MOL0     C 2711   9.491   3.628   3.162  0.4197  0.4651  0.6922
  779MOL0     C 2712   9.364   3.540   3.132  1.5577  0.4499 -0.7839
  779MOL0     N 2713   9.318   3.560   2.994  0.5800  0.5323  0.2052
  779MOL0     C 2714   9.386   3.516   2.878  0.0921 -0.2751 -0.5057
  779MOL0     C 2715   9.312   3.556   2.776 -0.8959 -0.6782 -0.3093
  779MOL0     C 2716   9.344   3.526   2.635 -0.3697 -0.1598  0.5881
  779MOL0     C 2717   9.235   3.566   2.541  0.8197  0.5948 -0.8411
  779MOL0     C 2718   9.270   3.551   2.392 -0.2052 -0.6191  0.0101
  779MOL0     C 2719   9.135   3.538   2.317 -0.7541 -0.6098 -0.2261
  779MOL0     O 2720   9.104   3.398   2.287 -0.0340 -0.0712  0.0401
  779MOL0     C 2721   8.977   3.365   2.252  1.2001 -0.2161  0.0014
  779MOL0     C 2722   8.944   3.233   2.245 -0.8166  0.2254 -0.3154
  779MOL0     C 2723   8.831   3.187   2.180 -0.6932 -0.1044  0.0659
  779MOL0     C 2724   8.741   3.275   2.120 -0.3551 -0.2795 -0.7382
  779MOL0     C 2725   8.634   3.207   2.043 -0.3618  0.5634 -0.4912
  779MOL0     O 2726   8.601   3.081   2.077 -0.0356  0.3189  0.1367
  779MOL0     C 2727   8.495   3.031   1.994  0.0024 -0.5461  0.3675
  779MOL0     C 2728   8.511   3.002   1.857  0.7371 -0.5575 -0.6703
  779MOL0     C 2729   8.392   2.962   1.785 -0.9347 -0.3615 -0.2134
  779MOL0     C 2730   8.270   2.939   1.839  0.4893  0.8908 -0.6466
  779MOL0     O 2731   8.164   2.900   1.754  0.4186  0.1543 -0.0528
  779MOL0     C 2732   8.106   2.765   1.787  0.0365 -0.5554 -0.4822
  779MOL0     C 2733   7.957   2.750   1.779  0.4371  0.6956  0.6986
  779MOL0     C 2734   7.884   2.861   1.850  0.9576  0.5616 -0.7241
  779MOL0     C 2735   7.730   2.832   1.818 -0.6955 -0.3616 -0.7128
  779MOL0     C 2736   7.651   2.786   1.943  0.3251  0.0514 -0.4583
  779MOL0     C 2737   7.504   2.758   1.932  0.1446  0.3148  0.1113
  779MOL0     C 2738   7.421   2.873   1.876 -0.3661  0.2925 -0.2079
  779MOL0     C 2739   7.267   2.847   1.868  1.5844 -0.2616 -0.1895
  779MOL0    Cl 2740   7.179   2.912   1.725  0.1245  0.1321 -0.1431
  779MOL0     C 2741   8.257   2.973   1.974  0.3316  0.0677 -0.1295
  779MOL0     C 2742   8.371   3.015   2.055 -0.2102  0.4854 -0.5830
  779MOL0     O 2743   8.580   3.278   1.960  0.7043 -0.8527  0.0360
  779MOL0     C 2744   8.769   3.416   2.139 -0.7900  0.2409  0.3859
  779MOL0     C 2745   8.891   3.461   2.200 -0.1998  0.3977 -0.1805
  779MOL0     N 2746   9.195   3.616   2.823  0.0531  0.0845 -0.2411
  779MOL0     N 2747   9.199   3.614   2.953 -0.3265  0.3347 -0.1226
  779MOL0     C 2748   9.931   3.531   3.812 -0.8547 -0.2951  0.8286
  779MOL0     C 2749  10.051   3.561   3.874  0.3800  0.4838  1.2301
  779MOL0     C 2750  10.408   3.654   4.087  0.6781  0.5899  0.1203
  779MOL0     C 2751  10.501   3.746   4.039  0.5872 -0.2073 -0.1148
  779MOL0     C 2752  10.630   3.742   4.079  0.1633  1.2691  0.8949
  779MOL0     C 2753  10.670   3.639   4.167  0.5877  0.7932  0.4692
  779MOL0     O 2754  10.804   3.655   4.194 -0.1505  0.1744  0.5453
  779MOL0     C 2755  10.878   3.531   4.205 -0.4794 -0.4984  0.2018
  779MOL0     C 2756  11.019   3.535   4.141 -0.6902 -0.0636 -1.3938
  779MOL0     C 2757  11.049   3.644   4.040  0.4373  0.0189 -0.1545
  779MOL0     C 2758  11.165   3.623   3.949 -0.0954 -0.0114 -0.6960
  779MOL0     C 2759  11.138   3.521   3.855  0.0649 -0.1285 -0.1396
  779MOL0     C 2760  11.126   3.438   3.769 -0.0941  0.0040 -0.8120
  779MOL0     C 2761  10.580   3.542   4.214 -0.1597 -0.1887 -0.6772
  779MOL0     C 2762  10.446   3.551   4.179 -0.2751  0.1110  0.4810
  779MOL0     H 2763   9.954   3.468   4.186 -0.5933 -2.5873 -0.6882
  779MOL0     H 2764   9.756   3.403   4.075 -1.4410  2.3319  0.5883
  779MOL0     H 2765   9.542   3.484   3.907 -2.7979 -2.0023 -0.7487
  779MOL0     H 2766   9.594   3.318   3.905  1.3585  0.3952  1.3494
  779MOL0     H 2767   9.434   3.301   3.772  1.6349 -0.8586  0.8894
  779MOL0     H 2768   9.571   3.295   3.667  0.4148 -1.0373  0.4611
  779MOL0     H 2769   9.412   3.556   3.712  2.8359  1.2059 -1.1557
  779MOL0     H 2770   9.360   3.439   3.589 -1.7391  0.5724  1.2772
  779MOL0     H 2771   9.628   3.606   3.608 -0.5729  0.3661  1.8624
  779MOL0     H 2772   9.612   3.461   3.502 -0.1024  1.4478  0.7998
  779MOL0     H 2773   9.494   3.717   3.447  3.2824  1.1025  0.3160
  779MOL0     H 2774   9.383   3.583   3.404  1.0683 -0.2202 -3.0374
  779MOL0     H 2775   9.573   3.477   3.291  1.9689 -0.3383  0.0835
  779MOL0     H 2776   9.660   3.627   3.306  0.8945 -1.2419  1.3184
  779MOL0     H 2777   9.461   3.733   3.160  1.9884  0.9310  0.7604
  779MOL0     H 2778   9.565   3.615   3.083  0.0831  1.1891  0.2470
  779MOL0     H 2779   9.287   3.590   3.191  2.1420  2.3791 -1.5534
  779MOL0     H 2780   9.376   3.435   3.160 -1.1471  0.0533 -0.8605
  779MOL0     H 2781   9.478   3.464   2.854  2.1205  1.3371  3.0222
  779MOL0     H 2782   9.379   3.423   2.625  2.1998  0.3730  2.9732
  779MOL0     H 2783   9.435   3.584   2.613 -0.5471  1.3519  3.4229
  779MOL0     H 2784   9.194   3.664   2.567 -0.7463 -0.4980  1.0608
  779MOL0     H 2785   9.154   3.501   2.573  1.2486  0.8415  0.8493
  779MOL0     H 2786   9.311   3.643   2.350  1.8277 -1.4998 -0.0343
  779MOL0     H 2787   9.334   3.467   2.365  4.3199  3.0303 -2.1445
  779MOL0     H 2788   9.151   3.575   2.216  1.7266 -0.5850  0.1207
  779MOL0     H 2789   9.061   3.598   2.371  1.0979 -0.0244  1.8212
  779MOL0     H 2790   9.022   3.162   2.271  0.5071  1.4837 -0.7471
  779MOL0     H 2791   8.827   3.080   2.163  1.4255 -0.0236 -1.2888
  779MOL0     H 2792   8.597   3.019   1.793  1.1826 -1.0383 -0.2173
  779MOL0     H 2793   8.394   2.937   1.679  2.2820 -0.7793 -0.1451
  779MOL0     H 2794   8.128   2.748   1.892  1.1242  2.9974 -0.0200
  779MOL0     H 2795   8.157   2.691   1.724  0.5063  0.3098 -1.1363
  779MOL0     H 2796   7.930   2.647   1.802  2.8086 -1.2537 -3.9295
  779MOL0     H 2797   7.943   2.760   1.671  1.9054 -0.4308  0.3779
  779MOL0     H 2798   7.916   2.958   1.810 -1.7884  0.8810 -2.3661
  779MOL0     H 2799   7.896   2.843   1.957 -2.7436 -2.5197 -0.6423
  779MOL0     H 2800   7.679   2.922   1.782  0.9227  0.0852 -2.0389
  779MOL0     H 2801   7.725   2.763   1.734 -1.1779  0.7345 -1.6146
  779MOL0     H 2802   7.648   2.869   2.014 -2.1463 -0.8456  0.5885
  779MOL0     H 2803   7.709   2.704   1.986 -2.8889 -1.1677  1.8782
  779MOL0     H 2804   7.456   2.725   2.024 -2.2650  0.4585 -1.0303
  779MOL0     H 2805   7.499   2.665   1.874  1.7240 -0.1762  0.6906
  779MOL0     H 2806   7.442   2.964   1.933 -0.0279 -1.2583  2.2959
  779MOL0     H 2807   7.458   2.890   1.774  0.4554 -1.2378 -0.1864
  779MOL0     H 2808   7.212   2.863   1.961 -1.5699  0.4485 -2.0419
  779MOL0     H 2809   7.275   2.739   1.853 -0.0268 -0.0763 -3.2639
  779MOL0     H 2810   8.159   2.973   2.021  0.8893  0.3513  1.0775
  779MOL0     H 2811   8.364   3.034   2.161 -2.8004  1.2974 -0.8359
  779MOL0     H 2812   8.698   3.490   2.101 -0.9543 -0.8943 -1.6784
  779MOL0     H 2813   8.915   3.566   2.188 -3.0644  1.3625  1.5947
  779MOL0     H 2814   9.925   3.555   3.706 -0.1568  1.3730  1.1426
  779MOL0     H 2815  10.136   3.599   3.818 -1.3975 -1.5556 -3.3465
  779MOL0     H 2816  10.473   3.826   3.972  1.1062 -2.0736 -2.7020
  779MOL0     H 2817  10.707   3.807   4.039  2.0043 -3.1343 -3.6883
  779MOL0     H 2818  10.822   3.444   4.167 -2.1301  0.1266  1.1018
  779MOL0     H 2819  10.888   3.511   4.312  0.3460  2.1679  0.6926
  779MOL0     H 2820  11.082   3.552   4.229 -2.3291  2.8962 -0.6583
  779MOL0     H 2821  11.052   3.437   4.105  0.7582  0.3676 -1.2727
  779MOL0     H 2822  11.045   3.737   4.097  1.5202 -2.0666  3.6742
  779MOL0     H 2823  10.961   3.651   3.975  0.6578 -2.1927 -0.7629
  779MOL0     H 2824  11.190   3.725   3.918  0.7318  0.7053  2.0381
  779MOL0     H 2825  11.248   3.596   4.014 -0.4075 -1.9606 -1.0665
  779MOL0     H 2826  11.116   3.353   3.703 -2.2007 -1.3592  1.1227
  779MOL0     H 2827  10.619   3.454   4.264 -0.4678 -1.4338 -2.5536
  779MOL0     H 2828  10.375   3.473   4.203  1.1973 -1.6882 -0.7774
  780MOL0     O 2829   3.886   6.758   7.951 -0.3927  0.2145 -0.1729
  780MOL0     C 2830   3.919   6.751   7.828 -0.2311  1.5788  0.1829
  780MOL0     O 2831   3.998   6.653   7.780 -0.2158 -0.5168 -0.0663
  780MOL0     C 2832   4.062   6.576   7.868  0.1703  1.0462 -1.4700
  780MOL0     C 2833   4.205   6.579   7.879 -0.1089 -0.7301 -0.4859
  780MOL0     C 2834   4.281   6.486   7.950 -0.2615 -0.7613 -0.7643
  780MOL0     C 2835   4.214   6.400   8.041  0.0408 -0.2127 -0.0312
  780MOL0     O 2836   4.289   6.301   8.105  1.0969  0.1246 -0.4119
  780MOL0     C 2837   4.395   6.344   8.194  0.3444 -0.9542  0.5160
  780MOL0     C 2838   4.464   6.225   8.256 -0.4607 -0.2315  0.2402
  780MOL0     C 2839   4.376   6.099   8.284 -0.5785 -0.1109  0.1242
  780MOL0     C 2840   4.466   5.997   8.364  0.1198  1.0070  0.5148
  780MOL0     C 2841   4.392   5.863   8.416 -0.5356  0.4691 -0.0563
  780MOL0     C 2842   4.276   5.891   8.516 -0.3022  0.1295  0.5713
  780MOL0     C 2843   4.316   5.878   8.660  0.5996 -0.1200  0.2999
  780MOL0     C 2844   4.210   5.940   8.753  0.2075  0.4925 -0.0349
  780MOL0     N 2845   4.288   6.025   8.845 -0.6212 -1.0970  0.1972
  780MOL0     C 2846   4.376   5.972   8.937  0.0998  0.2570 -0.0052
  780MOL0     C 2847   4.439   6.075   8.975 -0.5379 -0.3840  0.6727
  780MOL0     C 2848   4.546   6.089   9.076  0.0715 -0.5864 -0.0269
  780MOL0     C 2849   4.486   6.148   9.200 -0.4881 -0.0272 -1.1624
  780MOL0     C 2850   4.601   6.174   9.299 -1.3426  1.1969 -0.3405
  780MOL0     C 2851   4.537   6.209   9.436  0.0556  0.0840  0.0113
  780MOL0     O 2852   4.642   6.252   9.530  0.2077  0.3787  0.0825
  780MOL0     C 2853   4.615   6.267   9.661  1.0663  0.2788 -0.3879
  780MOL0     C 2854   4.490   6.302   9.706 -0.0021 -0.0166 -0.5474
  780MOL0     C 2855   4.464   6.322   9.839  0.1208  0.4491  0.7866
  780MOL0     C 2856   4.573   6.301   9.930 -0.0032  0.0300  0.3896
  780MOL0     C 2857   4.562   6.345  10.066 -0.4890  0.0941 -0.0259
  780MOL0     O 2858   4.451   6.415  10.097 -1.2015  0.4664 -0.5926
  780MOL0     C 2859   4.429   6.466  10.219 -0.1726 -0.1847 -0.1769
  780MOL0     C 2860   4.338   6.409  10.315 -0.0210 -0.6103 -0.6056
  780MOL0     C 2861   4.333   6.461  10.449 -0.3757  0.5176  0.4102
  780MOL0     C 2862   4.400   6.581  10.479 -0.6468  0.1905  1.0258
  780MOL0     O 2863   4.394   6.617  10.605  0.2144  0.4525 -0.3694
  780MOL0     C 2864   4.365   6.750  10.630  0.7577  0.3576 -0.2920
  780MOL0     C 2865   4.230   6.799  10.561 -0.1416  0.3668  0.0642
  780MOL0     C 2866   4.215   6.955  10.561 -0.6027 -0.6788  0.6083
  780MOL0     C 2867   4.145   6.997  10.694  0.4354  0.2090 -0.9459
  780MOL0     C 2868   4.126   7.151  10.699 -1.4403  0.9603  0.9384
  780MOL0     C 2869   4.065   7.189  10.835 -0.5955 -1.2596  0.6106
  780MOL0     C 2870   3.993   7.327  10.808 -0.3092 -0.5375  0.1924
  780MOL0     C 2871   3.932   7.388  10.938 -1.4024  0.4863  0.2509
  780MOL0    Cl 2872   3.775   7.295  10.977 -0.2688  0.4042 -0.4154
  780MOL0     C 2873   4.487   6.642  10.387 -0.1758 -0.0166  0.3096
  780MOL0     C 2874   4.494   6.586  10.257 -0.5625  0.4789  0.1479
  780MOL0     O 2875   4.656   6.323  10.142  0.0340 -0.1717 -1.2705
  780MOL0     C 2876   4.692   6.254   9.880 -1.2036  0.8297 -0.3771
  780MOL0     C 2877   4.716   6.226   9.745 -0.6715 -0.4471 -0.5544
  780MOL0     N 2878   4.392   6.184   8.902 -0.3304 -0.0504  0.4697
  780MOL0     N 2879   4.303   6.154   8.816  0.0790 -0.0387  0.0364
  780MOL0     C 2880   4.067   6.399   8.039 -0.5567  0.7641 -0.4728
  780MOL0     C 2881   3.994   6.479   7.952 -0.6016 -0.3426  0.1435
  780MOL0     C 2882   3.860   6.847   7.742 -0.8887 -0.4581  0.4589
  780MOL0     C 2883   3.920   6.870   7.613 -0.4750  0.4157 -0.4404
  780MOL0     C 2884   3.863   6.967   7.528  0.0517  0.3572  0.6870
  780MOL0     C 2885   3.756   7.049   7.563 -0.6970  0.3123 -0.2070
  780MOL0     O 2886   3.693   7.146   7.492 -0.0991  0.3762 -0.0128
  780MOL0     C 2887   3.757   7.218   7.389  0.3517  0.6243  0.5766
  780MOL0     C 2888   3.651   7.252   7.286 -0.9253  0.0539 -0.4501
  780MOL0     C 2889   3.649   7.408   7.266  0.4379 -0.2859  0.3107
  780MOL0     C 2890   3.764   7.459   7.175 -0.3219 -1.1724  0.1392
  780MOL0     C 2891   3.753   7.402   7.043 -0.0204 -0.1892 -0.6710
  780MOL0     C 2892   3.761   7.345   6.937  0.5339 -0.0676  0.0073
  780MOL0     C 2893   3.711   7.035   7.696 -0.0118 -0.8036  0.2316
  780MOL0     C 2894   3.763   6.942   7.784 -0.6397 -0.7811  0.2657
  780MOL0     H 2895   4.267   6.653   7.828  1.9154 -3.1289 -1.7762
  780MOL0     H 2896   4.389   6.493   7.955 -0.4092  2.4786  0.3287
  780MOL0     H 2897   4.355   6.410   8.272  0.3371 -1.1255  0.6590
  780MOL0     H 2898   4.465   6.411   8.143 -2.6534  1.3060 -0.9730
  780MOL0     H 2899   4.513   6.266   8.345 -0.6669 -1.1795  0.7994
  780MOL0     H 2900   4.540   6.189   8.186 -2.0950 -2.9672 -0.2648
  780MOL0     H 2901   4.334   6.054   8.193  0.5442 -1.3668  0.1980
  780MOL0     H 2902   4.298   6.130   8.354  1.2613  1.1984  1.7051
  780MOL0     H 2903   4.541   5.960   8.294 -1.4208  0.0285 -0.6755
  780MOL0     H 2904   4.510   6.045   8.452 -0.4058 -1.6114  2.3419
  780MOL0     H 2905   4.461   5.798   8.470 -0.6146 -1.1534 -1.7813
  780MOL0     H 2906   4.350   5.811   8.329  0.8646  0.3867 -0.7120
  780MOL0     H 2907   4.207   5.813   8.482  0.9599 -0.2642 -1.2125
  780MOL0     H 2908   4.242   5.991   8.490  3.1606  1.7388  1.6307
  780MOL0     H 2909   4.317   5.769   8.676  2.4359 -0.4374 -1.5080
  780MOL0     H 2910   4.418   5.920   8.660 -0.2294  2.3109 -3.4762
  780MOL0     H 2911   4.148   5.866   8.805 -1.1207 -0.2328 -2.4724
  780MOL0     H 2912   4.131   5.979   8.689  0.3386  1.4071  0.3464
  780MOL0     H 2913   4.383   5.876   8.988 -0.5970 -0.3225 -0.9565
  780MOL0     H 2914   4.619   6.162   9.039  0.2684 -0.6640  0.2082
  780MOL0     H 2915   4.594   5.992   9.096 -2.8354 -1.5310  3.3779
  780MOL0     H 2916   4.413   6.082   9.247 -0.2504  1.6786  1.8023
  780MOL0     H 2917   4.445   6.250   9.196 -0.4729  0.2242  2.4699
  780MOL0     H 2918   4.658   6.082   9.314 -0.9162  1.8489  2.6879
  780MOL0     H 2919   4.667   6.250   9.254 -2.1777  1.0684 -1.8463
  780MOL0     H 2920   4.470   6.128   9.468 -0.3299  0.4763  0.2039
  780MOL0     H 2921   4.475   6.298   9.423 -4.0891 -2.8671 -2.5818
  780MOL0     H 2922   4.408   6.305   9.635 -0.1524 -0.8056 -0.4150
  780MOL0     H 2923   4.363   6.342   9.871 -1.4702 -2.4479 -1.8168
  780MOL0     H 2924   4.301   6.311  10.286  1.9650 -1.9499  1.1231
  780MOL0     H 2925   4.273   6.408  10.523 -2.4305  0.3470 -1.2622
  780MOL0     H 2926   4.451   6.809  10.597  0.2146 -0.0044 -2.5126
  780MOL0     H 2927   4.352   6.767  10.738 -0.9095  2.1681 -0.7090
  780MOL0     H 2928   4.142   6.744  10.597  2.1135 -3.3703  0.4352
  780MOL0     H 2929   4.232   6.765  10.456 -1.2974 -0.7045  0.3584
  780MOL0     H 2930   4.164   6.987  10.470  0.4079  0.8879  0.5472
  780MOL0     H 2931   4.318   6.992  10.563 -0.9497  0.5197 -1.2569
  780MOL0     H 2932   4.045   6.954  10.695 -1.1092  3.3856  1.7066
  780MOL0     H 2933   4.199   6.956  10.781  0.3490 -2.2071 -1.9555
  780MOL0     H 2934   4.070   7.180  10.611  3.4815  1.8138 -2.3337
  780MOL0     H 2935   4.226   7.194  10.683 -0.8619 -1.2742 -2.5376
  780MOL0     H 2936   4.144   7.198  10.911 -0.7976 -0.4752  0.7379
  780MOL0     H 2937   3.996   7.116  10.877 -1.7131 -0.5897 -0.0306
  780MOL0     H 2938   4.072   7.396  10.775  0.7321 -3.1995 -3.4174
  780MOL0     H 2939   3.923   7.326  10.725 -0.1858 -1.4626  0.0962
  780MOL0     H 2940   3.905   7.491  10.913 -0.0843  0.9943  0.8166
  780MOL0     H 2941   4.012   7.382  11.013 -0.1117  0.3992 -1.0826
  780MOL0     H 2942   4.544   6.730  10.414 -0.3004  0.6275 -1.3784
  780MOL0     H 2943   4.563   6.629  10.185  2.1552 -1.7409  1.2465
  780MOL0     H 2944   4.775   6.239   9.948 -2.8798 -4.6935  0.9641
  780MOL0     H 2945   4.819   6.211   9.715 -0.9024 -1.5943 -0.8206
  780MOL0     H 2946   4.018   6.325   8.101  1.6170 -0.3464  0.0385
  780MOL0     H 2947   3.887   6.491   7.936 -0.2665  3.0892 -0.3178
  780MOL0     H 2948   4.003   6.805   7.584 -1.1173 -2.4099  3.2416
  780MOL0     H 2949   3.896   6.957   7.425 -1.8550 -2.1329  0.2258
  780MOL0     H 2950   3.838   7.152   7.356  0.3456  0.1128  1.5352
  780MOL0     H 2951   3.794   7.312   7.429 -0.1258  0.3810  1.6503
  780MOL0     H 2952   3.677   7.214   7.187 -0.8533  1.7646 -1.1178
  780MOL0     H 2953   3.558   7.212   7.327 -0.5476  1.0703  1.5130
  780MOL0     H 2954   3.652   7.463   7.361  0.2743  2.9996 -1.4224
  780MOL0     H 2955   3.555   7.438   7.218  0.8342  0.7090  0.1330
  780MOL0     H 2956   3.745   7.565   7.156 -0.1870 -0.6658  2.5480
  780MOL0     H 2957   3.864   7.462   7.219  0.8407  2.0025 -2.2955
  780MOL0     H 2958   3.779   7.291   6.847  3.0393  1.5753 -0.5690
  780MOL0     H 2959   3.635   7.109   7.718 -0.6142 -0.8625 -1.5046
  780MOL0     H 2960   3.717   6.933   7.882 -2.8744 -1.0656 -0.7713
  781MOL0     O 2961   2.949   6.669   3.272 -0.4809 -0.4447  0.2248
  781MOL0     C 2962   2.901   6.592   3.194 -0.2436  0.6591 -0.5937
  781MOL0     O 2963   2.826   6.483   3.231 -0.5584  0.3530  0.0224
  781MOL0     C 2964   2.823   6.444   3.358  0.0077  0.4495 -0.3279
  781MOL0     C 2965   2.720   6.492   3.442  0.1396 -0.2363 -0.4933
  781MOL0     C 2966   2.726   6.444   3.572  0.0343 -1.3040  0.1820
  781MOL0     C 2967   2.827   6.349   3.618  0.1382  0.5150  0.5037
  781MOL0     O 2968   2.837   6.283   3.746  0.4451 -0.0993 -0.1783
  781MOL0     C 2969   2.814   6.143   3.741  0.5074  0.3144  0.3483
  781MOL0     C 2970   2.729   6.107   3.872  0.0426  0.9745  0.4074
  781MOL0     C 2971   2.654   5.972   3.857 -0.1199  0.0131  0.0194
  781MOL0     C 2972   2.742   5.858   3.858 -0.4696  0.7222 -0.8508
  781MOL0     C 2973   2.671   5.720   3.877  0.8792  0.2068 -0.9418
  781MOL0     C 2974   2.765   5.595   3.906  0.8005 -0.1104 -0.1697
  781MOL0     C 2975   2.690   5.481   3.976  0.3018 -0.5244  0.1184
  781MOL0     C 2976   2.605   5.385   3.880 -0.4792 -0.0546 -1.1645
  781MOL0     N 2977   2.498   5.326   3.967 -0.7566 -0.3745 -0.5210
  781MOL0     C 2978   2.461   5.190   3.967 -0.4131 -0.1219 -0.1068
  781MOL0     C 2979   2.351   5.180   4.036  0.4808  0.3036 -0.4500
  781MOL0     C 2980   2.271   5.054   4.067  0.4348  0.6724  0.7395
  781MOL0     C 2981   2.229   5.025   4.208  0.1537  1.0742 -0.3051
  781MOL0     C 2982   2.321   5.014   4.318  0.7328  0.2371 -0.5284
  781MOL0     C 2983   2.420   4.898   4.314  0.1867 -0.0804  0.3783
  781MOL0     O 2984   2.525   4.920   4.216 -0.0742  0.5886 -0.3492
  781MOL0     C 2985   2.622   5.005   4.256 -1.0121 -0.0559  1.2011
  781MOL0     C 2986   2.652   5.049   4.383  0.4091  0.2161 -1.0052
  781MOL0     C 2987   2.752   5.140   4.406 -0.2886  0.4149 -1.1220
  781MOL0     C 2988   2.834   5.193   4.301  0.3337  0.4624  0.4044
  781MOL0     C 2989   2.932   5.295   4.337 -0.5869 -0.0071  0.6732
  781MOL0     O 2990   2.922   5.347   4.462 -0.3554  0.1803  0.6978
  781MOL0     C 2991   3.032   5.409   4.508  0.2856 -0.4091 -0.4106
  781MOL0     C 2992   3.148   5.339   4.544 -0.6025  0.0680 -0.0196
  781MOL0     C 2993   3.262   5.413   4.596  0.6046  0.1459  1.2570
  781MOL0     C 2994   3.256   5.551   4.598 -0.2519 -0.3029  0.4691
  781MOL0     O 2995   3.367   5.626   4.629  0.1341 -0.1582  0.6753
  781MOL0     C 2996   3.370   5.712   4.742 -0.5173  0.4897 -0.9128
  781MOL0     C 2997   3.405   5.630   4.861  0.2565  0.9035 -0.5316
  781MOL0     C 2998   3.541   5.562   4.848  0.5221  0.4061  0.0520
  781MOL0     C 2999   3.582   5.502   4.989  0.0576  0.6158  0.5233
  781MOL0     C 3000   3.704   5.412   4.987  0.3161  0.1574  0.3327
  781MOL0     C 3001   3.765   5.391   5.132 -0.2080  0.4130  0.1105
  781MOL0     C 3002   3.684   5.276   5.205  0.5435 -0.0734  0.5423
  781MOL0     C 3003   3.706   5.145   5.141 -0.6158 -0.1315  0.4566
  781MOL0    Cl 3004   3.877   5.110   5.153 -0.1358 -0.4046 -0.0657
  781MOL0     C 3005   3.142   5.613   4.561  1.6238 -0.5309 -0.0979
  781MOL0     C 3006   3.031   5.548   4.514  0.0351  0.3451 -0.3822
  781MOL0     O 3007   3.019   5.332   4.253  0.3011  0.2381  0.2492
  781MOL0     C 3008   2.815   5.143   4.171  0.2127 -0.2654 -0.6922
  781MOL0     C 3009   2.709   5.052   4.150 -0.5184  1.1033 -0.5313
  781MOL0     N 3010   2.317   5.308   4.091 -0.6275  0.4191  0.6875
  781MOL0     N 3011   2.404   5.389   4.042 -0.4477 -0.2488 -0.2693
  781MOL0     C 3012   2.919   6.297   3.524 -0.2926  0.5740  0.3899
  781MOL0     C 3013   2.913   6.336   3.390 -0.0306  0.3887 -0.0612
  781MOL0     C 3014   2.938   6.615   3.053 -0.5996  0.3864  0.2244
  781MOL0     C 3015   2.847   6.565   2.958 -0.3115 -0.5625  0.5744
  781MOL0     C 3016   2.865   6.594   2.823 -0.2167  0.4707  1.1276
  781MOL0     C 3017   2.983   6.657   2.777  0.0093 -0.0802 -0.5450
  781MOL0     O 3018   3.016   6.686   2.636  0.0250 -0.0976  0.4016
  781MOL0     C 3019   2.902   6.652   2.548  0.3092  0.3648  0.0407
  781MOL0     C 3020   2.950   6.687   2.412 -0.3407  0.5252  0.2147
  781MOL0     C 3021   2.841   6.656   2.302 -0.9616 -0.1308 -0.0987
  781MOL0     C 3022   2.864   6.716   2.164 -0.4527 -0.7349 -0.1054
  781MOL0     C 3023   2.968   6.645   2.093  0.6006 -0.0895 -0.0131
  781MOL0     C 3024   3.042   6.590   2.012  0.6382 -0.3047 -0.4176
  781MOL0     C 3025   3.078   6.700   2.870 -0.2610 -0.1721 -1.3126
  781MOL0     C 3026   3.049   6.688   3.008  0.4438  0.5131  0.2870
  781MOL0     H 3027   2.637   6.556   3.415  1.0032  1.1705  0.1031
  781MOL0     H 3028   2.653   6.470   3.647 -2.3321 -2.8445 -1.4581
  781MOL0     H 3029   2.914   6.100   3.745  1.3359  2.0851 -0.2536
  781MOL0     H 3030   2.781   6.104   3.644 -0.6624  0.1455  0.7951
  781MOL0     H 3031   2.657   6.189   3.889 -1.4730 -0.2357  0.0608
  781MOL0     H 3032   2.789   6.101   3.963  1.1922  0.5295 -0.3674
  781MOL0     H 3033   2.593   5.970   3.767 -2.8745 -4.0451  1.6378
  781MOL0     H 3034   2.581   5.956   3.937  0.1786 -1.9152 -0.0219
  781MOL0     H 3035   2.791   5.847   3.761 -2.4297  0.0297 -1.7996
  781MOL0     H 3036   2.813   5.868   3.941  0.1310  0.0497 -1.2712
  781MOL0     H 3037   2.609   5.699   3.789 -0.2084  0.1332 -0.1804
  781MOL0     H 3038   2.611   5.723   3.969  2.8829  1.5483  0.4007
  781MOL0     H 3039   2.852   5.618   3.969  0.1608  2.5843 -0.1254
  781MOL0     H 3040   2.800   5.555   3.811  0.6718  0.6028 -0.5203
  781MOL0     H 3041   2.759   5.416   4.031 -0.3077 -3.1363 -2.0148
  781MOL0     H 3042   2.623   5.522   4.053 -1.3651 -3.8068  0.5786
  781MOL0     H 3043   2.672   5.305   3.845  1.5364  1.1619 -0.3083
  781MOL0     H 3044   2.558   5.436   3.795  0.8694  0.5310 -1.5898
  781MOL0     H 3045   2.500   5.100   3.920 -0.5123 -3.1236  4.8481
  781MOL0     H 3046   2.329   4.975   4.019 -1.2649  0.3267 -0.8137
  781MOL0     H 3047   2.181   5.057   4.006  0.8622  1.5361  0.1339
  781MOL0     H 3048   2.177   4.929   4.207  0.2438  0.9989 -2.1164
  781MOL0     H 3049   2.162   5.101   4.248 -1.1281  0.4085 -1.1188
  781MOL0     H 3050   2.379   5.106   4.328  1.0394 -0.0810  0.7554
  781MOL0     H 3051   2.258   4.993   4.404  3.0181 -1.0861  0.9337
  781MOL0     H 3052   2.378   4.800   4.288  0.2998 -0.8022  2.6864
  781MOL0     H 3053   2.455   4.881   4.416  0.3677 -1.1783  0.1456
  781MOL0     H 3054   2.601   5.012   4.471  2.1420  0.2776  0.0688
  781MOL0     H 3055   2.765   5.186   4.504  2.3195  2.2810 -2.2413
  781MOL0     H 3056   3.156   5.231   4.545 -0.6100  0.0153  2.9840
  781MOL0     H 3057   3.361   5.373   4.613  2.7164  3.9460 -0.8983
  781MOL0     H 3058   3.272   5.756   4.763 -0.4117  0.1271  0.4268
  781MOL0     H 3059   3.434   5.800   4.727 -2.3173  2.3116  1.4699
  781MOL0     H 3060   3.335   5.548   4.881  1.5471  0.0936  0.8848
  781MOL0     H 3061   3.408   5.694   4.950 -0.9316  0.1841  0.0613
  781MOL0     H 3062   3.624   5.626   4.817  1.5454  0.1310  2.0408
  781MOL0     H 3063   3.533   5.477   4.779 -1.3988 -0.0662  0.8126
  781MOL0     H 3064   3.618   5.586   5.049 -1.1755  2.5797 -1.3263
  781MOL0     H 3065   3.502   5.440   5.030  0.9085 -3.4413 -3.2151
  781MOL0     H 3066   3.783   5.457   4.927  1.5793 -3.7487 -1.2833
  781MOL0     H 3067   3.678   5.317   4.937  1.3535 -1.0218  1.9401
  781MOL0     H 3068   3.752   5.480   5.194 -0.4568  0.7054 -0.3472
  781MOL0     H 3069   3.871   5.368   5.118  0.0588  3.2024 -6.1689
  781MOL0     H 3070   3.704   5.263   5.312  0.2358  1.7888  0.8508
  781MOL0     H 3071   3.579   5.296   5.185  0.2325 -2.4886 -0.5558
  781MOL0     H 3072   3.672   5.130   5.038  4.0695 -2.6677 -1.0116
  781MOL0     H 3073   3.645   5.079   5.202 -0.4404  1.9743  3.0988
  781MOL0     H 3074   3.126   5.719   4.573 -0.7226 -0.8943  0.5225
  781MOL0     H 3075   2.940   5.602   4.491  0.5183  0.9734 -0.8584
  781MOL0     H 3076   2.879   5.171   4.089  0.6632  0.1686 -0.2047
  781MOL0     H 3077   2.683   5.025   4.048 -1.1914  2.1591 -0.6634
  781MOL0     H 3078   2.994   6.223   3.553 -2.1757 -1.3195  0.7109
  781MOL0     H 3079   2.972   6.297   3.307 -0.1503 -1.4777  0.6817
  781MOL0     H 3080   2.764   6.503   2.990  1.0482 -1.1506  3.2643
  781MOL0     H 3081   2.797   6.544   2.755  1.1361 -0.6884  0.5597
  781MOL0     H 3082   2.823   6.719   2.582  1.7830  1.8045  0.7408
  781MOL0     H 3083   2.856   6.553   2.555  1.5959 -0.2081  0.7706
  781MOL0     H 3084   2.959   6.795   2.426  2.6959  0.4919 -0.8162
  781MOL0     H 3085   3.048   6.652   2.378 -0.1872  2.3050 -1.3247
  781MOL0     H 3086   2.743   6.686   2.337 -1.9418 -4.0318  1.0415
  781MOL0     H 3087   2.826   6.548   2.288  0.7348 -0.2849 -1.1897
  781MOL0     H 3088   2.772   6.690   2.111 -0.3157 -4.4088  1.1255
  781MOL0     H 3089   2.884   6.823   2.169 -0.1316 -0.7616 -0.6969
  781MOL0     H 3090   3.113   6.535   1.953  1.3821  3.3433 -3.2509
  781MOL0     H 3091   3.169   6.759   2.860  0.4503  0.2355  4.3569
  781MOL0     H 3092   3.113   6.725   3.088 -0.7687 -1.0989  2.0885
  782MOL0     O 3093   6.009  10.574   8.186 -0.2866  0.1434 -0.0212
  782MOL0     C 3094   6.043  10.681   8.233 -0.5688 -1.5066 -0.1045
  782MOL0     O 3095   6.040  10.719   8.363  0.3739 -0.3594 -0.0965
  782MOL0     C 3096   6.002  10.636   8.465 -0.2018 -0.0011 -0.7081
  782MOL0     C 3097   5.884  10.563   8.460  0.5770  0.2028 -0.3059
  782MOL0     C 3098   5.858  10.472   8.565  0.2608 -0.3653 -0.5603
  782MOL0     C 3099   5.933  10.450   8.672 -0.2671 -0.1914  1.1519
  782MOL0     O 3100   5.898  10.375   8.778  0.1851 -0.7249 -1.2481
  782MOL0     C 3101   5.792  10.279   8.787  0.0197  1.2668  0.9137
  782MOL0     C 3102   5.823  10.192   8.914  0.1321 -0.2646 -0.1744
  782MOL0     C 3103   5.721  10.076   8.926  0.1380 -0.6971  0.2620
  782MOL0     C 3104   5.744   9.973   8.817  0.1952 -0.3912  0.8022
  782MOL0     C 3105   5.680   9.842   8.864  0.9803  0.6461 -0.8651
  782MOL0     C 3106   5.527   9.860   8.870 -0.6375  0.7935 -0.8788
  782MOL0     C 3107   5.458   9.735   8.922  0.5833 -0.0900  0.4023
  782MOL0     C 3108   5.432   9.738   9.071  0.3068 -0.8341  0.0821
  782MOL0     N 3109   5.550   9.733   9.152  0.6420  0.0820 -0.4373
  782MOL0     C 3110   5.649   9.644   9.147 -0.6852  1.3394  0.3189
  782MOL0     C 3111   5.749   9.677   9.234  0.5950  0.1481 -0.2180
  782MOL0     C 3112   5.890   9.608   9.259  0.3286 -1.0229 -0.1891
  782MOL0     C 3113   5.981   9.614   9.133  0.5046  1.1067 -0.0513
  782MOL0     C 3114   6.018   9.755   9.082 -0.3527  1.0553  0.0113
  782MOL0     C 3115   6.104   9.843   9.183 -0.7478 -0.5851 -0.7636
  782MOL0     O 3116   6.164   9.962   9.115 -0.0083 -0.3003 -0.3473
  782MOL0     C 3117   6.292   9.992   9.148  0.0895 -0.6096  0.2956
  782MOL0     C 3118   6.388  10.014   9.053 -0.3061 -0.1575  0.4459
  782MOL0     C 3119   6.520  10.037   9.093  0.7251 -0.6100  0.4891
  782MOL0     C 3120   6.564  10.049   9.219  0.3040 -0.2012 -0.9106
  782MOL0     C 3121   6.703  10.077   9.250  0.1457 -0.4695  0.0328
  782MOL0     O 3122   6.788  10.051   9.152 -0.3494 -0.4084  0.1536
  782MOL0     C 3123   6.918  10.063   9.178  0.0410 -0.3201 -0.5094
  782MOL0     C 3124   6.983  10.191   9.176 -0.5927 -0.8181  0.5476
  782MOL0     C 3125   7.131  10.180   9.189 -0.1227 -0.2282 -0.0047
  782MOL0     C 3126   7.204  10.059   9.199 -0.1203 -0.4572 -0.1293
  782MOL0     O 3127   7.343  10.045   9.193  0.6324 -0.0770 -0.6397
  782MOL0     C 3128   7.404  10.095   9.081 -0.1936  0.7277  0.2149
  782MOL0     C 3129   7.549  10.057   9.068  0.7883  0.6678  0.3206
  782MOL0     C 3130   7.647  10.093   9.180  0.0435 -0.0591 -0.1897
  782MOL0     C 3131   7.625  10.228   9.242 -0.1123 -0.0527 -0.7205
  782MOL0     C 3132   7.729  10.249   9.360  0.1693  0.6318 -0.0361
  782MOL0     C 3133   7.706  10.396   9.405 -0.0580  0.3643 -0.7966
  782MOL0     C 3134   7.822  10.445   9.494  0.2547  1.8811  0.5662
  782MOL0     C 3135   7.805  10.594   9.533  0.5832 -0.0629  0.1600
  782MOL0    Cl 3136   7.695  10.650   9.670  0.2990  0.4041 -0.3155
  782MOL0     C 3137   7.131   9.943   9.199 -0.8578 -0.1805 -0.2859
  782MOL0     C 3138   6.990   9.938   9.194  0.0659 -0.1056 -0.0880
  782MOL0     O 3139   6.733  10.131   9.360 -0.1988  0.5507  0.3311
  782MOL0     C 3140   6.457  10.047   9.317 -0.4381 -0.1192  0.0183
  782MOL0     C 3141   6.331  10.000   9.285 -0.1055  0.4900  0.1320
  782MOL0     N 3142   5.698   9.786   9.299  0.4096  0.5554 -0.7439
  782MOL0     N 3143   5.579   9.820   9.252 -0.0344  0.4355  0.0250
  782MOL0     C 3144   6.049  10.525   8.683  0.1320  0.1931  0.9878
  782MOL0     C 3145   6.082  10.618   8.579  0.0019  0.0078  0.3245
  782MOL0     C 3146   6.138  10.767   8.161  0.4327  0.2187  0.2607
  782MOL0     C 3147   6.201  10.885   8.216 -0.0696 -0.0042 -0.2834
  782MOL0     C 3148   6.290  10.967   8.141  1.0847 -0.0603  0.2458
  782MOL0     C 3149   6.304  10.934   8.006 -0.0439 -0.1346 -0.3126
  782MOL0     O 3150   6.405  10.984   7.931 -0.6478 -0.1388 -0.1935
  782MOL0     C 3151   6.474  11.113   7.965 -0.3159  0.6896 -0.0400
  782MOL0     C 3152   6.383  11.229   7.922 -0.0301 -0.1842  0.6048
  782MOL0     C 3153   6.469  11.360   7.924 -0.7190  0.7897  0.3673
  782MOL0     C 3154   6.389  11.467   7.848  0.1257 -0.4166 -0.9171
  782MOL0     C 3155   6.441  11.600   7.874 -0.5037 -0.7070 -0.7640
  782MOL0     C 3156   6.502  11.702   7.892 -0.5052  0.9625  0.3123
  782MOL0     C 3157   6.238  10.827   7.947 -0.1632 -0.6961 -0.7437
  782MOL0     C 3158   6.154  10.745   8.025  0.8843  0.4948 -0.1866
  782MOL0     H 3159   5.815  10.568   8.376  2.9680 -0.6814 -2.4810
  782MOL0     H 3160   5.767  10.413   8.563 -0.9888  1.2646  1.9578
  782MOL0     H 3161   5.808  10.207   8.706 -4.5200 -0.6442  1.4345
  782MOL0     H 3162   5.688  10.302   8.764  0.6103  0.2537 -3.8040
  782MOL0     H 3163   5.809  10.263   8.996 -1.7108  0.6648 -1.2235
  782MOL0     H 3164   5.921  10.145   8.912  0.0093 -0.5391  0.2024
  782MOL0     H 3165   5.620  10.113   8.907  0.8804  0.2651 -2.2708
  782MOL0     H 3166   5.737  10.037   9.027 -0.2633 -1.1474  0.1570
  782MOL0     H 3167   5.691  10.015   8.731  0.6716 -2.5270 -0.6088
  782MOL0     H 3168   5.847   9.953   8.788  0.3890  0.4262  0.8981
  782MOL0     H 3169   5.724   9.804   8.957 -0.3618  0.9279 -0.0968
  782MOL0     H 3170   5.705   9.764   8.791  1.3944  1.7196 -1.9038
  782MOL0     H 3171   5.510   9.883   8.765 -0.6831  0.9357 -0.8420
  782MOL0     H 3172   5.486   9.938   8.937 -0.6668 -1.8853  2.5069
  782MOL0     H 3173   5.365   9.711   8.870  0.8998 -3.2281  1.0739
  782MOL0     H 3174   5.518   9.646   8.901 -1.8579 -2.1584  1.5864
  782MOL0     H 3175   5.357   9.660   9.087 -0.3963 -0.6622 -1.9890
  782MOL0     H 3176   5.382   9.833   9.093 -0.0474 -0.7108 -1.1638
  782MOL0     H 3177   5.652   9.556   9.083 -3.2504  0.0953  1.7643
  782MOL0     H 3178   5.877   9.500   9.277  1.2205 -1.0207  0.4995
  782MOL0     H 3179   5.945   9.648   9.345  0.3563 -1.1198 -0.1597
  782MOL0     H 3180   5.960   9.547   9.050 -1.4087 -0.9380  1.9325
  782MOL0     H 3181   6.080   9.584   9.168  1.5118  1.2954 -2.5612
  782MOL0     H 3182   6.068   9.742   8.985  0.0319 -0.0370  0.3380
  782MOL0     H 3183   5.929   9.808   9.047  0.6430  1.7132 -1.6777
  782MOL0     H 3184   6.194   9.791   9.219  0.1838 -0.2622 -2.5051
  782MOL0     H 3185   6.048   9.888   9.265  1.4558  5.0897 -1.9068
  782MOL0     H 3186   6.353  10.003   8.951 -3.8149  2.4785  1.1563
  782MOL0     H 3187   6.582  10.056   9.006 -0.3442  0.6593 -0.0517
  782MOL0     H 3188   6.932  10.287   9.172 -1.8802 -1.3828  2.0571
  782MOL0     H 3189   7.185  10.271   9.214 -0.1862 -0.2222  0.1120
  782MOL0     H 3190   7.402  10.204   9.072 -2.0730  0.8562  1.6195
  782MOL0     H 3191   7.351  10.057   8.993 -0.2549  3.1714 -0.8938
  782MOL0     H 3192   7.575  10.102   8.972  0.0964 -0.8365 -0.6110
  782MOL0     H 3193   7.564   9.951   9.048  0.9351  1.3138 -3.7917
  782MOL0     H 3194   7.751  10.086   9.147  0.2556 -0.3571  0.5196
  782MOL0     H 3195   7.631  10.008   9.247  1.9229 -0.3037  0.0307
  782MOL0     H 3196   7.632  10.309   9.169 -1.3843 -0.5205 -1.3986
  782MOL0     H 3197   7.530  10.230   9.296 -0.2307  3.1104 -0.8743
  782MOL0     H 3198   7.832  10.223   9.337  0.5842  0.1096  2.1947
  782MOL0     H 3199   7.686  10.176   9.429 -0.2103  1.8873  1.1187
  782MOL0     H 3200   7.608  10.401   9.453 -0.7609  2.4951 -2.3256
  782MOL0     H 3201   7.697  10.464   9.320 -0.0023 -0.8705 -1.8238
  782MOL0     H 3202   7.832  10.376   9.578 -1.3878 -0.4709 -1.0519
  782MOL0     H 3203   7.911  10.430   9.433  1.7659 -0.0555  3.0538
  782MOL0     H 3204   7.769  10.650   9.445  2.1748 -0.5778 -0.8608
  782MOL0     H 3205   7.907  10.626   9.558 -0.2758  3.0689  0.1025
  782MOL0     H 3206   7.185   9.851   9.222 -0.2153  0.6072  1.4768
  782MOL0     H 3207   6.933   9.847   9.205  0.2525 -0.0914  1.2569
  782MOL0     H 3208   6.484  10.068   9.421 -0.9141 -0.9942  0.3239
  782MOL0     H 3209   6.261  10.009   9.368  0.7245  0.7031  0.8275
  782MOL0     H 3210   6.103  10.487   8.770 -0.5234 -0.0053  1.3111
  782MOL0     H 3211   6.181  10.662   8.587 -0.3643  0.9786 -0.3274
  782MOL0     H 3212   6.163  10.909   8.315 -1.3402  1.7698 -1.1534
  782MOL0     H 3213   6.351  11.042   8.191  3.7111 -0.4858 -2.0893
  782MOL0     H 3214   6.568  11.115   7.908 -0.1556  1.3088  0.2350
  782MOL0     H 3215   6.504  11.114   8.070 -0.0361 -1.4439 -0.0517
  782MOL0     H 3216   6.352  11.213   7.819  0.6940  1.3419  0.1203
  782MOL0     H 3217   6.290  11.233   7.980  0.3700 -1.7910  1.4044
  782MOL0     H 3218   6.561  11.346   7.866 -0.9040 -1.1509  0.4836
  782MOL0     H 3219   6.501  11.376   8.027  0.9194 -0.9540  0.1915
  782MOL0     H 3220   6.398  11.452   7.740 -2.9355  1.9256 -1.6489
  782MOL0     H 3221   6.289  11.447   7.888  0.3269  0.5069  0.0997
  782MOL0     H 3222   6.560  11.788   7.920  0.7821  0.8502 -1.8009
  782MOL0     H 3223   6.253  10.802   7.842 -1.4749 -1.3960 -0.7785
  782MOL0     H 3224   6.108  10.666   7.966  3.2953 -3.9534  3.2477
  783MOL0     O 3225   7.435   8.354   6.035  0.2515  0.4600 -0.4189
  783MOL0     C 3226   7.359   8.448   6.009  0.6870 -0.4310  0.7473
  783MOL0     O 3227   7.397   8.574   5.966  0.4065 -0.2665  0.1398
  783MOL0     C 3228   7.528   8.598   5.950  0.5048  0.5561  0.5875
  783MOL0     C 3229   7.566   8.620   5.814  0.7280 -0.4112  0.1345
  783MOL0     C 3230   7.698   8.633   5.777 -0.4319  0.4085  0.0114
  783MOL0     C 3231   7.789   8.633   5.884 -0.4092  0.8565  0.2051
  783MOL0     O 3232   7.920   8.647   5.866 -0.2887  0.3088  0.7655
  783MOL0     C 3233   7.999   8.739   5.942 -1.0442  0.3127  0.2667
  783MOL0     C 3234   7.970   8.883   5.904 -0.0571  0.4450 -0.1316
  783MOL0     C 3235   8.094   8.963   5.943  0.5062 -0.0710 -0.2364
  783MOL0     C 3236   8.057   9.107   5.896  0.0266  0.0485  0.1651
  783MOL0     C 3237   8.131   9.216   5.983  0.5403 -0.4525  0.7432
  783MOL0     C 3238   8.142   9.353   5.907 -0.4299 -0.5312 -0.0502
  783MOL0     C 3239   8.021   9.419   5.849 -0.1609  0.2606 -0.0151
  783MOL0     C 3240   8.047   9.573   5.828  0.2245  0.7857 -0.4860
  783MOL0     N 3241   7.941   9.643   5.760  0.7023  0.3534 -0.0650
  783MOL0     C 3242   7.962   9.741   5.667  0.6828  0.6086 -0.1903
  783MOL0     C 3243   7.831   9.770   5.636 -0.0806 -0.8529 -0.3799
  783MOL0     C 3244   7.775   9.879   5.550  0.3345  0.2915  0.5836
  783MOL0     C 3245   7.807   9.868   5.402  0.0954  0.5655 -0.9497
  783MOL0     C 3246   7.721   9.755   5.336  0.1916 -0.1240  0.3461
  783MOL0     C 3247   7.693   9.773   5.183 -0.7635 -0.4636  1.2453
  783MOL0     O 3248   7.644   9.904   5.142 -0.7649  0.0481  0.8875
  783MOL0     C 3249   7.513   9.925   5.154  0.7638 -0.1026 -0.2258
  783MOL0     C 3250   7.468  10.043   5.104  0.3894 -0.0703  0.9110
  783MOL0     C 3251   7.337  10.078   5.101 -1.8301  0.0901 -0.2282
  783MOL0     C 3252   7.239   9.992   5.139  0.2219  0.7546  0.6041
  783MOL0     C 3253   7.095  10.020   5.107  0.4916  0.5897 -0.3133
  783MOL0     O 3254   7.005   9.923   5.151  0.6222  0.3653 -0.0813
  783MOL0     C 3255   6.871   9.935   5.133  0.3281  0.5616 -0.2955
  783MOL0     C 3256   6.796   9.975   5.028  0.9575  0.2612  0.4824
  783MOL0     C 3257   6.659   9.964   5.032 -0.2049  0.1493  0.3148
  783MOL0     C 3258   6.583   9.905   5.132 -0.2862 -0.2241 -0.2075
  783MOL0     O 3259   6.442   9.896   5.120  0.1603  0.1007 -0.7545
  783MOL0     C 3260   6.373   9.864   5.244  0.1775 -0.3309  0.2498
  783MOL0     C 3261   6.224   9.898   5.232  0.2210 -0.6153 -0.0173
  783MOL0     C 3262   6.135   9.908   5.356 -0.1693 -0.5316 -1.0805
  783MOL0     C 3263   6.112   9.774   5.433 -0.5456  0.6477 -0.8410
  783MOL0     C 3264   6.065   9.795   5.575 -0.6319  1.0880  0.3985
  783MOL0     C 3265   6.047   9.653   5.643  0.0632  0.0362  0.7230
  783MOL0     C 3266   5.957   9.553   5.582  0.1975  0.1166  0.1407
  783MOL0     C 3267   5.964   9.417   5.648  0.5066  0.1576  0.4345
  783MOL0    Cl 3268   5.864   9.299   5.563 -0.1142  0.0917  0.1575
  783MOL0     C 3269   6.662   9.859   5.238  0.9594 -0.1917 -0.0064
  783MOL0     C 3270   6.797   9.881   5.240  0.2518  0.0441 -0.2510
  783MOL0     O 3271   7.069  10.112   5.040 -0.1893 -0.8472 -0.0909
  783MOL0     C 3272   7.285   9.873   5.198  0.5239 -0.8669  0.1508
  783MOL0     C 3273   7.421   9.846   5.219  1.0758  0.1488  1.1166
  783MOL0     N 3274   7.742   9.692   5.711  0.0964  0.2539  0.5238
  783MOL0     N 3275   7.816   9.622   5.787 -0.4413  0.3585 -0.6280
  783MOL0     C 3276   7.745   8.617   6.021  0.5255  1.5209 -0.0021
  783MOL0     C 3277   7.614   8.602   6.059  0.3203  0.1746 -0.9348
  783MOL0     C 3278   7.217   8.435   6.017  0.1798 -0.7277 -0.5435
  783MOL0     C 3279   7.159   8.314   5.984 -1.2089  0.2572  0.2240
  783MOL0     C 3280   7.031   8.308   5.947 -0.3261 -0.1874 -0.1997
  783MOL0     C 3281   6.938   8.408   5.966 -0.8980 -0.2874 -0.4003
  783MOL0     O 3282   6.807   8.373   5.949  0.2011 -0.1353  0.3604
  783MOL0     C 3283   6.718   8.401   6.062  0.2493  0.5878 -0.1863
  783MOL0     C 3284   6.623   8.283   6.079  0.3947 -0.5514  0.8938
  783MOL0     C 3285   6.542   8.303   6.194  0.6290  0.0569  0.2009
  783MOL0     C 3286   6.448   8.424   6.194  0.9181 -0.7242 -0.0571
  783MOL0     C 3287   6.358   8.421   6.084  0.2196 -0.4181 -0.2059
  783MOL0     C 3288   6.279   8.418   5.991  0.0976 -0.9286 -0.3303
  783MOL0     C 3289   6.983   8.534   6.019 -0.1221 -0.0531 -0.8769
  783MOL0     C 3290   7.125   8.543   6.038 -0.7888 -0.1792  0.1532
  783MOL0     H 3291   7.493   8.617   5.733  2.0972  0.6153 -1.1804
  783MOL0     H 3292   7.739   8.648   5.678 -2.9816  0.4438 -1.1218
  783MOL0     H 3293   8.102   8.717   5.910 -0.7602  1.7834  0.1248
  783MOL0     H 3294   8.003   8.712   6.049  1.7743  0.0723  0.1844
  783MOL0     H 3295   7.877   8.915   5.951  1.7670  2.3290  2.4872
  783MOL0     H 3296   7.974   8.890   5.795 -2.2099 -4.3815 -0.7837
  783MOL0     H 3297   8.185   8.920   5.901  1.1961  1.1677 -0.0727
  783MOL0     H 3298   8.093   8.972   6.052 -1.3078  0.9306 -0.2851
  783MOL0     H 3299   8.089   9.112   5.791  1.8115 -3.0088  0.4413
  783MOL0     H 3300   7.949   9.121   5.908  0.5627  2.3111  3.5475
  783MOL0     H 3301   8.235   9.190   6.003  0.6708  0.1196  0.8425
  783MOL0     H 3302   8.063   9.225   6.068 -2.0659 -3.0596 -0.8891
  783MOL0     H 3303   8.198   9.344   5.813 -0.8250 -1.7991 -0.1748
  783MOL0     H 3304   8.197   9.421   5.972  2.2567 -1.6012 -1.0629
  783MOL0     H 3305   7.984   9.364   5.763 -2.0287  0.2256  0.7754
  783MOL0     H 3306   7.939   9.421   5.921  0.5721  3.3588  0.9036
  783MOL0     H 3307   8.129   9.565   5.757  1.1652 -4.7619  0.7723
  783MOL0     H 3308   8.080   9.623   5.920  1.7863 -3.1187  1.2859
  783MOL0     H 3309   8.058   9.785   5.644  1.7752 -2.6613 -2.6268
  783MOL0     H 3310   7.810   9.976   5.586 -0.8273  1.0498 -0.2511
  783MOL0     H 3311   7.667   9.880   5.567  0.0229  0.5345 -1.2188
  783MOL0     H 3312   7.913   9.839   5.399 -0.6401 -2.3938 -3.6298
  783MOL0     H 3313   7.789   9.961   5.347 -1.1272 -0.0283 -1.5854
  783MOL0     H 3314   7.764   9.658   5.361 -1.0750 -2.0637 -4.0305
  783MOL0     H 3315   7.624   9.765   5.384  0.3402  0.6190  0.5143
  783MOL0     H 3316   7.614   9.704   5.153 -1.5707  1.2381 -0.7071
  783MOL0     H 3317   7.774   9.731   5.123  1.0861  2.1669  1.7260
  783MOL0     H 3318   7.529  10.121   5.061 -0.8759 -0.0172 -0.8699
  783MOL0     H 3319   7.309  10.176   5.061 -2.0535  0.9194  1.8636
  783MOL0     H 3320   6.854  10.018   4.946  2.2974  0.7784  1.6563
  783MOL0     H 3321   6.621  10.006   4.939  0.7030  1.2826  0.4308
  783MOL0     H 3322   6.424   9.904   5.332  1.4682  3.1652 -1.8536
  783MOL0     H 3323   6.373   9.756   5.257 -1.2062 -1.1566 -4.6550
  783MOL0     H 3324   6.178   9.822   5.168  2.3333 -1.6290 -0.4201
  783MOL0     H 3325   6.209   9.995   5.184 -2.1420 -0.0368  1.7146
  783MOL0     H 3326   6.034   9.942   5.331 -0.1008  0.6965  0.2376
  783MOL0     H 3327   6.182   9.978   5.425 -1.9049 -2.1694  1.9534
  783MOL0     H 3328   6.046   9.703   5.384 -0.7777  0.4837 -0.3039
  783MOL0     H 3329   6.205   9.718   5.448  0.1589  2.4325  2.6275
  783MOL0     H 3330   5.969   9.846   5.578 -1.5327 -0.1722 -2.7288
  783MOL0     H 3331   6.145   9.836   5.638 -2.4035  0.2744  3.3872
  783MOL0     H 3332   6.016   9.654   5.748  0.4754 -1.0270  0.8652
  783MOL0     H 3333   6.145   9.605   5.639  1.4882  2.8330 -0.9897
  783MOL0     H 3334   5.859   9.602   5.584  1.7172  3.8377 -3.2422
  783MOL0     H 3335   5.971   9.523   5.477  0.7863 -1.3437  0.6125
  783MOL0     H 3336   5.939   9.405   5.754  0.9601 -2.5209  0.3099
  783MOL0     H 3337   6.067   9.381   5.645  0.1008 -1.0111  0.0752
  783MOL0     H 3338   6.629   9.810   5.329 -3.6371 -0.9227 -1.7966
  783MOL0     H 3339   6.838   9.867   5.340  1.3411 -1.0007 -0.8169
  783MOL0     H 3340   7.217   9.808   5.252 -1.9850  2.1932  1.0077
  783MOL0     H 3341   7.445   9.758   5.278 -0.4128 -3.6667 -3.3494
  783MOL0     H 3342   7.818   8.610   6.101  2.2775  1.7081 -1.5165
  783MOL0     H 3343   7.573   8.584   6.158 -1.7560  2.8237 -1.1918
  783MOL0     H 3344   7.229   8.231   5.974  2.3500  2.7470  1.9351
  783MOL0     H 3345   6.990   8.211   5.923 -2.9166  1.0682 -1.2163
  783MOL0     H 3346   6.663   8.492   6.035  0.0935  0.2848 -0.8951
  783MOL0     H 3347   6.768   8.419   6.158  1.4833 -0.9596 -0.5055
  783MOL0     H 3348   6.557   8.266   5.993  1.2010  0.2622  0.0912
  783MOL0     H 3349   6.683   8.192   6.085  2.1678  0.5345  0.3497
  783MOL0     H 3350   6.619   8.305   6.272  1.8714  2.7818 -0.9704
  783MOL0     H 3351   6.479   8.218   6.220 -1.8118  1.6396 -0.1978
  783MOL0     H 3352   6.391   8.422   6.288 -0.6403  0.0517 -0.9390
  783MOL0     H 3353   6.502   8.517   6.176  1.1343 -1.0322 -1.0188
  783MOL0     H 3354   6.231   8.425   5.895 -1.3373 -2.1883  0.2686
  783MOL0     H 3355   6.917   8.619   6.037 -2.1439 -1.9889  1.5678
  783MOL0     H 3356   7.158   8.643   6.067 -0.6337 -0.8810  2.6176
  784MOL0     O 3357   7.301   3.526   6.731 -0.1585 -0.2340 -0.3322
  784MOL0     C 3358   7.239   3.633   6.741  0.4689 -0.4280  0.7240
  784MOL0     O 3359   7.291   3.761   6.722 -0.7686  0.2970 -0.3432
  784MOL0     C 3360   7.429   3.782   6.706 -0.4743  0.2508 -0.1206
  784MOL0     C 3361   7.461   3.912   6.715  0.3789 -0.4945 -0.5328
  784MOL0     C 3362   7.598   3.948   6.704  0.3426 -0.8290 -0.5908
  784MOL0     C 3363   7.702   3.862   6.684  0.3652  0.1356  0.5670
  784MOL0     O 3364   7.832   3.910   6.697 -0.2954 -0.0723  0.4641
  784MOL0     C 3365   7.946   3.837   6.626  1.0605  0.1602  0.0442
  784MOL0     C 3366   8.088   3.882   6.666 -0.2794 -0.4507 -0.6477
  784MOL0     C 3367   8.113   3.877   6.821 -0.0263 -0.1418 -0.4126
  784MOL0     C 3368   8.251   3.945   6.836  0.7378  0.0456  0.5809
  784MOL0     C 3369   8.355   3.831   6.813  0.3077  0.0178 -1.2047
  784MOL0     C 3370   8.502   3.895   6.821 -0.0699 -0.4052  0.3608
  784MOL0     C 3371   8.543   3.991   6.721 -0.0948 -0.3721  0.9046
  784MOL0     C 3372   8.560   3.929   6.583 -0.5250  0.1520  0.5392
  784MOL0     N 3373   8.597   4.023   6.482 -0.2463  0.6014  0.0635
  784MOL0     C 3374   8.532   4.135   6.429  0.5415  1.3421  0.2469
  784MOL0     C 3375   8.617   4.214   6.363  0.1222  0.7526  1.4678
  784MOL0     C 3376   8.576   4.333   6.286  0.4691 -1.4292 -0.0744
  784MOL0     C 3377   8.566   4.332   6.140  0.8239 -0.3885  0.2357
  784MOL0     C 3378   8.694   4.280   6.067  0.7367  0.0103  0.1307
  784MOL0     C 3379   8.806   4.379   6.061 -0.6474 -0.1975  0.4535
  784MOL0     O 3380   8.764   4.483   5.975  0.6622  0.4034 -0.8907
  784MOL0     C 3381   8.828   4.606   5.998  0.1087 -0.6217  0.2826
  784MOL0     C 3382   8.778   4.720   5.919 -0.6801 -0.5980  0.9042
  784MOL0     C 3383   8.818   4.849   5.944 -0.4076 -0.3713  0.3279
  784MOL0     C 3384   8.941   4.868   6.006 -0.0077 -0.1308 -0.2946
  784MOL0     C 3385   9.002   5.010   6.027 -0.0480 -0.3969 -0.0280
  784MOL0     O 3386   9.123   5.006   6.093 -0.2292 -0.3382 -1.0880
  784MOL0     C 3387   9.177   5.112   6.171  0.3869  0.0469 -0.5116
  784MOL0     C 3388   9.172   5.247   6.133 -0.1435 -1.0876  0.0326
  784MOL0     C 3389   9.239   5.344   6.209  0.4411  0.8433  0.4732
  784MOL0     C 3390   9.298   5.312   6.335  0.0777 -1.0528 -0.2938
  784MOL0     O 3391   9.355   5.413   6.414 -0.3126  0.3921  0.3152
  784MOL0     C 3392   9.377   5.386   6.556 -0.8909  0.0521  0.7336
  784MOL0     C 3393   9.400   5.519   6.628  0.4959 -0.2960  0.3854
  784MOL0     C 3394   9.420   5.498   6.783  0.1747  0.1030  0.2558
  784MOL0     C 3395   9.559   5.437   6.805  0.4582  0.4286  0.8384
  784MOL0     C 3396   9.584   5.430   6.961  0.9788 -1.5761  0.0587
  784MOL0     C 3397   9.702   5.348   7.001  0.7717  0.1130  0.4095
  784MOL0     C 3398   9.764   5.391   7.130 -0.0776  0.6352 -0.1324
  784MOL0     C 3399   9.684   5.350   7.251  0.8970 -0.4278 -0.3150
  784MOL0    Cl 3400   9.564   5.460   7.297  0.2910 -0.0532  0.0746
  784MOL0     C 3401   9.312   5.178   6.369 -0.2660  0.7959  0.4347
  784MOL0     C 3402   9.243   5.080   6.290 -0.4254 -0.0318  1.7184
  784MOL0     O 3403   8.949   5.111   5.975 -0.2402 -0.4025  0.8500
  784MOL0     C 3404   8.996   4.760   6.078 -0.1169  0.9459 -0.7532
  784MOL0     C 3405   8.944   4.634   6.072 -0.3096 -0.2196 -0.2223
  784MOL0     N 3406   8.736   4.157   6.388  0.5769  0.6930  0.3665
  784MOL0     N 3407   8.728   4.042   6.457  0.4009 -0.2631  0.0189
  784MOL0     C 3408   7.670   3.728   6.673  0.0170 -0.3937  0.7392
  784MOL0     C 3409   7.539   3.685   6.681  0.0334 -0.6079 -0.2984
  784MOL0     C 3410   7.094   3.608   6.750 -0.1709 -0.3767  0.1426
  784MOL0     C 3411   7.018   3.728   6.763  0.8463  0.2447  0.6258
  784MOL0     C 3412   6.874   3.723   6.763  0.0465 -0.1927  0.0459
  784MOL0     C 3413   6.804   3.603   6.763  0.4728  0.0382 -0.8555
  784MOL0     O 3414   6.661   3.619   6.736  0.2779 -0.2173 -0.6580
  784MOL0     C 3415   6.565   3.511   6.715  0.5915 -0.2562  0.1750
  784MOL0     C 3416   6.551   3.427   6.839 -0.0504  0.1107  0.1507
  784MOL0     C 3417   6.529   3.284   6.801  0.5057  0.6207  0.2942
  784MOL0     C 3418   6.392   3.241   6.753  0.0509  0.1924 -0.7560
  784MOL0     C 3419   6.355   3.295   6.629  0.1020  1.0460 -0.8859
  784MOL0     C 3420   6.309   3.334   6.524  0.5076 -0.6493 -0.0826
  784MOL0     C 3421   6.877   3.484   6.756 -0.1568 -0.0988  0.4739
  784MOL0     C 3422   7.021   3.486   6.748  0.4998 -0.2529 -0.9494
  784MOL0     H 3423   7.384   3.983   6.743 -1.3092 -1.8655 -1.5041
  784MOL0     H 3424   7.621   4.050   6.733  2.7599 -1.0905 -1.4245
  784MOL0     H 3425   7.916   3.833   6.521  1.7194 -3.4546 -0.1474
  784MOL0     H 3426   7.947   3.732   6.657  2.8991  0.7453  2.2338
  784MOL0     H 3427   8.112   3.983   6.629 -3.2946  0.2122 -1.0488
  784MOL0     H 3428   8.155   3.808   6.622  1.5428 -1.3409  3.2416
  784MOL0     H 3429   8.123   3.776   6.863 -1.0918  1.0241  2.9638
  784MOL0     H 3430   8.031   3.921   6.879 -1.4279 -2.4802 -0.4924
  784MOL0     H 3431   8.252   4.032   6.769 -5.1759 -1.1992 -1.7517
  784MOL0     H 3432   8.266   3.983   6.937  0.1880  0.0887  0.6482
  784MOL0     H 3433   8.352   3.797   6.709 -1.0851 -0.1642 -1.1209
  784MOL0     H 3434   8.349   3.751   6.888  0.4132  2.8542  2.0600
  784MOL0     H 3435   8.575   3.813   6.826 -0.8048 -1.0055  1.4334
  784MOL0     H 3436   8.502   3.947   6.917 -1.4428 -0.9160  0.6546
  784MOL0     H 3437   8.470   4.072   6.709  1.7604  1.3055  0.1939
  784MOL0     H 3438   8.638   4.043   6.740  2.4195 -2.7621 -3.4203
  784MOL0     H 3439   8.468   3.883   6.545 -1.7838  0.4200  3.0821
  784MOL0     H 3440   8.644   3.859   6.578  0.9850  1.8817  0.8075
  784MOL0     H 3441   8.427   4.157   6.440  0.1568  0.0117 -0.4815
  784MOL0     H 3442   8.642   4.414   6.316 -1.1355  0.9466 -2.5132
  784MOL0     H 3443   8.477   4.367   6.319  0.3132  4.1283 -4.6856
  784MOL0     H 3444   8.546   4.430   6.096  0.9942  0.3062  1.6455
  784MOL0     H 3445   8.484   4.266   6.112  1.0665 -1.5614  2.0794
  784MOL0     H 3446   8.730   4.184   6.106  1.7380  0.0788 -0.5681
  784MOL0     H 3447   8.676   4.258   5.962  2.1115  2.3032 -0.6478
  784MOL0     H 3448   8.897   4.335   6.020  1.3763  4.7595 -1.1406
  784MOL0     H 3449   8.825   4.410   6.164 -0.4535 -1.8204  0.9344
  784MOL0     H 3450   8.698   4.699   5.848 -1.0083  0.5139  0.9149
  784MOL0     H 3451   8.754   4.915   5.886 -1.0795 -0.4763  0.9314
  784MOL0     H 3452   9.131   5.289   6.042  2.3673  2.5143  0.3375
  784MOL0     H 3453   9.232   5.449   6.183 -2.7902  0.8579  0.9981
  784MOL0     H 3454   9.470   5.332   6.577 -0.3041 -0.1756 -2.0646
  784MOL0     H 3455   9.303   5.327   6.611 -1.0427 -0.6548 -0.2051
  784MOL0     H 3456   9.319   5.587   6.603 -1.2808 -2.5161 -0.1658
  784MOL0     H 3457   9.483   5.574   6.582  0.8435  0.6919  2.0859
  784MOL0     H 3458   9.356   5.430   6.841  4.3001 -1.2032  3.7761
  784MOL0     H 3459   9.422   5.595   6.833 -0.6608 -0.3857  1.2784
  784MOL0     H 3460   9.572   5.341   6.754  1.1080  1.9080 -1.9925
  784MOL0     H 3461   9.636   5.503   6.765 -1.5429  1.1444 -2.2570
  784MOL0     H 3462   9.497   5.391   7.015 -1.1753  3.2426  0.5703
  784MOL0     H 3463   9.593   5.536   6.986 -0.0567 -0.7279 -2.7351
  784MOL0     H 3464   9.774   5.362   6.919 -0.3481  1.7281 -0.3645
  784MOL0     H 3465   9.684   5.241   7.010  1.1910  0.1394  1.7689
  784MOL0     H 3466   9.864   5.348   7.145 -0.6922 -1.2106 -1.0516
  784MOL0     H 3467   9.767   5.500   7.124 -0.0973  0.5671 -3.8009
  784MOL0     H 3468   9.746   5.335   7.340  2.2981 -3.6720 -1.6635
  784MOL0     H 3469   9.635   5.256   7.222  3.0672 -0.9205 -2.7656
  784MOL0     H 3470   9.384   5.159   6.448  1.2356  3.2744 -0.2026
  784MOL0     H 3471   9.259   4.973   6.293  1.4830  0.2216  1.9458
  784MOL0     H 3472   9.082   4.770   6.143 -0.4782  3.2305 -0.5510
  784MOL0     H 3473   8.994   4.548   6.116 -3.7460 -2.5365 -0.4459
  784MOL0     H 3474   7.747   3.655   6.650 -1.1954 -1.5060  0.0657
  784MOL0     H 3475   7.516   3.581   6.660  1.8998 -0.7151 -2.1705
  784MOL0     H 3476   7.052   3.831   6.765 -0.8722  0.8741 -0.7236
  784MOL0     H 3477   6.809   3.809   6.757  0.6882  0.6365  3.0622
  784MOL0     H 3478   6.584   3.446   6.629 -0.2627 -0.2391 -0.0420
  784MOL0     H 3479   6.468   3.560   6.699  0.6800 -0.7731 -2.4778
  784MOL0     H 3480   6.646   3.442   6.892  0.0151  5.2325 -0.9584
  784MOL0     H 3481   6.474   3.468   6.905 -3.8754 -1.1302 -3.1718
  784MOL0     H 3482   6.539   3.226   6.893 -0.9724 -0.3629 -0.1290
  784MOL0     H 3483   6.601   3.245   6.728 -1.1230  1.6691 -2.0173
  784MOL0     H 3484   6.385   3.132   6.741 -1.5696  0.1269  0.3847
  784MOL0     H 3485   6.326   3.268   6.837  0.6868  1.7418 -0.7311
  784MOL0     H 3486   6.253   3.378   6.445 -2.4639 -3.8296  0.0366
  784MOL0     H 3487   6.824   3.389   6.751 -0.4597  0.1033 -0.2821
  784MOL0     H 3488   7.078   3.394   6.741 -0.7491 -0.9590 -2.8060
  785MOL0     O 3489  11.064   8.171   4.420 -0.6671  0.1493  0.0981
  785MOL0     C 3490  11.128   8.067   4.409  0.1862 -0.3509  0.5710
  785MOL0     O 3491  11.124   7.981   4.304  0.4360  0.1384 -0.3513
  785MOL0     C 3492  11.062   8.028   4.191 -0.2597  0.3940  1.2240
  785MOL0     C 3493  10.946   7.970   4.152  0.1636  0.1601  0.7283
  785MOL0     C 3494  10.870   8.014   4.043 -0.2734  0.7611 -0.8309
  785MOL0     C 3495  10.907   8.133   3.974 -0.5445 -0.6690  0.5721
  785MOL0     O 3496  10.841   8.173   3.863  0.1397  0.3142  0.2057
  785MOL0     C 3497  10.832   8.064   3.763  0.0218  0.2350  0.2404
  785MOL0     C 3498  10.730   8.098   3.648  0.9930  0.1813 -0.4044
  785MOL0     C 3499  10.731   7.995   3.530 -0.0111  0.0709  1.0789
  785MOL0     C 3500  10.666   7.857   3.572 -1.1036 -0.8495  0.0089
  785MOL0     C 3501  10.698   7.759   3.470 -1.2189 -0.0500  0.3046
  785MOL0     C 3502  10.702   7.610   3.518  1.1351 -0.3015 -0.1825
  785MOL0     C 3503  10.711   7.516   3.405 -0.7193  0.5648 -0.3025
  785MOL0     C 3504  10.765   7.380   3.466  0.7709 -0.8059  0.9104
  785MOL0     N 3505  10.904   7.395   3.499  0.2511 -0.4644  0.5221
  785MOL0     C 3506  10.966   7.332   3.595 -0.0939  0.4465 -0.4917
  785MOL0     C 3507  11.097   7.334   3.568  0.6851 -0.4285  0.1981
  785MOL0     C 3508  11.209   7.288   3.662 -0.6768  0.8063  0.0132
  785MOL0     C 3509  11.262   7.411   3.742  0.4561  0.2287  0.0042
  785MOL0     C 3510  11.343   7.509   3.651 -0.0559  0.2162  0.6322
  785MOL0     C 3511  11.468   7.441   3.589  0.2562 -0.0529  0.4081
  785MOL0     O 3512  11.588   7.513   3.611 -0.2076  0.1151  0.8815
  785MOL0     C 3513  11.639   7.611   3.525  0.2419  0.5449 -0.7547
  785MOL0     C 3514  11.564   7.704   3.456  0.2805  1.0726  0.3399
  785MOL0     C 3515  11.627   7.808   3.382  0.2884  1.2527 -0.2890
  785MOL0     C 3516  11.767   7.826   3.385  0.6162 -0.4064 -0.0317
  785MOL0     C 3517  11.840   7.928   3.305  0.9846 -0.0041  0.3806
  785MOL0     O 3518  11.752   7.999   3.235  0.8375 -0.4687  0.0542
  785MOL0     C 3519  11.796   8.099   3.150  0.2963  0.3682  0.1889
  785MOL0     C 3520  11.722   8.217   3.149  0.2819  0.0729 -0.9364
  785MOL0     C 3521  11.748   8.312   3.061 -0.9136 -1.1149 -0.8893
  785MOL0     C 3522  11.838   8.299   2.952  0.0355 -0.5989  0.5532
  785MOL0     O 3523  11.861   8.397   2.860  0.0429 -0.6194 -0.1879
  785MOL0     C 3524  11.801   8.528   2.878 -1.1291  0.0847 -0.2327
  785MOL0     C 3525  11.828   8.633   2.766  0.6360 -0.6852 -0.2127
  785MOL0     C 3526  11.775   8.573   2.629 -0.5380  0.1012  0.1556
  785MOL0     C 3527  11.769   8.675   2.510 -0.0235 -0.6146 -0.9642
  785MOL0     C 3528  11.905   8.715   2.458  0.1455 -0.5039  0.0268
  785MOL0     C 3529  11.892   8.832   2.349  0.8401  0.6025 -0.6313
  785MOL0     C 3530  11.806   8.790   2.229  0.2577 -0.3112  0.1877
  785MOL0     C 3531  11.829   8.867   2.100  0.2276  0.2068  0.7331
  785MOL0    Cl 3532  11.710   8.995   2.067 -0.1017  0.8607 -0.2059
  785MOL0     C 3533  11.902   8.170   2.943  0.4010 -0.1766 -0.5280
  785MOL0     C 3534  11.868   8.074   3.035 -0.6427  0.4862  0.9284
  785MOL0     O 3535  11.962   7.928   3.301 -0.0588  0.0099 -0.3230
  785MOL0     C 3536  11.839   7.735   3.466  0.3333 -1.0755 -0.9630
  785MOL0     C 3537  11.781   7.621   3.523 -0.6134 -0.3403 -0.0524
  785MOL0     N 3538  11.111   7.397   3.448 -0.5659 -0.4101  0.0518
  785MOL0     N 3539  11.001   7.435   3.403 -0.0085 -0.2940  0.3164
  785MOL0     C 3540  11.028   8.191   4.022  0.4312 -0.3083  0.4315
  785MOL0     C 3541  11.109   8.140   4.119  1.1101  0.2351 -0.4188
  785MOL0     C 3542  11.235   8.030   4.509 -0.0848 -0.7384 -0.6900
  785MOL0     C 3543  11.255   8.115   4.618 -0.2260 -0.5173  0.9633
  785MOL0     C 3544  11.338   8.084   4.721 -0.1875 -0.0328  0.2119
  785MOL0     C 3545  11.427   7.971   4.699 -0.1315 -0.8703  0.1947
  785MOL0     O 3546  11.516   7.922   4.789  0.3829 -0.0698 -0.5257
  785MOL0     C 3547  11.484   7.949   4.930 -0.2865 -0.1103  0.1997
  785MOL0     C 3548  11.607   7.900   5.009 -0.8181 -0.8317  0.8937
  785MOL0     C 3549  11.597   7.925   5.165  0.1669 -0.1931  0.1550
  785MOL0     C 3550  11.693   7.841   5.253 -0.0505  0.6874  0.7866
  785MOL0     C 3551  11.667   7.852   5.395 -1.0133 -0.6272 -0.0929
  785MOL0     C 3552  11.662   7.853   5.521  0.8543  0.7486 -0.3454
  785MOL0     C 3553  11.418   7.892   4.583  0.7242  0.4010  0.2874
  785MOL0     C 3554  11.314   7.914   4.494  0.9098  0.1751 -1.1855
  785MOL0     H 3555  10.902   7.883   4.200  0.8999 -0.2750  0.6281
  785MOL0     H 3556  10.783   7.954   4.018 -1.0433  1.3211  0.4266
  785MOL0     H 3557  10.795   7.976   3.817  0.7458  0.0171  0.3970
  785MOL0     H 3558  10.931   8.038   3.724 -0.0018 -0.2841  0.5258
  785MOL0     H 3559  10.759   8.193   3.601 -0.6134  0.1314 -1.5568
  785MOL0     H 3560  10.630   8.117   3.686  1.2412  4.1649 -1.2477
  785MOL0     H 3561  10.830   7.963   3.498 -1.5317 -3.3963 -0.6766
  785MOL0     H 3562  10.675   8.036   3.445  3.3498  0.9378 -0.9025
  785MOL0     H 3563  10.713   7.819   3.663  0.5129  3.8319  1.4250
  785MOL0     H 3564  10.559   7.852   3.593 -0.7546 -2.7065  1.5761
  785MOL0     H 3565  10.796   7.773   3.422 -1.4145  1.5917  0.3191
  785MOL0     H 3566  10.633   7.772   3.383 -0.6218  1.6461  0.0604
  785MOL0     H 3567  10.607   7.594   3.569  1.4572 -1.0359  0.2082
  785MOL0     H 3568  10.783   7.598   3.591 -0.7480  0.9677  2.2553
  785MOL0     H 3569  10.613   7.475   3.379  0.2917 -1.6767 -0.8396
  785MOL0     H 3570  10.774   7.544   3.320  0.1752  2.8527  1.0448
  785MOL0     H 3571  10.755   7.324   3.373 -0.6950 -1.2568  1.3095
  785MOL0     H 3572  10.705   7.333   3.545 -2.2092  1.9495  0.5253
  785MOL0     H 3573  10.928   7.284   3.685  1.1095 -0.6649 -0.5463
  785MOL0     H 3574  11.289   7.238   3.607  1.1684  0.5423  2.7506
  785MOL0     H 3575  11.178   7.216   3.739  1.5694  1.0180  1.1896
  785MOL0     H 3576  11.333   7.382   3.820 -1.9381  1.6294  2.9288
  785MOL0     H 3577  11.186   7.461   3.803 -0.1083 -1.6722  0.9425
  785MOL0     H 3578  11.280   7.541   3.569 -0.3342 -2.3460 -0.2374
  785MOL0     H 3579  11.366   7.600   3.707  0.4113 -0.3304  1.3553
  785MOL0     H 3580  11.460   7.424   3.481 -1.0215 -2.3847  0.8015
  785MOL0     H 3581  11.482   7.348   3.645  0.1737  0.1921  0.8376
  785MOL0     H 3582  11.457   7.692   3.438  0.4660  0.4520 -0.3698
  785MOL0     H 3583  11.570   7.881   3.325  1.7259  2.9725  0.4151
  785MOL0     H 3584  11.645   8.212   3.225  1.5604  0.4019  0.4321
  785MOL0     H 3585  11.688   8.401   3.078 -3.0945 -2.1756 -2.6374
  785MOL0     H 3586  11.843   8.573   2.968  2.8018 -1.1721 -1.2304
  785MOL0     H 3587  11.694   8.505   2.891 -1.0817  0.8919  2.0671
  785MOL0     H 3588  11.934   8.661   2.758  0.0368  1.9323  0.0799
  785MOL0     H 3589  11.774   8.723   2.795 -1.4314 -1.8260 -0.3328
  785MOL0     H 3590  11.675   8.536   2.652  0.6621 -1.4820  3.4449
  785MOL0     H 3591  11.835   8.488   2.597 -2.6944 -1.5031  0.1706
  785MOL0     H 3592  11.707   8.630   2.431 -1.0059 -2.7979  0.9441
  785MOL0     H 3593  11.720   8.768   2.540  0.1071 -0.0799 -2.3304
  785MOL0     H 3594  11.946   8.627   2.407  1.3297 -2.0315  3.3020
  785MOL0     H 3595  11.971   8.755   2.535 -0.8493  1.3130 -0.0243
  785MOL0     H 3596  11.994   8.844   2.313  0.4354  0.2212 -1.9688
  785MOL0     H 3597  11.860   8.922   2.402  0.9949  1.3311 -1.7472
  785MOL0     H 3598  11.826   8.685   2.204  4.0703  0.0050  1.2712
  785MOL0     H 3599  11.701   8.792   2.259 -0.1676  2.2834 -1.1442
  785MOL0     H 3600  11.817   8.791   2.022  0.1249 -2.7496  3.4379
  785MOL0     H 3601  11.931   8.907   2.101 -1.4129  5.1067  0.5610
  785MOL0     H 3602  11.969   8.156   2.859 -1.9792  0.2186 -2.6260
  785MOL0     H 3603  11.876   7.966   3.025 -1.7188  0.3919  0.9734
  785MOL0     H 3604  11.943   7.764   3.474  0.4641 -1.0400 -2.5083
  785MOL0     H 3605  11.821   7.533   3.573 -0.7431 -2.2362 -3.0675
  785MOL0     H 3606  11.077   8.274   3.973 -1.1634 -0.2837 -1.2284
  785MOL0     H 3607  11.200   8.190   4.150  1.0678 -0.8933  1.7190
  785MOL0     H 3608  11.194   8.204   4.617 -0.8451 -0.9341  1.3914
  785MOL0     H 3609  11.350   8.151   4.805 -0.2832  1.2487 -0.7710
  785MOL0     H 3610  11.392   7.901   4.963 -0.5611 -0.5149 -1.0653
  785MOL0     H 3611  11.456   8.054   4.947 -3.3674 -0.6196 -1.0664
  785MOL0     H 3612  11.639   7.803   4.973  3.5172  1.2186 -1.5505
  785MOL0     H 3613  11.690   7.965   4.980 -1.1464 -0.1422  1.4615
  785MOL0     H 3614  11.494   7.898   5.188  0.3269 -1.3207 -0.3997
  785MOL0     H 3615  11.619   8.032   5.171 -0.3013 -0.1657  2.6314
  785MOL0     H 3616  11.691   7.737   5.218  0.2772 -1.3728  6.0020
  785MOL0     H 3617  11.797   7.873   5.245  0.0421  0.2631  0.2396
  785MOL0     H 3618  11.657   7.836   5.627  0.8278  2.6454 -0.0128
  785MOL0     H 3619  11.488   7.813   4.557 -0.7059 -1.5681  2.1013
  785MOL0     H 3620  11.305   7.855   4.404 -2.2835 -3.6807  1.3327
  786MOL0     O 3621   7.869  10.687  10.629 -0.2546  0.0839  0.3865
  786MOL0     C 3622   7.821  10.590  10.688  0.3983 -0.1190 -0.4368
  786MOL0     O 3623   7.707  10.522  10.654  0.3958  0.8495 -0.1564
  786MOL0     C 3624   7.658  10.528  10.519  0.4824 -0.1376 -0.1058
  786MOL0     C 3625   7.738  10.560  10.411 -0.2287 -0.5213  0.0561
  786MOL0     C 3626   7.692  10.573  10.278  0.8321 -0.4269 -1.3775
  786MOL0     C 3627   7.552  10.547  10.257  0.2344 -0.5789  0.3909
  786MOL0     O 3628   7.495  10.549  10.127 -0.1137  0.0631 -0.7869
  786MOL0     C 3629   7.586  10.530  10.015 -0.1323 -0.5189 -0.1509
  786MOL0     C 3630   7.639  10.387   9.993 -0.0749  0.4132 -0.2451
  786MOL0     C 3631   7.740  10.386   9.880  0.1840 -0.2718 -0.7145
  786MOL0     C 3632   7.794  10.239   9.872 -0.3902  0.5326  0.5084
  786MOL0     C 3633   7.703  10.141   9.804  0.3862  0.6741 -0.0329
  786MOL0     C 3634   7.793  10.010   9.782  0.0624 -0.6998 -0.7612
  786MOL0     C 3635   7.701   9.894   9.712  0.1740  0.3083  0.4197
  786MOL0     C 3636   7.678   9.914   9.563  1.3889 -1.0185 -0.0680
  786MOL0     N 3637   7.614   9.798   9.491 -0.3522 -1.2477  0.0673
  786MOL0     C 3638   7.479   9.789   9.454  0.0223  0.5120 -0.4308
  786MOL0     C 3639   7.479   9.672   9.395 -0.1426  0.8373  0.6423
  786MOL0     C 3640   7.350   9.607   9.338  0.4100 -0.6341 -0.9304
  786MOL0     C 3641   7.367   9.581   9.183  0.2729  0.3521 -0.4172
  786MOL0     C 3642   7.438   9.451   9.171 -0.3751  0.8028 -0.1738
  786MOL0     C 3643   7.360   9.326   9.211  0.5131  0.1395  0.3892
  786MOL0     O 3644   7.418   9.205   9.159  0.3491  0.1005 -0.3832
  786MOL0     C 3645   7.406   9.160   9.037 -0.6730  0.5506 -0.0716
  786MOL0     C 3646   7.524   9.082   9.004 -0.3844 -0.6148 -0.4788
  786MOL0     C 3647   7.537   9.030   8.881 -0.7908 -0.1953 -0.6734
  786MOL0     C 3648   7.434   9.054   8.789 -0.2370  0.7209 -0.4800
  786MOL0     C 3649   7.456   9.000   8.656  0.5217 -0.0381 -0.1310
  786MOL0     O 3650   7.583   8.957   8.623 -0.0856 -0.5245  0.3253
  786MOL0     C 3651   7.599   8.904   8.495  0.4533 -0.1555  0.4356
  786MOL0     C 3652   7.523   8.801   8.439 -0.2727 -0.3834 -0.5790
  786MOL0     C 3653   7.534   8.772   8.303 -0.2761 -0.2904 -0.4192
  786MOL0     C 3654   7.637   8.838   8.234 -0.0687  0.6160  1.3591
  786MOL0     O 3655   7.655   8.809   8.100  0.4104 -0.3769  0.8966
  786MOL0     C 3656   7.718   8.887   8.010  0.3699 -1.2642  0.9376
  786MOL0     C 3657   7.695   8.810   7.886 -0.1678  0.4421  1.3316
  786MOL0     C 3658   7.767   8.868   7.767 -0.3680  0.0663  0.6651
  786MOL0     C 3659   7.742   8.785   7.640 -0.0532  0.5596  0.5882
  786MOL0     C 3660   7.859   8.795   7.540 -0.5906 -0.1340 -0.4953
  786MOL0     C 3661   7.898   8.933   7.504  0.2001  0.7514 -0.6536
  786MOL0     C 3662   7.991   8.930   7.373  0.1753  0.5742  0.5120
  786MOL0     C 3663   8.048   9.067   7.326  0.4535  0.3505 -0.1781
  786MOL0    Cl 3664   8.207   9.077   7.419 -0.1313 -0.1734  0.0785
  786MOL0     C 3665   7.734   8.930   8.291 -0.4801 -0.0209  0.1165
  786MOL0     C 3666   7.706   8.966   8.428 -0.2670 -0.3509 -0.5019
  786MOL0     O 3667   7.356   8.990   8.583  1.2962 -0.4033 -0.0339
  786MOL0     C 3668   7.316   9.118   8.822 -0.1553 -0.0875 -0.9746
  786MOL0     C 3669   7.299   9.172   8.953  0.8370 -0.5812 -0.8299
  786MOL0     N 3670   7.602   9.616   9.392  0.1091  0.1253 -0.5653
  786MOL0     N 3671   7.689   9.693   9.449  0.8593  1.1114 -0.3750
  786MOL0     C 3672   7.468  10.509  10.365  0.9822 -0.4860 -0.0919
  786MOL0     C 3673   7.518  10.503  10.493 -0.4473 -0.7913 -0.7237
  786MOL0     C 3674   7.887  10.566  10.819  0.9581 -0.5024  0.8155
  786MOL0     C 3675   8.009  10.628  10.839 -1.0128 -0.4220 -1.0178
  786MOL0     C 3676   8.075  10.591  10.957 -0.4689 -0.4100  0.0309
  786MOL0     C 3677   8.032  10.492  11.042 -0.2039 -0.3253 -0.4203
  786MOL0     O 3678   8.123  10.474  11.149  0.5834  0.4899 -0.7602
  786MOL0     C 3679   8.081  10.396  11.262 -0.0587  0.4068  0.5800
  786MOL0     C 3680   8.203  10.396  11.355 -0.5964 -0.0021  0.1379
  786MOL0     C 3681   8.323  10.302  11.330  0.3843 -0.9901  0.0931
  786MOL0     C 3682   8.301  10.163  11.379  0.3539 -0.0031  0.5345
  786MOL0     C 3683   8.412  10.067  11.355 -0.8233 -0.5763 -0.7806
  786MOL0     C 3684   8.505   9.994  11.326  0.0843 -0.5359  0.6706
  786MOL0     C 3685   7.911  10.440  11.012 -0.0142  0.2173 -0.2655
  786MOL0     C 3686   7.829  10.478  10.911  0.5204  0.2003  0.4604
  786MOL0     H 3687   7.841  10.591  10.399  0.3467 -2.8422 -2.0560
  786MOL0     H 3688   7.755  10.609  10.197 -0.5810  0.8731 -1.9656
  786MOL0     H 3689   7.666  10.603  10.026  1.1919 -1.6567 -1.7176
  786MOL0     H 3690   7.514  10.559   9.938 -0.6953  1.2155  0.9679
  786MOL0     H 3691   7.553  10.322   9.972  2.6570 -3.5879  0.0672
  786MOL0     H 3692   7.687  10.354  10.085  2.1663  2.3250 -0.6343
  786MOL0     H 3693   7.820  10.457   9.902 -0.6098 -0.4330  3.8015
  786MOL0     H 3694   7.691  10.415   9.786 -2.0640  0.4943  0.6022
  786MOL0     H 3695   7.894  10.236   9.829  0.0072 -3.3111  1.3375
  786MOL0     H 3696   7.819  10.204   9.973 -0.9750 -0.8330  0.1916
  786MOL0     H 3697   7.675  10.173   9.703 -0.8934  4.3067  1.3159
  786MOL0     H 3698   7.614  10.113   9.861 -1.6983 -0.1926 -3.4560
  786MOL0     H 3699   7.825   9.977   9.881 -1.5657 -0.6849 -0.1942
  786MOL0     H 3700   7.871  10.036   9.710 -0.9371 -1.2628 -2.0799
  786MOL0     H 3701   7.740   9.795   9.739 -3.2709 -0.9529  1.3107
  786MOL0     H 3702   7.601   9.888   9.755  0.3956 -2.8475  0.7414
  786MOL0     H 3703   7.759   9.948   9.499 -1.1632  1.0236 -2.4194
  786MOL0     H 3704   7.622  10.005   9.544 -0.5038 -2.5429 -2.3734
  786MOL0     H 3705   7.400   9.863   9.462  1.1436  1.4937  3.7786
  786MOL0     H 3706   7.264   9.675   9.338  0.8051 -0.1226 -1.8712
  786MOL0     H 3707   7.327   9.517   9.396 -0.8763  0.9324  1.1501
  786MOL0     H 3708   7.413   9.666   9.131 -1.6512  3.0613  1.9296
  786MOL0     H 3709   7.269   9.570   9.136  1.5341 -4.2943 -2.4839
  786MOL0     H 3710   7.480   9.449   9.071  0.0281  2.5565 -0.0763
  786MOL0     H 3711   7.525   9.451   9.238 -1.7295  1.7729  1.7020
  786MOL0     H 3712   7.259   9.342   9.173  0.8146  0.9952 -0.0873
  786MOL0     H 3713   7.360   9.315   9.320  0.3554 -1.5442  0.2484
  786MOL0     H 3714   7.604   9.060   9.075 -2.3358 -3.7744  0.9493
  786MOL0     H 3715   7.638   8.992   8.866  1.5532  4.1190  1.9104
  786MOL0     H 3716   7.443   8.752   8.493 -0.6524 -0.1519 -0.9285
  786MOL0     H 3717   7.473   8.718   8.231 -0.5842  1.7353 -1.7649
  786MOL0     H 3718   7.826   8.888   8.025  0.6409 -0.6554 -0.8279
  786MOL0     H 3719   7.686   8.989   7.985  0.2496 -1.8838 -1.7377
  786MOL0     H 3720   7.589   8.800   7.862  0.5644 -0.9309 -1.7637
  786MOL0     H 3721   7.731   8.707   7.895 -0.3197  0.2202 -0.3406
  786MOL0     H 3722   7.874   8.848   7.776 -0.6097 -0.8702  1.6658
  786MOL0     H 3723   7.757   8.977   7.763  1.0959  0.1836 -1.6994
  786MOL0     H 3724   7.714   8.682   7.663  0.4328  0.3815  0.3936
  786MOL0     H 3725   7.665   8.833   7.579  3.9428  2.9963 -3.1406
  786MOL0     H 3726   7.824   8.753   7.445  1.0573  2.1924 -2.2818
  786MOL0     H 3727   7.943   8.736   7.577  0.2566 -0.1869 -2.3648
  786MOL0     H 3728   7.949   8.957   7.597 -0.4271  1.9323 -0.5837
  786MOL0     H 3729   7.820   9.010   7.514 -0.6642 -0.0493 -1.1073
  786MOL0     H 3730   8.068   8.855   7.392 -0.1582 -0.6212 -2.2731
  786MOL0     H 3731   7.933   8.888   7.290  1.9567 -0.5944 -0.2016
  786MOL0     H 3732   7.988   9.157   7.342  2.7864  1.6710  1.6968
  786MOL0     H 3733   8.066   9.060   7.219  0.2752  4.1752 -0.5752
  786MOL0     H 3734   7.803   8.994   8.237  1.5740 -2.3261 -0.1502
  786MOL0     H 3735   7.766   9.047   8.469 -1.4070 -0.7086  2.0781
  786MOL0     H 3736   7.229   9.103   8.759  0.9592  0.7810 -2.8137
  786MOL0     H 3737   7.210   9.227   8.983  2.4661  0.4959  2.4840
  786MOL0     H 3738   7.363  10.481  10.360  0.8004 -0.3932  2.0752
  786MOL0     H 3739   7.461  10.487  10.585  2.3853  0.6149  1.4227
  786MOL0     H 3740   8.049  10.707  10.776  2.0909 -1.8233 -0.9998
  786MOL0     H 3741   8.173  10.623  10.990 -2.2005 -0.8789  7.4752
  786MOL0     H 3742   8.073  10.292  11.227  0.7770  1.1395 -2.0079
  786MOL0     H 3743   7.992  10.437  11.311 -0.1274 -0.8228  1.5423
  786MOL0     H 3744   8.243  10.497  11.344  1.5298 -1.0277 -3.1333
  786MOL0     H 3745   8.163  10.375  11.454 -0.0534 -4.3997 -0.3654
  786MOL0     H 3746   8.418  10.344  11.366  0.8288 -3.2155  1.6778
  786MOL0     H 3747   8.342  10.303  11.222  2.5326 -3.2615  0.3769
  786MOL0     H 3748   8.304  10.164  11.489 -1.4794 -2.7872  0.7025
  786MOL0     H 3749   8.212  10.108  11.349  1.0647  0.4274 -2.7979
  786MOL0     H 3750   8.585   9.927  11.301 -1.7151 -2.1594 -1.1404
  786MOL0     H 3751   7.873  10.362  11.078 -1.0333 -0.6452 -1.8061
  786MOL0     H 3752   7.733  10.430  10.897  1.5091 -1.1105 -2.7322
  787MOL0     O 3753   5.202   9.262   0.366  0.0465  0.3083  0.0703
  787MOL0     C 3754   5.164   9.212   0.259  0.0581 -0.4676  0.1658
  787MOL0     O 3755   5.114   9.281   0.154 -0.1045  0.3379  0.4451
  787MOL0     C 3756   5.075   9.411   0.161 -0.7839 -0.7382 -0.3992
  787MOL0     C 3757   5.079   9.473   0.032 -0.5311  0.6501 -0.1906
  787MOL0     C 3758   5.051   9.609   0.018  0.8923  1.0446 -0.0513
  787MOL0     C 3759   5.004   9.692   0.126  0.5228  0.7513  0.9773
  787MOL0     O 3760   5.001   9.825   0.115 -0.1156 -1.4734 -0.1059
  787MOL0     C 3761   4.895   9.890   0.194 -0.3068  0.1983  0.1539
  787MOL0     C 3762   4.900  10.038   0.150 -0.3903 -0.1511  0.2603
  787MOL0     C 3763   4.855  10.063   0.006  0.4706  0.6402  0.0026
  787MOL0     C 3764   4.851  10.216  -0.030 -0.5186  0.4511 -0.0264
  787MOL0     C 3765   4.990  10.276  -0.053  0.2077 -0.0069  0.1221
  787MOL0     C 3766   4.999  10.394  -0.135  0.3318  0.2075 -0.6369
  787MOL0     C 3767   5.135  10.451  -0.145  0.1368 -0.0415 -0.7222
  787MOL0     C 3768   5.167  10.552  -0.255  0.9500 -0.4382 -0.3601
  787MOL0     N 3769   5.105  10.684  -0.224  0.0932  0.1403 -0.0775
  787MOL0     C 3770   4.963  10.702  -0.232 -0.4699  0.4215 -0.3804
  787MOL0     C 3771   4.937  10.830  -0.176 -0.9964 -0.1317  0.5752
  787MOL0     C 3772   4.801  10.905  -0.178 -0.2669  0.3654 -0.9720
  787MOL0     C 3773   4.734  10.913  -0.321  0.1884  0.2213 -0.1388
  787MOL0     C 3774   4.614  11.017  -0.307 -0.8470  0.4456  0.5550
  787MOL0     C 3775   4.665  11.162  -0.340 -1.2813  1.2441 -0.3995
  787MOL0     O 3776   4.567  11.259  -0.324 -0.3400 -0.5786 -0.3266
  787MOL0     C 3777   4.509  11.292  -0.205 -0.5743  0.1575  0.4488
  787MOL0     C 3778   4.380  11.353  -0.212  1.3918 -1.2984  0.2065
  787MOL0     C 3779   4.309  11.391  -0.090 -1.0921  0.2574  0.2720
  787MOL0     C 3780   4.377  11.383   0.032  1.5292  0.6595  0.0748
  787MOL0     C 3781   4.330  11.436   0.157  0.1375  0.7711 -0.3074
  787MOL0     O 3782   4.238  11.526   0.154 -0.1807  0.5671  0.4437
  787MOL0     C 3783   4.158  11.567   0.263  0.3291 -0.9563 -0.2818
  787MOL0     C 3784   4.107  11.491   0.367  0.0476  0.0147 -0.4954
  787MOL0     C 3785   4.037  11.558   0.465 -0.2395  0.1973 -1.1630
  787MOL0     C 3786   4.009  11.705   0.459  0.3819  0.6287 -0.3728
  787MOL0     O 3787   3.959  11.787   0.565 -0.2737 -0.3658 -0.3464
  787MOL0     C 3788   3.977  11.726   0.692  0.3764 -0.6656  0.0606
  787MOL0     C 3789   3.965  11.812   0.810 -0.1971 -0.5179 -0.6401
  787MOL0     C 3790   3.812  11.810   0.855  0.0500  0.6529 -0.4632
  787MOL0     C 3791   3.788  11.933   0.937  0.2164 -0.7548 -0.7084
  787MOL0     C 3792   3.820  12.060   0.873  0.1411 -1.4134 -0.3282
  787MOL0     C 3793   3.729  12.174   0.937  0.1464  0.1135  0.1288
  787MOL0     C 3794   3.743  12.306   0.860  1.8388 -0.8560  0.2839
  787MOL0     C 3795   3.650  12.427   0.905  0.2880 -0.1834 -0.8791
  787MOL0    Cl 3796   3.478  12.372   0.891  0.0939  0.9041  0.1093
  787MOL0     C 3797   4.057  11.770   0.354  0.2716 -0.4579  1.1922
  787MOL0     C 3798   4.131  11.706   0.259  0.5131 -0.5373 -0.2077
  787MOL0     O 3799   4.350  11.359   0.253 -0.3016 -0.3708 -0.1720
  787MOL0     C 3800   4.508  11.332   0.029 -0.0289 -0.3528 -0.1147
  787MOL0     C 3801   4.573  11.291  -0.086  0.3731 -0.4969 -0.9887
  787MOL0     N 3802   5.063  10.873  -0.127  0.9391 -0.2154 -0.3127
  787MOL0     N 3803   5.152  10.785  -0.149 -0.8826 -0.1849 -0.4507
  787MOL0     C 3804   4.991   9.624   0.246  0.3303  0.5029 -0.8631
  787MOL0     C 3805   5.019   9.491   0.264  0.0187  0.9412 -0.7139
  787MOL0     C 3806   5.167   9.063   0.249 -0.7525 -0.5285 -0.4416
  787MOL0     C 3807   5.145   8.992   0.126  0.9424 -0.2165  0.2619
  787MOL0     C 3808   5.161   8.851   0.125 -0.1730 -0.0300  0.9162
  787MOL0     C 3809   5.199   8.778   0.238 -0.4443  0.4744 -0.2543
  787MOL0     O 3810   5.251   8.646   0.220 -0.4709 -0.0704  0.4572
  787MOL0     C 3811   5.209   8.544   0.304  0.1788 -0.3006  0.2275
  787MOL0     C 3812   5.330   8.508   0.397  0.7170 -0.7306  0.3102
  787MOL0     C 3813   5.298   8.410   0.511  0.1094 -0.7455 -0.4091
  787MOL0     C 3814   5.243   8.269   0.470 -0.6619 -0.0840  0.4767
  787MOL0     C 3815   5.101   8.283   0.432  0.3747 -0.1776  0.0699
  787MOL0     C 3816   4.991   8.292   0.382  0.3368  0.1421  0.7928
  787MOL0     C 3817   5.228   8.844   0.357  0.3487 -0.9658  1.0110
  787MOL0     C 3818   5.209   8.982   0.358  0.6043  0.6172 -0.1368
  787MOL0     H 3819   5.131   9.412  -0.041  1.0458 -1.0297  2.1744
  787MOL0     H 3820   5.068   9.659  -0.077  1.3033  0.7328 -0.1437
  787MOL0     H 3821   4.937   9.884   0.295  1.3402 -0.7227 -0.5580
  787MOL0     H 3822   4.795   9.847   0.182  0.3752 -0.9577 -1.8350
  787MOL0     H 3823   4.999  10.082   0.168  1.4749 -3.4339 -0.9473
  787MOL0     H 3824   4.833  10.098   0.211  0.9944  0.4610  1.2536
  787MOL0     H 3825   4.761  10.015  -0.020 -0.2511  2.7253 -1.5711
  787MOL0     H 3826   4.926  10.009  -0.059 -0.5211 -2.7669  1.5674
  787MOL0     H 3827   4.806  10.217  -0.129  0.8037 -1.1757 -0.6885
  787MOL0     H 3828   4.787  10.266   0.044 -2.9632  0.0571 -1.7315
  787MOL0     H 3829   5.064  10.202  -0.085  2.5630  1.6765  1.3392
  787MOL0     H 3830   5.021  10.274   0.052  0.5884 -5.3376  0.1989
  787MOL0     H 3831   4.926  10.463  -0.092 -0.2435 -1.2013  0.7513
  787MOL0     H 3832   4.958  10.363  -0.232  0.3290  0.4019 -0.6991
  787MOL0     H 3833   5.172  10.486  -0.048 -0.6198 -2.4431  0.5195
  787MOL0     H 3834   5.207  10.372  -0.164 -0.2706 -0.6408  0.1402
  787MOL0     H 3835   5.125  10.528  -0.353 -1.3410  0.3304  0.3768
  787MOL0     H 3836   5.276  10.563  -0.263  0.7803  1.7995 -0.2274
  787MOL0     H 3837   4.900  10.635  -0.288  3.5803 -0.8638 -3.9395
  787MOL0     H 3838   4.831  11.004  -0.144 -1.1880  0.0020  1.0362
  787MOL0     H 3839   4.735  10.849  -0.111 -1.7714  1.9730 -1.0623
  787MOL0     H 3840   4.696  10.812  -0.340 -0.6397  0.0561  2.0649
  787MOL0     H 3841   4.807  10.954  -0.391  2.1264 -0.5620  1.3381
  787MOL0     H 3842   4.531  11.014  -0.378  0.0195  1.8430 -0.5652
  787MOL0     H 3843   4.564  11.011  -0.210 -0.7196  2.2345  0.7643
  787MOL0     H 3844   4.702  11.166  -0.443 -1.6457  0.2880 -0.5808
  787MOL0     H 3845   4.750  11.190  -0.277  0.6912  0.3936 -2.5285
  787MOL0     H 3846   4.322  11.353  -0.303 -0.0706 -1.0475  1.0897
  787MOL0     H 3847   4.211  11.435  -0.106 -1.3236 -1.1536 -2.9405
  787MOL0     H 3848   4.116  11.383   0.370 -1.3519 -0.1048  1.9761
  787MOL0     H 3849   4.024  11.505   0.559 -1.4603 -0.5003 -1.6994
  787MOL0     H 3850   4.086  11.719   0.691  0.5448  1.3457 -1.4349
  787MOL0     H 3851   3.932  11.628   0.709  1.0467 -1.2430 -1.3786
  787MOL0     H 3852   4.013  11.910   0.804 -0.2570 -0.4424  0.0152
  787MOL0     H 3853   4.007  11.752   0.891 -2.3587 -0.0386  0.9416
  787MOL0     H 3854   3.799  11.725   0.922  2.8323  0.4105 -0.1037
  787MOL0     H 3855   3.746  11.819   0.768  1.1523 -2.0176 -1.6929
  787MOL0     H 3856   3.680  11.947   0.953  0.0471  3.9949 -4.0389
  787MOL0     H 3857   3.835  11.922   1.035 -4.8455  1.5827  2.4546
  787MOL0     H 3858   3.789  12.065   0.769  1.8416 -0.5269 -0.8370
  787MOL0     H 3859   3.925  12.086   0.893 -0.0987 -0.7947  0.1893
  787MOL0     H 3860   3.741  12.185   1.045  0.1515 -1.3544  0.3067
  787MOL0     H 3861   3.625  12.141   0.922  0.3876 -0.3955 -0.4538
  787MOL0     H 3862   3.846  12.344   0.855  0.5987  3.0327  0.5881
  787MOL0     H 3863   3.697  12.287   0.762 -2.2936  2.8156  1.1957
  787MOL0     H 3864   3.655  12.515   0.839 -3.2401  2.0435  1.4612
  787MOL0     H 3865   3.670  12.442   1.011 -0.4295 -1.6894 -0.5113
  787MOL0     H 3866   4.041  11.878   0.350  1.9162 -0.2194  0.6067
  787MOL0     H 3867   4.182  11.760   0.180 -0.7294  0.1124 -0.5923
  787MOL0     H 3868   4.563  11.326   0.122 -2.5784 -2.1769  1.3814
  787MOL0     H 3869   4.675  11.258  -0.076  0.8037  0.4276 -2.0395
  787MOL0     H 3870   4.956   9.668   0.339  5.1355  1.4667  0.7471
  787MOL0     H 3871   5.001   9.436   0.356 -0.5106 -1.3704 -2.1228
  787MOL0     H 3872   5.118   9.056   0.043  0.4874 -2.0190 -1.0409
  787MOL0     H 3873   5.167   8.802   0.029 -0.1819  0.4538  0.6615
  787MOL0     H 3874   5.181   8.458   0.242 -1.2115 -0.4870  1.0920
  787MOL0     H 3875   5.113   8.581   0.341  0.3626  0.3083  0.1131
  787MOL0     H 3876   5.421   8.473   0.347 -0.2615 -1.3634 -1.0917
  787MOL0     H 3877   5.371   8.597   0.446 -0.9193  0.6519 -0.7144
  787MOL0     H 3878   5.226   8.457   0.578  0.3870 -0.5866 -0.2188
  787MOL0     H 3879   5.390   8.391   0.567  0.8833 -4.0447 -2.5103
  787MOL0     H 3880   5.303   8.247   0.381 -1.4616 -0.4712  0.0208
  787MOL0     H 3881   5.269   8.200   0.551  0.3118 -1.4064 -0.9188
  787MOL0     H 3882   4.911   8.290   0.311  1.5197  1.2420 -0.6288
  787MOL0     H 3883   5.278   8.789   0.435  0.6416  1.1936  2.4403
  787MOL0     H 3884   5.222   9.042   0.448 -0.9576  2.4358 -1.0416
  788MOL0     O 3885   1.841   5.519   9.248  0.5392 -0.1150  0.4818
  788MOL0     C 3886   1.794   5.493   9.137 -0.7032  0.1956  0.1374
  788MOL0     O 3887   1.872   5.438   9.035 -0.6277  0.8097  0.4026
  788MOL0     C 3888   2.006   5.467   9.046  0.6209  0.1973 -1.0667
  788MOL0     C 3889   2.054   5.598   9.030  0.6809  0.0577  0.5390
  788MOL0     C 3890   2.182   5.628   9.030  0.1213  0.0588  0.2711
  788MOL0     C 3891   2.279   5.522   9.042 -0.3306 -0.3278  0.3114
  788MOL0     O 3892   2.414   5.546   9.036 -0.3088 -0.5401  0.0818
  788MOL0     C 3893   2.466   5.675   9.058  0.2787 -0.1255  0.4706
  788MOL0     C 3894   2.461   5.734   9.190 -0.3668  0.4913 -0.0638
  788MOL0     C 3895   2.573   5.704   9.292 -0.5052  0.2892  0.4762
  788MOL0     C 3896   2.575   5.552   9.312  0.6584  0.5462  0.5660
  788MOL0     C 3897   2.670   5.524   9.430  0.5336  0.7725  0.0697
  788MOL0     C 3898   2.681   5.370   9.443 -0.0360 -0.7073 -0.7341
  788MOL0     C 3899   2.599   5.288   9.540  0.3217 -0.1985  0.9550
  788MOL0     C 3900   2.458   5.236   9.486  0.2421 -1.0752 -0.5589
  788MOL0     N 3901   2.464   5.135   9.390 -0.7073 -0.2321  0.7479
  788MOL0     C 3902   2.507   5.009   9.413 -1.1905  0.0124 -0.1187
  788MOL0     C 3903   2.503   4.950   9.290 -0.9247  0.1723  0.2874
  788MOL0     C 3904   2.552   4.808   9.263 -0.5406  0.4181 -0.0832
  788MOL0     C 3905   2.707   4.820   9.305  0.0900 -0.4219  1.1976
  788MOL0     C 3906   2.793   4.720   9.239 -0.2631 -0.7788 -0.1015
  788MOL0     C 3907   2.942   4.737   9.253  0.4757 -0.1037  0.0100
  788MOL0     O 3908   2.967   4.756   9.395  0.2501 -0.2504 -0.2276
  788MOL0     C 3909   3.029   4.870   9.437  0.1860  1.6556  0.2302
  788MOL0     C 3910   3.099   4.841   9.548  0.6987 -0.5323 -0.5251
  788MOL0     C 3911   3.193   4.931   9.611  1.3283  0.0695 -0.5084
  788MOL0     C 3912   3.204   5.066   9.564 -0.0338  0.4221 -0.5081
  788MOL0     C 3913   3.267   5.179   9.638 -0.2501 -0.0331 -0.0394
  788MOL0     O 3914   3.245   5.300   9.591  0.0605 -0.2140  0.4203
  788MOL0     C 3915   3.313   5.408   9.649  0.2041 -0.3431 -0.7637
  788MOL0     C 3916   3.286   5.527   9.579 -0.4980  0.6117 -1.1462
  788MOL0     C 3917   3.309   5.653   9.628  0.6329  0.2988 -0.0468
  788MOL0     C 3918   3.378   5.676   9.742 -0.3270  0.1063  0.1307
  788MOL0     O 3919   3.419   5.797   9.801 -0.1727 -0.4331  0.6213
  788MOL0     C 3920   3.314   5.895   9.785  0.8518 -0.6389 -0.2054
  788MOL0     C 3921   3.328   6.023   9.871 -0.3292 -0.0943  1.2919
  788MOL0     C 3922   3.438   6.124   9.826  1.3200 -0.6259  0.8715
  788MOL0     C 3923   3.475   6.210   9.948 -0.7134  0.0672 -0.3513
  788MOL0     C 3924   3.554   6.346   9.920 -0.2122  0.0346 -0.1688
  788MOL0     C 3925   3.470   6.453   9.841  0.3625 -0.1047  0.0804
  788MOL0     C 3926   3.548   6.583   9.831  0.2378  0.6248 -0.0958
  788MOL0     C 3927   3.469   6.692   9.746  0.4049 -0.2129  0.1391
  788MOL0    Cl 3928   3.510   6.654   9.570 -0.2727  0.2881  0.0197
  788MOL0     C 3929   3.429   5.558   9.812  0.3276 -0.0431 -0.3393
  788MOL0     C 3930   3.387   5.426   9.766 -0.4948 -1.2465 -0.0452
  788MOL0     O 3931   3.341   5.151   9.735  0.3966 -0.2542 -0.0348
  788MOL0     C 3932   3.143   5.090   9.440 -0.7898 -0.0377  0.6928
  788MOL0     C 3933   3.055   4.992   9.387 -0.2773 -0.6430  0.1852
  788MOL0     N 3934   2.460   5.038   9.192  0.4211 -0.0795  0.4997
  788MOL0     N 3935   2.432   5.152   9.255 -0.2544 -0.9390 -0.2715
  788MOL0     C 3936   2.232   5.392   9.073  0.5627  0.6437  1.0706
  788MOL0     C 3937   2.092   5.369   9.080 -0.1989 -1.6169 -0.5487
  788MOL0     C 3938   1.638   5.510   9.117 -0.3650  0.3769  0.1823
  788MOL0     C 3939   1.587   5.524   8.990 -0.4325 -0.3261  0.0584
  788MOL0     C 3940   1.452   5.536   8.970 -0.1304  0.5582  0.1640
  788MOL0     C 3941   1.368   5.550   9.074 -0.4438 -0.2918 -0.4900
  788MOL0     O 3942   1.227   5.556   9.057  0.0693 -0.5696  0.4692
  788MOL0     C 3943   1.130   5.579   9.165  0.0125  0.1235 -0.0588
  788MOL0     C 3944   0.969   5.589   9.128  0.8368  0.5139  0.0926
  788MOL0     C 3945   0.910   5.472   9.047  0.1636  0.2948  0.0186
  788MOL0     C 3946   0.828   5.519   8.926  0.3674 -0.3552  1.9989
  788MOL0     C 3947   0.712   5.598   8.965  0.1592  0.5397  0.4655
  788MOL0     C 3948   0.627   5.668   9.000  0.1255 -0.4787 -0.0695
  788MOL0     C 3949   1.421   5.557   9.206 -0.6056 -0.7013  0.6768
  788MOL0     C 3950   1.558   5.545   9.220  1.4129  0.0055 -1.4897
  788MOL0     H 3951   1.974   5.671   9.037  2.0266  1.7471 -0.7175
  788MOL0     H 3952   2.218   5.727   9.006 -0.6488  0.7748  1.9700
  788MOL0     H 3953   2.421   5.741   8.983 -0.9339  0.0149  1.2839
  788MOL0     H 3954   2.574   5.670   9.045  0.3356 -1.3167  1.2685
  788MOL0     H 3955   2.365   5.709   9.236 -2.0966 -0.9250 -3.9830
  788MOL0     H 3956   2.461   5.843   9.176 -0.1122  0.3978 -0.8303
  788MOL0     H 3957   2.542   5.758   9.383 -1.4557 -1.7709  1.4524
  788MOL0     H 3958   2.668   5.744   9.256  1.6075 -1.0594  4.0390
  788MOL0     H 3959   2.475   5.526   9.347  0.8340  0.1482  0.7750
  788MOL0     H 3960   2.594   5.502   9.217 -3.7007 -0.3900 -0.0362
  788MOL0     H 3961   2.640   5.578   9.521 -1.3990 -2.5767  1.6299
  788MOL0     H 3962   2.766   5.561   9.393  0.6204  1.1600  0.6677
  788MOL0     H 3963   2.785   5.349   9.468 -0.2684  0.6877  1.7147
  788MOL0     H 3964   2.667   5.327   9.343 -2.0501  0.5162 -1.0412
  788MOL0     H 3965   2.649   5.192   9.553  1.0509  0.0547  0.0849
  788MOL0     H 3966   2.593   5.333   9.639  3.0378  0.1946  0.9954
  788MOL0     H 3967   2.400   5.317   9.441  1.2955 -0.5220 -0.9641
  788MOL0     H 3968   2.402   5.194   9.569 -0.1720  1.2934  0.4512
  788MOL0     H 3969   2.533   4.960   9.507 -0.2761 -1.2473 -1.0081
  788MOL0     H 3970   2.552   4.781   9.156  1.6691 -1.0541  0.2222
  788MOL0     H 3971   2.503   4.737   9.331 -2.4225 -0.7372 -2.4518
  788MOL0     H 3972   2.724   4.827   9.413  0.4605 -0.7997  1.1681
  788MOL0     H 3973   2.745   4.916   9.267  1.5144 -1.2631  0.3719
  788MOL0     H 3974   2.771   4.619   9.277  0.1003 -0.4514  1.0091
  788MOL0     H 3975   2.770   4.717   9.132  1.9489  1.0636 -0.7167
  788MOL0     H 3976   2.978   4.827   9.203  2.9956 -0.2273  1.4429
  788MOL0     H 3977   2.995   4.657   9.201  3.0781  2.3896 -1.4488
  788MOL0     H 3978   3.105   4.741   9.589  4.3984  0.8455  3.0220
  788MOL0     H 3979   3.249   4.904   9.699  2.2126 -0.2144 -1.1485
  788MOL0     H 3980   3.218   5.531   9.495  1.6722  4.0220 -2.9646
  788MOL0     H 3981   3.277   5.732   9.561  1.3788  0.9181  0.3183
  788MOL0     H 3982   3.216   5.853   9.811  0.8852  0.3896  1.8290
  788MOL0     H 3983   3.309   5.934   9.683 -1.8979  0.5380  0.2890
  788MOL0     H 3984   3.351   6.002   9.976  1.5460 -3.9433  0.2932
  788MOL0     H 3985   3.228   6.067   9.866 -1.4425 -2.6031 -3.0328
  788MOL0     H 3986   3.394   6.190   9.750  3.1021  0.9483  1.1558
  788MOL0     H 3987   3.524   6.067   9.790 -0.3629 -2.9541  0.3186
  788MOL0     H 3988   3.381   6.252   9.986 -0.2123  1.8742 -1.0163
  788MOL0     H 3989   3.527   6.144  10.018  1.9429 -0.2427 -2.4499
  788MOL0     H 3990   3.649   6.321   9.872  0.3384 -0.4468  1.1226
  788MOL0     H 3991   3.583   6.382  10.020  0.1007  2.5135 -1.0834
  788MOL0     H 3992   3.372   6.472   9.887  1.3571  0.1732  2.2078
  788MOL0     H 3993   3.463   6.406   9.743 -1.5398 -0.9447  0.5680
  788MOL0     H 3994   3.568   6.618   9.932 -3.3475  2.1338  0.2269
  788MOL0     H 3995   3.648   6.573   9.787 -0.4864  0.2233 -1.7247
  788MOL0     H 3996   3.498   6.797   9.757  1.6451 -0.4887 -0.2545
  788MOL0     H 3997   3.362   6.687   9.766  0.1256 -0.4154 -1.3522
  788MOL0     H 3998   3.498   5.567   9.895  0.7265  0.0742 -0.6793
  788MOL0     H 3999   3.418   5.342   9.827  3.8431 -0.6392 -1.0864
  788MOL0     H 4000   3.168   5.177   9.380  0.3395 -1.8309 -1.6220
  788MOL0     H 4001   3.016   5.016   9.289 -2.0759 -2.3646  0.4253
  788MOL0     H 4002   2.306   5.316   9.095 -0.2400 -0.7886 -0.9419
  788MOL0     H 4003   2.048   5.275   9.113  0.3301 -1.0327  2.0009
  788MOL0     H 4004   1.660   5.511   8.910  0.9353  1.5141  0.9303
  788MOL0     H 4005   1.419   5.517   8.868  0.6909 -3.4886  0.4904
  788MOL0     H 4006   1.156   5.669   9.220 -1.5739 -0.4818  1.8092
  788MOL0     H 4007   1.151   5.499   9.237  1.0105  0.9726  0.6272
  788MOL0     H 4008   0.911   5.585   9.221  0.7841 -0.6233  0.0302
  788MOL0     H 4009   0.952   5.687   9.084  0.3170  0.8597  1.0276
  788MOL0     H 4010   0.850   5.416   9.120  0.3120 -0.2527 -0.2773
  788MOL0     H 4011   0.985   5.403   9.008 -0.4691  0.2535 -1.1801
  788MOL0     H 4012   0.894   5.576   8.859  2.5565 -0.8861  3.5808
  788MOL0     H 4013   0.799   5.421   8.887  1.4151  0.2050 -0.4154
  788MOL0     H 4014   0.561   5.743   9.039 -2.1832 -1.7685 -1.3253
  788MOL0     H 4015   1.358   5.563   9.294  0.0899 -0.6247  1.1775
  788MOL0     H 4016   1.594   5.548   9.322 -3.1173  3.5347  0.3561
  789MOL0     O 4017   2.120   4.589   6.529 -0.6959  0.4281  0.5213
  789MOL0     C 4018   2.175   4.489   6.590 -0.3066  0.1032  0.3862
  789MOL0     O 4019   2.111   4.377   6.628 -0.1358 -0.5324 -0.0244
  789MOL0     C 4020   1.984   4.354   6.581  0.4322  0.1845 -0.3396
  789MOL0     C 4021   1.925   4.235   6.648 -0.0189  0.3766 -0.7051
  789MOL0     C 4022   1.793   4.186   6.618  0.1913 -0.5316  0.2156
  789MOL0     C 4023   1.716   4.255   6.512 -0.2317 -0.3636 -0.2345
  789MOL0     O 4024   1.589   4.206   6.479 -0.0589  0.0513 -0.0955
  789MOL0     C 4025   1.514   4.131   6.571  0.4210 -0.4593 -0.2576
  789MOL0     C 4026   1.456   4.221   6.688 -0.2644 -0.1195  0.9132
  789MOL0     C 4027   1.364   4.138   6.766 -0.7963  0.6062 -0.2191
  789MOL0     C 4028   1.314   4.232   6.871  0.2986 -0.4710 -0.5292
  789MOL0     C 4029   1.228   4.168   6.987 -0.7822 -0.3248  0.9352
  789MOL0     C 4030   1.186   4.270   7.082 -0.6769 -0.7855 -0.3550
  789MOL0     C 4031   1.273   4.294   7.208 -0.2611 -1.0746  0.3742
  789MOL0     C 4032   1.278   4.170   7.294 -0.2355  0.1382  0.2508
  789MOL0     N 4033   1.367   4.194   7.407  0.3131  0.4412 -0.3079
  789MOL0     C 4034   1.376   4.105   7.511  0.1301  0.0438 -0.1084
  789MOL0     C 4035   1.469   4.153   7.586 -1.0217  0.0173 -0.1905
  789MOL0     C 4036   1.519   4.104   7.715  0.6259 -0.2996 -0.1839
  789MOL0     C 4037   1.449   4.162   7.844  0.7685 -0.1460 -0.1199
  789MOL0     C 4038   1.298   4.146   7.851  0.2554 -0.0455  0.7953
  789MOL0     C 4039   1.262   3.996   7.876 -0.0483 -0.0948 -0.0527
  789MOL0     O 4040   1.325   3.932   7.984 -0.4591 -0.1672 -0.1079
  789MOL0     C 4041   1.298   3.973   8.114 -0.5938  0.1285  0.3359
  789MOL0     C 4042   1.385   3.919   8.213  0.0875  0.1470 -0.0647
  789MOL0     C 4043   1.372   3.949   8.349 -1.0271 -0.1068 -0.2666
  789MOL0     C 4044   1.257   4.026   8.387 -0.6517  0.8148 -0.2403
  789MOL0     C 4045   1.233   4.065   8.520 -0.3204 -0.9362 -0.3673
  789MOL0     O 4046   1.109   4.103   8.564 -0.2426  0.7878 -0.0910
  789MOL0     C 4047   1.104   4.198   8.660  1.4427 -0.6401 -0.9974
  789MOL0     C 4048   1.101   4.340   8.637 -0.0447 -0.5580  1.1479
  789MOL0     C 4049   1.091   4.434   8.748  1.1308  1.4397  0.0301
  789MOL0     C 4050   1.098   4.379   8.882  0.1023 -0.5082  1.6376
  789MOL0     O 4051   1.103   4.454   9.000  0.1003  1.0404  0.4212
  789MOL0     C 4052   1.000   4.551   9.010  0.0840 -0.5229 -0.6643
  789MOL0     C 4053   0.868   4.493   9.053 -0.1426  1.1171 -0.2561
  789MOL0     C 4054   0.878   4.397   9.174  0.4981  1.0340 -0.8092
  789MOL0     C 4055   0.925   4.459   9.293  1.0239  0.8490  0.8480
  789MOL0     C 4056   0.919   4.364   9.415 -0.9829 -0.7244 -0.5856
  789MOL0     C 4057   0.967   4.443   9.538 -0.5181 -0.9690  0.6374
  789MOL0     C 4058   0.986   4.354   9.657  0.0746 -0.6756  1.2285
  789MOL0     C 4059   0.969   4.401   9.797 -1.1653 -0.9955 -0.0514
  789MOL0    Cl 4060   0.803   4.384   9.836  0.1013 -0.1217  0.1411
  789MOL0     C 4061   1.114   4.245   8.899 -0.1688 -0.4231  0.5044
  789MOL0     C 4062   1.103   4.158   8.786 -0.3078  0.4158  0.2196
  789MOL0     O 4063   1.334   4.094   8.583  0.1459  0.0667  0.0288
  789MOL0     C 4064   1.168   4.068   8.293 -0.7299  0.6979 -0.7478
  789MOL0     C 4065   1.192   4.043   8.160  0.0624 -0.4925  0.1542
  789MOL0     N 4066   1.529   4.263   7.529  0.3788  0.5055  0.0504
  789MOL0     N 4067   1.460   4.292   7.424  0.0190  0.2570 -1.1161
  789MOL0     C 4068   1.782   4.368   6.445  0.2965 -0.0309  0.0100
  789MOL0     C 4069   1.907   4.418   6.481  0.1887  1.0747 -0.1088
  789MOL0     C 4070   2.313   4.504   6.640  0.3611 -0.0666 -0.2810
  789MOL0     C 4071   2.402   4.594   6.580  0.8731 -0.7664 -0.4901
  789MOL0     C 4072   2.530   4.589   6.625 -0.3354  0.2448 -0.2092
  789MOL0     C 4073   2.571   4.509   6.737 -0.4492 -0.4668  0.7517
  789MOL0     O 4074   2.702   4.485   6.773  0.5321  0.3793  0.3258
  789MOL0     C 4075   2.804   4.573   6.723 -0.5060  1.1102 -0.0508
  789MOL0     C 4076   2.947   4.523   6.753  0.7089 -0.0948 -0.3986
  789MOL0     C 4077   2.954   4.466   6.900  1.0604 -0.9113 -0.4778
  789MOL0     C 4078   3.089   4.412   6.932  0.6933 -0.3796  0.7763
  789MOL0     C 4079   3.094   4.265   6.906  0.0204  1.1598  1.6087
  789MOL0     C 4080   3.095   4.144   6.876 -0.4299 -0.2812 -0.0537
  789MOL0     C 4081   2.482   4.433   6.803  0.6206  0.2056 -0.9043
  789MOL0     C 4082   2.352   4.419   6.752  0.6730 -1.0780 -0.6238
  789MOL0     H 4083   1.965   4.172   6.726 -1.1554  0.4381 -0.0425
  789MOL0     H 4084   1.759   4.092   6.660 -1.6512  0.3109  0.7202
  789MOL0     H 4085   1.560   4.039   6.609 -2.8570 -2.9927 -1.9103
  789MOL0     H 4086   1.428   4.103   6.509 -0.0553  1.6188 -0.6015
  789MOL0     H 4087   1.410   4.314   6.654 -1.0399 -0.6045  0.6186
  789MOL0     H 4088   1.547   4.244   6.744 -0.8292  0.8972  1.4290
  789MOL0     H 4089   1.420   4.057   6.812 -0.3201  1.4767  0.7786
  789MOL0     H 4090   1.283   4.098   6.704 -1.9672 -0.4898  1.8965
  789MOL0     H 4091   1.392   4.292   6.920 -3.1573  1.3487  3.3937
  789MOL0     H 4092   1.250   4.299   6.814  1.1811 -2.3429 -3.9525
  789MOL0     H 4093   1.284   4.087   7.035 -2.6790 -1.0816  1.9666
  789MOL0     H 4094   1.139   4.122   6.944 -0.8873 -0.8286  1.6752
  789MOL0     H 4095   1.082   4.242   7.102 -0.6215  0.0382  1.1825
  789MOL0     H 4096   1.182   4.371   7.040  0.5931  0.2783  1.9200
  789MOL0     H 4097   1.371   4.327   7.173 -2.1772  5.4570 -0.2506
  789MOL0     H 4098   1.231   4.379   7.263  1.5568  0.4932 -0.5378
  789MOL0     H 4099   1.318   4.096   7.225 -2.5815  1.7910 -3.1713
  789MOL0     H 4100   1.183   4.129   7.330 -0.9823  1.3057 -0.3051
  789MOL0     H 4101   1.316   4.015   7.516 -0.2784  0.2162 -1.3782
  789MOL0     H 4102   1.625   4.129   7.727  0.2440  1.2998 -0.0279
  789MOL0     H 4103   1.506   3.995   7.712 -0.2531 -0.5016  4.4792
  789MOL0     H 4104   1.482   4.265   7.830  3.1146 -0.5584  1.8400
  789MOL0     H 4105   1.501   4.118   7.929  1.6564 -2.5996 -1.8094
  789MOL0     H 4106   1.259   4.211   7.930  2.3240  1.7924  0.4186
  789MOL0     H 4107   1.248   4.171   7.757  2.3456 -1.1918 -0.7063
  789MOL0     H 4108   1.299   3.934   7.793  2.6044  0.4964  0.6009
  789MOL0     H 4109   1.152   3.997   7.879 -0.2049  0.9835 -2.7834
  789MOL0     H 4110   1.467   3.858   8.176 -0.3007  0.3290 -1.2483
  789MOL0     H 4111   1.445   3.915   8.421 -0.4893  1.8263  0.1732
  789MOL0     H 4112   1.109   4.379   8.536  2.3037 -0.7951  1.1833
  789MOL0     H 4113   1.080   4.541   8.741 -1.3500  1.1854 -1.1655
  789MOL0     H 4114   0.986   4.625   8.931  1.3914  1.4216  0.8044
  789MOL0     H 4115   1.033   4.617   9.091  1.1875 -1.0250 -0.6877
  789MOL0     H 4116   0.843   4.439   8.961  0.5250  1.0295 -0.3878
  789MOL0     H 4117   0.795   4.574   9.062 -1.6037 -0.2048  0.4314
  789MOL0     H 4118   0.948   4.315   9.156  2.5010  2.3937  0.3425
  789MOL0     H 4119   0.774   4.371   9.193  0.3005  1.7955 -0.8355
  789MOL0     H 4120   1.025   4.502   9.285  2.6997 -2.9981 -1.8951
  789MOL0     H 4121   0.859   4.543   9.315 -2.1075 -1.2852  0.2268
  789MOL0     H 4122   0.981   4.279   9.384 -1.1144 -1.6914  1.6022
  789MOL0     H 4123   0.814   4.337   9.429 -1.5212  1.1369 -0.7806
  789MOL0     H 4124   0.900   4.528   9.553  0.0387 -0.4755  0.3937
  789MOL0     H 4125   1.067   4.477   9.511  0.4143 -3.6262  0.4275
  789MOL0     H 4126   0.911   4.274   9.654 -0.1733 -0.6511  4.0268
  789MOL0     H 4127   1.076   4.297   9.634 -0.5803 -0.6192 -1.8238
  789MOL0     H 4128   1.009   4.503   9.805 -0.4956 -1.2877  0.4395
  789MOL0     H 4129   1.018   4.335   9.868 -1.2191  0.0239  0.9686
  789MOL0     H 4130   1.123   4.214   9.002 -2.5138  3.6999  2.1694
  789MOL0     H 4131   1.109   4.056   8.823 -0.5062  0.0188 -0.8155
  789MOL0     H 4132   1.082   4.131   8.315 -0.1863  0.9777  0.6451
  789MOL0     H 4133   1.123   4.093   8.092  2.8989  1.1507 -1.7459
  789MOL0     H 4134   1.712   4.403   6.369 -1.0455 -1.0731  0.7256
  789MOL0     H 4135   1.923   4.506   6.420 -0.7202 -0.2109 -2.2998
  789MOL0     H 4136   2.377   4.656   6.495 -0.5079 -2.1073 -1.1072
  789MOL0     H 4137   2.612   4.635   6.570 -1.6315  1.7940 -0.9555
  789MOL0     H 4138   2.801   4.670   6.774  0.8731  0.5545  1.1712
  789MOL0     H 4139   2.792   4.593   6.616 -1.2252  1.9507  0.1785
  789MOL0     H 4140   2.968   4.441   6.684 -0.2894 -0.8138  0.1297
  789MOL0     H 4141   3.011   4.612   6.751  1.8772 -0.8281  1.5884
  789MOL0     H 4142   2.887   4.385   6.931  1.1166 -1.2742 -1.2877
  789MOL0     H 4143   2.940   4.549   6.970 -2.0292 -1.5961 -0.1535
  789MOL0     H 4144   3.170   4.467   6.884 -1.1255  1.5110 -0.2681
  789MOL0     H 4145   3.101   4.436   7.038 -1.8174  2.5698  0.5427
  789MOL0     H 4146   3.106   4.040   6.852 -0.7055 -0.1379 -0.8256
  789MOL0     H 4147   2.519   4.377   6.889  3.1732  2.4589 -0.4040
  789MOL0     H 4148   2.283   4.348   6.798 -0.1260 -0.7798 -1.3371
  790MOL0     O 4149   9.302  10.103   2.865 -0.1526 -0.2026 -0.4504
  790MOL0     C 4150   9.424  10.112   2.835 -0.5065  0.1902  0.0738
  790MOL0     O 4151   9.502  10.224   2.855  0.0593 -0.2102  0.1250
  790MOL0     C 4152   9.442  10.346   2.889 -0.3931  0.0276  0.6571
  790MOL0     C 4153   9.343  10.408   2.810 -1.1127 -1.5708  0.1181
  790MOL0     C 4154   9.320  10.545   2.829  0.6802  1.0339  0.5217
  790MOL0     C 4155   9.374  10.620   2.930  0.3920  0.4040  0.3454
  790MOL0     O 4156   9.344  10.754   2.943 -0.2052 -0.3402 -0.1435
  790MOL0     C 4157   9.347  10.825   3.067 -0.1778  0.8929  0.7730
  790MOL0     C 4158   9.318  10.970   3.052 -0.3731  0.7285  0.5260
  790MOL0     C 4159   9.401  11.031   2.942 -0.4011  0.1777 -0.3387
  790MOL0     C 4160   9.375  11.174   2.921 -0.6705 -0.1884 -0.1634
  790MOL0     C 4161   9.471  11.236   2.811 -0.5592  0.2174 -0.4424
  790MOL0     C 4162   9.489  11.166   2.672 -0.2012  0.5718  0.1967
  790MOL0     C 4163   9.567  11.248   2.572  0.0038  0.6267  0.0509
  790MOL0     C 4164   9.466  11.281   2.454 -0.5686 -0.0943 -0.7794
  790MOL0     N 4165   9.465  11.421   2.422 -0.0159 -0.3737  0.4554
  790MOL0     C 4166   9.370  11.514   2.436  0.3937 -0.3092 -0.1918
  790MOL0     C 4167   9.441  11.631   2.432  0.1960 -0.5989  0.1770
  790MOL0     C 4168   9.388  11.771   2.444  0.4546 -0.2653 -0.2850
  790MOL0     C 4169   9.279  11.809   2.343  0.7977 -0.0981  0.3563
  790MOL0     C 4170   9.210  11.940   2.388 -0.6950 -0.0230  0.1837
  790MOL0     C 4171   9.276  12.074   2.337  0.0012 -0.5879  0.4162
  790MOL0     O 4172   9.418  12.066   2.348  0.0136  0.4714  0.8059
  790MOL0     C 4173   9.489  12.160   2.281 -0.3897 -0.1777  0.3681
  790MOL0     C 4174   9.588  12.241   2.346 -0.0964  0.0617  0.0736
  790MOL0     C 4175   9.659  12.337   2.266 -0.2979  0.1144  1.0993
  790MOL0     C 4176   9.634  12.345   2.126  0.0926 -0.0840 -0.2471
  790MOL0     C 4177   9.720  12.435   2.041 -0.2860  0.7113  0.0953
  790MOL0     O 4178   9.804  12.523   2.114  0.8634  0.1844  0.1796
  790MOL0     C 4179   9.935  12.553   2.081  0.1724  1.3992  0.1814
  790MOL0     C 4180   9.984  12.620   1.966 -0.0189  0.4311 -0.7293
  790MOL0     C 4181  10.125  12.658   1.954  0.1814  0.8046 -0.2132
  790MOL0     C 4182  10.221  12.626   2.048 -0.3482 -0.0270  0.4503
  790MOL0     O 4183  10.347  12.677   2.057 -0.3412  0.7031 -0.2079
  790MOL0     C 4184  10.417  12.714   1.941 -1.0146  0.4859 -0.0808
  790MOL0     C 4185  10.555  12.740   1.986  0.0216  0.1871  0.3295
  790MOL0     C 4186  10.648  12.804   1.889  0.4601 -0.1193  0.6165
  790MOL0     C 4187  10.796  12.815   1.925 -0.2356 -0.0972  0.6433
  790MOL0     C 4188  10.877  12.685   1.898  0.6464 -0.5730 -0.8548
  790MOL0     C 4189  11.031  12.711   1.909  0.2211  0.9529  0.0510
  790MOL0     C 4190  11.063  12.691   2.056  0.7708  0.3365  0.3822
  790MOL0     C 4191  11.211  12.710   2.084  0.3398 -0.1186 -0.7369
  790MOL0    Cl 4192  11.227  12.665   2.248  0.5600 -0.0823  0.0100
  790MOL0     C 4193  10.171  12.545   2.160  0.0339  0.4341  0.6185
  790MOL0     C 4194  10.035  12.502   2.168 -0.2686 -0.0403  0.0052
  790MOL0     O 4195   9.722  12.408   1.920  0.4443 -0.0364  0.4627
  790MOL0     C 4196   9.534  12.270   2.060 -0.4963  0.0905 -0.0856
  790MOL0     C 4197   9.468  12.176   2.144 -0.2022 -0.4890 -0.7183
  790MOL0     N 4198   9.565  11.613   2.393  0.0131 -0.1944  0.1357
  790MOL0     N 4199   9.580  11.488   2.389 -1.1109  1.0187 -0.5334
  790MOL0     C 4200   9.471  10.562   3.012 -0.5739  0.0814  0.7870
  790MOL0     C 4201   9.499  10.426   2.989 -0.9479 -0.3992 -0.7107
  790MOL0     C 4202   9.482   9.990   2.768  0.9227  0.5022  0.4774
  790MOL0     C 4203   9.610   9.996   2.703 -0.1831  0.5590  0.2277
  790MOL0     C 4204   9.652   9.890   2.617 -0.9855 -0.4844 -0.3289
  790MOL0     C 4205   9.579   9.763   2.606  0.0725 -0.3522  0.6348
  790MOL0     O 4206   9.614   9.649   2.534 -0.3308  0.0055  0.6992
  790MOL0     C 4207   9.752   9.620   2.528 -1.0582  0.2081 -0.0139
  790MOL0     C 4208   9.838   9.608   2.657  0.4015  0.2236  0.2894
  790MOL0     C 4209   9.982   9.558   2.629 -1.0672  0.5240  0.9694
  790MOL0     C 4210  10.057   9.537   2.765 -1.5063  0.5369 -0.6929
  790MOL0     C 4211  10.098   9.671   2.810  0.0251  1.1946  1.1225
  790MOL0     C 4212  10.135   9.782   2.840 -0.3697  0.1281  0.2093
  790MOL0     C 4213   9.456   9.763   2.667  0.2914 -0.0854 -0.5085
  790MOL0     C 4214   9.408   9.871   2.743  0.1876 -1.2127  0.6142
  790MOL0     H 4215   9.306  10.347   2.729 -0.9191 -0.2153 -1.0187
  790MOL0     H 4216   9.237  10.581   2.769  2.0222 -0.4931 -2.4437
  790MOL0     H 4217   9.437  10.802   3.125 -0.1515 -1.1251  0.0090
  790MOL0     H 4218   9.269  10.774   3.124 -0.9847 -2.1187 -2.6835
  790MOL0     H 4219   9.334  11.025   3.145 -0.8022  3.8443 -1.0999
  790MOL0     H 4220   9.210  10.985   3.038 -0.1126  1.5805 -0.7624
  790MOL0     H 4221   9.393  10.976   2.848 -1.2435 -4.7071  2.2645
  790MOL0     H 4222   9.503  11.036   2.981  0.0301 -5.7423  0.2891
  790MOL0     H 4223   9.272  11.188   2.886  0.1688  0.6273 -2.4611
  790MOL0     H 4224   9.390  11.228   3.015 -1.5026  2.8004 -1.6379
  790MOL0     H 4225   9.568  11.254   2.858 -0.9071 -0.4535  0.5677
  790MOL0     H 4226   9.428  11.334   2.789 -2.1872 -0.4725 -0.4898
  790MOL0     H 4227   9.393  11.131   2.634 -0.7427  1.5603  0.6045
  790MOL0     H 4228   9.557  11.081   2.686  2.7864  2.4181 -1.7410
  790MOL0     H 4229   9.626  11.333   2.607 -0.7956  0.2466  2.5649
  790MOL0     H 4230   9.639  11.176   2.532 -1.5602 -0.6416 -0.6034
  790MOL0     H 4231   9.360  11.259   2.475 -1.0605 -0.0110 -2.9106
  790MOL0     H 4232   9.489  11.221   2.366 -1.4441 -0.8882 -0.4902
  790MOL0     H 4233   9.266  11.502   2.462 -0.2017 -1.8433 -2.8938
  790MOL0     H 4234   9.467  11.845   2.460 -0.4907  0.2386  2.5397
  790MOL0     H 4235   9.332  11.783   2.537  0.5547 -0.4568 -0.1999
  790MOL0     H 4236   9.199  11.737   2.364 -0.5206  1.2611  0.1794
  790MOL0     H 4237   9.316  11.820   2.240 -0.4553 -2.8055 -0.4673
  790MOL0     H 4238   9.105  11.949   2.361 -0.9059  1.3431  1.3236
  790MOL0     H 4239   9.212  11.960   2.496  1.6088 -0.7496  0.3492
  790MOL0     H 4240   9.239  12.158   2.397  0.7239  0.7333 -0.9360
  790MOL0     H 4241   9.238  12.093   2.236 -0.4869 -0.3276  0.6447
  790MOL0     H 4242   9.599  12.227   2.453  1.5875  2.4710  0.3320
  790MOL0     H 4243   9.724  12.404   2.321  0.0260  0.8458 -0.1219
  790MOL0     H 4244   9.907  12.649   1.895 -0.9485 -0.2065 -0.0000
  790MOL0     H 4245  10.157  12.723   1.873 -2.0552 -0.5422 -2.3167
  790MOL0     H 4246  10.381  12.798   1.881 -0.4786  1.0239  0.3379
  790MOL0     H 4247  10.422  12.638   1.863 -2.0721 -0.2348  0.5212
  790MOL0     H 4248  10.602  12.647   2.019  1.6912  0.4248 -1.2024
  790MOL0     H 4249  10.562  12.809   2.071 -1.9621 -0.6947  1.2829
  790MOL0     H 4250  10.612  12.905   1.867  4.2272  1.0639 -1.0586
  790MOL0     H 4251  10.642  12.758   1.790  4.0315  0.9750 -0.2536
  790MOL0     H 4252  10.832  12.886   1.850 -1.2303 -0.9969 -0.7399
  790MOL0     H 4253  10.822  12.857   2.022 -1.7374  2.2695  0.1049
  790MOL0     H 4254  10.857  12.639   1.801  3.8542 -1.4377 -1.1914
  790MOL0     H 4255  10.851  12.616   1.979 -0.7908  2.0723  1.1011
  790MOL0     H 4256  11.056  12.808   1.865  2.6894 -0.3112 -1.5370
  790MOL0     H 4257  11.080  12.634   1.850 -0.3495  0.4648  0.2035
  790MOL0     H 4258  11.009  12.762   2.120 -0.9389 -0.4679 -0.1059
  790MOL0     H 4259  11.038  12.589   2.085  0.8652 -0.1791 -1.2982
  790MOL0     H 4260  11.227  12.818   2.078  1.6558 -0.1591  1.0969
  790MOL0     H 4261  11.262  12.643   2.014 -1.0924 -3.0572  0.8411
  790MOL0     H 4262  10.238  12.507   2.237  2.6212  0.2647 -1.5857
  790MOL0     H 4263   9.998  12.448   2.254  1.6737 -1.3370  0.0821
  790MOL0     H 4264   9.505  12.277   1.955 -2.0618  0.5708  0.3471
  790MOL0     H 4265   9.397  12.105   2.102 -2.7256  1.4599  0.0171
  790MOL0     H 4266   9.505  10.609   3.104 -0.5583  1.2767  0.1953
  790MOL0     H 4267   9.566  10.384   3.064 -1.2334 -1.8558 -1.2445
  790MOL0     H 4268   9.677  10.079   2.723  0.9744 -0.6783  1.7285
  790MOL0     H 4269   9.750   9.891   2.570 -0.3271 -2.0158  0.9729
  790MOL0     H 4270   9.799   9.698   2.467 -2.2056  0.4787 -0.5696
  790MOL0     H 4271   9.771   9.530   2.468  3.3671  0.5995  0.4646
  790MOL0     H 4272   9.831   9.699   2.718  0.8342 -0.1282  0.8771
  790MOL0     H 4273   9.789   9.530   2.716 -1.0490  0.7141 -0.2216
  790MOL0     H 4274  10.043   9.627   2.569 -0.7381 -2.2520 -2.2014
  790MOL0     H 4275   9.983   9.465   2.571 -2.1227  2.1984 -1.9645
  790MOL0     H 4276   9.990   9.477   2.827  1.1984 -4.0830 -1.7824
  790MOL0     H 4277  10.149   9.479   2.765  0.1387  2.8791  1.7105
  790MOL0     H 4278  10.176   9.875   2.873  0.6256 -1.5112  4.1699
  790MOL0     H 4279   9.393   9.675   2.653 -0.0885 -0.1789  1.5798
  790MOL0     H 4280   9.320   9.868   2.805 -0.1705 -1.7969  0.0951
  791MOL0     O 4281   9.855   9.760   3.722 -0.7413  0.6349  0.6054
  791MOL0     C 4282   9.898   9.661   3.780  0.4711 -0.3421  0.6948
  791MOL0     O 4283   9.824   9.580   3.869  0.2063  0.0102  0.3095
  791MOL0     C 4284   9.712   9.642   3.925 -0.8789 -0.2746  0.2006
  791MOL0     C 4285   9.591   9.573   3.927 -0.0283 -0.3481  0.6187
  791MOL0     C 4286   9.470   9.645   3.962 -0.5764  0.1939  0.8889
  791MOL0     C 4287   9.477   9.780   4.002 -0.1889  1.2057 -0.6848
  791MOL0     O 4288   9.356   9.842   4.032  0.4820 -0.0598 -0.1649
  791MOL0     C 4289   9.242   9.811   3.948 -0.6482 -0.1059  0.1190
  791MOL0     C 4290   9.128   9.903   3.988 -1.0600  0.5388 -0.2622
  791MOL0     C 4291   8.993   9.853   3.943 -0.0485  1.4616  0.4740
  791MOL0     C 4292   9.005   9.806   3.792 -1.4693 -0.1651  0.3833
  791MOL0     C 4293   8.876   9.729   3.746  0.4158  0.5587 -0.6080
  791MOL0     C 4294   8.862   9.587   3.807 -0.6796 -0.4295  0.3835
  791MOL0     C 4295   8.735   9.514   3.760 -0.9746  0.4966 -0.2857
  791MOL0     C 4296   8.615   9.576   3.821  0.9286 -0.5579 -0.4177
  791MOL0     N 4297   8.610   9.618   3.967 -0.6409  1.2553 -0.2284
  791MOL0     C 4298   8.495   9.585   4.035 -0.0466 -0.2874  0.5663
  791MOL0     C 4299   8.511   9.662   4.144 -1.0282  0.2572  0.7124
  791MOL0     C 4300   8.406   9.674   4.244 -0.2804 -1.1470 -0.6986
  791MOL0     C 4301   8.436   9.748   4.372 -0.1433 -0.5665 -0.0606
  791MOL0     C 4302   8.309   9.820   4.423  0.3006 -0.6785 -0.4080
  791MOL0     C 4303   8.202   9.715   4.448  0.3069  0.4937  0.5629
  791MOL0     O 4304   8.097   9.748   4.340 -0.7604  0.4622  0.0059
  791MOL0     C 4305   7.997   9.658   4.325 -0.7825 -0.2961  0.2869
  791MOL0     C 4306   7.928   9.642   4.203  0.1382  0.2421 -0.7897
  791MOL0     C 4307   7.806   9.569   4.193 -0.0611  1.3967  0.2645
  791MOL0     C 4308   7.764   9.495   4.310 -0.3470 -0.6035 -0.1438
  791MOL0     C 4309   7.637   9.412   4.297 -0.4789  0.2190  0.0510
  791MOL0     O 4310   7.567   9.431   4.186  0.2349  1.3532 -0.6316
  791MOL0     C 4311   7.472   9.332   4.158  0.0756 -0.8672  0.0384
  791MOL0     C 4312   7.365   9.305   4.245  0.6428 -0.3082  0.1916
  791MOL0     C 4313   7.250   9.241   4.204  0.8040  1.3234  0.5972
  791MOL0     C 4314   7.239   9.200   4.072 -0.5590  1.4625 -0.8072
  791MOL0     O 4315   7.118   9.142   4.043  0.2261  0.4683 -0.1205
  791MOL0     C 4316   7.124   9.017   3.964  0.0249 -0.5839  0.4728
  791MOL0     C 4317   7.220   8.912   4.023  0.3609  0.7816  0.0720
  791MOL0     C 4318   7.208   8.876   4.173 -0.4221  0.2087  1.0708
  791MOL0     C 4319   7.278   8.746   4.214 -0.2601 -0.8134 -0.1469
  791MOL0     C 4320   7.244   8.745   4.372  0.0372  1.4408  0.2054
  791MOL0     C 4321   7.099   8.704   4.425 -1.0131 -1.1790 -0.2973
  791MOL0     C 4322   7.077   8.695   4.581 -0.7042  1.0624  0.1569
  791MOL0     C 4323   7.160   8.594   4.664  0.5781 -0.2143 -0.2053
  791MOL0    Cl 4324   7.101   8.425   4.634 -0.1927 -0.0265 -0.1520
  791MOL0     C 4325   7.349   9.221   3.984 -0.8784  0.3955  0.0242
  791MOL0     C 4326   7.461   9.283   4.023 -0.4426 -0.6353 -0.8292
  791MOL0     O 4327   7.607   9.323   4.384 -0.9680  0.4046 -0.7122
  791MOL0     C 4328   7.838   9.506   4.425 -0.0065 -0.0055 -0.4882
  791MOL0     C 4329   7.956   9.580   4.431 -1.0324 -1.3998 -0.7645
  791MOL0     N 4330   8.634   9.725   4.143  0.1911  0.8128 -1.0718
  791MOL0     N 4331   8.693   9.693   4.039 -0.0426 -0.3401  0.7116
  791MOL0     C 4332   9.594   9.844   4.012 -0.4965  0.9677 -0.8183
  791MOL0     C 4333   9.713   9.778   3.971  0.1950 -0.1213 -0.4537
  791MOL0     C 4334  10.033   9.621   3.733 -0.0306  0.9762 -0.6402
  791MOL0     C 4335  10.145   9.706   3.707 -0.1886  0.2785 -0.3318
  791MOL0     C 4336  10.259   9.651   3.670 -0.9216 -0.1973 -0.0899
  791MOL0     C 4337  10.283   9.517   3.633 -0.0458 -0.3978  0.8284
  791MOL0     O 4338  10.403   9.467   3.588  0.1370 -0.4855 -1.2036
  791MOL0     C 4339  10.522   9.556   3.568 -0.1010 -0.0494  0.4931
  791MOL0     C 4340  10.632   9.479   3.510  0.8231 -0.0971 -0.1115
  791MOL0     C 4341  10.606   9.418   3.373  1.0884  0.7869  0.1585
  791MOL0     C 4342  10.711   9.332   3.310 -0.2928 -0.9590  0.2518
  791MOL0     C 4343  10.731   9.205   3.381  0.6837 -0.2857  0.5198
  791MOL0     C 4344  10.762   9.099   3.427 -0.0413 -0.5303  1.2914
  791MOL0     C 4345  10.164   9.438   3.643 -0.0007  0.0437  0.4016
  791MOL0     C 4346  10.043   9.489   3.696  0.0056  0.2993  0.0219
  791MOL0     H 4347   9.582   9.475   3.881  0.0696  0.3604 -0.9944
  791MOL0     H 4348   9.380   9.586   3.948  0.4688 -1.3846  0.4875
  791MOL0     H 4349   9.205   9.708   3.959  2.0140 -0.9953  2.0317
  791MOL0     H 4350   9.273   9.825   3.845  1.1033 -3.4401  0.0431
  791MOL0     H 4351   9.160  10.002   3.954 -0.2791  1.0890  1.9327
  791MOL0     H 4352   9.136   9.905   4.097  2.1859 -0.4116 -0.3990
  791MOL0     H 4353   8.924   9.937   3.949 -1.1162  0.6155  0.2794
  791MOL0     H 4354   8.956   9.769   4.002  0.3101  0.9692  0.0105
  791MOL0     H 4355   9.022   9.893   3.728 -2.3012  0.5492  1.1178
  791MOL0     H 4356   9.093   9.748   3.764 -0.9800  1.3377 -1.3975
  791MOL0     H 4357   8.881   9.728   3.636 -0.1791  0.6525 -0.6357
  791MOL0     H 4358   8.788   9.788   3.772 -0.0028  1.0376 -2.8599
  791MOL0     H 4359   8.875   9.585   3.916 -0.6071  0.4983  0.3974
  791MOL0     H 4360   8.945   9.522   3.779  0.1701 -0.7456  3.2499
  791MOL0     H 4361   8.719   9.503   3.652 -2.6187  0.6768 -0.0864
  791MOL0     H 4362   8.748   9.410   3.791 -2.8669 -0.7558 -3.2607
  791MOL0     H 4363   8.525   9.516   3.804 -0.1678 -0.3014  3.4523
  791MOL0     H 4364   8.593   9.669   3.769 -2.5638 -0.6960  0.5397
  791MOL0     H 4365   8.405   9.527   4.015 -2.7860  2.9989  2.3371
  791MOL0     H 4366   8.363   9.584   4.289 -1.8754 -0.7460 -1.3590
  791MOL0     H 4367   8.325   9.729   4.196  0.3841 -0.0191 -0.5688
  791MOL0     H 4368   8.500   9.834   4.350  0.1725 -0.2272  1.9444
  791MOL0     H 4369   8.482   9.680   4.445 -2.3077 -2.4267 -0.3132
  791MOL0     H 4370   8.332   9.869   4.519  0.3535  1.3456 -1.3918
  791MOL0     H 4371   8.296   9.906   4.356  2.0008 -0.0093  0.0507
  791MOL0     H 4372   8.154   9.725   4.546  2.1897 -0.2380  1.6116
  791MOL0     H 4373   8.241   9.614   4.437  0.5252  0.8970 -4.7870
  791MOL0     H 4374   7.960   9.706   4.121 -0.2939 -0.6635 -1.6993
  791MOL0     H 4375   7.742   9.567   4.105 -0.3216 -4.0298  0.2668
  791MOL0     H 4376   7.370   9.366   4.335  2.1113 -1.3323  0.8527
  791MOL0     H 4377   7.167   9.223   4.272 -2.5504  3.4889 -2.4914
  791MOL0     H 4378   7.139   9.049   3.861  0.0144 -0.8228  0.3975
  791MOL0     H 4379   7.020   8.982   3.955 -0.6585  1.2287  0.8900
  791MOL0     H 4380   7.317   8.962   4.015  0.8173  0.0231  0.6628
  791MOL0     H 4381   7.203   8.814   3.978  1.3054  1.0943 -0.9930
  791MOL0     H 4382   7.101   8.877   4.193 -1.1374  4.0678 -1.6446
  791MOL0     H 4383   7.258   8.956   4.228  0.8983  0.0576  0.1379
  791MOL0     H 4384   7.231   8.666   4.156 -3.3555 -0.1475  1.2735
  791MOL0     H 4385   7.387   8.740   4.200  0.1726 -0.3873  2.5149
  791MOL0     H 4386   7.284   8.827   4.432  1.2849  0.2524  1.0680
  791MOL0     H 4387   7.314   8.665   4.399 -1.4816 -0.0072  0.0160
  791MOL0     H 4388   7.083   8.603   4.386  0.2382 -1.2040 -0.7929
  791MOL0     H 4389   7.020   8.765   4.379  0.4015  0.3852 -0.7523
  791MOL0     H 4390   7.101   8.796   4.617 -1.5828  1.8397 -1.3334
  791MOL0     H 4391   6.969   8.681   4.591 -0.7915  2.1304  0.9859
  791MOL0     H 4392   7.142   8.631   4.765 -1.4966  0.6957 -0.8516
  791MOL0     H 4393   7.267   8.598   4.639  1.4393 -2.6342  2.5096
  791MOL0     H 4394   7.350   9.186   3.882  1.1590 -3.2774  1.1500
  791MOL0     H 4395   7.539   9.291   3.947 -0.5302 -4.1657 -1.4783
  791MOL0     H 4396   7.797   9.453   4.511  0.1727  1.9025  0.8376
  791MOL0     H 4397   7.996   9.595   4.531 -1.1098 -0.8659 -0.8080
  791MOL0     H 4398   9.592   9.945   4.054 -1.0871 -0.3523  2.6797
  791MOL0     H 4399   9.816   9.809   3.961 -0.1516  0.3420 -3.8966
  791MOL0     H 4400  10.139   9.812   3.728 -0.8747  0.0798  0.5112
  791MOL0     H 4401  10.344   9.720   3.669 -1.1742  0.2380  2.3494
  791MOL0     H 4402  10.547   9.618   3.655 -1.6471  0.9942  0.2316
  791MOL0     H 4403  10.495   9.627   3.489 -0.1456  0.3786  0.8917
  791MOL0     H 4404  10.715   9.549   3.496 -0.1982  0.7701 -2.2985
  791MOL0     H 4405  10.667   9.406   3.583  0.2385 -2.4068 -2.0082
  791MOL0     H 4406  10.593   9.504   3.306  3.2397 -0.1210 -1.5367
  791MOL0     H 4407  10.507   9.370   3.369 -0.1408  3.2150 -0.7214
  791MOL0     H 4408  10.681   9.296   3.211 -0.6134  0.6676 -0.2698
  791MOL0     H 4409  10.808   9.381   3.307 -0.4975 -0.5899 -1.3912
  791MOL0     H 4410  10.791   9.002   3.462 -4.4971 -3.4102 -1.8432
  791MOL0     H 4411  10.169   9.336   3.607  1.3980  1.4630 -4.0535
  791MOL0     H 4412   9.965   9.414   3.706  1.9063 -2.1514 -2.1113
  792MOL0     O 4413   3.901   4.527   2.389  0.1930  0.6507 -0.6663
  792MOL0     C 4414   3.885   4.630   2.326  0.1384 -0.8253  0.3496
  792MOL0     O 4415   3.958   4.665   2.214 -0.1819 -0.7912 -0.4810
  792MOL0     C 4416   4.064   4.581   2.191  0.6911  1.0795  0.6775
  792MOL0     C 4417   4.061   4.485   2.089  0.8199  0.6202  0.3126
  792MOL0     C 4418   4.161   4.388   2.071 -0.3593 -0.0625  0.3461
  792MOL0     C 4419   4.273   4.401   2.153 -0.0660  0.7624 -0.3288
  792MOL0     O 4420   4.378   4.314   2.151 -1.4032  0.3986  0.1497
  792MOL0     C 4421   4.352   4.188   2.081 -0.2769  0.0142  0.3378
  792MOL0     C 4422   4.476   4.100   2.113 -0.7050 -0.5321 -0.5638
  792MOL0     C 4423   4.598   4.135   2.038  0.2962  0.8363 -0.5620
  792MOL0     C 4424   4.714   4.034   2.060 -0.8612  0.3060  0.2869
  792MOL0     C 4425   4.843   4.088   1.996  0.4819  0.1539  0.4123
  792MOL0     C 4426   4.850   4.037   1.842 -0.2352  0.8306 -0.3029
  792MOL0     C 4427   4.992   4.029   1.785 -0.3802 -0.3007 -0.4464
  792MOL0     C 4428   5.079   3.930   1.855  0.0596 -0.2191 -0.5651
  792MOL0     N 4429   5.013   3.799   1.862  0.6806  0.9947 -0.4232
  792MOL0     C 4430   4.965   3.720   1.770  0.6647  0.5038 -0.3944
  792MOL0     C 4431   4.934   3.593   1.824  0.5784  0.8313  0.5055
  792MOL0     C 4432   4.898   3.464   1.762 -0.7335  0.5520  0.5505
  792MOL0     C 4433   4.748   3.451   1.765  0.6810 -1.1781  0.0615
  792MOL0     C 4434   4.679   3.440   1.901  0.8610 -0.1470 -0.8509
  792MOL0     C 4435   4.697   3.308   1.983 -1.0250  0.5240 -0.4361
  792MOL0     O 4436   4.611   3.300   2.099 -1.0551  1.1980  0.3368
  792MOL0     C 4437   4.678   3.319   2.212 -0.5658  0.0125  0.8620
  792MOL0     C 4438   4.732   3.435   2.254  0.0788 -0.8292  0.9309
  792MOL0     C 4439   4.798   3.440   2.383  0.4566 -0.7533 -0.4996
  792MOL0     C 4440   4.813   3.327   2.465 -0.0852 -0.1377  0.0122
  792MOL0     C 4441   4.876   3.340   2.595 -1.2510 -1.0515 -0.6194
  792MOL0     O 4442   4.878   3.235   2.677 -0.6117  0.5263  0.5976
  792MOL0     C 4443   4.916   3.231   2.810  0.1320  0.6699  0.7125
  792MOL0     C 4444   4.901   3.343   2.899  0.4867  0.7391 -0.2943
  792MOL0     C 4445   4.902   3.328   3.037 -0.1131  0.1781 -0.9815
  792MOL0     C 4446   4.923   3.196   3.090 -0.1886 -0.4228  0.0936
  792MOL0     O 4447   4.901   3.176   3.225 -0.0328  0.0529  0.2771
  792MOL0     C 4448   4.939   3.284   3.308  1.0736 -0.8341  0.3337
  792MOL0     C 4449   4.946   3.219   3.448 -0.2180  0.3854  0.4137
  792MOL0     C 4450   4.808   3.201   3.499 -0.5136 -1.0416 -0.2985
  792MOL0     C 4451   4.815   3.135   3.630 -0.9518  0.2641 -0.3573
  792MOL0     C 4452   4.675   3.139   3.695  0.5113  0.5431 -0.3285
  792MOL0     C 4453   4.680   3.049   3.818  0.1985 -0.0687  0.7284
  792MOL0     C 4454   4.743   3.113   3.939 -0.6032  0.7476  0.6457
  792MOL0     C 4455   4.784   2.997   4.043 -0.6583 -1.1666  0.4929
  792MOL0    Cl 4456   4.639   2.920   4.117 -0.2534 -0.1335  0.2816
  792MOL0     C 4457   4.941   3.084   3.002 -0.1772 -0.2355 -0.6388
  792MOL0     C 4458   4.944   3.101   2.866  0.4037 -0.4034 -0.7886
  792MOL0     O 4459   4.931   3.450   2.618 -0.1525 -0.6871 -0.6154
  792MOL0     C 4460   4.761   3.200   2.407  0.3184  0.3160 -0.8538
  792MOL0     C 4461   4.689   3.206   2.287 -0.8746  0.2764 -0.4858
  792MOL0     N 4462   4.963   3.601   1.960 -0.5429  0.3334  0.6404
  792MOL0     N 4463   4.997   3.724   1.982  0.1795 -0.3630  0.6199
  792MOL0     C 4464   4.285   4.495   2.249 -0.4515  0.9772  0.0447
  792MOL0     C 4465   4.175   4.583   2.271 -0.3118  0.1938 -0.6280
  792MOL0     C 4466   3.752   4.697   2.356 -0.2990  0.5449 -0.6974
  792MOL0     C 4467   3.659   4.652   2.454  0.2807  0.1773 -0.2344
  792MOL0     C 4468   3.536   4.716   2.470  0.2382  1.3629  0.3436
  792MOL0     C 4469   3.497   4.807   2.375  0.8711  0.2983  1.4662
  792MOL0     O 4470   3.374   4.876   2.391  0.2166  0.2494  0.3418
  792MOL0     C 4471   3.256   4.831   2.318  0.0915 -0.0270  0.2803
  792MOL0     C 4472   3.186   4.962   2.275 -0.7828  0.6424 -0.1683
  792MOL0     C 4473   3.161   5.066   2.387  0.5714 -0.5026  0.4997
  792MOL0     C 4474   3.108   5.194   2.329  0.8364 -0.5738  0.0073
  792MOL0     C 4475   2.972   5.182   2.276 -0.3921 -0.8226 -0.6226
  792MOL0     C 4476   2.850   5.157   2.249 -0.5758  0.1749 -0.1475
  792MOL0     C 4477   3.581   4.844   2.263 -0.2167 -0.3152  0.1627
  792MOL0     C 4478   3.709   4.793   2.262  0.9424 -0.0887  0.2216
  792MOL0     H 4479   3.975   4.479   2.023  1.2231  3.9805 -0.7113
  792MOL0     H 4480   4.155   4.312   1.993 -3.0627  1.7607 -1.4261
  792MOL0     H 4481   4.344   4.214   1.975  2.8947  3.1209  0.6730
  792MOL0     H 4482   4.263   4.139   2.123 -2.7269  3.7543 -0.0537
  792MOL0     H 4483   4.455   3.998   2.080  0.6750 -1.2198  0.5878
  792MOL0     H 4484   4.480   4.109   2.222 -3.0908 -2.5364 -0.2265
  792MOL0     H 4485   4.633   4.232   2.076  1.1190  0.5331 -0.5303
  792MOL0     H 4486   4.576   4.130   1.931  1.0623 -1.0228 -0.6690
  792MOL0     H 4487   4.746   4.037   2.165  0.3521  0.8665 -0.0731
  792MOL0     H 4488   4.691   3.932   2.029  1.7238 -0.8333  1.7617
  792MOL0     H 4489   4.920   4.044   2.061 -0.2400  0.6000  1.6093
  792MOL0     H 4490   4.875   4.191   2.015  0.8857  0.7054 -2.7494
  792MOL0     H 4491   4.786   4.111   1.792 -2.4727 -1.2887 -0.7642
  792MOL0     H 4492   4.802   3.944   1.811  1.5497  0.4844 -2.2662
  792MOL0     H 4493   5.003   4.018   1.677  2.1916  3.5967 -0.7556
  792MOL0     H 4494   5.025   4.132   1.796 -0.1615 -0.3462 -0.6564
  792MOL0     H 4495   5.100   3.961   1.958  1.2405 -3.1416  0.1687
  792MOL0     H 4496   5.176   3.908   1.808 -0.7802  1.3963 -3.2886
  792MOL0     H 4497   4.949   3.742   1.665 -2.4397 -4.1837 -1.2137
  792MOL0     H 4498   4.943   3.385   1.823  3.1221  2.4293  0.4632
  792MOL0     H 4499   4.947   3.452   1.665  1.2598 -0.6231  1.6453
  792MOL0     H 4500   4.724   3.364   1.703  0.0622 -0.8110 -0.2174
  792MOL0     H 4501   4.703   3.535   1.712  1.9600  0.7353  1.8580
  792MOL0     H 4502   4.707   3.526   1.962 -0.2518  0.1997 -0.8196
  792MOL0     H 4503   4.571   3.451   1.893  0.9780  0.0177 -2.8373
  792MOL0     H 4504   4.800   3.294   2.017 -2.0833 -1.0392  2.4398
  792MOL0     H 4505   4.668   3.228   1.915 -3.5324  0.3544  0.7296
  792MOL0     H 4506   4.736   3.520   2.187  0.6536 -0.0387  1.9317
  792MOL0     H 4507   4.838   3.532   2.424  0.1840 -1.2958  1.0293
  792MOL0     H 4508   4.876   3.442   2.861  1.8947  1.0456 -0.4787
  792MOL0     H 4509   4.897   3.422   3.091 -0.7133  1.4232 -3.1149
  792MOL0     H 4510   4.864   3.364   3.310 -1.3579 -3.0023  0.4727
  792MOL0     H 4511   5.032   3.319   3.262 -1.8194  1.6433 -4.4358
  792MOL0     H 4512   5.004   3.272   3.524 -2.5545 -0.3120  2.8557
  792MOL0     H 4513   4.983   3.118   3.430 -2.6513 -0.6156  0.6136
  792MOL0     H 4514   4.755   3.138   3.427 -2.8777  0.6018 -0.1138
  792MOL0     H 4515   4.757   3.297   3.504 -0.4589 -1.0822  1.5492
  792MOL0     H 4516   4.849   3.033   3.613 -2.5736 -0.2794 -0.5785
  792MOL0     H 4517   4.890   3.184   3.693 -2.4247  0.4352  1.3727
  792MOL0     H 4518   4.599   3.106   3.624  0.2190  0.4258  0.0361
  792MOL0     H 4519   4.643   3.242   3.712 -1.9752  0.0082 -1.3711
  792MOL0     H 4520   4.726   2.953   3.794 -2.7460 -1.6190  0.7798
  792MOL0     H 4521   4.578   3.026   3.852 -1.0090  1.5026 -1.5486
  792MOL0     H 4522   4.840   3.158   3.913 -0.8847 -0.8810 -4.3942
  792MOL0     H 4523   4.676   3.192   3.975 -4.3329 -0.9148 -2.0035
  792MOL0     H 4524   4.841   3.034   4.129 -2.2929 -1.0812  1.5938
  792MOL0     H 4525   4.838   2.919   3.989 -2.7963 -1.0084 -2.0404
  792MOL0     H 4526   4.946   2.985   3.045 -3.7835 -0.5649 -0.6621
  792MOL0     H 4527   4.967   3.021   2.798 -0.9209 -1.5490  0.0522
  792MOL0     H 4528   4.757   3.107   2.463 -2.6140 -0.8837 -2.8117
  792MOL0     H 4529   4.655   3.112   2.244  1.7681 -2.4316  2.8064
  792MOL0     H 4530   4.373   4.496   2.311  0.6145 -2.2222 -1.2395
  792MOL0     H 4531   4.183   4.663   2.344 -1.8343 -1.6602  1.6943
  792MOL0     H 4532   3.669   4.566   2.519 -1.0738 -1.6280 -2.2858
  792MOL0     H 4533   3.475   4.693   2.557  2.4210 -4.2315  0.7962
  792MOL0     H 4534   3.187   4.774   2.380 -1.4533  1.5112  0.0744
  792MOL0     H 4535   3.297   4.768   2.239  0.7892 -1.5038  1.7434
  792MOL0     H 4536   3.230   5.004   2.184 -0.7389 -0.4934 -0.6807
  792MOL0     H 4537   3.087   4.932   2.239 -1.4093  2.2198  0.1279
  792MOL0     H 4538   3.254   5.092   2.440  0.0086  0.8184  0.8698
  792MOL0     H 4539   3.092   5.029   2.463 -2.0820 -1.4852 -2.1917
  792MOL0     H 4540   3.095   5.267   2.410 -1.2542 -1.4020  0.4766
  792MOL0     H 4541   3.175   5.233   2.252 -0.0700 -0.3687 -0.6980
  792MOL0     H 4542   2.747   5.153   2.220 -0.3282 -1.0869 -0.9385
  792MOL0     H 4543   3.547   4.905   2.181  0.6299  1.0288  0.7795
  792MOL0     H 4544   3.779   4.812   2.181 -1.1641 -0.3803 -1.8045
  793MOL0     O 4545  10.401   3.246  10.397 -0.5712 -0.4854  0.2780
  793MOL0     C 4546  10.431   3.268  10.280  0.1949  0.2376 -0.1911
  793MOL0     O 4547  10.551   3.325  10.235  0.0759 -0.5883  0.9097
  793MOL0     C 4548  10.638   3.383  10.322 -0.3427 -0.2919  0.5418
  793MOL0     C 4549  10.772   3.374  10.286 -0.3731 -0.3088  0.3091
  793MOL0     C 4550  10.864   3.429  10.376 -0.1013 -0.6320 -0.2506
  793MOL0     C 4551  10.830   3.478  10.501  0.8779 -0.0951 -0.8308
  793MOL0     O 4552  10.916   3.496  10.603 -0.5241  0.3946  0.1210
  793MOL0     C 4553  10.995   3.377  10.631 -0.4079 -0.9655  0.7403
  793MOL0     C 4554  11.038   3.381  10.771  0.6555 -0.9583 -0.2662
  793MOL0     C 4555  11.108   3.516  10.810  0.4322 -0.3884  0.1926
  793MOL0     C 4556  11.185   3.491  10.944 -0.2255  0.0842 -0.7121
  793MOL0     C 4557  11.213   3.622  11.005  0.5302  0.1234  0.1690
  793MOL0     C 4558  11.342   3.692  10.941 -0.2642  0.3727  0.2226
  793MOL0     C 4559  11.374   3.815  11.022  1.1256  0.3165 -0.0447
  793MOL0     C 4560  11.454   3.790  11.154 -0.1326  0.1055 -1.3491
  793MOL0     N 4561  11.591   3.738  11.146  0.2232 -0.4431 -0.2245
  793MOL0     C 4562  11.672   3.701  11.254  0.4997 -0.0481  0.4502
  793MOL0     C 4563  11.794   3.678  11.205  0.3094  0.0866 -0.1455
  793MOL0     C 4564  11.914   3.638  11.289  0.4199  0.1557  0.2864
  793MOL0     C 4565  11.916   3.487  11.326 -0.1251 -0.2274  0.4657
  793MOL0     C 4566  11.896   3.408  11.195  0.3336  0.4437 -0.4161
  793MOL0     C 4567  11.923   3.258  11.224 -0.9159 -0.0633 -0.9122
  793MOL0     O 4568  11.815   3.214  11.311 -0.5273 -0.6356  0.3756
  793MOL0     C 4569  11.824   3.096  11.380  0.2677 -0.1748 -0.2468
  793MOL0     C 4570  11.926   3.000  11.356  0.1183  0.2721  0.1689
  793MOL0     C 4571  11.945   2.877  11.422  0.8325 -1.1656  0.4877
  793MOL0     C 4572  11.860   2.864  11.538  0.8746  0.0156 -0.0797
  793MOL0     C 4573  11.875   2.739  11.617 -0.2756 -0.5745 -0.2992
  793MOL0     O 4574  11.986   2.669  11.612  0.5525 -0.6130 -0.7761
  793MOL0     C 4575  11.984   2.550  11.682  0.0018 -0.1310 -0.7036
  793MOL0     C 4576  11.931   2.440  11.611 -0.0620  1.1215  0.2330
  793MOL0     C 4577  11.939   2.305  11.661  0.5171 -0.3863 -0.2162
  793MOL0     C 4578  12.009   2.279  11.776  0.0383 -0.2177 -0.1745
  793MOL0     O 4579  12.028   2.160  11.839  0.1829  0.3527  0.3809
  793MOL0     C 4580  12.148   2.087  11.801 -0.3703  0.2801  0.0034
  793MOL0     C 4581  12.192   2.016  11.924  0.5952 -0.3799  0.7693
  793MOL0     C 4582  12.325   1.944  11.912  0.2939 -1.0656  0.1074
  793MOL0     C 4583  12.358   1.859  12.042  0.0375 -0.1932 -0.2432
  793MOL0     C 4584  12.496   1.794  12.059 -0.9231 -0.6029  1.2935
  793MOL0     C 4585  12.553   1.726  11.926  0.4677 -0.2692 -0.6515
  793MOL0     C 4586  12.687   1.651  11.938  0.2515 -0.7456  0.0327
  793MOL0     C 4587  12.737   1.619  11.797  0.0956 -0.5875 -1.1625
  793MOL0    Cl 4588  12.612   1.535  11.691  0.1719 -0.3088  0.1625
  793MOL0     C 4589  12.077   2.386  11.839  0.7050  0.1088  0.1538
  793MOL0     C 4590  12.056   2.525  11.799 -0.6942  0.3968 -0.9083
  793MOL0     O 4591  11.767   2.699  11.676 -0.2000 -0.2896 -0.5307
  793MOL0     C 4592  11.754   2.955  11.562 -0.3677 -0.5510 -0.0594
  793MOL0     C 4593  11.747   3.077  11.491  1.5757 -0.2185 -0.2974
  793MOL0     N 4594  11.784   3.687  11.070  0.8845  0.3177 -0.0554
  793MOL0     N 4595  11.660   3.718  11.031  0.2989  0.4105  0.8456
  793MOL0     C 4596  10.696   3.498  10.526  0.1067  0.4581  0.5379
  793MOL0     C 4597  10.602   3.463  10.433  0.2267 -0.3635 -0.6754
  793MOL0     C 4598  10.329   3.228  10.180  0.2514 -0.3628 -0.2662
  793MOL0     C 4599  10.221   3.140  10.198 -0.4905 -0.6296 -0.0405
  793MOL0     C 4600  10.129   3.120  10.097  0.5356 -0.1345 -1.2894
  793MOL0     C 4601  10.127   3.197   9.984  0.0755  0.2436  0.2119
  793MOL0     O 4602  10.026   3.190   9.889 -0.0442 -0.3743 -0.2578
  793MOL0     C 4603   9.945   3.307   9.889  0.7884 -0.6849 -0.6788
  793MOL0     C 4604   9.841   3.312   9.995  1.9766  0.6016  0.5651
  793MOL0     C 4605   9.738   3.191   9.985 -0.3502 -0.0374 -0.7909
  793MOL0     C 4606   9.624   3.197  10.088  1.1194 -1.0885  0.1255
  793MOL0     C 4607   9.544   3.317  10.071 -0.1640  0.6442  0.1451
  793MOL0     C 4608   9.468   3.405  10.051 -0.1196  0.9572  0.7131
  793MOL0     C 4609  10.240   3.268   9.956 -0.6598  0.1198  0.0034
  793MOL0     C 4610  10.338   3.288  10.054 -1.9142 -0.1995 -0.1117
  793MOL0     H 4611  10.812   3.313  10.205 -0.6625 -0.1633  0.0556
  793MOL0     H 4612  10.970   3.409  10.359 -0.5926 -3.4695 -0.3658
  793MOL0     H 4613  11.086   3.386  10.572 -0.8924 -2.8617 -0.3730
  793MOL0     H 4614  10.953   3.278  10.608  0.5637 -0.6844 -2.6603
  793MOL0     H 4615  11.098   3.293  10.795  2.1372  0.0392 -0.1870
  793MOL0     H 4616  10.943   3.374  10.825  1.2443  3.2174  1.6808
  793MOL0     H 4617  11.029   3.590  10.820  0.3124  0.5170 -5.0667
  793MOL0     H 4618  11.173   3.555  10.732 -1.1396  1.1194 -0.4178
  793MOL0     H 4619  11.121   3.443  11.019  0.7659  3.1313  2.3265
  793MOL0     H 4620  11.274   3.434  10.916  1.3307  1.3041  1.4103
  793MOL0     H 4621  11.224   3.620  11.114 -3.7536 -5.2008  0.9102
  793MOL0     H 4622  11.120   3.679  10.997 -0.7377 -1.5005  2.2917
  793MOL0     H 4623  11.317   3.732  10.842 -0.6280  1.9036  0.9017
  793MOL0     H 4624  11.425   3.621  10.937 -0.9521 -0.7111  3.0122
  793MOL0     H 4625  11.429   3.874  10.949  3.8362  1.3671  2.6446
  793MOL0     H 4626  11.292   3.877  11.060  1.0004 -0.0526  0.3037
  793MOL0     H 4627  11.394   3.732  11.225  0.3017  1.2368 -0.0345
  793MOL0     H 4628  11.454   3.891  11.194 -3.5620 -0.0875 -0.5866
  793MOL0     H 4629  11.638   3.704  11.357 -0.7776 -1.0537  0.0816
  793MOL0     H 4630  11.893   3.700  11.377 -1.5174  1.4604 -1.0082
  793MOL0     H 4631  12.009   3.679  11.255  0.2483 -0.7449 -1.3813
  793MOL0     H 4632  11.829   3.462  11.388  1.1984 -3.2508  1.3097
  793MOL0     H 4633  12.012   3.471  11.376 -1.1015 -1.4032  2.0775
  793MOL0     H 4634  11.794   3.421  11.156  0.2270 -1.0788 -0.7238
  793MOL0     H 4635  11.959   3.451  11.116  0.8522 -2.1159 -1.4998
  793MOL0     H 4636  12.025   3.242  11.260 -1.4461  0.3507  0.8932
  793MOL0     H 4637  11.923   3.202  11.130  1.6746  1.1265 -1.7007
  793MOL0     H 4638  11.988   3.017  11.269  0.0213 -2.4601 -0.5243
  793MOL0     H 4639  12.018   2.803  11.390 -1.6012 -3.9087  0.8809
  793MOL0     H 4640  11.885   2.480  11.521  1.2290  1.1183 -0.4545
  793MOL0     H 4641  11.894   2.231  11.596 -3.5096  1.8072 -0.2876
  793MOL0     H 4642  12.234   2.152  11.782  1.4411 -1.8745  0.2991
  793MOL0     H 4643  12.124   2.032  11.710 -0.3608  2.6239 -1.5026
  793MOL0     H 4644  12.114   1.945  11.954 -1.6456 -0.6641 -4.6478
  793MOL0     H 4645  12.194   2.085  12.009 -1.9601  0.3313  0.3350
  793MOL0     H 4646  12.396   2.025  11.896 -2.0396  0.5127 -4.0052
  793MOL0     H 4647  12.339   1.876  11.827  0.5736  0.0991 -0.8083
  793MOL0     H 4648  12.338   1.916  12.134  0.3411  1.1008 -0.9576
  793MOL0     H 4649  12.288   1.775  12.048 -2.2917  1.7232  1.9481
  793MOL0     H 4650  12.491   1.708  12.126 -0.6807 -0.3055  1.7006
  793MOL0     H 4651  12.566   1.874  12.087 -2.7077  1.3983  0.3317
  793MOL0     H 4652  12.558   1.805  11.850 -0.4127  3.0543  2.4775
  793MOL0     H 4653  12.475   1.659  11.889 -0.9263 -0.0553  1.7146
  793MOL0     H 4654  12.754   1.723  11.986 -1.4637  0.7963  0.2213
  793MOL0     H 4655  12.673   1.562  12.000 -0.0184 -1.3776 -0.9203
  793MOL0     H 4656  12.828   1.560  11.810  0.4083  0.0028 -0.6533
  793MOL0     H 4657  12.781   1.699  11.738  1.3599 -2.4688 -2.9171
  793MOL0     H 4658  12.140   2.360  11.924 -0.1144 -3.4749 -0.1563
  793MOL0     H 4659  12.107   2.610  11.843 -1.4767  0.4525 -0.0826
  793MOL0     H 4660  11.696   2.948  11.654  1.8859  1.8351  1.6695
  793MOL0     H 4661  11.659   3.133  11.519 -0.8072 -4.5629  1.8954
  793MOL0     H 4662  10.641   3.538  10.611 -0.2923  1.6731 -0.2555
  793MOL0     H 4663  10.495   3.479  10.446  0.6827  0.2222  3.6304
  793MOL0     H 4664  10.207   3.103  10.299  0.0959  0.8956  0.6338
  793MOL0     H 4665  10.034   3.072  10.118  0.6575 -1.2837 -3.1846
  793MOL0     H 4666   9.898   3.305   9.790 -1.5613 -0.1623  0.3730
  793MOL0     H 4667  10.006   3.397   9.896  0.1427 -0.2456 -0.6484
  793MOL0     H 4668   9.882   3.322  10.096  2.0177  2.4280  0.4084
  793MOL0     H 4669   9.792   3.409   9.980  1.6624  0.1336 -1.8735
  793MOL0     H 4670   9.796   3.103  10.015 -0.4767  0.7208  1.8917
  793MOL0     H 4671   9.680   3.185   9.892 -0.2531 -3.2790 -0.7522
  793MOL0     H 4672   9.553   3.114  10.082 -1.6411  1.2152 -1.8991
  793MOL0     H 4673   9.686   3.209  10.178  2.3303  1.1733 -0.9177
  793MOL0     H 4674   9.395   3.478  10.024 -0.7785 -0.1949 -0.7820
  793MOL0     H 4675  10.263   3.322   9.865  0.7022  2.1984  1.4795
  793MOL0     H 4676  10.419   3.353  10.025 -2.0405  0.3469  0.7227
  794MOL0     O 4677  11.237   1.726   1.394 -0.1289  0.1385 -0.0737
  794MOL0     C 4678  11.284   1.842   1.376  0.5484 -0.3755 -0.0849
  794MOL0     O 4679  11.204   1.949   1.349  0.0702 -0.3870  0.8734
  794MOL0     C 4680  11.076   1.931   1.296  0.5328  0.7406  0.0806
  794MOL0     C 4681  10.968   2.003   1.341  0.3385  1.0184 -0.2107
  794MOL0     C 4682  10.845   1.992   1.277  0.4237 -0.1377 -0.7139
  794MOL0     C 4683  10.812   1.889   1.190 -0.3554  0.7427  0.4272
  794MOL0     O 4684  10.687   1.879   1.143  0.6534 -0.3514 -0.7007
  794MOL0     C 4685  10.579   1.941   1.214 -0.2288 -0.5981 -0.5466
  794MOL0     C 4686  10.456   1.854   1.199  0.8785 -0.0696  0.2307
  794MOL0     C 4687  10.439   1.716   1.261 -0.5869 -0.3152  0.3613
  794MOL0     C 4688  10.323   1.626   1.200 -0.5340  0.1139  0.2142
  794MOL0     C 4689  10.283   1.494   1.266 -0.1572 -0.2425  0.3577
  794MOL0     C 4690  10.248   1.498   1.417 -0.5194 -1.1130 -0.6541
  794MOL0     C 4691  10.173   1.377   1.474 -0.2171  0.3703  1.1114
  794MOL0     C 4692  10.194   1.342   1.620 -1.0752  0.7534  0.0792
  794MOL0     N 4693  10.175   1.453   1.718  0.2848 -0.0740  1.5751
  794MOL0     C 4694  10.043   1.481   1.767  0.1426 -0.2562 -0.9510
  794MOL0     C 4695  10.067   1.565   1.871 -0.0303  0.3640  0.4816
  794MOL0     C 4696   9.963   1.626   1.962  0.2640  0.4598  0.5873
  794MOL0     C 4697   9.890   1.550   2.069  0.5150  0.1836 -0.0312
  794MOL0     C 4698   9.984   1.483   2.179 -0.6988 -0.6114 -0.0625
  794MOL0     C 4699   9.898   1.384   2.257 -0.7100  1.0408  0.9334
  794MOL0     O 4700   9.853   1.455   2.374 -0.3490 -0.5360 -0.6772
  794MOL0     C 4701   9.836   1.381   2.496  0.1303 -0.3659  0.9703
  794MOL0     C 4702   9.832   1.447   2.619  0.1705  0.0357  1.1595
  794MOL0     C 4703   9.821   1.371   2.736  0.4859  0.9681  1.0230
  794MOL0     C 4704   9.825   1.230   2.734 -0.1281 -0.3786  0.1258
  794MOL0     C 4705   9.829   1.151   2.857 -0.9687  0.7270  0.4372
  794MOL0     O 4706   9.911   1.215   2.948 -0.2991  0.1905  0.4858
  794MOL0     C 4707   9.898   1.189   3.085 -0.4884  0.5413 -0.8098
  794MOL0     C 4708   9.942   1.069   3.142  0.3684  0.1620 -0.1053
  794MOL0     C 4709   9.939   1.051   3.287  0.5777  0.5102 -0.4209
  794MOL0     C 4710   9.897   1.153   3.370  0.3258 -0.9179 -0.1528
  794MOL0     O 4711   9.908   1.156   3.507  0.4354 -0.0006  0.6043
  794MOL0     C 4712   9.957   1.049   3.581  0.5124 -0.9552 -0.7588
  794MOL0     C 4713   9.879   1.046   3.714  0.1410 -0.3301 -0.3987
  794MOL0     C 4714   9.897   0.908   3.796  0.2545  0.1269 -0.3320
  794MOL0     C 4715   9.835   0.783   3.737 -0.6209  1.2407 -0.4409
  794MOL0     C 4716   9.755   0.698   3.838 -0.3280 -0.0961  0.1674
  794MOL0     C 4717   9.673   0.590   3.752 -0.2386 -0.2436 -1.0456
  794MOL0     C 4718   9.744   0.483   3.673  0.3056 -0.3902  0.4573
  794MOL0     C 4719   9.660   0.409   3.567 -0.5116 -0.2794  0.0438
  794MOL0    Cl 4720   9.606   0.532   3.446 -0.0690  0.2170 -0.0169
  794MOL0     C 4721   9.853   1.271   3.306  0.0650  0.6848 -0.0758
  794MOL0     C 4722   9.860   1.295   3.171  0.5163  0.0616  0.7046
  794MOL0     O 4723   9.779   1.040   2.867  0.5112  0.1739  0.3203
  794MOL0     C 4724   9.812   1.168   2.614 -0.1746 -0.4296  0.1384
  794MOL0     C 4725   9.815   1.242   2.493 -0.1038  0.0868 -0.1630
  794MOL0     N 4726  10.206   1.584   1.882 -0.0234  0.1310  0.4830
  794MOL0     N 4727  10.269   1.527   1.783 -0.0686  0.5273  0.4092
  794MOL0     C 4728  10.918   1.793   1.162 -0.0456  0.8013 -0.4937
  794MOL0     C 4729  11.051   1.817   1.213 -0.0982 -0.8847 -0.1963
  794MOL0     C 4730  11.426   1.851   1.375  0.5031 -1.1180 -1.1431
  794MOL0     C 4731  11.468   1.979   1.342 -0.5066  0.1200 -0.0203
  794MOL0     C 4732  11.607   1.999   1.347  0.7173 -0.8832 -0.3908
  794MOL0     C 4733  11.697   1.902   1.386 -0.2923 -0.5762 -0.7803
  794MOL0     O 4734  11.831   1.918   1.385 -0.0344 -0.4224 -0.0661
  794MOL0     C 4735  11.877   2.032   1.314  0.9312  0.0829 -0.1604
  794MOL0     C 4736  12.018   2.002   1.265 -0.3116  0.9861  0.1272
  794MOL0     C 4737  12.121   1.994   1.379 -0.9386 -1.1232 -0.1379
  794MOL0     C 4738  12.268   1.963   1.334 -0.9807  0.1943 -0.3161
  794MOL0     C 4739  12.336   2.049   1.246 -0.1368 -0.5401  0.9964
  794MOL0     C 4740  12.412   2.123   1.182 -0.9125 -0.5349 -0.3875
  794MOL0     C 4741  11.651   1.777   1.427 -0.4483  0.0854  0.1015
  794MOL0     C 4742  11.511   1.749   1.419 -0.4172  0.2429 -0.8881
  794MOL0     H 4743  10.983   2.088   1.407  1.2253 -1.4521  3.0398
  794MOL0     H 4744  10.780   2.073   1.308 -0.9986 -1.8335  0.9347
  794MOL0     H 4745  10.540   2.029   1.162 -1.5898  0.1792  1.6564
  794MOL0     H 4746  10.597   1.975   1.316 -0.3342  4.2716 -1.8764
  794MOL0     H 4747  10.444   1.836   1.091  2.3788 -2.4709  0.3953
  794MOL0     H 4748  10.360   1.899   1.228 -1.6139 -2.4663 -3.3838
  794MOL0     H 4749  10.414   1.734   1.366 -5.3222  0.2933 -0.6279
  794MOL0     H 4750  10.527   1.652   1.258 -0.9037 -0.7358 -0.4822
  794MOL0     H 4751  10.242   1.696   1.175  1.3635  2.2992 -0.1219
  794MOL0     H 4752  10.355   1.600   1.099 -1.8816 -0.1784 -0.1691
  794MOL0     H 4753  10.375   1.436   1.262 -0.7665 -1.1778 -1.8678
  794MOL0     H 4754  10.209   1.448   1.200  1.3431 -2.2952  0.0294
  794MOL0     H 4755  10.193   1.588   1.446  0.3060 -0.7231 -0.2573
  794MOL0     H 4756  10.340   1.515   1.473 -0.6846 -1.6608 -0.2091
  794MOL0     H 4757  10.067   1.397   1.459  0.1154  2.0478  0.7781
  794MOL0     H 4758  10.203   1.294   1.409  2.8314  0.4393  2.2352
  794MOL0     H 4759  10.292   1.298   1.639 -0.9103  2.4012  3.8144
  794MOL0     H 4760  10.117   1.267   1.638 -0.5379 -1.0413 -3.9403
  794MOL0     H 4761   9.947   1.435   1.749 -0.6215  1.4472 -1.4551
  794MOL0     H 4762   9.887   1.662   1.893  1.3194  1.0750 -0.2892
  794MOL0     H 4763  10.027   1.695   2.018  1.4654  1.1122 -1.4917
  794MOL0     H 4764   9.834   1.472   2.016 -3.0077 -0.0567  3.5850
  794MOL0     H 4765   9.818   1.617   2.115 -1.8969 -2.5075  0.4206
  794MOL0     H 4766  10.065   1.435   2.124 -0.2661  1.4674 -1.3539
  794MOL0     H 4767  10.027   1.565   2.238 -1.4692  0.0161 -0.3502
  794MOL0     H 4768   9.969   1.307   2.290 -1.8422  0.3085  1.7501
  794MOL0     H 4769   9.824   1.333   2.196  0.1745  3.0607 -2.0284
  794MOL0     H 4770   9.844   1.555   2.626  2.2292  0.1525 -2.0870
  794MOL0     H 4771   9.817   1.423   2.832 -0.5703 -0.6773  1.9238
  794MOL0     H 4772   9.969   0.989   3.075 -1.0864 -0.4422 -0.0222
  794MOL0     H 4773   9.985   0.959   3.323  1.2885  0.8161 -0.5167
  794MOL0     H 4774  10.063   1.052   3.605  0.3687  3.0292  0.1157
  794MOL0     H 4775   9.938   0.954   3.531  4.2599 -2.9947  1.2620
  794MOL0     H 4776   9.774   1.065   3.688  0.7841 -0.1643 -3.1939
  794MOL0     H 4777   9.913   1.131   3.774  1.2456 -0.6232 -0.5965
  794MOL0     H 4778   9.860   0.919   3.899  1.6447 -1.9771  0.4629
  794MOL0     H 4779  10.006   0.905   3.806  0.6320  3.4526 -2.0926
  794MOL0     H 4780   9.770   0.801   3.651 -2.5861 -0.3385  0.5983
  794MOL0     H 4781   9.921   0.721   3.710 -2.4513 -2.1380  0.8070
  794MOL0     H 4782   9.688   0.765   3.894  0.3458  0.2869  0.5422
  794MOL0     H 4783   9.822   0.659   3.915  2.7638  3.1551 -0.5758
  794MOL0     H 4784   9.601   0.639   3.686 -0.9104  1.6028  0.9407
  794MOL0     H 4785   9.612   0.537   3.826  3.4052 -3.1683  0.2008
  794MOL0     H 4786   9.825   0.532   3.618 -0.0798  0.9056  1.0027
  794MOL0     H 4787   9.782   0.414   3.749 -1.0517  0.7233  2.2074
  794MOL0     H 4788   9.577   0.351   3.609  0.3604 -1.2461  0.4990
  794MOL0     H 4789   9.729   0.334   3.528  1.7025  0.2413  2.6210
  794MOL0     H 4790   9.819   1.349   3.374 -1.8783  0.6120 -0.9034
  794MOL0     H 4791   9.823   1.386   3.125 -1.8518 -0.6343  1.0634
  794MOL0     H 4792   9.793   1.062   2.606  3.6896 -1.1870 -1.1064
  794MOL0     H 4793   9.808   1.193   2.396 -0.1154  2.9103 -1.7176
  794MOL0     H 4794  10.910   1.710   1.092  2.7474 -0.0254  0.0235
  794MOL0     H 4795  11.120   1.746   1.170 -0.7141 -0.7605 -1.4241
  794MOL0     H 4796  11.408   2.067   1.321 -1.0593 -0.7515 -2.4180
  794MOL0     H 4797  11.647   2.098   1.331  2.7790 -1.1107  2.5431
  794MOL0     H 4798  11.891   2.120   1.378  0.5510 -0.6369  0.9296
  794MOL0     H 4799  11.815   2.057   1.227 -0.9180  0.5991  1.2609
  794MOL0     H 4800  12.011   1.905   1.215  1.6407  1.0049 -0.2404
  794MOL0     H 4801  12.049   2.069   1.184  1.7317 -0.7173 -0.5737
  794MOL0     H 4802  12.091   1.916   1.449 -3.2670 -0.0972  0.0871
  794MOL0     H 4803  12.121   2.089   1.434  3.5385 -0.8115 -0.3085
  794MOL0     H 4804  12.328   1.955   1.425  1.2107  3.5133 -1.2524
  794MOL0     H 4805  12.274   1.865   1.285 -1.8474 -0.2737  0.4943
  794MOL0     H 4806  12.482   2.186   1.132  1.3254 -1.7799  1.0145
  794MOL0     H 4807  11.723   1.701   1.457 -0.7093  0.0723  0.6994
  794MOL0     H 4808  11.483   1.656   1.466  3.1480  0.4845  2.2799
  795MOL0     O 4809   7.153   1.231   4.914 -0.0658 -0.1911 -0.4527
  795MOL0     C 4810   7.073   1.143   4.896  0.1242 -0.1751  0.3490
  795MOL0     O 4811   6.989   1.130   4.785  0.4761 -0.5518 -0.4486
  795MOL0     C 4812   7.003   1.232   4.690  0.2271 -0.1926 -0.5974
  795MOL0     C 4813   6.875   1.266   4.642  0.5301 -0.3108  0.2362
  795MOL0     C 4814   6.867   1.364   4.539 -0.0299  0.0683  0.6032
  795MOL0     C 4815   6.988   1.416   4.475  0.7530  0.4573 -0.4145
  795MOL0     O 4816   6.995   1.505   4.369  0.1422 -0.2178 -0.3535
  795MOL0     C 4817   6.874   1.543   4.307  0.0154 -0.4127  0.4521
  795MOL0     C 4818   6.874   1.676   4.216 -0.5147  0.4203 -0.0799
  795MOL0     C 4819   6.742   1.718   4.142  0.3675 -0.0087  0.6648
  795MOL0     C 4820   6.748   1.837   4.043  0.5109  0.3731  0.3422
  795MOL0     C 4821   6.625   1.905   4.020 -0.0990 -0.5734 -0.5141
  795MOL0     C 4822   6.577   1.975   4.149 -0.1884  0.3897  0.3037
  795MOL0     C 4823   6.685   2.050   4.232 -0.6495  0.2507 -0.0584
  795MOL0     C 4824   6.773   2.155   4.152 -0.0893 -1.2503 -0.2988
  795MOL0     N 4825   6.715   2.294   4.160  0.2183  0.4647 -0.0013
  795MOL0     C 4826   6.747   2.399   4.084 -0.4852  0.1792 -0.2132
  795MOL0     C 4827   6.663   2.500   4.109 -0.0214  0.3419 -0.3646
  795MOL0     C 4828   6.640   2.638   4.039  0.4265 -0.1181 -0.5195
  795MOL0     C 4829   6.577   2.612   3.907  0.7729 -0.5631  0.3646
  795MOL0     C 4830   6.589   2.749   3.826  0.0865  1.1570  0.3660
  795MOL0     C 4831   6.494   2.760   3.706  0.5316  0.3708  0.2678
  795MOL0     O 4832   6.467   2.902   3.666  0.8036  0.9143  0.6852
  795MOL0     C 4833   6.538   2.950   3.554 -0.3796  0.2235 -0.3530
  795MOL0     C 4834   6.658   3.011   3.567 -0.1183  0.9356 -0.5382
  795MOL0     C 4835   6.720   3.068   3.460 -0.0654  1.4757  0.9026
  795MOL0     C 4836   6.651   3.079   3.340 -0.5350  0.3810  0.4444
  795MOL0     C 4837   6.720   3.152   3.226  0.2066 -0.0777  0.6579
  795MOL0     O 4838   6.804   3.252   3.246  0.3256 -0.4256  0.3924
  795MOL0     C 4839   6.860   3.330   3.147  0.0172 -0.5070 -0.4560
  795MOL0     C 4840   6.958   3.416   3.199 -0.6387 -0.1840  0.1165
  795MOL0     C 4841   7.027   3.498   3.119  0.1137 -1.8401  0.5149
  795MOL0     C 4842   6.991   3.517   2.985  0.1215 -0.2227  0.9988
  795MOL0     O 4843   7.074   3.600   2.910 -0.6187  0.4425  0.0041
  795MOL0     C 4844   7.147   3.516   2.810 -0.5343 -0.3131  1.1588
  795MOL0     C 4845   7.256   3.589   2.728  0.3304  0.3471  0.1121
  795MOL0     C 4846   7.370   3.631   2.818  0.2065 -0.2891 -0.2692
  795MOL0     C 4847   7.480   3.701   2.741 -0.1539 -0.4242 -0.0117
  795MOL0     C 4848   7.578   3.737   2.845 -0.2236 -0.7326  0.7283
  795MOL0     C 4849   7.560   3.882   2.909  0.1361 -0.1640 -0.1020
  795MOL0     C 4850   7.674   3.932   2.993 -0.8091  0.1468  0.2650
  795MOL0     C 4851   7.687   4.085   3.002  0.7608  0.7763 -0.3517
  795MOL0    Cl 4852   7.856   4.106   3.053  0.0810 -0.1982  0.5679
  795MOL0     C 4853   6.880   3.450   2.929  0.0201 -0.5976 -0.4831
  795MOL0     C 4854   6.827   3.353   3.006 -0.0192 -0.4390 -0.6715
  795MOL0     O 4855   6.676   3.114   3.116 -0.3613  0.3067 -0.1752
  795MOL0     C 4856   6.523   3.025   3.320  0.3284  0.8690 -0.4846
  795MOL0     C 4857   6.467   2.965   3.436  0.0567  0.5029  1.2751
  795MOL0     N 4858   6.589   2.467   4.218 -0.1363  0.1386  0.3367
  795MOL0     N 4859   6.608   2.334   4.236 -0.4215  0.9748  0.4687
  795MOL0     C 4860   7.114   1.368   4.524  0.0529 -0.6234 -0.5349
  795MOL0     C 4861   7.120   1.277   4.633 -1.3150 -0.6967 -0.5422
  795MOL0     C 4862   7.040   1.052   5.010 -0.7194  1.0083 -0.1508
  795MOL0     C 4863   7.142   1.032   5.113  0.7543 -0.1079  1.0549
  795MOL0     C 4864   7.111   0.979   5.233 -0.3046 -0.6068 -0.4939
  795MOL0     C 4865   6.983   0.920   5.260 -0.0422 -0.1860 -0.6955
  795MOL0     O 4866   6.950   0.854   5.380  1.1331  0.4785  0.3606
  795MOL0     C 4867   7.051   0.867   5.486  0.1273  0.3231 -0.0465
  795MOL0     C 4868   6.994   0.843   5.625  0.0761 -0.8418  0.4901
  795MOL0     C 4869   7.100   0.857   5.736  0.0930 -0.4848 -0.9397
  795MOL0     C 4870   7.173   0.732   5.790 -0.5165 -0.2816 -0.2088
  795MOL0     C 4871   7.087   0.624   5.834 -0.1159  0.4210 -0.4764
  795MOL0     C 4872   7.002   0.539   5.855 -0.1481  0.0667  0.1990
  795MOL0     C 4873   6.888   0.922   5.155  0.8885  0.3958 -0.1059
  795MOL0     C 4874   6.916   0.984   5.032 -0.1986  0.1986  0.1221
  795MOL0     H 4875   6.786   1.220   4.684  0.3484  0.9809  1.3610
  795MOL0     H 4876   6.771   1.397   4.502  0.8786  1.0208 -1.0077
  795MOL0     H 4877   6.794   1.550   4.382 -0.8301 -2.7383 -0.1501
  795MOL0     H 4878   6.841   1.458   4.246  1.8455 -0.0508 -1.1375
  795MOL0     H 4879   6.951   1.676   4.138  0.6905  0.3932  1.0734
  795MOL0     H 4880   6.881   1.768   4.274 -1.9163  1.8148 -1.9707
  795MOL0     H 4881   6.679   1.747   4.226 -0.9865  1.3258 -0.7523
  795MOL0     H 4882   6.695   1.632   4.092  1.9339  1.2301 -3.3661
  795MOL0     H 4883   6.825   1.909   4.069  2.2815 -0.4978 -2.1196
  795MOL0     H 4884   6.773   1.801   3.943 -1.3044 -2.7280  0.8724
  795MOL0     H 4885   6.544   1.844   3.980 -0.5801 -0.9305  0.9583
  795MOL0     H 4886   6.651   1.985   3.950 -1.0821 -0.7346 -1.0704
  795MOL0     H 4887   6.517   1.910   4.214 -0.6101 -1.7865 -2.0867
  795MOL0     H 4888   6.505   2.043   4.102  0.2654  1.4555  1.1206
  795MOL0     H 4889   6.639   2.097   4.319 -1.6637  1.0427 -0.9916
  795MOL0     H 4890   6.754   1.975   4.271 -3.3416 -1.0873  2.4895
  795MOL0     H 4891   6.777   2.130   4.045  1.8454 -0.1247 -0.5211
  795MOL0     H 4892   6.874   2.167   4.192 -0.4514  0.2973  0.2215
  795MOL0     H 4893   6.813   2.391   3.998 -1.4911  0.2144 -1.0050
  795MOL0     H 4894   6.733   2.690   4.013 -0.0936  0.4676 -1.2383
  795MOL0     H 4895   6.579   2.703   4.101  0.9682  0.3485 -0.4662
  795MOL0     H 4896   6.480   2.562   3.912  1.5945 -2.4413 -1.3816
  795MOL0     H 4897   6.638   2.547   3.844  1.1432 -0.5592  0.7151
  795MOL0     H 4898   6.577   2.831   3.897 -1.1842 -1.1313  2.9527
  795MOL0     H 4899   6.687   2.757   3.777  0.3993 -1.8789  0.3578
  795MOL0     H 4900   6.409   2.703   3.745  0.6266 -1.5584 -2.0968
  795MOL0     H 4901   6.537   2.709   3.619  2.4213  0.2879  1.2116
  795MOL0     H 4902   6.725   3.019   3.653 -0.4886  0.0543 -0.1535
  795MOL0     H 4903   6.803   3.137   3.475 -0.2105  1.7457  0.5049
  795MOL0     H 4904   6.989   3.416   3.303 -0.9384 -2.3522  0.2395
  795MOL0     H 4905   7.105   3.552   3.171 -1.0479 -2.2224  2.8016
  795MOL0     H 4906   7.073   3.482   2.737  0.4752 -0.7725  0.3338
  795MOL0     H 4907   7.193   3.429   2.857 -3.8115 -1.5140  2.4614
  795MOL0     H 4908   7.207   3.678   2.687  1.1984  1.3524  1.2065
  795MOL0     H 4909   7.282   3.535   2.637  2.1854  2.9218 -0.9945
  795MOL0     H 4910   7.406   3.542   2.872  1.4624  0.0775 -0.4681
  795MOL0     H 4911   7.318   3.693   2.892  0.3273 -0.0847 -0.3547
  795MOL0     H 4912   7.512   3.636   2.659  0.2759  2.5502 -2.3500
  795MOL0     H 4913   7.440   3.790   2.692  0.6260  0.2654  0.5759
  795MOL0     H 4914   7.675   3.728   2.794 -0.4833  0.8425 -0.1072
  795MOL0     H 4915   7.569   3.661   2.923 -2.1878 -2.9988 -1.4829
  795MOL0     H 4916   7.466   3.879   2.965  1.2827 -2.6633  1.9154
  795MOL0     H 4917   7.555   3.955   2.828  0.6264  3.2900  2.7485
  795MOL0     H 4918   7.662   3.884   3.091 -3.3563 -0.8916 -0.4708
  795MOL0     H 4919   7.761   3.879   2.953 -1.8655 -1.1601 -0.3754
  795MOL0     H 4920   7.615   4.132   3.071  1.6922 -1.5356  2.4046
  795MOL0     H 4921   7.674   4.150   2.915  0.6878  0.8171 -0.3108
  795MOL0     H 4922   6.850   3.456   2.825 -4.3462 -0.9019  0.5668
  795MOL0     H 4923   6.761   3.281   2.960  1.9394 -0.7174 -3.2539
  795MOL0     H 4924   6.478   3.040   3.223  0.5970 -0.3929 -0.8219
  795MOL0     H 4925   6.362   2.938   3.429 -0.1844  1.7983 -2.0345
  795MOL0     H 4926   7.202   1.415   4.480 -1.1066  0.6052 -1.6201
  795MOL0     H 4927   7.214   1.238   4.672 -2.0078 -1.4173  0.4421
  795MOL0     H 4928   7.233   1.090   5.098  1.9409 -2.1246 -0.0369
  795MOL0     H 4929   7.189   0.991   5.307  2.5813  2.2389 -3.6304
  795MOL0     H 4930   7.084   0.971   5.486  1.6330 -0.1103  1.6515
  795MOL0     H 4931   7.126   0.788   5.472 -0.6771 -0.4267 -0.2263
  795MOL0     H 4932   6.925   0.919   5.663  0.3401 -2.3213  4.4465
  795MOL0     H 4933   6.946   0.744   5.627  0.2848 -0.9363  1.5718
  795MOL0     H 4934   7.046   0.882   5.828  0.6133  0.1829 -0.8101
  795MOL0     H 4935   7.169   0.937   5.707 -2.2261  1.9959 -0.0441
  795MOL0     H 4936   7.233   0.691   5.708 -3.8486  1.1260 -3.6852
  795MOL0     H 4937   7.242   0.753   5.872 -1.7914  1.4905  0.4618
  795MOL0     H 4938   6.923   0.468   5.865  2.1574 -2.6363  0.3591
  795MOL0     H 4939   6.791   0.878   5.174  1.9035 -2.0883 -0.2837
  795MOL0     H 4940   6.833   1.002   4.965 -1.3750  0.6065  1.6217
  796MOL0     O 4941  11.105   6.925   9.758 -0.3544 -0.6056  0.8936
  796MOL0     C 4942  11.020   6.837   9.756 -1.1168 -0.0525  0.6520
  796MOL0     O 4943  11.040   6.713   9.800  0.2364 -0.0931  0.4431
  796MOL0     C 4944  11.163   6.661   9.831 -1.5470  0.0196  0.4657
  796MOL0     C 4945  11.195   6.532   9.780  0.0765  0.5260 -0.0169
  796MOL0     C 4946  11.323   6.482   9.793 -0.8958 -0.2224 -0.6570
  796MOL0     C 4947  11.419   6.557   9.869  0.5829  1.1960 -0.5077
  796MOL0     O 4948  11.542   6.499   9.886  0.6760 -0.6217  1.0290
  796MOL0     C 4949  11.587   6.444  10.016 -0.3207  0.1788  0.3200
  796MOL0     C 4950  11.709   6.363   9.990  0.7459  0.8561 -0.6936
  796MOL0     C 4951  11.757   6.281  10.114  0.3018 -0.9172  0.1075
  796MOL0     C 4952  11.691   6.142  10.133  0.0748  0.0987  0.3887
  796MOL0     C 4953  11.759   6.066  10.242  0.8427  0.2129  0.2206
  796MOL0     C 4954  11.660   6.041  10.356 -0.2573 -0.4523  0.5264
  796MOL0     C 4955  11.661   6.160  10.461  0.0366 -0.8267  0.7883
  796MOL0     C 4956  11.644   6.103  10.601 -0.1313  0.6041 -0.1919
  796MOL0     N 4957  11.606   6.191  10.710 -0.4582  0.3955 -0.2836
  796MOL0     C 4958  11.531   6.304  10.691 -0.3171 -0.0918  0.5561
  796MOL0     C 4959  11.533   6.359  10.819 -0.6485  0.0246  0.7472
  796MOL0     C 4960  11.444   6.475  10.856  0.1822  0.3886  0.0675
  796MOL0     C 4961  11.531   6.585  10.886 -0.4276 -0.8442 -0.6646
  796MOL0     C 4962  11.554   6.605  11.036 -0.6223  0.9140 -0.6125
  796MOL0     C 4963  11.576   6.754  11.070 -0.0992 -0.1865 -0.4237
  796MOL0     O 4964  11.595   6.749  11.218  0.0709  0.0684 -0.6499
  796MOL0     C 4965  11.604   6.873  11.272  0.7315  0.1309  1.0544
  796MOL0     C 4966  11.578   6.992  11.203  0.4847  0.2791  0.6715
  796MOL0     C 4967  11.597   7.112  11.264 -0.8049 -0.5185  0.3113
  796MOL0     C 4968  11.625   7.118  11.399  0.4542 -0.2971  0.2879
  796MOL0     C 4969  11.625   7.253  11.468  0.2504  0.2739  0.0013
  796MOL0     O 4970  11.681   7.264  11.594 -0.0950  0.2725  0.3975
  796MOL0     C 4971  11.687   7.377  11.676 -0.6062 -0.4563 -0.8139
  796MOL0     C 4972  11.728   7.504  11.622 -0.8527  0.1264 -0.2110
  796MOL0     C 4973  11.752   7.621  11.699 -0.4079 -0.0413 -0.2561
  796MOL0     C 4974  11.750   7.613  11.839 -0.8455 -0.0787  0.3901
  796MOL0     O 4975  11.766   7.731  11.896 -0.3417  0.2766  0.2801
  796MOL0     C 4976  11.902   7.771  11.940  0.1612  0.3351  0.3206
  796MOL0     C 4977  11.966   7.691  12.057  0.4942 -0.2601  0.5969
  796MOL0     C 4978  11.869   7.688  12.175  0.0935  0.3931  0.0834
  796MOL0     C 4979  11.923   7.561  12.256  0.3048 -0.3425 -0.3744
  796MOL0     C 4980  11.848   7.536  12.381  0.3554  0.0824  0.4272
  796MOL0     C 4981  11.705   7.474  12.342 -0.0146  0.5603  0.5325
  796MOL0     C 4982  11.600   7.573  12.393  0.8381 -0.6906 -0.2997
  796MOL0     C 4983  11.535   7.533  12.523  0.7377 -0.7652 -0.0480
  796MOL0    Cl 4984  11.419   7.656  12.567 -0.1202 -0.1152 -0.3612
  796MOL0     C 4985  11.720   7.486  11.903  0.2741 -0.1356 -0.5906
  796MOL0     C 4986  11.689   7.375  11.815  1.1244  0.3232 -0.7534
  796MOL0     O 4987  11.556   7.336  11.421  0.0402  0.1107  0.5713
  796MOL0     C 4988  11.659   7.003  11.469  0.2144  0.1823 -0.1894
  796MOL0     C 4989  11.642   6.883  11.405 -1.1756 -1.5609  0.6548
  796MOL0     N 4990  11.602   6.279  10.905  0.1826 -0.0491  0.3722
  796MOL0     N 4991  11.662   6.182  10.831  0.8363 -0.6923  0.8352
  796MOL0     C 4992  11.385   6.680   9.921  0.2805  1.0238  0.7831
  796MOL0     C 4993  11.261   6.735   9.900  0.5262  0.5012  0.4996
  796MOL0     C 4994  10.882   6.873   9.705 -0.0865  0.3067  0.2821
  796MOL0     C 4995  10.770   6.826   9.780 -0.1947 -0.3188  0.3703
  796MOL0     C 4996  10.636   6.859   9.749 -0.1606  1.3604  0.9150
  796MOL0     C 4997  10.613   6.941   9.634 -0.1843  0.3352 -0.9356
  796MOL0     O 4998  10.482   6.970   9.594  0.4850  0.9596 -0.3909
  796MOL0     C 4999  10.405   7.037   9.690 -0.0479 -0.2072 -0.0629
  796MOL0     C 5000  10.463   7.184   9.712 -0.4062 -0.7212 -0.2886
  796MOL0     C 5001  10.454   7.259   9.577  0.1933  0.2962  0.4061
  796MOL0     C 5002  10.435   7.405   9.604  0.1308 -0.5404 -0.1935
  796MOL0     C 5003  10.558   7.462   9.661 -0.3848  0.1762  0.3788
  796MOL0     C 5004  10.667   7.494   9.707  0.6313 -0.5836  1.0417
  796MOL0     C 5005  10.722   6.987   9.558  0.1897  0.3190 -0.5604
  796MOL0     C 5006  10.856   6.944   9.592  0.8199  0.7110  0.6729
  796MOL0     H 5007  11.111   6.477   9.739 -0.7673  0.5476  1.6056
  796MOL0     H 5008  11.348   6.390   9.741  1.2332  0.0937 -0.2895
  796MOL0     H 5009  11.509   6.384  10.063 -0.4505 -0.5793 -0.8365
  796MOL0     H 5010  11.607   6.518  10.095 -2.6836  0.9268  0.2892
  796MOL0     H 5011  11.792   6.427   9.961 -0.5992  4.2164  2.1382
  796MOL0     H 5012  11.682   6.294   9.909  0.7115  0.2632 -0.1823
  796MOL0     H 5013  11.729   6.331  10.207  2.5819 -2.1657  1.5622
  796MOL0     H 5014  11.866   6.285  10.113  0.2673  1.9412 -1.6048
  796MOL0     H 5015  11.588   6.170  10.158 -0.7078 -0.5901 -1.8066
  796MOL0     H 5016  11.701   6.083  10.042 -3.0590 -0.0389  0.0141
  796MOL0     H 5017  11.842   6.126  10.280  1.3119  1.1897 -2.1815
  796MOL0     H 5018  11.801   5.974  10.200  0.1873  0.4726 -1.0551
  796MOL0     H 5019  11.692   5.944  10.395  4.9546  0.2194 -1.3280
  796MOL0     H 5020  11.557   6.030  10.322 -0.4371 -1.2038  1.2812
  796MOL0     H 5021  11.753   6.219  10.461  1.1741 -2.4500 -1.9353
  796MOL0     H 5022  11.592   6.239  10.431  3.0964  1.2152 -1.3951
  796MOL0     H 5023  11.735   6.051  10.633  0.2478  1.8508  0.8514
  796MOL0     H 5024  11.563   6.031  10.597  0.5782 -0.3264  1.1741
  796MOL0     H 5025  11.486   6.335  10.597  0.4195  1.8806  0.8142
  796MOL0     H 5026  11.373   6.450  10.935 -0.2307 -3.0140 -1.1803
  796MOL0     H 5027  11.377   6.500  10.773 -1.4128 -2.5556  0.3166
  796MOL0     H 5028  11.469   6.672  10.861  2.4163  1.6588  0.2832
  796MOL0     H 5029  11.628   6.585  10.836  1.1734  0.7807  2.1627
  796MOL0     H 5030  11.483   6.550  11.099  0.2336 -1.1245 -1.3399
  796MOL0     H 5031  11.643   6.552  11.070 -2.3813 -2.0666 -0.2688
  796MOL0     H 5032  11.480   6.799  11.041 -0.9060 -1.4700  0.1829
  796MOL0     H 5033  11.656   6.808  11.018 -1.8170  1.4725 -1.4899
  796MOL0     H 5034  11.527   7.003  11.108  0.3068  1.2369  0.8646
  796MOL0     H 5035  11.566   7.196  11.202 -0.9798 -1.4152 -0.8419
  796MOL0     H 5036  11.745   7.514  11.515 -1.0165 -1.3059 -0.3870
  796MOL0     H 5037  11.764   7.717  11.649 -6.6652  1.2450 -0.0709
  796MOL0     H 5038  11.892   7.875  11.974  1.5092  2.5126 -5.0204
  796MOL0     H 5039  11.967   7.787  11.854 -2.4876 -0.1809 -1.9242
  796MOL0     H 5040  12.062   7.736  12.081  0.2777  0.3526  0.3281
  796MOL0     H 5041  11.982   7.591  12.015  1.4725  0.8910 -1.9847
  796MOL0     H 5042  11.766   7.678  12.140 -1.0058  0.8761  2.8698
  796MOL0     H 5043  11.873   7.780  12.234 -0.1762  0.5413 -0.1240
  796MOL0     H 5044  11.919   7.473  12.191  0.3191 -0.9158  0.3794
  796MOL0     H 5045  12.022   7.604  12.271 -1.8080  5.1310  0.3661
  796MOL0     H 5046  11.841   7.627  12.443 -0.7488 -1.3978  2.5947
  796MOL0     H 5047  11.907   7.465  12.439  1.1346 -0.0609 -0.5142
  796MOL0     H 5048  11.693   7.379  12.396 -1.9021 -1.0553 -2.3924
  796MOL0     H 5049  11.680   7.442  12.240 -2.3070 -1.6541  1.6503
  796MOL0     H 5050  11.626   7.679  12.398  3.3417 -1.3182  2.5893
  796MOL0     H 5051  11.523   7.565  12.315  2.9106 -0.5768 -2.4843
  796MOL0     H 5052  11.608   7.550  12.603  3.9739 -2.8441 -2.3265
  796MOL0     H 5053  11.494   7.432  12.523 -0.9353 -0.1329 -0.0808
  796MOL0     H 5054  11.708   7.459  12.007 -0.2308 -0.9442 -0.8518
  796MOL0     H 5055  11.697   7.277  11.860  0.9558  1.0411  0.9263
  796MOL0     H 5056  11.693   7.007  11.572  0.4694  5.3043 -0.2302
  796MOL0     H 5057  11.660   6.794  11.464 -0.4775 -0.4909  2.1396
  796MOL0     H 5058  11.460   6.734   9.978 -1.5346  3.4735  0.9986
  796MOL0     H 5059  11.240   6.830   9.949 -0.8338 -0.7872  2.5756
  796MOL0     H 5060  10.799   6.778   9.873 -0.8445  1.0371  1.3074
  796MOL0     H 5061  10.565   6.812   9.816  3.2485 -2.3125  2.2838
  796MOL0     H 5062  10.408   6.982   9.784  3.6692 -1.6977 -0.8988
  796MOL0     H 5063  10.303   7.047   9.651 -0.4689 -0.7506  0.8497
  796MOL0     H 5064  10.416   7.247   9.788  1.8203  0.5314  0.1581
  796MOL0     H 5065  10.566   7.189   9.747 -0.9698  0.8727  1.3326
  796MOL0     H 5066  10.368   7.218   9.523  1.8318 -0.3371 -1.8265
  796MOL0     H 5067  10.545   7.236   9.522 -1.3323  0.2491 -2.2336
  796MOL0     H 5068  10.403   7.438   9.504 -0.1632  0.5921  0.2512
  796MOL0     H 5069  10.351   7.412   9.674 -0.5396 -4.0838 -0.4713
  796MOL0     H 5070  10.767   7.524   9.730  0.9714 -2.5344  2.3102
  796MOL0     H 5071  10.712   7.041   9.465 -1.0548 -2.2427 -2.0303
  796MOL0     H 5072  10.939   6.979   9.532  1.2217  1.9413  1.8931
  797MOL0     O 5073   4.057   6.238   7.073 -0.4761 -0.2087  0.8854
  797MOL0     C 5074   3.980   6.261   7.161  0.2946  0.6092 -0.4385
  797MOL0     O 5075   3.861   6.334   7.146 -0.2118 -0.1491 -0.2563
  797MOL0     C 5076   3.819   6.381   7.024  0.4088 -0.7411  0.1283
  797MOL0     C 5077   3.681   6.407   7.016 -0.3530 -0.4345  1.2311
  797MOL0     C 5078   3.626   6.487   6.910  0.0686 -0.1050 -1.1175
  797MOL0     C 5079   3.706   6.522   6.800  0.5419 -0.2375 -0.4429
  797MOL0     O 5080   3.648   6.601   6.700 -1.4512 -0.2577  0.2342
  797MOL0     C 5081   3.703   6.581   6.564  0.1937  0.0516  0.3215
  797MOL0     C 5082   3.590   6.628   6.470 -0.1772 -0.2115  0.3755
  797MOL0     C 5083   3.455   6.561   6.492  0.7758 -0.9791  1.0323
  797MOL0     C 5084   3.341   6.598   6.395  0.0615 -0.4203 -0.0110
  797MOL0     C 5085   3.196   6.532   6.425  0.2346  0.5549  0.0371
  797MOL0     C 5086   3.118   6.616   6.529  0.2665  0.1780  0.4031
  797MOL0     C 5087   3.039   6.742   6.478  0.3478  0.0969  1.2671
  797MOL0     C 5088   2.886   6.712   6.448 -0.5692 -0.7121 -0.0360
  797MOL0     N 5089   2.863   6.583   6.384  0.4305  0.3009 -0.0984
  797MOL0     C 5090   2.793   6.481   6.450 -0.5151  0.2071 -1.2861
  797MOL0     C 5091   2.779   6.375   6.368 -0.2438  0.4560 -1.2299
  797MOL0     C 5092   2.721   6.246   6.394  0.8946 -0.0754 -0.2368
  797MOL0     C 5093   2.566   6.248   6.383 -0.2150  0.0823 -0.6618
  797MOL0     C 5094   2.503   6.110   6.400  0.4907 -0.5332 -0.2283
  797MOL0     C 5095   2.357   6.100   6.345 -0.2724  0.3585 -0.1147
  797MOL0     O 5096   2.274   6.003   6.415 -0.6182 -0.5649  0.0362
  797MOL0     C 5097   2.140   6.010   6.403  0.2396  0.8505 -0.1215
  797MOL0     C 5098   2.070   6.035   6.282 -0.1170 -0.3793 -0.1349
  797MOL0     C 5099   1.936   6.032   6.275  0.2480 -0.1566 -0.4967
  797MOL0     C 5100   1.858   5.985   6.391 -0.7258  0.4676  0.2822
  797MOL0     C 5101   1.709   5.993   6.377  0.6196  0.1235  0.5755
  797MOL0     O 5102   1.655   6.099   6.295  0.0120 -0.2952 -0.2442
  797MOL0     C 5103   1.518   6.099   6.279  1.0603  0.4308 -0.7041
  797MOL0     C 5104   1.442   5.996   6.226 -0.2458 -0.4372 -0.6452
  797MOL0     C 5105   1.306   6.017   6.187 -0.3711 -0.0116 -0.4511
  797MOL0     C 5106   1.245   6.133   6.232 -0.1953  0.2001 -0.5142
  797MOL0     O 5107   1.112   6.147   6.205  0.1544  0.1355  0.1045
  797MOL0     C 5108   1.053   6.140   6.068 -0.5475 -0.4647 -0.2401
  797MOL0     C 5109   0.994   6.003   6.022 -0.3301  0.0444  0.1338
  797MOL0     C 5110   1.002   6.003   5.861 -0.3085 -0.3089  0.2946
  797MOL0     C 5111   0.971   5.870   5.790  0.1775 -0.7953 -0.3064
  797MOL0     C 5112   0.957   5.885   5.639 -1.0467 -0.1294  0.1023
  797MOL0     C 5113   1.063   5.971   5.568  0.5858 -0.2952  0.4120
  797MOL0     C 5114   1.029   5.967   5.413 -0.7822 -0.8453 -0.3938
  797MOL0     C 5115   1.067   5.838   5.341 -0.0240 -0.2131  0.4098
  797MOL0    Cl 5116   1.021   5.836   5.172 -0.2892 -0.4053 -0.0552
  797MOL0     C 5117   1.320   6.228   6.302 -0.1281 -1.1030  0.2505
  797MOL0     C 5118   1.457   6.218   6.313  0.5069  0.3746  0.9079
  797MOL0     O 5119   1.647   5.913   6.446 -0.6324 -0.6403  0.5416
  797MOL0     C 5120   1.924   5.959   6.506  0.2086  0.3601 -0.0712
  797MOL0     C 5121   2.062   5.976   6.519  0.4167  0.0906  0.3354
  797MOL0     N 5122   2.825   6.417   6.244  0.6301 -1.0867  0.1123
  797MOL0     N 5123   2.856   6.546   6.249 -0.5779 -0.5467  0.1943
  797MOL0     C 5124   3.846   6.495   6.814 -0.0523  0.2423  0.0902
  797MOL0     C 5125   3.901   6.433   6.924  0.0546  0.0267 -0.6372
  797MOL0     C 5126   4.016   6.227   7.293  0.0330  0.4352  0.0352
  797MOL0     C 5127   4.128   6.156   7.322  0.4015  0.7647  0.1852
  797MOL0     C 5128   4.161   6.129   7.462 -0.2634 -0.8343  0.2737
  797MOL0     C 5129   4.077   6.175   7.571  0.1590 -0.5594  0.6739
  797MOL0     O 5130   4.083   6.130   7.699 -0.6738  0.1566 -0.2122
  797MOL0     C 5131   4.197   6.055   7.755 -0.0592 -0.0134  0.7839
  797MOL0     C 5132   4.324   6.141   7.734 -0.2120  0.2626 -0.5082
  797MOL0     C 5133   4.440   6.048   7.717  0.4994 -0.4763  0.4962
  797MOL0     C 5134   4.569   6.136   7.693  1.2006 -1.2534 -0.4079
  797MOL0     C 5135   4.621   6.203   7.813 -0.1644  0.2862 -0.5958
  797MOL0     C 5136   4.666   6.243   7.918 -1.0110  0.1394  0.0512
  797MOL0     C 5137   3.970   6.242   7.536  0.0196 -0.7309  0.2720
  797MOL0     C 5138   3.925   6.257   7.402 -0.8893 -0.7397 -0.4269
  797MOL0     H 5139   3.610   6.379   7.094 -1.3498 -0.1619  0.4522
  797MOL0     H 5140   3.521   6.514   6.910  0.1601  0.3534 -2.6435
  797MOL0     H 5141   3.720   6.479   6.529 -3.7294 -0.8877  0.7145
  797MOL0     H 5142   3.785   6.653   6.562 -1.1573  1.8404  3.0172
  797MOL0     H 5143   3.608   6.618   6.362  0.2593  0.1716  0.4086
  797MOL0     H 5144   3.591   6.737   6.477  2.4271  0.2359 -3.7439
  797MOL0     H 5145   3.419   6.577   6.594 -1.5547 -1.7990  0.3987
  797MOL0     H 5146   3.470   6.453   6.479  1.0773 -0.8430  0.2063
  797MOL0     H 5147   3.330   6.707   6.399  0.7089 -0.3605  0.2162
  797MOL0     H 5148   3.366   6.556   6.297  0.7929 -0.0689  0.0194
  797MOL0     H 5149   3.195   6.425   6.447 -0.3397  1.1090  3.3141
  797MOL0     H 5150   3.127   6.540   6.341  2.6000  0.0963 -2.0828
  797MOL0     H 5151   3.171   6.649   6.619 -2.3101  0.9959  1.7129
  797MOL0     H 5152   3.043   6.550   6.573  0.5462  0.2415  0.9817
  797MOL0     H 5153   3.041   6.833   6.538  0.4580  0.5310  0.6184
  797MOL0     H 5154   3.081   6.767   6.380  0.1466 -0.7627  0.9494
  797MOL0     H 5155   2.854   6.798   6.388 -0.3384 -1.5595 -1.4158
  797MOL0     H 5156   2.832   6.719   6.543 -0.3474  0.7072  0.0206
  797MOL0     H 5157   2.763   6.485   6.554 -0.3121 -1.8124 -1.1099
  797MOL0     H 5158   2.749   6.210   6.494  3.1330  1.8343 -0.0887
  797MOL0     H 5159   2.754   6.172   6.321  2.1648 -0.1183  0.3563
  797MOL0     H 5160   2.534   6.279   6.284 -1.1839  1.1789 -0.0378
  797MOL0     H 5161   2.515   6.316   6.453  1.1428  1.3967 -0.9005
  797MOL0     H 5162   2.568   6.038   6.350 -1.5116 -1.6273 -1.3822
  797MOL0     H 5163   2.492   6.078   6.504  0.0923  0.4894  0.0594
  797MOL0     H 5164   2.362   6.060   6.243 -0.6879 -1.3372  0.4964
  797MOL0     H 5165   2.304   6.195   6.345 -1.6513 -0.3294 -2.5263
  797MOL0     H 5166   2.127   6.069   6.196  0.2121  1.5087  0.7605
  797MOL0     H 5167   1.887   6.071   6.186 -1.9061  0.6878  0.9733
  797MOL0     H 5168   1.486   5.903   6.191 -3.3013 -1.8287 -1.1425
  797MOL0     H 5169   1.248   5.945   6.129 -3.4905 -0.5350  2.9060
  797MOL0     H 5170   1.134   6.162   5.999 -0.6931 -0.7215 -0.4946
  797MOL0     H 5171   0.980   6.214   6.034  1.0064  1.0766 -0.3322
  797MOL0     H 5172   0.890   5.988   6.054  0.2651 -1.0346  1.7107
  797MOL0     H 5173   1.054   5.919   6.058  0.1872  1.1268  1.9248
  797MOL0     H 5174   1.105   6.027   5.832 -1.3081  0.6664 -2.7862
  797MOL0     H 5175   0.943   6.083   5.817 -0.4188 -0.4641  0.1591
  797MOL0     H 5176   1.045   5.796   5.820 -1.8702 -3.2595 -1.0141
  797MOL0     H 5177   0.880   5.827   5.832 -0.3554  0.8768  0.3327
  797MOL0     H 5178   0.857   5.919   5.609 -1.4519  0.6456  2.1715
  797MOL0     H 5179   0.961   5.781   5.605  2.3956 -0.6601  1.7744
  797MOL0     H 5180   1.165   5.937   5.591  1.0682  0.6477 -0.2720
  797MOL0     H 5181   1.067   6.076   5.596 -2.2041 -0.0983  0.3176
  797MOL0     H 5182   0.922   5.990   5.400 -0.7203 -0.4649 -0.2329
  797MOL0     H 5183   1.087   6.039   5.355 -1.8135 -0.7625 -1.3591
  797MOL0     H 5184   1.019   5.762   5.402  3.3671 -0.7406  2.6703
  797MOL0     H 5185   1.175   5.821   5.342  0.7594  3.7160  0.7160
  797MOL0     H 5186   1.275   6.325   6.321  3.1318  0.3628  0.9938
  797MOL0     H 5187   1.523   6.301   6.335  1.1829  0.7982 -2.2370
  797MOL0     H 5188   1.872   5.917   6.591 -0.4577 -1.1769 -1.1887
  797MOL0     H 5189   2.123   5.949   6.605  0.9522 -0.1569 -0.1098
  797MOL0     H 5190   3.923   6.536   6.749 -0.1120  1.9686  1.0363
  797MOL0     H 5191   4.008   6.427   6.941 -0.5705 -2.1115  4.4744
  797MOL0     H 5192   4.198   6.121   7.246 -0.3482 -1.3890  0.4207
  797MOL0     H 5193   4.236   6.054   7.484  1.5916  0.8842  0.0557
  797MOL0     H 5194   4.189   5.962   7.699 -3.8043  0.4841  0.1858
  797MOL0     H 5195   4.191   6.038   7.863  1.2102  0.4487  0.9401
  797MOL0     H 5196   4.319   6.202   7.643  0.5642 -2.4360 -2.4974
  797MOL0     H 5197   4.342   6.204   7.821 -1.8850 -0.9783  0.7874
  797MOL0     H 5198   4.416   5.992   7.627  2.2863 -0.3911 -0.0757
  797MOL0     H 5199   4.449   5.982   7.804  0.7821  0.3085  1.0776
  797MOL0     H 5200   4.651   6.068   7.666  4.0069  0.2435  3.3428
  797MOL0     H 5201   4.557   6.216   7.619  0.4349  0.7200  1.7067
  797MOL0     H 5202   4.715   6.266   8.011  1.0177 -3.9738  0.2580
  797MOL0     H 5203   3.924   6.297   7.617  1.0118 -0.7590  0.8747
  797MOL0     H 5204   3.826   6.299   7.392 -0.1610  0.9118 -0.9320
  798MOL0     O 5205   2.675   9.005   6.992 -0.0394 -0.0423 -0.0002
  798MOL0     C 5206   2.590   8.980   7.073  0.0566  0.0830 -0.5321
  798MOL0     O 5207   2.459   9.017   7.054  0.6618  1.5327  0.2666
  798MOL0     C 5208   2.414   9.049   6.930  0.1813 -0.6823  0.2436
  798MOL0     C 5209   2.299   8.991   6.879  0.6281  0.0189 -0.1832
  798MOL0     C 5210   2.240   9.025   6.759  0.2230  1.3388  0.0194
  798MOL0     C 5211   2.301   9.132   6.687 -0.1180  0.6352 -0.8305
  798MOL0     O 5212   2.252   9.174   6.561 -0.1567 -0.2376 -0.0173
  798MOL0     C 5213   2.224   9.074   6.457 -0.7450 -0.6556 -0.3725
  798MOL0     C 5214   2.093   9.129   6.385 -0.2092  0.2463 -0.1480
  798MOL0     C 5215   2.118   9.253   6.300  0.1864 -0.4520 -0.2327
  798MOL0     C 5216   2.120   9.390   6.370  0.1351  0.3046  0.7430
  798MOL0     C 5217   2.120   9.521   6.285 -0.7001 -0.4082 -0.3809
  798MOL0     C 5218   2.044   9.634   6.368 -0.5314  1.0871 -0.2051
  798MOL0     C 5219   2.147   9.662   6.489  0.5596 -0.3223 -0.2268
  798MOL0     C 5220   2.106   9.768   6.595  1.2292  0.7606 -0.2296
  798MOL0     N 5221   2.141   9.905   6.565 -0.5215  0.1286  0.1088
  798MOL0     C 5222   2.047   9.999   6.543 -0.4918  0.0516 -1.1455
  798MOL0     C 5223   2.111  10.109   6.504  0.5753  0.7214 -0.0815
  798MOL0     C 5224   2.037  10.231   6.461  0.0655 -0.4850  0.2839
  798MOL0     C 5225   2.086  10.368   6.525 -0.8327  0.0438 -0.4089
  798MOL0     C 5226   2.020  10.481   6.445  0.0692 -0.6023 -0.0686
  798MOL0     C 5227   2.040  10.620   6.508 -0.1702 -0.0194  0.8205
  798MOL0     O 5228   1.980  10.721   6.420 -0.1726  0.1250 -1.1536
  798MOL0     C 5229   1.847  10.749   6.454  0.4053  0.2751  0.4182
  798MOL0     C 5230   1.807  10.863   6.389  1.4375  0.1250 -0.0549
  798MOL0     C 5231   1.671  10.893   6.388  0.1601  0.6014 -0.2191
  798MOL0     C 5232   1.577  10.822   6.464 -0.6954  1.0453  0.0784
  798MOL0     C 5233   1.431  10.854   6.470 -0.0235  0.6421 -0.3884
  798MOL0     O 5234   1.388  10.965   6.398 -0.1957 -0.1082  0.6756
  798MOL0     C 5235   1.253  11.000   6.392  0.2649 -0.3614  0.7788
  798MOL0     C 5236   1.209  11.098   6.479  0.1445 -0.4535  0.2165
  798MOL0     C 5237   1.069  11.136   6.468 -1.1804  0.5019 -1.1518
  798MOL0     C 5238   0.983  11.077   6.377 -0.2429 -0.4243 -0.4959
  798MOL0     O 5239   0.845  11.117   6.368  0.1349  0.3681 -0.4588
  798MOL0     C 5240   0.768  11.070   6.479 -0.2512  0.8215  0.0269
  798MOL0     C 5241   0.627  11.131   6.471  0.3851  0.5091 -0.3150
  798MOL0     C 5242   0.526  11.082   6.587  0.6568  0.9372  0.2060
  798MOL0     C 5243   0.383  11.132   6.596  0.7871  0.4144  1.1036
  798MOL0     C 5244   0.301  11.073   6.479 -0.0197 -0.1058 -0.1670
  798MOL0     C 5245   0.165  11.146   6.459  0.2241  0.9688  0.2175
  798MOL0     C 5246   0.090  11.094   6.333  0.4007  0.3640 -0.1619
  798MOL0     C 5247   0.134  10.959   6.266  0.2586 -0.1586 -0.7021
  798MOL0    Cl 5248   0.036  10.932   6.123 -0.2642 -0.5132 -0.3390
  798MOL0     C 5249   1.027  10.970   6.304  0.3965 -0.2640  0.0520
  798MOL0     C 5250   1.165  10.934   6.303  0.8688 -0.3979 -0.1779
  798MOL0     O 5251   1.354  10.767   6.505 -0.4266  0.8330 -0.0713
  798MOL0     C 5252   1.629  10.713   6.544  0.5704 -0.9868  0.2550
  798MOL0     C 5253   1.762  10.672   6.540  0.4927  0.0526 -0.2406
  798MOL0     N 5254   2.248  10.084   6.507  0.2392  0.0418 -0.1933
  798MOL0     N 5255   2.262   9.957   6.553 -0.1413  0.6146 -0.5391
  798MOL0     C 5256   2.406   9.194   6.739  0.3893 -0.0830 -0.3212
  798MOL0     C 5257   2.464   9.164   6.859 -0.1985  0.8027  0.1664
  798MOL0     C 5258   2.625   8.918   7.206 -0.2203 -0.6066 -0.2111
  798MOL0     C 5259   2.756   8.912   7.257  0.4267 -0.1939  0.0057
  798MOL0     C 5260   2.776   8.841   7.376  0.3378  0.4728  0.1610
  798MOL0     C 5261   2.679   8.783   7.451 -0.1842  0.2740 -0.4996
  798MOL0     O 5262   2.714   8.723   7.569  0.4808  0.2784  0.1845
  798MOL0     C 5263   2.609   8.668   7.648  1.0164  0.0963  0.4867
  798MOL0     C 5264   2.664   8.629   7.778 -0.0783 -0.0512  0.2591
  798MOL0     C 5265   2.559   8.573   7.870  0.2829  0.3636 -0.8935
  798MOL0     C 5266   2.604   8.551   8.014  0.3339  0.3620  0.0155
  798MOL0     C 5267   2.690   8.431   8.048 -1.1344  0.1590  0.8574
  798MOL0     C 5268   2.746   8.326   8.081  0.5515 -0.2451 -0.6413
  798MOL0     C 5269   2.546   8.799   7.402  0.4795  0.8169  0.1020
  798MOL0     C 5270   2.517   8.868   7.284  0.4686 -0.4855  0.4350
  798MOL0     H 5271   2.257   8.908   6.935  1.3072 -0.4396 -0.3341
  798MOL0     H 5272   2.167   8.954   6.725  3.0891 -2.1105  0.4775
  798MOL0     H 5273   2.227   8.969   6.489 -3.5378 -0.2559  1.6473
  798MOL0     H 5274   2.310   9.085   6.391 -0.0895 -0.0888  0.5655
  798MOL0     H 5275   2.004   9.140   6.449  0.6134  3.6012  0.6299
  798MOL0     H 5276   2.067   9.056   6.308  1.9645 -1.8861  0.9953
  798MOL0     H 5277   2.046   9.250   6.219 -0.6511  0.2700  0.4593
  798MOL0     H 5278   2.220   9.250   6.260  2.4083  3.4658  4.0916
  798MOL0     H 5279   2.025   9.387   6.423 -1.1167 -2.5565 -1.4196
  798MOL0     H 5280   2.191   9.390   6.453  1.2359 -1.6749 -0.1311
  798MOL0     H 5281   2.077   9.504   6.186  1.1204  3.2254 -1.9931
  798MOL0     H 5282   2.227   9.541   6.272 -0.1956 -3.1056 -0.9325
  798MOL0     H 5283   1.946   9.595   6.396 -0.4106  0.8930 -0.0425
  798MOL0     H 5284   2.029   9.721   6.304 -0.6000  0.1369 -1.5084
  798MOL0     H 5285   2.171   9.572   6.546  0.2896 -1.4317 -1.8113
  798MOL0     H 5286   2.247   9.688   6.452 -0.1071  2.0245 -0.5074
  798MOL0     H 5287   2.160   9.744   6.687 -1.2698 -0.7350  0.9616
  798MOL0     H 5288   1.997   9.763   6.608  1.2489 -1.5443 -0.5493
  798MOL0     H 5289   1.939   9.993   6.547 -0.4854  0.2205 -0.5357
  798MOL0     H 5290   1.936  10.228   6.505 -0.3716  0.0474 -0.6541
  798MOL0     H 5291   2.022  10.227   6.353 -0.6312 -0.8659  0.3875
  798MOL0     H 5292   2.195  10.365   6.525 -0.8064 -2.7543  0.5807
  798MOL0     H 5293   2.065  10.367   6.633  0.4853  3.1000 -0.0323
  798MOL0     H 5294   2.073  10.483   6.349  2.3496 -3.7903  0.9243
  798MOL0     H 5295   1.912  10.475   6.428 -0.4219  2.9828  0.9816
  798MOL0     H 5296   2.147  10.639   6.519  1.9311 -5.4598 -4.4256
  798MOL0     H 5297   1.991  10.630   6.605  0.0525  4.9122  0.6425
  798MOL0     H 5298   1.876  10.906   6.317  0.3776  0.7964 -0.7027
  798MOL0     H 5299   1.630  10.974   6.328  2.6437  1.7042 -0.5387
  798MOL0     H 5300   1.275  11.144   6.551 -1.5912 -0.3605  1.8146
  798MOL0     H 5301   1.049  11.222   6.531 -1.8615 -0.5173  0.0608
  798MOL0     H 5302   0.805  11.093   6.580  0.1271  1.1209 -0.1734
  798MOL0     H 5303   0.769  10.961   6.483 -0.7690  0.8205  3.8813
  798MOL0     H 5304   0.586  11.118   6.370  1.9512  2.9425 -1.3608
  798MOL0     H 5305   0.642  11.237   6.495 -0.6327  1.6863 -4.0142
  798MOL0     H 5306   0.577  11.078   6.684  1.2284 -1.1271 -0.1400
  798MOL0     H 5307   0.515  10.974   6.577 -1.6441  1.2873 -1.9124
  798MOL0     H 5308   0.346  11.101   6.694 -1.2925 -0.7782  0.0274
  798MOL0     H 5309   0.369  11.240   6.606 -3.7174  0.0776  0.5068
  798MOL0     H 5310   0.285  10.967   6.497  0.7489 -0.5476 -1.8751
  798MOL0     H 5311   0.362  11.086   6.389  0.5539 -2.8032 -0.2274
  798MOL0     H 5312   0.191  11.252   6.453  0.3649  1.0541  1.7488
  798MOL0     H 5313   0.111  11.127   6.552 -0.5167  1.3946 -0.1228
  798MOL0     H 5314  -0.017  11.091   6.358  0.8620  2.2518  2.4447
  798MOL0     H 5315   0.111  11.168   6.255 -0.8896 -0.7298 -1.6320
  798MOL0     H 5316   0.114  10.871   6.327 -4.0455 -0.9546 -2.8616
  798MOL0     H 5317   0.235  10.985   6.234 -0.2100  1.4926 -0.9596
  798MOL0     H 5318   0.952  10.916   6.247 -0.9921  1.4949  0.1236
  798MOL0     H 5319   1.193  10.852   6.238 -1.6293 -0.6441 -1.0499
  798MOL0     H 5320   1.567  10.644   6.600 -0.9704  0.4021  0.3586
  798MOL0     H 5321   1.779  10.573   6.582 -1.7696 -0.5448 -0.5600
  798MOL0     H 5322   2.462   9.275   6.694 -1.8570  2.0394  0.4496
  798MOL0     H 5323   2.546   9.216   6.907  1.5521 -0.9411 -0.7857
  798MOL0     H 5324   2.844   8.960   7.217 -0.7806  2.0389 -0.1401
  798MOL0     H 5325   2.878   8.835   7.411  0.4621  0.4374 -0.2060
  798MOL0     H 5326   2.570   8.584   7.590 -2.1511  1.3401  0.6490
  798MOL0     H 5327   2.533   8.744   7.666  0.6239 -0.6910  2.4208
  798MOL0     H 5328   2.746   8.557   7.775  0.3752  0.4020  1.5382
  798MOL0     H 5329   2.716   8.716   7.819  1.4424 -1.4514  1.4507
  798MOL0     H 5330   2.514   8.481   7.833  0.7003 -0.7587  1.2399
  798MOL0     H 5331   2.483   8.650   7.885  1.9418  1.7249  1.0763
  798MOL0     H 5332   2.656   8.643   8.042 -0.9607  0.7689  1.2384
  798MOL0     H 5333   2.511   8.540   8.071 -0.1523 -1.0969 -1.0070
  798MOL0     H 5334   2.779   8.238   8.132 -0.1364 -0.4985 -0.6195
  798MOL0     H 5335   2.465   8.762   7.464 -0.5891  0.3047 -1.5389
  798MOL0     H 5336   2.414   8.862   7.250  0.3619  3.1941 -0.2735
  799MOL0     O 5337   9.729   3.413   5.286  0.2596  1.0601  0.4106
  799MOL0     C 5338   9.845   3.412   5.253  0.3804  0.5082 -0.2566
  799MOL0     O 5339   9.915   3.303   5.224  1.0861 -1.1338  0.1154
  799MOL0     C 5340   9.860   3.179   5.206  0.4222 -0.1451  0.1724
  799MOL0     C 5341   9.943   3.064   5.234 -0.5149 -0.4196 -0.4271
  799MOL0     C 5342   9.887   2.938   5.216  0.9054  0.2072  0.0967
  799MOL0     C 5343   9.757   2.919   5.179 -0.6462  0.5377  0.1741
  799MOL0     O 5344   9.709   2.787   5.156 -0.0184 -0.5731 -0.3256
  799MOL0     C 5345   9.782   2.665   5.185 -1.0845 -0.0560 -1.0245
  799MOL0     C 5346   9.687   2.547   5.166 -1.1351 -0.4633  0.9311
  799MOL0     C 5347   9.739   2.418   5.228  0.6688 -0.2758  1.1237
  799MOL0     C 5348   9.676   2.291   5.170  0.1375  0.3270 -0.1943
  799MOL0     C 5349   9.721   2.152   5.225  0.0128 -0.2969  0.1973
  799MOL0     C 5350   9.880   2.144   5.214  0.0710 -0.6004 -0.4546
  799MOL0     C 5351   9.956   2.023   5.267 -0.1925  0.3364  0.0493
  799MOL0     C 5352   9.878   1.888   5.232 -0.1973 -0.5203 -0.9624
  799MOL0     N 5353   9.916   1.766   5.292 -0.6410 -0.0487  0.1790
  799MOL0     C 5354  10.007   1.685   5.230 -0.4638 -0.0902  0.6366
  799MOL0     C 5355  10.010   1.576   5.313 -0.3383  0.6544 -0.2496
  799MOL0     C 5356  10.084   1.450   5.295  0.0444  0.1193  0.3301
  799MOL0     C 5357  10.234   1.482   5.326 -1.2149  0.7777 -0.1388
  799MOL0     C 5358  10.337   1.369   5.272 -0.2057 -0.5006 -0.6406
  799MOL0     C 5359  10.333   1.237   5.358  0.4677  0.9606  0.1955
  799MOL0     O 5360  10.236   1.154   5.281  0.3755  0.0480 -0.0661
  799MOL0     C 5361  10.122   1.106   5.346 -0.8597  0.2343 -0.0516
  799MOL0     C 5362  10.003   1.133   5.282 -0.2205 -0.1241 -0.0886
  799MOL0     C 5363   9.881   1.108   5.352  0.3312 -0.8531 -0.3667
  799MOL0     C 5364   9.877   1.042   5.475  0.0463 -1.0001 -0.4240
  799MOL0     C 5365   9.742   1.010   5.527  0.4759  0.3684 -0.2657
  799MOL0     O 5366   9.750   0.915   5.620  0.3707 -0.9551 -0.8133
  799MOL0     C 5367   9.633   0.874   5.683  0.1728 -0.1634 -0.0154
  799MOL0     C 5368   9.627   0.848   5.815 -0.3153  0.7066 -1.0731
  799MOL0     C 5369   9.511   0.834   5.895  0.0055  0.4578  0.4914
  799MOL0     C 5370   9.392   0.818   5.826  0.6859  0.6126 -1.5269
  799MOL0     O 5371   9.284   0.761   5.891  0.6487 -0.8160 -0.5253
  799MOL0     C 5372   9.233   0.850   5.983  0.1836 -0.3789 -0.7625
  799MOL0     C 5373   9.083   0.869   5.958  0.4703 -0.1995 -0.2461
  799MOL0     C 5374   9.029   1.001   6.018  0.1814  0.9127 -1.1994
  799MOL0     C 5375   9.101   1.129   6.001  0.0948  0.6476  0.6138
  799MOL0     C 5376   9.031   1.237   6.075 -0.7684  0.3021 -0.6408
  799MOL0     C 5377   9.115   1.363   6.075  0.1111 -0.7017 -1.2208
  799MOL0     C 5378   9.249   1.333   6.142 -1.5600  0.1386 -0.0275
  799MOL0     C 5379   9.342   1.453   6.150 -0.0113 -0.3358 -1.4432
  799MOL0    Cl 5380   9.274   1.575   6.254 -0.0940 -0.1084 -0.5320
  799MOL0     C 5381   9.384   0.835   5.689  0.1695  0.4246 -0.3727
  799MOL0     C 5382   9.501   0.860   5.619 -1.2594 -0.0311 -0.4893
  799MOL0     O 5383   9.649   1.078   5.491 -0.2424 -0.7196  0.2726
  799MOL0     C 5384   9.994   1.012   5.540  1.4379 -0.3837  0.5848
  799MOL0     C 5385  10.118   1.042   5.467 -0.2571 -0.7529 -0.6285
  799MOL0     N 5386   9.910   1.580   5.406 -0.4841 -0.0127 -0.4281
  799MOL0     N 5387   9.857   1.696   5.393  0.1699 -0.2024 -0.1974
  799MOL0     C 5388   9.678   3.035   5.151  0.8599  0.4632  0.3353
  799MOL0     C 5389   9.729   3.163   5.163 -0.3901  0.1778 -0.4353
  799MOL0     C 5390   9.912   3.541   5.243  1.1393 -0.2494 -0.1130
  799MOL0     C 5391   9.850   3.659   5.281  0.6354  1.4442  0.1150
  799MOL0     C 5392   9.903   3.782   5.262 -0.9353 -0.4933 -0.0109
  799MOL0     C 5393  10.030   3.791   5.214 -0.9996 -0.9609 -0.2595
  799MOL0     O 5394  10.085   3.920   5.178 -0.1869  0.8543  0.1376
  799MOL0     C 5395  10.022   3.988   5.069 -0.0726  0.4903  0.2868
  799MOL0     C 5396  10.122   4.038   4.969  0.0654  0.2960 -0.5216
  799MOL0     C 5397  10.056   4.134   4.863 -0.0061 -0.5634  0.1838
  799MOL0     C 5398  10.040   4.279   4.909  0.4100 -1.0266  0.2258
  799MOL0     C 5399   9.956   4.350   4.812  0.2571  0.1287  0.5901
  799MOL0     C 5400   9.886   4.392   4.719  0.1730  0.1359 -0.1831
  799MOL0     C 5401  10.106   3.679   5.188 -0.5307 -0.7065  0.0907
  799MOL0     C 5402  10.043   3.557   5.202  0.5830 -0.3095  0.1740
  799MOL0     H 5403  10.044   3.076   5.270  1.1079 -4.4264 -2.8692
  799MOL0     H 5404   9.953   2.854   5.235 -0.4075 -0.6688  1.0139
  799MOL0     H 5405   9.823   2.666   5.286 -0.0140  1.3097 -1.4457
  799MOL0     H 5406   9.867   2.670   5.116  0.7341  2.2663  1.2032
  799MOL0     H 5407   9.665   2.526   5.061  0.8589 -0.6198  0.4954
  799MOL0     H 5408   9.596   2.577   5.219  0.5512  3.6552  1.8444
  799MOL0     H 5409   9.723   2.414   5.336 -0.1964  1.3765  1.0895
  799MOL0     H 5410   9.844   2.410   5.201  0.7319  1.7908  0.5651
  799MOL0     H 5411   9.573   2.295   5.206  0.7078 -0.8929  1.7082
  799MOL0     H 5412   9.694   2.287   5.062  0.6027  2.2171 -0.2286
  799MOL0     H 5413   9.661   2.081   5.168 -0.0967  0.5344 -0.7481
  799MOL0     H 5414   9.689   2.154   5.330 -0.3914  0.4730  0.0665
  799MOL0     H 5415   9.915   2.236   5.261 -1.8424  1.0754 -2.1118
  799MOL0     H 5416   9.902   2.164   5.109  0.2656  1.7716 -0.0117
  799MOL0     H 5417  10.053   2.025   5.216 -1.5749  1.3837 -2.7308
  799MOL0     H 5418   9.983   2.042   5.371 -2.1582 -3.3106  1.4096
  799MOL0     H 5419   9.870   1.874   5.124 -1.8869  1.0966 -1.1080
  799MOL0     H 5420   9.771   1.892   5.253  0.1692 -1.2250  1.3326
  799MOL0     H 5421  10.068   1.713   5.145 -0.1082  0.3569  1.0360
  799MOL0     H 5422  10.089   1.410   5.194  1.3166 -2.4077  1.2825
  799MOL0     H 5423  10.039   1.375   5.361 -2.8236  0.4726 -1.1105
  799MOL0     H 5424  10.258   1.502   5.431  2.4480 -0.9923 -0.4918
  799MOL0     H 5425  10.254   1.576   5.274 -5.4640  1.3966 -1.0885
  799MOL0     H 5426  10.321   1.353   5.165  0.3766  3.7721 -1.5414
  799MOL0     H 5427  10.438   1.408   5.260 -1.2233  2.9739  0.8061
  799MOL0     H 5428  10.318   1.263   5.463  1.6029  1.1551  0.3237
  799MOL0     H 5429  10.431   1.187   5.353 -0.2175 -0.2977 -1.4735
  799MOL0     H 5430  10.012   1.183   5.186  1.2796 -1.9503 -0.9682
  799MOL0     H 5431   9.795   1.133   5.291  0.7227  1.9173  0.0498
  799MOL0     H 5432   9.720   0.857   5.869 -0.1340  0.0635 -1.2693
  799MOL0     H 5433   9.512   0.801   5.999  3.8330  1.4618  0.9136
  799MOL0     H 5434   9.295   0.940   5.987  1.0401 -1.0138  1.1864
  799MOL0     H 5435   9.241   0.811   6.085  0.9278  1.5369 -0.0345
  799MOL0     H 5436   9.023   0.781   5.982  0.7988 -1.1700 -2.6611
  799MOL0     H 5437   9.069   0.874   5.850  1.4328 -1.0388 -0.4242
  799MOL0     H 5438   9.007   0.985   6.124 -3.2040  1.9195 -1.6209
  799MOL0     H 5439   8.931   1.018   5.972  0.2843  1.8894 -1.0975
  799MOL0     H 5440   9.205   1.122   6.034  0.6208 -1.8946 -1.2695
  799MOL0     H 5441   9.114   1.155   5.896 -0.8176  0.9180  0.5576
  799MOL0     H 5442   9.011   1.204   6.178  0.0019  5.1369  1.3174
  799MOL0     H 5443   8.935   1.269   6.034 -1.3771 -0.5192  0.0915
  799MOL0     H 5444   9.073   1.448   6.130  3.4005  1.5698 -1.8599
  799MOL0     H 5445   9.135   1.398   5.973 -2.1859 -2.9232 -2.5443
  799MOL0     H 5446   9.242   1.281   6.238 -0.0888 -1.3863 -0.6831
  799MOL0     H 5447   9.307   1.273   6.071 -0.5096  2.0893 -0.8655
  799MOL0     H 5448   9.359   1.499   6.052 -0.3489  0.7801 -0.9948
  799MOL0     H 5449   9.437   1.425   6.194  0.5868 -0.3928 -2.7218
  799MOL0     H 5450   9.295   0.835   5.626  0.5679 -2.9549 -1.1359
  799MOL0     H 5451   9.496   0.879   5.512 -1.2431  2.1394 -0.1521
  799MOL0     H 5452  10.003   0.969   5.639  3.4164 -0.0670  0.5828
  799MOL0     H 5453  10.213   1.018   5.514  1.1482  3.2444 -1.0440
  799MOL0     H 5454   9.581   3.020   5.104  0.2876 -1.1900  1.9073
  799MOL0     H 5455   9.666   3.249   5.141 -0.9413 -0.1148 -0.0182
  799MOL0     H 5456   9.756   3.647   5.333  0.1617  0.6655 -0.8910
  799MOL0     H 5457   9.846   3.871   5.287  3.8441  2.8909  0.3841
  799MOL0     H 5458   9.970   4.072   5.115  1.4926  2.1893 -0.8851
  799MOL0     H 5459   9.947   3.925   5.020 -2.3625 -0.9723  5.1053
  799MOL0     H 5460  10.200   4.096   5.019 -1.1618 -0.0985  1.9752
  799MOL0     H 5461  10.168   3.955   4.913  1.4162  0.1090  0.8035
  799MOL0     H 5462   9.966   4.087   4.820 -2.2454  1.0170  2.7907
  799MOL0     H 5463  10.125   4.144   4.778  2.2504 -1.0223  1.8753
  799MOL0     H 5464   9.978   4.283   4.999 -1.5850 -0.8064 -1.0968
  799MOL0     H 5465  10.135   4.329   4.931  0.0021 -0.8376  1.6615
  799MOL0     H 5466   9.834   4.410   4.627  0.3971  1.2233 -0.1068
  799MOL0     H 5467  10.204   3.687   5.142 -1.1687  0.7160 -1.0946
  799MOL0     H 5468  10.104   3.476   5.164  1.6009  0.1677  0.7336
  800MOL0     O 5469   6.595   1.054   3.736 -0.2311 -0.3600 -0.6522
  800MOL0     C 5470   6.491   1.088   3.673  0.2421  0.0837  0.0523
  800MOL0     O 5471   6.487   1.100   3.541 -0.8032 -1.0273 -0.1688
  800MOL0     C 5472   6.599   1.115   3.452 -0.2365  0.1895  0.0450
  800MOL0     C 5473   6.571   1.089   3.317 -0.4142 -0.9299  0.9726
  800MOL0     C 5474   6.658   1.126   3.216  0.6967  0.0984 -0.2138
  800MOL0     C 5475   6.787   1.147   3.250 -0.5412  0.5873 -0.2181
  800MOL0     O 5476   6.872   1.167   3.146  0.3511 -0.8332  0.0223
  800MOL0     C 5477   6.993   1.243   3.160 -0.3922  0.2926  0.2204
  800MOL0     C 5478   7.040   1.293   3.021 -0.9476 -0.0487  0.0445
  800MOL0     C 5479   7.102   1.170   2.946  0.7510  0.6133  0.9039
  800MOL0     C 5480   7.236   1.112   3.008 -0.4256 -0.8264  0.5274
  800MOL0     C 5481   7.290   0.982   2.930  0.0738  0.8823 -0.8944
  800MOL0     C 5482   7.414   0.926   3.002  0.8505 -0.5948  0.6186
  800MOL0     C 5483   7.479   0.831   2.913  0.2205 -1.1131  0.2208
  800MOL0     C 5484   7.609   0.770   2.965 -0.5547  0.2807 -0.6246
  800MOL0     N 5485   7.672   0.686   2.863  0.5132 -0.0868 -0.4397
  800MOL0     C 5486   7.619   0.565   2.822 -0.4700 -0.2606  0.6551
  800MOL0     C 5487   7.689   0.533   2.715 -0.5655 -0.2368 -0.2414
  800MOL0     C 5488   7.668   0.400   2.649  0.3508  0.0518  0.4590
  800MOL0     C 5489   7.768   0.368   2.522  0.5972  0.4599 -1.3987
  800MOL0     C 5490   7.911   0.338   2.570  0.4972  0.3637 -0.4629
  800MOL0     C 5491   7.935   0.193   2.591 -1.1552  1.1570 -0.9661
  800MOL0     O 5492   7.953   0.121   2.464 -1.3597  1.1294 -0.7084
  800MOL0     C 5493   7.956  -0.020   2.458  0.5792 -0.5734  0.0823
  800MOL0     C 5494   7.953  -0.080   2.327 -0.2751  0.2566 -0.2228
  800MOL0     C 5495   7.967  -0.222   2.315 -0.5963 -0.0922 -0.2663
  800MOL0     C 5496   7.968  -0.302   2.433 -0.1134 -1.0444 -0.0818
  800MOL0     C 5497   7.938  -0.450   2.410  0.0151 -0.0702 -0.0297
  800MOL0     O 5498   7.916  -0.497   2.279 -0.5796 -0.4193 -0.3595
  800MOL0     C 5499   7.857  -0.614   2.265 -0.6683 -0.0885 -0.5960
  800MOL0     C 5500   7.885  -0.730   2.336 -0.4473 -0.0559  0.6358
  800MOL0     C 5501   7.801  -0.840   2.332  0.3486 -0.2684 -0.0580
  800MOL0     C 5502   7.693  -0.839   2.244  0.5307 -0.2018 -0.0487
  800MOL0     O 5503   7.610  -0.949   2.241  0.0452  0.6699  0.3731
  800MOL0     C 5504   7.559  -0.991   2.108  0.3082  0.7465  0.1784
  800MOL0     C 5505   7.489  -1.130   2.118  0.0706  0.6932 -0.4618
  800MOL0     C 5506   7.546  -1.221   2.223  0.0098  0.8718 -0.7015
  800MOL0     C 5507   7.487  -1.366   2.237 -0.8252 -0.5811 -0.1387
  800MOL0     C 5508   7.334  -1.382   2.237 -0.4792  0.3821 -0.0043
  800MOL0     C 5509   7.288  -1.533   2.217 -0.7549 -0.5488  0.3339
  800MOL0     C 5510   7.352  -1.634   2.315  0.2191  0.7874  0.7164
  800MOL0     C 5511   7.259  -1.744   2.370 -0.2198 -0.6858  0.1221
  800MOL0    Cl 5512   7.185  -1.857   2.234 -0.0751 -0.1232 -0.2102
  800MOL0     C 5513   7.675  -0.736   2.157 -0.6432  0.5903  0.3472
  800MOL0     C 5514   7.760  -0.628   2.171  0.0585 -0.8214 -0.1954
  800MOL0     O 5515   7.887  -0.502   2.516 -0.0575  0.3796  0.0393
  800MOL0     C 5516   7.973  -0.237   2.558  0.4696 -0.3795 -0.3486
  800MOL0     C 5517   7.964  -0.098   2.571  0.5802  1.0707  0.3192
  800MOL0     N 5518   7.791   0.626   2.701  0.8788  0.1900  0.8309
  800MOL0     N 5519   7.770   0.723   2.775 -0.0082  0.2450 -0.6211
  800MOL0     C 5520   6.826   1.153   3.385  0.8487 -0.4022 -0.2702
  800MOL0     C 5521   6.729   1.146   3.489 -0.1498 -0.1572  0.2997
  800MOL0     C 5522   6.373   1.119   3.767  0.5184  0.3565  0.5322
  800MOL0     C 5523   6.254   1.164   3.712 -0.5337 -0.3090 -0.2659
  800MOL0     C 5524   6.147   1.204   3.798  0.0484 -0.5171  0.8316
  800MOL0     C 5525   6.153   1.195   3.927  0.7468  0.4497 -0.1489
  800MOL0     O 5526   6.058   1.224   4.017  0.2889 -0.3428  0.0894
  800MOL0     C 5527   5.938   1.301   3.986  0.6657  0.1324 -0.4366
  800MOL0     C 5528   5.824   1.222   3.941 -0.1093 -0.0152  0.2925
  800MOL0     C 5529   5.809   1.086   3.999 -0.0810 -0.7396 -0.0411
  800MOL0     C 5530   5.749   1.069   4.139  0.2807 -0.8358  0.0358
  800MOL0     C 5531   5.604   1.119   4.134 -0.4261 -1.2719  0.0832
  800MOL0     C 5532   5.489   1.159   4.136 -0.8358 -0.0537 -0.3432
  800MOL0     C 5533   6.269   1.141   3.981  0.6973 -0.2202 -1.1731
  800MOL0     C 5534   6.382   1.109   3.907  0.0836  0.9093  1.0676
  800MOL0     H 5535   6.471   1.062   3.285 -1.8329  2.7700  1.7737
  800MOL0     H 5536   6.617   1.109   3.117  1.3497 -1.0964 -0.2965
  800MOL0     H 5537   7.075   1.189   3.209  0.4311  1.1941 -0.1380
  800MOL0     H 5538   6.972   1.328   3.224  0.4720 -0.9917  2.3071
  800MOL0     H 5539   7.120   1.367   3.034  1.7495 -2.5455 -1.0901
  800MOL0     H 5540   6.949   1.331   2.974 -0.2371 -0.1592 -1.4611
  800MOL0     H 5541   7.117   1.210   2.845 -0.7164 -0.5398  0.1864
  800MOL0     H 5542   7.031   1.088   2.932  1.4708 -0.1084  1.4499
  800MOL0     H 5543   7.307   1.194   2.993 -0.5604 -1.2251 -3.2623
  800MOL0     H 5544   7.224   1.088   3.114  3.9015 -3.1643  0.7140
  800MOL0     H 5545   7.331   1.013   2.833  2.5594 -0.2892 -0.2948
  800MOL0     H 5546   7.209   0.909   2.925  0.2590  0.7653 -3.0302
  800MOL0     H 5547   7.375   0.879   3.092 -1.2395 -2.1956 -1.0386
  800MOL0     H 5548   7.488   1.007   3.001  1.8484 -1.4396 -1.6820
  800MOL0     H 5549   7.413   0.750   2.882  0.5397 -2.9904  3.9305
  800MOL0     H 5550   7.497   0.890   2.822  1.7319  0.8722  1.7175
  800MOL0     H 5551   7.583   0.703   3.047  0.0273  0.6860 -0.0979
  800MOL0     H 5552   7.677   0.846   3.005  0.6454 -2.5064  3.2112
  800MOL0     H 5553   7.542   0.503   2.867  0.4440 -1.2389  0.9364
  800MOL0     H 5554   7.568   0.386   2.607  0.1559 -2.8698  1.5878
  800MOL0     H 5555   7.679   0.320   2.723  2.1817 -0.8197 -0.6896
  800MOL0     H 5556   7.768   0.451   2.451  1.4355  1.3952 -0.3659
  800MOL0     H 5557   7.740   0.285   2.457 -1.2144  0.8014 -1.0982
  800MOL0     H 5558   7.980   0.373   2.493  2.0597  2.4251  1.7155
  800MOL0     H 5559   7.925   0.396   2.662 -3.7947 -1.5442  1.6251
  800MOL0     H 5560   7.846   0.163   2.648 -0.4965 -1.7601 -1.3157
  800MOL0     H 5561   8.026   0.182   2.651 -1.3516  0.0337 -0.8595
  800MOL0     H 5562   7.933  -0.023   2.237 -1.2532 -0.0906 -0.2419
  800MOL0     H 5563   7.967  -0.273   2.220  0.7753 -1.6859  0.5359
  800MOL0     H 5564   7.966  -0.723   2.408 -0.0476 -0.2726  0.2080
  800MOL0     H 5565   7.808  -0.926   2.398 -0.5432  0.5700  1.1876
  800MOL0     H 5566   7.631  -1.012   2.029 -1.6295 -0.4567 -1.3546
  800MOL0     H 5567   7.485  -0.917   2.077  1.5746  2.6904  1.5833
  800MOL0     H 5568   7.461  -1.180   2.025 -2.1442 -2.2660  1.5982
  800MOL0     H 5569   7.384  -1.116   2.147 -0.3661 -0.5859 -1.3531
  800MOL0     H 5570   7.533  -1.163   2.314  0.7817 -0.8381  0.5452
  800MOL0     H 5571   7.655  -1.231   2.212  0.3356 -0.5470  2.8257
  800MOL0     H 5572   7.506  -1.418   2.143 -1.7052  0.0819 -0.7005
  800MOL0     H 5573   7.526  -1.414   2.328 -1.9761  1.3617  1.4578
  800MOL0     H 5574   7.300  -1.324   2.151  0.2431 -0.5310 -0.9451
  800MOL0     H 5575   7.282  -1.348   2.327 -2.1709  0.1835 -0.8799
  800MOL0     H 5576   7.299  -1.572   2.116 -3.0234 -1.7570  0.4736
  800MOL0     H 5577   7.179  -1.528   2.226 -0.8326  0.4415 -0.9575
  800MOL0     H 5578   7.432  -1.686   2.261  0.6742  1.6501  0.5322
  800MOL0     H 5579   7.404  -1.573   2.390  2.2630  1.5275 -1.1779
  800MOL0     H 5580   7.176  -1.684   2.410  1.1709  3.0186 -2.0427
  800MOL0     H 5581   7.307  -1.804   2.448  1.3228  2.0903  1.4605
  800MOL0     H 5582   7.600  -0.722   2.080  1.6125  2.8616 -1.6125
  800MOL0     H 5583   7.743  -0.543   2.105  1.5803 -0.7348 -0.5135
  800MOL0     H 5584   7.985  -0.280   2.657 -3.1676 -2.7452 -0.7092
  800MOL0     H 5585   7.965  -0.067   2.676 -4.8109  0.8789  0.7056
  800MOL0     H 5586   6.931   1.173   3.403  0.6356  0.8152 -0.3209
  800MOL0     H 5587   6.766   1.161   3.590  0.8747 -0.9660  0.0648
  800MOL0     H 5588   6.249   1.178   3.605 -0.7116  0.1937 -0.1962
  800MOL0     H 5589   6.064   1.245   3.741  0.0836  0.9315  1.7534
  800MOL0     H 5590   5.960   1.384   3.918  0.2046  0.4750 -0.1826
  800MOL0     H 5591   5.906   1.340   4.084  0.6319 -0.3904 -0.2394
  800MOL0     H 5592   5.726   1.269   3.939 -0.8958 -1.4993  1.3274
  800MOL0     H 5593   5.842   1.203   3.835 -1.2756  1.8511 -0.2797
  800MOL0     H 5594   5.905   1.033   3.994 -0.6475 -1.7508 -0.6988
  800MOL0     H 5595   5.738   1.033   3.936 -0.6551  0.5746 -0.5236
  800MOL0     H 5596   5.760   0.965   4.170 -0.1338 -0.6236  0.9243
  800MOL0     H 5597   5.802   1.126   4.216  3.5516 -2.2371 -0.9682
  800MOL0     H 5598   5.389   1.194   4.147  0.0158  2.1690  0.8827
  800MOL0     H 5599   6.283   1.145   4.088  0.1587 -3.2740 -0.9002
  800MOL0     H 5600   6.467   1.070   3.963  1.0369  2.6485  0.9002
  801MOL0     O 5601   4.907   8.542   3.579  0.5470 -0.6308  0.1131
  801MOL0     C 5602   4.995   8.613   3.617  1.2555 -0.6911  0.0854
  801MOL0     O 5603   5.072   8.695   3.543  0.4585 -0.0851  1.1567
  801MOL0     C 5604   5.066   8.704   3.408  0.5047 -0.6294 -0.2509
  801MOL0     C 5605   5.054   8.837   3.361  0.6835 -0.3497  1.3006
  801MOL0     C 5606   5.029   8.858   3.224 -0.4347 -0.6110 -0.3634
  801MOL0     C 5607   5.023   8.742   3.135 -0.1161 -0.4383 -0.3216
  801MOL0     O 5608   4.987   8.756   2.997  0.6302  0.3869 -0.0209
  801MOL0     C 5609   4.849   8.749   2.961  0.1311  0.5736  0.0384
  801MOL0     C 5610   4.831   8.804   2.821 -0.0924  0.8941  0.7169
  801MOL0     C 5611   4.831   8.952   2.823 -0.4490 -0.1756 -0.2329
  801MOL0     C 5612   4.694   9.008   2.856 -0.3693 -0.0406 -0.2972
  801MOL0     C 5613   4.576   8.958   2.776  1.2165 -0.0237  0.3930
  801MOL0     C 5614   4.453   9.012   2.835  0.5321 -0.3751 -0.0462
  801MOL0     C 5615   4.386   8.936   2.957 -0.2699 -0.5460  0.6047
  801MOL0     C 5616   4.264   8.849   2.928 -0.9144  0.1249  0.8191
  801MOL0     N 5617   4.134   8.914   2.899  0.2612  0.3306 -0.0358
  801MOL0     C 5618   4.077   9.026   2.962 -0.9180  0.1654  1.3026
  801MOL0     C 5619   3.973   9.069   2.883 -0.9179 -0.2982  0.2925
  801MOL0     C 5620   3.880   9.189   2.882 -0.2337 -1.1518  0.3992
  801MOL0     C 5621   3.771   9.182   2.980  0.5249 -0.3489  0.0606
  801MOL0     C 5622   3.671   9.064   2.953  0.5583 -0.1117  0.0832
  801MOL0     C 5623   3.583   9.075   2.825 -0.0936 -0.8439 -0.5035
  801MOL0     O 5624   3.482   9.180   2.848  0.1478 -0.2018 -0.1227
  801MOL0     C 5625   3.386   9.200   2.760  0.0707 -0.0159  0.0122
  801MOL0     C 5626   3.274   9.288   2.791  0.0036 -0.6973 -0.2823
  801MOL0     C 5627   3.168   9.297   2.701 -0.0957  0.8935  1.1543
  801MOL0     C 5628   3.169   9.230   2.569  0.4062 -1.1136 -0.1532
  801MOL0     C 5629   3.048   9.242   2.488 -0.6258  0.5340  0.2798
  801MOL0     O 5630   2.949   9.316   2.522  0.1769 -0.2488  0.1143
  801MOL0     C 5631   2.850   9.327   2.433 -0.1993 -0.7435  0.4112
  801MOL0     C 5632   2.860   9.421   2.328 -0.5056  1.1529 -0.1224
  801MOL0     C 5633   2.748   9.447   2.248 -0.9365  0.2688  0.2707
  801MOL0     C 5634   2.620   9.393   2.281  0.5168 -0.6623  0.9157
  801MOL0     O 5635   2.519   9.433   2.189 -0.1459  0.2421 -0.6071
  801MOL0     C 5636   2.385   9.391   2.204 -0.2567 -0.3187  0.1724
  801MOL0     C 5637   2.304   9.418   2.080  0.8945  0.1130 -0.0798
  801MOL0     C 5638   2.300   9.566   2.033 -1.3381  0.1972 -0.0176
  801MOL0     C 5639   2.188   9.576   1.934  1.0339 -0.3690  0.5127
  801MOL0     C 5640   2.164   9.723   1.890 -0.7201  1.4216  0.0496
  801MOL0     C 5641   2.109   9.794   2.011  0.5921  0.3628  0.8667
  801MOL0     C 5642   2.049   9.926   1.978  0.2056  0.4998  0.2883
  801MOL0     C 5643   1.955   9.974   2.089 -0.4865 -0.5660 -0.7901
  801MOL0    Cl 5644   1.812   9.858   2.085  0.4915 -0.6477  0.1102
  801MOL0     C 5645   2.603   9.308   2.390 -0.0912  0.2776 -1.0200
  801MOL0     C 5646   2.723   9.275   2.464 -0.8524  0.0156 -0.3665
  801MOL0     O 5647   3.057   9.172   2.387  0.5128  0.1208 -0.1463
  801MOL0     C 5648   3.291   9.167   2.534  0.2274 -0.6104 -0.3358
  801MOL0     C 5649   3.391   9.147   2.629 -1.4118  0.2482  0.4052
  801MOL0     N 5650   3.967   8.982   2.774  0.6716  0.0905  1.1001
  801MOL0     N 5651   4.071   8.908   2.774 -0.3606 -0.3788 -0.6791
  801MOL0     C 5652   5.047   8.620   3.177 -0.1213  0.2243 -0.3513
  801MOL0     C 5653   5.068   8.592   3.314 -1.0221 -0.0236 -0.0262
  801MOL0     C 5654   5.037   8.612   3.760  0.6834 -0.0180 -0.8683
  801MOL0     C 5655   4.937   8.560   3.854  0.2372  0.4003  0.3525
  801MOL0     C 5656   4.974   8.551   3.991 -0.3410  0.2808 -0.0536
  801MOL0     C 5657   5.086   8.608   4.045 -0.6217  0.3772  1.2052
  801MOL0     O 5658   5.106   8.601   4.179  0.5912 -0.4196  0.6664
  801MOL0     C 5659   5.207   8.507   4.229 -0.1043  0.0386  0.4819
  801MOL0     C 5660   5.248   8.566   4.360 -0.0444 -0.0600 -0.1792
  801MOL0     C 5661   5.314   8.467   4.454  0.3349 -0.0167  0.1093
  801MOL0     C 5662   5.294   8.313   4.436  0.4755 -0.6419  0.0586
  801MOL0     C 5663   5.156   8.282   4.471  0.2564 -1.6240 -1.1920
  801MOL0     C 5664   5.037   8.264   4.501 -0.2825  0.6230  0.5517
  801MOL0     C 5665   5.176   8.676   3.957 -1.3359  0.1508  0.1738
  801MOL0     C 5666   5.159   8.666   3.812  0.2180 -0.2020  0.3510
  801MOL0     H 5667   5.043   8.922   3.427  0.3858  0.4045  0.3107
  801MOL0     H 5668   5.021   8.961   3.190 -0.5694  0.5322  2.7943
  801MOL0     H 5669   4.778   8.793   3.032 -0.0520 -1.1041  0.9428
  801MOL0     H 5670   4.820   8.643   2.960  3.0519 -0.3162  0.9563
  801MOL0     H 5671   4.748   8.765   2.762 -0.0016  0.5921  0.7874
  801MOL0     H 5672   4.920   8.771   2.766 -1.8692 -0.7642 -1.3307
  801MOL0     H 5673   4.862   8.981   2.722  3.9022 -4.9780 -0.6783
  801MOL0     H 5674   4.900   8.998   2.895 -2.4133 -0.1481  1.7595
  801MOL0     H 5675   4.673   8.982   2.960 -2.4448 -0.3034 -0.7271
  801MOL0     H 5676   4.692   9.115   2.836 -4.5549 -0.0233 -0.6460
  801MOL0     H 5677   4.574   8.852   2.804  3.8834 -0.6497 -1.3840
  801MOL0     H 5678   4.585   8.976   2.669  0.6054  2.1948  0.6704
  801MOL0     H 5679   4.384   8.989   2.754 -1.7858  0.8703  1.4705
  801MOL0     H 5680   4.452   9.120   2.849 -2.3993 -0.7260  4.6132
  801MOL0     H 5681   4.456   8.866   3.003 -1.3413 -1.0826  1.4749
  801MOL0     H 5682   4.363   9.016   3.028 -2.1145  0.1593 -0.7113
  801MOL0     H 5683   4.256   8.790   3.019 -1.2432 -1.2656 -0.0692
  801MOL0     H 5684   4.295   8.775   2.852 -2.9969 -1.9332  1.8331
  801MOL0     H 5685   4.129   9.078   3.041  2.6685 -2.5872  1.0013
  801MOL0     H 5686   3.846   9.208   2.779 -0.2548 -0.7728  0.4750
  801MOL0     H 5687   3.925   9.285   2.911  0.5383 -1.1800 -0.6268
  801MOL0     H 5688   3.719   9.279   2.982 -0.5555 -0.8474 -1.8282
  801MOL0     H 5689   3.810   9.153   3.078 -0.1015  1.0669  0.7616
  801MOL0     H 5690   3.728   8.970   2.949 -1.5194 -1.3890 -1.7573
  801MOL0     H 5691   3.606   9.052   3.040 -1.3040  1.9909 -0.9375
  801MOL0     H 5692   3.541   8.978   2.798  0.4140 -1.2097 -0.0039
  801MOL0     H 5693   3.650   9.114   2.748  0.4090  2.1391  1.2765
  801MOL0     H 5694   3.270   9.337   2.887 -0.8965  2.1973 -1.6705
  801MOL0     H 5695   3.080   9.347   2.742 -1.2390 -1.2480  1.4687
  801MOL0     H 5696   2.945   9.489   2.330 -1.7201  2.8264  3.2216
  801MOL0     H 5697   2.771   9.520   2.171 -2.0519 -0.0061 -0.3460
  801MOL0     H 5698   2.346   9.436   2.296  0.3503 -1.7480  1.1673
  801MOL0     H 5699   2.383   9.283   2.223  0.2680 -0.3315  0.1609
  801MOL0     H 5700   2.202   9.379   2.090  0.7853  0.1166 -1.0328
  801MOL0     H 5701   2.366   9.368   2.004 -0.1439 -1.6636  0.1851
  801MOL0     H 5702   2.394   9.601   1.988  0.0579 -1.5628  1.3297
  801MOL0     H 5703   2.287   9.630   2.120 -2.0912 -3.3521  2.7043
  801MOL0     H 5704   2.191   9.508   1.849 -0.6635 -1.1173  1.0054
  801MOL0     H 5705   2.101   9.551   1.996 -0.8713 -1.6849 -2.4328
  801MOL0     H 5706   2.086   9.715   1.814 -0.7377 -1.4579  0.2799
  801MOL0     H 5707   2.256   9.772   1.856  0.7602 -0.9274  0.4081
  801MOL0     H 5708   2.190   9.815   2.081  0.1326  2.4506  0.8377
  801MOL0     H 5709   2.029   9.732   2.055  0.5949 -1.4562 -1.4910
  801MOL0     H 5710   2.111  10.016   1.985 -1.1927  1.6714 -1.4251
  801MOL0     H 5711   1.991   9.918   1.886  1.1650  2.4053 -0.5439
  801MOL0     H 5712   1.913  10.073   2.073  2.7324  0.8288 -1.2350
  801MOL0     H 5713   2.000   9.963   2.189 -1.1261 -1.0646 -0.5422
  801MOL0     H 5714   2.507   9.264   2.417  1.4067 -2.5280  0.1897
  801MOL0     H 5715   2.712   9.216   2.554  1.0504 -0.0797 -0.1572
  801MOL0     H 5716   3.296   9.116   2.439  0.5110 -0.4658 -0.3974
  801MOL0     H 5717   3.476   9.096   2.584 -1.8871 -0.3790  0.2140
  801MOL0     H 5718   5.056   8.541   3.103  5.7133  0.2008 -0.0851
  801MOL0     H 5719   5.085   8.486   3.333  0.6219  0.0315 -0.9665
  801MOL0     H 5720   4.839   8.518   3.832 -0.2741  1.0044  1.3677
  801MOL0     H 5721   4.908   8.506   4.064 -0.7256  0.0258 -0.5545
  801MOL0     H 5722   5.303   8.517   4.177  0.6810 -2.5076  1.3240
  801MOL0     H 5723   5.160   8.409   4.231 -3.2118  1.2716 -2.3703
  801MOL0     H 5724   5.298   8.661   4.338 -0.6604  0.4415  0.5131
  801MOL0     H 5725   5.155   8.593   4.410  0.5077  1.8273 -0.0693
  801MOL0     H 5726   5.284   8.500   4.554  3.4044  1.5683  0.6084
  801MOL0     H 5727   5.422   8.480   4.444  0.5875 -2.2404 -0.5363
  801MOL0     H 5728   5.314   8.281   4.333  0.2685  0.8074 -0.4502
  801MOL0     H 5729   5.359   8.264   4.508  1.7781 -1.9969 -1.9199
  801MOL0     H 5730   4.949   8.244   4.559 -0.2087  0.5420  0.6355
  801MOL0     H 5731   5.254   8.742   3.991  1.5298 -1.3391 -2.9290
  801MOL0     H 5732   5.230   8.695   3.736  1.8867  1.2299  2.3578
  802MOL0     O 5733   7.312   0.367   2.740  0.1356 -0.5322 -0.0865
  802MOL0     C 5734   7.205   0.311   2.777 -0.2029 -0.1948 -0.2927
  802MOL0     O 5735   7.149   0.322   2.903 -0.0719  0.3440  0.8907
  802MOL0     C 5736   7.210   0.412   2.984 -0.2236 -0.1314  0.5432
  802MOL0     C 5737   7.132   0.534   3.009 -0.2216 -0.6781 -0.1356
  802MOL0     C 5738   7.181   0.625   3.102 -0.2042 -0.0261  0.7571
  802MOL0     C 5739   7.296   0.599   3.170  0.3305  0.6618 -0.0234
  802MOL0     O 5740   7.341   0.673   3.277 -0.2404 -0.3393 -0.0295
  802MOL0     C 5741   7.274   0.781   3.339  0.2285  0.3373 -1.0076
  802MOL0     C 5742   7.324   0.811   3.484  0.4205 -0.1967 -0.7649
  802MOL0     C 5743   7.236   0.926   3.555  0.0530 -0.3739 -0.4881
  802MOL0     C 5744   7.090   0.888   3.581  1.0654 -0.3216  0.7556
  802MOL0     C 5745   7.044   0.975   3.703  0.1890 -0.3012 -0.6156
  802MOL0     C 5746   6.908   0.915   3.751 -1.2690 -0.8773  0.1959
  802MOL0     C 5747   6.875   0.968   3.894 -0.3837  0.6757 -0.0070
  802MOL0     C 5748   6.984   0.943   3.998 -0.6382  0.6791 -0.0564
  802MOL0     N 5749   7.037   0.797   4.006  0.9467 -0.4191  0.3426
  802MOL0     C 5750   6.954   0.694   4.020  0.2954  0.2422  0.5937
  802MOL0     C 5751   7.010   0.590   3.957  0.9298 -0.5481 -1.1041
  802MOL0     C 5752   6.945   0.452   3.913  0.2020 -1.1316  0.0979
  802MOL0     C 5753   6.829   0.494   3.815 -0.2217 -0.5002  0.7068
  802MOL0     C 5754   6.881   0.520   3.675 -0.0520  0.2663  1.2728
  802MOL0     C 5755   6.779   0.593   3.595 -0.0221  1.0731 -0.6360
  802MOL0     O 5756   6.813   0.552   3.460  0.2938  0.2567  0.8812
  802MOL0     C 5757   6.736   0.589   3.347 -1.3265  0.1286 -1.5617
  802MOL0     C 5758   6.750   0.522   3.224 -0.0529  0.0801  0.2832
  802MOL0     C 5759   6.670   0.554   3.113  0.5662 -1.0813  0.6946
  802MOL0     C 5760   6.574   0.656   3.125 -0.8677  0.3827 -0.1085
  802MOL0     C 5761   6.500   0.690   3.012  0.4437  0.2875  0.1217
  802MOL0     O 5762   6.410   0.784   3.034  0.7112  0.1445  0.0136
  802MOL0     C 5763   6.297   0.808   2.955 -0.0088  0.5339 -0.4141
  802MOL0     C 5764   6.244   0.719   2.858 -0.6336 -0.3415  0.8795
  802MOL0     C 5765   6.116   0.748   2.798 -0.3553  0.1482 -0.5941
  802MOL0     C 5766   6.049   0.873   2.816  0.0720 -0.0695 -0.8953
  802MOL0     O 5767   5.928   0.881   2.754 -1.0085 -0.8587  0.4086
  802MOL0     C 5768   5.808   0.913   2.836  0.1206 -0.4595  0.3177
  802MOL0     C 5769   5.688   0.841   2.783  0.2890 -0.1295 -0.0568
  802MOL0     C 5770   5.697   0.699   2.835  1.4937  0.6668  1.1932
  802MOL0     C 5771   5.581   0.618   2.773  0.1423  0.2096 -0.5855
  802MOL0     C 5772   5.463   0.605   2.865 -0.5314  0.5585 -0.3581
  802MOL0     C 5773   5.366   0.511   2.797  0.1964  0.0271  0.6672
  802MOL0     C 5774   5.230   0.506   2.869 -0.4576  0.2333 -0.7971
  802MOL0     C 5775   5.136   0.413   2.802 -0.1078 -1.2461 -0.1843
  802MOL0    Cl 5776   4.981   0.416   2.895 -0.3134 -0.5595  0.6171
  802MOL0     C 5777   6.101   0.959   2.911  0.5993  0.5903  0.0457
  802MOL0     C 5778   6.222   0.927   2.974  0.2057 -0.2871 -0.6956
  802MOL0     O 5779   6.525   0.643   2.905  0.1085 -0.5910  0.6097
  802MOL0     C 5780   6.556   0.710   3.252 -0.4576 -0.8983 -0.2696
  802MOL0     C 5781   6.638   0.686   3.356 -0.0195  1.0003  1.2523
  802MOL0     N 5782   7.133   0.642   3.915 -0.4244  0.6892  0.3289
  802MOL0     N 5783   7.157   0.756   3.948  0.2456 -0.8082  0.4133
  802MOL0     C 5784   7.374   0.486   3.146  0.0492  0.5973  0.7708
  802MOL0     C 5785   7.335   0.386   3.045  0.4226  0.0846 -0.0533
  802MOL0     C 5786   7.144   0.220   2.683  1.1352 -0.6693  0.2926
  802MOL0     C 5787   7.012   0.161   2.706  0.3204  0.5246 -0.0857
  802MOL0     C 5788   6.963   0.067   2.617  0.1510 -0.1192 -0.3805
  802MOL0     C 5789   7.016   0.062   2.494  0.1389  0.5728  0.6448
  802MOL0     O 5790   6.963  -0.005   2.387 -0.0799  0.4168 -0.0451
  802MOL0     C 5791   6.909  -0.130   2.404 -1.2740  0.2604 -0.2962
  802MOL0     C 5792   6.930  -0.220   2.274  0.1082 -0.0293 -0.5511
  802MOL0     C 5793   6.808  -0.200   2.180 -0.0503  0.2311 -0.8225
  802MOL0     C 5794   6.793  -0.296   2.068 -0.9081 -0.4346  0.8638
  802MOL0     C 5795   6.918  -0.306   1.989  0.5327  0.4921  0.1174
  802MOL0     C 5796   7.023  -0.299   1.925  0.0288 -0.7833  0.3915
  802MOL0     C 5797   7.136   0.126   2.456  0.1386 -0.5907 -0.6558
  802MOL0     C 5798   7.208   0.208   2.557  0.1450 -0.3948  0.8559
  802MOL0     H 5799   7.034   0.563   2.971 -0.8884 -0.8474  1.3948
  802MOL0     H 5800   7.131   0.721   3.111  1.5744  0.9595  0.6898
  802MOL0     H 5801   7.169   0.750   3.346  0.5156 -0.3291  2.7107
  802MOL0     H 5802   7.279   0.865   3.270 -2.6784  0.3510 -1.3549
  802MOL0     H 5803   7.427   0.848   3.486  0.1433  0.8316 -2.7280
  802MOL0     H 5804   7.322   0.717   3.539  0.0825 -0.4431 -1.1895
  802MOL0     H 5805   7.239   1.017   3.495  2.1738 -2.6184 -4.1740
  802MOL0     H 5806   7.284   0.941   3.653  1.4226  0.6884 -1.2919
  802MOL0     H 5807   7.041   0.908   3.485  1.2013  2.9717  1.2492
  802MOL0     H 5808   7.092   0.779   3.589  2.3763 -0.3758  0.0554
  802MOL0     H 5809   7.031   1.081   3.677  1.1287 -0.3046 -1.1552
  802MOL0     H 5810   7.122   0.971   3.779  0.2082  1.7042 -0.4723
  802MOL0     H 5811   6.926   0.807   3.747  2.6145 -0.3266 -1.5505
  802MOL0     H 5812   6.827   0.934   3.681 -2.2707 -0.6034  1.3897
  802MOL0     H 5813   6.857   1.074   3.872  0.1666  0.4711 -1.5440
  802MOL0     H 5814   6.781   0.918   3.922 -0.1182  1.6315  2.9539
  802MOL0     H 5815   6.936   0.974   4.092 -0.3787  4.2464 -0.9616
  802MOL0     H 5816   7.067   1.014   3.988 -1.2222  1.4182  0.1899
  802MOL0     H 5817   6.853   0.689   4.059  0.6468  2.4627  1.9757
  802MOL0     H 5818   6.917   0.419   4.014  0.9656  2.3801  1.5826
  802MOL0     H 5819   7.009   0.374   3.868  2.6885 -0.2103  1.7939
  802MOL0     H 5820   6.793   0.592   3.850  1.7525  0.6201 -0.2517
  802MOL0     H 5821   6.748   0.421   3.828  2.7763 -3.9667  1.5278
  802MOL0     H 5822   6.975   0.576   3.674  0.3145 -0.3386 -0.2498
  802MOL0     H 5823   6.906   0.421   3.638  0.0075  0.3526  1.0817
  802MOL0     H 5824   6.791   0.701   3.606 -0.6819  1.3215 -2.1581
  802MOL0     H 5825   6.683   0.546   3.619 -0.4736  3.0903  1.9901
  802MOL0     H 5826   6.832   0.451   3.232  0.5188  0.7109  0.1532
  802MOL0     H 5827   6.669   0.500   3.019  1.8721 -1.1766  0.7255
  802MOL0     H 5828   6.286   0.628   2.815 -0.5152  0.9929 -2.0903
  802MOL0     H 5829   6.068   0.664   2.748 -4.4362  1.1685  1.2216
  802MOL0     H 5830   5.786   1.019   2.825 -1.8057 -0.5214  2.6358
  802MOL0     H 5831   5.816   0.889   2.943  0.6649 -3.3911 -0.2861
  802MOL0     H 5832   5.702   0.840   2.675 -3.4930 -1.4213 -0.7136
  802MOL0     H 5833   5.582   0.866   2.800  0.6260  0.8333  0.7066
  802MOL0     H 5834   5.698   0.700   2.945 -0.0671  0.8512  1.2200
  802MOL0     H 5835   5.788   0.648   2.800  0.1753  0.8720 -3.0191
  802MOL0     H 5836   5.551   0.662   2.677 -0.9151 -0.6102 -0.6580
  802MOL0     H 5837   5.628   0.520   2.754 -0.8682 -0.9711  2.5057
  802MOL0     H 5838   5.407   0.698   2.877  0.5340  1.0480  1.0304
  802MOL0     H 5839   5.491   0.580   2.968 -1.5256 -6.7160 -1.2953
  802MOL0     H 5840   5.402   0.408   2.807 -0.4363 -0.0490  2.5358
  802MOL0     H 5841   5.342   0.534   2.693 -1.0918 -1.9384  0.4765
  802MOL0     H 5842   5.257   0.470   2.969  1.0116 -2.9296 -2.1885
  802MOL0     H 5843   5.174   0.600   2.868  0.2225  0.6576  0.1207
  802MOL0     H 5844   5.185   0.316   2.794  2.6184  0.1919 -2.8854
  802MOL0     H 5845   5.117   0.448   2.700  0.3003  0.6686  0.3590
  802MOL0     H 5846   6.068   1.061   2.927  1.1836  0.3671  3.5026
  802MOL0     H 5847   6.265   0.994   3.047  0.3793 -0.7499 -0.3661
  802MOL0     H 5848   6.481   0.785   3.273 -0.1001 -0.5919 -0.0772
  802MOL0     H 5849   6.621   0.745   3.446 -0.4321  1.8271  0.6487
  802MOL0     H 5850   7.462   0.473   3.208  0.8206  0.4815 -0.3142
  802MOL0     H 5851   7.398   0.305   3.011 -0.0593 -0.6509  0.7723
  802MOL0     H 5852   6.954   0.196   2.791  1.4188  1.9865  0.1102
  802MOL0     H 5853   6.868   0.021   2.641  0.2682  0.3332  1.0525
  802MOL0     H 5854   6.804  -0.121   2.432 -1.3453  2.6234 -1.0667
  802MOL0     H 5855   6.968  -0.168   2.488 -0.8842 -1.7731 -1.4215
  802MOL0     H 5856   7.027  -0.200   2.228  1.8844 -2.3708  1.8326
  802MOL0     H 5857   6.922  -0.328   2.294 -1.0724 -0.5635 -3.3889
  802MOL0     H 5858   6.787  -0.098   2.145 -0.7589 -0.0656 -1.2984
  802MOL0     H 5859   6.718  -0.223   2.239  0.0066 -1.0775 -1.2104
  802MOL0     H 5860   6.765  -0.394   2.107 -0.7297 -0.5131  0.7992
  802MOL0     H 5861   6.708  -0.255   2.013 -0.7066  2.2709  2.3902
  802MOL0     H 5862   7.120  -0.302   1.881  1.0361 -1.0496  2.5131
  802MOL0     H 5863   7.173   0.113   2.354  0.7888  0.0100 -0.5082
  802MOL0     H 5864   7.300   0.256   2.527 -0.5111  2.7192  3.2989
  803MOL0     O 5865   5.465  10.398   0.111 -0.8915 -1.1609 -0.6094
  803MOL0     C 5866   5.460  10.413  -0.009 -0.1270  0.1876  0.0789
  803MOL0     O 5867   5.499  10.516  -0.076  0.2440 -0.0643 -0.4608
  803MOL0     C 5868   5.591  10.599  -0.019 -0.7847  1.0717 -1.1937
  803MOL0     C 5869   5.557  10.734   0.011  0.7169  0.1442 -0.3096
  803MOL0     C 5870   5.657  10.826   0.054 -0.5286 -0.0113 -0.2707
  803MOL0     C 5871   5.786  10.777   0.086  0.1003 -0.1161 -0.0920
  803MOL0     O 5872   5.858  10.865   0.166 -0.0418 -0.0931  0.1614
  803MOL0     C 5873   5.996  10.842   0.177  0.1150 -0.0762 -0.0520
  803MOL0     C 5874   6.026  10.811   0.322 -0.1692 -0.3162  0.0827
  803MOL0     C 5875   6.021  10.938   0.407 -1.0423  0.3300 -0.1077
  803MOL0     C 5876   6.070  10.910   0.538  0.3407  0.6198 -0.1153
  803MOL0     C 5877   5.961  10.844   0.631  0.2080 -0.5182 -0.4030
  803MOL0     C 5878   6.030  10.848   0.770  0.0982 -0.1445 -0.6829
  803MOL0     C 5879   6.132  10.741   0.784 -0.4830 -0.1302 -0.7586
  803MOL0     C 5880   6.152  10.707   0.931 -1.0889  1.2759 -0.2017
  803MOL0     N 5881   6.085  10.572   0.955 -0.3722 -0.4336 -0.3238
  803MOL0     C 5882   5.954  10.551   0.977 -0.0772  0.1994 -0.0724
  803MOL0     C 5883   5.951  10.415   0.991 -0.6871 -0.2670 -0.3253
  803MOL0     C 5884   5.834  10.325   1.027  0.2716 -0.1484 -1.0742
  803MOL0     C 5885   5.851  10.271   1.169  1.2253 -0.4571 -0.1987
  803MOL0     C 5886   5.939  10.142   1.173 -0.2721  0.5305 -0.3543
  803MOL0     C 5887   6.004  10.150   1.324  1.2270  0.3497 -0.3114
  803MOL0     O 5888   5.920  10.063   1.398  0.5045 -0.5004 -0.2960
  803MOL0     C 5889   5.971   9.957   1.463 -0.3588 -0.5147 -0.1000
  803MOL0     C 5890   6.053   9.855   1.413  0.5503 -1.0342 -0.0501
  803MOL0     C 5891   6.094   9.756   1.503 -0.4380  0.5728 -0.0879
  803MOL0     C 5892   6.040   9.746   1.634 -0.5543  1.4231 -0.0137
  803MOL0     C 5893   6.092   9.625   1.715  0.4547 -1.0035  0.6368
  803MOL0     O 5894   5.995   9.579   1.800 -0.5412 -0.3196  0.8405
  803MOL0     C 5895   6.025   9.485   1.890  0.1931 -0.3767 -0.7777
  803MOL0     C 5896   6.016   9.352   1.856  1.0533 -0.3927  0.0732
  803MOL0     C 5897   6.037   9.264   1.957 -0.0934  0.3287  0.3078
  803MOL0     C 5898   6.050   9.302   2.088  0.1452 -0.1041  0.1770
  803MOL0     O 5899   6.055   9.210   2.190  1.3061 -0.3077  0.2183
  803MOL0     C 5900   6.158   9.112   2.187 -0.2879  1.6591 -0.3286
  803MOL0     C 5901   6.209   9.110   2.333  0.3977 -0.1206 -0.2044
  803MOL0     C 5902   6.272   9.246   2.389  0.7319  0.0596  0.9738
  803MOL0     C 5903   6.287   9.243   2.545  0.0363  0.3821 -0.0281
  803MOL0     C 5904   6.351   9.369   2.606 -0.1200  0.1499  0.5099
  803MOL0     C 5905   6.386   9.351   2.759  0.3541 -0.1975 -0.0031
  803MOL0     C 5906   6.478   9.465   2.803  0.5250  0.0730  0.4031
  803MOL0     C 5907   6.404   9.557   2.899 -0.3468  0.4287 -0.1249
  803MOL0    Cl 5908   6.511   9.685   2.969 -0.4179  0.4369  0.1468
  803MOL0     C 5909   6.056   9.433   2.123 -0.2137 -0.6257  0.5875
  803MOL0     C 5910   6.044   9.533   2.029  0.1587  0.5429  0.0942
  803MOL0     O 5911   6.208   9.601   1.720  0.0979 -0.1667  0.0193
  803MOL0     C 5912   5.944   9.833   1.670 -0.0029  1.6191 -0.4233
  803MOL0     C 5913   5.914   9.939   1.590 -0.6135  0.0374  0.1384
  803MOL0     N 5914   6.077  10.356   0.977  0.1467  0.9595  0.5309
  803MOL0     N 5915   6.150  10.457   0.947 -0.5774 -0.3904  0.0850
  803MOL0     C 5916   5.815  10.642   0.060  0.0091  0.2905  0.5383
  803MOL0     C 5917   5.718  10.552   0.018 -0.4790  0.3958 -0.4551
  803MOL0     C 5918   5.424  10.298  -0.091 -1.0009  0.4487  0.2840
  803MOL0     C 5919   5.352  10.195  -0.022 -0.1158 -0.1827  0.1543
  803MOL0     C 5920   5.304  10.079  -0.093 -0.2107  0.6192  0.0181
  803MOL0     C 5921   5.311  10.083  -0.233 -0.4649  0.1217  0.5778
  803MOL0     O 5922   5.270   9.976  -0.320  0.4147 -0.3007 -0.0337
  803MOL0     C 5923   5.139  10.007  -0.362 -0.0237  0.5997  0.1870
  803MOL0     C 5924   5.045   9.884  -0.336  0.9857  0.2223 -1.0543
  803MOL0     C 5925   5.066   9.755  -0.415 -0.8988  0.4924  0.0856
  803MOL0     C 5926   5.196   9.682  -0.360  0.6379  0.6094 -1.5120
  803MOL0     C 5927   5.179   9.537  -0.371 -0.2334  0.6351  0.0882
  803MOL0     C 5928   5.155   9.426  -0.405  0.2206 -0.6694  0.0067
  803MOL0     C 5929   5.392  10.179  -0.294  0.3166  0.7921  0.5367
  803MOL0     C 5930   5.455  10.281  -0.229  0.1048  0.3022  0.8570
  803MOL0     H 5931   5.459  10.776  -0.010  1.7159  1.6504 -2.2901
  803MOL0     H 5932   5.627  10.930   0.057  0.7910  0.3686  0.5015
  803MOL0     H 5933   6.042  10.938   0.150 -2.0078  1.1586  0.4435
  803MOL0     H 5934   6.034  10.763   0.113  1.8816 -1.7850  2.8625
  803MOL0     H 5935   6.124  10.763   0.328 -1.4682 -3.2459 -0.3836
  803MOL0     H 5936   5.950  10.743   0.363  1.2959 -0.6116  2.5211
  803MOL0     H 5937   5.916  10.967   0.406 -1.1220  0.1208  1.0622
  803MOL0     H 5938   6.091  11.015   0.372  0.5268  0.1719  2.4258
  803MOL0     H 5939   6.156  10.843   0.538 -0.9461 -1.1900  1.7944
  803MOL0     H 5940   6.095  11.008   0.579 -0.3984  1.4047 -1.4747
  803MOL0     H 5941   5.935  10.744   0.596 -2.6248  0.0208 -0.0965
  803MOL0     H 5942   5.872  10.908   0.632 -0.8949 -1.9036 -2.1363
  803MOL0     H 5943   5.957  10.834   0.849 -0.0926  0.3178 -0.7699
  803MOL0     H 5944   6.071  10.947   0.792  0.3366 -0.4560  0.3094
  803MOL0     H 5945   6.084  10.660   0.729 -3.1676 -0.3072  1.5956
  803MOL0     H 5946   6.225  10.773   0.736 -0.6145 -1.7408 -2.1981
  803MOL0     H 5947   6.112  10.776   1.006 -1.2627 -0.4013  1.3388
  803MOL0     H 5948   6.257  10.694   0.958 -1.0403  1.8269 -0.1194
  803MOL0     H 5949   5.876  10.620   1.007 -2.2006 -1.9526 -0.3193
  803MOL0     H 5950   5.814  10.251   0.950 -0.6879  0.2246 -1.1983
  803MOL0     H 5951   5.745  10.389   1.035  0.6539  0.1745  1.7116
  803MOL0     H 5952   5.750  10.266   1.211  1.2212 -1.0288 -0.2688
  803MOL0     H 5953   5.899  10.351   1.226  0.2293  0.2553 -0.3279
  803MOL0     H 5954   5.877  10.053   1.157  1.8440 -1.3253  1.1970
  803MOL0     H 5955   6.018  10.151   1.098 -0.5000  0.8310 -0.5595
  803MOL0     H 5956   5.998  10.244   1.379  0.3487  0.3420 -0.3816
  803MOL0     H 5957   6.111  10.129   1.320  1.5793  2.0412 -0.3738
  803MOL0     H 5958   6.085   9.866   1.310  3.0539  2.2594  0.9179
  803MOL0     H 5959   6.160   9.682   1.459 -0.3661  1.4251 -1.4937
  803MOL0     H 5960   5.997   9.324   1.753  0.3005  0.9512 -0.1665
  803MOL0     H 5961   6.022   9.159   1.933 -0.0255  0.2682  0.5232
  803MOL0     H 5962   6.243   9.127   2.120  1.5005  1.5326  1.7747
  803MOL0     H 5963   6.114   9.012   2.176  2.2868  0.2391  1.2716
  803MOL0     H 5964   6.298   9.045   2.328 -0.0401 -0.6224 -2.2480
  803MOL0     H 5965   6.132   9.065   2.396  2.3625 -1.0036  1.7270
  803MOL0     H 5966   6.199   9.328   2.386  1.7399  1.0673  2.2943
  803MOL0     H 5967   6.372   9.262   2.348  1.3956 -2.1148  1.6364
  803MOL0     H 5968   6.192   9.221   2.595  0.1958 -0.3345 -0.0242
  803MOL0     H 5969   6.360   9.164   2.568  2.3431  2.7993  1.4332
  803MOL0     H 5970   6.283   9.455   2.603 -0.8130 -0.3759  0.8431
  803MOL0     H 5971   6.445   9.392   2.555 -0.3128 -1.8001 -0.8014
  803MOL0     H 5972   6.437   9.254   2.759 -0.0706 -0.4834 -2.0224
  803MOL0     H 5973   6.292   9.352   2.814 -0.3478  3.5291 -0.9981
  803MOL0     H 5974   6.574   9.438   2.846  2.1408  1.0642 -2.2939
  803MOL0     H 5975   6.492   9.538   2.722  2.5749 -2.4917 -1.7503
  803MOL0     H 5976   6.366   9.490   2.976 -3.2501  2.3309  0.2648
  803MOL0     H 5977   6.315   9.603   2.854 -0.0557  1.0975 -0.0342
  803MOL0     H 5978   6.074   9.469   2.224  1.4498 -1.8558  0.7753
  803MOL0     H 5979   6.044   9.641   2.038 -0.4958  0.5939 -0.4633
  803MOL0     H 5980   5.906   9.830   1.772 -1.2656  0.5198 -0.8898
  803MOL0     H 5981   5.831  10.005   1.614  0.7081  2.0104 -0.4797
  803MOL0     H 5982   5.909  10.594   0.087 -2.0044 -2.7545  2.8439
  803MOL0     H 5983   5.745  10.451  -0.010 -0.2061  0.7218 -1.4070
  803MOL0     H 5984   5.336  10.209   0.085 -5.1641  4.0548 -0.7259
  803MOL0     H 5985   5.266   9.992  -0.042 -2.3643  0.5058 -1.6163
  803MOL0     H 5986   5.147  10.024  -0.469 -1.9836 -1.0876 -0.2894
  803MOL0     H 5987   5.095  10.098  -0.321 -2.0305  1.1131 -2.8275
  803MOL0     H 5988   5.039   9.881  -0.226 -1.1052  4.2012 -0.8925
  803MOL0     H 5989   4.950   9.922  -0.374 -0.1208 -0.4490  0.8755
  803MOL0     H 5990   5.077   9.773  -0.523  1.3850 -3.9924 -0.6655
  803MOL0     H 5991   4.981   9.688  -0.403 -0.3236 -0.3390 -0.3715
  803MOL0     H 5992   5.287   9.708  -0.414  1.3880 -0.2615 -0.6987
  803MOL0     H 5993   5.204   9.721  -0.258 -1.8863  2.8380 -2.0511
  803MOL0     H 5994   5.123   9.336  -0.453  4.8470 -1.0800 -2.9678
  803MOL0     H 5995   5.396  10.164  -0.402  1.1315  1.8689  0.4020
  803MOL0     H 5996   5.507  10.349  -0.296 -1.2568  3.1592  2.4892
  804MOL0     O 5997   1.751   8.754   0.315 -1.1375 -0.5396 -0.1615
  804MOL0     C 5998   1.732   8.781   0.436  0.4515  0.7086  0.2611
  804MOL0     O 5999   1.626   8.856   0.482  0.6004 -0.6088 -0.1859
  804MOL0     C 6000   1.536   8.907   0.393  1.3511 -0.0716 -0.4172
  804MOL0     C 6001   1.579   9.029   0.341  0.3074  0.1209 -0.3169
  804MOL0     C 6002   1.501   9.098   0.258  0.5542 -0.4400  1.5473
  804MOL0     C 6003   1.377   9.052   0.215  0.6659 -0.1581 -0.1561
  804MOL0     O 6004   1.306   9.135   0.132  0.6566  0.2950  1.0300
  804MOL0     C 6005   1.186   9.089   0.074 -0.0533  0.6714  1.2502
  804MOL0     C 6006   1.153   9.202  -0.029  0.1195  0.0085 -0.7556
  804MOL0     C 6007   1.006   9.182  -0.086  0.3822  0.1175 -0.7260
  804MOL0     C 6008   1.005   9.112  -0.217 -0.2784 -0.6486 -0.0467
  804MOL0     C 6009   0.856   9.093  -0.257  0.2018  0.2172  0.3780
  804MOL0     C 6010   0.763   9.223  -0.247 -0.2355  0.6162 -0.0114
  804MOL0     C 6011   0.639   9.199  -0.337 -0.3778 -0.1450  0.1375
  804MOL0     C 6012   0.549   9.321  -0.332 -0.3784  0.3409  0.2825
  804MOL0     N 6013   0.435   9.305  -0.415  0.4620 -0.3900  0.1515
  804MOL0     C 6014   0.403   9.351  -0.541  0.2819  0.3999  0.8270
  804MOL0     C 6015   0.264   9.333  -0.559  0.2986 -0.2351 -0.8446
  804MOL0     C 6016   0.181   9.363  -0.682 -0.0982  0.4439 -0.3580
  804MOL0     C 6017   0.202   9.508  -0.734  0.4663 -0.7192 -0.1265
  804MOL0     C 6018   0.196   9.604  -0.609 -0.7277 -1.1428  0.3713
  804MOL0     C 6019   0.226   9.755  -0.651 -1.2569 -0.4998  0.1936
  804MOL0     O 6020   0.360   9.786  -0.701 -0.5939 -0.2662 -0.4448
  804MOL0     C 6021   0.473   9.756  -0.626  0.0264 -1.0427  0.3659
  804MOL0     C 6022   0.465   9.735  -0.489 -1.1179  0.1499  0.3223
  804MOL0     C 6023   0.580   9.693  -0.419 -0.6560  0.9831 -0.1025
  804MOL0     C 6024   0.706   9.687  -0.483  0.4191 -0.6971 -0.8518
  804MOL0     C 6025   0.828   9.643  -0.408 -0.0794  0.1408  0.1078
  804MOL0     O 6026   0.947   9.675  -0.462 -0.3313  0.0160 -0.2183
  804MOL0     C 6027   1.060   9.643  -0.381 -0.2340 -0.2409  0.8807
  804MOL0     C 6028   1.107   9.516  -0.351  0.1911  0.0557  0.5215
  804MOL0     C 6029   1.221   9.495  -0.266 -0.6802 -0.0923  1.0027
  804MOL0     C 6030   1.290   9.604  -0.218  0.3156 -0.6352  0.5921
  804MOL0     O 6031   1.387   9.571  -0.126 -0.2940 -0.2964 -0.1193
  804MOL0     C 6032   1.439   9.674  -0.036 -0.5826  0.3979  0.1996
  804MOL0     C 6033   1.543   9.625   0.050 -0.1295  0.1212 -0.6992
  804MOL0     C 6034   1.511   9.493   0.114 -0.6482  0.1613  0.0590
  804MOL0     C 6035   1.518   9.491   0.261  0.8078 -0.2019  0.1862
  804MOL0     C 6036   1.411   9.561   0.328 -0.8256 -0.4019 -1.1979
  804MOL0     C 6037   1.462   9.616   0.463 -0.5908  0.0088 -0.4314
  804MOL0     C 6038   1.345   9.657   0.549  0.2929  0.5071 -1.4275
  804MOL0     C 6039   1.368   9.735   0.688 -0.3741  0.0944  1.1932
  804MOL0    Cl 6040   1.501   9.855   0.692  0.2877 -0.0727 -0.0469
  804MOL0     C 6041   1.256   9.738  -0.254  0.9065 -0.1719 -0.0695
  804MOL0     C 6042   1.135   9.752  -0.328 -0.0444  0.3017 -0.1458
  804MOL0     O 6043   0.798   9.578  -0.308  0.2098  0.5880  0.1162
  804MOL0     C 6044   0.721   9.729  -0.618 -0.9046  1.2585 -0.2887
  804MOL0     C 6045   0.606   9.764  -0.684 -0.2397 -0.8415 -0.2318
  804MOL0     N 6046   0.218   9.245  -0.456 -0.2762 -0.5398 -0.3036
  804MOL0     N 6047   0.321   9.230  -0.379 -0.5350  0.4552 -0.7333
  804MOL0     C 6048   1.336   8.926   0.269  0.6325 -0.9228 -0.2444
  804MOL0     C 6049   1.410   8.856   0.365 -1.1484  0.0590  0.0891
  804MOL0     C 6050   1.843   8.741   0.527 -0.1853  0.0746 -0.3669
  804MOL0     C 6051   1.940   8.641   0.508  0.6287  0.0610  0.3142
  804MOL0     C 6052   2.029   8.607   0.613 -0.1848 -0.7597 -0.0179
  804MOL0     C 6053   2.020   8.670   0.736 -0.6462 -0.5062 -1.2219
  804MOL0     O 6054   2.120   8.643   0.827 -0.0206 -0.7616 -0.5278
  804MOL0     C 6055   2.086   8.581   0.953 -0.6930  0.0995  0.3735
  804MOL0     C 6056   1.968   8.489   0.952 -0.4243 -0.0103 -0.4837
  804MOL0     C 6057   1.974   8.416   1.089  0.1548  0.3724  0.2470
  804MOL0     C 6058   1.830   8.362   1.117  0.0129 -0.5175 -0.2937
  804MOL0     C 6059   1.753   8.468   1.179  0.1586 -0.0293 -0.0861
  804MOL0     C 6060   1.694   8.561   1.224 -1.0846 -0.0302 -0.3952
  804MOL0     C 6061   1.924   8.762   0.758  0.1687 -0.4878 -0.2221
  804MOL0     C 6062   1.834   8.802   0.654 -0.1617  0.7440 -0.4965
  804MOL0     H 6063   1.685   9.049   0.353 -0.2051  2.5492  0.5677
  804MOL0     H 6064   1.551   9.182   0.213 -1.4427  0.9056  1.7239
  804MOL0     H 6065   1.100   9.081   0.142 -0.8991 -0.2600  0.0988
  804MOL0     H 6066   1.197   8.990   0.028 -1.8566  1.2964 -0.6779
  804MOL0     H 6067   1.220   9.212  -0.116 -0.7439  2.9630 -1.2129
  804MOL0     H 6068   1.153   9.302   0.016  3.8127  0.1803 -0.7674
  804MOL0     H 6069   0.960   9.281  -0.079  0.8607  0.2765  4.5614
  804MOL0     H 6070   0.954   9.117  -0.015 -1.2832 -0.2863 -2.2510
  804MOL0     H 6071   1.056   9.186  -0.278  1.5171 -1.1419  0.7779
  804MOL0     H 6072   1.052   9.014  -0.201 -3.3345 -1.8722  2.5593
  804MOL0     H 6073   0.821   9.011  -0.194  0.7351  0.1529  0.5915
  804MOL0     H 6074   0.859   9.046  -0.356  4.3077 -4.8193  2.4471
  804MOL0     H 6075   0.817   9.315  -0.273 -0.9250  1.2505  0.7277
  804MOL0     H 6076   0.734   9.224  -0.141  3.0750 -0.4616  1.0296
  804MOL0     H 6077   0.663   9.188  -0.443  0.8340 -3.2642  0.6156
  804MOL0     H 6078   0.586   9.104  -0.320 -0.7382  0.1045  0.4260
  804MOL0     H 6079   0.608   9.410  -0.356  2.9741 -1.8314 -0.1675
  804MOL0     H 6080   0.520   9.349  -0.230 -0.7543  3.6609 -0.6010
  804MOL0     H 6081   0.459   9.398  -0.621 -1.6133  0.0639 -0.8009
  804MOL0     H 6082   0.077   9.341  -0.657  0.3632  0.2526  1.6308
  804MOL0     H 6083   0.218   9.292  -0.757  0.8889  1.1070 -0.5134
  804MOL0     H 6084   0.122   9.538  -0.802  2.3655  0.2334 -2.0246
  804MOL0     H 6085   0.297   9.510  -0.787  0.8997 -2.4082  0.5132
  804MOL0     H 6086   0.100   9.605  -0.556 -2.4424 -1.6574 -2.5255
  804MOL0     H 6087   0.279   9.572  -0.545 -1.1888 -1.4726  0.8138
  804MOL0     H 6088   0.205   9.829  -0.574 -1.0680  0.7829 -0.9553
  804MOL0     H 6089   0.156   9.774  -0.733 -2.5574 -3.2413  0.5540
  804MOL0     H 6090   0.367   9.749  -0.443 -1.0097  1.8666  0.0684
  804MOL0     H 6091   0.569   9.663  -0.315 -0.4697 -1.9788 -0.8457
  804MOL0     H 6092   1.063   9.427  -0.396  1.8280 -1.5016  1.8481
  804MOL0     H 6093   1.248   9.392  -0.248  1.3810  0.3817  0.8435
  804MOL0     H 6094   1.360   9.715   0.027 -0.9038  0.2738 -0.1127
  804MOL0     H 6095   1.481   9.755  -0.096  1.3116 -1.2878 -0.8904
  804MOL0     H 6096   1.546   9.706   0.125 -0.1298  2.6435 -3.2464
  804MOL0     H 6097   1.645   9.626   0.011  1.4384  2.4189  2.8636
  804MOL0     H 6098   1.579   9.417   0.075  0.4827  1.3566 -0.3451
  804MOL0     H 6099   1.412   9.454   0.087 -0.8688  1.5160 -1.1852
  804MOL0     H 6100   1.532   9.387   0.294 -2.9817 -0.8719  0.0852
  804MOL0     H 6101   1.612   9.543   0.284  1.9582 -2.0185 -0.1662
  804MOL0     H 6102   1.339   9.479   0.335  1.4672 -2.4125  0.4924
  804MOL0     H 6103   1.377   9.642   0.263 -1.4561 -0.5079 -1.0070
  804MOL0     H 6104   1.537   9.692   0.443 -3.5491  2.5821 -2.9328
  804MOL0     H 6105   1.515   9.542   0.524  0.7902  0.1388 -1.4375
  804MOL0     H 6106   1.278   9.728   0.501 -1.7569 -0.3787 -0.0169
  804MOL0     H 6107   1.286   9.566   0.560  0.2798  0.5031 -1.5344
  804MOL0     H 6108   1.398   9.664   0.765 -0.9725  0.4359  1.7499
  804MOL0     H 6109   1.274   9.781   0.718 -0.3172  2.5215 -1.8965
  804MOL0     H 6110   1.311   9.820  -0.210  1.0289 -1.4065  2.2086
  804MOL0     H 6111   1.097   9.853  -0.339 -0.1231  0.1004 -2.1105
  804MOL0     H 6112   0.823   9.735  -0.655  0.1542 -0.3437  2.0837
  804MOL0     H 6113   0.618   9.814  -0.780  3.5371  3.0539  1.9688
  804MOL0     H 6114   1.233   8.896   0.253  0.2330  1.1305 -1.9145
  804MOL0     H 6115   1.367   8.760   0.394 -2.3659 -0.0491 -1.8406
  804MOL0     H 6116   1.941   8.586   0.415 -0.1381  0.2254  0.2076
  804MOL0     H 6117   2.090   8.523   0.583 -1.0934 -0.8355 -1.7693
  804MOL0     H 6118   2.066   8.656   1.030 -3.5461 -0.6562  0.4802
  804MOL0     H 6119   2.177   8.529   0.984  0.8325  2.1613 -0.4356
  804MOL0     H 6120   1.872   8.538   0.933  0.6335  2.0461 -0.8841
  804MOL0     H 6121   1.992   8.409   0.880 -0.9809 -0.7333  0.1218
  804MOL0     H 6122   2.005   8.487   1.167  2.2938  3.4276 -3.0382
  804MOL0     H 6123   2.052   8.340   1.098  0.3236  0.5829  0.6439
  804MOL0     H 6124   1.782   8.314   1.031 -0.6890  0.0169 -0.2101
  804MOL0     H 6125   1.848   8.294   1.201 -2.8347  0.8378  1.5685
  804MOL0     H 6126   1.666   8.659   1.256 -0.3347  0.1635 -0.3182
  804MOL0     H 6127   1.914   8.800   0.859  0.9476  0.8763 -0.6239
  804MOL0     H 6128   1.757   8.876   0.675  2.3350  2.9584  1.5678
  805MOL0     O 6129   1.565   5.261   7.738 -0.4267  0.1402  0.9228
  805MOL0     C 6130   1.555   5.146   7.700 -0.5518 -0.8289  0.0623
  805MOL0     O 6131   1.592   5.037   7.772 -0.3711  0.6865  0.4221
  805MOL0     C 6132   1.584   5.051   7.910  0.5745 -0.0008 -0.6021
  805MOL0     C 6133   1.457   5.004   7.970  0.6149 -0.9702  0.2439
  805MOL0     C 6134   1.434   5.027   8.103 -0.8174  0.1449  0.2769
  805MOL0     C 6135   1.518   5.116   8.174  0.4589  0.1804 -0.3167
  805MOL0     O 6136   1.520   5.140   8.313 -0.3723 -0.6001 -0.2959
  805MOL0     C 6137   1.403   5.136   8.386  0.3913 -0.5689 -0.5137
  805MOL0     C 6138   1.420   5.203   8.526 -0.4482  0.2676 -0.7535
  805MOL0     C 6139   1.457   5.098   8.643  0.5681 -0.2279  0.0786
  805MOL0     C 6140   1.454   5.171   8.773 -0.4414 -0.2590 -0.3173
  805MOL0     C 6141   1.498   5.075   8.879  0.8861 -0.7635  0.0416
  805MOL0     C 6142   1.652   5.064   8.878  0.3339 -0.7910 -0.6013
  805MOL0     C 6143   1.705   5.024   9.017 -0.4030 -0.3284 -0.6291
  805MOL0     C 6144   1.668   4.890   9.072 -0.8547 -1.9709 -0.1998
  805MOL0     N 6145   1.704   4.873   9.220 -0.2505 -0.5198  0.1671
  805MOL0     C 6146   1.826   4.812   9.247  0.7198 -0.6223 -0.1635
  805MOL0     C 6147   1.808   4.780   9.375  0.0249 -0.3939 -0.3456
  805MOL0     C 6148   1.903   4.685   9.455  0.2840  0.0009 -0.0619
  805MOL0     C 6149   1.854   4.543   9.451 -0.1751 -0.5345  0.3202
  805MOL0     C 6150   1.860   4.495   9.303 -1.0413 -0.7356 -0.8950
  805MOL0     C 6151   1.818   4.354   9.308 -0.1325  0.1638  0.4762
  805MOL0     O 6152   1.816   4.291   9.176 -0.7291  0.3026 -0.0110
  805MOL0     C 6153   1.827   4.155   9.183  0.3278  0.3149  0.5829
  805MOL0     C 6154   1.830   4.085   9.060 -0.1324 -0.1728 -0.0513
  805MOL0     C 6155   1.829   3.945   9.051 -0.1388  0.0729 -0.5020
  805MOL0     C 6156   1.820   3.861   9.159 -0.4839 -0.4478 -0.3509
  805MOL0     C 6157   1.819   3.712   9.157  0.7811 -0.2417  0.1214
  805MOL0     O 6158   1.812   3.655   9.039  0.2646  0.5193 -0.1767
  805MOL0     C 6159   1.785   3.522   9.023 -0.7838  0.9177 -0.6999
  805MOL0     C 6160   1.805   3.482   8.894 -0.3076 -0.1224 -0.0809
  805MOL0     C 6161   1.795   3.346   8.846 -0.1128  0.2257  0.1420
  805MOL0     C 6162   1.751   3.248   8.937 -0.1404 -0.3520 -0.1875
  805MOL0     O 6163   1.747   3.114   8.917 -1.0742 -0.5660  0.3381
  805MOL0     C 6164   1.735   3.061   8.782  0.5093  0.4021  0.3237
  805MOL0     C 6165   1.659   2.925   8.796  0.2295 -0.1404 -0.0894
  805MOL0     C 6166   1.666   2.846   8.662  1.3833  0.8515  0.1978
  805MOL0     C 6167   1.587   2.719   8.662  0.0264 -0.1090  0.0993
  805MOL0     C 6168   1.680   2.607   8.722  0.2882 -0.2262  0.8907
  805MOL0     C 6169   1.637   2.471   8.671  0.9277 -0.2915  0.2701
  805MOL0     C 6170   1.682   2.356   8.762  0.3826  0.1895  0.4773
  805MOL0     C 6171   1.750   2.242   8.687  0.3171 -0.7047  0.7519
  805MOL0    Cl 6172   1.881   2.295   8.587  0.4834  0.1317 -0.5344
  805MOL0     C 6173   1.727   3.280   9.070  1.0684  0.1425 -0.2814
  805MOL0     C 6174   1.740   3.414   9.116 -0.0285  0.3061  0.5614
  805MOL0     O 6175   1.826   3.651   9.266 -0.3808  0.1426 -1.2871
  805MOL0     C 6176   1.837   3.926   9.281  0.1747  0.8918  0.4912
  805MOL0     C 6177   1.842   4.062   9.294  0.7771 -0.8177 -0.4141
  805MOL0     N 6178   1.693   4.844   9.430  0.5641 -0.3179 -0.0463
  805MOL0     N 6179   1.623   4.893   9.330  0.9600 -0.2997 -0.5806
  805MOL0     C 6180   1.633   5.159   8.120  0.7741 -0.1501 -0.2529
  805MOL0     C 6181   1.673   5.120   7.991  0.0134 -0.9584  0.8419
  805MOL0     C 6182   1.530   5.116   7.559 -0.0078 -0.0915  0.7891
  805MOL0     C 6183   1.508   5.233   7.470  0.5757  0.4451 -0.0949
  805MOL0     C 6184   1.492   5.203   7.333 -1.0061  0.8089 -0.2138
  805MOL0     C 6185   1.512   5.077   7.285 -0.5026 -0.7758  0.5935
  805MOL0     O 6186   1.487   5.045   7.148 -1.9267  0.4636  0.5960
  805MOL0     C 6187   1.472   5.146   7.054  0.1164 -0.2286  0.5100
  805MOL0     C 6188   1.591   5.244   7.026  0.1686  0.2686 -1.0120
  805MOL0     C 6189   1.719   5.173   6.987  0.6082 -0.4124  0.0345
  805MOL0     C 6190   1.823   5.206   7.096 -0.2008 -0.9454  0.5991
  805MOL0     C 6191   1.965   5.235   7.040  0.6062 -0.5825 -0.0578
  805MOL0     C 6192   2.070   5.278   7.003  0.1455  0.2464  0.1433
  805MOL0     C 6193   1.542   4.969   7.366 -0.2860 -0.5581 -0.0660
  805MOL0     C 6194   1.553   4.989   7.497  0.4647 -0.5155 -0.5583
  805MOL0     H 6195   1.382   4.965   7.902 -0.1065 -0.1791  0.5713
  805MOL0     H 6196   1.348   4.997   8.162  0.2356  0.3695  1.9942
  805MOL0     H 6197   1.361   5.034   8.386 -0.1697 -0.3676 -1.7155
  805MOL0     H 6198   1.325   5.189   8.330  1.7367  2.0524 -0.0183
  805MOL0     H 6199   1.329   5.258   8.553 -0.3784 -0.3231  0.7716
  805MOL0     H 6200   1.506   5.271   8.520 -0.1009 -0.0601  0.2429
  805MOL0     H 6201   1.554   5.053   8.621 -0.0072 -0.6789 -1.6872
  805MOL0     H 6202   1.377   5.023   8.641  1.6542 -1.4584  0.8540
  805MOL0     H 6203   1.515   5.262   8.773 -2.4660  1.1820 -0.9118
  805MOL0     H 6204   1.361   5.218   8.806  1.9735  2.8148  2.9557
  805MOL0     H 6205   1.444   4.980   8.876  0.5331 -0.5677  0.0044
  805MOL0     H 6206   1.470   5.107   8.980 -1.3997 -2.4169  0.0176
  805MOL0     H 6207   1.698   5.161   8.855  0.6900 -1.5279 -3.3634
  805MOL0     H 6208   1.690   4.995   8.802  2.9238 -1.3974  1.1484
  805MOL0     H 6209   1.813   5.019   9.000 -0.3225  0.1194 -0.2690
  805MOL0     H 6210   1.683   5.099   9.094 -0.2582 -0.8722 -0.0471
  805MOL0     H 6211   1.708   4.805   9.016 -0.5940 -1.7110 -0.4066
  805MOL0     H 6212   1.559   4.877   9.067 -0.7859 -3.8921  1.5647
  805MOL0     H 6213   1.915   4.774   9.198  1.3233  0.5865 -0.0574
  805MOL0     H 6214   1.917   4.724   9.556 -0.5835  1.1355 -0.3571
  805MOL0     H 6215   2.004   4.683   9.412  2.0536 -4.4139  3.4638
  805MOL0     H 6216   1.749   4.562   9.473  0.0683  4.2215 -1.3346
  805MOL0     H 6217   1.906   4.481   9.524 -1.1715 -2.4504 -0.5229
  805MOL0     H 6218   1.794   4.550   9.235 -1.4359  0.4731  0.4133
  805MOL0     H 6219   1.960   4.508   9.262 -0.6216 -0.4366  0.1879
  805MOL0     H 6220   1.720   4.336   9.352 -0.0198  1.6478  1.3939
  805MOL0     H 6221   1.898   4.315   9.372  1.0986 -0.7654 -1.4954
  805MOL0     H 6222   1.822   4.156   8.978 -1.7341 -0.3890 -0.1058
  805MOL0     H 6223   1.839   3.894   8.956  0.7653 -4.5748  1.8288
  805MOL0     H 6224   1.853   3.542   8.818 -1.6590  2.7500  1.1883
  805MOL0     H 6225   1.824   3.323   8.744 -2.1060  2.5022 -1.0514
  805MOL0     H 6226   1.831   3.039   8.734 -1.3073 -1.7096 -2.6800
  805MOL0     H 6227   1.672   3.122   8.717  0.2194  1.5712  1.6644
  805MOL0     H 6228   1.554   2.943   8.821  0.7844  1.8845  0.9881
  805MOL0     H 6229   1.702   2.867   8.878  1.2189 -1.3009 -1.3946
  805MOL0     H 6230   1.771   2.829   8.636  1.1966 -0.2232  0.0996
  805MOL0     H 6231   1.627   2.908   8.581  0.3305 -0.7161 -0.5189
  805MOL0     H 6232   1.496   2.731   8.721 -0.8539  0.4912 -1.3211
  805MOL0     H 6233   1.555   2.693   8.561  2.2475  2.4510 -1.4182
  805MOL0     H 6234   1.670   2.617   8.831  0.0914 -3.3866  1.2346
  805MOL0     H 6235   1.785   2.614   8.693  0.5112  1.2843  1.8938
  805MOL0     H 6236   1.666   2.455   8.567 -0.5830 -0.8835 -0.0921
  805MOL0     H 6237   1.528   2.464   8.662  0.9635  0.1608 -0.5479
  805MOL0     H 6238   1.748   2.387   8.844 -0.9818 -1.4954  2.3231
  805MOL0     H 6239   1.597   2.305   8.809  0.5891 -3.3999 -2.5855
  805MOL0     H 6240   1.679   2.183   8.628 -1.5980  1.2259  0.9918
  805MOL0     H 6241   1.788   2.172   8.762 -0.7988 -2.2249 -0.0290
  805MOL0     H 6242   1.684   3.201   9.131 -0.7397 -0.2542 -1.9408
  805MOL0     H 6243   1.715   3.436   9.219  0.8074 -1.9271  1.3146
  805MOL0     H 6244   1.853   3.868   9.372 -0.4457 -0.3849 -0.1974
  805MOL0     H 6245   1.837   4.107   9.393  1.3825 -2.6245  0.4856
  805MOL0     H 6246   1.696   5.237   8.163  0.6592  0.4611 -1.1684
  805MOL0     H 6247   1.764   5.158   7.946 -1.1424  2.4314  1.0989
  805MOL0     H 6248   1.492   5.322   7.529 -3.3616 -1.0289  1.4218
  805MOL0     H 6249   1.459   5.283   7.267 -3.0425 -0.0213 -0.2862
  805MOL0     H 6250   1.392   5.217   7.079  2.0582  3.4716 -2.7101
  805MOL0     H 6251   1.445   5.096   6.961  0.5796  1.8058 -0.7969
  805MOL0     H 6252   1.548   5.310   6.949  3.4318  0.0079 -3.2690
  805MOL0     H 6253   1.612   5.303   7.116  5.4703 -1.9468 -0.4194
  805MOL0     H 6254   1.751   5.206   6.888 -1.3703 -3.5906 -1.8301
  805MOL0     H 6255   1.701   5.068   6.963 -0.7552 -0.1049 -0.3406
  805MOL0     H 6256   1.801   5.290   7.163 -0.2887 -0.1463 -0.3917
  805MOL0     H 6257   1.836   5.120   7.161 -1.2693 -2.1645 -0.7441
  805MOL0     H 6258   2.159   5.313   6.954 -0.0622 -1.7518 -1.8189
  805MOL0     H 6259   1.559   4.869   7.327  1.4426  0.0509 -0.9884
  805MOL0     H 6260   1.581   4.904   7.559 -2.5585 -0.9108  0.4186
  806MOL0     O 6261   1.618  10.115   4.004 -0.0485  0.6271 -0.3040
  806MOL0     C 6262   1.559  10.126   4.113  0.1060 -0.1450 -0.1752
  806MOL0     O 6263   1.620  10.103   4.238  0.2683 -0.4024 -0.0110
  806MOL0     C 6264   1.758  10.080   4.233  0.2529  0.3828  0.2622
  806MOL0     C 6265   1.860  10.174   4.209 -0.5155  0.3048  0.5505
  806MOL0     C 6266   2.000  10.132   4.203 -0.0391  0.0145 -0.0718
  806MOL0     C 6267   2.021   9.998   4.235 -0.0728  0.7593 -0.1561
  806MOL0     O 6268   2.155   9.943   4.232  0.5965  0.4910  0.4085
  806MOL0     C 6269   2.263  10.020   4.205  0.0455 -0.3295  0.1932
  806MOL0     C 6270   2.389   9.935   4.230  0.3962 -0.0714  0.7946
  806MOL0     C 6271   2.518  10.024   4.235 -0.3258  0.8956 -0.2287
  806MOL0     C 6272   2.643   9.944   4.276 -0.2192 -0.3189 -0.0218
  806MOL0     C 6273   2.656   9.807   4.214 -0.1481 -0.0635 -0.1208
  806MOL0     C 6274   2.807   9.751   4.213  0.2002  0.0444 -0.2064
  806MOL0     C 6275   2.824   9.617   4.151  0.1127 -0.6441 -0.9350
  806MOL0     C 6276   2.964   9.605   4.085 -0.2794 -0.3366 -0.2882
  806MOL0     N 6277   2.990   9.477   4.016 -1.0386  0.2372 -0.7234
  806MOL0     C 6278   3.112   9.422   4.006  1.1038 -0.4115  0.6564
  806MOL0     C 6279   3.088   9.303   3.942 -1.6188  0.8808  1.0333
  806MOL0     C 6280   3.201   9.199   3.919  0.8811 -0.6608 -0.7726
  806MOL0     C 6281   3.281   9.151   4.044  0.4867 -0.1845  0.0115
  806MOL0     C 6282   3.425   9.197   4.043 -0.6129  0.0242 -0.0506
  806MOL0     C 6283   3.505   9.147   4.158 -0.8758  0.9497 -0.2012
  806MOL0     O 6284   3.431   9.156   4.283  0.2613  0.3309  0.5154
  806MOL0     C 6285   3.474   9.067   4.380 -0.5812 -0.7539 -1.2293
  806MOL0     C 6286   3.387   9.046   4.492  0.7247 -0.1611 -0.1263
  806MOL0     C 6287   3.405   8.953   4.598 -0.3483 -0.0137 -0.4131
  806MOL0     C 6288   3.533   8.888   4.604  0.5972 -0.0746 -0.0658
  806MOL0     C 6289   3.575   8.822   4.733 -0.5840 -0.3948  0.3921
  806MOL0     O 6290   3.697   8.759   4.729 -0.1215  0.4018  0.6594
  806MOL0     C 6291   3.745   8.686   4.835 -0.8074 -0.3580 -0.5546
  806MOL0     C 6292   3.697   8.664   4.962  0.4652 -0.4643  0.1822
  806MOL0     C 6293   3.756   8.587   5.058 -0.0379 -0.5494  0.3868
  806MOL0     C 6294   3.875   8.529   5.028  0.2292  0.4664 -0.7261
  806MOL0     O 6295   3.951   8.438   5.110 -0.0556 -1.2678  0.1332
  806MOL0     C 6296   3.884   8.317   5.142  0.5398 -0.3486 -0.0448
  806MOL0     C 6297   3.915   8.252   5.275 -0.8453 -1.0588 -0.4273
  806MOL0     C 6298   3.880   8.337   5.393  0.3204  0.5856 -0.6051
  806MOL0     C 6299   3.909   8.241   5.515  0.3005 -0.9888  0.6114
  806MOL0     C 6300   3.878   8.301   5.650 -0.1591 -0.8269  0.6964
  806MOL0     C 6301   3.732   8.327   5.692 -0.5232  0.1171 -0.1099
  806MOL0     C 6302   3.729   8.375   5.842  0.0840 -0.5977  0.5477
  806MOL0     C 6303   3.595   8.409   5.894  0.5042 -0.6882  0.6010
  806MOL0    Cl 6304   3.481   8.272   5.929 -0.2840  0.0292 -0.0357
  806MOL0     C 6305   3.936   8.548   4.901 -0.3347  0.1988  0.3982
  806MOL0     C 6306   3.876   8.641   4.811  0.0195  1.3031 -0.0208
  806MOL0     O 6307   3.512   8.852   4.835 -0.0080  0.0947 -0.3201
  806MOL0     C 6308   3.627   8.911   4.498 -0.2650  0.4191  0.6608
  806MOL0     C 6309   3.597   8.997   4.388 -0.1909  0.1319  0.1077
  806MOL0     N 6310   2.960   9.295   3.895 -0.8212 -0.0829  1.1437
  806MOL0     N 6311   2.903   9.402   3.943  0.1006 -0.0433 -0.6667
  806MOL0     C 6312   1.920   9.900   4.268  0.0619 -0.1169  0.7327
  806MOL0     C 6313   1.785   9.942   4.260 -0.3270  0.4335 -0.3740
  806MOL0     C 6314   1.423  10.177   4.126  0.2040  0.8849  0.5903
  806MOL0     C 6315   1.354  10.191   4.248  0.2035 -0.1602 -0.4830
  806MOL0     C 6316   1.231  10.257   4.253  0.0550 -1.3427 -0.0245
  806MOL0     C 6317   1.160  10.305   4.135 -0.7183  0.2908  0.1709
  806MOL0     O 6318   1.034  10.348   4.122 -0.3934  0.1684  0.3145
  806MOL0     C 6319   0.952  10.346   4.238  0.0863  0.0666  1.0690
  806MOL0     C 6320   0.802  10.384   4.222 -0.2842  1.0440 -0.2481
  806MOL0     C 6321   0.780  10.530   4.174 -0.2047 -0.2112 -0.0363
  806MOL0     C 6322   0.642  10.593   4.189 -0.6772  0.0891 -0.5822
  806MOL0     C 6323   0.584  10.589   4.335  0.5345  0.0010 -0.3642
  806MOL0     C 6324   0.543  10.579   4.446  1.2319  0.6358 -0.8390
  806MOL0     C 6325   1.229  10.288   4.019  0.0251  0.6706  0.0560
  806MOL0     C 6326   1.353  10.224   4.010 -0.4253  0.4780 -1.0925
  806MOL0     H 6327   1.823  10.272   4.182  4.2190  2.1859 -0.2382
  806MOL0     H 6328   2.082  10.200   4.179  0.5965 -0.3677  0.9188
  806MOL0     H 6329   2.260  10.095   4.285 -0.7736 -0.2977  0.1329
  806MOL0     H 6330   2.267  10.061   4.103  1.9608 -0.1315  0.3008
  806MOL0     H 6331   2.398   9.865   4.146 -2.9217  2.9438 -2.4383
  806MOL0     H 6332   2.371   9.897   4.331 -2.4182  2.6753  1.4812
  806MOL0     H 6333   2.498  10.109   4.300 -2.2038 -0.3741  0.9420
  806MOL0     H 6334   2.535  10.056   4.132  0.4198 -0.8721 -0.6952
  806MOL0     H 6335   2.735   9.998   4.248 -0.1630 -0.8150 -0.8345
  806MOL0     H 6336   2.644   9.923   4.383 -1.4914 -2.5332 -0.4003
  806MOL0     H 6337   2.634   9.824   4.108 -2.5905  2.6202  0.6932
  806MOL0     H 6338   2.586   9.732   4.253 -0.2283  0.0657 -0.0172
  806MOL0     H 6339   2.833   9.745   4.319  1.3323  3.5810 -0.1673
  806MOL0     H 6340   2.865   9.834   4.171 -1.0119  0.0025 -2.1005
  806MOL0     H 6341   2.808   9.547   4.234 -1.9580  0.1001 -0.6284
  806MOL0     H 6342   2.746   9.582   4.083  0.3608  0.4763 -1.8313
  806MOL0     H 6343   3.039   9.622   4.162  1.1981  1.0551 -1.9330
  806MOL0     H 6344   2.972   9.683   4.008 -3.0762 -0.5232 -0.8598
  806MOL0     H 6345   3.205   9.434   4.061  0.3652  2.0136  1.4795
  806MOL0     H 6346   3.270   9.255   3.855  0.2292  2.9022  1.3414
  806MOL0     H 6347   3.169   9.110   3.865 -2.7101 -0.0831  0.0996
  806MOL0     H 6348   3.277   9.042   4.052 -0.9398 -0.2294 -0.9678
  806MOL0     H 6349   3.228   9.183   4.134  0.2771 -1.9143  0.5220
  806MOL0     H 6350   3.475   9.164   3.952 -1.1848 -0.5097 -0.1743
  806MOL0     H 6351   3.424   9.306   4.056 -0.5042  0.0285 -0.0783
  806MOL0     H 6352   3.599   9.202   4.165 -2.0428  2.9175  0.9433
  806MOL0     H 6353   3.522   9.041   4.139 -2.7068  0.5656  0.1021
  806MOL0     H 6354   3.289   9.091   4.485  0.3066 -0.6452  2.0403
  806MOL0     H 6355   3.334   8.935   4.678 -0.3022 -1.1300 -0.6101
  806MOL0     H 6356   3.599   8.699   4.992  1.0021  0.7158  0.5969
  806MOL0     H 6357   3.711   8.548   5.148  4.1620 -1.1377  2.4784
  806MOL0     H 6358   3.904   8.243   5.064  0.5673 -0.0080 -0.3622
  806MOL0     H 6359   3.776   8.330   5.136  0.9155  2.8719 -2.0156
  806MOL0     H 6360   4.024   8.237   5.275  0.1678  4.2009 -1.6244
  806MOL0     H 6361   3.855   8.161   5.276 -1.1146 -0.8954  1.2052
  806MOL0     H 6362   3.776   8.368   5.403  0.2359 -0.4157  2.7709
  806MOL0     H 6363   3.946   8.424   5.403  0.7190  0.4168 -1.6148
  806MOL0     H 6364   3.866   8.141   5.507  0.1285 -0.9715  1.2512
  806MOL0     H 6365   4.017   8.226   5.525  0.2876 -0.4852  1.6366
  806MOL0     H 6366   3.925   8.400   5.655 -1.7005  0.0142 -0.4663
  806MOL0     H 6367   3.919   8.237   5.729 -0.6825  0.5385  2.1272
  806MOL0     H 6368   3.674   8.237   5.672 -1.6010  0.8190 -0.2288
  806MOL0     H 6369   3.694   8.416   5.640 -0.2051  1.1427  1.3578
  806MOL0     H 6370   3.775   8.293   5.898  2.9885 -0.7715 -1.8294
  806MOL0     H 6371   3.797   8.459   5.861 -0.0320 -0.6963  1.4383
  806MOL0     H 6372   3.546   8.473   5.821  0.3401 -3.5869 -2.0278
  806MOL0     H 6373   3.596   8.471   5.985  1.2610  2.6526 -1.5145
  806MOL0     H 6374   4.026   8.493   4.875 -0.2820  0.2398  0.4981
  806MOL0     H 6375   3.905   8.682   4.715 -2.3365  0.8298 -1.0152
  806MOL0     H 6376   3.726   8.867   4.495 -0.2330  0.3620 -4.1910
  806MOL0     H 6377   3.682   9.015   4.323 -1.1497  3.2427 -0.4603
  806MOL0     H 6378   1.932   9.794   4.287 -3.2785 -0.6472  0.4952
  806MOL0     H 6379   1.709   9.867   4.277  4.0950 -4.3259  1.0254
  806MOL0     H 6380   1.403  10.159   4.340  1.2746  0.8947 -0.6703
  806MOL0     H 6381   1.184  10.259   4.351  0.0889  1.6363  0.0401
  806MOL0     H 6382   0.991  10.415   4.314  0.7802 -0.0700  0.8454
  806MOL0     H 6383   0.951  10.244   4.278  2.1549 -2.4121 -4.2541
  806MOL0     H 6384   0.753  10.315   4.152 -4.1721  4.7832 -1.7316
  806MOL0     H 6385   0.745  10.378   4.315 -2.0066  0.1172 -1.2948
  806MOL0     H 6386   0.815  10.548   4.072 -0.3433 -0.7085 -0.1739
  806MOL0     H 6387   0.849  10.592   4.232 -2.0113  1.7410  0.1365
  806MOL0     H 6388   0.650  10.698   4.159  1.2284 -0.6360 -2.9583
  806MOL0     H 6389   0.580  10.534   4.121  0.1575 -0.5504 -0.8107
  806MOL0     H 6390   0.491  10.568   4.539 -0.3758  0.3605 -1.7333
  806MOL0     H 6391   1.193  10.323   3.923  2.3223  3.0508 -0.0514
  806MOL0     H 6392   1.398  10.226   3.912 -2.9644  0.5610 -2.3427
  807MOL0     O 6393   8.645   8.909   0.400 -0.5065 -0.3649 -0.4378
  807MOL0     C 6394   8.658   9.002   0.480 -0.2163  0.1410 -0.6257
  807MOL0     O 6395   8.725   9.130   0.451 -0.1659  0.4890 -0.8228
  807MOL0     C 6396   8.776   9.154   0.326  0.1015  0.3204 -0.1036
  807MOL0     C 6397   8.899   9.223   0.332 -0.0611 -0.8961 -0.4782
  807MOL0     C 6398   8.966   9.261   0.212  0.5053  0.1885 -1.1595
  807MOL0     C 6399   8.919   9.213   0.090  0.8284 -0.0838  0.3527
  807MOL0     O 6400   8.978   9.236  -0.030  0.1723  0.7110  0.0388
  807MOL0     C 6401   9.121   9.260  -0.012 -0.2307 -0.8422 -0.3341
  807MOL0     C 6402   9.180   9.268  -0.163  1.0495 -0.0435 -0.2501
  807MOL0     C 6403   9.164   9.136  -0.226 -0.4363 -0.7184  0.4446
  807MOL0     C 6404   9.228   9.131  -0.364 -0.0958  0.0001  0.2125
  807MOL0     C 6405   9.152   9.023  -0.447 -0.6095 -0.3043 -0.7825
  807MOL0     C 6406   9.008   9.060  -0.491  0.1953  0.9934 -0.3003
  807MOL0     C 6407   8.951   8.948  -0.586 -0.3442 -1.1147 -0.0088
  807MOL0     C 6408   8.975   8.990  -0.730 -0.8683  0.1382 -0.2314
  807MOL0     N 6409   8.963   8.871  -0.811 -0.0156 -0.3439 -0.8278
  807MOL0     C 6410   9.051   8.808  -0.889  0.8394  0.5342  1.2844
  807MOL0     C 6411   9.009   8.680  -0.901  0.5569 -0.1584 -0.1033
  807MOL0     C 6412   9.082   8.582  -0.990  0.1700  0.0603 -0.4885
  807MOL0     C 6413   9.039   8.598  -1.137 -0.8301 -0.7078  0.1958
  807MOL0     C 6414   8.893   8.542  -1.158 -0.5671  0.3439  0.5808
  807MOL0     C 6415   8.806   8.639  -1.238  1.1199  0.0746 -0.2570
  807MOL0     O 6416   8.687   8.578  -1.305 -0.2256 -0.0152  0.1165
  807MOL0     C 6417   8.585   8.516  -1.245 -1.4740 -0.0498  0.5813
  807MOL0     C 6418   8.506   8.408  -1.306 -0.5213 -0.8172 -0.3204
  807MOL0     C 6419   8.390   8.358  -1.243  0.5734 -0.5444  0.1436
  807MOL0     C 6420   8.357   8.412  -1.121 -0.0464  0.0063  0.4805
  807MOL0     C 6421   8.236   8.357  -1.050  0.5987 -0.2023  0.3334
  807MOL0     O 6422   8.162   8.264  -1.119  0.3432 -0.4768 -0.0908
  807MOL0     C 6423   8.060   8.210  -1.055 -0.7771  0.7150 -0.1809
  807MOL0     C 6424   7.948   8.289  -1.044  0.0546 -0.2648 -0.0939
  807MOL0     C 6425   7.832   8.235  -0.999  0.1123  0.0530  0.3148
  807MOL0     C 6426   7.818   8.093  -0.981 -0.9035 -0.0055  0.0213
  807MOL0     O 6427   7.707   8.023  -0.945  0.7039 -0.3767  0.1024
  807MOL0     C 6428   7.587   8.103  -0.937 -0.7791 -0.3022  0.2036
  807MOL0     C 6429   7.472   8.013  -0.879 -0.1893  0.8215 -0.7376
  807MOL0     C 6430   7.356   8.083  -0.793  0.0326  0.3615  0.3417
  807MOL0     C 6431   7.297   8.001  -0.672  0.4681  0.3618  0.6172
  807MOL0     C 6432   7.242   8.088  -0.565  0.3888 -0.2427 -0.6305
  807MOL0     C 6433   7.101   8.162  -0.583  0.2796  0.4041 -0.7305
  807MOL0     C 6434   7.074   8.274  -0.481 -0.7899 -0.1027  0.0944
  807MOL0     C 6435   7.035   8.209  -0.348 -0.3567 -0.4333 -0.7286
  807MOL0    Cl 6436   7.153   8.110  -0.257 -0.0264  0.3336  0.1262
  807MOL0     C 6437   7.934   8.008  -0.994  0.3985 -0.8731 -0.6695
  807MOL0     C 6438   8.059   8.071  -1.024 -0.2595 -0.3127 -0.2335
  807MOL0     O 6439   8.207   8.411  -0.942 -0.1544  0.5211  0.0564
  807MOL0     C 6440   8.431   8.512  -1.061 -0.1757 -0.3923 -0.1664
  807MOL0     C 6441   8.548   8.559  -1.113 -0.1946 -0.1711  0.6628
  807MOL0     N 6442   8.893   8.665  -0.828 -0.2996 -0.5911  0.4464
  807MOL0     N 6443   8.864   8.794  -0.785 -0.3350  0.7602 -0.2616
  807MOL0     C 6444   8.805   9.132   0.090 -0.4033  0.5170 -0.3639
  807MOL0     C 6445   8.731   9.109   0.209  0.1526  0.0925 -0.0155
  807MOL0     C 6446   8.597   9.008   0.614  0.0502  1.2081  0.5336
  807MOL0     C 6447   8.502   8.906   0.646 -0.9285  0.7885  0.0884
  807MOL0     C 6448   8.433   8.915   0.769 -0.6204 -0.2217  0.1611
  807MOL0     C 6449   8.459   9.006   0.862  0.0494 -0.2454  1.0835
  807MOL0     O 6450   8.390   9.012   0.980  0.6747 -0.8049 -0.0177
  807MOL0     C 6451   8.464   9.013   1.108 -1.0711 -0.2186  1.0955
  807MOL0     C 6452   8.384   9.085   1.208  0.1842 -0.6439 -0.8280
  807MOL0     C 6453   8.243   9.017   1.202 -0.3950  0.0724 -0.2552
  807MOL0     C 6454   8.178   9.012   1.339  0.1423  0.0637 -0.6948
  807MOL0     C 6455   8.245   8.929   1.442 -0.2674  0.5419 -0.7882
  807MOL0     C 6456   8.324   8.878   1.522  0.6087  1.0561  1.4645
  807MOL0     C 6457   8.556   9.111   0.831  0.3469  0.5775  0.4264
  807MOL0     C 6458   8.616   9.114   0.703  0.7081  0.1933  0.2307
  807MOL0     H 6459   8.931   9.265   0.427 -1.0634 -0.0024 -0.5135
  807MOL0     H 6460   9.048   9.330   0.227  0.8588 -0.0064 -2.1823
  807MOL0     H 6461   9.176   9.178   0.034  1.1477 -0.2897 -0.9586
  807MOL0     H 6462   9.136   9.352   0.045  1.9159  0.2727 -2.5013
  807MOL0     H 6463   9.282   9.299  -0.142  0.2474  1.7397  1.1784
  807MOL0     H 6464   9.112   9.334  -0.218 -0.9795 -1.8892 -0.1380
  807MOL0     H 6465   9.060   9.102  -0.229 -1.6333  2.5840 -2.7351
  807MOL0     H 6466   9.222   9.074  -0.155  0.4533  0.6306  0.9398
  807MOL0     H 6467   9.229   9.229  -0.413 -0.6517  1.4531  2.9047
  807MOL0     H 6468   9.334   9.112  -0.344  0.4241  0.9362 -1.4687
  807MOL0     H 6469   9.153   8.926  -0.396 -1.3367 -0.3967 -0.9318
  807MOL0     H 6470   9.219   9.010  -0.533 -1.8831  2.9497 -2.3994
  807MOL0     H 6471   9.005   9.152  -0.551  0.8032  1.6285  0.6270
  807MOL0     H 6472   8.954   9.071  -0.397  1.9241 -2.3865  1.2604
  807MOL0     H 6473   8.980   8.850  -0.547 -4.4088 -1.3168  3.2021
  807MOL0     H 6474   8.842   8.947  -0.579 -0.5699 -0.4452 -2.4915
  807MOL0     H 6475   9.079   9.024  -0.735 -0.7417  0.3873  2.5561
  807MOL0     H 6476   8.898   9.064  -0.752 -0.8316  0.3576  0.3675
  807MOL0     H 6477   9.148   8.850  -0.916  1.4744 -0.4095  2.0680
  807MOL0     H 6478   9.062   8.483  -0.948 -4.2122  0.5826 -0.8327
  807MOL0     H 6479   9.189   8.599  -0.977  0.0325  0.9263 -0.4299
  807MOL0     H 6480   9.094   8.529  -1.201  0.6937  1.1250 -0.5838
  807MOL0     H 6481   9.041   8.701  -1.174 -2.3490 -0.1961  1.4657
  807MOL0     H 6482   8.899   8.446  -1.210 -0.2647  2.3304 -3.5462
  807MOL0     H 6483   8.842   8.521  -1.064 -2.7587  1.8648 -0.1841
  807MOL0     H 6484   8.858   8.686  -1.321  0.5090  2.1832  0.4979
  807MOL0     H 6485   8.770   8.720  -1.174 -0.6858 -1.3140  0.5998
  807MOL0     H 6486   8.546   8.357  -1.393  0.3274 -2.9238  1.2379
  807MOL0     H 6487   8.328   8.278  -1.282 -0.5105 -1.8359  4.0428
  807MOL0     H 6488   7.955   8.391  -1.081 -0.8171 -0.4804 -0.8932
  807MOL0     H 6489   7.733   8.279  -0.993 -1.1261 -2.7060  3.1712
  807MOL0     H 6490   7.550   8.149  -1.030 -4.5512  0.7825  2.0482
  807MOL0     H 6491   7.598   8.183  -0.864 -0.3390  1.5819 -1.8132
  807MOL0     H 6492   7.536   7.955  -0.812  1.3026  3.4627  0.2693
  807MOL0     H 6493   7.418   7.949  -0.950 -0.5769  0.1684  0.1231
  807MOL0     H 6494   7.261   8.098  -0.846  0.9278  2.2179 -0.8489
  807MOL0     H 6495   7.380   8.185  -0.762 -5.4292  2.2471 -0.4668
  807MOL0     H 6496   7.211   7.943  -0.706 -0.3569  2.1089 -0.3738
  807MOL0     H 6497   7.382   7.944  -0.631  2.7373  0.4417 -3.4947
  807MOL0     H 6498   7.324   8.156  -0.539  1.0969 -2.5718  4.3043
  807MOL0     H 6499   7.244   8.035  -0.470 -0.2917  0.7443 -0.0558
  807MOL0     H 6500   7.018   8.091  -0.589 -0.2480  1.1260 -2.9893
  807MOL0     H 6501   7.120   8.216  -0.676 -1.2899 -2.0071 -2.5646
  807MOL0     H 6502   7.166   8.328  -0.456 -1.6073 -0.4291  4.7686
  807MOL0     H 6503   6.993   8.341  -0.511 -1.8201 -1.8614 -1.1765
  807MOL0     H 6504   6.935   8.165  -0.354 -1.5273  2.2896 -2.4692
  807MOL0     H 6505   7.031   8.284  -0.268  1.3036  0.7796 -1.7289
  807MOL0     H 6506   7.941   7.904  -0.966  1.7060  0.4446  5.5075
  807MOL0     H 6507   8.140   8.000  -1.040  4.1420  3.5096  2.5568
  807MOL0     H 6508   8.403   8.539  -0.960  2.2726  0.1490  0.4244
  807MOL0     H 6509   8.603   8.639  -1.064  2.7453 -1.8213  0.3355
  807MOL0     H 6510   8.769   9.087  -0.001 -1.4267 -1.1854  0.8223
  807MOL0     H 6511   8.634   9.060   0.218 -0.1335  0.7684  0.6488
  807MOL0     H 6512   8.474   8.828   0.577 -0.8884  0.6929  0.1789
  807MOL0     H 6513   8.367   8.836   0.805 -1.1107  0.1490  0.0925
  807MOL0     H 6514   8.556   9.070   1.092 -1.4936  0.0468 -0.6014
  807MOL0     H 6515   8.485   8.913   1.147 -1.6843  0.3466  3.0005
  807MOL0     H 6516   8.450   9.066   1.293  0.0860 -0.2580 -0.6630
  807MOL0     H 6517   8.376   9.192   1.186 -1.2871 -0.3424  0.9021
  807MOL0     H 6518   8.249   8.913   1.169 -2.3381 -0.0842 -0.2315
  807MOL0     H 6519   8.184   9.081   1.137  1.7368  2.2402 -0.2002
  807MOL0     H 6520   8.183   9.115   1.376  2.6694 -0.6785  1.4560
  807MOL0     H 6521   8.081   8.962   1.331  0.1997 -0.4841  1.4144
  807MOL0     H 6522   8.382   8.836   1.602 -4.3115 -4.7210  2.7386
  807MOL0     H 6523   8.557   9.189   0.906  2.3848 -0.3698  1.4518
  807MOL0     H 6524   8.678   9.201   0.679 -1.5254  1.9188  0.3880
  808MOL0     O 6525   2.639   9.005   9.414  0.6197  0.6245 -0.4782
  808MOL0     C 6526   2.660   8.889   9.442  0.9550  0.3272 -0.7321
  808MOL0     O 6527   2.596   8.783   9.372  0.2933 -0.8947  0.3927
  808MOL0     C 6528   2.530   8.793   9.250 -0.3598  0.1986  0.1766
  808MOL0     C 6529   2.519   8.900   9.161  0.2087 -0.8085  0.7421
  808MOL0     C 6530   2.448   8.895   9.043  0.0144  0.2196 -0.5176
  808MOL0     C 6531   2.387   8.778   9.001 -0.9865 -0.3067 -0.7294
  808MOL0     O 6532   2.338   8.760   8.872  0.2106 -0.0729  0.2329
  808MOL0     C 6533   2.199   8.714   8.867 -0.2194 -0.6859  0.2107
  808MOL0     C 6534   2.123   8.768   8.743  0.2031  0.5455  0.5719
  808MOL0     C 6535   2.144   8.924   8.718 -0.3729 -0.1612 -0.0336
  808MOL0     C 6536   2.064   9.008   8.827 -0.1430  0.7572  0.4636
  808MOL0     C 6537   2.094   9.153   8.812 -0.2710 -0.5332 -0.0351
  808MOL0     C 6538   1.984   9.240   8.862  1.0736 -0.1301 -0.0935
  808MOL0     C 6539   1.997   9.377   8.813 -0.2835  0.4286  0.2124
  808MOL0     C 6540   1.903   9.466   8.890 -0.3565  0.0708 -0.2525
  808MOL0     N 6541   1.879   9.579   8.798 -0.0900  0.4541  0.6833
  808MOL0     C 6542   1.965   9.694   8.781  1.3042  0.3477  0.0597
  808MOL0     C 6543   1.891   9.762   8.678  0.4956  0.0862  0.0136
  808MOL0     C 6544   1.916   9.902   8.637  0.9117  0.5471 -0.0700
  808MOL0     C 6545   2.059   9.932   8.596 -1.0264 -0.1088 -0.9590
  808MOL0     C 6546   2.088   9.887   8.453 -0.6654 -0.0448  0.1126
  808MOL0     C 6547   2.215   9.937   8.406 -0.5837 -0.4065 -0.8924
  808MOL0     O 6548   2.306   9.912   8.514 -0.1351  0.2549  0.2961
  808MOL0     C 6549   2.405   9.813   8.526  0.0748  0.5127 -0.7314
  808MOL0     C 6550   2.477   9.800   8.646  0.1610  0.2899  0.3152
  808MOL0     C 6551   2.581   9.703   8.653 -1.0317 -0.2279 -0.9887
  808MOL0     C 6552   2.608   9.613   8.544 -0.9838 -0.1775  0.8607
  808MOL0     C 6553   2.702   9.500   8.553  0.2485 -0.0489 -1.5011
  808MOL0     O 6554   2.753   9.457   8.434  0.0102  0.4428  0.4114
  808MOL0     C 6555   2.834   9.342   8.442 -0.8694  0.6745 -0.1150
  808MOL0     C 6556   2.787   9.214   8.478 -0.0856 -0.4565  0.4648
  808MOL0     C 6557   2.872   9.105   8.494 -0.2605 -0.7597  0.7421
  808MOL0     C 6558   3.018   9.114   8.459 -0.6545  0.0730 -1.1709
  808MOL0     O 6559   3.095   9.004   8.445 -0.5888 -0.1450  0.6532
  808MOL0     C 6560   3.067   8.897   8.536 -0.6016 -0.1525 -0.1508
  808MOL0     C 6561   3.184   8.807   8.557 -0.2907 -0.3098 -0.0446
  808MOL0     C 6562   3.231   8.738   8.426 -0.0851  0.6673 -0.4113
  808MOL0     C 6563   3.138   8.620   8.378 -1.5429 -0.3551  0.5457
  808MOL0     C 6564   3.189   8.551   8.260  0.3087  0.3670  0.5122
  808MOL0     C 6565   3.132   8.402   8.242  0.3579  0.0660 -0.4199
  808MOL0     C 6566   3.183   8.329   8.119  0.2249 -0.7940 -0.3245
  808MOL0     C 6567   3.093   8.353   7.994 -0.3618 -0.4306 -0.4078
  808MOL0    Cl 6568   3.115   8.514   7.926 -0.1561  0.3223 -0.2085
  808MOL0     C 6569   3.058   9.235   8.406 -0.2881 -0.4552  0.2701
  808MOL0     C 6570   2.970   9.347   8.411  0.1348  0.8638  0.3312
  808MOL0     O 6571   2.736   9.449   8.666 -0.0547  0.4213  0.1934
  808MOL0     C 6572   2.541   9.639   8.419  0.1337 -0.0686  0.4781
  808MOL0     C 6573   2.441   9.735   8.412  0.0578 -0.8668 -0.8868
  808MOL0     N 6574   1.775   9.691   8.651 -0.0298  0.4556 -0.1237
  808MOL0     N 6575   1.763   9.580   8.716  0.1570 -1.0638 -0.9970
  808MOL0     C 6576   2.392   8.669   9.089 -1.4865  0.8807  0.5719
  808MOL0     C 6577   2.464   8.675   9.213  0.5653  0.6414  0.1625
  808MOL0     C 6578   2.771   8.863   9.535  0.3979  0.7241 -0.2897
  808MOL0     C 6579   2.842   8.745   9.512 -0.9716 -0.0020 -0.0875
  808MOL0     C 6580   2.953   8.714   9.588 -1.1789 -0.4525 -0.2806
  808MOL0     C 6581   2.988   8.799   9.698 -0.7816 -0.1987  0.3493
  808MOL0     O 6582   3.095   8.772   9.776 -0.0096  0.4450  0.7171
  808MOL0     C 6583   3.173   8.877   9.827  0.2927 -0.2361 -0.4821
  808MOL0     C 6584   3.213   8.986   9.734 -0.3335 -0.3393 -0.1168
  808MOL0     C 6585   3.288   8.928   9.609 -0.3435  0.2952  0.4772
  808MOL0     C 6586   3.392   8.820   9.640 -0.6640 -0.2821 -0.2691
  808MOL0     C 6587   3.488   8.806   9.526 -0.1321 -0.3209  0.2839
  808MOL0     C 6588   3.573   8.784   9.433 -0.5571 -0.9112 -0.4829
  808MOL0     C 6589   2.906   8.906   9.728 -0.2067 -0.6052  1.3713
  808MOL0     C 6590   2.798   8.940   9.646 -0.7456 -0.5414  0.1744
  808MOL0     H 6591   2.565   8.994   9.189  0.3839 -0.5857 -0.2310
  808MOL0     H 6592   2.439   8.969   8.964  0.0217  1.2557  0.4114
  808MOL0     H 6593   2.143   8.748   8.955  0.4642  2.1888 -0.3465
  808MOL0     H 6594   2.187   8.606   8.861  0.0189 -0.6955 -0.0671
  808MOL0     H 6595   2.018   8.739   8.741  0.2029  0.5735 -0.1996
  808MOL0     H 6596   2.170   8.728   8.652  2.5686  1.8246  1.1492
  808MOL0     H 6597   2.103   8.949   8.619  1.2159  0.2837 -0.6199
  808MOL0     H 6598   2.249   8.952   8.714 -0.7075  1.1421 -3.2859
  808MOL0     H 6599   1.958   8.992   8.805  0.0421 -1.9565  1.1531
  808MOL0     H 6600   2.100   8.974   8.925 -0.1168 -0.8538 -0.0837
  808MOL0     H 6601   2.107   9.184   8.707 -2.9438  0.0868 -0.2732
  808MOL0     H 6602   2.180   9.185   8.871 -1.4977  0.7791  1.1198
  808MOL0     H 6603   1.960   9.243   8.969  0.2022  0.8270 -0.3020
  808MOL0     H 6604   1.896   9.206   8.806  1.5752  1.0264 -1.6259
  808MOL0     H 6605   2.101   9.412   8.821 -0.7230  1.5268  1.3698
  808MOL0     H 6606   1.971   9.380   8.706  0.1754 -0.8079  0.0520
  808MOL0     H 6607   1.956   9.493   8.981  0.3702 -1.0719 -0.3180
  808MOL0     H 6608   1.813   9.412   8.922  0.1656 -0.5375  0.2177
  808MOL0     H 6609   2.054   9.722   8.835  2.3703  0.3151 -1.6198
  808MOL0     H 6610   1.897   9.957   8.730 -4.4290 -2.4171  0.9854
  808MOL0     H 6611   1.850   9.940   8.559  1.5755  2.7272  0.3492
  808MOL0     H 6612   2.131   9.893   8.668 -2.9996 -1.9730  0.1435
  808MOL0     H 6613   2.078  10.039   8.603 -2.3173  0.0276  1.7936
  808MOL0     H 6614   2.084   9.778   8.441 -0.3510 -0.1005  0.4823
  808MOL0     H 6615   2.010   9.940   8.397 -0.9547  0.1550  0.6996
  808MOL0     H 6616   2.200  10.045   8.397 -0.6076 -0.3416 -0.1429
  808MOL0     H 6617   2.234   9.894   8.308 -2.6626 -1.7740 -0.7318
  808MOL0     H 6618   2.456   9.860   8.735 -1.3408  2.5491 -1.4336
  808MOL0     H 6619   2.620   9.694   8.754  0.7978  3.3777 -1.2138
  808MOL0     H 6620   2.679   9.213   8.493 -0.2173  2.6473  0.3612
  808MOL0     H 6621   2.819   9.010   8.502 -0.1940 -1.3190 -3.4131
  808MOL0     H 6622   2.971   8.847   8.518 -1.0348 -0.6329  2.9742
  808MOL0     H 6623   3.049   8.947   8.631  0.3504  1.0957 -0.6090
  808MOL0     H 6624   3.151   8.734   8.632 -3.6216  0.5739 -0.4996
  808MOL0     H 6625   3.260   8.868   8.606  0.7991 -0.3721 -1.5820
  808MOL0     H 6626   3.325   8.690   8.457 -0.5457 -1.2031 -1.7379
  808MOL0     H 6627   3.249   8.811   8.346  0.5048  1.7271  0.6484
  808MOL0     H 6628   3.140   8.540   8.452 -0.0914 -4.6467 -3.6133
  808MOL0     H 6629   3.034   8.653   8.368 -0.9763  1.4938  0.3933
  808MOL0     H 6630   3.297   8.564   8.256  0.2697  0.4181 -0.7874
  808MOL0     H 6631   3.142   8.600   8.174  3.0805  1.4013 -0.5360
  808MOL0     H 6632   3.023   8.408   8.235  0.5431  2.0727 -2.8949
  808MOL0     H 6633   3.164   8.340   8.326  1.1649 -1.2091 -1.6336
  808MOL0     H 6634   3.286   8.360   8.101  0.5573 -0.7600  1.4144
  808MOL0     H 6635   3.186   8.222   8.144  0.7336 -1.2230 -2.0774
  808MOL0     H 6636   2.986   8.354   8.017 -1.2475  0.6202 -3.9764
  808MOL0     H 6637   3.112   8.273   7.923 -1.0050 -0.4640 -0.5540
  808MOL0     H 6638   3.161   9.251   8.378 -0.4610  1.9061  0.7682
  808MOL0     H 6639   3.003   9.444   8.377 -0.8256  1.2694  0.5027
  808MOL0     H 6640   2.564   9.578   8.333 -2.5538  0.8472 -0.9949
  808MOL0     H 6641   2.376   9.741   8.325 -1.5035 -1.9095  0.1502
  808MOL0     H 6642   2.345   8.576   9.058 -2.1463  1.1341  0.8040
  808MOL0     H 6643   2.466   8.584   9.273  0.1698 -1.0642 -2.2727
  808MOL0     H 6644   2.827   8.689   9.420  1.9755 -1.6421  0.3186
  808MOL0     H 6645   3.018   8.633   9.556 -1.7249 -1.3475  0.8066
  808MOL0     H 6646   3.256   8.825   9.876 -0.9109 -0.3969  1.5032
  808MOL0     H 6647   3.121   8.920   9.913  0.4894  0.9573 -0.9396
  808MOL0     H 6648   3.123   9.040   9.702 -2.1432 -1.1411  3.1344
  808MOL0     H 6649   3.266   9.054   9.800 -1.8346  1.3971 -0.5997
  808MOL0     H 6650   3.326   9.016   9.556 -0.5500 -0.9196 -1.8607
  808MOL0     H 6651   3.221   8.881   9.537  0.5856  1.0027 -0.9053
  808MOL0     H 6652   3.447   8.845   9.731  2.3981  0.7747 -2.2372
  808MOL0     H 6653   3.351   8.722   9.663  4.1820 -2.0083  2.5901
  808MOL0     H 6654   3.646   8.757   9.359 -2.6731 -3.0544 -1.9526
  808MOL0     H 6655   2.921   8.960   9.821 -0.9624 -0.3036  1.3272
  808MOL0     H 6656   2.749   9.034   9.670 -1.2592 -0.2177 -1.9822
  809MOL0     O 6657   5.848   4.168   8.350  0.4089  0.5659 -0.4601
  809MOL0     C 6658   5.863   4.215   8.467 -1.1809 -1.0899  0.3714
  809MOL0     O 6659   5.970   4.176   8.551  0.3007  0.1328 -0.3525
  809MOL0     C 6660   5.994   4.044   8.542  0.1415 -0.4426 -0.2159
  809MOL0     C 6661   5.910   3.948   8.594 -0.5916 -0.2451 -0.3330
  809MOL0     C 6662   5.945   3.809   8.600 -0.6526 -0.5940  0.6843
  809MOL0     C 6663   6.069   3.767   8.534  0.7365 -0.4698 -0.6503
  809MOL0     O 6664   6.121   3.642   8.517 -0.5150  0.5573  0.6849
  809MOL0     C 6665   6.026   3.541   8.476  0.1342  0.6220  0.8529
  809MOL0     C 6666   6.007   3.570   8.329  0.3885  0.5987 -0.0533
  809MOL0     C 6667   5.968   3.444   8.255 -0.7324 -0.2112  0.0381
  809MOL0     C 6668   5.939   3.457   8.106  0.1428 -0.9538 -0.2971
  809MOL0     C 6669   5.876   3.338   8.029  0.4362  0.5861  0.3820
  809MOL0     C 6670   5.810   3.383   7.906 -0.4205  0.1137 -0.3203
  809MOL0     C 6671   5.759   3.272   7.827  0.0013 -0.0776  0.4735
  809MOL0     C 6672   5.678   3.326   7.709  0.5000  0.8420 -0.2395
  809MOL0     N 6673   5.634   3.211   7.634 -0.1227 -0.3046  0.0966
  809MOL0     C 6674   5.545   3.114   7.674  0.4415  0.4060  0.3221
  809MOL0     C 6675   5.560   3.001   7.599 -1.0071 -0.8112  0.2657
  809MOL0     C 6676   5.490   2.882   7.633  0.9464 -0.5703 -0.0306
  809MOL0     C 6677   5.418   2.827   7.516 -0.1542 -0.3460 -0.5455
  809MOL0     C 6678   5.302   2.920   7.469 -0.4541  1.3564 -0.2635
  809MOL0     C 6679   5.207   2.843   7.380  0.2103 -0.0290 -0.1004
  809MOL0     O 6680   5.265   2.784   7.262 -0.3625  0.6625  0.1118
  809MOL0     C 6681   5.198   2.681   7.202  1.0213 -0.7375  0.2636
  809MOL0     C 6682   5.276   2.587   7.125  0.5300  0.7696 -1.0885
  809MOL0     C 6683   5.220   2.496   7.039  0.8467 -0.2236  0.1931
  809MOL0     C 6684   5.079   2.462   7.049 -0.5888 -0.9924  1.2279
  809MOL0     C 6685   5.019   2.357   6.959  0.5511  0.3157  0.0032
  809MOL0     O 6686   4.891   2.338   6.958  0.0692 -0.4622  0.2649
  809MOL0     C 6687   4.830   2.244   6.875 -0.1389  0.2057 -0.7930
  809MOL0     C 6688   4.878   2.207   6.747 -0.7654  0.0936  0.5358
  809MOL0     C 6689   4.813   2.102   6.689  0.3353  0.6071 -0.6305
  809MOL0     C 6690   4.689   2.043   6.746 -0.8061 -0.6800  1.0129
  809MOL0     O 6691   4.636   1.937   6.676 -0.4863 -0.3406  0.7869
  809MOL0     C 6692   4.699   1.811   6.711  0.1304  0.5813  0.8670
  809MOL0     C 6693   4.702   1.733   6.577  0.8914 -0.3886  0.4443
  809MOL0     C 6694   4.716   1.581   6.587  0.4517 -0.0772  0.9358
  809MOL0     C 6695   4.707   1.526   6.442 -0.0044 -1.0070  0.6412
  809MOL0     C 6696   4.678   1.378   6.425  0.3000 -0.2299 -0.8379
  809MOL0     C 6697   4.564   1.320   6.501  0.2929 -0.2632 -0.6593
  809MOL0     C 6698   4.566   1.171   6.475  0.1023 -0.8841  0.8533
  809MOL0     C 6699   4.447   1.103   6.547 -0.4181  0.3678  0.6459
  809MOL0    Cl 6700   4.293   1.122   6.462 -0.2534  0.8300  0.0205
  809MOL0     C 6701   4.642   2.095   6.867 -1.1321 -1.2861  0.3497
  809MOL0     C 6702   4.717   2.183   6.935 -0.4355  0.3440  0.5547
  809MOL0     O 6703   5.095   2.297   6.887  0.0876  0.0215  0.1333
  809MOL0     C 6704   5.001   2.550   7.127  0.8206 -0.3130 -0.8849
  809MOL0     C 6705   5.058   2.655   7.202  0.0914 -0.2403  0.7798
  809MOL0     N 6706   5.665   3.026   7.516 -0.4105 -0.2315  0.2496
  809MOL0     N 6707   5.715   3.145   7.537 -0.4569  0.4956 -0.4140
  809MOL0     C 6708   6.154   3.869   8.477 -0.0301  0.4798 -0.8454
  809MOL0     C 6709   6.119   4.005   8.491 -0.7350 -0.9329 -0.1971
  809MOL0     C 6710   5.804   4.345   8.499 -0.5408 -0.3139 -0.7989
  809MOL0     C 6711   5.761   4.391   8.628 -0.5857  0.7033  0.9236
  809MOL0     C 6712   5.687   4.506   8.644  0.2232  0.7594 -0.4115
  809MOL0     C 6713   5.695   4.602   8.543  0.5193 -0.1439  0.7222
  809MOL0     O 6714   5.649   4.738   8.565  0.1817 -0.0925 -0.2680
  809MOL0     C 6715   5.675   4.829   8.460  0.9138 -0.9086  0.8978
  809MOL0     C 6716   5.561   4.819   8.353  0.3889  1.1924 -0.8004
  809MOL0     C 6717   5.590   4.904   8.229  1.0267 -0.8821 -0.7735
  809MOL0     C 6718   5.470   4.980   8.158 -0.1103  0.1802 -1.0303
  809MOL0     C 6719   5.422   5.079   8.257 -0.0392  0.1213 -0.3226
  809MOL0     C 6720   5.410   5.160   8.338  0.4316 -0.8733 -0.5186
  809MOL0     C 6721   5.751   4.565   8.415 -0.0709 -0.7545  0.0636
  809MOL0     C 6722   5.803   4.446   8.392 -0.6566  1.2913  0.3498
  809MOL0     H 6723   5.813   3.980   8.629  0.5585  2.6532  0.4887
  809MOL0     H 6724   5.863   3.752   8.644 -1.5582  0.2241  0.0834
  809MOL0     H 6725   5.932   3.550   8.532 -0.6103  2.0362 -0.5066
  809MOL0     H 6726   6.069   3.442   8.489 -2.6288 -1.0276 -1.2926
  809MOL0     H 6727   6.089   3.613   8.270 -1.8573  0.3326 -3.6923
  809MOL0     H 6728   5.922   3.639   8.316 -1.8405 -2.1253 -0.8724
  809MOL0     H 6729   5.887   3.403   8.316 -1.4691 -0.3018 -0.9696
  809MOL0     H 6730   6.054   3.376   8.259 -0.9854 -0.5105  0.4725
  809MOL0     H 6731   5.873   3.540   8.080 -2.0459 -2.0235  1.5711
  809MOL0     H 6732   6.028   3.484   8.047  0.6270 -0.5537  0.5967
  809MOL0     H 6733   5.805   3.278   8.087  0.3923  0.3040  0.0391
  809MOL0     H 6734   5.951   3.271   7.987 -2.0334  0.9536 -5.4958
  809MOL0     H 6735   5.886   3.429   7.842 -0.9077 -0.0401 -1.0103
  809MOL0     H 6736   5.735   3.458   7.932 -0.3219  0.0278  0.2320
  809MOL0     H 6737   5.839   3.203   7.798  1.3697  1.1483  1.2481
  809MOL0     H 6738   5.700   3.220   7.903  0.3917 -0.9388  0.2131
  809MOL0     H 6739   5.752   3.378   7.648  1.2800  0.0233 -0.0073
  809MOL0     H 6740   5.597   3.394   7.738 -1.2450 -1.1553 -0.1555
  809MOL0     H 6741   5.473   3.128   7.753  0.8209 -0.3963  0.8267
  809MOL0     H 6742   5.415   2.901   7.711  0.9686 -2.8146  0.5920
  809MOL0     H 6743   5.549   2.799   7.672  2.7059  0.3684 -0.6133
  809MOL0     H 6744   5.378   2.727   7.536 -0.3784 -1.2840 -4.8237
  809MOL0     H 6745   5.486   2.803   7.435 -1.8881 -0.5679 -1.9964
  809MOL0     H 6746   5.243   2.956   7.553  1.9273 -0.5143  2.3909
  809MOL0     H 6747   5.342   3.011   7.424  0.9869  2.0676  2.2567
  809MOL0     H 6748   5.122   2.906   7.354  0.4363  1.3757  2.2526
  809MOL0     H 6749   5.163   2.763   7.441  0.9077  1.0898  1.9806
  809MOL0     H 6750   5.384   2.594   7.137  0.5952 -1.2801 -0.0744
  809MOL0     H 6751   5.270   2.436   6.963 -0.9705 -3.0437  1.0986
  809MOL0     H 6752   4.946   2.268   6.688 -0.6632 -1.8879 -1.5525
  809MOL0     H 6753   4.830   2.056   6.593 -1.3867 -2.1791  0.3042
  809MOL0     H 6754   4.629   1.758   6.776 -1.6560 -0.8697 -2.0624
  809MOL0     H 6755   4.805   1.826   6.736  0.9275  0.8881 -2.2827
  809MOL0     H 6756   4.784   1.777   6.519 -0.8145  1.7825 -0.4478
  809MOL0     H 6757   4.620   1.765   6.511  2.0823 -1.5894 -1.7486
  809MOL0     H 6758   4.629   1.542   6.641  0.1183 -0.2100  0.3131
  809MOL0     H 6759   4.805   1.536   6.632 -0.7128 -1.4234  2.0152
  809MOL0     H 6760   4.628   1.581   6.389  1.6716  1.0961  0.1705
  809MOL0     H 6761   4.797   1.549   6.385 -1.8269  0.4636 -1.8916
  809MOL0     H 6762   4.769   1.336   6.470  1.6242  5.6447  3.1348
  809MOL0     H 6763   4.663   1.361   6.318 -0.1283  2.7776 -1.3234
  809MOL0     H 6764   4.471   1.367   6.466  1.1042 -0.2111 -2.8838
  809MOL0     H 6765   4.577   1.339   6.608 -0.7488 -1.3013 -0.3272
  809MOL0     H 6766   4.576   1.150   6.369 -0.5007  1.3413  0.3029
  809MOL0     H 6767   4.657   1.129   6.521  1.5176 -0.1081 -1.1032
  809MOL0     H 6768   4.450   1.141   6.649 -1.6145 -1.0504  1.2301
  809MOL0     H 6769   4.456   0.995   6.551 -3.1208  0.0755  0.5907
  809MOL0     H 6770   4.551   2.063   6.917 -2.9105  2.4058 -0.1708
  809MOL0     H 6771   4.713   2.201   7.042  1.4912 -1.3651  0.9821
  809MOL0     H 6772   4.894   2.533   7.137  1.1181 -1.4599  0.5991
  809MOL0     H 6773   4.991   2.725   7.251  1.3282  1.7103 -0.1865
  809MOL0     H 6774   6.237   3.856   8.408 -0.3088  0.8450 -1.2538
  809MOL0     H 6775   6.188   4.085   8.469 -1.6470  1.0208  3.2547
  809MOL0     H 6776   5.769   4.314   8.704  3.5766  0.8461  0.8694
  809MOL0     H 6777   5.657   4.535   8.744  1.4452 -1.9062  0.8141
  809MOL0     H 6778   5.772   4.824   8.410  1.3265 -4.1562  1.8400
  809MOL0     H 6779   5.681   4.928   8.508  1.9764 -0.7745  0.5245
  809MOL0     H 6780   5.533   4.716   8.331 -3.0005  2.4230 -3.2053
  809MOL0     H 6781   5.468   4.850   8.402 -0.1812  0.6397 -1.5089
  809MOL0     H 6782   5.619   4.835   8.149 -0.5967 -1.0912 -1.2161
  809MOL0     H 6783   5.657   4.990   8.240  1.7548 -1.2720 -1.9256
  809MOL0     H 6784   5.516   5.033   8.074 -0.4812  1.8187 -0.2409
  809MOL0     H 6785   5.397   4.903   8.132  0.4657 -0.7392 -0.0032
  809MOL0     H 6786   5.380   5.227   8.416 -1.4211 -4.0804  1.7562
  809MOL0     H 6787   5.780   4.642   8.344  0.5608 -1.7999 -0.8410
  809MOL0     H 6788   5.857   4.411   8.304  1.4178  2.3919  1.1225
  810MOL0     O 6789   2.487   0.990   8.863  0.1534  0.7658  0.1764
  810MOL0     C 6790   2.472   0.921   8.761 -0.0467 -0.3449 -0.7028
  810MOL0     O 6791   2.569   0.836   8.705 -0.5203 -1.0750  0.3474
  810MOL0     C 6792   2.698   0.826   8.757 -0.7142 -0.5034 -0.1721
  810MOL0     C 6793   2.759   0.926   8.841 -0.5659 -0.2184  0.0292
  810MOL0     C 6794   2.882   0.904   8.908 -0.0832  0.6854  1.5927
  810MOL0     C 6795   2.949   0.786   8.889 -0.2148  1.4573 -0.4422
  810MOL0     O 6796   3.056   0.736   8.955 -0.4121  0.0446  0.4078
  810MOL0     C 6797   3.075   0.781   9.090 -0.1819 -0.0506  1.1277
  810MOL0     C 6798   3.178   0.711   9.163 -0.4823 -0.2598  0.2582
  810MOL0     C 6799   3.185   0.571   9.126 -0.2326 -0.2912  0.2077
  810MOL0     C 6800   3.308   0.508   9.195  0.0049  0.2858  0.3764
  810MOL0     C 6801   3.432   0.555   9.113 -1.1009  0.5679  0.2177
  810MOL0     C 6802   3.544   0.450   9.159  0.3384  0.1095 -0.4794
  810MOL0     C 6803   3.690   0.482   9.109  0.9369  0.7513  0.2144
  810MOL0     C 6804   3.721   0.452   8.966  0.7678  0.0027  0.2776
  810MOL0     N 6805   3.699   0.315   8.931 -0.6376 -0.0247 -1.0449
  810MOL0     C 6806   3.572   0.255   8.909 -0.1384  1.8178  0.5163
  810MOL0     C 6807   3.600   0.120   8.908 -0.8142 -0.3310  0.1681
  810MOL0     C 6808   3.503   0.013   8.890 -0.0861 -0.8615 -0.8662
  810MOL0     C 6809   3.352   0.049   8.904  1.1013 -0.1010 -0.4993
  810MOL0     C 6810   3.312   0.064   9.054 -1.0549 -0.2129 -0.0494
  810MOL0     C 6811   3.191   0.159   9.070 -1.1816 -0.0962  0.2643
  810MOL0     O 6812   3.084   0.088   9.016  1.4258 -0.1304 -0.7245
  810MOL0     C 6813   2.999   0.137   8.920 -0.2188 -0.4666 -0.4320
  810MOL0     C 6814   2.976   0.271   8.894  0.4675  0.7611 -0.3928
  810MOL0     C 6815   2.861   0.303   8.817  0.5548 -0.7050 -0.2022
  810MOL0     C 6816   2.772   0.205   8.760 -0.3831  1.2541  0.1197
  810MOL0     C 6817   2.665   0.248   8.671  0.9187 -1.2502  0.6891
  810MOL0     O 6818   2.611   0.139   8.604 -0.1625 -0.3085 -0.2652
  810MOL0     C 6819   2.524   0.161   8.495 -0.3506  0.1418 -0.9331
  810MOL0     C 6820   2.568   0.225   8.379 -0.3130 -0.4329 -0.6744
  810MOL0     C 6821   2.486   0.220   8.268  0.3321  0.6111 -0.5517
  810MOL0     C 6822   2.387   0.129   8.256 -0.4235  0.0432  0.4170
  810MOL0     O 6823   2.321   0.126   8.130 -0.0140 -0.1494 -0.2798
  810MOL0     C 6824   2.243   0.008   8.094 -0.1088  0.5305  0.1993
  810MOL0     C 6825   2.334  -0.112   8.075  0.5181 -0.3892  0.7152
  810MOL0     C 6826   2.464  -0.088   7.991  0.7796  0.4824 -0.9526
  810MOL0     C 6827   2.589  -0.169   8.036  0.6553  0.0529 -0.2769
  810MOL0     C 6828   2.713  -0.119   7.952 -0.3310 -0.1832  0.6615
  810MOL0     C 6829   2.787   0.011   7.983  0.1662 -0.3666 -0.1572
  810MOL0     C 6830   2.900   0.053   7.887 -0.2839 -0.7196  0.2267
  810MOL0     C 6831   3.026  -0.028   7.912 -0.7026  0.5761  0.3676
  810MOL0    Cl 6832   3.071   0.007   8.077 -0.5012 -0.5875  0.2754
  810MOL0     C 6833   2.352   0.057   8.364  0.0334  0.0266 -0.6926
  810MOL0     C 6834   2.421   0.067   8.482 -0.2069 -0.2859 -0.3875
  810MOL0     O 6835   2.625   0.365   8.665 -0.7679 -0.5669 -0.0032
  810MOL0     C 6836   2.811   0.064   8.778 -0.7509 -1.2600 -0.1757
  810MOL0     C 6837   2.918   0.042   8.867  0.4623  0.2552  0.1859
  810MOL0     N 6838   3.740   0.107   8.915  0.0571  0.3512 -0.7736
  810MOL0     N 6839   3.793   0.222   8.940 -0.9646 -0.7190  0.3147
  810MOL0     C 6840   2.895   0.688   8.807 -0.2190 -0.2551  0.1810
  810MOL0     C 6841   2.776   0.709   8.742 -0.9388 -0.7890  1.3097
  810MOL0     C 6842   2.340   0.918   8.698 -1.5001 -0.9042  0.6552
  810MOL0     C 6843   2.253   1.031   8.720  0.9680  0.6369 -0.3803
  810MOL0     C 6844   2.124   1.041   8.655  0.1188  0.5822 -0.6746
  810MOL0     C 6845   2.087   0.938   8.566  0.0296  0.0424  0.5100
  810MOL0     O 6846   1.963   0.934   8.497  0.0998  0.1315 -0.3004
  810MOL0     C 6847   1.855   1.018   8.538 -0.2760 -0.1739  0.7014
  810MOL0     C 6848   1.754   1.021   8.429 -0.0272  0.1155  0.0574
  810MOL0     C 6849   1.807   1.085   8.297  0.6219 -0.2122  0.2767
  810MOL0     C 6850   1.702   1.067   8.185  0.6461 -1.2434 -0.0394
  810MOL0     C 6851   1.587   1.172   8.196  0.6668 -0.4453 -0.1953
  810MOL0     C 6852   1.490   1.243   8.213  0.1825 -0.0602 -0.0321
  810MOL0     C 6853   2.178   0.829   8.551 -0.2463  0.1944 -0.2054
  810MOL0     C 6854   2.295   0.811   8.620  0.2260 -0.4644 -0.5778
  810MOL0     H 6855   2.711   1.023   8.853 -1.5469 -0.9128  2.3871
  810MOL0     H 6856   2.905   0.973   8.989 -0.7683  3.0364 -0.1301
  810MOL0     H 6857   2.983   0.751   9.141 -0.3792  0.0039  0.8083
  810MOL0     H 6858   3.086   0.890   9.098 -1.1250 -0.0629  3.1231
  810MOL0     H 6859   3.180   0.724   9.272  5.2652 -0.2559  0.4713
  810MOL0     H 6860   3.269   0.768   9.141 -0.5031  0.5044  1.9607
  810MOL0     H 6861   3.203   0.551   9.019  0.2213  2.5524 -0.3226
  810MOL0     H 6862   3.091   0.519   9.150 -1.1767  1.4904  0.5038
  810MOL0     H 6863   3.325   0.540   9.298  2.1588 -1.2438  0.5869
  810MOL0     H 6864   3.300   0.399   9.196 -0.1128  0.2966  0.9665
  810MOL0     H 6865   3.456   0.656   9.147 -2.7362  1.0809 -0.0895
  810MOL0     H 6866   3.409   0.550   9.006 -4.5309  1.8146  0.7804
  810MOL0     H 6867   3.515   0.348   9.133  0.2456 -0.3605  1.4004
  810MOL0     H 6868   3.557   0.467   9.266  0.3160 -0.1139 -0.4411
  810MOL0     H 6869   3.717   0.587   9.124  1.3865  0.4940  1.3774
  810MOL0     H 6870   3.764   0.438   9.176 -2.1343  0.5567  3.8020
  810MOL0     H 6871   3.827   0.471   8.950  0.6795 -1.7850 -3.5399
  810MOL0     H 6872   3.671   0.516   8.892  1.7507 -2.9858 -3.2597
  810MOL0     H 6873   3.477   0.307   8.907 -0.6358  1.0248  2.1072
  810MOL0     H 6874   3.530  -0.071   8.955 -3.1584 -1.2036  0.1136
  810MOL0     H 6875   3.515  -0.024   8.788  0.6452 -0.7761 -0.8164
  810MOL0     H 6876   3.281  -0.026   8.867 -0.5291  2.2235 -2.4013
  810MOL0     H 6877   3.323   0.137   8.847 -3.0338 -1.3757 -0.7105
  810MOL0     H 6878   3.297  -0.034   9.099 -1.6519  0.4643  1.2716
  810MOL0     H 6879   3.395   0.119   9.099 -1.2333  0.7914 -0.9086
  810MOL0     H 6880   3.222   0.248   9.015  2.0842 -1.0679  0.3096
  810MOL0     H 6881   3.181   0.176   9.178  1.5612 -0.2628  0.6272
  810MOL0     H 6882   3.046   0.347   8.925  1.4544 -0.4699  0.5166
  810MOL0     H 6883   2.846   0.408   8.793 -0.6639 -1.0998 -1.3034
  810MOL0     H 6884   2.653   0.293   8.386 -0.2366 -0.7043  2.5638
  810MOL0     H 6885   2.512   0.281   8.182  0.1610  0.8270 -0.4487
  810MOL0     H 6886   2.181   0.030   8.006 -1.2837  0.1213  0.9002
  810MOL0     H 6887   2.171  -0.013   8.174  1.0727 -2.5754  0.6074
  810MOL0     H 6888   2.273  -0.190   8.027 -0.8081  0.5472  0.8289
  810MOL0     H 6889   2.369  -0.155   8.169  0.7610 -3.0327 -0.4984
  810MOL0     H 6890   2.488   0.018   7.998 -5.1584  2.0860  3.4113
  810MOL0     H 6891   2.435  -0.108   7.887 -0.0776  2.0435 -1.0384
  810MOL0     H 6892   2.604  -0.140   8.140  4.4483 -2.2722  0.0402
  810MOL0     H 6893   2.568  -0.277   8.027  0.6570 -0.2255  2.3699
  810MOL0     H 6894   2.678  -0.115   7.848 -0.4092 -0.5503  0.6736
  810MOL0     H 6895   2.792  -0.194   7.958 -0.6263 -0.5602 -0.0180
  810MOL0     H 6896   2.809   0.001   8.090 -1.7662  3.9401  0.8749
  810MOL0     H 6897   2.716   0.094   7.972 -1.0523 -1.5640 -1.9439
  810MOL0     H 6898   2.862   0.053   7.785  1.3865  0.3346 -0.4397
  810MOL0     H 6899   2.921   0.158   7.912 -1.7711 -0.2444 -0.4429
  810MOL0     H 6900   3.103   0.003   7.841 -0.7885 -1.2503 -0.5627
  810MOL0     H 6901   3.013  -0.136   7.915  2.8987  0.0094 -0.6090
  810MOL0     H 6902   2.271  -0.014   8.353 -0.5357  0.8736 -2.2556
  810MOL0     H 6903   2.408   0.012   8.575 -1.1460  1.7996  0.7787
  810MOL0     H 6904   2.764  -0.016   8.722 -0.4031  0.1200 -2.5465
  810MOL0     H 6905   2.955  -0.056   8.895 -0.3310  0.5021  2.2160
  810MOL0     H 6906   2.960   0.609   8.772 -1.1984  0.2756 -3.3072
  810MOL0     H 6907   2.734   0.625   8.688  0.4463 -2.7944  3.2127
  810MOL0     H 6908   2.284   1.118   8.777 -4.3628  1.9081  1.2437
  810MOL0     H 6909   2.064   1.130   8.670 -0.6601 -0.1340  0.6109
  810MOL0     H 6910   1.874   1.123   8.563 -1.2198  0.3550 -0.6232
  810MOL0     H 6911   1.813   0.979   8.631  0.7928 -2.1726  0.3865
  810MOL0     H 6912   1.715   0.918   8.424  2.3096 -0.7886 -0.9935
  810MOL0     H 6913   1.668   1.080   8.462 -1.4239 -0.7531 -1.8041
  810MOL0     H 6914   1.899   1.032   8.273  0.5002  0.6606 -2.5064
  810MOL0     H 6915   1.825   1.191   8.315  1.8393 -0.2294 -0.7297
  810MOL0     H 6916   1.744   1.074   8.084 -1.5916  1.3667 -0.9328
  810MOL0     H 6917   1.659   0.967   8.176 -1.2138 -0.6087  1.1905
  810MOL0     H 6918   1.421   1.325   8.216  2.6161  2.0559  0.7149
  810MOL0     H 6919   2.135   0.766   8.473 -0.0491  0.1271 -0.2597
  810MOL0     H 6920   2.362   0.730   8.594 -1.0430 -0.7700 -3.2555
  811MOL0     O 6921   5.129   2.222   4.848  0.1645  0.1224  0.9614
  811MOL0     C 6922   5.128   2.125   4.766  0.2289  0.6854  0.1565
  811MOL0     O 6923   5.183   2.128   4.639  0.4595  0.5297  0.2172
  811MOL0     C 6924   5.238   2.251   4.603 -0.3869  0.8282 -0.0056
  811MOL0     C 6925   5.365   2.289   4.654 -0.3559 -0.3025 -0.2783
  811MOL0     C 6926   5.439   2.386   4.580 -0.1463  0.7153 -0.1143
  811MOL0     C 6927   5.378   2.460   4.474 -0.8567 -0.3402 -0.9217
  811MOL0     O 6928   5.444   2.555   4.395  0.4386  0.1148 -0.5036
  811MOL0     C 6929   5.536   2.506   4.299 -0.2227  0.6952  0.2568
  811MOL0     C 6930   5.456   2.492   4.165  0.5550 -0.1046  0.1514
  811MOL0     C 6931   5.554   2.448   4.049 -0.9448  0.2499  0.2976
  811MOL0     C 6932   5.488   2.467   3.911 -0.3070 -0.1040  0.0644
  811MOL0     C 6933   5.422   2.337   3.861 -0.4863 -0.0744  0.0829
  811MOL0     C 6934   5.312   2.280   3.953  0.0319 -1.2654 -0.3544
  811MOL0     C 6935   5.239   2.172   3.877 -0.7824  0.3301  0.3220
  811MOL0     C 6936   5.127   2.101   3.960  0.2670  0.0155  0.4636
  811MOL0     N 6937   5.172   2.017   4.063 -0.0832  0.0022 -0.5886
  811MOL0     C 6938   5.235   2.064   4.178 -0.3261 -0.0416 -1.1398
  811MOL0     C 6939   5.299   1.960   4.233 -0.6199  0.4882  0.0165
  811MOL0     C 6940   5.400   1.977   4.337  0.6340  0.6022 -0.5786
  811MOL0     C 6941   5.534   2.048   4.294  0.0538 -0.4050 -0.7773
  811MOL0     C 6942   5.603   1.993   4.164  0.4043  0.4716  0.0098
  811MOL0     C 6943   5.632   1.845   4.169 -0.3489 -0.5978 -0.7460
  811MOL0     O 6944   5.755   1.821   4.242  0.0393 -0.0404  0.0883
  811MOL0     C 6945   5.774   1.700   4.301  1.0874 -0.1056 -0.5230
  811MOL0     C 6946   5.766   1.570   4.241 -1.0454  0.5918 -0.2494
  811MOL0     C 6947   5.792   1.457   4.314 -0.9337  1.6880 -1.0483
  811MOL0     C 6948   5.832   1.470   4.448 -0.3830 -0.2125 -0.5005
  811MOL0     C 6949   5.855   1.353   4.533  0.9451 -0.8041 -0.4520
  811MOL0     O 6950   5.831   1.237   4.464 -0.4395 -0.6569 -0.3966
  811MOL0     C 6951   5.781   1.128   4.532  0.7160  0.8943  0.7767
  811MOL0     C 6952   5.839   1.066   4.645  0.0957  0.3703  0.1436
  811MOL0     C 6953   5.783   0.946   4.704  0.4738 -0.2670 -0.1314
  811MOL0     C 6954   5.673   0.885   4.649 -0.6440 -1.2792 -0.3470
  811MOL0     O 6955   5.595   0.782   4.688 -0.8091 -0.1519 -0.5826
  811MOL0     C 6956   5.654   0.689   4.779 -0.4009 -0.8134 -0.1293
  811MOL0     C 6957   5.556   0.564   4.786 -0.3180  0.2008 -0.0555
  811MOL0     C 6958   5.572   0.474   4.913  0.0849  0.6822 -1.1328
  811MOL0     C 6959   5.723   0.437   4.916  0.7684 -0.4389  0.0894
  811MOL0     C 6960   5.749   0.322   5.018  0.4554  0.6803  0.2298
  811MOL0     C 6961   5.726   0.377   5.159 -0.1286 -0.3499  0.5575
  811MOL0     C 6962   5.780   0.287   5.269  0.5945  0.5786 -0.0372
  811MOL0     C 6963   5.764   0.354   5.409  0.4099  0.4529  0.8267
  811MOL0    Cl 6964   5.592   0.382   5.448 -0.4017  0.2441 -0.2039
  811MOL0     C 6965   5.611   0.957   4.540  0.0591  0.6691  0.1852
  811MOL0     C 6966   5.662   1.074   4.487 -0.6647  1.1159  0.2091
  811MOL0     O 6967   5.874   1.368   4.652  0.5452  0.9826  0.0374
  811MOL0     C 6968   5.848   1.595   4.510 -0.4817 -0.2634  0.1018
  811MOL0     C 6969   5.818   1.711   4.437 -0.1829 -0.0207 -0.1402
  811MOL0     N 6970   5.267   1.846   4.155 -1.0338 -0.6231  0.3515
  811MOL0     N 6971   5.195   1.884   4.043  0.3374 -0.2574  0.5559
  811MOL0     C 6972   5.252   2.422   4.432  0.4954 -0.6407 -0.2448
  811MOL0     C 6973   5.188   2.309   4.490 -0.0586  0.0719  0.7935
  811MOL0     C 6974   5.061   1.991   4.810  0.3817  0.3294 -0.1248
  811MOL0     C 6975   5.094   1.884   4.730  0.5013  0.1407  0.6125
  811MOL0     C 6976   5.033   1.761   4.753 -0.3010 -0.2437 -0.7205
  811MOL0     C 6977   4.942   1.739   4.859  0.8338 -0.9331 -0.5697
  811MOL0     O 6978   4.876   1.618   4.866  0.8090  0.5150 -0.8359
  811MOL0     C 6979   4.845   1.562   4.991 -0.0657 -0.4098 -0.9267
  811MOL0     C 6980   4.840   1.415   4.998  0.5653 -0.5665  0.1276
  811MOL0     C 6981   4.721   1.355   4.915  0.9089 -0.2548  0.9431
  811MOL0     C 6982   4.696   1.207   4.928  0.1695  0.2807  0.1252
  811MOL0     C 6983   4.597   1.164   4.827  0.1780  0.1903  0.1992
  811MOL0     C 6984   4.501   1.132   4.758  0.1479  0.2969 -0.7488
  811MOL0     C 6985   4.924   1.849   4.951  0.8770  0.3843  0.3022
  811MOL0     C 6986   4.983   1.972   4.924 -0.7258 -0.1621  0.4705
  811MOL0     H 6987   5.412   2.233   4.734  3.0403  3.5516  0.7864
  811MOL0     H 6988   5.539   2.416   4.612  0.0668  3.1664 -2.7189
  811MOL0     H 6989   5.591   2.417   4.331  1.8586  2.2376  1.1773
  811MOL0     H 6990   5.615   2.582   4.295 -0.7871  1.2463 -0.7658
  811MOL0     H 6991   5.403   2.587   4.152  3.2080  1.1209 -3.1941
  811MOL0     H 6992   5.378   2.416   4.167  0.5638 -0.1149  0.0910
  811MOL0     H 6993   5.577   2.341   4.060 -1.8894 -0.1569 -1.3933
  811MOL0     H 6994   5.646   2.507   4.047 -1.8669  1.6976 -1.1313
  811MOL0     H 6995   5.410   2.544   3.908 -1.3893 -1.1799 -0.3103
  811MOL0     H 6996   5.556   2.492   3.828 -0.1264 -0.5950  0.0627
  811MOL0     H 6997   5.505   2.272   3.832  0.0309  1.6850 -2.8921
  811MOL0     H 6998   5.381   2.353   3.760  1.6975 -0.6635 -0.9646
  811MOL0     H 6999   5.228   2.350   3.964  2.0487  1.0293  1.4795
  811MOL0     H 7000   5.354   2.240   4.045 -0.1366 -0.4238  0.0988
  811MOL0     H 7001   5.193   2.227   3.794  1.4437  0.7017 -0.7599
  811MOL0     H 7002   5.305   2.092   3.842 -1.6116  0.2705 -1.2029
  811MOL0     H 7003   5.058   2.043   3.898  0.4260  0.7975 -0.4553
  811MOL0     H 7004   5.067   2.181   4.004 -1.3402 -0.8463 -0.0452
  811MOL0     H 7005   5.244   2.165   4.215 -2.8599 -0.4006  0.6794
  811MOL0     H 7006   5.416   1.878   4.382 -2.6552 -0.4333 -1.3605
  811MOL0     H 7007   5.350   2.041   4.410  0.8174 -0.6770  0.7133
  811MOL0     H 7008   5.609   2.037   4.374  0.2460 -1.4159 -1.0801
  811MOL0     H 7009   5.511   2.154   4.283  0.1681  0.0616  2.4931
  811MOL0     H 7010   5.541   2.003   4.074  2.5400  2.1176 -1.3973
  811MOL0     H 7011   5.697   2.049   4.162 -0.6470  2.7399  3.5665
  811MOL0     H 7012   5.640   1.797   4.070  0.1652 -1.5150 -0.2711
  811MOL0     H 7013   5.557   1.786   4.223  0.7520 -0.7572  0.6620
  811MOL0     H 7014   5.742   1.562   4.136  1.8619  0.7600 -1.0182
  811MOL0     H 7015   5.775   1.362   4.266 -0.5017  0.9400  0.2167
  811MOL0     H 7016   5.932   1.111   4.678  0.2492  1.5594 -1.7583
  811MOL0     H 7017   5.844   0.908   4.786 -1.4425  2.4203  2.7838
  811MOL0     H 7018   5.648   0.729   4.881 -1.7069 -1.2795 -0.0044
  811MOL0     H 7019   5.759   0.674   4.752  0.1028  2.3391 -0.2277
  811MOL0     H 7020   5.582   0.512   4.694 -0.9002  0.6598 -0.4918
  811MOL0     H 7021   5.451   0.593   4.773 -0.2344  0.7010  0.3258
  811MOL0     H 7022   5.509   0.385   4.907  1.8328 -0.8071  0.8899
  811MOL0     H 7023   5.555   0.540   4.998  6.6137  0.8109  0.6015
  811MOL0     H 7024   5.750   0.399   4.817 -2.6582  1.6176 -1.8329
  811MOL0     H 7025   5.788   0.520   4.944  0.0884  0.0576  0.2081
  811MOL0     H 7026   5.853   0.289   5.008  0.3051  0.0051  0.8281
  811MOL0     H 7027   5.685   0.236   4.999  0.0925  0.6655  1.4299
  811MOL0     H 7028   5.621   0.394   5.185  0.3505 -1.9828  4.3424
  811MOL0     H 7029   5.777   0.473   5.174  0.2935 -0.3880 -0.5695
  811MOL0     H 7030   5.714   0.199   5.272  1.7303 -0.3206 -0.7688
  811MOL0     H 7031   5.884   0.261   5.248  0.9571  0.3414  1.8381
  811MOL0     H 7032   5.825   0.444   5.424 -0.2096  1.3881 -1.7787
  811MOL0     H 7033   5.791   0.278   5.482 -0.1132 -0.5623 -0.0193
  811MOL0     H 7034   5.524   0.919   4.487 -1.3989  0.5882  2.4785
  811MOL0     H 7035   5.605   1.108   4.401 -0.3291 -2.2435 -1.4706
  811MOL0     H 7036   5.886   1.606   4.611 -0.7110  0.2751  0.1321
  811MOL0     H 7037   5.821   1.806   4.489 -1.4729 -2.1759  4.3135
  811MOL0     H 7038   5.209   2.480   4.351  0.7692 -0.1830 -0.0662
  811MOL0     H 7039   5.101   2.258   4.449  1.3279 -2.6435  1.0066
  811MOL0     H 7040   5.154   1.886   4.639 -3.2095 -1.4381 -2.1362
  811MOL0     H 7041   5.066   1.678   4.691  3.4645 -0.9663  1.9009
  811MOL0     H 7042   4.754   1.610   5.030  0.8449  0.7419 -0.1735
  811MOL0     H 7043   4.930   1.594   5.051 -1.2271  2.8839 -0.8348
  811MOL0     H 7044   4.942   1.393   4.967 -0.3242 -1.4346 -2.4622
  811MOL0     H 7045   4.832   1.386   5.103  3.1194 -2.1144 -0.0157
  811MOL0     H 7046   4.750   1.381   4.813 -0.7904  0.9577  0.7501
  811MOL0     H 7047   4.633   1.416   4.935 -0.5715 -1.4411 -1.5014
  811MOL0     H 7048   4.788   1.154   4.902  0.4068 -1.2351  3.5301
  811MOL0     H 7049   4.663   1.177   5.028 -1.8548  0.4888 -0.4344
  811MOL0     H 7050   4.415   1.113   4.696 -1.1056  3.2711 -0.0793
  811MOL0     H 7051   4.859   1.840   5.037  0.9742  2.6630  0.6753
  811MOL0     H 7052   4.947   2.056   4.983 -2.8219  1.1202 -2.3741
  812MOL0     O 7053   0.956   1.681   5.102 -0.1757  0.1497 -0.4627
  812MOL0     C 7054   1.004   1.604   5.016  0.4652 -0.2833  0.0877
  812MOL0     O 7055   1.132   1.626   4.956  0.4357 -0.4865 -0.3473
  812MOL0     C 7056   1.195   1.744   4.973  0.9448 -0.0053  0.6127
  812MOL0     C 7057   1.235   1.781   5.098 -0.6354  0.9367 -0.7036
  812MOL0     C 7058   1.311   1.889   5.133  0.4949  0.2239  1.4413
  812MOL0     C 7059   1.327   1.982   5.021 -0.3367  0.3661 -0.8658
  812MOL0     O 7060   1.396   2.103   5.047 -0.8038  0.3968 -0.0738
  812MOL0     C 7061   1.483   2.105   5.151 -0.8362  0.4796 -0.6662
  812MOL0     C 7062   1.595   2.207   5.129 -0.8549  0.3436 -0.1308
  812MOL0     C 7063   1.672   2.220   5.260 -0.2701  0.7069  0.2618
  812MOL0     C 7064   1.757   2.349   5.255 -0.4295  0.3229 -1.5193
  812MOL0     C 7065   1.859   2.361   5.364  0.4521  0.2341 -0.3946
  812MOL0     C 7066   1.796   2.424   5.485  0.2199 -0.6418  0.2343
  812MOL0     C 7067   1.878   2.396   5.610 -0.5427  0.0974 -0.0252
  812MOL0     C 7068   1.983   2.514   5.638  0.7266 -0.1569 -0.3474
  812MOL0     N 7069   2.055   2.474   5.761  0.3022  0.1847 -0.9274
  812MOL0     C 7070   2.181   2.427   5.780  0.1047  0.2683 -0.1683
  812MOL0     C 7071   2.179   2.426   5.911  0.2532 -0.4894  0.6253
  812MOL0     C 7072   2.304   2.365   5.976 -0.0043 -0.3689  0.1917
  812MOL0     C 7073   2.300   2.395   6.126 -0.2463 -0.4348 -0.2704
  812MOL0     C 7074   2.430   2.350   6.194  0.3649 -0.5035  0.0444
  812MOL0     C 7075   2.443   2.192   6.192 -0.3229  1.0538 -1.2452
  812MOL0     O 7076   2.329   2.119   6.232 -0.4623 -0.6061 -0.1513
  812MOL0     C 7077   2.287   2.090   6.368 -0.0656  1.0214  0.1256
  812MOL0     C 7078   2.362   2.115   6.489 -0.6790  0.3097 -0.4842
  812MOL0     C 7079   2.304   2.102   6.610  0.2233  0.1882 -0.6751
  812MOL0     C 7080   2.182   2.047   6.629  0.4654 -0.9848  0.0385
  812MOL0     C 7081   2.111   2.045   6.754  0.2039  0.8998  0.2503
  812MOL0     O 7082   2.017   1.951   6.772  0.3125 -0.5784  0.5687
  812MOL0     C 7083   1.942   1.951   6.890 -0.0146 -0.1594  0.4662
  812MOL0     C 7084   1.899   1.822   6.937 -0.1870 -0.2446 -0.5517
  812MOL0     C 7085   1.804   1.812   7.040  0.5647 -0.6722  0.3325
  812MOL0     C 7086   1.739   1.918   7.088  0.4044  0.1475  1.1325
  812MOL0     O 7087   1.629   1.893   7.177  0.6761  1.1122  0.5768
  812MOL0     C 7088   1.562   2.013   7.216  0.3533 -0.2519  0.0664
  812MOL0     C 7089   1.441   1.967   7.308  0.7969 -0.5051  0.5240
  812MOL0     C 7090   1.372   2.094   7.367 -0.5138  0.6926 -1.1613
  812MOL0     C 7091   1.232   2.057   7.405 -0.2505  0.8175 -0.0572
  812MOL0     C 7092   1.203   1.939   7.505 -0.0856 -0.4988 -0.1384
  812MOL0     C 7093   1.281   1.955   7.629 -0.4825 -0.3542  0.1294
  812MOL0     C 7094   1.241   2.075   7.710  0.6930 -0.4786 -0.4307
  812MOL0     C 7095   1.272   2.070   7.857  0.0118  0.4946 -0.7964
  812MOL0    Cl 7096   1.447   2.038   7.865  0.0205  0.7842 -0.0909
  812MOL0     C 7097   1.774   2.042   7.030 -0.4287 -0.0775  0.3825
  812MOL0     C 7098   1.874   2.063   6.939  0.4985  0.7048 -1.0785
  812MOL0     O 7099   2.146   2.124   6.833  0.3700  0.2715 -0.6393
  812MOL0     C 7100   2.123   1.989   6.521 -0.1884  0.0706  1.2757
  812MOL0     C 7101   2.171   2.015   6.393 -0.5578  0.1447 -0.3563
  812MOL0     N 7102   2.060   2.466   5.979 -0.4481 -0.3910 -0.1330
  812MOL0     N 7103   1.983   2.486   5.884  0.6165 -0.3059 -0.1831
  812MOL0     C 7104   1.289   1.955   4.892  0.1292 -0.6302 -0.0133
  812MOL0     C 7105   1.218   1.837   4.873 -0.2462  0.5067  0.6591
  812MOL0     C 7106   0.933   1.480   4.985  0.5916  0.6677  0.0404
  812MOL0     C 7107   0.841   1.419   5.078 -1.1592 -0.4878 -0.8529
  812MOL0     C 7108   0.782   1.301   5.038 -0.7080 -0.0092 -0.1585
  812MOL0     C 7109   0.812   1.245   4.915  0.1731  0.0604  0.4314
  812MOL0     O 7110   0.750   1.124   4.896 -0.7613  0.6138  0.3412
  812MOL0     C 7111   0.789   1.029   4.789 -0.1144  0.1389 -0.4170
  812MOL0     C 7112   0.902   0.945   4.839 -0.7468 -1.0632 -0.0885
  812MOL0     C 7113   0.967   0.880   4.724  0.1925  0.8485 -0.4933
  812MOL0     C 7114   1.085   0.792   4.762 -1.3359 -0.2411  0.2016
  812MOL0     C 7115   1.168   0.751   4.650 -0.8597  0.5041  0.1941
  812MOL0     C 7116   1.242   0.732   4.555  1.0341  0.6140 -0.3213
  812MOL0     C 7117   0.901   1.314   4.828 -0.4084  0.3246  0.3440
  812MOL0     C 7118   0.959   1.432   4.855 -0.2461 -0.2216 -0.1673
  812MOL0     H 7119   1.205   1.714   5.178 -4.0841  3.6906  0.5973
  812MOL0     H 7120   1.344   1.912   5.234  0.5884  3.4036  0.7980
  812MOL0     H 7121   1.541   2.015   5.173 -0.0543  1.2889  0.7702
  812MOL0     H 7122   1.425   2.130   5.240  3.4891 -1.0262  2.9891
  812MOL0     H 7123   1.561   2.307   5.100 -0.2568  0.9851  1.3099
  812MOL0     H 7124   1.658   2.157   5.055  1.4501  1.5643  0.8977
  812MOL0     H 7125   1.728   2.128   5.281 -4.5231 -1.9363  1.0992
  812MOL0     H 7126   1.596   2.222   5.338 -2.8436  1.6205 -2.1170
  812MOL0     H 7127   1.811   2.368   5.161  1.5761  0.5025 -0.3882
  812MOL0     H 7128   1.688   2.433   5.253 -3.0803 -1.5803  1.5400
  812MOL0     H 7129   1.931   2.440   5.339 -1.2155  1.9341 -0.0628
  812MOL0     H 7130   1.894   2.261   5.389 -0.2122  0.3765  1.1922
  812MOL0     H 7131   1.699   2.377   5.505  0.5007 -1.1623  0.3792
  812MOL0     H 7132   1.781   2.532   5.474  3.7377 -0.2493 -2.9632
  812MOL0     H 7133   1.812   2.382   5.697  0.5495 -0.8337  0.6763
  812MOL0     H 7134   1.931   2.302   5.594 -0.0479  0.3943 -0.1572
  812MOL0     H 7135   1.931   2.606   5.667  0.1714 -1.1566  2.0673
  812MOL0     H 7136   2.057   2.527   5.559  0.4482 -0.1532 -0.6109
  812MOL0     H 7137   2.249   2.379   5.710 -0.7834  0.8998 -1.4962
  812MOL0     H 7138   2.391   2.419   5.938  0.4873 -0.7791  0.7141
  812MOL0     H 7139   2.304   2.258   5.955  0.8515 -0.3798  0.2205
  812MOL0     H 7140   2.220   2.341   6.177  0.1982 -0.7497  0.0988
  812MOL0     H 7141   2.287   2.502   6.142  0.4479 -0.4403  0.4015
  812MOL0     H 7142   2.512   2.390   6.134 -1.4694 -1.6878 -3.5319
  812MOL0     H 7143   2.436   2.374   6.301  1.6423 -0.4995 -0.0223
  812MOL0     H 7144   2.539   2.158   6.232 -0.7572  0.8844 -0.3109
  812MOL0     H 7145   2.442   2.158   6.088  0.3065 -1.6362 -0.4512
  812MOL0     H 7146   2.458   2.165   6.494 -1.6260  2.1110  1.0956
  812MOL0     H 7147   2.361   2.141   6.694  1.2129  0.3752 -1.4312
  812MOL0     H 7148   1.963   1.740   6.904  0.6699  0.3747 -0.4677
  812MOL0     H 7149   1.776   1.716   7.084  0.0008  0.7184  3.2086
  812MOL0     H 7150   1.514   2.062   7.131  0.9411  2.8083  1.3818
  812MOL0     H 7151   1.626   2.086   7.267  3.5703 -1.8159 -1.4181
  812MOL0     H 7152   1.470   1.908   7.395 -1.8902  2.5039  3.7884
  812MOL0     H 7153   1.369   1.913   7.244  3.9871 -0.7541 -3.2264
  812MOL0     H 7154   1.360   2.178   7.297  1.1548  1.3226 -0.7496
  812MOL0     H 7155   1.440   2.125   7.447 -0.7348 -1.6894  0.0413
  812MOL0     H 7156   1.186   2.142   7.456 -1.3397  0.3904 -0.3082
  812MOL0     H 7157   1.177   2.033   7.314  0.8363 -2.3306  0.0123
  812MOL0     H 7158   1.221   1.843   7.456 -2.3483 -1.0083 -0.0928
  812MOL0     H 7159   1.099   1.935   7.540 -0.5098  1.7895 -0.9654
  812MOL0     H 7160   1.386   1.967   7.599 -0.4092 -0.3561  0.3886
  812MOL0     H 7161   1.271   1.863   7.687 -1.8104 -1.0342 -1.0980
  812MOL0     H 7162   1.276   2.165   7.659 -2.6806  1.1386 -0.1141
  812MOL0     H 7163   1.134   2.075   7.687  0.5073  0.9010  0.3741
  812MOL0     H 7164   1.229   1.980   7.901  2.6112 -0.6850 -0.4656
  812MOL0     H 7165   1.244   2.166   7.902  0.4126  0.2444  0.0211
  812MOL0     H 7166   1.729   2.134   7.065  0.9029  0.7417  0.0422
  812MOL0     H 7167   1.902   2.162   6.906 -0.5341  2.2594  2.3072
  812MOL0     H 7168   2.027   1.941   6.531 -1.2787  2.4165  2.8503
  812MOL0     H 7169   2.126   1.977   6.302  0.4366  2.1313 -1.7690
  812MOL0     H 7170   1.300   2.029   4.813  0.6885 -2.0074 -1.2843
  812MOL0     H 7171   1.189   1.813   4.771 -0.3350 -2.6475  1.3385
  812MOL0     H 7172   0.825   1.451   5.180  3.4854  0.1264 -0.0788
  812MOL0     H 7173   0.717   1.244   5.104  0.5722 -0.2134  0.9673
  812MOL0     H 7174   0.828   1.090   4.708 -2.3763  0.2018 -1.5329
  812MOL0     H 7175   0.707   0.971   4.746 -0.2727 -0.3612  0.5209
  812MOL0     H 7176   0.982   0.988   4.900  1.2462 -4.3662 -0.0890
  812MOL0     H 7177   0.860   0.866   4.902 -1.6182  1.5866  2.8858
  812MOL0     H 7178   0.987   0.943   4.637 -0.5555 -0.7195 -1.8613
  812MOL0     H 7179   0.886   0.813   4.694 -0.9435  1.6422  0.6855
  812MOL0     H 7180   1.139   0.834   4.847 -2.7588 -2.7354  2.4854
  812MOL0     H 7181   1.048   0.698   4.804 -0.3349 -2.3623 -3.2579
  812MOL0     H 7182   1.318   0.709   4.484  2.2329  0.1948  1.0412
  812MOL0     H 7183   0.927   1.263   4.736 -0.1732 -3.3930  2.2317
  812MOL0     H 7184   1.023   1.476   4.780 -0.9208  0.2434 -0.4795
  813MOL0     O 7185   7.525   9.196  10.464  1.1376  0.8165  0.5208
  813MOL0     C 7186   7.441   9.103  10.441 -0.0014  0.2383  0.1506
  813MOL0     O 7187   7.430   8.986  10.510  1.2080  0.0032  0.0939
  813MOL0     C 7188   7.546   8.932  10.544 -0.4673  0.3406  0.1110
  813MOL0     C 7189   7.680   8.945  10.482  1.2742  0.3454 -0.2361
  813MOL0     C 7190   7.787   8.885  10.536 -1.1986  0.8818 -0.2968
  813MOL0     C 7191   7.778   8.791  10.637  0.1284  0.1511 -0.5488
  813MOL0     O 7192   7.888   8.726  10.689  0.2153 -0.2008  0.4480
  813MOL0     C 7193   7.884   8.585  10.678 -1.2747 -0.4087 -0.6384
  813MOL0     C 7194   8.008   8.546  10.752  0.1084  0.3468 -0.9030
  813MOL0     C 7195   8.020   8.580  10.902 -0.4009  0.6624 -0.7269
  813MOL0     C 7196   8.158   8.546  10.949 -0.9213  0.3530  0.0196
  813MOL0     C 7197   8.178   8.576  11.098 -0.4622  0.5331  0.4111
  813MOL0     C 7198   8.159   8.724  11.147  0.0112 -0.2876  0.0271
  813MOL0     C 7199   8.228   8.771  11.278 -0.2718  0.4754 -0.4219
  813MOL0     C 7200   8.175   8.915  11.308 -0.3219 -0.3217 -0.1738
  813MOL0     N 7201   8.236   8.983  11.420 -0.3197 -0.2691  0.9216
  813MOL0     C 7202   8.195   9.104  11.473  0.1150 -0.1576 -0.2701
  813MOL0     C 7203   8.301   9.149  11.550  0.1200  0.2542 -0.5808
  813MOL0     C 7204   8.286   9.267  11.641  0.0006  0.3850 -0.3867
  813MOL0     C 7205   8.412   9.276  11.735 -0.1823  0.5379  0.4774
  813MOL0     C 7206   8.438   9.406  11.792 -0.4558 -0.4337 -0.1900
  813MOL0     C 7207   8.559   9.398  11.874  0.2738  0.9135 -0.5742
  813MOL0     O 7208   8.558   9.527  11.934  0.3194 -0.2988  0.2618
  813MOL0     C 7209   8.667   9.564  12.014 -0.6586  0.3074 -0.8476
  813MOL0     C 7210   8.774   9.493  12.055 -0.3987  0.4624  0.0450
  813MOL0     C 7211   8.867   9.547  12.148  0.1094 -0.7800 -0.1651
  813MOL0     C 7212   8.856   9.679  12.194  0.1639 -0.1655  0.0013
  813MOL0     C 7213   8.937   9.717  12.308  0.2688  0.3178 -0.0663
  813MOL0     O 7214   9.046   9.641  12.337  0.4645 -0.0382 -1.1758
  813MOL0     C 7215   9.116   9.669  12.456 -0.7711  0.3684  0.3178
  813MOL0     C 7216   9.117   9.592  12.576  0.6893  0.0694  1.0209
  813MOL0     C 7217   9.173   9.630  12.696 -0.3377 -0.5290 -0.9597
  813MOL0     C 7218   9.260   9.738  12.697  0.2486 -0.6199 -0.2182
  813MOL0     O 7219   9.345   9.760  12.807 -0.8657 -1.0355 -0.3930
  813MOL0     C 7220   9.420   9.645  12.841  0.6544  0.4446  0.0244
  813MOL0     C 7221   9.557   9.681  12.890 -0.7242  1.0732  0.5071
  813MOL0     C 7222   9.570   9.742  13.026  0.2262  0.3889 -0.0415
  813MOL0     C 7223   9.714   9.766  13.051  0.1854 -1.1337  0.0504
  813MOL0     C 7224   9.736   9.870  13.170  0.0784  0.5656 -0.0667
  813MOL0     C 7225   9.662   9.840  13.305 -1.2923 -0.3205 -0.1715
  813MOL0     C 7226   9.737   9.912  13.422  0.0560  0.6468  0.9077
  813MOL0     C 7227   9.657   9.881  13.554  0.4161 -0.4060 -0.0853
  813MOL0    Cl 7228   9.683   9.710  13.607 -0.1193  0.0980 -0.4481
  813MOL0     C 7229   9.279   9.808  12.574  0.2858  0.3087  0.1749
  813MOL0     C 7230   9.205   9.776  12.454  0.7749 -0.4199  0.0155
  813MOL0     O 7231   8.889   9.801  12.387  0.3672 -0.5258 -0.0548
  813MOL0     C 7232   8.747   9.750  12.145 -0.6351 -0.2040  0.7795
  813MOL0     C 7233   8.654   9.695  12.056 -0.1085 -0.5580 -0.0494
  813MOL0     N 7234   8.407   9.077  11.529  0.4338  0.4341  0.0805
  813MOL0     N 7235   8.361   8.970  11.462 -0.4517  0.2451  0.2534
  813MOL0     C 7236   7.658   8.783  10.698 -0.0008  0.0041 -0.3432
  813MOL0     C 7237   7.550   8.840  10.650  0.6256 -0.4626  0.2369
  813MOL0     C 7238   7.349   9.113  10.323  0.1887  0.0534  0.3171
  813MOL0     C 7239   7.279   9.235  10.307 -0.0186 -0.3584 -0.7006
  813MOL0     C 7240   7.209   9.258  10.191  0.2573 -0.3762  0.3482
  813MOL0     C 7241   7.179   9.150  10.108  0.3599 -0.2639  0.5701
  813MOL0     O 7242   7.104   9.164   9.995  0.0584  0.3455  0.1189
  813MOL0     C 7243   7.150   9.088   9.874 -0.3473 -0.0142  0.4444
  813MOL0     C 7244   7.068   9.146   9.757  0.6011 -0.0131 -0.1353
  813MOL0     C 7245   7.127   9.120   9.622 -0.7441  0.2281 -0.0489
  813MOL0     C 7246   7.016   9.099   9.512 -0.2601  1.3111 -0.2171
  813MOL0     C 7247   7.082   9.068   9.384 -0.2710  1.0225  0.3783
  813MOL0     C 7248   7.139   9.046   9.280  0.2037  0.9609  0.5232
  813MOL0     C 7249   7.225   9.020  10.142 -0.9162  0.0863  1.1148
  813MOL0     C 7250   7.318   9.000  10.250 -0.3551  0.0635  0.0644
  813MOL0     H 7251   7.692   9.018  10.402 -3.7924  2.0848  0.2180
  813MOL0     H 7252   7.891   8.901  10.510 -1.1256 -1.2195 -1.5200
  813MOL0     H 7253   7.891   8.566  10.571  2.9373 -2.8952 -0.1216
  813MOL0     H 7254   7.792   8.542  10.719 -1.4436 -0.8074 -1.4308
  813MOL0     H 7255   8.088   8.605  10.704 -0.4852 -0.3583 -2.8652
  813MOL0     H 7256   8.024   8.440  10.729 -2.1463  0.1093 -1.5703
  813MOL0     H 7257   7.939   8.535  10.961  0.6141 -0.4683 -0.1728
  813MOL0     H 7258   8.006   8.688  10.917  2.1919  0.8234  1.2279
  813MOL0     H 7259   8.167   8.438  10.941 -2.5626  0.1563  0.5550
  813MOL0     H 7260   8.231   8.603  10.891 -1.5823  1.9918  0.7114
  813MOL0     H 7261   8.277   8.536  11.120  0.1611  0.3364 -2.4532
  813MOL0     H 7262   8.108   8.511  11.152  0.0919  0.0316  0.5412
  813MOL0     H 7263   8.052   8.750  11.139 -0.6060 -2.7342 -0.3459
  813MOL0     H 7264   8.204   8.777  11.063 -4.4377  0.4513 -2.2108
  813MOL0     H 7265   8.196   8.706  11.359 -1.9092  1.3660 -0.3214
  813MOL0     H 7266   8.337   8.778  11.263 -0.5530  1.1736 -2.4279
  813MOL0     H 7267   8.067   8.910  11.321 -0.4849 -0.2342 -1.3923
  813MOL0     H 7268   8.211   8.977  11.225  0.1536  1.0117  0.9708
  813MOL0     H 7269   8.091   9.135  11.475  0.3922  0.8900 -1.1813
  813MOL0     H 7270   8.199   9.257  11.706  2.5171 -0.9652  3.1356
  813MOL0     H 7271   8.275   9.363  11.591  4.2914  1.3612  0.1019
  813MOL0     H 7272   8.502   9.236  11.686 -2.1809 -1.6553 -1.7383
  813MOL0     H 7273   8.385   9.209  11.817  0.3501 -0.0096  0.2161
  813MOL0     H 7274   8.450   9.479  11.712 -2.7437 -0.3352 -0.4946
  813MOL0     H 7275   8.353   9.436  11.854  0.2283 -2.2641  1.7674
  813MOL0     H 7276   8.652   9.380  11.818  1.0270 -1.1076  1.1842
  813MOL0     H 7277   8.536   9.327  11.954  0.5128 -1.2094 -2.2745
  813MOL0     H 7278   8.797   9.389  12.036  1.5390  1.4191 -4.1004
  813MOL0     H 7279   8.944   9.482  12.189  2.5351  1.8396 -0.2586
  813MOL0     H 7280   9.079   9.491  12.589  1.5108 -0.2774  0.8227
  813MOL0     H 7281   9.176   9.564  12.782 -1.5514  2.8794  1.9351
  813MOL0     H 7282   9.437   9.584  12.752  0.5780  0.7401 -0.1917
  813MOL0     H 7283   9.375   9.577  12.914  0.9496 -0.2455 -0.4229
  813MOL0     H 7284   9.590   9.751  12.812 -1.6243  0.8705 -0.0699
  813MOL0     H 7285   9.609   9.587  12.913 -0.0028  1.0007 -1.2442
  813MOL0     H 7286   9.530   9.675  13.103  1.2281  1.7764  1.7697
  813MOL0     H 7287   9.512   9.834  13.030  0.1973  0.3917 -0.4611
  813MOL0     H 7288   9.751   9.669  13.087  1.2808 -0.6736  0.1768
  813MOL0     H 7289   9.775   9.771  12.960 -0.3550 -4.6224 -0.6560
  813MOL0     H 7290   9.698   9.967  13.137  1.6347  1.2309  0.0054
  813MOL0     H 7291   9.843   9.866  13.191  0.0746 -0.3934 -0.1801
  813MOL0     H 7292   9.640   9.736  13.333 -0.6451 -0.8132 -1.4107
  813MOL0     H 7293   9.566   9.887  13.284 -1.1364 -0.6166 -1.6296
  813MOL0     H 7294   9.842   9.882  13.430 -0.4112 -1.2693  0.5801
  813MOL0     H 7295   9.734  10.019  13.404 -3.6137  0.0634 -3.8354
  813MOL0     H 7296   9.551   9.904  13.539  0.6708  3.2998  2.4915
  813MOL0     H 7297   9.688   9.949  13.633  1.7890  0.6065 -1.4291
  813MOL0     H 7298   9.342   9.897  12.574  1.8047 -0.6363  3.2870
  813MOL0     H 7299   9.212   9.828  12.359 -1.1796 -1.1353 -0.5919
  813MOL0     H 7300   8.711   9.847  12.178 -0.9682  1.4828 -3.7982
  813MOL0     H 7301   8.569   9.752  12.019  1.9327  1.3316 -2.1585
  813MOL0     H 7302   7.658   8.717  10.785 -1.2724  0.7025  0.2127
  813MOL0     H 7303   7.453   8.823  10.695  1.1151 -0.9977  1.1233
  813MOL0     H 7304   7.301   9.315  10.377  0.9609 -2.0057  0.9567
  813MOL0     H 7305   7.181   9.359  10.162 -0.0177 -1.2107 -2.5864
  813MOL0     H 7306   7.128   8.983   9.891 -0.3816  0.1274  1.2792
  813MOL0     H 7307   7.253   9.110   9.845 -0.9334  0.4234 -1.4749
  813MOL0     H 7308   6.970   9.098   9.755  0.1994  0.7430  0.6752
  813MOL0     H 7309   7.053   9.255   9.757 -0.6614 -0.1223  1.9548
  813MOL0     H 7310   7.193   9.033   9.635  0.8715  1.4933  0.4320
  813MOL0     H 7311   7.189   9.207   9.601  0.6515 -0.8964 -0.8151
  813MOL0     H 7312   6.963   9.005   9.529  1.6668 -0.3273 -2.4920
  813MOL0     H 7313   6.943   9.178   9.525  0.1893  1.3483  2.8207
  813MOL0     H 7314   7.184   9.033   9.183 -1.5534  0.2300 -0.2394
  813MOL0     H 7315   7.187   8.928  10.100 -2.1545  1.5329 -1.1181
  813MOL0     H 7316   7.344   8.899  10.281 -2.4182 -0.6043 -0.2388
  814MOL0     O 7317   3.835   1.851   6.171  0.6413 -0.1758 -0.7953
  814MOL0     C 7318   3.760   1.944   6.146  0.0859 -0.3018 -1.1030
  814MOL0     O 7319   3.657   1.989   6.226  0.2258  0.1463  0.9668
  814MOL0     C 7320   3.598   1.923   6.325 -0.8109  0.2765 -0.2018
  814MOL0     C 7321   3.501   1.994   6.389 -1.1345 -0.3881 -0.0926
  814MOL0     C 7322   3.422   1.947   6.495  1.7077  0.1432  0.7320
  814MOL0     C 7323   3.440   1.807   6.528 -0.2498 -1.5286 -0.2284
  814MOL0     O 7324   3.366   1.749   6.619  0.3256 -0.7988 -0.0180
  814MOL0     C 7325   3.288   1.811   6.720  0.1752 -0.7650 -0.4551
  814MOL0     C 7326   3.258   1.725   6.838 -0.7063  0.1417  0.3988
  814MOL0     C 7327   3.205   1.813   6.952 -0.3113  0.9945 -0.4897
  814MOL0     C 7328   3.174   1.718   7.072 -1.0555 -0.1928  0.1516
  814MOL0     C 7329   3.046   1.626   7.082 -0.2388  0.6474 -0.4690
  814MOL0     C 7330   3.054   1.580   7.229 -0.5421  0.9095 -0.8749
  814MOL0     C 7331   2.937   1.477   7.242 -1.4331  0.8615 -0.3971
  814MOL0     C 7332   2.891   1.480   7.390  0.8317  0.1235  0.8099
  814MOL0     N 7333   2.766   1.395   7.405 -0.3830 -0.1793  0.6314
  814MOL0     C 7334   2.644   1.449   7.434  0.6254 -0.0955 -0.0632
  814MOL0     C 7335   2.579   1.359   7.510  0.1004  0.7451  0.7727
  814MOL0     C 7336   2.449   1.394   7.561 -1.2290  0.6128  0.3187
  814MOL0     C 7337   2.459   1.440   7.710  0.5458  0.1556  0.0980
  814MOL0     C 7338   2.456   1.331   7.809  0.1108  0.9204  0.0011
  814MOL0     C 7339   2.435   1.396   7.948 -1.1190  0.0201 -0.0363
  814MOL0     O 7340   2.558   1.464   7.980  0.1797 -0.3745 -0.0039
  814MOL0     C 7341   2.565   1.540   8.094 -0.5122 -1.1781  0.3360
  814MOL0     C 7342   2.453   1.592   8.173  0.3098  0.4940  1.1461
  814MOL0     C 7343   2.469   1.674   8.279 -0.3571 -1.1310  0.2673
  814MOL0     C 7344   2.602   1.698   8.333 -0.9379 -0.1409 -0.0814
  814MOL0     C 7345   2.623   1.763   8.465 -0.2879 -0.7796  0.3798
  814MOL0     O 7346   2.752   1.775   8.499  0.5051 -0.6731  0.0352
  814MOL0     C 7347   2.792   1.833   8.624  0.1247  1.7614  0.8028
  814MOL0     C 7348   2.931   1.839   8.644 -0.1768  0.2176  0.2616
  814MOL0     C 7349   2.991   1.889   8.756 -0.0747  0.9236  0.4928
  814MOL0     C 7350   2.918   1.924   8.869 -0.4616 -0.3751  0.5697
  814MOL0     O 7351   2.973   1.984   8.972  0.7405 -0.4505 -0.2540
  814MOL0     C 7352   2.940   1.954   9.110  0.4871  0.4007  0.0024
  814MOL0     C 7353   3.023   1.837   9.160  0.5135  1.1502 -0.1332
  814MOL0     C 7354   3.170   1.850   9.108 -0.0155 -0.8607 -0.2942
  814MOL0     C 7355   3.243   1.978   9.167  1.1082  0.8251 -0.1254
  814MOL0     C 7356   3.387   1.995   9.134 -0.5345 -0.4727 -0.3441
  814MOL0     C 7357   3.449   2.098   9.229  0.3362  0.4232 -0.3143
  814MOL0     C 7358   3.606   2.082   9.230  0.6182  0.4775  0.8184
  814MOL0     C 7359   3.688   2.118   9.104 -0.1578  0.3614 -0.3658
  814MOL0    Cl 7360   3.707   1.968   9.012 -0.5693 -0.4610 -0.0164
  814MOL0     C 7361   2.784   1.907   8.867 -0.4539  0.1047 -0.6612
  814MOL0     C 7362   2.718   1.858   8.742  0.0728 -0.5461  0.0206
  814MOL0     O 7363   2.531   1.800   8.535 -0.4880  0.1183  0.2445
  814MOL0     C 7364   2.708   1.648   8.266 -0.5268  0.1625  0.1092
  814MOL0     C 7365   2.693   1.573   8.150 -0.1267 -1.2770  0.2951
  814MOL0     N 7366   2.655   1.255   7.544  0.5424  0.1361  0.5106
  814MOL0     N 7367   2.769   1.273   7.478 -0.1247 -0.6421 -0.3322
  814MOL0     C 7368   3.539   1.734   6.461 -0.5522  0.8770 -0.0328
  814MOL0     C 7369   3.624   1.793   6.364  0.1313 -0.3571 -0.0957
  814MOL0     C 7370   3.795   2.030   6.030  1.7334 -0.1222  0.7162
  814MOL0     C 7371   3.708   2.136   5.994 -0.5887 -0.0855 -0.1385
  814MOL0     C 7372   3.749   2.219   5.891  0.2824 -0.3499  0.4748
  814MOL0     C 7373   3.852   2.187   5.806 -0.1607  0.3259 -1.0710
  814MOL0     O 7374   3.888   2.252   5.693  0.5547  0.3221  0.2790
  814MOL0     C 7375   3.803   2.349   5.628 -1.0116  0.4888  1.1715
  814MOL0     C 7376   3.886   2.393   5.509 -1.2113  0.4611 -0.8395
  814MOL0     C 7377   3.987   2.505   5.561  0.0028 -0.0368 -0.3851
  814MOL0     C 7378   3.908   2.635   5.610 -0.8326  0.4348 -0.8150
  814MOL0     C 7379   3.988   2.752   5.624 -0.0429 -0.6149  0.1443
  814MOL0     C 7380   4.056   2.858   5.624  0.7671 -0.3822  0.4605
  814MOL0     C 7381   3.940   2.081   5.845  0.9459  1.1163 -0.7507
  814MOL0     C 7382   3.916   2.005   5.961  1.5565  0.4382 -0.9422
  814MOL0     H 7383   3.488   2.097   6.358  0.0104  0.1438  1.0869
  814MOL0     H 7384   3.354   2.014   6.546 -0.2720 -0.8994 -0.4318
  814MOL0     H 7385   3.193   1.839   6.672  0.1890  3.3663  1.4725
  814MOL0     H 7386   3.347   1.898   6.748 -0.7856  0.4621 -2.0839
  814MOL0     H 7387   3.350   1.681   6.876 -1.7465  1.3006  4.8159
  814MOL0     H 7388   3.177   1.652   6.832 -1.2834  0.6591  1.5304
  814MOL0     H 7389   3.112   1.861   6.923 -0.7259  1.0479  0.8306
  814MOL0     H 7390   3.275   1.892   6.979 -0.0892  1.0166 -1.1228
  814MOL0     H 7391   3.263   1.663   7.104 -0.3221  1.0173  0.2621
  814MOL0     H 7392   3.165   1.797   7.148  1.2355 -0.1871  0.4975
  814MOL0     H 7393   3.052   1.543   7.011  0.5950  0.6672 -0.4311
  814MOL0     H 7394   2.948   1.673   7.069 -2.2280 -3.4051 -1.5661
  814MOL0     H 7395   3.042   1.668   7.293  1.0225 -0.4081  1.3876
  814MOL0     H 7396   3.151   1.531   7.247 -2.2720 -1.7259  2.4317
  814MOL0     H 7397   2.853   1.513   7.182 -1.0906  1.5149 -0.4906
  814MOL0     H 7398   2.974   1.382   7.203 -2.7704  1.2309 -2.7492
  814MOL0     H 7399   2.863   1.585   7.404 -2.1290 -0.3996 -0.5492
  814MOL0     H 7400   2.966   1.446   7.463  1.8263 -3.2735 -1.5307
  814MOL0     H 7401   2.615   1.550   7.408 -1.8435 -0.3457  1.3649
  814MOL0     H 7402   2.379   1.311   7.548 -0.5144  0.1702 -0.8455
  814MOL0     H 7403   2.407   1.475   7.500 -2.8203 -0.5664 -0.2358
  814MOL0     H 7404   2.379   1.508   7.739  1.6344  0.6151  2.2445
  814MOL0     H 7405   2.550   1.497   7.728 -1.1696  1.9379  4.2912
  814MOL0     H 7406   2.376   1.260   7.787  0.4846  0.5566 -0.1995
  814MOL0     H 7407   2.553   1.280   7.814  0.8133  1.8180 -2.4688
  814MOL0     H 7408   2.424   1.313   8.018 -3.2543 -2.0578 -2.6123
  814MOL0     H 7409   2.346   1.459   7.962 -2.2852 -1.9185  1.9893
  814MOL0     H 7410   2.350   1.574   8.144 -0.5869 -0.6513  4.5247
  814MOL0     H 7411   2.383   1.709   8.334 -1.7960 -2.4682 -1.0286
  814MOL0     H 7412   2.999   1.804   8.566  1.2389  0.2054  1.4652
  814MOL0     H 7413   3.099   1.905   8.750 -0.2393  1.6590 -1.2674
  814MOL0     H 7414   2.834   1.928   9.113  0.1121  1.7012 -0.8575
  814MOL0     H 7415   2.962   2.039   9.175  2.8465 -0.9875  1.1116
  814MOL0     H 7416   2.982   1.742   9.124 -0.6538  1.6134 -0.0558
  814MOL0     H 7417   3.027   1.833   9.269 -1.9116  1.4912  0.0191
  814MOL0     H 7418   3.174   1.861   8.999 -2.9344 -0.1461 -0.4136
  814MOL0     H 7419   3.231   1.763   9.132 -0.3608 -0.8810  0.5320
  814MOL0     H 7420   3.185   2.061   9.127 -1.3017 -0.4658  0.5288
  814MOL0     H 7421   3.235   1.973   9.276  2.1770 -0.7139 -0.0801
  814MOL0     H 7422   3.412   2.022   9.031  2.0011 -2.7328 -0.4305
  814MOL0     H 7423   3.438   1.900   9.151 -0.0770 -0.4838 -1.6823
  814MOL0     H 7424   3.417   2.073   9.331 -1.3602  2.0883 -0.3753
  814MOL0     H 7425   3.413   2.199   9.204  3.2215  1.2893 -1.3851
  814MOL0     H 7426   3.632   2.163   9.300  2.4412  0.7917 -0.1585
  814MOL0     H 7427   3.637   1.987   9.274  2.4835  0.5746 -0.1879
  814MOL0     H 7428   3.787   2.157   9.132  1.6077 -1.3040 -3.6361
  814MOL0     H 7429   3.636   2.182   9.032  0.7490 -1.4996 -2.8054
  814MOL0     H 7430   2.719   1.940   8.947  1.5300  0.6040  0.8360
  814MOL0     H 7431   2.610   1.847   8.741  0.1905 -1.8584 -0.9216
  814MOL0     H 7432   2.801   1.646   8.322  1.2285  1.6991 -2.5283
  814MOL0     H 7433   2.781   1.545   8.092  0.6823 -0.5348  1.1477
  814MOL0     H 7434   3.549   1.632   6.499 -0.6392  0.1417 -1.8940
  814MOL0     H 7435   3.693   1.730   6.308  1.8599  1.2446  0.1383
  814MOL0     H 7436   3.621   2.148   6.058 -0.6418  0.2194 -0.2683
  814MOL0     H 7437   3.693   2.306   5.859 -0.8354 -0.4682  1.9772
  814MOL0     H 7438   3.772   2.429   5.695  0.8341  1.7178  0.6300
  814MOL0     H 7439   3.716   2.300   5.582  0.3918 -0.0616 -1.0506
  814MOL0     H 7440   3.930   2.306   5.461 -2.8544 -0.6094 -0.4788
  814MOL0     H 7441   3.827   2.430   5.424 -0.1294 -2.3911 -3.0046
  814MOL0     H 7442   4.041   2.539   5.472 -0.2882 -0.8305 -0.8713
  814MOL0     H 7443   4.044   2.472   5.648 -2.5621  0.7033  1.7306
  814MOL0     H 7444   3.822   2.662   5.549 -0.4608  0.6692 -1.2437
  814MOL0     H 7445   3.864   2.611   5.707 -1.9588 -0.2808 -1.4796
  814MOL0     H 7446   4.107   2.952   5.627 -0.9548  0.6523 -1.0726
  814MOL0     H 7447   4.032   2.071   5.789  4.5035  3.2238  3.9813
  814MOL0     H 7448   3.983   1.928   5.999  0.5976 -1.1380 -2.3134
  815MOL0     O 7449   0.189   8.893   7.589 -0.1144 -0.7560 -0.1220
  815MOL0     C 7450   0.208   9.005   7.525 -0.6402 -0.5407  0.5700
  815MOL0     O 7451   0.237   9.120   7.589 -0.2752 -0.3298  0.9506
  815MOL0     C 7452   0.258   9.117   7.729 -0.1012 -0.2067 -0.2242
  815MOL0     C 7453   0.200   9.222   7.804 -0.6028  0.0935  0.2135
  815MOL0     C 7454   0.214   9.235   7.940 -0.6286 -1.4592 -0.1507
  815MOL0     C 7455   0.301   9.144   8.013 -0.0219  0.3188  0.3193
  815MOL0     O 7456   0.317   9.147   8.144 -0.6368 -0.3075 -0.1755
  815MOL0     C 7457   0.406   9.250   8.189 -0.9265 -0.4538 -0.1639
  815MOL0     C 7458   0.394   9.281   8.341  0.0342 -0.4376  0.2291
  815MOL0     C 7459   0.528   9.326   8.398 -0.7268 -0.2395  0.4613
  815MOL0     C 7460   0.598   9.196   8.436 -0.6130 -0.2050 -0.6882
  815MOL0     C 7461   0.731   9.215   8.513 -0.7525 -0.7168 -0.5761
  815MOL0     C 7462   0.839   9.288   8.442 -0.5615  1.0208  0.4649
  815MOL0     C 7463   0.976   9.267   8.510  0.3836 -0.1028  0.0069
  815MOL0     C 7464   1.065   9.160   8.444  0.3201 -0.2137 -0.5195
  815MOL0     N 7465   1.105   9.189   8.310 -0.0950  0.5491  0.4449
  815MOL0     C 7466   1.137   9.309   8.250  0.1970 -0.1155 -0.8111
  815MOL0     C 7467   1.141   9.287   8.117 -0.1968 -0.0447 -0.2128
  815MOL0     C 7468   1.168   9.393   8.017 -0.5804 -0.2711  0.8301
  815MOL0     C 7469   1.218   9.359   7.874 -0.4538  0.0464  0.0662
  815MOL0     C 7470   1.369   9.323   7.866  0.4781 -0.2037 -0.8295
  815MOL0     C 7471   1.401   9.174   7.857  0.4616  0.3136  0.0489
  815MOL0     O 7472   1.519   9.156   7.768  0.6045  0.4427  0.9969
  815MOL0     C 7473   1.640   9.194   7.813 -0.3879 -0.8162  1.0268
  815MOL0     C 7474   1.745   9.199   7.722  0.2243 -0.5235 -0.7246
  815MOL0     C 7475   1.875   9.209   7.772  0.2577  0.5469  0.4596
  815MOL0     C 7476   1.910   9.228   7.906  0.8041  0.2623 -0.3511
  815MOL0     C 7477   2.056   9.251   7.943  0.1953  0.9898  0.8704
  815MOL0     O 7478   2.154   9.203   7.854 -0.0893 -0.3080 -0.0456
  815MOL0     C 7479   2.276   9.180   7.896 -0.6378  0.1415 -0.1693
  815MOL0     C 7480   2.307   9.114   8.022  0.0778 -0.3997 -0.8261
  815MOL0     C 7481   2.447   9.113   8.063  0.0162 -0.4655  0.0756
  815MOL0     C 7482   2.546   9.181   7.988  0.7303  0.0601 -0.9373
  815MOL0     O 7483   2.679   9.193   8.014  0.4089  0.2259 -0.0657
  815MOL0     C 7484   2.727   9.164   8.145 -0.6959 -0.8789 -0.2301
  815MOL0     C 7485   2.755   9.017   8.176 -0.2262 -0.2787 -0.3168
  815MOL0     C 7486   2.879   8.954   8.114 -0.1155 -0.6999  0.3286
  815MOL0     C 7487   2.894   8.941   7.965  1.3150  0.1057  1.0638
  815MOL0     C 7488   3.032   8.885   7.924 -0.3257 -0.3858  0.5921
  815MOL0     C 7489   3.036   8.838   7.782  0.2673  0.3683  0.2728
  815MOL0     C 7490   3.172   8.818   7.715  0.1210  0.3212 -0.4355
  815MOL0     C 7491   3.148   8.794   7.567  0.7047  0.3139  0.4395
  815MOL0    Cl 7492   3.060   8.634   7.535  0.2427  0.5067 -0.2824
  815MOL0     C 7493   2.510   9.230   7.864  0.3112  1.0789  0.4319
  815MOL0     C 7494   2.378   9.218   7.818  0.9731 -0.1394 -0.3185
  815MOL0     O 7495   2.077   9.285   8.057 -0.2106 -0.6726 -0.7287
  815MOL0     C 7496   1.800   9.223   7.995 -0.4280  0.7966 -0.0857
  815MOL0     C 7497   1.673   9.200   7.951  0.4792  0.6018 -0.0358
  815MOL0     N 7498   1.108   9.160   8.086  0.4668  1.0026 -0.5746
  815MOL0     N 7499   1.080   9.097   8.207  0.2636 -0.1111  0.9780
  815MOL0     C 7500   0.375   9.044   7.942  0.4171 -0.6724 -0.4073
  815MOL0     C 7501   0.355   9.031   7.807  0.4412  0.6781  0.3936
  815MOL0     C 7502   0.204   9.014   7.387  0.4212  0.5748  0.8937
  815MOL0     C 7503   0.180   8.891   7.315  0.3454  0.5800 -0.4868
  815MOL0     C 7504   0.187   8.884   7.175  0.1375 -0.3088  0.1832
  815MOL0     C 7505   0.198   9.004   7.101  0.5139 -0.0184 -0.0579
  815MOL0     O 7506   0.186   8.999   6.967 -0.7842 -0.3648 -0.1032
  815MOL0     C 7507   0.298   8.937   6.898 -0.3065  0.6118 -0.5604
  815MOL0     C 7508   0.302   8.985   6.749 -0.0660 -0.3922 -0.3814
  815MOL0     C 7509   0.373   9.120   6.750  0.0156  0.0036  0.0045
  815MOL0     C 7510   0.359   9.200   6.613  0.2005 -0.7279  0.6878
  815MOL0     C 7511   0.468   9.146   6.523 -0.3593  0.2766 -0.1191
  815MOL0     C 7512   0.535   9.074   6.456 -0.1464 -0.1071 -0.4798
  815MOL0     C 7513   0.210   9.124   7.166  0.1004 -0.3785  0.1392
  815MOL0     C 7514   0.218   9.130   7.313 -0.7713 -0.3994  0.9098
  815MOL0     H 7515   0.144   9.290   7.740 -2.1151 -2.4104 -1.3006
  815MOL0     H 7516   0.165   9.317   7.993  0.6065 -1.6183  1.3130
  815MOL0     H 7517   0.393   9.345   8.137 -0.5187 -0.1711  0.2368
  815MOL0     H 7518   0.509   9.219   8.167  0.2886  4.8844 -4.0776
  815MOL0     H 7519   0.344   9.207   8.404 -0.3770  1.7408  2.6641
  815MOL0     H 7520   0.341   9.377   8.351  0.1913  0.1286 -3.2664
  815MOL0     H 7521   0.525   9.386   8.489 -1.8564 -1.4673  1.2751
  815MOL0     H 7522   0.589   9.367   8.317 -3.0877  0.6555 -0.9889
  815MOL0     H 7523   0.530   9.136   8.498  0.3232  1.1645  1.8012
  815MOL0     H 7524   0.624   9.150   8.340 -0.3792  3.1150 -2.3235
  815MOL0     H 7525   0.767   9.119   8.551  1.2460  0.3598  0.4076
  815MOL0     H 7526   0.710   9.265   8.608 -0.0702 -1.9221  0.2310
  815MOL0     H 7527   0.813   9.391   8.465 -0.5746  0.8775  1.1043
  815MOL0     H 7528   0.853   9.277   8.333 -0.0641  1.3010  0.4950
  815MOL0     H 7529   1.021   9.366   8.501  2.9778 -1.2424 -0.3982
  815MOL0     H 7530   0.975   9.236   8.615  2.1285 -0.7778 -0.1373
  815MOL0     H 7531   1.015   9.065   8.465 -1.2715  0.1933 -2.1592
  815MOL0     H 7532   1.156   9.149   8.503 -0.2983 -1.6351  0.2275
  815MOL0     H 7533   1.165   9.395   8.309 -3.1955  3.4329 -3.8030
  815MOL0     H 7534   1.241   9.468   8.048  0.1518 -0.9170  0.6809
  815MOL0     H 7535   1.070   9.442   8.014  0.5958  2.2346  0.3315
  815MOL0     H 7536   1.214   9.446   7.808 -1.0129 -0.5915 -0.7454
  815MOL0     H 7537   1.154   9.282   7.832  2.6957 -1.4043 -2.5430
  815MOL0     H 7538   1.407   9.366   7.773 -0.8740  2.1165 -0.3814
  815MOL0     H 7539   1.402   9.354   7.965  0.8925 -2.5138 -0.1889
  815MOL0     H 7540   1.317   9.126   7.806  1.2559  0.3980 -1.3832
  815MOL0     H 7541   1.406   9.123   7.954  0.7441 -1.5209 -0.8853
  815MOL0     H 7542   1.730   9.188   7.615 -3.5024 -1.4088 -0.2688
  815MOL0     H 7543   1.950   9.210   7.694 -0.6528  1.6624 -0.4441
  815MOL0     H 7544   2.235   9.081   8.095  1.0230 -2.2067 -0.6611
  815MOL0     H 7545   2.476   9.058   8.152  0.4916  1.4366  1.1370
  815MOL0     H 7546   2.652   9.199   8.217  2.1742 -0.6396  2.9339
  815MOL0     H 7547   2.821   9.219   8.156 -0.4586 -0.3109 -3.8658
  815MOL0     H 7548   2.677   8.947   8.145  2.8347 -3.4018 -1.6867
  815MOL0     H 7549   2.754   9.015   8.286  0.0697  0.0732 -0.3057
  815MOL0     H 7550   2.890   8.853   8.153 -1.6394  0.3806  3.9767
  815MOL0     H 7551   2.969   9.006   8.150  0.2292 -1.1076  0.0657
  815MOL0     H 7552   2.811   8.878   7.930  2.6298 -2.5513  2.4029
  815MOL0     H 7553   2.884   9.042   7.926 -1.0184  0.0850  1.4321
  815MOL0     H 7554   3.063   8.806   7.993  1.8988 -0.4212 -0.3764
  815MOL0     H 7555   3.112   8.957   7.944 -2.0029  1.7306  0.0597
  815MOL0     H 7556   2.975   8.905   7.720 -0.2772  2.9539  3.3276
  815MOL0     H 7557   2.988   8.740   7.786 -1.9506  1.4177  0.6798
  815MOL0     H 7558   3.226   8.911   7.732 -1.5480  0.8338  2.7904
  815MOL0     H 7559   3.224   8.732   7.759 -1.5334 -0.0308  0.9257
  815MOL0     H 7560   3.243   8.797   7.512  0.3295  2.3275 -0.1894
  815MOL0     H 7561   3.082   8.870   7.523 -0.6624 -0.5652  0.9250
  815MOL0     H 7562   2.594   9.272   7.811  2.2452  2.5631  4.3006
  815MOL0     H 7563   2.346   9.244   7.718  0.0710 -0.0457 -0.0137
  815MOL0     H 7564   1.805   9.235   8.103 -1.4900  1.9904 -0.1378
  815MOL0     H 7565   1.601   9.182   8.030  0.7222 -1.5980 -0.2577
  815MOL0     H 7566   0.417   8.962   7.999 -4.5909 -3.5854 -0.3172
  815MOL0     H 7567   0.410   8.962   7.743  2.3271  3.5739 -1.3435
  815MOL0     H 7568   0.175   8.794   7.365 -1.2988  0.2821 -1.1678
  815MOL0     H 7569   0.177   8.787   7.128  2.6989 -0.0519 -1.0600
  815MOL0     H 7570   0.285   8.829   6.910  3.5023  0.2902  2.9557
  815MOL0     H 7571   0.391   8.964   6.950  1.2975  1.2215 -3.5115
  815MOL0     H 7572   0.353   8.908   6.691 -1.0407 -1.9983  0.8187
  815MOL0     H 7573   0.206   8.990   6.697 -0.9998 -2.2977  0.9965
  815MOL0     H 7574   0.480   9.094   6.748  1.7550  5.6294  1.8575
  815MOL0     H 7575   0.363   9.188   6.835  1.9002  0.5233 -0.1468
  815MOL0     H 7576   0.259   9.181   6.571  0.3374 -2.7430  1.1521
  815MOL0     H 7577   0.381   9.307   6.621 -0.2947 -0.3718 -1.7825
  815MOL0     H 7578   0.561   9.002   6.380 -1.3178  1.0482 -2.0138
  815MOL0     H 7579   0.228   9.219   7.117  1.9128 -0.0788  1.2642
  815MOL0     H 7580   0.201   9.232   7.344  1.7486  0.7093 -0.9580
  816MOL0     O 7581   2.926   1.895   1.106  0.1843 -0.4878 -0.4565
  816MOL0     C 7582   2.988   1.950   1.024  1.5424 -1.2762  0.4014
  816MOL0     O 7583   3.020   1.897   0.899 -0.0858 -0.2523  0.1779
  816MOL0     C 7584   2.957   1.780   0.861 -0.5707  1.3430 -0.1053
  816MOL0     C 7585   2.811   1.774   0.858  0.1467 -0.2559 -0.2706
  816MOL0     C 7586   2.751   1.647   0.816 -0.2400 -0.3861  0.8706
  816MOL0     C 7587   2.833   1.541   0.800  0.1368  0.8513 -0.0853
  816MOL0     O 7588   2.767   1.430   0.764 -0.5504  0.0056  0.2076
  816MOL0     C 7589   2.824   1.332   0.671  0.1636  0.4604 -0.9591
  816MOL0     C 7590   2.798   1.378   0.529 -0.4756 -0.4934  0.0620
  816MOL0     C 7591   2.654   1.413   0.495  0.2280  0.3276  0.4335
  816MOL0     C 7592   2.555   1.305   0.528 -1.0563  0.0982 -0.6851
  816MOL0     C 7593   2.428   1.331   0.440  0.2424  1.4889 -0.2680
  816MOL0     C 7594   2.350   1.453   0.483 -0.1091  0.6516  0.1287
  816MOL0     C 7595   2.237   1.491   0.384  0.2729 -0.2233  0.7352
  816MOL0     C 7596   2.138   1.383   0.329  0.1113 -0.8941 -0.1174
  816MOL0     N 7597   2.053   1.314   0.422 -0.2601  0.3426  0.6729
  816MOL0     C 7598   2.081   1.226   0.524  0.1183  0.4765  0.0447
  816MOL0     C 7599   1.967   1.214   0.590  0.0935 -0.6004 -0.2721
  816MOL0     C 7600   1.958   1.114   0.698 -0.6091  0.7109 -0.4694
  816MOL0     C 7601   1.833   1.117   0.791 -0.3113 -0.5469  1.2523
  816MOL0     C 7602   1.868   1.144   0.940  1.0275  0.1082  0.9196
  816MOL0     C 7603   1.913   1.286   0.959 -0.3778  0.0649  0.0814
  816MOL0     O 7604   1.960   1.306   1.091 -0.0030 -0.0558  0.4971
  816MOL0     C 7605   1.885   1.367   1.195 -0.6087 -0.5229  0.6269
  816MOL0     C 7606   1.768   1.447   1.185 -0.6346  0.4716  0.5456
  816MOL0     C 7607   1.708   1.497   1.294 -0.2964 -1.1179  1.2750
  816MOL0     C 7608   1.762   1.475   1.418 -0.6481  0.2991 -0.3627
  816MOL0     C 7609   1.708   1.538   1.543  0.2505  0.7392  0.2441
  816MOL0     O 7610   1.788   1.532   1.657  0.1671  0.3408  0.8327
  816MOL0     C 7611   1.760   1.615   1.767 -0.7850  0.1259 -0.0038
  816MOL0     C 7612   1.868   1.657   1.847 -0.1126  0.0579  0.8396
  816MOL0     C 7613   1.836   1.726   1.966  1.1238 -0.0390 -0.0374
  816MOL0     C 7614   1.704   1.745   1.999 -0.7463  0.9041 -0.5257
  816MOL0     O 7615   1.671   1.798   2.121  0.4936 -0.8215 -0.3452
  816MOL0     C 7616   1.752   1.893   2.195 -1.0016 -0.3888 -0.0964
  816MOL0     C 7617   1.759   2.022   2.119 -0.5158  0.2723 -0.1640
  816MOL0     C 7618   1.620   2.084   2.096  0.9846 -0.5066  0.1909
  816MOL0     C 7619   1.642   2.217   2.018 -0.8098 -0.5150 -0.5224
  816MOL0     C 7620   1.504   2.264   1.975  0.2671  0.3974  0.1127
  816MOL0     C 7621   1.517   2.396   1.904  0.5889 -0.0658 -0.3809
  816MOL0     C 7622   1.383   2.439   1.837 -0.7189 -0.1801 -0.6840
  816MOL0     C 7623   1.379   2.585   1.789  0.8101 -0.3399  0.3361
  816MOL0    Cl 7624   1.382   2.688   1.933  0.2444 -0.0526  0.4207
  816MOL0     C 7625   1.592   1.692   1.927  0.6903 -1.0897  0.5851
  816MOL0     C 7626   1.629   1.625   1.812 -0.0249 -0.4440  0.4203
  816MOL0     O 7627   1.611   1.610   1.535 -0.0636 -1.0212  0.3173
  816MOL0     C 7628   1.865   1.377   1.431 -0.2660  0.1903  0.3594
  816MOL0     C 7629   1.933   1.325   1.321  0.7700 -0.1561 -0.9975
  816MOL0     N 7630   1.869   1.296   0.543  0.3282 -0.5832  0.7898
  816MOL0     N 7631   1.925   1.355   0.439 -0.4403  0.7020 -0.0473
  816MOL0     C 7632   2.972   1.543   0.821  0.0418 -0.6312 -0.7868
  816MOL0     C 7633   3.032   1.665   0.842  0.5031  0.4873  0.3732
  816MOL0     C 7634   3.042   2.091   1.044  0.5328  0.1449  0.7046
  816MOL0     C 7635   3.084   2.186   0.944  0.6328  0.6378 -0.5264
  816MOL0     C 7636   3.120   2.318   0.974 -0.2133  0.1049  0.9216
  816MOL0     C 7637   3.142   2.356   1.106  0.7330 -0.5255  0.1545
  816MOL0     O 7638   3.215   2.466   1.144 -0.0688 -0.8889 -0.2464
  816MOL0     C 7639   3.299   2.543   1.062 -0.0161  0.1061  0.2542
  816MOL0     C 7640   3.299   2.683   1.131 -0.1848 -0.4563  0.3845
  816MOL0     C 7641   3.160   2.751   1.172  0.0262 -0.0290  0.8357
  816MOL0     C 7642   3.183   2.879   1.257  0.1743 -0.7073  1.1609
  816MOL0     C 7643   3.261   2.973   1.182 -0.3214  0.3105 -0.3385
  816MOL0     C 7644   3.326   3.054   1.139 -0.9747 -0.1076  0.3168
  816MOL0     C 7645   3.096   2.265   1.203  0.2492 -0.6756 -0.4201
  816MOL0     C 7646   3.059   2.139   1.174  0.4286  0.8594 -0.4080
  816MOL0     H 7647   2.744   1.851   0.895  0.6480 -0.7442  1.7477
  816MOL0     H 7648   2.650   1.626   0.783  0.0321 -0.1197 -0.1918
  816MOL0     H 7649   2.774   1.237   0.688  3.4249 -1.0205  1.3243
  816MOL0     H 7650   2.929   1.306   0.689 -0.3496 -1.7946 -0.9773
  816MOL0     H 7651   2.829   1.302   0.456 -0.7151 -0.5784  0.0481
  816MOL0     H 7652   2.854   1.470   0.509  0.8091 -1.6285 -2.0120
  816MOL0     H 7653   2.656   1.434   0.388 -0.2204 -1.4411  0.0402
  816MOL0     H 7654   2.622   1.502   0.549 -0.1859  1.8051 -2.0966
  816MOL0     H 7655   2.590   1.204   0.502 -0.2292 -0.7902  3.2159
  816MOL0     H 7656   2.539   1.300   0.636 -0.9311 -0.1765 -0.6757
  816MOL0     H 7657   2.367   1.241   0.455  0.7422  1.5645  3.1622
  816MOL0     H 7658   2.451   1.339   0.334 -1.7515 -0.4485 -0.9211
  816MOL0     H 7659   2.414   1.541   0.469 -0.6353  0.8899 -0.8363
  816MOL0     H 7660   2.332   1.442   0.591  1.8411 -0.8146  0.3531
  816MOL0     H 7661   2.184   1.580   0.421 -1.0040 -1.0035  0.8640
  816MOL0     H 7662   2.290   1.531   0.296 -0.0912 -0.1585  0.5410
  816MOL0     H 7663   2.189   1.301   0.278  1.9761 -0.0508  0.3195
  816MOL0     H 7664   2.071   1.432   0.258 -3.3486 -0.1745  3.2835
  816MOL0     H 7665   2.163   1.155   0.524 -0.1552 -0.1559 -4.4487
  816MOL0     H 7666   2.050   1.094   0.753  0.2069  0.5309 -1.8642
  816MOL0     H 7667   1.939   1.021   0.644 -1.0916  1.5703 -1.8268
  816MOL0     H 7668   1.788   1.017   0.781  1.8225 -1.7258  2.6059
  816MOL0     H 7669   1.757   1.189   0.761 -1.0015 -1.6068  0.3628
  816MOL0     H 7670   1.785   1.115   1.005  0.4539 -1.4955 -0.4611
  816MOL0     H 7671   1.955   1.081   0.964  1.0658 -1.3433 -2.5051
  816MOL0     H 7672   1.840   1.362   0.931 -0.0714 -0.6902 -3.1835
  816MOL0     H 7673   2.001   1.301   0.896 -0.4230  0.7585  0.1839
  816MOL0     H 7674   1.733   1.475   1.087  1.5121 -1.4330 -0.8711
  816MOL0     H 7675   1.634   1.575   1.274  0.6778 -0.7110 -1.1521
  816MOL0     H 7676   1.969   1.653   1.810 -0.7427  3.5251 -1.7739
  816MOL0     H 7677   1.922   1.739   2.032  1.9070 -0.7986 -0.8818
  816MOL0     H 7678   1.854   1.857   2.212  0.3751  1.6498 -3.2040
  816MOL0     H 7679   1.701   1.919   2.289 -1.0114  0.6049 -0.3602
  816MOL0     H 7680   1.824   2.026   2.031  0.7929  3.6470  0.7992
  816MOL0     H 7681   1.800   2.102   2.182 -2.7875  5.1667 -4.1470
  816MOL0     H 7682   1.569   2.106   2.190  0.5933 -0.5115 -0.0178
  816MOL0     H 7683   1.555   2.018   2.037  1.1392 -0.5155  0.0290
  816MOL0     H 7684   1.689   2.288   2.086 -2.4442 -0.5153  0.6636
  816MOL0     H 7685   1.709   2.213   1.932 -0.5333 -1.1702 -0.2832
  816MOL0     H 7686   1.446   2.280   2.066 -1.2970 -1.5764 -0.4637
  816MOL0     H 7687   1.456   2.183   1.920 -0.4058  0.5575  0.4520
  816MOL0     H 7688   1.588   2.380   1.823  0.4061 -0.8033 -0.4062
  816MOL0     H 7689   1.542   2.481   1.968  0.6076  0.2445 -0.7942
  816MOL0     H 7690   1.376   2.373   1.750 -2.7037  0.1084 -0.7845
  816MOL0     H 7691   1.301   2.415   1.907 -0.4668  1.2656  0.1403
  816MOL0     H 7692   1.290   2.611   1.731  1.3014  0.4150 -0.1041
  816MOL0     H 7693   1.463   2.616   1.726  2.4292 -3.3798  0.8118
  816MOL0     H 7694   1.488   1.717   1.945  0.4796 -0.5214 -1.1575
  816MOL0     H 7695   1.544   1.579   1.763 -0.7868  0.0683  1.2442
  816MOL0     H 7696   1.899   1.344   1.529 -1.8957 -0.0688  0.8646
  816MOL0     H 7697   2.010   1.249   1.312 -0.2145 -1.2303 -0.5908
  816MOL0     H 7698   3.044   1.462   0.817 -1.8047 -2.6131  2.1668
  816MOL0     H 7699   3.137   1.679   0.867  0.1720  0.6047  1.7581
  816MOL0     H 7700   3.073   2.160   0.839 -1.8578  1.9909 -0.6642
  816MOL0     H 7701   3.141   2.383   0.889 -0.4336 -0.1625  0.6632
  816MOL0     H 7702   3.263   2.547   0.959 -1.2574 -2.2996  0.5276
  816MOL0     H 7703   3.403   2.511   1.048  0.3843  0.8752  1.2701
  816MOL0     H 7704   3.365   2.674   1.217  0.7095  0.3982 -0.1864
  816MOL0     H 7705   3.352   2.753   1.066 -0.1622  0.9556  1.8754
  816MOL0     H 7706   3.094   2.691   1.236  1.9938  0.1523  3.2088
  816MOL0     H 7707   3.099   2.778   1.086  0.9976  0.1277  0.1804
  816MOL0     H 7708   3.088   2.912   1.299 -0.7162 -3.8214  1.8219
  816MOL0     H 7709   3.245   2.858   1.345  0.5543 -2.3556  0.5356
  816MOL0     H 7710   3.391   3.131   1.103  0.5972 -1.6353 -0.2365
  816MOL0     H 7711   3.095   2.288   1.309 -0.0570  0.3894 -0.6437
  816MOL0     H 7712   3.023   2.081   1.258  0.2461  2.1016  0.3910
  817MOL0     O 7713   1.391   9.906   2.509 -0.0637 -0.1813 -0.0445
  817MOL0     C 7714   1.322   9.815   2.475  0.3426  1.1087  0.5607
  817MOL0     O 7715   1.361   9.695   2.431  0.3755  0.9184 -0.5155
  817MOL0     C 7716   1.498   9.672   2.450 -0.0083  0.4749  0.7309
  817MOL0     C 7717   1.609   9.698   2.360 -0.5644 -1.1977  0.0941
  817MOL0     C 7718   1.740   9.660   2.397 -1.0188  0.0806 -0.1206
  817MOL0     C 7719   1.758   9.572   2.506  0.2690  0.1513  0.4546
  817MOL0     O 7720   1.887   9.521   2.544 -0.1785 -1.5334 -0.0945
  817MOL0     C 7721   1.990   9.609   2.590  0.4453 -0.2736  0.1108
  817MOL0     C 7722   2.119   9.535   2.604 -0.2407 -0.5552 -0.3146
  817MOL0     C 7723   2.218   9.629   2.666  0.3360 -0.6536  0.6905
  817MOL0     C 7724   2.357   9.559   2.665  0.6736  0.0246 -0.0123
  817MOL0     C 7725   2.454   9.636   2.757  0.3929  0.2822 -0.2324
  817MOL0     C 7726   2.591   9.564   2.749  1.0550  0.2285 -0.1039
  817MOL0     C 7727   2.703   9.621   2.841  0.0869 -0.2966 -0.8376
  817MOL0     C 7728   2.838   9.554   2.804 -0.0644  0.2583 -0.4787
  817MOL0     N 7729   2.836   9.415   2.855 -0.0926 -0.0692  0.8418
  817MOL0     C 7730   2.903   9.351   2.965  0.5877 -0.6247 -0.3692
  817MOL0     C 7731   2.890   9.216   2.949  0.4197  0.0248 -0.4625
  817MOL0     C 7732   2.919   9.102   3.039 -0.4714 -0.2460  0.5855
  817MOL0     C 7733   3.074   9.076   3.070  0.8942  0.4890 -0.0945
  817MOL0     C 7734   3.078   8.953   3.164  0.1840 -0.3234  0.5564
  817MOL0     C 7735   3.224   8.902   3.188 -0.1585 -0.4256  0.4591
  817MOL0     O 7736   3.259   8.943   3.318  0.3441 -0.2719 -0.0016
  817MOL0     C 7737   3.391   8.961   3.351 -0.8582  0.6078  0.8296
  817MOL0     C 7738   3.494   8.926   3.265  0.0028  0.8057 -0.1906
  817MOL0     C 7739   3.630   8.955   3.291 -0.8824 -0.4445  0.6419
  817MOL0     C 7740   3.654   9.044   3.398 -0.2304  1.4088  0.6586
  817MOL0     C 7741   3.794   9.082   3.417  0.2150 -0.9994 -0.0875
  817MOL0     O 7742   3.883   9.021   3.331 -0.2988 -0.5282  0.2865
  817MOL0     C 7743   4.007   9.084   3.327  0.0563 -0.1929 -0.2829
  817MOL0     C 7744   4.127   9.005   3.345  0.5947 -0.2556 -0.3713
  817MOL0     C 7745   4.256   9.055   3.315 -0.2577 -0.1517 -0.5193
  817MOL0     C 7746   4.268   9.191   3.270  0.7986  0.4839 -0.3906
  817MOL0     O 7747   4.381   9.258   3.229 -0.5872  0.2171  0.4713
  817MOL0     C 7748   4.510   9.199   3.232  0.4267 -0.4418  0.3471
  817MOL0     C 7749   4.565   9.205   3.376  0.7403  0.3128 -0.1088
  817MOL0     C 7750   4.718   9.153   3.404 -0.3636  1.0516  0.4568
  817MOL0     C 7751   4.759   9.019   3.350 -0.3498 -0.0300  0.0759
  817MOL0     C 7752   4.694   8.904   3.424  0.5573 -0.2160 -0.7721
  817MOL0     C 7753   4.680   8.772   3.343  0.3221  0.8622 -0.4433
  817MOL0     C 7754   4.603   8.658   3.419  0.3966  0.4085  0.1425
  817MOL0     C 7755   4.637   8.519   3.361  0.0294 -0.0422 -0.7147
  817MOL0    Cl 7756   4.546   8.399   3.443  0.0259 -0.0496 -0.1121
  817MOL0     C 7757   4.145   9.258   3.246 -0.3396 -0.1519 -0.0674
  817MOL0     C 7758   4.024   9.210   3.272 -0.1229 -0.6114  0.8855
  817MOL0     O 7759   3.809   9.184   3.494 -1.2370  0.2604 -0.5482
  817MOL0     C 7760   3.550   9.082   3.479  1.1569 -0.3245  0.1566
  817MOL0     C 7761   3.412   9.038   3.462  0.9072  0.7480 -0.0228
  817MOL0     N 7762   2.821   9.206   2.830 -0.2089  0.8902  0.4631
  817MOL0     N 7763   2.791   9.316   2.771 -0.2684 -0.1134  0.0046
  817MOL0     C 7764   1.654   9.534   2.584 -0.5959 -0.2336 -0.1858
  817MOL0     C 7765   1.525   9.593   2.561  0.2048 -0.6843  0.4545
  817MOL0     C 7766   1.177   9.847   2.454  0.3800  0.1544 -0.2200
  817MOL0     C 7767   1.134   9.975   2.485 -0.7595 -0.4320 -0.4448
  817MOL0     C 7768   1.001  10.008   2.469 -0.2858  0.9092 -0.3215
  817MOL0     C 7769   0.909   9.908   2.427  0.2514 -0.0144  0.8064
  817MOL0     O 7770   0.772   9.928   2.415  0.2880 -0.1829 -0.6728
  817MOL0     C 7771   0.746  10.019   2.309  0.3308  0.4286  0.9101
  817MOL0     C 7772   0.610   9.972   2.238  1.0184 -0.0345  0.0783
  817MOL0     C 7773   0.479  10.002   2.326  1.3273  0.7228  0.0272
  817MOL0     C 7774   0.344   9.974   2.249 -1.1474 -0.1124  0.1712
  817MOL0     C 7775   0.237   9.932   2.336  0.0619 -0.0346 -0.0340
  817MOL0     C 7776   0.151   9.886   2.403  0.2116  0.1308 -0.8948
  817MOL0     C 7777   0.952   9.780   2.407  0.3841 -0.3718 -0.6562
  817MOL0     C 7778   1.086   9.756   2.416  0.6669 -0.1947 -0.2753
  817MOL0     H 7779   1.585   9.745   2.265  0.5801  0.4590  0.5709
  817MOL0     H 7780   1.831   9.678   2.342 -0.1649 -2.8213  0.1820
  817MOL0     H 7781   1.947   9.635   2.687  0.2180  0.7915 -0.2634
  817MOL0     H 7782   1.997   9.703   2.535  1.7808  1.2804  2.7546
  817MOL0     H 7783   2.141   9.497   2.504 -2.8289 -2.8239 -0.1301
  817MOL0     H 7784   2.092   9.456   2.675 -1.3883  0.5511  0.5289
  817MOL0     H 7785   2.187   9.652   2.768 -3.7212  1.8614 -0.8428
  817MOL0     H 7786   2.224   9.724   2.613  0.0426  0.0479  1.8740
  817MOL0     H 7787   2.349   9.458   2.705  1.1776 -0.3622 -0.8532
  817MOL0     H 7788   2.394   9.560   2.562 -1.6710  0.2029 -0.9164
  817MOL0     H 7789   2.407   9.642   2.855  1.0391 -3.1084  0.4180
  817MOL0     H 7790   2.474   9.735   2.715  1.7031 -0.1022 -0.5739
  817MOL0     H 7791   2.618   9.555   2.644 -2.6966  2.2405 -1.4424
  817MOL0     H 7792   2.567   9.467   2.794 -0.1144  1.0211  1.0510
  817MOL0     H 7793   2.710   9.728   2.821  0.8062 -0.2931 -0.6011
  817MOL0     H 7794   2.688   9.615   2.949  1.6716  4.2531 -0.1683
  817MOL0     H 7795   2.920   9.605   2.854 -0.5967  0.7771 -0.1118
  817MOL0     H 7796   2.858   9.559   2.696 -0.3866 -0.1236 -0.5606
  817MOL0     H 7797   2.945   9.397   3.054 -1.9732  1.8769 -0.3063
  817MOL0     H 7798   2.884   9.012   2.989 -0.7005 -1.5852  2.9830
  817MOL0     H 7799   2.865   9.114   3.133 -2.2390  0.4040 -0.4697
  817MOL0     H 7800   3.103   9.170   3.117 -0.6403  0.1842  1.5725
  817MOL0     H 7801   3.127   9.047   2.979  1.3155 -1.0779  0.6045
  817MOL0     H 7802   3.020   8.966   3.256  0.6069 -4.4859  1.5844
  817MOL0     H 7803   3.028   8.875   3.108  0.3550  1.8578 -2.9284
  817MOL0     H 7804   3.290   8.956   3.119 -0.8618 -1.6099 -1.2139
  817MOL0     H 7805   3.250   8.796   3.182  1.5761 -0.0712  0.9911
  817MOL0     H 7806   3.477   8.868   3.175  0.1286 -0.5072  0.6184
  817MOL0     H 7807   3.705   8.914   3.223 -1.2872 -0.2405  0.0618
  817MOL0     H 7808   4.120   8.902   3.381 -0.5903 -0.1067 -0.1257
  817MOL0     H 7809   4.346   8.996   3.334  1.2156  2.2670  0.4787
  817MOL0     H 7810   4.579   9.247   3.161  1.8243  1.1655  2.6466
  817MOL0     H 7811   4.494   9.094   3.207 -2.3827 -0.6623  2.6701
  817MOL0     H 7812   4.496   9.146   3.436 -1.8146  3.3223  0.1618
  817MOL0     H 7813   4.550   9.302   3.423 -2.2893  0.7380 -1.6802
  817MOL0     H 7814   4.747   9.156   3.510 -0.9777 -2.5237  0.8246
  817MOL0     H 7815   4.781   9.226   3.352 -0.0965  0.5895  0.1252
  817MOL0     H 7816   4.724   9.010   3.246  0.6084  1.2327 -0.3720
  817MOL0     H 7817   4.868   9.015   3.358 -0.1563 -1.3976 -2.2528
  817MOL0     H 7818   4.590   8.930   3.447  0.7472 -1.2224  1.5517
  817MOL0     H 7819   4.743   8.886   3.520  2.1108  4.1312 -0.5721
  817MOL0     H 7820   4.779   8.732   3.320  1.3490  2.2930  1.1548
  817MOL0     H 7821   4.632   8.796   3.248  1.3644  2.9932 -0.5041
  817MOL0     H 7822   4.629   8.659   3.526 -3.0889 -2.7613  1.2546
  817MOL0     H 7823   4.495   8.676   3.416 -0.1803 -1.2309  4.1741
  817MOL0     H 7824   4.745   8.509   3.366  0.0741 -2.3315 -3.7989
  817MOL0     H 7825   4.609   8.513   3.256  3.5627 -1.0122 -1.7272
  817MOL0     H 7826   4.152   9.357   3.200  3.1590 -0.7295 -1.0935
  817MOL0     H 7827   3.934   9.268   3.256 -0.5762 -2.1961 -4.0052
  817MOL0     H 7828   3.559   9.151   3.563  1.9363 -0.1583 -0.0553
  817MOL0     H 7829   3.316   9.057   3.509 -0.3510 -2.4236 -1.0868
  817MOL0     H 7830   1.666   9.484   2.679 -2.8233  1.7142  1.2378
  817MOL0     H 7831   1.442   9.569   2.627 -2.8950 -1.8046 -3.4868
  817MOL0     H 7832   1.203  10.051   2.522 -3.5048  2.2807 -0.5322
  817MOL0     H 7833   0.963  10.109   2.477  0.8767  1.2496  1.5615
  817MOL0     H 7834   0.833  10.021   2.243  0.9102  0.9664  1.6747
  817MOL0     H 7835   0.720  10.122   2.335 -2.4758  0.3879 -1.2690
  817MOL0     H 7836   0.598  10.026   2.143 -2.4912  0.4725  0.6620
  817MOL0     H 7837   0.629   9.869   2.207  4.1684  1.2564 -3.0448
  817MOL0     H 7838   0.471  10.103   2.366 -0.2344  0.7961 -0.4382
  817MOL0     H 7839   0.483   9.932   2.410  1.0902  1.8240  0.9806
  817MOL0     H 7840   0.310  10.065   2.200  2.7961  1.4813  0.0012
  817MOL0     H 7841   0.349   9.892   2.177 -1.1582  0.1415 -0.1205
  817MOL0     H 7842   0.073   9.834   2.455  1.2695 -2.6397 -1.8946
  817MOL0     H 7843   0.880   9.710   2.366 -0.2609  1.2977 -2.5193
  817MOL0     H 7844   1.107   9.651   2.396  1.6846  0.0004 -0.2860
  818MOL0     O 7845   6.300  11.349   7.310  0.0957  0.1432  0.4772
  818MOL0     C 7846   6.218  11.402   7.229 -0.4399  0.1543 -0.4641
  818MOL0     O 7847   6.077  11.413   7.247 -0.7646  0.0286 -0.0431
  818MOL0     C 7848   6.012  11.346   7.348 -0.3678 -0.7773 -1.2510
  818MOL0     C 7849   6.064  11.273   7.461  0.1393  0.2404 -0.0007
  818MOL0     C 7850   5.980  11.213   7.558  0.8546 -0.5069 -0.3640
  818MOL0     C 7851   5.834  11.218   7.538 -0.5613  0.3200 -0.1235
  818MOL0     O 7852   5.759  11.146   7.633 -0.4849  0.4754  0.0260
  818MOL0     C 7853   5.664  11.062   7.566  0.0421  0.6366 -0.8906
  818MOL0     C 7854   5.562  11.016   7.675 -0.5429 -0.2317  0.1894
  818MOL0     C 7855   5.474  10.909   7.617  0.0974 -1.0489  0.4941
  818MOL0     C 7856   5.393  10.824   7.706  0.1533 -0.0359 -0.0073
  818MOL0     C 7857   5.302  10.720   7.636  0.9126  0.4135  0.0505
  818MOL0     C 7858   5.207  10.648   7.730  1.2286  0.3314 -1.8564
  818MOL0     C 7859   5.258  10.517   7.788 -0.6378  0.5445  0.2227
  818MOL0     C 7860   5.161  10.444   7.879 -0.4680  0.0899 -0.5755
  818MOL0     N 7861   5.023  10.428   7.828  0.3660  0.0747  0.1941
  818MOL0     C 7862   4.924  10.520   7.852  0.1400 -0.7687 -1.1554
  818MOL0     C 7863   4.836  10.495   7.757  0.8482 -0.3949 -0.5146
  818MOL0     C 7864   4.705  10.559   7.738  0.4885  0.3429 -0.0624
  818MOL0     C 7865   4.601  10.495   7.825 -0.3289 -0.3691  0.0465
  818MOL0     C 7866   4.455  10.512   7.763  0.4505 -0.2858  0.7377
  818MOL0     C 7867   4.327  10.486   7.853 -0.5597  0.1276  0.6390
  818MOL0     O 7868   4.293  10.345   7.845  0.8895 -0.0471  0.2872
  818MOL0     C 7869   4.166  10.301   7.886 -0.4818 -0.4964 -0.4109
  818MOL0     C 7870   4.164  10.180   7.950  0.0621  0.1633 -0.0914
  818MOL0     C 7871   4.044  10.111   7.980  0.0455 -0.0833  0.3522
  818MOL0     C 7872   3.922  10.177   7.947  0.4825  0.5862 -0.2318
  818MOL0     C 7873   3.794  10.102   7.960  0.3148 -1.4040  0.2895
  818MOL0     O 7874   3.677  10.168   7.960  0.6526 -1.0370 -0.2606
  818MOL0     C 7875   3.551  10.111   7.984 -0.9185  1.7153  0.2180
  818MOL0     C 7876   3.447  10.196   8.021 -0.5265 -0.1086  1.3331
  818MOL0     C 7877   3.312  10.147   8.039 -0.1741 -0.5258 -0.2366
  818MOL0     C 7878   3.291  10.007   8.012 -1.2615 -0.8142 -0.5145
  818MOL0     O 7879   3.167   9.945   8.012 -0.6544  0.4399  0.2381
  818MOL0     C 7880   3.094  10.002   8.122  0.2374  0.5574 -1.0020
  818MOL0     C 7881   2.987   9.903   8.161 -0.2886 -0.7615  0.7784
  818MOL0     C 7882   2.853   9.965   8.218  1.0106  0.3107  0.1586
  818MOL0     C 7883   2.768  10.023   8.104  0.0864  0.7699 -0.0781
  818MOL0     C 7884   2.667   9.902   8.062 -0.4913 -0.1362 -0.8721
  818MOL0     C 7885   2.607   9.922   7.921 -0.4378  0.1449 -0.4127
  818MOL0     C 7886   2.713   9.873   7.814 -0.2713  0.7852  0.8243
  818MOL0     C 7887   2.682   9.918   7.672  0.5897  0.6230  0.5443
  818MOL0    Cl 7888   2.511   9.867   7.623  0.3874 -0.4161 -0.2215
  818MOL0     C 7889   3.387   9.924   7.977 -0.5349 -0.0648  0.5076
  818MOL0     C 7890   3.516   9.974   7.958 -1.1039 -1.7311  0.3687
  818MOL0     O 7891   3.805   9.979   7.978  0.7466  0.4599  1.0820
  818MOL0     C 7892   3.931  10.307   7.887 -0.2144 -0.2042  0.3698
  818MOL0     C 7893   4.048  10.367   7.850 -0.4556  0.8297 -0.8358
  818MOL0     N 7894   4.874  10.383   7.688  0.5109 -0.1496  0.4212
  818MOL0     N 7895   4.986  10.350   7.728 -0.3302  0.8837 -0.6146
  818MOL0     C 7896   5.783  11.280   7.422  0.2150 -0.8152  0.3121
  818MOL0     C 7897   5.872  11.354   7.336 -0.1835 -0.2447 -0.0894
  818MOL0     C 7898   6.286  11.472   7.117 -0.0255 -0.7227  0.2137
  818MOL0     C 7899   6.430  11.479   7.115 -0.8588  0.4660  0.3658
  818MOL0     C 7900   6.496  11.537   7.004  0.0944  0.2784  0.0007
  818MOL0     C 7901   6.424  11.577   6.885 -0.1012 -0.7285 -0.3048
  818MOL0     O 7902   6.500  11.627   6.782 -0.1438  0.0521 -0.4591
  818MOL0     C 7903   6.427  11.695   6.680  0.2436 -0.5069  0.6942
  818MOL0     C 7904   6.517  11.813   6.631  0.1970 -0.3830  1.1528
  818MOL0     C 7905   6.459  11.880   6.506 -0.0572  0.0100  0.2060
  818MOL0     C 7906   6.568  11.930   6.409  0.1659 -0.4001 -1.0781
  818MOL0     C 7907   6.514  11.998   6.299  0.4794 -0.4489 -0.4772
  818MOL0     C 7908   6.478  12.044   6.194  0.7974 -1.1971 -0.1299
  818MOL0     C 7909   6.279  11.560   6.881  0.1957  0.2630 -0.6180
  818MOL0     C 7910   6.215  11.509   6.999  0.6869  1.0989  0.5703
  818MOL0     H 7911   6.171  11.268   7.477  0.2881 -1.8074 -1.1958
  818MOL0     H 7912   6.011  11.168   7.652 -1.7269  2.6311  2.2637
  818MOL0     H 7913   5.700  10.972   7.514  0.2341  0.2223 -0.0613
  818MOL0     H 7914   5.605  11.124   7.498  0.1491  2.7773  0.8493
  818MOL0     H 7915   5.502  11.100   7.712  0.2237  0.4567 -0.1208
  818MOL0     H 7916   5.614  10.979   7.764 -1.3530  0.9358  1.1973
  818MOL0     H 7917   5.528  10.840   7.551 -2.6113 -1.7823 -1.1224
  818MOL0     H 7918   5.400  10.950   7.548  2.2789 -0.0149 -1.3473
  818MOL0     H 7919   5.452  10.766   7.778  1.2040  0.7991 -0.1679
  818MOL0     H 7920   5.333  10.890   7.769  0.2942  1.0786 -1.0066
  818MOL0     H 7921   5.367  10.641   7.598 -0.4810 -0.2429 -1.0523
  818MOL0     H 7922   5.244  10.759   7.552 -1.4766  0.3300  1.5464
  818MOL0     H 7923   5.116  10.627   7.673  1.4081 -2.6298 -1.2449
  818MOL0     H 7924   5.177  10.710   7.815  1.2283 -1.8201 -0.1640
  818MOL0     H 7925   5.301  10.448   7.714 -0.1999  2.5381 -1.4601
  818MOL0     H 7926   5.338  10.547   7.857 -1.7399  1.2287  1.2391
  818MOL0     H 7927   5.160  10.500   7.972  0.5390 -1.4136  0.3890
  818MOL0     H 7928   5.200  10.342   7.892  1.3481  1.0919  2.8444
  818MOL0     H 7929   4.914  10.589   7.935  4.3008  0.0509 -1.1067
  818MOL0     H 7930   4.672  10.543   7.635 -1.0241 -4.5252  0.9439
  818MOL0     H 7931   4.710  10.666   7.758 -1.8906  0.6514 -0.8336
  818MOL0     H 7932   4.606  10.535   7.927  0.6603  3.6624 -1.3929
  818MOL0     H 7933   4.624  10.388   7.833  1.7507  0.0284 -0.0750
  818MOL0     H 7934   4.448  10.621   7.751 -1.9270 -0.3269  1.2806
  818MOL0     H 7935   4.458  10.465   7.664  4.4079  1.3958 -0.1358
  818MOL0     H 7936   4.244  10.546   7.815 -1.6541 -1.9497 -0.4282
  818MOL0     H 7937   4.338  10.519   7.957  1.6751  1.0607  0.1689
  818MOL0     H 7938   4.257  10.127   7.969 -0.3100 -0.2731  0.5683
  818MOL0     H 7939   4.064  10.010   8.014  2.7408 -0.0636 -0.9621
  818MOL0     H 7940   3.468  10.302   8.024  0.5921 -0.0608 -2.5270
  818MOL0     H 7941   3.242  10.226   8.063  2.3943  2.6934 -2.5307
  818MOL0     H 7942   3.057  10.101   8.095 -1.2745  0.1519 -0.5391
  818MOL0     H 7943   3.151  10.002   8.216 -2.7861 -1.4297  0.9989
  818MOL0     H 7944   3.040   9.845   8.237  2.8920  0.2833 -0.4524
  818MOL0     H 7945   2.967   9.829   8.084 -1.9654 -2.0872  2.3982
  818MOL0     H 7946   2.874  10.043   8.291  0.1388  1.0504 -0.3654
  818MOL0     H 7947   2.800   9.896   8.284  0.1628  2.0365  1.3438
  818MOL0     H 7948   2.731  10.123   8.127  0.7878  0.6986  1.5286
  818MOL0     H 7949   2.842  10.026   8.024 -1.7665 -0.1172 -1.9058
  818MOL0     H 7950   2.580   9.892   8.127 -1.5289 -2.7893 -2.5073
  818MOL0     H 7951   2.713   9.803   8.067 -0.9345 -0.2967  3.9097
  818MOL0     H 7952   2.588  10.029   7.910 -0.2924  0.5052  2.1936
  818MOL0     H 7953   2.517   9.859   7.916 -0.1737 -0.7206  2.9800
  818MOL0     H 7954   2.809   9.920   7.835  0.2123  0.3257 -0.2779
  818MOL0     H 7955   2.728   9.765   7.818  2.6413  1.1511  2.2128
  818MOL0     H 7956   2.753   9.884   7.597 -1.9227  0.7357 -2.0472
  818MOL0     H 7957   2.692  10.026   7.663  1.5014  0.4301 -0.9326
  818MOL0     H 7958   3.372   9.827   7.932  2.8190  0.2778 -1.6082
  818MOL0     H 7959   3.586   9.902   7.916  2.4455 -0.0289  2.8469
  818MOL0     H 7960   3.832  10.341   7.855  1.0979  2.6344 -0.9996
  818MOL0     H 7961   4.045  10.466   7.807 -1.6392  1.2144  0.0980
  818MOL0     H 7962   5.677  11.279   7.396  0.0882  2.8771  0.1555
  818MOL0     H 7963   5.836  11.410   7.250  2.4345 -0.0137 -1.1043
  818MOL0     H 7964   6.493  11.441   7.194  3.1057 -0.8604 -3.0859
  818MOL0     H 7965   6.605  11.542   6.997  0.4631 -1.0446  3.1510
  818MOL0     H 7966   6.331  11.741   6.705  0.1788 -0.2753  0.0318
  818MOL0     H 7967   6.411  11.627   6.596 -1.3204 -0.6302  1.0676
  818MOL0     H 7968   6.523  11.897   6.700  4.2403  0.9012 -0.4628
  818MOL0     H 7969   6.618  11.776   6.611  0.0438  1.0760 -3.6435
  818MOL0     H 7970   6.393  11.964   6.528  0.4579  0.1817  1.1257
  818MOL0     H 7971   6.392  11.809   6.455 -0.5007  0.1160  0.6311
  818MOL0     H 7972   6.638  11.994   6.465  0.9598 -1.4049 -0.8881
  818MOL0     H 7973   6.617  11.839   6.374  1.0476  0.1503 -1.2992
  818MOL0     H 7974   6.440  12.074   6.099 -1.5504 -0.1866  1.0485
  818MOL0     H 7975   6.210  11.576   6.799 -2.6799 -0.6446  1.4604
  818MOL0     H 7976   6.109  11.489   6.985  0.6554 -1.2886  3.3070
  819MOL0     O 7977   4.197   0.338   9.450  0.7810  0.9202 -0.1799
  819MOL0     C 7978   4.216   0.289   9.571 -0.5257  0.3974  0.6655
  819MOL0     O 7979   4.184   0.159   9.606  0.3819 -0.1761  0.0402
  819MOL0     C 7980   4.177   0.071   9.507  0.2546 -0.5220  0.1045
  819MOL0     C 7981   4.052   0.021   9.469 -0.0588 -0.6849  0.1854
  819MOL0     C 7982   4.040  -0.077   9.369 -0.6970 -0.1346  0.9308
  819MOL0     C 7983   4.157  -0.120   9.305  0.1408  0.1321 -0.2112
  819MOL0     O 7984   4.160  -0.181   9.187 -0.3284  0.1199 -0.2272
  819MOL0     C 7985   4.043  -0.243   9.130  0.1162 -0.3499  0.4315
  819MOL0     C 7986   4.090  -0.337   9.023 -0.1284  0.1637 -0.5291
  819MOL0     C 7987   4.198  -0.434   9.078 -0.8059 -0.0500  0.4529
  819MOL0     C 7988   4.136  -0.549   9.161  0.0481  0.4714  0.3164
  819MOL0     C 7989   4.018  -0.620   9.094 -0.8646  0.7358 -0.9234
  819MOL0     C 7990   4.015  -0.770   9.138  0.4187  0.3351  0.7850
  819MOL0     C 7991   4.010  -0.804   9.278 -0.5532  0.3889  1.0715
  819MOL0     C 7992   3.963  -0.945   9.297  0.1018  0.0567 -0.4728
  819MOL0     N 7993   3.989  -0.983   9.438  0.0568 -0.1226  0.9850
  819MOL0     C 7994   4.092  -1.075   9.465  0.6576  0.4064 -0.3542
  819MOL0     C 7995   4.136  -1.017   9.582 -0.4833  0.3016  0.7179
  819MOL0     C 7996   4.259  -1.056   9.655  0.3556 -0.4574 -0.8493
  819MOL0     C 7997   4.374  -0.951   9.637 -0.4290 -0.1029  0.0210
  819MOL0     C 7998   4.515  -1.003   9.645  0.3106  0.0867  0.8364
  819MOL0     C 7999   4.560  -1.028   9.502 -0.3655  0.6082  0.5133
  819MOL0     O 8000   4.476  -1.129   9.433 -0.3077 -1.1725  0.0839
  819MOL0     C 8001   4.508  -1.167   9.308 -0.2991 -0.3219  0.5752
  819MOL0     C 8002   4.632  -1.124   9.245  1.2567 -0.2237 -0.0246
  819MOL0     C 8003   4.658  -1.163   9.118  0.2687 -0.4001 -0.3468
  819MOL0     C 8004   4.571  -1.260   9.056 -0.0198 -0.0927  0.2574
  819MOL0     C 8005   4.615  -1.325   8.931 -0.1774  0.7372 -0.3086
  819MOL0     O 8006   4.563  -1.447   8.904 -1.6201 -0.7887 -0.4122
  819MOL0     C 8007   4.570  -1.490   8.774  0.6775 -0.2776  1.8602
  819MOL0     C 8008   4.682  -1.497   8.691 -0.3746 -0.3148  0.2959
  819MOL0     C 8009   4.676  -1.543   8.564 -0.0820  1.1330  0.8153
  819MOL0     C 8010   4.562  -1.599   8.514 -0.2273 -0.4496 -0.6087
  819MOL0     O 8011   4.552  -1.654   8.387 -1.4141  0.3356 -0.4158
  819MOL0     C 8012   4.535  -1.563   8.285 -0.4126 -0.4812  0.4260
  819MOL0     C 8013   4.523  -1.638   8.143 -0.2251 -0.7842 -0.1641
  819MOL0     C 8014   4.650  -1.706   8.107 -0.5562 -0.6810  0.7310
  819MOL0     C 8015   4.638  -1.781   7.975  0.5531  0.0436  0.3291
  819MOL0     C 8016   4.553  -1.912   7.977  0.2779  0.0824  0.2842
  819MOL0     C 8017   4.620  -2.035   8.061  0.2203 -0.2705  0.1979
  819MOL0     C 8018   4.554  -2.169   8.046 -0.0895  0.3580 -0.3859
  819MOL0     C 8019   4.651  -2.283   8.077 -0.1711 -1.0825 -0.5863
  819MOL0    Cl 8020   4.569  -2.440   8.039  0.0495  0.2376  0.5259
  819MOL0     C 8021   4.445  -1.590   8.601  0.3197  0.2955  0.7246
  819MOL0     C 8022   4.446  -1.544   8.728 -0.7239  0.4887 -0.5996
  819MOL0     O 8023   4.690  -1.261   8.854  0.7627 -0.8880 -0.4538
  819MOL0     C 8024   4.454  -1.301   9.120 -0.8585 -0.7973 -0.5836
  819MOL0     C 8025   4.426  -1.256   9.245  0.7228  0.4029 -0.1943
  819MOL0     N 8026   4.054  -0.919   9.633 -0.6946  0.5172  0.4225
  819MOL0     N 8027   3.970  -0.897   9.539  0.7636  1.0425  0.0630
  819MOL0     C 8028   4.280  -0.085   9.350  0.5743  0.4811 -0.5237
  819MOL0     C 8029   4.292   0.011   9.459 -0.5248  0.5634  0.9073
  819MOL0     C 8030   4.281   0.390   9.663  0.0373  0.2701 -1.0052
  819MOL0     C 8031   4.351   0.347   9.772 -0.1009 -0.3581 -0.8388
  819MOL0     C 8032   4.432   0.435   9.847  0.3794  0.7490  0.1979
  819MOL0     C 8033   4.431   0.576   9.820 -0.0315 -0.8341  0.6480
  819MOL0     O 8034   4.480   0.681   9.898  1.0171  0.4418 -0.2173
  819MOL0     C 8035   4.511   0.655  10.029 -0.3244 -0.3766  0.4129
  819MOL0     C 8036   4.507   0.788  10.093 -0.0041  0.3274  0.4205
  819MOL0     C 8037   4.374   0.873  10.080  1.2128  0.2033  0.0717
  819MOL0     C 8038   4.262   0.835  10.178 -0.7276 -0.2941 -0.0561
  819MOL0     C 8039   4.186   0.716  10.138  0.1969 -1.4951  0.8472
  819MOL0     C 8040   4.133   0.614  10.100 -0.1983 -0.4601  0.5112
  819MOL0     C 8041   4.358   0.618   9.711  0.0891  0.3537 -0.5237
  819MOL0     C 8042   4.280   0.528   9.636 -0.1469  0.6192  0.2687
  819MOL0     H 8043   3.976   0.075   9.525 -1.6834 -1.2857 -1.3493
  819MOL0     H 8044   3.940  -0.088   9.328 -0.7692  0.2709  0.9977
  819MOL0     H 8045   3.984  -0.169   9.076 -0.7405  1.0928  3.1529
  819MOL0     H 8046   3.981  -0.291   9.207 -0.3218  1.5924  1.3417
  819MOL0     H 8047   4.141  -0.282   8.944 -1.5198  2.4823  0.0966
  819MOL0     H 8048   4.011  -0.395   8.974  0.3550 -1.9555  1.0238
  819MOL0     H 8049   4.267  -0.376   9.142  2.4872 -1.4541 -1.5626
  819MOL0     H 8050   4.257  -0.471   8.994  0.2729  0.3778  0.9932
  819MOL0     H 8051   4.213  -0.625   9.174 -0.0803  0.3923  0.6001
  819MOL0     H 8052   4.116  -0.509   9.261  1.6849  0.2116  0.7753
  819MOL0     H 8053   4.017  -0.611   8.985 -0.1385 -3.1723 -1.3842
  819MOL0     H 8054   3.925  -0.574   9.127 -0.9594  1.2569 -1.8928
  819MOL0     H 8055   4.094  -0.832   9.094 -0.0199 -0.1953  0.7394
  819MOL0     H 8056   3.920  -0.804   9.096  0.6248 -3.2782  2.8373
  819MOL0     H 8057   4.104  -0.786   9.332 -2.5879  2.5411  4.2521
  819MOL0     H 8058   3.937  -0.734   9.318 -1.3656  1.3320 -1.7892
  819MOL0     H 8059   4.024  -1.008   9.231 -1.7793 -1.0697 -1.2318
  819MOL0     H 8060   3.856  -0.961   9.281 -0.4474 -0.2508  2.7502
  819MOL0     H 8061   4.154  -1.144   9.410 -0.2317 -0.5471 -0.1839
  819MOL0     H 8062   4.292  -1.155   9.622  0.3075 -0.6724 -0.2574
  819MOL0     H 8063   4.244  -1.061   9.763  3.1758 -1.8755 -0.4215
  819MOL0     H 8064   4.363  -0.878   9.717 -0.6083 -1.8546  1.6718
  819MOL0     H 8065   4.357  -0.894   9.546 -2.5608 -0.5381  0.0969
  819MOL0     H 8066   4.589  -0.934   9.686  0.6589 -1.0706  2.2244
  819MOL0     H 8067   4.515  -1.098   9.699 -2.4826  0.1007  1.0234
  819MOL0     H 8068   4.661  -1.073   9.502 -1.6153 -2.7698 -2.6229
  819MOL0     H 8069   4.560  -0.932   9.449 -1.6161  1.8908  2.7049
  819MOL0     H 8070   4.706  -1.065   9.299 -0.0837  1.6411 -0.1461
  819MOL0     H 8071   4.748  -1.134   9.064 -0.0346 -3.3109 -2.6407
  819MOL0     H 8072   4.774  -1.461   8.735  0.0125 -2.9164  1.7927
  819MOL0     H 8073   4.768  -1.527   8.509 -1.1323  1.8915 -0.7838
  819MOL0     H 8074   4.605  -1.479   8.290 -1.7359  0.5701  2.6853
  819MOL0     H 8075   4.438  -1.513   8.291 -1.7825 -2.5607 -2.2046
  819MOL0     H 8076   4.503  -1.567   8.063 -1.5514  0.5378  1.2799
  819MOL0     H 8077   4.439  -1.709   8.139  0.4957 -1.6393 -0.5769
  819MOL0     H 8078   4.679  -1.769   8.192  0.0490  1.2237  2.0043
  819MOL0     H 8079   4.731  -1.633   8.101 -0.8987 -0.4218 -2.0470
  819MOL0     H 8080   4.596  -1.712   7.901  2.8432  4.4135  2.6839
  819MOL0     H 8081   4.738  -1.805   7.936  0.3785 -1.4179  0.7444
  819MOL0     H 8082   4.540  -1.947   7.874 -1.4580 -0.5981  0.6919
  819MOL0     H 8083   4.455  -1.883   8.017 -0.1768  0.7994 -1.2516
  819MOL0     H 8084   4.626  -2.005   8.166  3.7830  0.1690 -0.0110
  819MOL0     H 8085   4.725  -2.038   8.030  1.0141  3.8433  1.8464
  819MOL0     H 8086   4.466  -2.166   8.111 -0.1413 -1.7915 -0.3071
  819MOL0     H 8087   4.518  -2.183   7.943 -1.0662 -4.4282  0.3841
  819MOL0     H 8088   4.698  -2.270   8.174 -0.8713 -2.3518 -0.0573
  819MOL0     H 8089   4.739  -2.270   8.014  1.8452  1.5990  2.5071
  819MOL0     H 8090   4.355  -1.636   8.562  0.4082  0.3706  0.4257
  819MOL0     H 8091   4.364  -1.558   8.797 -3.1465 -0.9170 -3.4824
  819MOL0     H 8092   4.396  -1.379   9.073  1.8211 -1.5101 -2.9969
  819MOL0     H 8093   4.334  -1.305   9.275  0.3078 -1.2033 -3.5565
  819MOL0     H 8094   4.363  -0.117   9.289 -0.1258 -3.4493  0.3253
  819MOL0     H 8095   4.389   0.042   9.496  0.4232  0.7589 -1.5430
  819MOL0     H 8096   4.359   0.242   9.799  3.0533  0.2924  1.2663
  819MOL0     H 8097   4.491   0.391   9.926 -0.6901  3.2453  2.5346
  819MOL0     H 8098   4.608   0.606  10.041  0.5686  0.6169 -2.0871
  819MOL0     H 8099   4.438   0.585  10.070  0.1705 -0.3306  1.3923
  819MOL0     H 8100   4.524   0.770  10.199  0.6600  3.5464  0.9622
  819MOL0     H 8101   4.593   0.849  10.062  0.8174  0.2912  2.4610
  819MOL0     H 8102   4.342   0.863   9.976  0.6500 -0.0026  0.2590
  819MOL0     H 8103   4.397   0.975  10.113 -1.3338 -0.3615  4.4226
  819MOL0     H 8104   4.293   0.826  10.283  0.1094 -1.3038 -0.3770
  819MOL0     H 8105   4.187   0.913  10.162  1.0043  0.9596 -2.6160
  819MOL0     H 8106   4.097   0.523  10.057 -2.2014 -0.1507  1.4606
  819MOL0     H 8107   4.357   0.725   9.691 -0.9536  0.2440 -1.1350
  819MOL0     H 8108   4.229   0.569   9.549  1.4090  0.4607 -0.7742
  820MOL0     O 8109   0.862   5.818  11.239 -0.5257  0.3304  0.0464
  820MOL0     C 8110   0.823   5.843  11.354  0.1544 -0.5358  1.1226
  820MOL0     O 8111   0.714   5.803  11.408 -0.4885  0.1034 -0.0035
  820MOL0     C 8112   0.651   5.697  11.347 -0.0336  0.0286 -0.5565
  820MOL0     C 8113   0.528   5.743  11.289  0.2536  0.3263 -0.8796
  820MOL0     C 8114   0.435   5.652  11.235 -0.3191  0.2571 -0.5105
  820MOL0     C 8115   0.468   5.511  11.230  0.6946 -0.3733  0.4832
  820MOL0     O 8116   0.387   5.428  11.160  0.9052 -0.3575  0.2839
  820MOL0     C 8117   0.302   5.343  11.235 -0.1499  0.3707 -0.1198
  820MOL0     C 8118   0.369   5.201  11.249 -0.1082  0.1726 -0.9330
  820MOL0     C 8119   0.319   5.116  11.372 -0.1510 -0.8857 -0.4363
  820MOL0     C 8120   0.429   5.011  11.419  0.1672 -0.0197  0.1722
  820MOL0     C 8121   0.468   4.907  11.310  0.2390 -0.1237  0.6245
  820MOL0     C 8122   0.350   4.818  11.276 -0.6127  0.4871 -0.7581
  820MOL0     C 8123   0.374   4.726  11.152 -0.3762 -1.3062  0.4318
  820MOL0     C 8124   0.412   4.802  11.026 -0.9398 -0.0311 -0.1503
  820MOL0     N 8125   0.302   4.879  10.967 -0.5466  0.7330  0.8089
  820MOL0     C 8126   0.195   4.818  10.897  0.1455  0.5919  0.2678
  820MOL0     C 8127   0.149   4.925  10.819 -0.0194  0.8881 -0.3656
  820MOL0     C 8128   0.039   4.939  10.720  0.0433 -0.3583  0.5426
  820MOL0     C 8129   0.017   4.811  10.631 -0.5399 -0.1554 -1.1279
  820MOL0     C 8130   0.103   4.787  10.506  0.3973 -0.4887 -0.6406
  820MOL0     C 8131   0.254   4.827  10.503  0.4564  0.0234 -0.1807
  820MOL0     O 8132   0.330   4.706  10.497  0.2847  0.2176  0.0071
  820MOL0     C 8133   0.451   4.711  10.565  0.6475  0.2460  1.6855
  820MOL0     C 8134   0.491   4.606  10.644  0.4247 -0.9180  0.6303
  820MOL0     C 8135   0.608   4.607  10.709  0.1095  0.7177 -0.5395
  820MOL0     C 8136   0.692   4.711  10.700  0.1595 -0.8224 -0.4784
  820MOL0     C 8137   0.811   4.722  10.794  0.7152  0.4780 -0.1003
  820MOL0     O 8138   0.889   4.826  10.786 -0.6994 -1.2300 -0.6338
  820MOL0     C 8139   1.002   4.844  10.870  1.7061  0.8407  0.4852
  820MOL0     C 8140   1.123   4.859  10.799 -0.1503 -0.3031  0.3286
  820MOL0     C 8141   1.241   4.884  10.873  0.0954 -0.3624  0.1911
  820MOL0     C 8142   1.243   4.900  11.007  0.3723 -0.0194 -0.9450
  820MOL0     O 8143   1.348   4.947  11.080 -0.2630  0.7767 -1.0998
  820MOL0     C 8144   1.466   4.862  11.072 -0.3285  1.4694 -0.6566
  820MOL0     C 8145   1.566   4.878  11.181 -0.6469 -0.7564 -0.3314
  820MOL0     C 8146   1.502   4.858  11.326 -0.4668 -0.6715 -0.2489
  820MOL0     C 8147   1.610   4.888  11.438 -0.2354  1.4922  1.0349
  820MOL0     C 8148   1.553   4.880  11.579  0.2560  0.2658  0.7117
  820MOL0     C 8149   1.655   4.896  11.686 -0.2300  1.3883  0.4665
  820MOL0     C 8150   1.706   4.752  11.727  0.6052  0.3234  0.1627
  820MOL0     C 8151   1.845   4.727  11.779 -0.3636  0.1484  0.1962
  820MOL0    Cl 8152   1.867   4.782  11.939  0.0737  0.3467 -0.4557
  820MOL0     C 8153   1.122   4.888  11.079 -0.8559  0.0412 -0.1771
  820MOL0     C 8154   1.001   4.852  11.013  0.0307  0.2783  0.8827
  820MOL0     O 8155   0.827   4.636  10.882 -0.2462  0.5786 -0.2333
  820MOL0     C 8156   0.656   4.820  10.624 -0.0264 -0.3625  0.3239
  820MOL0     C 8157   0.538   4.820  10.552  0.2889 -0.0283  1.7126
  820MOL0     N 8158   0.220   5.039  10.855 -0.2852 -0.0165 -0.0754
  820MOL0     N 8159   0.313   5.005  10.932  0.0802 -0.3226  0.2409
  820MOL0     C 8160   0.593   5.466  11.284 -0.0992 -0.0707  0.8732
  820MOL0     C 8161   0.685   5.559  11.331  0.5484  0.1787  0.0969
  820MOL0     C 8162   0.910   5.938  11.438  0.4711  0.2354  0.1267
  820MOL0     C 8163   1.030   5.979  11.385 -1.0354  0.2994  1.0067
  820MOL0     C 8164   1.123   6.057  11.455  0.4353 -0.2170 -0.6745
  820MOL0     C 8165   1.084   6.103  11.583  0.5010  0.5646  0.0349
  820MOL0     O 8166   1.176   6.193  11.640 -0.4887 -0.2269  0.2243
  820MOL0     C 8167   1.206   6.195  11.780 -0.3536 -0.0123 -0.9388
  820MOL0     C 8168   1.145   6.328  11.846 -0.0727 -0.0097  0.3374
  820MOL0     C 8169   1.257   6.429  11.847 -0.2644  0.4915 -0.2441
  820MOL0     C 8170   1.237   6.554  11.927  0.2632  0.2396 -0.1952
  820MOL0     C 8171   1.212   6.529  12.072  0.3888 -0.8355  0.4559
  820MOL0     C 8172   1.207   6.494  12.184  0.2231  0.4090  0.0068
  820MOL0     C 8173   0.956   6.072  11.639 -0.0253 -0.3624 -0.6319
  820MOL0     C 8174   0.879   5.984  11.567  0.1934  0.0897  1.2083
  820MOL0     H 8175   0.513   5.849  11.305 -0.0490 -0.0524  1.9038
  820MOL0     H 8176   0.341   5.687  11.192 -1.0563  0.0608  0.8896
  820MOL0     H 8177   0.209   5.329  11.180 -0.6921  1.7187  0.4256
  820MOL0     H 8178   0.286   5.394  11.330  1.5588 -0.7698  0.8240
  820MOL0     H 8179   0.474   5.205  11.280 -0.9443  1.3519  2.0597
  820MOL0     H 8180   0.352   5.157  11.150  1.4233 -0.9282 -0.7448
  820MOL0     H 8181   0.223   5.071  11.345 -0.8272  1.9799 -3.4899
  820MOL0     H 8182   0.299   5.180  11.458 -1.3293 -1.1227 -0.5239
  820MOL0     H 8183   0.517   5.064  11.456 -0.0752  3.6955 -3.8358
  820MOL0     H 8184   0.379   4.944  11.490  0.0284 -0.6561 -0.5154
  820MOL0     H 8185   0.552   4.850  11.350  0.9701 -0.6861 -1.5319
  820MOL0     H 8186   0.515   4.956  11.224 -1.9031  2.4517  0.8268
  820MOL0     H 8187   0.254   4.872  11.272  0.2878  2.4033  1.2211
  820MOL0     H 8188   0.330   4.757  11.364 -5.1066  3.5343  0.7028
  820MOL0     H 8189   0.460   4.665  11.181  0.7928 -0.0509 -0.2529
  820MOL0     H 8190   0.285   4.665  11.136 -0.1020 -1.0483 -2.8387
  820MOL0     H 8191   0.431   4.727  10.948 -0.7360 -0.2696  0.1252
  820MOL0     H 8192   0.502   4.864  11.032 -1.1285  0.0996  2.2481
  820MOL0     H 8193   0.153   4.718  10.901  1.0277  0.2331  1.0656
  820MOL0     H 8194   0.044   5.028  10.656 -2.1872 -0.9545 -0.5728
  820MOL0     H 8195  -0.046   4.956  10.786 -0.1400  5.4649 -0.6540
  820MOL0     H 8196  -0.083   4.834  10.593 -1.7298 -0.9643  1.3401
  820MOL0     H 8197   0.018   4.723  10.696 -0.7153  1.3416  1.0099
  820MOL0     H 8198   0.093   4.685  10.466  0.9036 -0.5789 -0.5509
  820MOL0     H 8199   0.058   4.857  10.436  0.6193 -3.5925 -4.2196
  820MOL0     H 8200   0.271   4.893  10.588 -1.9945  0.3425  0.1411
  820MOL0     H 8201   0.292   4.896  10.426  0.9386  0.0747  0.1021
  820MOL0     H 8202   0.425   4.520  10.654 -0.7617  0.2514  4.4662
  820MOL0     H 8203   0.634   4.519  10.767 -0.0750  1.1889  0.2733
  820MOL0     H 8204   1.136   4.849  10.692  0.6245  1.8750  0.1574
  820MOL0     H 8205   1.336   4.891  10.822  0.4900 -1.8946  0.6655
  820MOL0     H 8206   1.510   4.853  10.972  0.7469 -4.3218 -0.0097
  820MOL0     H 8207   1.432   4.758  11.080 -0.2526  1.3501 -1.7571
  820MOL0     H 8208   1.609   4.978  11.168  0.6104 -0.8555  2.2922
  820MOL0     H 8209   1.661   4.828  11.158  0.9091  0.6861  2.4245
  820MOL0     H 8210   1.452   4.761  11.329  1.0942 -1.4879  1.8997
  820MOL0     H 8211   1.429   4.939  11.332 -1.5024 -1.6707  1.6316
  820MOL0     H 8212   1.676   4.801  11.430 -0.1820  1.4637  1.7066
  820MOL0     H 8213   1.681   4.971  11.429  1.5991  0.0382  1.3633
  820MOL0     H 8214   1.511   4.779  11.585 -0.0374  0.3918  0.8076
  820MOL0     H 8215   1.461   4.939  11.586 -0.4660 -0.7414  0.1031
  820MOL0     H 8216   1.633   4.952  11.778  3.2378  1.5170  1.3601
  820MOL0     H 8217   1.736   4.958  11.645 -1.1921  2.1430 -0.3528
  820MOL0     H 8218   1.636   4.709  11.799  1.0713  2.1151  1.7723
  820MOL0     H 8219   1.697   4.690  11.637  3.6475 -1.0481  0.6629
  820MOL0     H 8220   1.922   4.765  11.711  1.4427 -0.9616  1.5387
  820MOL0     H 8221   1.867   4.620  11.778 -0.4668  0.1223  0.5600
  820MOL0     H 8222   1.119   4.918  11.183 -0.6917 -0.8484  0.0982
  820MOL0     H 8223   0.905   4.856  11.063 -0.5685  0.9406 -0.2855
  820MOL0     H 8224   0.733   4.895  10.607 -0.0418 -0.8123 -2.1065
  820MOL0     H 8225   0.504   4.906  10.496  1.2925 -0.6647  0.0485
  820MOL0     H 8226   0.624   5.362  11.284  1.1867  0.2706 -1.1763
  820MOL0     H 8227   0.782   5.524  11.365  0.8686  2.8259  2.2491
  820MOL0     H 8228   1.061   5.935  11.291 -1.9253 -1.7866  1.6353
  820MOL0     H 8229   1.216   6.096  11.416 -1.0668  2.4702 -1.8399
  820MOL0     H 8230   1.310   6.181  11.809 -1.0696 -1.5978  1.1446
  820MOL0     H 8231   1.155   6.108  11.823 -0.1395  0.3564  0.0866
  820MOL0     H 8232   1.059   6.376  11.798  0.6874 -0.9445 -2.0898
  820MOL0     H 8233   1.111   6.296  11.945 -2.4037  0.3433 -0.2876
  820MOL0     H 8234   1.288   6.463  11.748  1.5937  0.9420  0.4606
  820MOL0     H 8235   1.346   6.376  11.882 -1.0548 -0.5043  0.3171
  820MOL0     H 8236   1.320   6.624  11.939  0.2475  0.2349 -0.0496
  820MOL0     H 8237   1.141   6.590  11.887 -1.0399 -0.5823  1.9702
  820MOL0     H 8238   1.209   6.461  12.286  0.5087 -3.8170 -1.1837
  820MOL0     H 8239   0.927   6.113  11.735 -1.6029 -1.6587 -0.5080
  820MOL0     H 8240   0.786   5.963  11.619  0.6324  0.6163  2.2509
  821MOL0     O 8241  10.969  10.356   6.801 -0.3382  1.1833  0.4808
  821MOL0     C 8242  10.864  10.299   6.748 -0.5916  0.3301 -0.6173
  821MOL0     O 8243  10.842  10.168   6.771  0.1385 -0.6278 -0.4598
  821MOL0     C 8244  10.940  10.108   6.846  0.3975  1.1069 -0.6642
  821MOL0     C 8245  10.948  10.109   6.986 -1.1132 -1.2459  1.0384
  821MOL0     C 8246  11.059  10.053   7.049  0.4317 -0.4638  0.4443
  821MOL0     C 8247  11.162   9.995   6.982  0.1775  0.1126 -1.1568
  821MOL0     O 8248  11.258   9.930   7.059  0.2522  1.0179 -0.2433
  821MOL0     C 8249  11.375   9.869   7.010  0.7773 -0.0193  0.8223
  821MOL0     C 8250  11.454   9.815   7.122  0.0556  0.1923  0.3045
  821MOL0     C 8251  11.504   9.917   7.207 -0.0152  0.0693 -0.1970
  821MOL0     C 8252  11.604  10.024   7.141  0.2323 -0.4511 -0.1307
  821MOL0     C 8253  11.750   9.965   7.127 -0.1137  0.8436 -0.4120
  821MOL0     C 8254  11.845  10.056   7.051 -0.7856 -1.7468  0.2541
  821MOL0     C 8255  11.851  10.195   7.102 -0.1016 -0.2257 -0.1587
  821MOL0     C 8256  11.956  10.302   7.052  0.4204 -0.1428  0.0247
  821MOL0     N 8257  12.100  10.272   7.079  0.1741 -0.4263 -0.0934
  821MOL0     C 8258  12.207  10.280   6.999  0.1563  0.0697  0.8703
  821MOL0     C 8259  12.320  10.227   7.055  0.4888 -0.3873  0.1976
  821MOL0     C 8260  12.456  10.195   6.998 -0.0841  0.0974  0.6069
  821MOL0     C 8261  12.435  10.162   6.848 -0.3216 -0.4049 -0.3272
  821MOL0     C 8262  12.569  10.170   6.773 -0.2830 -0.2503 -0.2071
  821MOL0     C 8263  12.555  10.191   6.620  0.4427  0.5045 -0.1197
  821MOL0     O 8264  12.497  10.315   6.584  0.2335  0.1775 -0.4743
  821MOL0     C 8265  12.493  10.362   6.458 -1.0336  1.1907 -0.7484
  821MOL0     C 8266  12.407  10.469   6.445  0.2452 -0.0651 -0.3319
  821MOL0     C 8267  12.407  10.548   6.326 -0.9343 -0.5089 -0.0807
  821MOL0     C 8268  12.486  10.501   6.221 -0.0789 -0.1694  0.4488
  821MOL0     C 8269  12.495  10.585   6.100 -0.2734  0.5730  0.3111
  821MOL0     O 8270  12.615  10.568   6.029 -0.2132 -1.2237  0.5491
  821MOL0     C 8271  12.662  10.669   5.937  1.3525  1.0671  0.0191
  821MOL0     C 8272  12.753  10.630   5.838 -1.5532  0.7698  0.2124
  821MOL0     C 8273  12.786  10.722   5.727  0.2446 -0.1319 -0.0407
  821MOL0     C 8274  12.734  10.852   5.714 -0.0117 -0.3267 -0.3797
  821MOL0     O 8275  12.764  10.921   5.596 -0.2081 -0.3300 -0.8816
  821MOL0     C 8276  12.670  10.896   5.492  1.0127  0.5186 -0.6161
  821MOL0     C 8277  12.702  10.970   5.368 -0.7141 -1.1399 -0.6389
  821MOL0     C 8278  12.586  10.982   5.271 -0.4977  1.0804 -0.2668
  821MOL0     C 8279  12.562  10.860   5.179  0.1211  0.3444  0.0053
  821MOL0     C 8280  12.423  10.867   5.107 -0.2083 -0.0522  0.1299
  821MOL0     C 8281  12.413  10.980   5.001 -1.0456  0.7267  0.5922
  821MOL0     C 8282  12.291  10.979   4.913  0.6544 -0.6562 -0.4754
  821MOL0     C 8283  12.196  11.089   4.958  0.0078  0.3944 -1.2419
  821MOL0    Cl 8284  12.057  11.073   4.841 -0.4591  0.0242 -0.7517
  821MOL0     C 8285  12.656  10.899   5.825 -0.0291 -0.2717 -0.4881
  821MOL0     C 8286  12.617  10.808   5.929 -0.2743 -0.1611 -0.2732
  821MOL0     O 8287  12.410  10.667   6.082  0.8411 -0.1894  0.7546
  821MOL0     C 8288  12.574  10.391   6.235  0.2844 -0.6832  0.9345
  821MOL0     C 8289  12.575  10.320   6.351 -0.6431 -0.4473  0.6082
  821MOL0     N 8290  12.278  10.180   7.179 -0.9797  0.5926 -0.2541
  821MOL0     N 8291  12.151  10.200   7.183 -0.2509 -0.1269 -0.1866
  821MOL0     C 8292  11.161  10.005   6.842 -0.3083 -0.0695  0.2337
  821MOL0     C 8293  11.046  10.061   6.780  0.3629 -0.0403 -0.1576
  821MOL0     C 8294  10.781  10.368   6.654  0.0910 -0.5458 -0.7730
  821MOL0     C 8295  10.794  10.505   6.632 -0.0328  0.2660 -0.0071
  821MOL0     C 8296  10.711  10.566   6.544 -0.3446  0.6194  0.2868
  821MOL0     C 8297  10.609  10.504   6.472  0.2795  0.5270  1.1711
  821MOL0     O 8298  10.522  10.585   6.395  0.2007 -0.7671 -0.6236
  821MOL0     C 8299  10.385  10.543   6.357  0.0278  0.3990 -0.3720
  821MOL0     C 8300  10.292  10.659   6.347  0.1359 -0.5058 -0.1533
  821MOL0     C 8301  10.148  10.598   6.338  0.4618 -0.7535 -0.2985
  821MOL0     C 8302  10.042  10.681   6.401 -0.2092 -0.0417 -0.6778
  821MOL0     C 8303  10.028  10.663   6.541  0.2390 -0.5640 -0.6518
  821MOL0     C 8304  10.022  10.657   6.664 -0.2823  0.7865  0.3516
  821MOL0     C 8305  10.591  10.363   6.489  0.5817 -0.6490 -0.3351
  821MOL0     C 8306  10.677  10.300   6.584 -0.3526  0.4563  0.2485
  821MOL0     H 8307  10.866  10.154   7.041 -1.5828  0.1688 -0.7242
  821MOL0     H 8308  11.065  10.051   7.158  0.1137  1.6098  0.5404
  821MOL0     H 8309  11.429   9.945   6.953  3.4163 -0.0034  3.0917
  821MOL0     H 8310  11.351   9.786   6.943  0.2577 -0.8901  2.0566
  821MOL0     H 8311  11.541   9.763   7.082 -1.5293 -1.4069 -1.2863
  821MOL0     H 8312  11.394   9.741   7.176  0.7119 -1.8427 -1.5854
  821MOL0     H 8313  11.542   9.867   7.297  2.5963 -0.5976 -1.5551
  821MOL0     H 8314  11.419   9.976   7.240  0.5879 -0.0833  1.7456
  821MOL0     H 8315  11.564  10.071   7.050  2.6673  0.7602 -0.6652
  821MOL0     H 8316  11.610  10.106   7.213  2.0907 -0.2729 -0.4484
  821MOL0     H 8317  11.752   9.873   7.068 -2.5351 -1.6144  2.9601
  821MOL0     H 8318  11.780   9.932   7.226 -1.1887 -3.4660 -1.3400
  821MOL0     H 8319  11.812  10.058   6.946 -1.2585 -0.7604  0.4047
  821MOL0     H 8320  11.944  10.016   7.026 -1.4003 -1.2054 -3.8071
  821MOL0     H 8321  11.749  10.233   7.091 -0.3233 -0.3109  1.4215
  821MOL0     H 8322  11.878  10.187   7.208  1.5136 -0.1074 -0.5358
  821MOL0     H 8323  11.920  10.389   7.107 -3.1604 -0.5995 -1.3166
  821MOL0     H 8324  11.937  10.323   6.946  2.2021 -1.5576 -0.6361
  821MOL0     H 8325  12.208  10.329   6.902  1.5702 -0.8858  0.3756
  821MOL0     H 8326  12.500  10.107   7.046  1.7295  1.2765  1.2078
  821MOL0     H 8327  12.521  10.283   7.000 -0.4059  0.5050 -2.4404
  821MOL0     H 8328  12.363  10.229   6.799  0.6386  0.5820 -0.4433
  821MOL0     H 8329  12.391  10.064   6.830 -0.8292 -0.2414  0.0039
  821MOL0     H 8330  12.642  10.240   6.814  0.1300 -2.1113  2.5516
  821MOL0     H 8331  12.624  10.077   6.790  3.5336  2.3200  3.6153
  821MOL0     H 8332  12.512  10.103   6.571  1.8442 -1.9406  2.7138
  821MOL0     H 8333  12.654  10.188   6.573  0.0838 -0.2701 -0.8571
  821MOL0     H 8334  12.347  10.492   6.532  0.6702 -1.3745  0.3391
  821MOL0     H 8335  12.355  10.641   6.308  1.8338  0.8969 -1.4202
  821MOL0     H 8336  12.775  10.524   5.826 -2.6362  0.7939 -3.2735
  821MOL0     H 8337  12.825  10.683   5.634 -1.4659 -2.7719  0.2435
  821MOL0     H 8338  12.565  10.908   5.521  1.8924  1.0567  2.7693
  821MOL0     H 8339  12.684  10.792   5.461 -5.5763 -0.5135 -1.5412
  821MOL0     H 8340  12.793  10.932   5.321  0.5851 -1.4963  1.9816
  821MOL0     H 8341  12.709  11.075   5.397  1.2528 -1.2733 -0.4682
  821MOL0     H 8342  12.600  11.062   5.197 -1.3696 -0.9730 -2.8301
  821MOL0     H 8343  12.499  11.008   5.331  0.2655  2.7337  0.1933
  821MOL0     H 8344  12.640  10.839   5.105  0.3099 -2.1876  0.8208
  821MOL0     H 8345  12.557  10.771   5.243  1.7473  0.2897  0.1153
  821MOL0     H 8346  12.344  10.890   5.179 -1.1373 -0.2542 -0.7974
  821MOL0     H 8347  12.390  10.775   5.057 -1.6030  1.3295 -1.6224
  821MOL0     H 8348  12.489  10.963   4.925 -1.1265  3.6698 -0.2494
  821MOL0     H 8349  12.438  11.078   5.041  2.5822 -0.8670  2.7721
  821MOL0     H 8350  12.311  10.989   4.806  3.6063 -1.7311 -0.1157
  821MOL0     H 8351  12.249  10.883   4.945  3.0845 -1.3460  0.9170
  821MOL0     H 8352  12.243  11.188   4.950  5.9145 -1.5016  2.8595
  821MOL0     H 8353  12.160  11.070   5.060 -0.4783 -1.8990 -1.7932
  821MOL0     H 8354  12.620  11.002   5.826 -0.6208 -0.4417  2.1828
  821MOL0     H 8355  12.537  10.853   5.988 -1.2650  1.5470 -2.7580
  821MOL0     H 8356  12.641  10.364   6.154 -2.0810  0.1728 -1.4517
  821MOL0     H 8357  12.619  10.221   6.360  0.2205  0.0347  1.9652
  821MOL0     H 8358  11.226   9.946   6.778 -1.5589  2.1315 -3.3295
  821MOL0     H 8359  11.025  10.064   6.674  2.4112  2.2093 -0.5653
  821MOL0     H 8360  10.868  10.558   6.692  1.9122  0.7082 -2.6162
  821MOL0     H 8361  10.715  10.675   6.540  0.1208  0.6175  0.6518
  821MOL0     H 8362  10.331  10.480   6.429 -1.2836  1.2835 -0.5439
  821MOL0     H 8363  10.387  10.488   6.263  0.0032  0.2816 -0.3043
  821MOL0     H 8364  10.299  10.721   6.437  0.7136 -1.9031  0.8143
  821MOL0     H 8365  10.314  10.717   6.258  2.3088 -2.1043 -0.7401
  821MOL0     H 8366  10.129  10.496   6.371  0.5871 -1.6312 -2.7590
  821MOL0     H 8367  10.133  10.601   6.229  2.2783 -2.3632 -0.6367
  821MOL0     H 8368  10.079  10.781   6.378 -0.3080 -0.3451 -2.2323
  821MOL0     H 8369   9.944  10.655   6.360 -2.5799 -1.9866  5.1714
  821MOL0     H 8370  10.041  10.647   6.769  4.2637 -2.3744 -0.4594
  821MOL0     H 8371  10.517  10.301   6.441  0.4743 -0.7438 -0.0485
  821MOL0     H 8372  10.669  10.193   6.597  0.7127  0.0433 -2.0611
  822MOL0     O 8373   5.615   4.980   3.617  0.6172 -0.2825 -0.1491
  822MOL0     C 8374   5.708   5.063   3.634  0.1126 -0.4796  0.6528
  822MOL0     O 8375   5.715   5.166   3.728 -0.1366 -0.7640 -0.6348
  822MOL0     C 8376   5.606   5.182   3.812  0.2016  0.6209  0.1760
  822MOL0     C 8377   5.580   5.092   3.915 -0.2732 -0.6244  0.2880
  822MOL0     C 8378   5.459   5.106   3.998 -0.1172  0.1839  0.0869
  822MOL0     C 8379   5.365   5.201   3.973  0.4427  0.2053 -0.4250
  822MOL0     O 8380   5.242   5.197   4.041 -0.0613 -0.1701  0.0787
  822MOL0     C 8381   5.189   5.094   4.123  0.1946 -0.8162 -0.3322
  822MOL0     C 8382   5.053   5.141   4.167 -0.2336 -0.3407  0.1089
  822MOL0     C 8383   5.023   5.067   4.307  0.6584 -0.1402  0.0967
  822MOL0     C 8384   4.884   5.109   4.348 -0.0570 -0.9133 -0.1136
  822MOL0     C 8385   4.851   5.074   4.486  1.6577  0.1368  0.1599
  822MOL0     C 8386   4.711   5.143   4.504 -0.5513  0.6072 -0.4351
  822MOL0     C 8387   4.652   5.098   4.628  1.0507  0.0286 -0.5769
  822MOL0     C 8388   4.728   5.139   4.759  0.0718  0.0766  0.3467
  822MOL0     N 8389   4.811   5.030   4.810  0.1491 -0.3394 -0.0548
  822MOL0     C 8390   4.834   4.906   4.767  0.5624  0.1109  0.2476
  822MOL0     C 8391   4.925   4.846   4.851 -0.3547 -0.8145  0.2661
  822MOL0     C 8392   4.990   4.717   4.842 -0.5729 -0.6433 -0.3345
  822MOL0     C 8393   5.108   4.730   4.752  0.0337 -0.2266  0.2685
  822MOL0     C 8394   5.090   4.800   4.609 -0.8768 -0.1238  0.3134
  822MOL0     C 8395   5.229   4.802   4.536 -0.3041 -1.5909  0.5000
  822MOL0     O 8396   5.303   4.899   4.595  0.3158 -0.5910  0.7382
  822MOL0     C 8397   5.407   4.952   4.516  0.2962  0.2921 -0.7156
  822MOL0     C 8398   5.399   5.078   4.453 -0.2696  0.7500 -0.4911
  822MOL0     C 8399   5.511   5.127   4.385  1.0365 -0.3004 -0.3694
  822MOL0     C 8400   5.626   5.049   4.368  0.2091 -0.7387  0.2506
  822MOL0     C 8401   5.733   5.104   4.286 -0.9432  0.7304 -0.5549
  822MOL0     O 8402   5.709   5.214   4.209 -0.5133 -0.3079  0.6414
  822MOL0     C 8403   5.787   5.277   4.108 -1.4041  0.9964 -0.5724
  822MOL0     C 8404   5.759   5.412   4.077 -0.3986  0.4769  0.7665
  822MOL0     C 8405   5.832   5.475   3.973 -0.2309 -0.2689  0.4066
  822MOL0     C 8406   5.942   5.407   3.911 -0.1759 -1.3564 -0.3548
  822MOL0     O 8407   6.035   5.456   3.823 -0.4269 -0.5216 -0.1755
  822MOL0     C 8408   6.023   5.594   3.802  0.3356 -0.4342  1.0356
  822MOL0     C 8409   6.130   5.645   3.690  0.0544  0.8781 -0.8342
  822MOL0     C 8410   6.147   5.793   3.695  0.6234  0.6403 -0.1934
  822MOL0     C 8411   6.015   5.867   3.645 -1.0307  0.1894  0.2289
  822MOL0     C 8412   6.030   6.015   3.622  0.2095 -0.4538 -0.1424
  822MOL0     C 8413   6.134   6.053   3.508 -0.1802  0.1665  0.0759
  822MOL0     C 8414   6.130   6.205   3.475  0.2673 -0.2898  0.0887
  822MOL0     C 8415   6.191   6.217   3.338  0.4108  0.1184 -1.1825
  822MOL0    Cl 8416   6.360   6.276   3.368 -0.1012  0.1074 -0.0080
  822MOL0     C 8417   5.960   5.273   3.937  0.1683 -0.4397  0.3041
  822MOL0     C 8418   5.889   5.206   4.044  0.1028 -0.1514  0.5502
  822MOL0     O 8419   5.839   5.038   4.289 -0.0380 -0.0998  0.9731
  822MOL0     C 8420   5.634   4.924   4.430  0.5322  0.7772 -1.6625
  822MOL0     C 8421   5.531   4.880   4.508  0.7983  0.5796  0.3346
  822MOL0     N 8422   4.962   4.943   4.937  1.0795 -0.6750 -0.5044
  822MOL0     N 8423   4.891   5.047   4.918 -0.4739 -1.0156  0.5064
  822MOL0     C 8424   5.397   5.290   3.867  0.0144  0.1323  0.5369
  822MOL0     C 8425   5.516   5.285   3.785 -0.0003  0.2918 -0.4436
  822MOL0     C 8426   5.813   5.050   3.523 -0.4986  0.3991 -0.1781
  822MOL0     C 8427   5.929   5.129   3.532  0.6442 -0.3822 -0.0973
  822MOL0     C 8428   6.030   5.122   3.432  0.5030  0.0203 -1.1119
  822MOL0     C 8429   6.004   5.043   3.312 -0.2429  0.3464  0.3815
  822MOL0     O 8430   6.080   5.045   3.198  0.0964 -0.5285  0.2791
  822MOL0     C 8431   6.131   5.173   3.154  0.0433 -0.5130 -0.9014
  822MOL0     C 8432   6.022   5.241   3.071 -0.9877 -0.6591  0.9567
  822MOL0     C 8433   5.987   5.169   2.931  0.9007  0.3634 -0.2550
  822MOL0     C 8434   5.857   5.243   2.887 -0.4524  0.3934 -0.9033
  822MOL0     C 8435   5.780   5.158   2.797 -1.1288  0.7475  0.3519
  822MOL0     C 8436   5.744   5.071   2.721  0.9474  0.1252  0.4633
  822MOL0     C 8437   5.897   4.960   3.302  1.4602 -0.7195 -0.5210
  822MOL0     C 8438   5.804   4.962   3.406  1.3368 -0.6303  0.6884
  822MOL0     H 8439   5.644   5.005   3.926 -1.9138 -1.9490 -0.3054
  822MOL0     H 8440   5.449   5.030   4.075  2.0688  1.7686  2.1108
  822MOL0     H 8441   5.257   5.072   4.206 -0.6446 -1.6725  0.1484
  822MOL0     H 8442   5.188   4.995   4.075 -1.4096 -1.4698  0.9520
  822MOL0     H 8443   4.983   5.123   4.084 -1.7307 -2.3663  1.7078
  822MOL0     H 8444   5.065   5.247   4.190  2.8935 -0.5496 -0.2024
  822MOL0     H 8445   5.110   5.079   4.372  2.3162 -1.2778 -1.8065
  822MOL0     H 8446   5.017   4.959   4.295  0.3335 -0.3110  1.5935
  822MOL0     H 8447   4.870   5.217   4.338 -2.9574 -1.0289  1.3403
  822MOL0     H 8448   4.807   5.072   4.280 -3.4880  2.6507  1.3979
  822MOL0     H 8449   4.909   5.127   4.563  2.1767 -1.9340  1.2809
  822MOL0     H 8450   4.860   4.966   4.502 -2.1110 -1.1379 -4.2893
  822MOL0     H 8451   4.651   5.108   4.420 -1.0746  0.5855 -0.0566
  822MOL0     H 8452   4.717   5.252   4.492  2.4581  0.9937  2.8946
  822MOL0     H 8453   4.554   5.146   4.640  0.9551 -0.4799  0.8896
  822MOL0     H 8454   4.627   4.992   4.622 -0.6012  0.3404  0.1576
  822MOL0     H 8455   4.652   5.165   4.834 -0.3719 -0.3968  0.0688
  822MOL0     H 8456   4.791   5.228   4.750 -1.1949  1.1502  1.5380
  822MOL0     H 8457   4.783   4.864   4.681 -0.6839  0.1734  0.9275
  822MOL0     H 8458   4.910   4.647   4.815 -0.6059  0.1182 -2.4026
  822MOL0     H 8459   5.037   4.680   4.933  2.0400  1.1935 -0.8405
  822MOL0     H 8460   5.141   4.628   4.729  0.0997  0.2286 -1.8814
  822MOL0     H 8461   5.182   4.777   4.817  1.4861 -1.7716 -0.1619
  822MOL0     H 8462   5.010   4.749   4.554  0.0710  1.4077 -2.7084
  822MOL0     H 8463   5.067   4.907   4.611 -0.3203  0.0397 -0.9278
  822MOL0     H 8464   5.232   4.819   4.428  0.7929 -3.2855  0.2231
  822MOL0     H 8465   5.292   4.717   4.565  2.4957 -0.4185 -1.7065
  822MOL0     H 8466   5.306   5.134   4.457  0.5895  2.3716 -2.0149
  822MOL0     H 8467   5.506   5.230   4.350  0.0341  0.1189  0.9504
  822MOL0     H 8468   5.680   5.460   4.135  0.8461  1.8315  1.3870
  822MOL0     H 8469   5.811   5.581   3.962 -0.2723 -0.2914  0.2700
  822MOL0     H 8470   6.026   5.657   3.891 -0.7582  0.6179  0.3513
  822MOL0     H 8471   5.928   5.630   3.761  1.1481  0.5168 -0.0648
  822MOL0     H 8472   6.104   5.616   3.588  1.5925  0.6226 -1.1760
  822MOL0     H 8473   6.226   5.595   3.707 -0.5531 -0.2299 -0.5485
  822MOL0     H 8474   6.229   5.824   3.629  0.7728 -1.5770 -1.1351
  822MOL0     H 8475   6.188   5.820   3.792  0.7377  1.8856 -0.5695
  822MOL0     H 8476   5.994   5.828   3.545 -2.0910 -1.3423  1.0049
  822MOL0     H 8477   5.933   5.843   3.713 -1.0975 -0.5599 -0.0999
  822MOL0     H 8478   6.062   6.067   3.713 -0.1042 -0.8824  0.2220
  822MOL0     H 8479   5.928   6.052   3.606 -0.8918 -2.3542  1.9304
  822MOL0     H 8480   6.109   5.997   3.418 -1.0544  3.0516 -1.5916
  822MOL0     H 8481   6.236   6.029   3.539  1.3468  4.3662 -1.0472
  822MOL0     H 8482   6.032   6.252   3.465  1.6907  2.4488 -3.6357
  822MOL0     H 8483   6.185   6.266   3.547  2.4215  0.8414 -2.3404
  822MOL0     H 8484   6.135   6.299   3.291 -2.9118 -2.1150 -1.4419
  822MOL0     H 8485   6.203   6.127   3.277  2.3496  0.8178 -1.9151
  822MOL0     H 8486   6.025   5.217   3.870 -2.2927 -1.3239 -1.4991
  822MOL0     H 8487   5.911   5.101   4.062 -0.5985  0.3037  5.1596
  822MOL0     H 8488   5.726   4.866   4.436  1.5531  2.4579  0.5346
  822MOL0     H 8489   5.544   4.790   4.567  1.1458 -0.8270 -1.7966
  822MOL0     H 8490   5.328   5.372   3.849  1.3207  1.5289  1.6904
  822MOL0     H 8491   5.531   5.354   3.703 -1.8584 -0.7423 -1.7307
  822MOL0     H 8492   5.931   5.191   3.621 -1.4680  3.2549 -2.3365
  822MOL0     H 8493   6.119   5.179   3.459  0.9617 -1.0211 -0.3483
  822MOL0     H 8494   6.219   5.168   3.089  0.1661 -0.7804 -0.7168
  822MOL0     H 8495   6.154   5.236   3.240 -1.5893  1.4837 -1.8407
  822MOL0     H 8496   5.933   5.277   3.123 -1.1511  0.0710  0.2111
  822MOL0     H 8497   6.052   5.343   3.044 -4.3776  0.7136  1.8624
  822MOL0     H 8498   5.950   5.067   2.942 -1.4967  0.9606 -1.9854
  822MOL0     H 8499   6.067   5.173   2.857  2.8793  2.8233  1.8186
  822MOL0     H 8500   5.796   5.262   2.976  1.8373  1.8953  0.4531
  822MOL0     H 8501   5.866   5.342   2.843 -2.5948  0.9464 -0.2158
  822MOL0     H 8502   5.729   5.000   2.642 -2.3351  2.6168 -1.4045
  822MOL0     H 8503   5.881   4.899   3.214  1.4789 -1.5588  0.0467
  822MOL0     H 8504   5.710   4.910   3.395  0.5929  0.8450 -0.2166
  823MOL0     O 8505   8.116   2.566   8.832  0.1771 -0.3595  0.0529
  823MOL0     C 8506   8.189   2.536   8.931 -0.4403 -0.7275  0.1647
  823MOL0     O 8507   8.236   2.413   8.958  0.3058 -1.1244  0.0772
  823MOL0     C 8508   8.207   2.301   8.886  0.9408  0.4329  1.1714
  823MOL0     C 8509   8.288   2.185   8.899  0.1021  0.3964 -1.2326
  823MOL0     C 8510   8.271   2.068   8.828 -0.2163  0.0021  0.4108
  823MOL0     C 8511   8.168   2.066   8.739 -0.4147 -0.6574  0.6734
  823MOL0     O 8512   8.142   1.958   8.659  0.4268 -0.1360 -0.8664
  823MOL0     C 8513   8.090   1.832   8.721  0.1163  0.3755  0.0154
  823MOL0     C 8514   8.164   1.705   8.680  0.3193 -0.6626  0.2347
  823MOL0     C 8515   8.145   1.671   8.523 -0.7866 -0.6256 -0.3276
  823MOL0     C 8516   8.196   1.534   8.494 -0.3032  0.5828 -0.2682
  823MOL0     C 8517   8.127   1.470   8.367 -0.2145 -0.2531  0.1778
  823MOL0     C 8518   8.188   1.335   8.321  1.3739 -0.0775  0.6827
  823MOL0     C 8519   8.334   1.323   8.314  0.0160 -0.0878  0.3278
  823MOL0     C 8520   8.404   1.430   8.221 -0.3413  0.4365 -0.5037
  823MOL0     N 8521   8.481   1.537   8.283  0.1154 -0.1111 -0.2492
  823MOL0     C 8522   8.575   1.528   8.387 -0.9596 -1.0229  0.2245
  823MOL0     C 8523   8.639   1.649   8.385  0.5405 -0.1361 -0.2962
  823MOL0     C 8524   8.759   1.676   8.475  0.2586  0.0076  0.1093
  823MOL0     C 8525   8.896   1.661   8.397  1.3067 -0.3255  0.3734
  823MOL0     C 8526   9.021   1.711   8.477  0.0429 -0.0384 -0.5755
  823MOL0     C 8527   9.054   1.858   8.471 -0.0912  1.0715  0.0902
  823MOL0     O 8528   9.040   1.914   8.342  0.6859 -0.7495 -0.1810
  823MOL0     C 8529   9.134   2.007   8.300  0.6457  0.3579 -0.0851
  823MOL0     C 8530   9.184   1.987   8.173 -0.5242 -0.6415  0.1996
  823MOL0     C 8531   9.264   2.084   8.115  0.2686  0.5498  0.0588
  823MOL0     C 8532   9.295   2.199   8.184 -0.5032  0.6012  0.0034
  823MOL0     C 8533   9.369   2.310   8.118  0.6399 -0.0760  0.0208
  823MOL0     O 8534   9.448   2.277   8.016  0.2467 -0.1981  0.8164
  823MOL0     C 8535   9.516   2.370   7.936 -0.0603 -0.6030  0.8452
  823MOL0     C 8536   9.523   2.354   7.796  0.6391  1.1617  0.3128
  823MOL0     C 8537   9.595   2.439   7.716 -0.0107 -0.6062  0.4583
  823MOL0     C 8538   9.667   2.550   7.772 -0.6724 -0.1673 -0.4572
  823MOL0     O 8539   9.742   2.625   7.678  0.1287  0.4091 -0.3962
  823MOL0     C 8540   9.872   2.571   7.648 -0.5437 -0.0819  0.1799
  823MOL0     C 8541   9.907   2.603   7.502 -0.2778 -0.2097 -0.6590
  823MOL0     C 8542   9.884   2.744   7.466 -0.7142 -0.2593  0.2968
  823MOL0     C 8543   9.903   2.753   7.310 -1.1862  0.0353  1.1369
  823MOL0     C 8544   9.898   2.896   7.260  0.6534 -0.1318  0.6933
  823MOL0     C 8545   9.766   2.943   7.237  0.6030 -0.3294 -0.5772
  823MOL0     C 8546   9.754   3.093   7.201 -0.3438  0.5461  0.0055
  823MOL0     C 8547   9.842   3.148   7.092 -0.4789 -0.3743  0.4891
  823MOL0    Cl 8548   9.811   3.073   6.931  0.1634  0.1927 -0.0949
  823MOL0     C 8549   9.649   2.579   7.916 -0.4697 -1.0054 -0.3756
  823MOL0     C 8550   9.585   2.480   7.988  0.7557 -0.8014 -0.2654
  823MOL0     O 8551   9.353   2.427   8.154 -0.2746  0.2485 -0.4314
  823MOL0     C 8552   9.233   2.215   8.307 -0.4018  0.6310  0.2543
  823MOL0     C 8553   9.156   2.126   8.367  0.3567  0.0213  0.3183
  823MOL0     N 8554   8.574   1.731   8.292 -0.2230 -0.2317 -0.0450
  823MOL0     N 8555   8.477   1.663   8.239 -0.1926 -0.6705 -0.9304
  823MOL0     C 8556   8.093   2.179   8.717  0.3687  0.0847 -0.2362
  823MOL0     C 8557   8.096   2.290   8.791 -0.1150 -1.1382 -0.0367
  823MOL0     C 8558   8.203   2.647   9.032  0.2454  0.3397  0.6675
  823MOL0     C 8559   8.302   2.625   9.137 -0.2269 -0.2099 -0.2364
  823MOL0     C 8560   8.337   2.723   9.219 -0.3331  0.1799  0.5531
  823MOL0     C 8561   8.252   2.834   9.227  1.2842 -0.0088  0.4228
  823MOL0     O 8562   8.261   2.928   9.328 -0.1487  0.1852 -0.1773
  823MOL0     C 8563   8.299   2.896   9.458 -0.7621  0.5918  0.2051
  823MOL0     C 8564   8.165   2.852   9.523 -0.3175  0.1753 -0.7724
  823MOL0     C 8565   8.197   2.781   9.660 -0.8934  0.1728  1.0856
  823MOL0     C 8566   8.218   2.881   9.778  0.1918 -1.7931 -1.3693
  823MOL0     C 8567   8.121   2.987   9.787 -0.4759  0.6988  0.8463
  823MOL0     C 8568   8.026   3.052   9.796  0.5213 -0.7044  0.4217
  823MOL0     C 8569   8.153   2.852   9.138  0.7726  0.2212 -0.4504
  823MOL0     C 8570   8.122   2.764   9.031 -0.3653  0.4399 -0.1507
  823MOL0     H 8571   8.372   2.177   8.968 -2.4707  1.1511  2.2734
  823MOL0     H 8572   8.325   1.974   8.836 -2.8320 -1.4335  3.6912
  823MOL0     H 8573   7.986   1.812   8.694  0.0471 -0.6943  0.9934
  823MOL0     H 8574   8.089   1.841   8.830 -0.1995  2.3375 -0.1026
  823MOL0     H 8575   8.112   1.625   8.733 -0.4282 -1.4880 -1.6324
  823MOL0     H 8576   8.271   1.706   8.704  0.6260  0.9529 -1.0037
  823MOL0     H 8577   8.210   1.734   8.462 -2.2569  0.7318 -0.5698
  823MOL0     H 8578   8.043   1.687   8.488 -0.3995 -1.4704 -1.9336
  823MOL0     H 8579   8.305   1.541   8.485  0.2517 -1.2499  3.2782
  823MOL0     H 8580   8.181   1.465   8.578  3.6407  0.0446  0.1930
  823MOL0     H 8581   8.126   1.539   8.281  2.1450 -2.1672 -1.5338
  823MOL0     H 8582   8.023   1.439   8.380 -0.3663 -0.1141 -0.6381
  823MOL0     H 8583   8.155   1.299   8.223  2.8851  2.3091 -0.8106
  823MOL0     H 8584   8.164   1.267   8.403  2.9631 -0.7527  0.6156
  823MOL0     H 8585   8.383   1.332   8.412 -0.6385 -0.6132  0.7094
  823MOL0     H 8586   8.373   1.228   8.278  5.9819  1.5758  1.3211
  823MOL0     H 8587   8.328   1.477   8.157 -1.9977 -2.7281 -1.0743
  823MOL0     H 8588   8.457   1.375   8.143 -2.1495 -0.7057 -0.9996
  823MOL0     H 8589   8.592   1.437   8.443 -1.2548 -1.1058  0.1833
  823MOL0     H 8590   8.767   1.596   8.549  1.5761  1.8053  2.0258
  823MOL0     H 8591   8.740   1.767   8.532 -3.9157  0.4790 -1.6651
  823MOL0     H 8592   8.890   1.720   8.306 -0.8490  2.0486  1.9227
  823MOL0     H 8593   8.916   1.556   8.374  0.6871 -0.0692 -1.4788
  823MOL0     H 8594   9.016   1.672   8.579  0.5738 -3.4421 -1.7258
  823MOL0     H 8595   9.106   1.663   8.427  2.5774  2.2021  1.2533
  823MOL0     H 8596   9.152   1.870   8.518 -0.9806 -1.8005  3.0702
  823MOL0     H 8597   8.978   1.911   8.527 -2.0003 -0.5885 -0.7796
  823MOL0     H 8598   9.186   1.899   8.110  0.4218 -0.2437 -0.3418
  823MOL0     H 8599   9.304   2.056   8.018  0.8823 -4.0835  1.4313
  823MOL0     H 8600   9.487   2.260   7.755  0.1672  1.2540  0.5011
  823MOL0     H 8601   9.618   2.413   7.613 -0.9423 -1.0346  0.3498
  823MOL0     H 8602   9.871   2.462   7.654 -1.3615 -0.0858  0.0896
  823MOL0     H 8603   9.955   2.616   7.702 -1.7279  1.4958  0.7619
  823MOL0     H 8604   9.853   2.526   7.447 -1.2954 -2.7557  3.4879
  823MOL0     H 8605  10.011   2.571   7.487 -1.2842 -5.2274  1.1765
  823MOL0     H 8606   9.956   2.802   7.526 -0.1048  1.2543 -1.7806
  823MOL0     H 8607   9.782   2.780   7.483 -0.1722  0.6107  1.9434
  823MOL0     H 8608   9.997   2.712   7.273 -0.3136  0.6773  2.5313
  823MOL0     H 8609   9.824   2.692   7.265 -0.1661 -0.0630 -0.5817
  823MOL0     H 8610   9.959   2.897   7.169  1.2729 -0.8281  1.0822
  823MOL0     H 8611   9.949   2.964   7.330  0.1700  1.3037 -0.3006
  823MOL0     H 8612   9.709   2.934   7.330 -1.5723 -1.7211 -1.9633
  823MOL0     H 8613   9.722   2.878   7.161  0.1845 -0.9690  0.1972
  823MOL0     H 8614   9.653   3.116   7.167  0.3809  1.1670 -1.8455
  823MOL0     H 8615   9.766   3.149   7.294 -3.8023  1.4090  0.0747
  823MOL0     H 8616   9.940   3.124   7.133 -2.0742 -1.8102  3.8965
  823MOL0     H 8617   9.817   3.254   7.086  2.3873  0.3723  0.3103
  823MOL0     H 8618   9.685   2.670   7.964 -2.2341 -1.0401  1.1157
  823MOL0     H 8619   9.574   2.518   8.089 -0.4225  2.7108 -1.5617
  823MOL0     H 8620   9.256   2.302   8.367  0.7179  0.6395 -0.1775
  823MOL0     H 8621   9.118   2.139   8.468  0.1979 -0.3004  0.3001
  823MOL0     H 8622   8.012   2.186   8.645  0.3787  3.1253 -0.0525
  823MOL0     H 8623   8.026   2.371   8.774 -1.1404 -1.9102  0.4522
  823MOL0     H 8624   8.363   2.536   9.132 -1.8954 -1.3143 -1.5870
  823MOL0     H 8625   8.423   2.720   9.285 -1.0155  1.5527  1.5521
  823MOL0     H 8626   8.335   2.989   9.502 -2.4172  1.3838 -0.0201
  823MOL0     H 8627   8.382   2.825   9.466  1.4318  3.0000  0.2148
  823MOL0     H 8628   8.095   2.935   9.538  1.9924  1.7982  2.2334
  823MOL0     H 8629   8.126   2.780   9.451 -0.9207  0.5823 -0.8565
  823MOL0     H 8630   8.285   2.717   9.654 -0.8998  0.2907 -0.7804
  823MOL0     H 8631   8.106   2.728   9.691 -1.4341  1.9167  2.6349
  823MOL0     H 8632   8.206   2.823   9.870 -1.7320 -0.6140 -0.8239
  823MOL0     H 8633   8.320   2.919   9.789 -0.5777  0.2077 -0.6821
  823MOL0     H 8634   7.931   3.103   9.799  1.0076  0.4078 -1.4052
  823MOL0     H 8635   8.100   2.946   9.148  0.1602 -0.2448  0.8793
  823MOL0     H 8636   8.050   2.778   8.952 -1.2815  0.4968  0.6827
  824MOL0     O 8637   5.275   3.417   8.927  0.0587 -0.3466 -0.3497
  824MOL0     C 8638   5.248   3.455   8.813 -0.9190  0.2718 -0.7475
  824MOL0     O 8639   5.194   3.580   8.782  0.2295 -0.1105 -0.2019
  824MOL0     C 8640   5.170   3.682   8.875 -0.3518  0.4997 -0.4959
  824MOL0     C 8641   5.204   3.807   8.836  0.6409 -0.6925 -0.5450
  824MOL0     C 8642   5.188   3.922   8.919  0.5228 -0.4019  0.4120
  824MOL0     C 8643   5.130   3.907   9.045 -0.1075  0.4538  0.2710
  824MOL0     O 8644   5.092   4.019   9.119  0.0808 -0.2157 -0.3616
  824MOL0     C 8645   5.119   4.021   9.262  0.4127 -0.6969 -1.4188
  824MOL0     C 8646   5.004   4.063   9.349  1.0385 -1.1494 -0.0286
  824MOL0     C 8647   4.967   4.204   9.310 -0.4326  0.0975  0.0993
  824MOL0     C 8648   4.860   4.254   9.412 -0.2757  0.6578 -0.0422
  824MOL0     C 8649   4.832   4.400   9.415  0.4859 -0.8932  0.2764
  824MOL0     C 8650   4.962   4.471   9.474  0.8712  0.3729  0.1894
  824MOL0     C 8651   4.925   4.611   9.492 -0.0939 -0.8756  0.0604
  824MOL0     C 8652   5.044   4.696   9.554  0.3775 -0.0450 -0.8109
  824MOL0     N 8653   5.159   4.713   9.461  0.4629 -0.3347 -0.4268
  824MOL0     C 8654   5.275   4.632   9.454  0.2726 -0.0679  0.4793
  824MOL0     C 8655   5.345   4.680   9.352  0.9599 -0.5419 -0.3278
  824MOL0     C 8656   5.472   4.629   9.288  0.1677  1.3678  0.0829
  824MOL0     C 8657   5.559   4.578   9.405 -1.1040  0.0654  0.2703
  824MOL0     C 8658   5.673   4.477   9.374 -0.3601  0.0627  0.5527
  824MOL0     C 8659   5.646   4.372   9.266  0.5201  0.3649 -0.3458
  824MOL0     O 8660   5.521   4.292   9.258  0.0488 -0.5355 -0.4629
  824MOL0     C 8661   5.471   4.262   9.382  0.5974  0.6215  0.2994
  824MOL0     C 8662   5.341   4.297   9.399 -0.1520  0.2068 -0.2569
  824MOL0     C 8663   5.275   4.273   9.522  0.0735 -0.7472  0.5630
  824MOL0     C 8664   5.347   4.221   9.634  0.7956 -0.9374  0.5833
  824MOL0     C 8665   5.282   4.251   9.772 -0.1302  0.0565  1.2041
  824MOL0     O 8666   5.156   4.287   9.779  0.2153 -0.0967  0.3489
  824MOL0     C 8667   5.096   4.245   9.894  0.3286 -0.1186  0.1563
  824MOL0     C 8668   5.019   4.335   9.975 -0.1191 -0.0838 -0.3232
  824MOL0     C 8669   4.971   4.295  10.096 -0.0444  0.8787 -0.1690
  824MOL0     C 8670   4.984   4.160  10.136 -0.2454 -1.4132 -0.1074
  824MOL0     O 8671   4.931   4.129  10.258  0.1725  1.0139  0.5831
  824MOL0     C 8672   4.810   4.049  10.246  0.0854 -0.0123 -0.6712
  824MOL0     C 8673   4.781   4.004  10.385 -0.5997  0.1363  0.6385
  824MOL0     C 8674   4.730   4.106  10.482  0.3869 -0.3520  0.6596
  824MOL0     C 8675   4.843   4.183  10.551  0.0456  0.4787 -1.3043
  824MOL0     C 8676   4.780   4.291  10.644 -0.2224 -0.1934 -0.4760
  824MOL0     C 8677   4.693   4.221  10.756  0.1706  0.3490  0.1921
  824MOL0     C 8678   4.680   4.336  10.854  0.3757  0.0134 -0.5102
  824MOL0     C 8679   4.618   4.280  10.986 -0.3765  0.2160 -0.3325
  824MOL0    Cl 8680   4.649   4.394  11.111 -0.3113  0.5303 -0.3549
  824MOL0     C 8681   5.038   4.063  10.049 -0.3120 -1.2341 -0.7194
  824MOL0     C 8682   5.100   4.109   9.931 -0.5548 -0.1084 -0.5167
  824MOL0     O 8683   5.364   4.241   9.866  0.5185 -0.0900  0.1966
  824MOL0     C 8684   5.478   4.172   9.611 -0.6458  0.0230  0.2502
  824MOL0     C 8685   5.539   4.190   9.484 -0.2056  0.1055 -0.2242
  824MOL0     N 8686   5.274   4.794   9.305  0.2846  0.9183 -0.2425
  824MOL0     N 8687   5.171   4.820   9.378  0.4355 -0.8002  0.8736
  824MOL0     C 8688   5.102   3.780   9.092  0.4594 -0.5800  0.6046
  824MOL0     C 8689   5.119   3.674   9.012 -0.3433  0.9785 -0.1620
  824MOL0     C 8690   5.258   3.359   8.715  0.1584  0.0838  0.5580
  824MOL0     C 8691   5.203   3.383   8.584 -0.9238  0.2517 -0.2819
  824MOL0     C 8692   5.191   3.276   8.501 -0.5694  0.5083 -0.0557
  824MOL0     C 8693   5.247   3.156   8.525  0.3082 -0.0396 -0.3913
  824MOL0     O 8694   5.216   3.034   8.452  0.3970  0.3531 -1.1953
  824MOL0     C 8695   5.104   3.039   8.363  0.0887 -0.4366 -1.4427
  824MOL0     C 8696   5.077   2.910   8.294  0.3947 -0.2294 -0.7909
  824MOL0     C 8697   5.213   2.834   8.256 -0.0796 -1.0969 -0.3960
  824MOL0     C 8698   5.314   2.928   8.177  0.5841  0.6411 -0.3258
  824MOL0     C 8699   5.276   2.927   8.040  0.3058  0.0959 -0.3867
  824MOL0     C 8700   5.228   2.938   7.928  1.3739  0.2645  0.3652
  824MOL0     C 8701   5.295   3.133   8.648  0.2965  0.2064 -0.0838
  824MOL0     C 8702   5.304   3.223   8.748  0.2690  0.2153 -0.1976
  824MOL0     H 8703   5.233   3.816   8.731 -1.3527  1.5345 -0.9895
  824MOL0     H 8704   5.213   4.017   8.874  1.9046 -0.9099  0.0399
  824MOL0     H 8705   5.198   4.091   9.291 -2.4873  1.3893  2.3817
  824MOL0     H 8706   5.143   3.921   9.299 -2.2067 -0.9563 -0.1815
  824MOL0     H 8707   5.027   4.073   9.455 -0.7566 -0.2199  0.3194
  824MOL0     H 8708   4.915   4.000   9.336 -2.2396  2.7905  1.1487
  824MOL0     H 8709   4.939   4.188   9.205 -0.6024 -0.2735  0.2028
  824MOL0     H 8710   5.062   4.259   9.314  0.6612 -1.7393  0.5587
  824MOL0     H 8711   4.768   4.204   9.379 -0.0955 -1.7653  2.7200
  824MOL0     H 8712   4.891   4.222   9.512  1.4817 -2.2593 -1.3781
  824MOL0     H 8713   4.742   4.420   9.474 -0.7295  1.7185 -2.2499
  824MOL0     H 8714   4.804   4.435   9.316 -0.6597  1.7499  1.4616
  824MOL0     H 8715   5.043   4.462   9.401  2.1504 -0.8697  1.6999
  824MOL0     H 8716   4.988   4.419   9.567 -0.2235 -1.6607 -0.5719
  824MOL0     H 8717   4.886   4.662   9.403  0.7267  1.7186  1.0945
  824MOL0     H 8718   4.840   4.604   9.561  1.4532 -4.7642  1.8342
  824MOL0     H 8719   5.083   4.644   9.641  0.8098  0.2364 -0.8358
  824MOL0     H 8720   5.008   4.793   9.589  2.0943  1.2514 -2.4147
  824MOL0     H 8721   5.306   4.549   9.517  0.8058  0.4030  0.8481
  824MOL0     H 8722   5.517   4.718   9.243  1.0088 -0.4950 -3.0047
  824MOL0     H 8723   5.450   4.561   9.206 -1.5446 -1.8299  2.9444
  824MOL0     H 8724   5.494   4.532   9.480  0.4973 -1.8775  0.5159
  824MOL0     H 8725   5.610   4.667   9.444  1.8529 -0.6370 -1.6808
  824MOL0     H 8726   5.755   4.539   9.337 -0.0629 -1.1687 -0.9397
  824MOL0     H 8727   5.695   4.433   9.471  0.9260 -1.3581 -0.3474
  824MOL0     H 8728   5.737   4.312   9.277  0.0767  0.0598  2.1231
  824MOL0     H 8729   5.658   4.417   9.167  2.2598 -1.6332 -1.1165
  824MOL0     H 8730   5.288   4.349   9.320 -1.4533  0.0820  0.4903
  824MOL0     H 8731   5.171   4.305   9.523 -0.4192 -1.9005 -2.4165
  824MOL0     H 8732   4.997   4.433   9.934 -0.5703 -0.4136 -0.8867
  824MOL0     H 8733   4.933   4.358  10.176 -0.2141 -1.1758  1.4541
  824MOL0     H 8734   4.817   3.969  10.172  1.0382 -1.4975  0.9276
  824MOL0     H 8735   4.735   4.120  10.211  1.1378  0.8142 -1.2918
  824MOL0     H 8736   4.875   3.956  10.415  2.2296  2.3826 -3.6010
  824MOL0     H 8737   4.700   3.933  10.369 -0.4327  0.5617 -2.8857
  824MOL0     H 8738   4.682   4.042  10.555  0.4028  0.3697  1.3122
  824MOL0     H 8739   4.658   4.175  10.437  0.0323 -0.6148  0.8282
  824MOL0     H 8740   4.890   4.101  10.606 -0.7352 -2.2975 -4.4568
  824MOL0     H 8741   4.924   4.226  10.490  0.5270 -1.1754 -1.8822
  824MOL0     H 8742   4.719   4.355  10.580 -0.1857 -0.7553 -1.0801
  824MOL0     H 8743   4.863   4.347  10.688 -3.5493  3.0609  2.2782
  824MOL0     H 8744   4.743   4.135  10.800  1.9039  0.8808 -0.6378
  824MOL0     H 8745   4.596   4.187  10.721  0.4679  2.4382 -3.0930
  824MOL0     H 8746   4.774   4.386  10.880 -1.8942  2.8014  3.4995
  824MOL0     H 8747   4.601   4.408  10.834 -0.9104 -0.6881  1.6605
  824MOL0     H 8748   4.677   4.189  11.001 -0.4284 -0.1044 -1.9401
  824MOL0     H 8749   4.511   4.262  10.976 -0.3745  0.1763 -0.2775
  824MOL0     H 8750   5.022   3.960  10.078  3.0765 -1.5729  0.3448
  824MOL0     H 8751   5.151   4.030   9.876 -2.6572 -2.8058  1.1424
  824MOL0     H 8752   5.543   4.139   9.691 -1.3578 -4.0488 -0.6540
  824MOL0     H 8753   5.642   4.159   9.471 -1.4726 -3.4088 -4.0781
  824MOL0     H 8754   5.052   3.768   9.188  1.6277  2.4998  1.7440
  824MOL0     H 8755   5.077   3.578   9.042 -2.7417  2.0011  0.0103
  824MOL0     H 8756   5.153   3.477   8.564  1.3913  1.8301  0.8108
  824MOL0     H 8757   5.154   3.306   8.403  0.0051  0.2542 -0.3561
  824MOL0     H 8758   5.121   3.111   8.283  0.4791 -1.2432 -2.1068
  824MOL0     H 8759   5.020   3.070   8.426  0.1083 -1.8641 -0.6540
  824MOL0     H 8760   5.015   2.850   8.361 -0.0232  2.6278  1.6105
  824MOL0     H 8761   5.023   2.917   8.199 -0.9439 -1.2114 -0.1277
  824MOL0     H 8762   5.187   2.744   8.200 -3.0790  0.2187 -1.3193
  824MOL0     H 8763   5.261   2.805   8.350  0.8491 -1.0214 -0.8307
  824MOL0     H 8764   5.321   3.027   8.221  0.0584  0.2301  0.7256
  824MOL0     H 8765   5.414   2.887   8.194  0.1128  0.0033  1.0036
  824MOL0     H 8766   5.188   2.920   7.830 -1.8958 -0.9094  1.7885
  824MOL0     H 8767   5.309   3.026   8.658 -2.6380 -0.0891  2.2356
  824MOL0     H 8768   5.329   3.207   8.853  1.2556 -0.6253 -0.5343
  825MOL0     O 8769   1.493   2.331   1.122  0.3984  0.6610 -0.6586
  825MOL0     C 8770   1.429   2.267   1.043  0.4546  0.4403 -0.0314
  825MOL0     O 8771   1.382   2.307   0.914 -0.0056 -0.9411  0.9568
  825MOL0     C 8772   1.403   2.434   0.869  1.6590 -0.7347 -0.3071
  825MOL0     C 8773   1.521   2.479   0.833  0.2521  0.4621  0.2616
  825MOL0     C 8774   1.537   2.610   0.797  0.2714  0.0310  0.7970
  825MOL0     C 8775   1.428   2.702   0.804  0.3827 -0.3485 -0.3472
  825MOL0     O 8776   1.441   2.829   0.759  0.2955  0.0338 -0.2006
  825MOL0     C 8777   1.352   2.873   0.663 -0.0114 -0.0151 -0.7776
  825MOL0     C 8778   1.394   3.010   0.596 -0.6732  0.4602 -0.5574
  825MOL0     C 8779   1.349   3.131   0.676 -0.4245 -0.2661  0.6712
  825MOL0     C 8780   1.331   3.259   0.585 -0.6104 -0.2015 -1.0921
  825MOL0     C 8781   1.455   3.301   0.521 -0.4484  0.3110 -0.5494
  825MOL0     C 8782   1.435   3.424   0.427 -0.4528  0.7267 -0.3854
  825MOL0     C 8783   1.443   3.565   0.485 -0.0731 -1.2096 -0.5333
  825MOL0     C 8784   1.320   3.631   0.547  0.9932 -0.1607 -0.3706
  825MOL0     N 8785   1.233   3.700   0.446  0.2500  0.8954 -0.1221
  825MOL0     C 8786   1.231   3.833   0.410 -0.1410  0.6534 -0.4082
  825MOL0     C 8787   1.106   3.855   0.373  0.2327  0.4921 -1.1002
  825MOL0     C 8788   1.035   3.987   0.327 -0.6644  0.4545  0.0916
  825MOL0     C 8789   1.051   4.100   0.428  0.4943 -0.4832  0.4547
  825MOL0     C 8790   0.970   4.226   0.393 -0.0728  0.2804  0.1787
  825MOL0     C 8791   1.059   4.339   0.325  0.3402  0.3335 -0.1372
  825MOL0     O 8792   1.080   4.312   0.188 -0.5795 -0.4619  0.2498
  825MOL0     C 8793   0.994   4.333   0.083 -0.1817  0.5876  0.3188
  825MOL0     C 8794   1.031   4.302  -0.051  0.7169 -0.4625 -0.0173
  825MOL0     C 8795   0.943   4.325  -0.150 -0.3699 -0.6802 -0.4137
  825MOL0     C 8796   0.820   4.390  -0.133  0.7529 -0.1745 -0.4302
  825MOL0     C 8797   0.740   4.430  -0.245 -0.3982  0.1860 -0.4606
  825MOL0     O 8798   0.712   4.323  -0.324 -0.4958  0.1668 -0.0881
  825MOL0     C 8799   0.593   4.318  -0.394  0.9117 -1.3224  0.9211
  825MOL0     C 8800   0.461   4.350  -0.353  0.2046  0.0039 -0.0058
  825MOL0     C 8801   0.350   4.353  -0.443  0.2732 -0.3767  0.1421
  825MOL0     C 8802   0.373   4.325  -0.582 -1.4878 -0.5178 -0.2981
  825MOL0     O 8803   0.272   4.338  -0.671  1.0737  0.9745  0.4726
  825MOL0     C 8804   0.201   4.219  -0.677  0.5330 -1.0000 -0.3337
  825MOL0     C 8805   0.065   4.246  -0.740  0.1975 -0.0892  1.5623
  825MOL0     C 8806  -0.018   4.127  -0.708  1.0883  0.2049  0.4653
  825MOL0     C 8807  -0.169   4.151  -0.738  0.3996 -0.5172  0.7503
  825MOL0     C 8808  -0.197   4.182  -0.890 -0.2061  0.3096  0.2180
  825MOL0     C 8809  -0.149   4.077  -0.999 -0.1161  0.5430  0.3088
  825MOL0     C 8810  -0.247   3.957  -1.024 -0.1110  0.4046 -0.7819
  825MOL0     C 8811  -0.187   3.817  -1.022  0.1020 -0.9504  0.3438
  825MOL0    Cl 8812  -0.325   3.711  -1.070  0.5746 -0.1281  0.2705
  825MOL0     C 8813   0.512   4.308  -0.622  0.7999 -0.1717  0.7442
  825MOL0     C 8814   0.615   4.295  -0.530 -1.0624 -0.7603  0.5500
  825MOL0     O 8815   0.693   4.538  -0.252 -0.1522  0.0534 -0.2603
  825MOL0     C 8816   0.779   4.414  -0.003  0.3988 -0.8991  0.3732
  825MOL0     C 8817   0.867   4.385   0.106 -0.6641  0.0112  0.2008
  825MOL0     N 8818   1.037   3.738   0.371  0.4999  0.3625  0.0018
  825MOL0     N 8819   1.116   3.645   0.407 -0.2807 -0.0333  0.7305
  825MOL0     C 8820   1.311   2.662   0.862  0.1550 -0.4177  1.8707
  825MOL0     C 8821   1.297   2.526   0.877 -0.4420 -0.0281  0.0699
  825MOL0     C 8822   1.389   2.130   1.095  0.4676  0.6096 -0.5970
  825MOL0     C 8823   1.288   2.054   1.025  0.1724  0.0733  0.0573
  825MOL0     C 8824   1.242   1.934   1.082 -0.1242 -0.0371  0.0023
  825MOL0     C 8825   1.307   1.878   1.194 -0.7075  0.0102  0.0949
  825MOL0     O 8826   1.260   1.757   1.242 -0.0566  0.0600 -0.2732
  825MOL0     C 8827   1.317   1.730   1.380  0.5972  0.4769  0.1979
  825MOL0     C 8828   1.217   1.641   1.460 -0.3190 -0.3710  0.3149
  825MOL0     C 8829   1.075   1.691   1.436  0.2562  0.1460 -0.4210
  825MOL0     C 8830   0.986   1.610   1.532 -0.5588  0.6171 -0.1804
  825MOL0     C 8831   0.837   1.632   1.523 -0.6091  0.5417 -0.4629
  825MOL0     C 8832   0.723   1.641   1.512 -0.8657 -0.6131  0.7639
  825MOL0     C 8833   1.424   1.959   1.244 -0.1507  0.5788  0.1356
  825MOL0     C 8834   1.458   2.081   1.205  0.0815 -0.2960  0.5612
  825MOL0     H 8835   1.609   2.415   0.832  1.7536  2.4272  0.9215
  825MOL0     H 8836   1.628   2.653   0.757 -0.9986  2.3842  0.2398
  825MOL0     H 8837   1.255   2.885   0.712  1.2331  0.3745  1.7760
  825MOL0     H 8838   1.332   2.797   0.587 -4.2286  0.5036 -0.4166
  825MOL0     H 8839   1.348   3.016   0.497  2.5509 -2.5784 -2.4737
  825MOL0     H 8840   1.501   3.026   0.582 -0.4576  0.7316  1.1783
  825MOL0     H 8841   1.423   3.145   0.756  0.7306 -0.7149 -0.2943
  825MOL0     H 8842   1.250   3.113   0.718 -0.1717 -5.7969 -0.2998
  825MOL0     H 8843   1.259   3.255   0.503  1.5947  2.1930 -3.3445
  825MOL0     H 8844   1.303   3.340   0.653 -0.1263 -0.0962 -1.0118
  825MOL0     H 8845   1.489   3.217   0.461  2.0259 -0.0595  1.1995
  825MOL0     H 8846   1.544   3.310   0.585 -1.2858 -1.1837  0.8818
  825MOL0     H 8847   1.335   3.417   0.383 -0.9593 -2.5195  1.0038
  825MOL0     H 8848   1.505   3.420   0.343  1.8508  0.1844  1.4350
  825MOL0     H 8849   1.522   3.560   0.561  0.0329 -1.5290 -0.6630
  825MOL0     H 8850   1.483   3.618   0.398  1.1795  1.4228  1.4997
  825MOL0     H 8851   1.352   3.696   0.629  0.8262  0.2540 -0.6287
  825MOL0     H 8852   1.271   3.550   0.602 -0.3612  0.3092 -0.8383
  825MOL0     H 8853   1.299   3.916   0.427  1.3287 -0.1367 -2.1100
  825MOL0     H 8854   0.936   3.953   0.298  0.3867 -1.7621 -1.1140
  825MOL0     H 8855   1.082   4.014   0.232 -4.3213  0.4057 -1.8695
  825MOL0     H 8856   1.157   4.121   0.443  0.7399  0.0100 -1.6471
  825MOL0     H 8857   1.001   4.066   0.519 -1.0302  3.1547  1.1411
  825MOL0     H 8858   0.890   4.194   0.325  2.2146  0.7593 -2.9451
  825MOL0     H 8859   0.933   4.269   0.487  1.8442 -1.5788  1.8717
  825MOL0     H 8860   1.160   4.338   0.368  0.1940  1.1419  0.2411
  825MOL0     H 8861   1.028   4.441   0.346 -2.4989  0.1556 -2.8010
  825MOL0     H 8862   1.124   4.250  -0.074  1.2222  0.9066 -1.1841
  825MOL0     H 8863   0.976   4.300  -0.251 -0.0986  0.9886 -0.7732
  825MOL0     H 8864   0.437   4.398  -0.259  1.8625  2.8274 -0.9258
  825MOL0     H 8865   0.251   4.384  -0.411 -1.4232 -4.9162 -0.0622
  825MOL0     H 8866   0.186   4.189  -0.573 -0.5221  0.1418 -0.1177
  825MOL0     H 8867   0.253   4.148  -0.741 -2.7328 -3.3446 -0.6377
  825MOL0     H 8868   0.075   4.265  -0.847 -0.3073 -1.6630  1.2120
  825MOL0     H 8869   0.031   4.334  -0.686  0.9652  0.9394  0.4110
  825MOL0     H 8870  -0.001   4.100  -0.604  2.1468 -0.1910  0.1933
  825MOL0     H 8871   0.013   4.041  -0.767 -0.7025  0.4196 -0.8995
  825MOL0     H 8872  -0.229   4.065  -0.707 -1.1418  0.9182  1.8798
  825MOL0     H 8873  -0.199   4.232  -0.671  1.5862  0.2413  0.4006
  825MOL0     H 8874  -0.143   4.275  -0.908 -0.3968  0.3145 -0.3401
  825MOL0     H 8875  -0.303   4.206  -0.903 -0.2787  0.1383  0.4876
  825MOL0     H 8876  -0.044   4.051  -0.981 -0.5860  0.1420  2.8346
  825MOL0     H 8877  -0.149   4.126  -1.097 -0.1128  0.0642  0.0626
  825MOL0     H 8878  -0.322   3.972  -0.945 -3.8065 -0.5080 -3.8318
  825MOL0     H 8879  -0.289   3.966  -1.124 -0.5115 -0.8386 -0.7486
  825MOL0     H 8880  -0.156   3.793  -0.920 -0.5146 -0.8753  0.5541
  825MOL0     H 8881  -0.102   3.799  -1.089  2.5981  1.1383  2.7151
  825MOL0     H 8882   0.527   4.283  -0.726 -5.5003  0.0385 -0.6283
  825MOL0     H 8883   0.717   4.273  -0.559 -1.3157  1.2105 -2.2147
  825MOL0     H 8884   0.684   4.467   0.007  0.5068 -0.1629 -1.9672
  825MOL0     H 8885   0.821   4.400   0.203  1.1138  0.9576  0.9521
  825MOL0     H 8886   1.239   2.737   0.894  2.1630  2.2220  0.5662
  825MOL0     H 8887   1.210   2.499   0.937 -2.0875 -1.1215 -2.6118
  825MOL0     H 8888   1.245   2.096   0.935  1.0564  0.3081 -0.2692
  825MOL0     H 8889   1.165   1.878   1.029  0.7276  0.0315 -1.3732
  825MOL0     H 8890   1.311   1.826   1.432 -2.0162  2.3216 -3.0757
  825MOL0     H 8891   1.416   1.683   1.381 -1.3951 -4.3184  2.9796
  825MOL0     H 8892   1.227   1.534   1.444  0.7782 -0.5950  2.2376
  825MOL0     H 8893   1.244   1.657   1.565  2.4696 -0.7172 -0.2696
  825MOL0     H 8894   1.050   1.681   1.331 -0.2506  2.4442 -0.5840
  825MOL0     H 8895   1.056   1.796   1.461 -2.9174 -0.7032  1.3219
  825MOL0     H 8896   0.998   1.503   1.511 -0.0059  0.5100  0.6244
  825MOL0     H 8897   1.012   1.626   1.637 -1.3512  0.6089  0.0184
  825MOL0     H 8898   0.619   1.643   1.485 -0.2149  2.4497 -2.3498
  825MOL0     H 8899   1.491   1.915   1.317 -1.6821 -1.6279  0.3047
  825MOL0     H 8900   1.541   2.131   1.253 -1.2881  0.5950  2.1185
  826MOL0     O 8901   7.936   9.452   0.557 -0.0218 -0.0869 -0.3228
  826MOL0     C 8902   7.994   9.534   0.494 -0.4861  0.8924  0.4779
  826MOL0     O 8903   7.992   9.542   0.356 -0.2867  0.4140 -0.3781
  826MOL0     C 8904   7.932   9.438   0.281  0.8540  0.2585  0.0738
  826MOL0     C 8905   7.816   9.361   0.313  0.6952  0.5074 -0.8483
  826MOL0     C 8906   7.770   9.257   0.225  0.4568 -0.3674 -0.1403
  826MOL0     C 8907   7.830   9.232   0.104 -0.6155 -0.5201  1.1034
  826MOL0     O 8908   7.797   9.136   0.009  0.1405  0.7774  0.2694
  826MOL0     C 8909   7.656   9.106   0.008  0.0818 -0.0482  0.8001
  826MOL0     C 8910   7.639   8.988  -0.092  0.3889  0.0878  0.1900
  826MOL0     C 8911   7.737   8.862  -0.072  0.5849 -0.0572 -0.3395
  826MOL0     C 8912   7.726   8.769  -0.192 -0.6438 -0.7022  0.5791
  826MOL0     C 8913   7.649   8.636  -0.172  0.3084 -0.1538 -0.6362
  826MOL0     C 8914   7.605   8.579  -0.303  0.1900 -0.2357  0.6262
  826MOL0     C 8915   7.513   8.462  -0.309  0.4150 -0.1383 -0.0781
  826MOL0     C 8916   7.506   8.393  -0.439 -0.7838 -0.9299 -0.0840
  826MOL0     N 8917   7.628   8.323  -0.483  0.2604  0.7494  0.1681
  826MOL0     C 8918   7.660   8.197  -0.448  0.1091 -0.7685  0.5119
  826MOL0     C 8919   7.759   8.174  -0.532  0.5325  0.0405 -0.0472
  826MOL0     C 8920   7.822   8.038  -0.545 -0.0623 -0.5828  0.3075
  826MOL0     C 8921   7.906   8.025  -0.423 -0.0793  0.6476 -0.4894
  826MOL0     C 8922   8.024   8.133  -0.402  0.8514 -0.4721 -0.1661
  826MOL0     C 8923   8.124   8.130  -0.524 -0.2389  0.2049 -0.4647
  826MOL0     O 8924   8.148   7.993  -0.569  0.0801  0.7838 -0.0536
  826MOL0     C 8925   8.245   7.978  -0.669 -1.1978  0.1657 -0.3392
  826MOL0     C 8926   8.280   8.092  -0.738  0.3004 -0.2018 -0.7872
  826MOL0     C 8927   8.361   8.084  -0.846 -0.7730 -0.3528  1.3110
  826MOL0     C 8928   8.409   7.959  -0.896 -0.9813  0.3695 -0.2809
  826MOL0     C 8929   8.502   7.949  -1.006  0.3418 -0.4247  0.4442
  826MOL0     O 8930   8.572   8.064  -1.056  0.0833  0.1684 -0.6695
  826MOL0     C 8931   8.626   8.072  -1.183 -0.7028 -0.3981 -0.4170
  826MOL0     C 8932   8.729   8.173  -1.199  0.0646  0.4827  0.1419
  826MOL0     C 8933   8.763   8.203  -1.333 -0.6463  0.0331  0.1242
  826MOL0     C 8934   8.708   8.143  -1.444  0.2178  0.2500  1.1364
  826MOL0     O 8935   8.765   8.167  -1.566 -0.1035 -0.3045  0.7782
  826MOL0     C 8936   8.769   8.303  -1.618  1.0674 -0.1882  0.1819
  826MOL0     C 8937   8.654   8.314  -1.722  0.0940  0.1461  0.3302
  826MOL0     C 8938   8.650   8.185  -1.814 -0.8145 -0.3011  0.0641
  826MOL0     C 8939   8.652   8.230  -1.954 -0.1179  0.8168 -0.4466
  826MOL0     C 8940   8.533   8.313  -1.998  0.8460  0.5833 -0.2261
  826MOL0     C 8941   8.537   8.345  -2.148  0.6185 -0.2553  0.3755
  826MOL0     C 8942   8.487   8.227  -2.228 -0.1801  0.7552  0.6044
  826MOL0     C 8943   8.519   8.237  -2.380  0.2470 -0.8144  0.5534
  826MOL0    Cl 8944   8.692   8.215  -2.405  0.4910 -0.3365 -0.2043
  826MOL0     C 8945   8.593   8.058  -1.421  0.0404 -0.9254 -0.5058
  826MOL0     C 8946   8.548   8.025  -1.292 -0.0914 -0.0593  0.4909
  826MOL0     O 8947   8.512   7.836  -1.053  0.3051 -0.4774 -0.2495
  826MOL0     C 8948   8.377   7.848  -0.821  0.1150  0.5454 -0.3464
  826MOL0     C 8949   8.293   7.860  -0.711  0.3459 -0.6115  0.6286
  826MOL0     N 8950   7.799   8.279  -0.611  0.0263 -0.2175 -0.2907
  826MOL0     N 8951   7.716   8.372  -0.582  0.9265 -0.0899  0.7212
  826MOL0     C 8952   7.935   9.317   0.066 -0.3434  0.2556 -0.7354
  826MOL0     C 8953   7.989   9.416   0.151  0.2334 -0.0872  0.0724
  826MOL0     C 8954   8.068   9.632   0.569 -0.2871 -0.4969  0.6871
  826MOL0     C 8955   8.090   9.618   0.711 -0.7693  0.1502 -0.5073
  826MOL0     C 8956   8.178   9.705   0.788  0.0409  1.4093  0.9082
  826MOL0     C 8957   8.253   9.802   0.727  0.6312  1.3368  0.9710
  826MOL0     O 8958   8.355   9.875   0.772  0.5575 -0.9564  0.4203
  826MOL0     C 8959   8.397   9.846   0.907  1.0394  0.2278 -0.4375
  826MOL0     C 8960   8.444   9.981   0.977  0.5848 -0.4509 -0.5049
  826MOL0     C 8961   8.515   9.971   1.114  0.1404 -0.5908 -0.0217
  826MOL0     C 8962   8.558  10.112   1.170  0.9907  0.5069 -0.3709
  826MOL0     C 8963   8.444  10.170   1.231 -0.3893  0.9754 -0.5250
  826MOL0     C 8964   8.343  10.222   1.266  0.5547  0.1701 -0.5705
  826MOL0     C 8965   8.228   9.815   0.591  1.2394 -0.3273 -0.2182
  826MOL0     C 8966   8.136   9.733   0.516 -0.5689 -0.6905  0.1727
  826MOL0     H 8967   7.761   9.394   0.400 -1.7760  0.2629 -2.2276
  826MOL0     H 8968   7.687   9.196   0.260  0.6265  1.0226  2.9980
  826MOL0     H 8969   7.602   9.189  -0.037 -1.3013 -1.8513 -1.0349
  826MOL0     H 8970   7.614   9.066   0.101 -1.1389 -0.3997  0.1181
  826MOL0     H 8971   7.653   9.028  -0.193  0.9754  1.4070  0.7684
  826MOL0     H 8972   7.536   8.952  -0.086  1.2345 -2.3423  1.4974
  826MOL0     H 8973   7.710   8.810   0.020 -2.9771 -1.1178 -1.7939
  826MOL0     H 8974   7.844   8.887  -0.069  0.9747 -1.4139  4.5469
  826MOL0     H 8975   7.688   8.824  -0.279 -1.0604 -1.9532 -0.0640
  826MOL0     H 8976   7.824   8.725  -0.213 -0.8794  0.1994 -3.1807
  826MOL0     H 8977   7.562   8.642  -0.105  1.0349 -0.2140  0.3429
  826MOL0     H 8978   7.717   8.570  -0.116  1.9609  0.7288 -1.5215
  826MOL0     H 8979   7.697   8.571  -0.362 -0.0635  1.2802 -0.0328
  826MOL0     H 8980   7.553   8.660  -0.355  0.2626 -1.2452 -1.0876
  826MOL0     H 8981   7.550   8.386  -0.239  0.1431 -1.0087 -0.8628
  826MOL0     H 8982   7.418   8.499  -0.269  2.2307  3.1531  1.5253
  826MOL0     H 8983   7.487   8.464  -0.520  3.6116 -1.7623 -2.1909
  826MOL0     H 8984   7.431   8.313  -0.437 -0.5153 -1.2294 -1.2406
  826MOL0     H 8985   7.606   8.134  -0.378 -0.3169  2.2152  3.0628
  826MOL0     H 8986   7.880   8.043  -0.637 -2.1779 -0.3835 -1.0755
  826MOL0     H 8987   7.755   7.952  -0.539  1.7900 -2.3125 -1.8592
  826MOL0     H 8988   7.953   7.926  -0.421  2.0122  1.5928  1.0894
  826MOL0     H 8989   7.846   8.016  -0.332 -0.7045  4.0635 -0.4441
  826MOL0     H 8990   7.969   8.227  -0.396  0.7651 -0.4774 -0.7842
  826MOL0     H 8991   8.081   8.119  -0.310 -0.2298  3.8273  1.3684
  826MOL0     H 8992   8.218   8.173  -0.489 -1.8623 -0.2376  5.5629
  826MOL0     H 8993   8.091   8.200  -0.601  1.3670  2.4140  0.7624
  826MOL0     H 8994   8.264   8.192  -0.699  3.2057 -0.1026  0.4496
  826MOL0     H 8995   8.390   8.171  -0.904 -2.5364 -0.0722  0.7969
  826MOL0     H 8996   8.793   8.223  -1.127  1.5131 -0.3022 -0.5611
  826MOL0     H 8997   8.839   8.281  -1.336 -1.8868  1.4370  2.3681
  826MOL0     H 8998   8.863   8.322  -1.670  0.7759  2.5960  0.5327
  826MOL0     H 8999   8.752   8.389  -1.552 -0.9102  1.2945 -2.0940
  826MOL0     H 9000   8.679   8.403  -1.781  1.9941  0.6930  1.8662
  826MOL0     H 9001   8.559   8.337  -1.673  0.8874  2.5653  0.8763
  826MOL0     H 9002   8.563   8.121  -1.798 -0.5257 -1.0845 -1.3997
  826MOL0     H 9003   8.737   8.119  -1.816 -1.6531 -1.4136 -0.6235
  826MOL0     H 9004   8.743   8.287  -1.974  1.3306 -0.5636  1.8360
  826MOL0     H 9005   8.656   8.142  -2.019 -0.1729  0.8430 -0.4862
  826MOL0     H 9006   8.549   8.408  -1.947  1.3848 -0.0617  0.8445
  826MOL0     H 9007   8.444   8.263  -1.959  3.3143 -1.4820  3.4197
  826MOL0     H 9008   8.639   8.373  -2.174  0.2144  0.0184 -1.0134
  826MOL0     H 9009   8.466   8.428  -2.154  2.5517  1.3756 -1.0095
  826MOL0     H 9010   8.514   8.128  -2.189  0.6310 -0.1653 -2.0499
  826MOL0     H 9011   8.378   8.229  -2.228 -0.2040  2.7598 -0.7703
  826MOL0     H 9012   8.509   8.341  -2.414 -1.2222 -0.8231  0.8594
  826MOL0     H 9013   8.448   8.182  -2.442  1.7263  0.7570 -2.7822
  826MOL0     H 9014   8.524   8.026  -1.499  0.9351 -0.9793 -1.3002
  826MOL0     H 9015   8.449   7.982  -1.283 -1.2300  2.5118  1.1636
  826MOL0     H 9016   8.408   7.748  -0.848  0.6384 -0.3229  2.9740
  826MOL0     H 9017   8.254   7.769  -0.667 -1.8963 -0.7823 -1.4824
  826MOL0     H 9018   7.976   9.307  -0.034 -0.3108 -0.7238 -0.6348
  826MOL0     H 9019   8.067   9.478   0.109 -2.2415  1.8775 -1.9762
  826MOL0     H 9020   8.049   9.532   0.763 -0.8479 -0.7361 -1.9917
  826MOL0     H 9021   8.170   9.673   0.892 -3.3668  2.1537  0.9870
  826MOL0     H 9022   8.475   9.770   0.898 -0.3066 -1.4055  1.0371
  826MOL0     H 9023   8.327   9.789   0.969  1.3232  0.2619 -0.0816
  826MOL0     H 9024   8.504  10.034   0.902 -0.5913  0.8017 -0.5913
  826MOL0     H 9025   8.360  10.043   1.008  2.6083  0.5051  3.8237
  826MOL0     H 9026   8.610   9.919   1.093  0.5525  0.8991 -2.2675
  826MOL0     H 9027   8.447   9.912   1.176 -2.6499  0.5003 -1.8714
  826MOL0     H 9028   8.631  10.105   1.251 -2.9077 -0.3980  3.4186
  826MOL0     H 9029   8.620  10.177   1.108  0.9076  0.0721 -0.9152
  826MOL0     H 9030   8.255  10.268   1.305  0.6513 -1.0751  1.2222
  826MOL0     H 9031   8.282   9.892   0.537 -0.5557  1.1223 -0.0128
  826MOL0     H 9032   8.124   9.747   0.409  0.7849 -0.7415 -0.0099
  827MOL0     O 9033   2.568   3.080   7.246 -0.0022  0.0043  0.1964
  827MOL0     C 9034   2.651   3.167   7.272  0.2945 -0.4746 -0.2019
  827MOL0     O 9035   2.648   3.258   7.372  0.1396  0.2911  0.9936
  827MOL0     C 9036   2.528   3.294   7.443  0.3139 -0.4374  0.2339
  827MOL0     C 9037   2.543   3.390   7.544  0.5278  0.0995  0.7451
  827MOL0     C 9038   2.436   3.454   7.610 -0.2556 -0.8906 -0.9779
  827MOL0     C 9039   2.304   3.424   7.580  0.1893  0.2550  1.5329
  827MOL0     O 9040   2.206   3.476   7.657  0.4704  0.2283 -0.5476
  827MOL0     C 9041   2.112   3.381   7.721  0.4156  0.4891 -0.4262
  827MOL0     C 9042   2.184   3.309   7.840 -0.6950  0.9935  0.3319
  827MOL0     C 9043   2.170   3.382   7.973  0.1191  0.7102 -0.1680
  827MOL0     C 9044   2.263   3.508   8.010  0.1518 -0.2955  0.5633
  827MOL0     C 9045   2.186   3.637   8.038 -0.0064 -0.0206  0.4212
  827MOL0     C 9046   2.273   3.739   8.111 -0.3141  0.0896  0.5557
  827MOL0     C 9047   2.209   3.884   8.100 -0.1562 -0.2612  0.5550
  827MOL0     C 9048   2.311   3.972   8.183  0.3272 -0.6168 -0.7222
  827MOL0     N 9049   2.277   4.114   8.163  0.0925 -0.8298 -0.0653
  827MOL0     C 9050   2.282   4.191   8.042  0.5416 -0.2030  1.2804
  827MOL0     C 9051   2.213   4.307   8.082 -0.0011 -0.2488 -0.5880
  827MOL0     C 9052   2.190   4.430   7.999 -0.2614 -0.0583 -0.0855
  827MOL0     C 9053   2.327   4.497   7.963  0.3021 -1.0792 -0.4739
  827MOL0     C 9054   2.360   4.586   8.085 -0.1331 -0.7485  0.1807
  827MOL0     C 9055   2.486   4.677   8.048 -1.3106 -0.1345 -0.7312
  827MOL0     O 9056   2.455   4.792   7.958 -0.1797  0.7932 -0.4801
  827MOL0     C 9057   2.563   4.855   7.901 -0.2629  0.1594  0.6600
  827MOL0     C 9058   2.542   4.954   7.807  0.4895  0.4909  0.7446
  827MOL0     C 9059   2.649   5.018   7.747  0.6394  0.6191 -0.3676
  827MOL0     C 9060   2.780   4.991   7.784 -0.4181 -0.3417 -0.5483
  827MOL0     C 9061   2.889   5.037   7.703  0.1224  0.5807  0.5295
  827MOL0     O 9062   3.005   5.083   7.756  0.1573  0.3590  0.8615
  827MOL0     C 9063   3.112   5.089   7.676 -1.2624  0.0492 -0.0321
  827MOL0     C 9064   3.182   4.980   7.612 -0.6909 -0.6386  0.8849
  827MOL0     C 9065   3.294   5.017   7.533  0.2100  0.7310  0.1413
  827MOL0     C 9066   3.350   5.139   7.517 -0.1200  0.9563  0.6689
  827MOL0     O 9067   3.468   5.140   7.452 -1.2176 -0.4124  0.7836
  827MOL0     C 9068   3.554   5.245   7.493  0.4625  0.4335 -0.0535
  827MOL0     C 9069   3.688   5.231   7.435 -0.8763  0.3002 -0.2502
  827MOL0     C 9070   3.780   5.116   7.490 -0.3366  0.8910 -1.4727
  827MOL0     C 9071   3.919   5.121   7.432 -0.5942  0.9056  0.1206
  827MOL0     C 9072   3.995   5.011   7.503  0.5281  0.1169  0.8526
  827MOL0     C 9073   4.127   4.992   7.435 -0.4861 -0.9574 -0.5545
  827MOL0     C 9074   4.225   4.922   7.527  0.2783 -0.2922 -1.4917
  827MOL0     C 9075   4.344   4.878   7.444 -0.6792 -0.0298 -0.5375
  827MOL0    Cl 9076   4.310   4.764   7.314 -0.0067  0.3418 -0.3615
  827MOL0     C 9077   3.282   5.242   7.590 -0.8549  0.3041  0.9388
  827MOL0     C 9078   3.168   5.221   7.661 -0.4542  0.5186  0.8265
  827MOL0     O 9079   2.876   5.011   7.583 -0.4831 -0.3544 -0.4879
  827MOL0     C 9080   2.810   4.909   7.893  1.1498  0.4292 -0.0034
  827MOL0     C 9081   2.699   4.841   7.959 -0.8504 -0.4364 -0.0834
  827MOL0     N 9082   2.165   4.297   8.212 -0.0859  0.2043  1.1399
  827MOL0     N 9083   2.204   4.183   8.257 -0.0746  0.1520  0.1309
  827MOL0     C 9084   2.293   3.324   7.468 -0.2071  0.8472  0.7101
  827MOL0     C 9085   2.405   3.256   7.403  0.3840  0.9974 -0.3033
  827MOL0     C 9086   2.763   3.194   7.166  0.2914 -0.2844 -0.3760
  827MOL0     C 9087   2.848   3.311   7.184  0.0678 -0.0593  1.2414
  827MOL0     C 9088   2.947   3.331   7.079  0.4930  0.5385  0.1721
  827MOL0     C 9089   2.955   3.250   6.965 -0.4811  0.2289  0.8160
  827MOL0     O 9090   3.033   3.275   6.844 -0.0176 -0.0612 -0.0712
  827MOL0     C 9091   3.139   3.371   6.848  0.6468 -0.9900  0.1350
  827MOL0     C 9092   3.257   3.327   6.941  0.0208  0.1646 -0.0805
  827MOL0     C 9093   3.341   3.448   6.977  0.3085  0.2774 -0.0640
  827MOL0     C 9094   3.445   3.435   7.089 -0.3295 -0.9709 -0.0914
  827MOL0     C 9095   3.518   3.312   7.075  0.6669 -0.5537 -1.0852
  827MOL0     C 9096   3.566   3.202   7.063 -1.2977  0.0829 -0.1959
  827MOL0     C 9097   2.861   3.143   6.952 -0.8511 -0.4160  0.0896
  827MOL0     C 9098   2.775   3.112   7.058  0.4483  0.6013  0.6521
  827MOL0     H 9099   2.647   3.402   7.573  1.9413 -2.9687 -2.2660
  827MOL0     H 9100   2.460   3.527   7.687 -1.6271 -2.7175  1.2939
  827MOL0     H 9101   2.088   3.311   7.641  1.1593 -1.4894  1.0088
  827MOL0     H 9102   2.018   3.423   7.756 -1.2881 -3.1145 -0.2084
  827MOL0     H 9103   2.286   3.283   7.811 -1.9072 -1.2515 -2.4335
  827MOL0     H 9104   2.131   3.214   7.851 -1.2079  1.2515  0.1107
  827MOL0     H 9105   2.182   3.299   8.043 -0.0614 -0.4554 -1.4560
  827MOL0     H 9106   2.064   3.407   7.971 -0.4138 -1.3729  0.0561
  827MOL0     H 9107   2.331   3.471   8.087  0.3665 -0.2578  0.3943
  827MOL0     H 9108   2.324   3.522   7.920  0.3168 -0.3947  0.6612
  827MOL0     H 9109   2.110   3.606   8.111  2.3568  0.6390  3.3879
  827MOL0     H 9110   2.135   3.673   7.949 -0.0375 -0.7829  0.1210
  827MOL0     H 9111   2.375   3.736   8.071  0.0869 -1.3946  1.5927
  827MOL0     H 9112   2.278   3.712   8.217 -0.0710 -3.2638 -0.2024
  827MOL0     H 9113   2.201   3.908   7.994  1.0075  1.6303  0.8404
  827MOL0     H 9114   2.111   3.884   8.150 -0.7228 -1.0504 -0.5269
  827MOL0     H 9115   2.412   3.939   8.156  1.2479 -0.2987  2.0067
  827MOL0     H 9116   2.312   3.954   8.291  3.4665 -0.3685 -0.6069
  827MOL0     H 9117   2.333   4.163   7.951 -1.2358  0.4698  0.0246
  827MOL0     H 9118   2.126   4.492   8.062  3.1985  4.3858 -0.4560
  827MOL0     H 9119   2.149   4.393   7.904 -1.7029 -0.8814  0.8254
  827MOL0     H 9120   2.308   4.559   7.876  0.3821 -0.7863 -0.2828
  827MOL0     H 9121   2.413   4.430   7.952  2.5673  1.6216 -0.2176
  827MOL0     H 9122   2.282   4.661   8.102  1.9139  1.9527 -1.3448
  827MOL0     H 9123   2.381   4.522   8.171  0.9778  0.1551  0.6095
  827MOL0     H 9124   2.575   4.624   8.015 -1.5399 -4.3149  4.0855
  827MOL0     H 9125   2.510   4.723   8.145 -0.9510 -1.6565 -0.0741
  827MOL0     H 9126   2.438   4.972   7.784  0.1950 -1.9249 -0.0942
  827MOL0     H 9127   2.626   5.092   7.671  3.0606  1.9666  0.1081
  827MOL0     H 9128   3.147   4.880   7.637 -1.2304 -1.0441 -1.3141
  827MOL0     H 9129   3.355   4.940   7.488  0.3538  1.3126 -0.6807
  827MOL0     H 9130   3.569   5.256   7.601  2.5372 -0.8820 -0.1581
  827MOL0     H 9131   3.517   5.342   7.458  3.3970  1.3371 -0.9156
  827MOL0     H 9132   3.738   5.325   7.459 -0.0747 -0.0302 -0.5833
  827MOL0     H 9133   3.677   5.220   7.327 -3.2181  1.7731 -0.2221
  827MOL0     H 9134   3.719   5.027   7.470 -3.2919  2.2932  0.5621
  827MOL0     H 9135   3.800   5.122   7.597 -0.6798 -1.4173 -1.2296
  827MOL0     H 9136   3.917   5.094   7.326  0.0205 -1.2826  0.6141
  827MOL0     H 9137   3.975   5.215   7.442  0.3789  0.3195  0.3544
  827MOL0     H 9138   3.936   4.920   7.490 -0.9351  1.2858 -1.2152
  827MOL0     H 9139   4.010   5.036   7.608  2.8424  2.1856  0.1404
  827MOL0     H 9140   4.175   5.079   7.390 -4.6800  0.9097 -1.9199
  827MOL0     H 9141   4.100   4.936   7.345  0.7009  0.0612 -1.5688
  827MOL0     H 9142   4.266   4.985   7.606  0.6235 -2.5367  0.1917
  827MOL0     H 9143   4.188   4.835   7.582  3.7748 -0.0933  1.5764
  827MOL0     H 9144   4.419   4.822   7.502 -1.5357 -1.2816 -0.5968
  827MOL0     H 9145   4.388   4.967   7.398  3.6532 -0.6694  1.8008
  827MOL0     H 9146   3.321   5.342   7.569  1.7458 -1.4500 -4.8619
  827MOL0     H 9147   3.129   5.315   7.698 -1.0908  2.0728 -3.3090
  827MOL0     H 9148   2.913   4.888   7.921  0.8777  1.0384  1.5054
  827MOL0     H 9149   2.730   4.781   8.044 -2.2534  0.6153  1.2126
  827MOL0     H 9150   2.196   3.280   7.447  0.2615 -0.6150  1.4875
  827MOL0     H 9151   2.373   3.190   7.322 -0.7211  0.3188  0.6470
  827MOL0     H 9152   2.837   3.388   7.261 -0.3975  0.5312  0.6016
  827MOL0     H 9153   3.016   3.414   7.077  1.1033  0.0878 -2.7587
  827MOL0     H 9154   3.095   3.465   6.881  0.4421 -1.2598  0.6488
  827MOL0     H 9155   3.172   3.380   6.744 -3.3216 -1.6519 -1.3824
  827MOL0     H 9156   3.214   3.281   7.031 -0.3322  2.3293  0.9144
  827MOL0     H 9157   3.331   3.256   6.903  3.1719  2.8596  0.6286
  827MOL0     H 9158   3.269   3.529   6.988  0.1589  0.2706 -0.9218
  827MOL0     H 9159   3.392   3.477   6.885 -2.1765  0.0459 -1.6044
  827MOL0     H 9160   3.522   3.511   7.078 -3.4249  2.6561  1.2725
  827MOL0     H 9161   3.390   3.438   7.184 -0.5110  1.1290 -0.2249
  827MOL0     H 9162   3.585   3.097   7.058 -0.5813  0.2394 -1.2198
  827MOL0     H 9163   2.873   3.078   6.866  2.2343  0.6482 -0.4075
  827MOL0     H 9164   2.717   3.021   7.055  0.2463  0.7452 -0.0287
  828MOL0     O 9165   7.980   8.046   8.495 -0.3798 -0.4423  0.9779
  828MOL0     C 9166   7.899   8.079   8.579 -0.2025 -0.8927 -0.4143
  828MOL0     O 9167   7.765   8.069   8.571 -0.2999 -0.0468  0.5368
  828MOL0     C 9168   7.690   8.057   8.449  0.5695 -0.4550 -0.0518
  828MOL0     C 9169   7.742   8.074   8.322 -0.7813  0.2604 -0.7067
  828MOL0     C 9170   7.653   8.064   8.202  0.8471 -0.4302 -1.4025
  828MOL0     C 9171   7.508   8.042   8.219 -0.7564 -0.1189 -1.3538
  828MOL0     O 9172   7.409   8.043   8.116 -0.7224 -0.1718 -0.2643
  828MOL0     C 9173   7.341   8.176   8.108 -0.6680  0.4446  0.4923
  828MOL0     C 9174   7.218   8.154   8.024 -0.3226 -0.7705  0.3670
  828MOL0     C 9175   7.142   8.281   7.975 -0.0492  0.1176  0.2627
  828MOL0     C 9176   7.034   8.235   7.886  1.4795  0.9204 -0.3328
  828MOL0     C 9177   6.977   8.356   7.810  0.6717 -0.1961  0.1468
  828MOL0     C 9178   6.853   8.420   7.875  0.1466 -0.6790 -0.4375
  828MOL0     C 9179   6.822   8.544   7.793 -0.6266 -0.4959 -0.4286
  828MOL0     C 9180   6.718   8.649   7.848 -0.1610  0.2439 -0.6565
  828MOL0     N 9181   6.776   8.697   7.971 -0.5391 -0.1298  0.7066
  828MOL0     C 9182   6.871   8.803   7.968 -0.5006 -0.2389 -0.4636
  828MOL0     C 9183   6.905   8.808   8.098 -0.1942 -0.5902 -0.0505
  828MOL0     C 9184   7.019   8.892   8.167 -0.1328  0.2308 -0.3823
  828MOL0     C 9185   7.156   8.816   8.157  0.5241  0.2438 -0.4255
  828MOL0     C 9186   7.166   8.670   8.178  0.0565  0.1423  0.6674
  828MOL0     C 9187   7.167   8.638   8.326  0.9543  0.0288  0.3939
  828MOL0     O 9188   7.292   8.553   8.354 -0.9750 -0.5478 -0.2538
  828MOL0     C 9189   7.313   8.526   8.485  0.5697  0.6465 -0.3868
  828MOL0     C 9190   7.414   8.434   8.516  1.0709  0.9068 -0.1568
  828MOL0     C 9191   7.460   8.407   8.643  0.0820 -0.0672  0.9535
  828MOL0     C 9192   7.384   8.451   8.755  0.0977  0.8378  0.0294
  828MOL0     C 9193   7.419   8.412   8.888 -0.1112 -0.0764 -0.3595
  828MOL0     O 9194   7.511   8.320   8.908 -0.6795 -0.3169 -0.4064
  828MOL0     C 9195   7.564   8.289   9.031  0.8012  1.0532 -0.2831
  828MOL0     C 9196   7.612   8.158   9.028  0.1241 -0.0034  0.9113
  828MOL0     C 9197   7.663   8.104   9.140  0.0621  0.3458 -0.2264
  828MOL0     C 9198   7.669   8.168   9.265 -0.5701 -0.4285  0.1503
  828MOL0     O 9199   7.690   8.110   9.386 -0.4695 -0.1538 -0.2389
  828MOL0     C 9200   7.697   7.966   9.390  0.8674  1.2274 -1.1271
  828MOL0     C 9201   7.720   7.928   9.534  0.0218 -0.3799 -0.0052
  828MOL0     C 9202   7.692   7.785   9.565 -0.3112 -0.4701 -0.7415
  828MOL0     C 9203   7.816   7.690   9.605  0.1836  0.6198 -0.5063
  828MOL0     C 9204   7.756   7.552   9.632 -0.3584  0.5925  0.1554
  828MOL0     C 9205   7.860   7.446   9.680  0.3886 -1.1758 -0.2380
  828MOL0     C 9206   7.789   7.307   9.660 -0.4471 -0.2036 -0.9845
  828MOL0     C 9207   7.852   7.192   9.723 -0.3784  0.3832  0.1424
  828MOL0    Cl 9208   7.744   7.055   9.692 -0.5440 -0.1381  0.0061
  828MOL0     C 9209   7.622   8.306   9.267 -1.4454 -0.1282  0.5766
  828MOL0     C 9210   7.572   8.358   9.152 -0.0177 -1.0038  0.3845
  828MOL0     O 9211   7.361   8.475   8.973 -0.0953 -0.3918 -0.6650
  828MOL0     C 9212   7.278   8.543   8.729 -0.0906  0.4971 -0.3051
  828MOL0     C 9213   7.254   8.593   8.600  0.5207 -1.1690  0.7609
  828MOL0     N 9214   6.839   8.709   8.172 -0.2404  0.8506 -0.3674
  828MOL0     N 9215   6.755   8.656   8.096  0.3786 -0.6965 -0.6925
  828MOL0     C 9216   7.455   8.033   8.359 -0.2676  0.4724  0.5369
  828MOL0     C 9217   7.552   8.034   8.469 -0.5815  0.0410  0.3996
  828MOL0     C 9218   7.954   8.151   8.696  0.0401  0.8719  0.1256
  828MOL0     C 9219   8.094   8.164   8.724  0.5011  0.2692 -0.7154
  828MOL0     C 9220   8.136   8.213   8.853 -0.0179 -0.2070 -0.3070
  828MOL0     C 9221   8.050   8.264   8.954  0.4827 -0.1601 -0.7945
  828MOL0     O 9222   8.106   8.303   9.069 -0.1209  0.6973 -0.1621
  828MOL0     C 9223   8.028   8.401   9.137  0.1754  0.6137 -0.4498
  828MOL0     C 9224   8.079   8.413   9.283 -0.5478 -0.0760  0.4459
  828MOL0     C 9225   8.010   8.530   9.350 -0.3914 -0.8763 -0.5501
  828MOL0     C 9226   8.034   8.525   9.501  0.0792  0.7770  0.9208
  828MOL0     C 9227   7.953   8.414   9.567 -0.6396  0.1029 -0.5463
  828MOL0     C 9228   7.886   8.324   9.604  0.1463  0.4380 -0.6215
  828MOL0     C 9229   7.914   8.247   8.928 -0.3607 -0.4292 -0.2478
  828MOL0     C 9230   7.868   8.191   8.801  0.4632  0.0262  0.0445
  828MOL0     H 9231   7.847   8.099   8.317 -1.4924  5.0197  2.1151
  828MOL0     H 9232   7.692   8.067   8.101  2.7703 -3.3370 -0.8769
  828MOL0     H 9233   7.415   8.244   8.064  0.6419  0.0056  1.9390
  828MOL0     H 9234   7.313   8.207   8.209 -1.0262  3.8140 -0.5218
  828MOL0     H 9235   7.152   8.087   8.080 -0.0484 -1.7436 -0.4339
  828MOL0     H 9236   7.255   8.100   7.936 -0.4811  2.4848 -1.8808
  828MOL0     H 9237   7.204   8.351   7.919 -1.1569  0.8782 -0.0557
  828MOL0     H 9238   7.099   8.335   8.060 -4.2183 -0.2390 -1.3813
  828MOL0     H 9239   7.057   8.172   7.799 -3.9046  2.9289 -3.7406
  828MOL0     H 9240   6.961   8.196   7.958  2.9941  1.5783  1.6532
  828MOL0     H 9241   6.956   8.337   7.704  0.8073  0.4281  0.0024
  828MOL0     H 9242   7.052   8.436   7.803  2.0669 -1.5438 -1.1020
  828MOL0     H 9243   6.878   8.436   7.980  1.0086 -2.2671 -0.3640
  828MOL0     H 9244   6.773   8.346   7.869 -0.4283  0.0083 -1.7781
  828MOL0     H 9245   6.919   8.594   7.786  0.0686 -2.0126 -2.8861
  828MOL0     H 9246   6.780   8.514   7.696  1.2864 -2.7746 -0.6270
  828MOL0     H 9247   6.616   8.616   7.869 -0.1936  1.1907  0.7583
  828MOL0     H 9248   6.709   8.734   7.779  1.0736  0.1232 -1.0019
  828MOL0     H 9249   6.904   8.865   7.886 -0.8235  1.4115  0.6182
  828MOL0     H 9250   6.992   8.913   8.271  0.6997 -2.8220  0.5432
  828MOL0     H 9251   7.042   8.986   8.115  0.3147  2.2739  3.2085
  828MOL0     H 9252   7.225   8.862   8.228 -0.8378 -0.4558  1.4388
  828MOL0     H 9253   7.208   8.821   8.061 -0.7961  1.1192 -1.1330
  828MOL0     H 9254   7.089   8.601   8.142  2.0534 -2.3800  0.9763
  828MOL0     H 9255   7.264   8.648   8.135  0.5026  2.7188  0.2133
  828MOL0     H 9256   7.079   8.582   8.357  2.3968 -1.0391  2.8436
  828MOL0     H 9257   7.173   8.732   8.381 -1.2955  0.2498  0.3359
  828MOL0     H 9258   7.454   8.381   8.430 -3.1880  2.8127 -3.6876
  828MOL0     H 9259   7.550   8.348   8.657  0.8917  0.7316 -0.5719
  828MOL0     H 9260   7.595   8.092   8.943 -0.5178  1.6242 -0.2888
  828MOL0     H 9261   7.692   8.000   9.135  2.1100  0.8032  0.8749
  828MOL0     H 9262   7.784   7.932   9.332  0.8630 -1.0140  0.0748
  828MOL0     H 9263   7.600   7.936   9.351 -0.1654  3.6450 -0.6402
  828MOL0     H 9264   7.662   7.996   9.597 -0.1323  0.4205 -0.9820
  828MOL0     H 9265   7.823   7.959   9.555  0.3981 -1.7598  0.2847
  828MOL0     H 9266   7.646   7.746   9.474  0.3222 -0.1105 -1.2218
  828MOL0     H 9267   7.625   7.798   9.651  3.6328  0.7885  2.5084
  828MOL0     H 9268   7.880   7.676   9.517  0.2400 -1.7656 -0.1436
  828MOL0     H 9269   7.881   7.720   9.688 -0.0192  0.4129 -0.2724
  828MOL0     H 9270   7.705   7.513   9.543 -0.0741 -2.1935  1.1356
  828MOL0     H 9271   7.697   7.561   9.723 -0.0811 -1.9849  0.6659
  828MOL0     H 9272   7.890   7.462   9.784  4.8349  2.5443 -1.7571
  828MOL0     H 9273   7.952   7.437   9.622  0.7079 -1.2725  0.2840
  828MOL0     H 9274   7.689   7.309   9.706 -0.1212  0.4608 -0.2884
  828MOL0     H 9275   7.778   7.285   9.554 -1.5858  0.6018 -1.0529
  828MOL0     H 9276   7.863   7.207   9.831 -2.3339  2.9808  0.0842
  828MOL0     H 9277   7.952   7.183   9.678 -0.7262  1.5230 -0.9151
  828MOL0     H 9278   7.622   8.381   9.345 -0.6904  0.2228  0.2560
  828MOL0     H 9279   7.538   8.460   9.134  2.3414  0.0970  1.6807
  828MOL0     H 9280   7.214   8.581   8.807  0.3439  3.5559 -1.3041
  828MOL0     H 9281   7.190   8.679   8.589  3.2935  0.9299  0.0278
  828MOL0     H 9282   7.352   8.019   8.390 -1.0366  3.2814 -0.4605
  828MOL0     H 9283   7.525   8.018   8.572  2.7391 -2.3989  1.0597
  828MOL0     H 9284   8.155   8.102   8.659 -0.2425  2.1010 -3.3410
  828MOL0     H 9285   8.235   8.209   8.898  0.1521  4.2537  0.1447
  828MOL0     H 9286   7.922   8.374   9.147  0.8557 -2.5248 -0.5695
  828MOL0     H 9287   8.028   8.492   9.077 -2.1722  0.8241 -0.2095
  828MOL0     H 9288   8.055   8.317   9.329 -1.2011 -1.0317 -1.7763
  828MOL0     H 9289   8.188   8.424   9.286 -0.6034  0.3529  3.1021
  828MOL0     H 9290   7.902   8.518   9.339 -0.3247 -1.7601 -0.2974
  828MOL0     H 9291   8.036   8.629   9.310 -3.5377  0.7730  1.0743
  828MOL0     H 9292   8.136   8.512   9.538 -0.5441  1.5262  3.0410
  828MOL0     H 9293   8.001   8.623   9.538  0.3981  1.3403 -0.2423
  828MOL0     H 9294   7.824   8.240   9.630 -5.4820  3.9246 -1.1339
  828MOL0     H 9295   7.839   8.276   9.001  0.4925  0.5564  0.2760
  828MOL0     H 9296   7.760   8.185   8.801  0.5412 -3.0184  0.7853
  829MOL0     O 9297   8.866   9.606   1.317  0.4517  0.1184 -0.2590
  829MOL0     C 9298   8.794   9.706   1.342 -1.4009 -0.4880 -1.1333
  829MOL0     O 9299   8.662   9.720   1.325 -0.0078 -0.7432  0.7919
  829MOL0     C 9300   8.608   9.649   1.218  0.4407 -1.5037  0.5910
  829MOL0     C 9301   8.477   9.612   1.219  0.6579 -0.6769  0.3173
  829MOL0     C 9302   8.416   9.549   1.111  0.1919  0.1860 -0.2720
  829MOL0     C 9303   8.491   9.522   0.997  0.2994 -0.2974  0.4310
  829MOL0     O 9304   8.429   9.472   0.884 -0.0619  0.5779 -0.6397
  829MOL0     C 9305   8.315   9.387   0.879  0.3207  0.3231  0.0400
  829MOL0     C 9306   8.293   9.343   0.727  0.0147  0.3318 -0.0848
  829MOL0     C 9307   8.177   9.246   0.707  1.0924  0.3440 -0.7699
  829MOL0     C 9308   8.183   9.208   0.556  0.3617  0.5630 -0.4684
  829MOL0     C 9309   8.083   9.096   0.530 -0.0308  0.5063  0.4303
  829MOL0     C 9310   8.146   8.995   0.423 -0.3065  0.0016 -0.7729
  829MOL0     C 9311   8.050   8.888   0.380 -0.2217  0.2894 -0.0116
  829MOL0     C 9312   8.116   8.787   0.283  0.2066  0.2538  0.7015
  829MOL0     N 9313   8.212   8.693   0.355  0.1237 -0.5458  0.1564
  829MOL0     C 9314   8.343   8.729   0.358  0.3305  0.3194  0.0318
  829MOL0     C 9315   8.399   8.607   0.385  0.4356 -0.9700  0.2040
  829MOL0     C 9316   8.544   8.581   0.381 -1.1012  0.3435 -0.1321
  829MOL0     C 9317   8.573   8.542   0.233  0.5100 -0.5029  0.1956
  829MOL0     C 9318   8.713   8.536   0.179 -0.2318  1.0964  0.2114
  829MOL0     C 9319   8.774   8.671   0.162 -0.4249  0.1624 -0.1879
  829MOL0     O 9320   8.911   8.660   0.141  0.9918  0.3460  1.0672
  829MOL0     C 9321   8.956   8.610   0.023  0.3576 -0.7055  0.4016
  829MOL0     C 9322   8.887   8.568  -0.087 -0.9395 -0.1578  0.0064
  829MOL0     C 9323   8.967   8.537  -0.205  0.9071 -0.1424 -0.0102
  829MOL0     C 9324   9.107   8.541  -0.208 -0.5688 -0.3681  0.4479
  829MOL0     C 9325   9.177   8.488  -0.330  0.2409  0.3729  0.2914
  829MOL0     O 9326   9.312   8.503  -0.334 -0.9703 -0.0822  0.5579
  829MOL0     C 9327   9.370   8.514  -0.460  0.4745  0.7192 -0.4183
  829MOL0     C 9328   9.305   8.555  -0.582 -0.2212 -0.1365 -0.2165
  829MOL0     C 9329   9.382   8.549  -0.705  0.1716 -0.2689  0.1961
  829MOL0     C 9330   9.512   8.482  -0.699  0.6197  0.1953 -0.6663
  829MOL0     O 9331   9.578   8.465  -0.821 -0.3537  0.2746  0.5737
  829MOL0     C 9332   9.712   8.518  -0.824  1.0214 -0.3029 -0.6997
  829MOL0     C 9333   9.705   8.656  -0.867  1.1111 -0.3422 -1.0393
  829MOL0     C 9334   9.843   8.707  -0.887 -0.3772  0.4908 -0.5891
  829MOL0     C 9335   9.917   8.753  -0.762  0.8511  0.5474 -0.1473
  829MOL0     C 9336  10.064   8.788  -0.797  0.3212 -0.2337  0.4537
  829MOL0     C 9337  10.143   8.845  -0.680  0.4273  0.2078 -0.4736
  829MOL0     C 9338  10.289   8.876  -0.727 -0.0492  0.1759  0.1297
  829MOL0     C 9339  10.387   8.904  -0.615 -0.1012  0.0408 -0.0729
  829MOL0    Cl 9340  10.292   9.005  -0.486  0.1058 -0.3512  0.4863
  829MOL0     C 9341   9.561   8.422  -0.584 -0.2419 -0.6944 -1.2794
  829MOL0     C 9342   9.494   8.459  -0.462 -1.0674  0.1582 -0.6896
  829MOL0     O 9343   9.113   8.429  -0.414 -0.2251 -0.1849 -0.1220
  829MOL0     C 9344   9.169   8.575  -0.087 -0.0008 -0.0664 -0.6608
  829MOL0     C 9345   9.092   8.600   0.028 -0.1632  0.0372 -0.6723
  829MOL0     N 9346   8.306   8.508   0.388  0.2554 -0.3478  0.8106
  829MOL0     N 9347   8.196   8.559   0.356  0.3216 -0.0115  0.0235
  829MOL0     C 9348   8.618   9.569   0.989 -0.7385  0.4348 -0.3068
  829MOL0     C 9349   8.676   9.633   1.102 -0.1652  0.3936  0.9664
  829MOL0     C 9350   8.857   9.818   1.419  0.2474 -0.2103  0.3135
  829MOL0     C 9351   8.770   9.923   1.468 -0.6782 -0.3838 -0.8684
  829MOL0     C 9352   8.825  10.030   1.542  0.3968  0.3596 -0.1146
  829MOL0     C 9353   8.963  10.044   1.553 -0.1447  1.0798  0.5247
  829MOL0     O 9354   9.003  10.141   1.624  0.8421 -0.1477 -0.7666
  829MOL0     C 9355   9.013  10.260   1.545 -0.2614  0.2632  0.1292
  829MOL0     C 9356   9.148  10.311   1.552  0.2214 -0.7693  0.1209
  829MOL0     C 9357   9.191  10.329   1.704  0.7116 -0.1068 -0.4657
  829MOL0     C 9358   9.323  10.407   1.723  0.0615  0.9562 -0.1440
  829MOL0     C 9359   9.427  10.313   1.771  0.5522 -0.5217 -0.4434
  829MOL0     C 9360   9.513  10.242   1.820 -0.1670  0.9010  0.2433
  829MOL0     C 9361   9.054   9.943   1.501  0.8341  0.1311 -0.2687
  829MOL0     C 9362   8.995   9.829   1.442 -0.1603 -0.2867  0.5642
  829MOL0     H 9363   8.407   9.630   1.300 -1.5667  2.1763 -2.0226
  829MOL0     H 9364   8.314   9.513   1.111  0.9252 -2.3812 -3.4066
  829MOL0     H 9365   8.227   9.438   0.920  0.4575 -0.4750  1.4008
  829MOL0     H 9366   8.329   9.297   0.939  1.3943 -1.5217 -2.7885
  829MOL0     H 9367   8.385   9.290   0.702 -0.0487  0.1792  0.0008
  829MOL0     H 9368   8.283   9.428   0.659  1.8376  1.0185  0.4746
  829MOL0     H 9369   8.080   9.293   0.725  0.6110 -0.8975 -0.0205
  829MOL0     H 9370   8.177   9.165   0.780 -4.4375 -0.0827 -0.8116
  829MOL0     H 9371   8.155   9.295   0.495  0.2628  0.9175  0.0735
  829MOL0     H 9372   8.289   9.192   0.533  1.1689  1.7482  2.0675
  829MOL0     H 9373   7.983   9.127   0.500  0.5330  0.7125 -1.4169
  829MOL0     H 9374   8.080   9.040   0.624  1.8423 -1.8989 -0.8197
  829MOL0     H 9375   8.232   8.953   0.475 -2.7494 -2.8897  1.3334
  829MOL0     H 9376   8.188   9.048   0.338  0.3519  0.6304 -0.0634
  829MOL0     H 9377   8.024   8.836   0.472  0.0269 -1.0582 -0.6759
  829MOL0     H 9378   7.960   8.935   0.341 -0.9530  1.0731  2.4549
  829MOL0     H 9379   8.168   8.842   0.204 -1.8860  4.2547  1.8526
  829MOL0     H 9380   8.041   8.723   0.235  0.6309  0.6968 -0.5793
  829MOL0     H 9381   8.395   8.822   0.339 -1.4745  1.7475  1.6540
  829MOL0     H 9382   8.566   8.490   0.437  2.1242  1.1960  0.2000
  829MOL0     H 9383   8.608   8.662   0.418  0.7561 -0.4515 -1.4777
  829MOL0     H 9384   8.519   8.613   0.170  0.5543 -1.2386 -0.6847
  829MOL0     H 9385   8.545   8.438   0.219  3.6530 -1.3272 -0.7416
  829MOL0     H 9386   8.770   8.482   0.255  0.1607  3.8459  2.0315
  829MOL0     H 9387   8.724   8.474   0.090  2.1453  0.0270  1.1562
  829MOL0     H 9388   8.774   8.705   0.266  1.0106 -0.9422  0.2032
  829MOL0     H 9389   8.723   8.735   0.090  0.4838  0.3170 -0.7094
  829MOL0     H 9390   8.778   8.565  -0.090 -1.0831  0.2282 -5.0229
  829MOL0     H 9391   8.913   8.512  -0.296 -0.2928 -0.7760  0.8400
  829MOL0     H 9392   9.202   8.587  -0.585 -0.5981 -1.1997  0.6297
  829MOL0     H 9393   9.339   8.577  -0.800  3.5131  0.4513 -1.2437
  829MOL0     H 9394   9.763   8.465  -0.905  1.5330 -0.1649 -0.4729
  829MOL0     H 9395   9.779   8.511  -0.738  0.4327  0.7093 -0.1479
  829MOL0     H 9396   9.646   8.712  -0.794 -2.1363 -1.1699 -2.8169
  829MOL0     H 9397   9.632   8.662  -0.948 -0.5153  0.6681  0.4330
  829MOL0     H 9398   9.839   8.796  -0.951  1.8586  2.5615  1.9148
  829MOL0     H 9399   9.903   8.625  -0.927  2.0352  0.1644  3.1841
  829MOL0     H 9400   9.865   8.841  -0.721 -0.8566 -0.3656 -0.2824
  829MOL0     H 9401   9.908   8.675  -0.686  0.7727  0.8375  0.1424
  829MOL0     H 9402  10.068   8.867  -0.873  0.2035 -0.7276 -0.0764
  829MOL0     H 9403  10.115   8.696  -0.827  0.1234 -0.8969  2.0342
  829MOL0     H 9404  10.139   8.771  -0.599  1.2334  2.1038  1.3787
  829MOL0     H 9405  10.096   8.936  -0.643 -1.3586 -1.2864  1.1255
  829MOL0     H 9406  10.318   8.800  -0.800 -2.0021 -1.7546  1.2591
  829MOL0     H 9407  10.272   8.965  -0.789  0.6751 -0.3483 -0.8478
  829MOL0     H 9408  10.485   8.943  -0.642  0.0397 -1.1979 -1.5126
  829MOL0     H 9409  10.405   8.805  -0.572 -0.9442  0.2729  0.8571
  829MOL0     H 9410   9.658   8.374  -0.592  1.0772  0.6909  3.3380
  829MOL0     H 9411   9.548   8.430  -0.372  0.0499  1.9304 -0.7434
  829MOL0     H 9412   9.275   8.554  -0.092 -0.0224 -0.0672 -1.1963
  829MOL0     H 9413   9.141   8.637   0.117  0.4919  1.9166 -1.7725
  829MOL0     H 9414   8.673   9.562   0.895  1.9486  3.6590  0.8339
  829MOL0     H 9415   8.776   9.673   1.096 -0.7119  1.9401  1.5484
  829MOL0     H 9416   8.667   9.929   1.435  0.1936  0.4024 -3.7600
  829MOL0     H 9417   8.766  10.102   1.597  0.3751  0.8552 -0.7809
  829MOL0     H 9418   8.943  10.338   1.577 -3.9669 -1.1524 -3.5766
  829MOL0     H 9419   9.007  10.232   1.439 -2.2957 -0.7939  0.4578
  829MOL0     H 9420   9.219  10.249   1.497  0.4640 -1.3798  1.0996
  829MOL0     H 9421   9.137  10.406   1.498  1.0295 -0.4664  0.4699
  829MOL0     H 9422   9.198  10.231   1.752  2.1959 -0.2169 -0.8412
  829MOL0     H 9423   9.117  10.386   1.761  0.3546  1.3540 -2.2907
  829MOL0     H 9424   9.351  10.453   1.628  2.9004  0.4583  0.3403
  829MOL0     H 9425   9.311  10.478   1.806 -2.4153  1.0913 -0.5613
  829MOL0     H 9426   9.582  10.184   1.878  0.3316  1.4317  0.1865
  829MOL0     H 9427   9.159   9.934   1.527  0.0550 -2.8701  2.5121
  829MOL0     H 9428   9.053   9.740   1.417 -2.4977 -2.2842  1.7485
  830MOL0     O 9429   4.637  10.306   8.169  1.1033  0.5317 -0.0439
  830MOL0     C 9430   4.749  10.250   8.151  0.1770  0.4186  1.0433
  830MOL0     O 9431   4.844  10.236   8.246  0.3806 -1.1849 -0.3614
  830MOL0     C 9432   4.843  10.318   8.356 -0.3118  0.0456 -0.0677
  830MOL0     C 9433   4.934  10.429   8.360 -1.0509  0.0768  0.7080
  830MOL0     C 9434   4.947  10.516   8.459  0.3856 -0.7664  0.1882
  830MOL0     C 9435   4.872  10.503   8.578  0.0531  0.0577  0.0904
  830MOL0     O 9436   4.887  10.597   8.683  0.7585 -0.4947 -0.7216
  830MOL0     C 9437   4.864  10.558   8.815 -1.2430  0.8415 -1.1884
  830MOL0     C 9438   4.982  10.499   8.887 -1.2290  0.3075  0.8508
  830MOL0     C 9439   5.090  10.603   8.922  0.4670  0.2615 -0.7266
  830MOL0     C 9440   5.189  10.533   9.024  0.1741 -0.9503 -1.2125
  830MOL0     C 9441   5.135  10.531   9.173 -0.7771 -1.2207  0.6210
  830MOL0     C 9442   5.109  10.668   9.240  2.6475  0.3923  0.7473
  830MOL0     C 9443   5.066  10.658   9.389  0.5180 -0.5600 -0.7121
  830MOL0     C 9444   4.919  10.611   9.420  0.0553 -0.0448 -0.4729
  830MOL0     N 9445   4.904  10.552   9.552  1.0509  0.3023  0.7850
  830MOL0     C 9446   4.848  10.609   9.666  0.0089 -0.0922  0.1235
  830MOL0     C 9447   4.862  10.518   9.759 -0.8856  0.2368 -0.5024
  830MOL0     C 9448   4.800  10.546   9.894 -0.6182 -1.3192  0.1400
  830MOL0     C 9449   4.877  10.477  10.001 -0.6293  0.8824 -0.1726
  830MOL0     C 9450   4.922  10.564  10.107 -0.0038  0.5983 -0.0071
  830MOL0     C 9451   5.050  10.631  10.072  0.5581  0.4928 -0.4819
  830MOL0     O 9452   5.098  10.718  10.179 -0.1824 -0.0373 -0.4135
  830MOL0     C 9453   5.029  10.835  10.205  0.1696  0.5424 -0.3092
  830MOL0     C 9454   5.049  10.901  10.327 -0.3867  0.1985 -0.2923
  830MOL0     C 9455   4.977  11.015  10.367 -0.1942  1.2977  0.2322
  830MOL0     C 9456   4.889  11.070  10.278  0.1502 -0.5514  1.3320
  830MOL0     C 9457   4.818  11.197  10.311  0.0722  0.4311 -0.3759
  830MOL0     O 9458   4.839  11.253  10.435 -0.1156 -1.3060 -0.3279
  830MOL0     C 9459   4.736  11.338  10.481  0.8383  0.5526  0.1694
  830MOL0     C 9460   4.619  11.279  10.528  0.1785  0.6388  0.9784
  830MOL0     C 9461   4.525  11.369  10.585  0.8860 -0.6274 -0.6728
  830MOL0     C 9462   4.547  11.502  10.586 -0.2280  0.1076 -0.3539
  830MOL0     O 9463   4.448  11.577  10.648  0.0877 -0.2344  0.2301
  830MOL0     C 9464   4.453  11.721  10.645  0.5015  0.3365 -0.4730
  830MOL0     C 9465   4.332  11.772  10.721 -0.4338  1.6255 -0.3513
  830MOL0     C 9466   4.344  11.731  10.877  0.2773  0.3936 -0.4717
  830MOL0     C 9467   4.247  11.810  10.974 -0.3579 -0.2750  0.1199
  830MOL0     C 9468   4.245  11.748  11.120 -1.4110 -0.8594 -0.0954
  830MOL0     C 9469   4.297  11.833  11.230 -0.0326 -0.1670 -0.0817
  830MOL0     C 9470   4.319  11.751  11.361 -0.1872  0.4964 -0.6300
  830MOL0     C 9471   4.369  11.841  11.481 -0.6098  0.7882  0.1326
  830MOL0    Cl 9472   4.261  11.976  11.517 -0.3364 -0.3871 -0.2839
  830MOL0     C 9473   4.668  11.559  10.541 -0.4269 -0.2571 -0.4292
  830MOL0     C 9474   4.762  11.471  10.489  0.9954 -0.6438  0.5050
  830MOL0     O 9475   4.738  11.236  10.227 -0.5053  0.7473  0.7171
  830MOL0     C 9476   4.884  11.014  10.147 -0.4302  0.3303  0.3206
  830MOL0     C 9477   4.947  10.891  10.112  0.3935  0.0136 -0.4435
  830MOL0     N 9478   4.914  10.393   9.703  0.5926 -0.4332 -0.7185
  830MOL0     N 9479   4.942  10.422   9.578 -0.3431 -0.5301 -0.4940
  830MOL0     C 9480   4.795  10.381   8.587 -0.2211 -0.7265  0.1943
  830MOL0     C 9481   4.780  10.288   8.479 -0.5676 -0.5155  0.4490
  830MOL0     C 9482   4.754  10.181   8.025 -0.5606  1.1536  0.0432
  830MOL0     C 9483   4.637  10.152   7.952 -0.3912 -0.6479 -0.0811
  830MOL0     C 9484   4.646  10.079   7.831  1.1455  0.9249 -0.1351
  830MOL0     C 9485   4.762  10.031   7.786 -0.6054  0.0198  0.4610
  830MOL0     O 9486   4.748   9.942   7.689 -0.5519 -0.0252  0.4024
  830MOL0     C 9487   4.859   9.852   7.649 -0.4016 -0.3232 -0.0897
  830MOL0     C 9488   4.797   9.743   7.552 -1.3482  0.1513  0.3858
  830MOL0     C 9489   4.703   9.640   7.622  0.5850 -0.9308 -1.0569
  830MOL0     C 9490   4.652   9.515   7.542 -0.2749 -0.1092  0.6528
  830MOL0     C 9491   4.757   9.438   7.492  0.1025  0.5588  0.7337
  830MOL0     C 9492   4.859   9.381   7.449  0.1565  0.6115 -0.7325
  830MOL0     C 9493   4.882  10.068   7.852 -0.1231  0.5636  0.7479
  830MOL0     C 9494   4.881  10.135   7.981  0.6709 -0.2016  0.5478
  830MOL0     H 9495   4.988  10.451   8.268  0.0469  0.1764  1.3684
  830MOL0     H 9496   5.009  10.605   8.451 -0.5216 -0.1990 -0.8284
  830MOL0     H 9497   4.793  10.475   8.820  2.7731 -3.0881 -2.3563
  830MOL0     H 9498   4.830  10.646   8.870  2.7551  3.4888 -2.4814
  830MOL0     H 9499   5.015  10.404   8.845 -3.1145 -1.5673  3.3161
  830MOL0     H 9500   4.932  10.458   8.975 -4.4048  0.4217 -0.7265
  830MOL0     H 9501   5.037  10.687   8.967  0.2871 -1.2030  2.0267
  830MOL0     H 9502   5.156  10.631   8.839  0.5650 -0.5456 -0.9306
  830MOL0     H 9503   5.219  10.433   8.993  1.8524 -0.9037  0.1703
  830MOL0     H 9504   5.281  10.592   9.022  0.6213 -1.6270 -3.2062
  830MOL0     H 9505   5.224  10.497   9.226  0.4051  0.7695  0.0215
  830MOL0     H 9506   5.048  10.465   9.184 -1.5055 -0.6430 -1.2429
  830MOL0     H 9507   5.028  10.714   9.184  0.7433 -3.4025  0.0450
  830MOL0     H 9508   5.203  10.724   9.239  3.2274 -0.4839  1.9860
  830MOL0     H 9509   5.145  10.593   9.427 -0.0329 -1.4931 -1.1239
  830MOL0     H 9510   5.087  10.754   9.437  0.6588 -0.8816 -0.1222
  830MOL0     H 9511   4.893  10.532   9.349  0.8649  0.6383 -1.5748
  830MOL0     H 9512   4.856  10.700   9.413 -0.8441 -0.1066  3.9973
  830MOL0     H 9513   4.808  10.710   9.668  2.6900  1.0738  0.0625
  830MOL0     H 9514   4.695  10.515   9.894 -1.0442  0.0302 -0.5884
  830MOL0     H 9515   4.802  10.655   9.903 -0.0619 -0.8435 -3.8253
  830MOL0     H 9516   4.967  10.429   9.959 -0.9591  2.4110 -2.8689
  830MOL0     H 9517   4.813  10.396  10.036  0.7338 -1.4526 -2.6588
  830MOL0     H 9518   4.849  10.642  10.128  0.2487  1.7517 -2.8906
  830MOL0     H 9519   4.941  10.502  10.195 -4.0672 -2.4873 -0.9847
  830MOL0     H 9520   5.042  10.691   9.980 -1.4072 -0.7728 -1.2044
  830MOL0     H 9521   5.129  10.557  10.055 -0.0632 -0.4468  0.5883
  830MOL0     H 9522   5.129  10.865  10.390  0.5230  0.4617 -1.2769
  830MOL0     H 9523   4.969  11.048  10.470 -4.0173  0.7690  0.2348
  830MOL0     H 9524   4.593  11.174  10.523 -1.2040  0.8727  2.4077
  830MOL0     H 9525   4.423  11.345  10.614  0.8448  0.1374 -0.1550
  830MOL0     H 9526   4.460  11.759  10.542 -0.4428 -0.2582 -0.7618
  830MOL0     H 9527   4.539  11.760  10.701 -1.2822  2.1049  1.1718
  830MOL0     H 9528   4.247  11.717  10.680 -1.4560  2.2540  0.8654
  830MOL0     H 9529   4.319  11.880  10.707 -0.7473  1.9424  2.0280
  830MOL0     H 9530   4.445  11.736  10.921 -0.2508 -2.6053  1.4183
  830MOL0     H 9531   4.319  11.624  10.877  2.7338 -0.3481  2.8688
  830MOL0     H 9532   4.276  11.915  10.984  2.8531 -0.6420 -2.9197
  830MOL0     H 9533   4.144  11.828  10.940 -0.2432  1.7536  0.7040
  830MOL0     H 9534   4.308  11.658  11.123  0.1589  0.1299  3.7171
  830MOL0     H 9535   4.143  11.720  11.149 -1.2133 -0.0044  1.5573
  830MOL0     H 9536   4.243  11.926  11.253  0.2923  0.2498 -0.9640
  830MOL0     H 9537   4.399  11.869  11.213  0.0032  0.2160  0.8483
  830MOL0     H 9538   4.228  11.694  11.383 -0.0772  1.0481  1.5091
  830MOL0     H 9539   4.396  11.676  11.342 -1.2386 -0.3083 -1.8426
  830MOL0     H 9540   4.462  11.888  11.451 -0.0966  2.8755  4.3536
  830MOL0     H 9541   4.401  11.779  11.565  0.9255 -0.3762 -1.2295
  830MOL0     H 9542   4.691  11.665  10.551  2.4368 -0.8984  0.6039
  830MOL0     H 9543   4.859  11.500  10.448  1.1493 -0.8772  0.7018
  830MOL0     H 9544   4.812  11.056  10.078  1.7672  1.3109 -1.4981
  830MOL0     H 9545   4.918  10.852  10.015 -0.9135 -1.0715  0.3432
  830MOL0     H 9546   4.728  10.352   8.667 -1.7279 -1.5423 -1.2957
  830MOL0     H 9547   4.722  10.198   8.493 -1.0118 -0.5717 -1.4711
  830MOL0     H 9548   4.543  10.193   7.988  0.8683  0.7381  1.8194
  830MOL0     H 9549   4.563  10.065   7.763  1.1939  0.6594 -0.1424
  830MOL0     H 9550   4.929   9.818   7.726  1.0715  1.9104 -0.3242
  830MOL0     H 9551   4.926   9.914   7.588  0.8430 -0.8600  0.6745
  830MOL0     H 9552   4.756   9.806   7.472  1.3485 -0.5445 -1.6892
  830MOL0     H 9553   4.883   9.694   7.504  0.9016  3.9209  0.1634
  830MOL0     H 9554   4.620   9.686   7.677  0.8820 -1.4693 -0.1259
  830MOL0     H 9555   4.768   9.598   7.699 -1.1850  3.6794  3.6089
  830MOL0     H 9556   4.593   9.443   7.600  1.0001 -1.6222  0.1205
  830MOL0     H 9557   4.588   9.553   7.462 -2.6910  1.5247  3.1438
  830MOL0     H 9558   4.943   9.331   7.405  1.2126  2.4047 -0.9031
  830MOL0     H 9559   4.970  10.024   7.806  0.5980  3.5127 -0.9319
  830MOL0     H 9560   4.978  10.150   8.026  2.6861 -3.5764 -2.1899
  831MOL0     O 9561   0.323   7.227   2.660 -0.1341 -0.6978  0.8523
  831MOL0     C 9562   0.316   7.298   2.756 -0.2153 -0.6506  0.1156
  831MOL0     O 9563   0.396   7.299   2.861  0.0222  0.7303  0.4924
  831MOL0     C 9564   0.465   7.178   2.865 -0.0992 -0.9530  0.0610
  831MOL0     C 9565   0.604   7.182   2.856 -0.1607 -0.1704 -0.1552
  831MOL0     C 9566   0.675   7.066   2.854  0.6310  0.2379 -0.8440
  831MOL0     C 9567   0.616   6.945   2.890  0.0588  0.9905 -0.1088
  831MOL0     O 9568   0.698   6.832   2.921 -0.7338 -0.5593  0.4559
  831MOL0     C 9569   0.846   6.844   2.927 -0.1207  0.0178  0.3018
  831MOL0     C 9570   0.926   6.725   2.978 -0.3292  0.0888  0.6356
  831MOL0     C 9571   0.883   6.676   3.111  0.7458  0.1166  0.6612
  831MOL0     C 9572   0.909   6.772   3.228  0.1821 -0.4273 -0.9231
  831MOL0     C 9573   0.875   6.720   3.372  0.6192 -0.7265  0.5705
  831MOL0     C 9574   0.881   6.828   3.483  0.1197 -0.3564 -0.7159
  831MOL0     C 9575   0.887   6.778   3.628 -0.5673  1.0069  0.1399
  831MOL0     C 9576   0.902   6.887   3.736 -0.1889  0.8458 -0.6729
  831MOL0     N 9577   0.773   6.945   3.788 -0.0334  0.4559  0.3306
  831MOL0     C 9578   0.706   7.064   3.752  0.7724 -0.2615 -0.5091
  831MOL0     C 9579   0.604   7.079   3.846  0.4232  0.8530  0.3418
  831MOL0     C 9580   0.508   7.198   3.856 -0.0272 -0.5083 -0.7350
  831MOL0     C 9581   0.508   7.255   3.996  0.7297  0.2132 -0.4052
  831MOL0     C 9582   0.415   7.179   4.087 -0.0293 -0.5198  0.1883
  831MOL0     C 9583   0.446   7.179   4.234 -0.2797 -0.1318  0.1138
  831MOL0     O 9584   0.338   7.130   4.319 -0.2894  0.0432 -0.2537
  831MOL0     C 9585   0.336   7.195   4.438 -0.6790  0.3515 -0.2457
  831MOL0     C 9586   0.284   7.320   4.444  0.0036  0.0340  0.6279
  831MOL0     C 9587   0.278   7.386   4.568 -0.1764 -0.6291 -0.7799
  831MOL0     C 9588   0.313   7.324   4.689 -0.2559 -0.9301 -0.3676
  831MOL0     C 9589   0.288   7.386   4.825  0.2300 -0.8723 -0.1269
  831MOL0     O 9590   0.330   7.311   4.930 -0.0246  0.3915 -0.3379
  831MOL0     C 9591   0.294   7.337   5.061  0.2551 -0.7157  0.0766
  831MOL0     C 9592   0.350   7.256   5.166 -0.8127  0.0520 -0.0947
  831MOL0     C 9593   0.332   7.274   5.303 -0.2144 -0.2946 -0.6603
  831MOL0     C 9594   0.243   7.372   5.343  1.4652  0.7009 -0.2291
  831MOL0     O 9595   0.233   7.392   5.479  0.6629 -0.1597 -0.2875
  831MOL0     C 9596   0.152   7.507   5.525  0.0550  0.0391  0.4182
  831MOL0     C 9597   0.159   7.512   5.674 -0.0884 -0.0837 -0.5996
  831MOL0     C 9598   0.302   7.559   5.723 -1.4993  0.3037  0.2460
  831MOL0     C 9599   0.294   7.581   5.874 -1.2288  0.3269 -1.4452
  831MOL0     C 9600   0.250   7.466   5.968  0.1304  0.0852 -0.3595
  831MOL0     C 9601   0.292   7.497   6.110 -0.0917  0.1214  1.4377
  831MOL0     C 9602   0.261   7.377   6.196  0.6780 -0.1318 -0.2536
  831MOL0     C 9603   0.278   7.407   6.341  0.0126 -0.1107  0.2655
  831MOL0    Cl 9604   0.437   7.459   6.384 -0.0339  0.0597  0.3288
  831MOL0     C 9605   0.171   7.439   5.246 -0.7992  0.0643 -0.6622
  831MOL0     C 9606   0.193   7.424   5.109  0.2919 -0.3697  0.2567
  831MOL0     O 9607   0.260   7.506   4.836  0.3584  0.6828  0.0890
  831MOL0     C 9608   0.360   7.186   4.685  0.5766 -0.8767  1.0924
  831MOL0     C 9609   0.371   7.123   4.558 -0.4015 -0.2072 -0.1888
  831MOL0     N 9610   0.605   6.966   3.931 -0.4107 -0.7068  0.0623
  831MOL0     N 9611   0.716   6.899   3.897  0.6583 -0.0493 -0.2717
  831MOL0     C 9612   0.479   6.939   2.922  0.2537 -0.2457  0.8010
  831MOL0     C 9613   0.402   7.059   2.900 -0.1612 -0.1557 -0.0545
  831MOL0     C 9614   0.216   7.410   2.748  0.2182 -0.2918 -0.6258
  831MOL0     C 9615   0.146   7.439   2.628 -0.5206  0.4901 -0.7227
  831MOL0     C 9616   0.056   7.545   2.628  0.1313 -0.9720 -0.1021
  831MOL0     C 9617   0.035   7.634   2.739 -0.8146 -0.4969  0.2748
  831MOL0     O 9618  -0.060   7.738   2.751 -0.5013 -0.6610  0.1975
  831MOL0     C 9619  -0.175   7.750   2.660 -0.4091 -0.6040 -0.3947
  831MOL0     C 9620  -0.263   7.622   2.672 -0.2895 -0.1460  1.0820
  831MOL0     C 9621  -0.389   7.630   2.584 -0.3158 -0.0573  0.6071
  831MOL0     C 9622  -0.369   7.662   2.433 -0.2436  0.1498  0.0025
  831MOL0     C 9623  -0.273   7.566   2.369  0.2021  0.0575  0.5646
  831MOL0     C 9624  -0.196   7.487   2.324  1.0857  0.1477 -0.4783
  831MOL0     C 9625   0.101   7.597   2.848  0.1732 -0.0581 -1.2958
  831MOL0     C 9626   0.204   7.495   2.852 -0.2866  0.0977 -1.4312
  831MOL0     H 9627   0.639   7.279   2.819 -1.3755 -0.9783 -3.8692
  831MOL0     H 9628   0.779   7.082   2.829  0.8068  0.5829  0.0692
  831MOL0     H 9629   0.879   6.922   2.997 -1.1393  0.2351  0.5514
  831MOL0     H 9630   0.881   6.860   2.824  0.9010 -1.1254  0.4494
  831MOL0     H 9631   1.033   6.743   2.990 -0.6295  1.2229  1.9278
  831MOL0     H 9632   0.916   6.641   2.909  0.3841 -2.0741  3.0165
  831MOL0     H 9633   0.934   6.580   3.121  1.4309  0.4302  0.2478
  831MOL0     H 9634   0.777   6.647   3.115 -0.1063  2.8469  0.0535
  831MOL0     H 9635   1.010   6.814   3.219 -0.3117  0.6896 -1.4189
  831MOL0     H 9636   0.837   6.852   3.213  1.2202  0.2295 -2.7365
  831MOL0     H 9637   0.948   6.641   3.396  0.4431 -0.6845  1.2630
  831MOL0     H 9638   0.773   6.682   3.382 -0.2221  1.0085 -0.9886
  831MOL0     H 9639   0.786   6.882   3.471 -1.8259 -2.8723  1.9664
  831MOL0     H 9640   0.962   6.897   3.458 -0.3012 -0.0930 -1.3776
  831MOL0     H 9641   0.809   6.703   3.645  2.7473 -2.4465  1.6137
  831MOL0     H 9642   0.982   6.724   3.635 -1.2689 -0.3405 -0.4346
  831MOL0     H 9643   0.966   6.966   3.697 -1.4413  1.0840 -2.3769
  831MOL0     H 9644   0.958   6.839   3.817 -0.9358  0.8164 -0.1629
  831MOL0     H 9645   0.722   7.130   3.667  0.4495 -1.1880 -1.3066
  831MOL0     H 9646   0.412   7.169   3.812 -0.5401  2.6814 -1.9671
  831MOL0     H 9647   0.545   7.280   3.794  1.2361 -0.4736  0.0292
  831MOL0     H 9648   0.481   7.361   3.993 -0.2316 -0.0457 -1.6982
  831MOL0     H 9649   0.603   7.246   4.048 -0.8880 -2.8945  2.3881
  831MOL0     H 9650   0.315   7.210   4.055  0.0879 -0.6914 -0.3554
  831MOL0     H 9651   0.420   7.074   4.058 -0.1838 -0.6200  0.5253
  831MOL0     H 9652   0.492   7.273   4.266 -0.0968  1.4394 -4.2150
  831MOL0     H 9653   0.523   7.103   4.248 -0.2920 -0.3578 -0.9639
  831MOL0     H 9654   0.239   7.367   4.357 -0.9525  0.1864  1.1820
  831MOL0     H 9655   0.249   7.490   4.560 -0.2992 -0.7379 -2.0459
  831MOL0     H 9656   0.410   7.170   5.139 -1.2802  0.2325 -1.7794
  831MOL0     H 9657   0.384   7.209   5.373  0.5779  1.7638  0.7552
  831MOL0     H 9658   0.048   7.499   5.492 -0.4903  0.4453  1.9317
  831MOL0     H 9659   0.204   7.596   5.490  0.9501  0.1785  1.9964
  831MOL0     H 9660   0.122   7.417   5.715  1.2328 -0.0435  0.7951
  831MOL0     H 9661   0.088   7.589   5.708 -0.6115  0.8491 -3.5629
  831MOL0     H 9662   0.343   7.648   5.675  0.7669 -0.3330  0.8724
  831MOL0     H 9663   0.373   7.482   5.689 -1.2427  1.3066 -1.6032
  831MOL0     H 9664   0.392   7.606   5.915 -0.2336 -1.4335 -2.6504
  831MOL0     H 9665   0.233   7.671   5.888  1.6927  2.0022  3.3528
  831MOL0     H 9666   0.305   7.375   5.942 -1.5673 -0.6839 -1.3814
  831MOL0     H 9667   0.143   7.453   5.952  0.4261  0.9532 -3.9227
  831MOL0     H 9668   0.240   7.592   6.125  2.2470  1.5050  1.2721
  831MOL0     H 9669   0.399   7.519   6.119 -0.4002  1.9547  0.9935
  831MOL0     H 9670   0.159   7.341   6.181 -0.3282  2.7319 -0.8910
  831MOL0     H 9671   0.334   7.302   6.163 -1.1640 -1.3393 -1.7859
  831MOL0     H 9672   0.246   7.321   6.401  2.1453 -0.2367  1.3184
  831MOL0     H 9673   0.214   7.493   6.365 -0.1090  0.5525 -2.1851
  831MOL0     H 9674   0.093   7.511   5.267 -1.5782 -0.7481 -0.7068
  831MOL0     H 9675   0.135   7.490   5.045  0.9885 -0.7687 -0.8342
  831MOL0     H 9676   0.382   7.132   4.777 -0.9064  3.2450  4.1716
  831MOL0     H 9677   0.392   7.016   4.559  2.9418  0.3058 -1.8121
  831MOL0     H 9678   0.439   6.844   2.957  2.0959 -1.3739  0.0030
  831MOL0     H 9679   0.294   7.061   2.915  0.0250 -0.4381  1.4452
  831MOL0     H 9680   0.163   7.374   2.542  2.3958  0.5457 -0.3065
  831MOL0     H 9681  -0.006   7.557   2.540 -1.0896 -2.4022  0.5235
  831MOL0     H 9682  -0.142   7.758   2.556  0.0605 -0.7822 -0.2631
  831MOL0     H 9683  -0.229   7.838   2.696  0.9014  0.0086  0.1276
  831MOL0     H 9684  -0.204   7.538   2.634 -0.0158  1.8804 -3.6472
  831MOL0     H 9685  -0.294   7.611   2.776 -1.3910 -1.5478  0.6437
  831MOL0     H 9686  -0.445   7.710   2.632  1.0218 -0.8733  3.7557
  831MOL0     H 9687  -0.458   7.545   2.594 -0.9603  0.1151 -1.7368
  831MOL0     H 9688  -0.471   7.665   2.393  0.0198  1.2605 -0.6409
  831MOL0     H 9689  -0.326   7.762   2.425 -0.0178  0.0820  0.3396
  831MOL0     H 9690  -0.132   7.409   2.286 -3.0005 -1.0811 -6.0398
  831MOL0     H 9691   0.071   7.659   2.932 -0.0329 -0.3651 -1.1423
  831MOL0     H 9692   0.259   7.479   2.944 -0.5548  2.0129 -0.8962
  832MOL0     O 9693   5.367   7.130  10.840 -0.0912  0.6781 -0.7513
  832MOL0     C 9694   5.397   7.007  10.820  0.4200 -0.2697  0.5012
  832MOL0     O 9695   5.379   6.901  10.904 -0.5889 -0.3221  0.1107
  832MOL0     C 9696   5.329   6.940  11.025 -1.0684  0.5205 -0.3949
  832MOL0     C 9697   5.198   6.977  11.065  0.2098 -0.1382  1.3710
  832MOL0     C 9698   5.160   7.031  11.186 -0.0196 -0.0056 -0.7133
  832MOL0     C 9699   5.267   7.027  11.286  0.6406  0.0152  0.1973
  832MOL0     O 9700   5.228   7.063  11.410 -0.1460 -0.2114 -0.4363
  832MOL0     C 9701   5.095   7.105  11.456  0.3854  0.6265  0.1930
  832MOL0     C 9702   5.102   7.137  11.604  0.9094 -0.3938 -0.1310
  832MOL0     C 9703   4.976   7.169  11.679  0.0626 -0.7833 -0.0807
  832MOL0     C 9704   4.903   7.036  11.700  0.1933 -0.8941 -0.9610
  832MOL0     C 9705   4.785   7.078  11.792 -0.6582 -0.8293  0.0017
  832MOL0     C 9706   4.673   7.144  11.721  0.7872 -0.0086 -0.0602
  832MOL0     C 9707   4.548   7.155  11.812  0.0592 -0.0617  0.8580
  832MOL0     C 9708   4.416   7.231  11.764 -0.2228  0.6211 -1.1151
  832MOL0     N 9709   4.432   7.362  11.711  0.4820  0.1968  0.4540
  832MOL0     C 9710   4.365   7.469  11.765  0.8406 -1.3577  0.0721
  832MOL0     C 9711   4.436   7.577  11.704 -0.3126 -0.8073 -0.1232
  832MOL0     C 9712   4.411   7.720  11.738  0.2262  0.4694  0.3979
  832MOL0     C 9713   4.308   7.782  11.635  1.0898 -0.1904 -0.3065
  832MOL0     C 9714   4.182   7.805  11.708  0.5067  0.2756 -0.4237
  832MOL0     C 9715   4.082   7.893  11.628  0.9925 -0.4352 -1.0320
  832MOL0     O 9716   3.940   7.869  11.668 -0.1070 -0.2533  0.3839
  832MOL0     C 9717   3.832   7.901  11.584 -0.5355 -0.6668  0.2056
  832MOL0     C 9718   3.716   7.836  11.634  0.5148 -0.1390 -0.0221
  832MOL0     C 9719   3.586   7.855  11.570 -0.0360  0.7581 -0.4428
  832MOL0     C 9720   3.584   7.927  11.451 -0.2135 -0.2381  0.0248
  832MOL0     C 9721   3.458   7.948  11.377  0.6066  0.1209  0.2579
  832MOL0     O 9722   3.457   8.060  11.293  0.1266  0.2468 -0.9368
  832MOL0     C 9723   3.350   8.079  11.207  0.3472  0.0079 -0.0006
  832MOL0     C 9724   3.276   8.194  11.220 -1.5966 -0.0308 -0.4603
  832MOL0     C 9725   3.181   8.228  11.129 -0.4293 -0.7517  0.3910
  832MOL0     C 9726   3.136   8.144  11.025  0.6033 -0.2080 -0.1556
  832MOL0     O 9727   3.007   8.145  10.953 -1.1593 -0.0323 -0.7553
  832MOL0     C 9728   2.922   8.248  11.001 -0.0110 -0.0483 -0.2457
  832MOL0     C 9729   2.951   8.379  10.933  0.0126 -0.2329  0.6955
  832MOL0     C 9730   2.882   8.501  10.981 -0.1956 -0.3078  0.5193
  832MOL0     C 9731   2.725   8.481  10.990  0.6303 -0.1497 -0.0015
  832MOL0     C 9732   2.651   8.607  10.998 -0.4647 -0.0662 -0.2073
  832MOL0     C 9733   2.505   8.589  11.025  0.0699  0.4839  1.2727
  832MOL0     C 9734   2.442   8.708  11.095 -0.4522  0.3999 -0.3053
  832MOL0     C 9735   2.306   8.683  11.149  0.6443 -0.2203  0.3802
  832MOL0    Cl 9736   2.174   8.760  11.029 -0.5292  0.3344 -0.0181
  832MOL0     C 9737   3.216   8.028  11.000 -0.2321 -0.0381  0.1010
  832MOL0     C 9738   3.324   7.996  11.092 -0.4982 -0.3654  1.2921
  832MOL0     O 9739   3.361   7.881  11.409  0.0988 -0.0756 -0.4015
  832MOL0     C 9740   3.708   7.983  11.405  0.5328 -0.2000  0.6387
  832MOL0     C 9741   3.830   7.975  11.467 -0.3507 -0.7542 -0.5171
  832MOL0     N 9742   4.528   7.519  11.620  0.3266  0.6161  0.8766
  832MOL0     N 9743   4.520   7.389  11.612  1.1090 -0.0463  0.5667
  832MOL0     C 9744   5.400   6.990  11.253 -0.6539 -0.3757 -0.1629
  832MOL0     C 9745   5.425   6.954  11.124 -0.3853  0.1389  0.0712
  832MOL0     C 9746   5.459   6.971  10.685  0.6815 -0.0366 -0.4907
  832MOL0     C 9747   5.489   7.066  10.586 -0.1684  0.1967 -0.0134
  832MOL0     C 9748   5.554   7.029  10.472 -0.3475  0.7783  0.2489
  832MOL0     C 9749   5.585   6.892  10.442  0.7940 -0.0673  0.2559
  832MOL0     O 9750   5.647   6.849  10.328 -0.2107  0.0835 -0.0578
  832MOL0     C 9751   5.603   6.903  10.199 -0.3256  0.2795  0.8508
  832MOL0     C 9752   5.456   6.878  10.171  0.5025  0.2614 -0.6467
  832MOL0     C 9753   5.426   6.733  10.168  0.1578  0.1444  0.1653
  832MOL0     C 9754   5.283   6.699  10.133 -0.7077 -0.1403  1.1195
  832MOL0     C 9755   5.275   6.689   9.983  0.0275 -0.9908 -0.2858
  832MOL0     C 9756   5.259   6.694   9.865 -0.5864  1.0465 -1.2628
  832MOL0     C 9757   5.563   6.802  10.545  0.0483 -0.3689  0.2900
  832MOL0     C 9758   5.491   6.840  10.657  0.6819  0.0963 -0.6164
  832MOL0     H 9759   5.128   6.955  10.985  2.0524 -0.0127 -0.3560
  832MOL0     H 9760   5.053   7.046  11.190 -0.5090 -1.4159 -4.5268
  832MOL0     H 9761   5.034   7.015  11.441  0.3832  0.6400  0.1265
  832MOL0     H 9762   5.050   7.191  11.406 -1.8770  1.1278  2.8239
  832MOL0     H 9763   5.170   7.223  11.607  0.1292  0.4635 -2.9734
  832MOL0     H 9764   5.167   7.061  11.649 -0.2622 -0.2686  1.8928
  832MOL0     H 9765   4.913   7.239  11.624 -1.6185 -1.1363  1.3056
  832MOL0     H 9766   5.009   7.223  11.769 -0.4828 -1.0100  0.2616
  832MOL0     H 9767   4.882   6.994  11.601  0.7775 -3.4829 -0.0757
  832MOL0     H 9768   4.957   6.956  11.750 -0.2779 -0.6217 -0.0009
  832MOL0     H 9769   4.813   7.132  11.883  2.5695  0.3320 -1.4985
  832MOL0     H 9770   4.734   6.986  11.820  0.2386 -1.6729 -1.0311
  832MOL0     H 9771   4.655   7.094  11.626  1.6253  1.6734 -1.1394
  832MOL0     H 9772   4.699   7.249  11.706 -0.5099  0.4248  0.5162
  832MOL0     H 9773   4.516   7.057  11.850 -3.0900 -0.0715 -1.4771
  832MOL0     H 9774   4.582   7.206  11.903  0.1901  0.8866  0.2845
  832MOL0     H 9775   4.338   7.214  11.840  1.8853 -0.9097  0.8397
  832MOL0     H 9776   4.372   7.178  11.679  1.3384  3.3127 -3.7742
  832MOL0     H 9777   4.290   7.471  11.843  2.5090  1.0025  1.7804
  832MOL0     H 9778   4.504   7.773  11.717  2.7660 -3.6390  0.1303
  832MOL0     H 9779   4.384   7.725  11.844 -0.9287 -2.2705  0.3254
  832MOL0     H 9780   4.293   7.713  11.551  3.9126 -5.4065  2.9545
  832MOL0     H 9781   4.349   7.876  11.595  0.8667  0.2129  0.3909
  832MOL0     H 9782   4.134   7.711  11.738  2.2775  0.5310  3.8795
  832MOL0     H 9783   4.208   7.866  11.795  0.3067 -2.5567  1.7785
  832MOL0     H 9784   4.101   7.875  11.522 -0.9250 -1.1714 -1.2849
  832MOL0     H 9785   4.106   7.999  11.640  1.4072 -0.4379 -1.7994
  832MOL0     H 9786   3.724   7.774  11.722 -1.0339 -2.0383 -1.1349
  832MOL0     H 9787   3.500   7.800  11.606  0.0638  0.2619 -0.9359
  832MOL0     H 9788   3.299   8.256  11.306 -0.6671 -0.3884 -0.4430
  832MOL0     H 9789   3.127   8.320  11.152 -1.4972 -0.2226 -3.5021
  832MOL0     H 9790   2.929   8.257  11.110 -0.8361  1.3010 -0.2754
  832MOL0     H 9791   2.822   8.222  10.965 -1.6530  6.2513 -1.4288
  832MOL0     H 9792   2.933   8.368  10.826  1.9253 -0.2002  0.3304
  832MOL0     H 9793   3.058   8.401  10.940 -0.6667  5.7228 -1.6942
  832MOL0     H 9794   2.904   8.584  10.914 -0.4217  1.4520  2.5335
  832MOL0     H 9795   2.914   8.531  11.081 -2.6066 -0.5367  1.4315
  832MOL0     H 9796   2.684   8.421  10.909 -1.8262  1.0637  0.2736
  832MOL0     H 9797   2.705   8.428  11.084  0.7708  0.1334  0.1895
  832MOL0     H 9798   2.670   8.667  10.909  1.5632 -0.4146 -0.0525
  832MOL0     H 9799   2.694   8.668  11.079 -3.3778  1.4788  0.3030
  832MOL0     H 9800   2.477   8.498  11.078 -1.4703 -0.8570 -1.6555
  832MOL0     H 9801   2.453   8.584  10.929 -0.1259  3.4418  1.1347
  832MOL0     H 9802   2.510   8.743  11.173  0.4425 -0.9957 -0.4139
  832MOL0     H 9803   2.432   8.788  11.020 -2.4551  0.3628 -0.1389
  832MOL0     H 9804   2.289   8.736  11.243 -2.4545 -3.4567  1.8355
  832MOL0     H 9805   2.282   8.577  11.161 -0.6801  0.0768  0.5136
  832MOL0     H 9806   3.177   7.961  10.925 -3.9269  3.1067 -1.1030
  832MOL0     H 9807   3.396   7.916  11.082 -1.9995 -1.5712 -0.3125
  832MOL0     H 9808   3.699   8.030  11.307  0.4895 -3.8818 -1.3154
  832MOL0     H 9809   3.910   8.035  11.426  1.0068 -0.4126  2.3818
  832MOL0     H 9810   5.483   6.999  11.322 -1.0159  3.1541 -0.0472
  832MOL0     H 9811   5.522   6.918  11.092 -2.3582 -2.0004 -4.3413
  832MOL0     H 9812   5.455   7.166  10.612  1.1901  0.0439  2.6218
  832MOL0     H 9813   5.564   7.101  10.392 -0.3157  1.4778  0.8737
  832MOL0     H 9814   5.663   6.863  10.116 -0.1782  1.6478  0.2788
  832MOL0     H 9815   5.618   7.011  10.202  3.0547  0.2311 -3.5317
  832MOL0     H 9816   5.394   6.925  10.249 -0.8595 -1.3780 -0.6756
  832MOL0     H 9817   5.415   6.921  10.079  0.3261  0.8710 -0.2899
  832MOL0     H 9818   5.425   6.694  10.270 -0.1043 -1.7236 -0.5211
  832MOL0     H 9819   5.489   6.673  10.102 -0.2147  1.2930 -1.2898
  832MOL0     H 9820   5.250   6.615  10.196 -0.7289  0.4295  1.8796
  832MOL0     H 9821   5.222   6.785  10.163  0.3627  0.2901  2.1344
  832MOL0     H 9822   5.265   6.716   9.760  2.0787  0.9193 -1.1984
  832MOL0     H 9823   5.593   6.704  10.508 -0.8787  0.1409 -1.9754
  832MOL0     H 9824   5.462   6.760  10.724  0.2865 -0.5918 -1.5884
  833MOL0     O 9825   6.125   1.643   0.566  0.3179 -0.0859  0.0370
  833MOL0     C 9826   6.104   1.755   0.527 -0.4711 -0.2579 -0.1460
  833MOL0     O 9827   6.207   1.850   0.523 -0.2026 -0.2482 -0.0670
  833MOL0     C 9828   6.328   1.809   0.568 -0.4338 -0.4235  1.5438
  833MOL0     C 9829   6.387   1.842   0.698 -0.0424 -0.5153  0.3361
  833MOL0     C 9830   6.526   1.818   0.705 -0.1222 -0.6410  0.5017
  833MOL0     C 9831   6.604   1.760   0.610 -0.2570 -1.5348  0.4083
  833MOL0     O 9832   6.736   1.750   0.640 -0.2685  0.1241 -1.1331
  833MOL0     C 9833   6.826   1.782   0.541 -0.3527 -0.4627  0.0968
  833MOL0     C 9834   6.900   1.653   0.507 -0.3465  0.0085  1.0239
  833MOL0     C 9835   6.985   1.603   0.614 -0.1760  0.6314  0.4089
  833MOL0     C 9836   7.089   1.492   0.568 -0.2669  0.0481 -0.3977
  833MOL0     C 9837   7.144   1.420   0.688  0.3059 -0.9711  0.1011
  833MOL0     C 9838   7.172   1.508   0.810  0.0666 -0.2071 -1.4481
  833MOL0     C 9839   7.248   1.455   0.936 -0.6846  0.5698 -0.3998
  833MOL0     C 9840   7.178   1.323   0.983  0.2522  0.2580 -0.1952
  833MOL0     N 9841   7.242   1.257   1.098 -0.1575 -0.4127  0.5086
  833MOL0     C 9842   7.324   1.311   1.192 -1.0173  0.0159 -0.5738
  833MOL0     C 9843   7.368   1.208   1.278  0.3912  0.0926  0.6543
  833MOL0     C 9844   7.456   1.238   1.392  0.6545  0.3022  0.3955
  833MOL0     C 9845   7.381   1.257   1.525 -0.1298 -0.5829 -0.5594
  833MOL0     C 9846   7.454   1.310   1.652 -0.3620  0.0691 -0.0781
  833MOL0     C 9847   7.604   1.332   1.627  0.2055  0.1921 -0.2076
  833MOL0     O 9848   7.664   1.365   1.750 -0.4598 -0.8076 -0.6802
  833MOL0     C 9849   7.778   1.440   1.736 -0.4305 -0.6701 -0.9152
  833MOL0     C 9850   7.873   1.425   1.638  0.6481  0.4123  0.8035
  833MOL0     C 9851   7.982   1.506   1.607  0.5502 -0.0878  1.1260
  833MOL0     C 9852   7.998   1.624   1.674  0.3307  0.4165  0.1743
  833MOL0     C 9853   8.108   1.717   1.643 -0.5599  0.0971 -0.4544
  833MOL0     O 9854   8.173   1.761   1.753  0.1057  0.6026 -0.7994
  833MOL0     C 9855   8.275   1.851   1.739 -0.3290 -0.8436  0.0159
  833MOL0     C 9856   8.408   1.821   1.785  0.6908  0.0407 -0.2594
  833MOL0     C 9857   8.507   1.910   1.760 -0.3024 -0.0268 -0.0658
  833MOL0     C 9858   8.492   2.034   1.703 -0.1871 -0.6634  0.2462
  833MOL0     O 9859   8.610   2.108   1.680  0.0564  0.3079  0.5368
  833MOL0     C 9860   8.586   2.234   1.633  0.5945 -0.5253 -0.1188
  833MOL0     C 9861   8.714   2.297   1.573 -0.8408  0.1734  0.0687
  833MOL0     C 9862   8.754   2.211   1.459 -0.2609  0.0575  0.1271
  833MOL0     C 9863   8.835   2.295   1.357  0.3996 -0.3941  0.0516
  833MOL0     C 9864   8.940   2.218   1.304  0.0394  0.1936  0.1151
  833MOL0     C 9865   9.035   2.296   1.220 -0.1730  0.2015  0.3655
  833MOL0     C 9866   9.149   2.216   1.174 -1.1331  0.3378 -0.9732
  833MOL0     C 9867   9.100   2.114   1.062  0.6992 -0.7503 -0.8731
  833MOL0    Cl 9868   9.231   2.069   0.962 -0.2116 -0.1418 -0.0038
  833MOL0     C 9869   8.359   2.076   1.671  0.1724  0.6852 -0.3166
  833MOL0     C 9870   8.256   1.981   1.677  0.3077  0.5166  0.0628
  833MOL0     O 9871   8.134   1.750   1.528  0.0508 -0.2419  0.2564
  833MOL0     C 9872   7.900   1.651   1.776 -0.6578 -0.0567 -0.5165
  833MOL0     C 9873   7.794   1.566   1.808  0.5709  0.7927 -0.2517
  833MOL0     N 9874   7.290   1.102   1.239 -0.8019 -0.3894  0.5666
  833MOL0     N 9875   7.220   1.122   1.133  0.6667 -0.9138 -0.0315
  833MOL0     C 9876   6.543   1.724   0.488  0.1207  0.2772  0.2676
  833MOL0     C 9877   6.405   1.737   0.474 -0.2007 -0.6481  0.3731
  833MOL0     C 9878   5.976   1.788   0.464  0.0479 -0.8978 -0.2560
  833MOL0     C 9879   5.957   1.913   0.389 -0.5339  0.4656 -0.7210
  833MOL0     C 9880   5.830   1.940   0.329 -0.0997  0.2718 -0.0589
  833MOL0     C 9881   5.721   1.855   0.352  0.7177 -0.7491 -0.6200
  833MOL0     O 9882   5.593   1.888   0.323  0.6953  0.0996  0.1978
  833MOL0     C 9883   5.576   1.945   0.194  0.0516  0.2344 -0.0544
  833MOL0     C 9884   5.546   2.099   0.195  0.9068  0.2607 -0.2843
  833MOL0     C 9885   5.417   2.125   0.284  0.0961  0.3950 -0.8886
  833MOL0     C 9886   5.379   2.268   0.290  0.5217  0.8075  0.5571
  833MOL0     C 9887   5.262   2.297   0.382  0.8763 -0.3612 -0.2779
  833MOL0     C 9888   5.191   2.347   0.468  0.0676  0.0365 -0.2365
  833MOL0     C 9889   5.740   1.731   0.418 -0.2362 -0.1183 -0.0442
  833MOL0     C 9890   5.867   1.700   0.462  0.4390  0.5870  0.3908
  833MOL0     H 9891   6.340   1.907   0.772  1.5297  1.0166  0.0487
  833MOL0     H 9892   6.594   1.854   0.782  1.4305  2.7917 -2.2043
  833MOL0     H 9893   6.896   1.854   0.583  0.2554 -1.0934  0.1752
  833MOL0     H 9894   6.774   1.830   0.457 -1.2876  1.7710  1.8359
  833MOL0     H 9895   6.973   1.676   0.428 -0.7650 -0.9937  0.3233
  833MOL0     H 9896   6.823   1.583   0.473 -0.8154 -0.3690  2.7708
  833MOL0     H 9897   6.916   1.553   0.682  0.0966  0.3495  0.4794
  833MOL0     H 9898   7.037   1.683   0.668 -0.1775  0.2694  0.9557
  833MOL0     H 9899   7.032   1.426   0.502  0.1456 -0.3963 -0.3162
  833MOL0     H 9900   7.166   1.543   0.509  1.1122 -0.7429  0.6720
  833MOL0     H 9901   7.233   1.374   0.643  0.0124 -1.0364 -0.4322
  833MOL0     H 9902   7.076   1.342   0.725 -2.0255  0.5761 -0.6517
  833MOL0     H 9903   7.072   1.544   0.834  0.5553  0.2241  0.0634
  833MOL0     H 9904   7.231   1.595   0.779 -1.4387  0.7705 -1.6473
  833MOL0     H 9905   7.352   1.431   0.913  0.4499  2.7746  1.9207
  833MOL0     H 9906   7.241   1.536   1.009  3.8496  0.7821  0.1095
  833MOL0     H 9907   7.188   1.250   0.902  0.1300  0.4656 -0.3985
  833MOL0     H 9908   7.072   1.336   1.003 -0.1627  1.2206 -2.6777
  833MOL0     H 9909   7.351   1.416   1.195  0.0440 -0.1043 -3.4303
  833MOL0     H 9910   7.524   1.318   1.359  3.2744 -2.4368 -1.3509
  833MOL0     H 9911   7.519   1.149   1.405  0.7331  0.2725 -0.1766
  833MOL0     H 9912   7.309   1.176   1.539 -1.3256  0.5008 -0.2539
  833MOL0     H 9913   7.323   1.346   1.500 -0.2530 -0.7561 -0.8919
  833MOL0     H 9914   7.404   1.401   1.688  1.0614  0.2108  1.7019
  833MOL0     H 9915   7.445   1.232   1.728 -1.4918 -0.0831 -0.3459
  833MOL0     H 9916   7.621   1.407   1.550 -0.8657  0.7055  0.0382
  833MOL0     H 9917   7.661   1.242   1.603  0.4915  0.6158 -1.1463
  833MOL0     H 9918   7.856   1.333   1.584 -1.6145  0.9787  0.4220
  833MOL0     H 9919   8.047   1.479   1.524 -1.2835  1.1952 -0.8500
  833MOL0     H 9920   8.415   1.729   1.843  0.4301  1.1569  1.6103
  833MOL0     H 9921   8.609   1.897   1.794  0.7741 -0.3788 -3.1305
  833MOL0     H 9922   8.538   2.304   1.701 -0.8602  0.6545 -2.2246
  833MOL0     H 9923   8.517   2.241   1.548 -0.3372 -0.8227  0.5919
  833MOL0     H 9924   8.793   2.306   1.648  0.2840  0.6664 -1.1360
  833MOL0     H 9925   8.691   2.396   1.532  1.0133  0.2989 -0.7597
  833MOL0     H 9926   8.671   2.172   1.399  0.1831 -0.2072 -0.3311
  833MOL0     H 9927   8.804   2.121   1.495  5.3946  2.6184 -0.2348
  833MOL0     H 9928   8.766   2.321   1.276  2.6487  0.6714 -1.6017
  833MOL0     H 9929   8.862   2.389   1.405 -1.5918  1.1828 -1.7113
  833MOL0     H 9930   8.898   2.134   1.249 -2.1466  1.2450  0.0470
  833MOL0     H 9931   8.990   2.173   1.390 -2.2433 -0.9709  0.9211
  833MOL0     H 9932   9.079   2.371   1.287  0.0983  0.2630  0.1190
  833MOL0     H 9933   8.998   2.346   1.131  1.8492  0.6595 -0.2628
  833MOL0     H 9934   9.232   2.273   1.131  2.3916 -1.9952  2.1040
  833MOL0     H 9935   9.201   2.160   1.252  1.1091  1.0975 -1.8234
  833MOL0     H 9936   9.023   2.170   1.008  2.1428  4.2405  1.6356
  833MOL0     H 9937   9.054   2.027   1.110 -3.1015  1.6396  0.1824
  833MOL0     H 9938   8.325   2.173   1.636 -4.7865 -0.2347  1.0722
  833MOL0     H 9939   8.154   1.988   1.641  1.2368  2.7826 -2.4401
  833MOL0     H 9940   7.908   1.749   1.822  3.3127 -0.9868  1.1737
  833MOL0     H 9941   7.725   1.588   1.889  0.2717  0.3252 -0.3782
  833MOL0     H 9942   6.616   1.680   0.421 -0.1251 -0.2468  0.3423
  833MOL0     H 9943   6.356   1.697   0.386  0.4743 -0.2696 -0.1866
  833MOL0     H 9944   6.044   1.977   0.379 -0.0421  0.2504  1.5029
  833MOL0     H 9945   5.824   2.024   0.262  0.1146  1.7813  1.7379
  833MOL0     H 9946   5.501   1.903   0.127  0.8081  0.7940 -1.2997
  833MOL0     H 9947   5.668   1.939   0.134 -0.1105 -2.3635 -0.1350
  833MOL0     H 9948   5.637   2.147   0.233  0.2743  0.8749  0.4827
  833MOL0     H 9949   5.521   2.138   0.096  1.4135 -0.1202 -0.5658
  833MOL0     H 9950   5.451   2.109   0.387 -0.4717 -1.4674 -0.9559
  833MOL0     H 9951   5.329   2.065   0.259  0.0957 -0.3068  0.6627
  833MOL0     H 9952   5.466   2.315   0.337  1.3346  0.8961 -0.9716
  833MOL0     H 9953   5.356   2.310   0.191  1.5307 -2.1071 -1.0243
  833MOL0     H 9954   5.120   2.403   0.527  0.9199  1.7208 -0.7358
  833MOL0     H 9955   5.662   1.657   0.433 -0.2428 -0.0570  0.2402
  833MOL0     H 9956   5.875   1.614   0.527 -1.2859  0.8844  1.0546
  834MOL0     O 9957   2.387   7.788   2.023  0.3385 -0.4028  0.2237
  834MOL0     C 9958   2.472   7.747   1.945 -0.3851  1.0325 -0.7256
  834MOL0     O 9959   2.606   7.788   1.945 -0.0154 -0.7589 -0.3514
  834MOL0     C 9960   2.632   7.903   2.020 -0.1495  0.2455 -0.2322
  834MOL0     C 9961   2.577   8.019   2.008  0.5966 -0.5630 -0.1311
  834MOL0     C 9962   2.605   8.125   2.097 -0.0043  0.4721  0.1768
  834MOL0     C 9963   2.724   8.111   2.166 -0.2515 -0.5700  0.6898
  834MOL0     O 9964   2.754   8.233   2.235 -0.1704  0.2945 -0.6567
  834MOL0     C 9965   2.890   8.256   2.278  0.2223  0.5193 -0.0521
  834MOL0     C 9966   2.921   8.405   2.309  0.9872 -0.5908  0.8594
  834MOL0     C 9967   3.063   8.442   2.352 -0.4853  0.6775 -1.0114
  834MOL0     C 9968   3.096   8.400   2.501  0.2251  0.1146 -0.3165
  834MOL0     C 9969   3.247   8.400   2.518 -1.0448 -0.5667 -0.1694
  834MOL0     C 9970   3.295   8.329   2.647  0.4186  0.1082  0.1432
  834MOL0     C 9971   3.447   8.327   2.644  0.7613 -0.3393 -1.1461
  834MOL0     C 9972   3.496   8.234   2.758 -0.5752 -0.9484 -0.2051
  834MOL0     N 9973   3.447   8.294   2.887 -0.1970  0.6857  0.2277
  834MOL0     C 9974   3.350   8.228   2.969 -0.2425 -0.0071  0.1630
  834MOL0     C 9975   3.379   8.284   3.095 -0.2016 -0.6665  0.3210
  834MOL0     C 9976   3.310   8.257   3.221  0.1830 -0.2344  0.6680
  834MOL0     C 9977   3.272   8.369   3.306 -0.0166 -0.6222  0.1311
  834MOL0     C 9978   3.385   8.439   3.389  0.1222  0.1666  0.5197
  834MOL0     C 9979   3.352   8.579   3.440  0.2519 -0.4110  0.5010
  834MOL0     O 9980   3.476   8.655   3.467  0.6541 -0.2048 -0.0195
  834MOL0     C 9981   3.508   8.661   3.600  0.2179  0.0893 -0.6564
  834MOL0     C 9982   3.464   8.768   3.685  0.6177 -0.4343  0.3165
  834MOL0     C 9983   3.506   8.780   3.816  0.6218  0.5015  0.2853
  834MOL0     C 9984   3.584   8.688   3.880  0.1726  0.7687  1.2050
  834MOL0     C 9985   3.630   8.702   4.023  0.2487 -0.9285  0.3729
  834MOL0     O 9986   3.732   8.620   4.059 -0.1594  0.4766  0.0628
  834MOL0     C 9987   3.805   8.650   4.172  0.6016  0.2061  0.5343
  834MOL0     C 9988   3.805   8.552   4.278  0.1852 -0.3512 -0.3531
  834MOL0     C 9989   3.890   8.580   4.385 -0.2984 -0.5623 -0.5407
  834MOL0     C 9990   3.978   8.684   4.393 -0.1827 -0.3472  0.3288
  834MOL0     O 9991   4.072   8.678   4.493 -0.4045 -0.1253 -0.4549
  834MOL0     C 9992   4.204   8.719   4.474 -0.4949  0.4000 -0.1791
  834MOL0     C 9993   4.288   8.631   4.575  0.5911 -0.5805 -0.0632
  834MOL0     C 9994   4.267   8.483   4.579 -0.0410 -0.4524  0.3041
  834MOL0     C 9995   4.347   8.414   4.467 -0.5058  0.0746  0.2143
  834MOL0     C 9996   4.284   8.290   4.404  0.4351 -0.4708 -0.4968
  834MOL0     C 9997   4.194   8.344   4.289 -0.1024  1.8750 -0.0377
  834MOL0     C 9998   4.131   8.231   4.205 -0.5962  0.5685  0.9286
  834MOL0     C 9999   4.023   8.154   4.280  0.3698  1.2654  0.0300
  834MOL0    Cl10000   4.001   7.975   4.219 -0.0743  0.3603 -0.2808
  834MOL0     C10001   3.988   8.764   4.279 -0.9739 -0.1744 -0.1243
  834MOL0     C10002   3.894   8.754   4.174 -0.2144 -0.0786  0.3614
  834MOL0     O10003   3.585   8.789   4.096 -0.5694  0.7757  1.1566
  834MOL0     C10004   3.621   8.580   3.798  0.7010  0.5902 -0.1261
  834MOL0     C10005   3.584   8.567   3.664 -0.8843 -0.2917 -0.7640
  834MOL0     N10006   3.488   8.365   3.082  0.1978 -0.2511  0.0525
  834MOL0     N10007   3.512   8.387   2.960 -0.3008  0.0468  0.9297
  834MOL0     C10008   2.797   7.991   2.175 -0.0524 -0.2809  0.8007
  834MOL0     C10009   2.748   7.886   2.106 -1.1571 -0.1870  0.5866
  834MOL0     C10010   2.440   7.644   1.855  1.0848 -0.3751 -0.6576
  834MOL0     C10011   2.312   7.631   1.788  0.6070  0.4256  0.4088
  834MOL0     C10012   2.293   7.541   1.683 -0.0843  0.3204 -0.6058
  834MOL0     C10013   2.391   7.441   1.656  0.6769 -0.3804  0.2610
  834MOL0     O10014   2.358   7.341   1.561  0.3862 -0.6004 -0.3780
  834MOL0     C10015   2.375   7.212   1.614  0.3578 -0.5790 -0.6506
  834MOL0     C10016   2.504   7.166   1.551 -0.4325  0.0520 -0.0217
  834MOL0     C10017   2.532   7.027   1.591 -0.5664 -0.4384  0.1118
  834MOL0     C10018   2.663   6.986   1.531  0.5756 -0.0309 -0.4558
  834MOL0     C10019   2.702   6.861   1.594  0.6229 -0.3149  0.1630
  834MOL0     C10020   2.732   6.758   1.649  0.5427  0.6383  0.1774
  834MOL0     C10021   2.512   7.458   1.712 -0.1173 -1.2264  0.3002
  834MOL0     C10022   2.540   7.558   1.804 -0.1220 -0.4641  0.5995
  834MOL0     H10023   2.493   8.040   1.943  0.3583 -0.6815  0.1334
  834MOL0     H10024   2.557   8.221   2.082  1.3485  0.8001 -2.8140
  834MOL0     H10025   2.965   8.226   2.204 -0.9010  1.8767 -1.8202
  834MOL0     H10026   2.897   8.200   2.372  1.8283  0.8149  0.0285
  834MOL0     H10027   2.854   8.445   2.386 -0.6405 -0.3151 -0.6460
  834MOL0     H10028   2.907   8.465   2.219 -0.8142  3.3823  3.4915
  834MOL0     H10029   3.084   8.548   2.339  2.7700  0.4888  1.3485
  834MOL0     H10030   3.133   8.400   2.280  1.9337  1.1715  0.9187
  834MOL0     H10031   3.042   8.464   2.571  0.7124 -2.2619  2.3813
  834MOL0     H10032   3.057   8.300   2.520  2.0638 -0.6184 -0.1409
  834MOL0     H10033   3.283   8.502   2.532  2.4256 -1.8141  1.3733
  834MOL0     H10034   3.290   8.356   2.427  2.5504  2.0784  0.0224
  834MOL0     H10035   3.256   8.227   2.647  0.5555  0.0275 -1.6153
  834MOL0     H10036   3.260   8.382   2.736 -0.3167  1.4911 -0.9249
  834MOL0     H10037   3.485   8.298   2.545 -0.5208 -2.4039 -1.0667
  834MOL0     H10038   3.480   8.431   2.651 -2.9993  0.8817  1.1400
  834MOL0     H10039   3.605   8.237   2.763 -0.6449  0.0668  1.1352
  834MOL0     H10040   3.466   8.129   2.745 -0.8374 -0.7172 -1.6111
  834MOL0     H10041   3.273   8.152   2.958 -3.9050  3.2177  1.2238
  834MOL0     H10042   3.383   8.191   3.269  0.6377 -2.3856 -2.6038
  834MOL0     H10043   3.221   8.193   3.212  0.8479 -1.2080  0.8401
  834MOL0     H10044   3.211   8.318   3.381 -2.4940  0.2851 -1.1335
  834MOL0     H10045   3.211   8.441   3.251  0.4498  0.3139  0.8105
  834MOL0     H10046   3.413   8.373   3.471 -1.1045  2.7085  3.1886
  834MOL0     H10047   3.472   8.438   3.323 -0.1188 -4.3971  0.0044
  834MOL0     H10048   3.304   8.565   3.538  2.0867  0.0093  1.5070
  834MOL0     H10049   3.279   8.628   3.375  0.1501 -0.5727  0.4937
  834MOL0     H10050   3.390   8.835   3.642  1.4565 -0.0813 -0.6109
  834MOL0     H10051   3.472   8.860   3.882 -2.4396 -0.7742  0.4117
  834MOL0     H10052   3.729   8.475   4.286  0.9021 -0.9154  1.8171
  834MOL0     H10053   3.898   8.513   4.471  0.0215 -1.2903 -1.1307
  834MOL0     H10054   4.221   8.825   4.492  0.6102  0.7082 -2.5395
  834MOL0     H10055   4.229   8.693   4.370  2.0645  4.0267 -0.6456
  834MOL0     H10056   4.250   8.673   4.669  0.8227 -1.0503  0.2476
  834MOL0     H10057   4.395   8.652   4.579  0.8765 -2.0110  0.4693
  834MOL0     H10058   4.160   8.463   4.566  0.0990 -0.2070 -1.5217
  834MOL0     H10059   4.292   8.456   4.682 -2.8974  2.1100  1.8432
  834MOL0     H10060   4.396   8.477   4.392 -2.2435 -1.4901 -2.4186
  834MOL0     H10061   4.430   8.381   4.530 -1.7308  1.8061  2.9280
  834MOL0     H10062   4.225   8.251   4.487  1.5976 -0.9490  0.1181
  834MOL0     H10063   4.365   8.225   4.370 -0.2765 -2.8546  2.0865
  834MOL0     H10064   4.266   8.399   4.228  1.6038 -0.7856 -0.5544
  834MOL0     H10065   4.112   8.408   4.322 -1.6970 -0.7580  1.4261
  834MOL0     H10066   4.091   8.276   4.114 -3.5328 -0.3384  1.6322
  834MOL0     H10067   4.211   8.162   4.179 -2.4501 -1.3309  0.0214
  834MOL0     H10068   3.931   8.203   4.247  1.3841  2.5746 -0.9553
  834MOL0     H10069   4.039   8.161   4.388  0.5001 -0.2394  0.1255
  834MOL0     H10070   4.071   8.834   4.281 -0.2521 -0.8653 -2.4888
  834MOL0     H10071   3.888   8.823   4.090 -2.3530 -1.6899 -0.9164
  834MOL0     H10072   3.692   8.506   3.834 -1.0722 -0.6276  1.0291
  834MOL0     H10073   3.609   8.486   3.597  1.9101  0.6109 -0.9537
  834MOL0     H10074   2.893   7.986   2.225  0.2215  0.9467  0.4540
  834MOL0     H10075   2.788   7.785   2.105  0.9601  0.5557 -1.8125
  834MOL0     H10076   2.240   7.702   1.828  1.8001  0.1961  3.2135
  834MOL0     H10077   2.195   7.534   1.637  0.3624 -0.7450 -1.4422
  834MOL0     H10078   2.285   7.151   1.600  0.4885 -1.4622  1.8744
  834MOL0     H10079   2.396   7.209   1.721  1.3229 -1.3906 -0.8440
  834MOL0     H10080   2.501   7.182   1.443  2.9057  3.0244  0.1721
  834MOL0     H10081   2.586   7.225   1.591  2.4616 -2.0149 -2.4189
  834MOL0     H10082   2.440   6.971   1.572 -2.6042  2.4155  0.9671
  834MOL0     H10083   2.549   7.029   1.699  0.7003  0.9491 -0.0826
  834MOL0     H10084   2.642   6.954   1.428  0.3071  1.0652 -0.7523
  834MOL0     H10085   2.738   7.064   1.546  0.0915  0.9570 -2.7728
  834MOL0     H10086   2.737   6.660   1.694 -0.9091  0.8559  0.8675
  834MOL0     H10087   2.601   7.399   1.690 -0.9649 -2.3590 -0.1979
  834MOL0     H10088   2.645   7.560   1.830  0.2115 -2.4716 -0.4500
  835MOL0     O10089   8.394   6.709   6.161 -0.3563 -0.3020 -0.1653
  835MOL0     C10090   8.514   6.731   6.168  0.1579  0.0811  0.6761
  835MOL0     O10091   8.591   6.718   6.052  1.2745  0.8375  0.0223
  835MOL0     C10092   8.567   6.629   5.947  0.0158 -0.2048 -0.0786
  835MOL0     C10093   8.485   6.510   5.966 -0.1426  0.4405 -0.1602
  835MOL0     C10094   8.457   6.412   5.860 -0.0066 -0.9703 -0.4222
  835MOL0     C10095   8.500   6.427   5.733 -0.3384 -1.2775  0.2518
  835MOL0     O10096   8.467   6.330   5.642 -0.3751 -0.2079 -0.6046
  835MOL0     C10097   8.553   6.325   5.522 -0.3697 -1.1536  0.4780
  835MOL0     C10098   8.549   6.195   5.458 -0.6089 -0.1755  0.0064
  835MOL0     C10099   8.608   6.082   5.554 -0.0613 -0.2747  0.8092
  835MOL0     C10100   8.569   5.939   5.515  0.3621  0.3228  0.2936
  835MOL0     C10101   8.658   5.836   5.588  0.2471  0.8994 -0.5273
  835MOL0     C10102   8.595   5.692   5.566 -0.0205  0.1066 -0.9498
  835MOL0     C10103   8.588   5.667   5.412 -0.6515 -0.8928  0.3874
  835MOL0     C10104   8.603   5.516   5.371 -0.4535 -0.2304  0.2767
  835MOL0     N10105   8.610   5.495   5.230  0.3561  0.2884 -0.6206
  835MOL0     C10106   8.505   5.477   5.143  0.0447 -0.0725 -0.5285
  835MOL0     C10107   8.571   5.460   5.023  1.1537  0.0289  0.5350
  835MOL0     C10108   8.503   5.431   4.888 -0.3466  0.0546  0.8938
  835MOL0     C10109   8.458   5.287   4.873 -0.0517  0.2663 -0.3717
  835MOL0     C10110   8.572   5.170   4.851  0.9140 -0.3809 -0.7273
  835MOL0     C10111   8.523   5.023   4.842  0.7058  0.8989  0.3916
  835MOL0     O10112   8.418   4.976   4.935 -0.0724  0.3925  0.1194
  835MOL0     C10113   8.312   4.929   4.870  0.5122  0.3950 -0.3223
  835MOL0     C10114   8.282   4.801   4.863 -0.4347  0.0540 -0.0670
  835MOL0     C10115   8.175   4.755   4.788  0.3779 -0.6767  0.8318
  835MOL0     C10116   8.092   4.853   4.725 -0.5296 -0.0976  0.0370
  835MOL0     C10117   7.985   4.804   4.640  0.3855 -0.2667 -0.2697
  835MOL0     O10118   7.958   4.674   4.657  0.2619  0.1976 -0.5033
  835MOL0     C10119   7.859   4.615   4.598  0.0222 -0.0424  0.7324
  835MOL0     C10120   7.852   4.568   4.463 -1.0101  0.7767 -0.6839
  835MOL0     C10121   7.736   4.495   4.412 -0.2883  0.3742 -0.2749
  835MOL0     C10122   7.614   4.480   4.500 -0.1962  0.4070  0.4472
  835MOL0     O10123   7.500   4.407   4.463  0.6385 -1.5565 -0.8195
  835MOL0     C10124   7.495   4.349   4.329  0.5727 -0.3632 -0.0981
  835MOL0     C10125   7.354   4.281   4.299 -0.4882  0.7469 -0.1162
  835MOL0     C10126   7.261   4.398   4.278 -0.0443  0.5820 -0.5767
  835MOL0     C10127   7.119   4.346   4.270 -0.1178  0.2326 -0.1643
  835MOL0     C10128   7.031   4.469   4.263  0.0752 -0.8790  0.4128
  835MOL0     C10129   6.879   4.419   4.264 -0.4608  0.0489  0.2344
  835MOL0     C10130   6.774   4.524   4.269 -1.0333  1.0577 -0.1278
  835MOL0     C10131   6.745   4.562   4.411  0.4481 -0.4442 -0.4957
  835MOL0    Cl10132   6.590   4.674   4.434 -0.1046 -0.0827  1.1090
  835MOL0     C10133   7.628   4.529   4.626  0.2504 -0.7834 -0.1388
  835MOL0     C10134   7.743   4.586   4.672 -0.7180  0.2633  1.0604
  835MOL0     O10135   7.932   4.884   4.559  0.4312 -0.4418  0.2395
  835MOL0     C10136   8.103   4.987   4.763 -0.5028  0.6017  0.1852
  835MOL0     C10137   8.222   5.025   4.830  0.2984  0.7315 -0.4212
  835MOL0     N10138   8.706   5.460   5.034 -0.1882 -0.2109  1.3860
  835MOL0     N10139   8.726   5.488   5.160 -1.0051 -0.3241  0.7074
  835MOL0     C10140   8.580   6.552   5.708  0.3588 -0.1667  0.5866
  835MOL0     C10141   8.611   6.645   5.810  0.3692 -0.2760 -0.1034
  835MOL0     C10142   8.576   6.795   6.286  0.2718  0.8333 -0.6134
  835MOL0     C10143   8.706   6.827   6.286 -0.2582 -0.0689 -0.9657
  835MOL0     C10144   8.765   6.882   6.408 -0.4909 -0.4153  1.0608
  835MOL0     C10145   8.686   6.889   6.527  0.0579  0.4938 -0.1224
  835MOL0     O10146   8.753   6.928   6.642  0.2867 -0.0945 -0.1202
  835MOL0     C10147   8.740   7.071   6.661 -0.0391 -0.6052 -0.6196
  835MOL0     C10148   8.844   7.126   6.765  1.0269 -0.7176  0.8924
  835MOL0     C10149   8.828   7.083   6.907  0.1457  0.3399  0.0714
  835MOL0     C10150   8.715   7.154   6.991  1.1409  0.7091 -0.2787
  835MOL0     C10151   8.579   7.098   6.978 -0.0070  0.2882 -0.5112
  835MOL0     C10152   8.462   7.090   6.958 -0.1554 -0.2546 -1.2151
  835MOL0     C10153   8.548   6.878   6.512  0.6570  0.1644  0.2983
  835MOL0     C10154   8.495   6.826   6.395 -0.0966  0.6336  0.7360
  835MOL0     H10155   8.445   6.475   6.060 -0.4826 -2.1734 -1.1889
  835MOL0     H10156   8.386   6.337   5.894 -1.7199  0.9191  0.3848
  835MOL0     H10157   8.659   6.338   5.546  0.2500 -3.6211 -0.6160
  835MOL0     H10158   8.526   6.398   5.445 -2.2634 -0.0218  2.1063
  835MOL0     H10159   8.611   6.200   5.368 -0.5343 -0.5969  0.0331
  835MOL0     H10160   8.451   6.172   5.417  0.4618 -0.8395 -2.3758
  835MOL0     H10161   8.581   6.106   5.657 -1.0048  1.0823  0.2726
  835MOL0     H10162   8.716   6.091   5.543 -0.0046 -2.1268 -0.9150
  835MOL0     H10163   8.465   5.917   5.542 -0.0459 -1.5413 -2.4172
  835MOL0     H10164   8.582   5.933   5.407  0.2370  0.8240  0.2527
  835MOL0     H10165   8.672   5.866   5.692 -0.1105  1.1203 -0.5407
  835MOL0     H10166   8.756   5.838   5.538 -0.2935 -5.7606 -2.8673
  835MOL0     H10167   8.497   5.711   5.610  0.0727  5.3024 -2.3303
  835MOL0     H10168   8.648   5.613   5.619 -4.1412 -1.8131  0.6526
  835MOL0     H10169   8.494   5.720   5.392  1.4530  3.4933  0.7575
  835MOL0     H10170   8.673   5.722   5.370 -0.1116 -0.8123  1.5469
  835MOL0     H10171   8.520   5.457   5.413 -1.1019 -0.6762 -1.5157
  835MOL0     H10172   8.691   5.473   5.420 -3.2333 -4.8455  1.9108
  835MOL0     H10173   8.401   5.469   5.171  0.2485 -0.4694  0.1213
  835MOL0     H10174   8.580   5.444   4.811  1.2998 -3.1333  1.8386
  835MOL0     H10175   8.419   5.502   4.885 -1.5653 -1.3385 -1.4931
  835MOL0     H10176   8.388   5.279   4.789 -1.0441 -0.7814  0.5224
  835MOL0     H10177   8.399   5.266   4.963 -2.1116  1.2430 -1.4344
  835MOL0     H10178   8.627   5.207   4.763  0.3822  0.4306 -0.7292
  835MOL0     H10179   8.640   5.191   4.934  1.9629 -0.4236 -1.5549
  835MOL0     H10180   8.614   4.963   4.854 -0.5706 -0.7396  2.5433
  835MOL0     H10181   8.489   5.004   4.740  3.2361  3.4428 -1.0819
  835MOL0     H10182   8.339   4.717   4.899  0.3889 -0.3425 -2.1407
  835MOL0     H10183   8.163   4.647   4.782 -2.6795 -0.3740 -3.6204
  835MOL0     H10184   7.945   4.566   4.407  0.5906  0.5512  1.8537
  835MOL0     H10185   7.742   4.454   4.312  1.2055 -1.5861  0.5464
  835MOL0     H10186   7.575   4.275   4.328  0.6189 -0.3218  0.3227
  835MOL0     H10187   7.505   4.428   4.253  1.4476  0.6840  1.0673
  835MOL0     H10188   7.322   4.210   4.376 -2.6868  2.2045  0.3953
  835MOL0     H10189   7.357   4.217   4.211 -3.0958  1.6034 -0.9227
  835MOL0     H10190   7.291   4.455   4.189  0.2442  0.7963 -0.3445
  835MOL0     H10191   7.271   4.463   4.365  1.8869  0.5640 -0.7291
  835MOL0     H10192   7.106   4.295   4.174  1.6191  0.9750 -0.8465
  835MOL0     H10193   7.088   4.276   4.348  0.8913 -0.4479 -0.3558
  835MOL0     H10194   7.039   4.540   4.180 -3.4690  0.0215  0.6735
  835MOL0     H10195   7.047   4.541   4.343 -0.6179  1.6071 -1.5685
  835MOL0     H10196   6.861   4.366   4.358 -3.5764  0.5049  0.0020
  835MOL0     H10197   6.878   4.353   4.177  2.2373  0.4332 -0.1791
  835MOL0     H10198   6.792   4.611   4.205  0.8008 -0.7718 -2.2386
  835MOL0     H10199   6.675   4.502   4.228 -2.4382 -0.5360  3.5947
  835MOL0     H10200   6.833   4.614   4.450  1.2359 -2.2210  0.1993
  835MOL0     H10201   6.732   4.471   4.471  0.1744 -1.8072 -2.5393
  835MOL0     H10202   7.545   4.515   4.694  0.0263 -0.8830 -0.4345
  835MOL0     H10203   7.736   4.629   4.772  0.4273 -2.5677  2.4712
  835MOL0     H10204   8.025   5.060   4.741  0.6913  1.2104 -2.4618
  835MOL0     H10205   8.249   5.127   4.858  1.7352  0.6161 -1.2464
  835MOL0     H10206   8.614   6.562   5.606  1.2924  1.2751  1.0080
  835MOL0     H10207   8.663   6.737   5.786 -2.8600  1.3924 -1.2256
  835MOL0     H10208   8.770   6.796   6.204 -3.2905 -0.4293 -3.3946
  835MOL0     H10209   8.873   6.894   6.412 -0.1252 -2.8890  0.3759
  835MOL0     H10210   8.644   7.107   6.700  0.2239  0.2300 -0.7326
  835MOL0     H10211   8.745   7.118   6.562 -5.3185 -1.0206 -1.3744
  835MOL0     H10212   8.942   7.086   6.737 -0.0133 -2.4784 -0.4224
  835MOL0     H10213   8.856   7.234   6.754  0.3049 -0.6217  1.0249
  835MOL0     H10214   8.918   7.122   6.954  1.7062 -0.0232 -2.4332
  835MOL0     H10215   8.809   6.976   6.926 -3.2880  0.7498 -0.3654
  835MOL0     H10216   8.744   7.158   7.096  3.3815 -2.0013 -0.6602
  835MOL0     H10217   8.714   7.255   6.948 -1.0274 -0.2464 -2.7296
  835MOL0     H10218   8.356   7.097   6.957 -0.1988 -0.7808 -0.8060
  835MOL0     H10219   8.493   6.909   6.601  1.4666  0.6926  0.6226
  835MOL0     H10220   8.387   6.831   6.388  0.0223  1.2234 -3.7703
  836MOL0     O10221   5.276   3.791   9.501  0.7350 -0.1878 -0.3865
  836MOL0     C10222   5.397   3.819   9.502 -0.4627 -0.4514 -0.2572
  836MOL0     O10223   5.471   3.845   9.616  0.5718  0.1395 -0.0923
  836MOL0     C10224   5.428   3.791   9.734  1.0765 -0.4411 -0.3019
  836MOL0     C10225   5.381   3.868   9.839 -1.1858 -1.4148 -0.2013
  836MOL0     C10226   5.345   3.807   9.966  0.3825  0.9762 -0.4723
  836MOL0     C10227   5.351   3.666   9.982 -0.6100 -0.3381 -0.7392
  836MOL0     O10228   5.339   3.616  10.103  0.4765 -0.2929 -0.0211
  836MOL0     C10229   5.424   3.513  10.160  0.0392 -0.5914  0.7611
  836MOL0     C10230   5.556   3.567  10.212 -0.6367 -0.4910 -0.3910
  836MOL0     C10231   5.667   3.598  10.110  0.5819  0.4230  0.1905
  836MOL0     C10232   5.796   3.663  10.170 -0.7023  0.0171  0.8401
  836MOL0     C10233   5.771   3.779  10.264 -0.5494 -1.1873  0.0281
  836MOL0     C10234   5.696   3.907  10.214  0.3665  0.3241  0.0403
  836MOL0     C10235   5.778   3.988  10.105  0.0433  0.0828 -0.7615
  836MOL0     C10236   5.728   3.950   9.960  0.0168 -0.6349  0.2238
  836MOL0     N10237   5.801   4.025   9.861 -0.3236  0.0093  0.8698
  836MOL0     C10238   5.889   3.975   9.757 -0.0145 -0.8543  0.1328
  836MOL0     C10239   5.940   4.094   9.705 -0.1004  0.1492 -1.7027
  836MOL0     C10240   6.051   4.119   9.615 -0.1719 -0.4537  0.1280
  836MOL0     C10241   6.194   4.120   9.672 -0.7801 -0.2144  0.0156
  836MOL0     C10242   6.310   4.156   9.584  0.2993  0.1329 -0.0824
  836MOL0     C10243   6.333   4.054   9.467 -0.1918  1.1672  0.2274
  836MOL0     O10244   6.479   4.059   9.461 -0.0536 -0.1824  1.2753
  836MOL0     C10245   6.554   3.943   9.445 -0.8082  0.9739  0.2217
  836MOL0     C10246   6.692   3.954   9.430 -0.3456 -0.1494 -0.1429
  836MOL0     C10247   6.773   3.840   9.378  0.5040  0.7930 -0.4258
  836MOL0     C10248   6.718   3.712   9.370 -0.1051  0.5672 -0.0639
  836MOL0     C10249   6.801   3.596   9.339 -0.3690  0.2503 -0.7389
  836MOL0     O10250   6.934   3.607   9.332  0.0120 -0.1665  0.4471
  836MOL0     C10251   7.005   3.505   9.266  0.4571 -0.2944 -0.0949
  836MOL0     C10252   7.121   3.455   9.330 -0.6787 -0.0691  0.5208
  836MOL0     C10253   7.212   3.375   9.265  0.2016 -0.2091  0.1102
  836MOL0     C10254   7.176   3.315   9.148 -0.0557  0.7763 -0.6324
  836MOL0     O10255   7.256   3.215   9.100 -0.0542 -0.6689  0.5651
  836MOL0     C10256   7.182   3.100   9.058 -0.2676 -0.2840  0.4867
  836MOL0     C10257   7.267   2.987   9.008  0.0924 -0.5986  0.6913
  836MOL0     C10258   7.235   2.860   9.085 -0.5569  0.8808 -0.1119
  836MOL0     C10259   7.304   2.859   9.219 -0.3506 -0.4028 -0.3076
  836MOL0     C10260   7.458   2.877   9.216  1.2461 -0.4138  1.0793
  836MOL0     C10261   7.531   2.851   9.349  0.6071  0.9078  0.0714
  836MOL0     C10262   7.497   2.953   9.456 -0.9177  0.3111  0.7090
  836MOL0     C10263   7.574   3.085   9.449  0.7853 -0.3860 -1.1892
  836MOL0    Cl10264   7.572   3.177   9.293  0.0855  0.2379 -0.3593
  836MOL0     C10265   7.067   3.362   9.081  0.7306 -0.8655  0.3587
  836MOL0     C10266   6.985   3.466   9.132 -0.0536  0.4868 -0.4481
  836MOL0     O10267   6.741   3.494   9.314 -0.1602  0.4759 -0.1875
  836MOL0     C10268   6.581   3.701   9.393  0.5072  0.1570 -0.7833
  836MOL0     C10269   6.501   3.818   9.412 -0.0684  0.4679  0.2467
  836MOL0     N10270   5.870   4.200   9.759  0.3665 -0.4172 -0.4377
  836MOL0     N10271   5.788   4.157   9.856 -0.2223  0.4617 -1.0179
  836MOL0     C10272   5.371   3.584   9.872  0.3886  0.2825 -0.0180
  836MOL0     C10273   5.415   3.647   9.753  0.1694 -1.4324  0.5947
  836MOL0     C10274   5.474   3.827   9.371  0.0745  0.2850  0.5151
  836MOL0     C10275   5.610   3.859   9.365  0.5602 -0.1564 -0.6573
  836MOL0     C10276   5.673   3.867   9.244 -0.1415 -0.3126  0.0210
  836MOL0     C10277   5.611   3.829   9.124  0.3181  0.1862 -0.2598
  836MOL0     O10278   5.686   3.838   9.013  0.5324  0.1370 -0.3500
  836MOL0     C10279   5.622   3.822   8.891 -0.8675  0.8225  0.4346
  836MOL0     C10280   5.626   3.666   8.854  0.2738 -0.5910 -0.1923
  836MOL0     C10281   5.759   3.593   8.896  0.1682 -0.4455  0.3724
  836MOL0     C10282   5.772   3.455   8.824 -0.1559  0.1259  0.2253
  836MOL0     C10283   5.687   3.353   8.876  0.3075  0.3434 -0.7910
  836MOL0     C10284   5.608   3.268   8.913  1.4102 -0.0295 -1.2094
  836MOL0     C10285   5.478   3.790   9.132 -0.9176 -0.0349  0.3761
  836MOL0     C10286   5.407   3.800   9.248  0.4963  0.0443 -0.0888
  836MOL0     H10287   5.396   3.974   9.822  0.8262 -1.9266 -2.1070
  836MOL0     H10288   5.333   3.869  10.054 -0.8034 -1.7444  1.4542
  836MOL0     H10289   5.447   3.428  10.094  3.0480 -2.2065  3.6301
  836MOL0     H10290   5.374   3.469  10.246 -2.4753 -0.2554 -0.4360
  836MOL0     H10291   5.599   3.494  10.281 -0.1050  0.5627  0.4287
  836MOL0     H10292   5.527   3.650  10.277  1.8007 -0.3412  0.6090
  836MOL0     H10293   5.627   3.655  10.025  2.2844 -1.0290 -1.7079
  836MOL0     H10294   5.710   3.505  10.071  1.1510  1.0246 -0.6680
  836MOL0     H10295   5.864   3.591  10.217 -0.0850  0.0627  0.0610
  836MOL0     H10296   5.856   3.700  10.086 -1.4477 -3.1687 -1.2626
  836MOL0     H10297   5.867   3.813  10.304 -1.4291  1.8776 -0.2414
  836MOL0     H10298   5.715   3.748  10.352 -0.3403 -1.2338  0.1464
  836MOL0     H10299   5.682   3.977  10.297  0.9492  1.1462 -0.5346
  836MOL0     H10300   5.598   3.881  10.172  0.7877 -1.7254  0.2306
  836MOL0     H10301   5.778   4.096  10.122  0.1772 -0.3571  2.5638
  836MOL0     H10302   5.887   3.978  10.111 -0.1965 -2.1118  1.0068
  836MOL0     H10303   5.623   3.981   9.961  0.3934  0.7087  1.8655
  836MOL0     H10304   5.743   3.843   9.943  1.3348 -0.2878 -0.9922
  836MOL0     H10305   5.918   3.871   9.747 -0.0544 -0.8678  0.1577
  836MOL0     H10306   6.038   4.220   9.575  3.8516  0.7059  1.2739
  836MOL0     H10307   6.045   4.047   9.533 -1.6542  0.3793 -0.5254
  836MOL0     H10308   6.228   4.021   9.705  0.3708 -1.1204 -3.5095
  836MOL0     H10309   6.195   4.190   9.756  6.3066  1.8446 -1.1451
  836MOL0     H10310   6.300   4.252   9.533 -3.1338  0.4355  0.9102
  836MOL0     H10311   6.393   4.165   9.655  0.7404 -1.6296 -0.3447
  836MOL0     H10312   6.280   4.093   9.380 -2.1420  0.7932  1.1947
  836MOL0     H10313   6.295   3.954   9.490  0.3170  0.8932 -0.0857
  836MOL0     H10314   6.731   4.055   9.442 -0.3961 -0.2903  1.4063
  836MOL0     H10315   6.871   3.854   9.334  0.7885 -3.3104 -1.4877
  836MOL0     H10316   7.130   3.492   9.432  0.3593 -0.6009  0.6357
  836MOL0     H10317   7.304   3.352   9.318 -0.5998  0.4557  1.8786
  836MOL0     H10318   7.109   3.134   8.984 -0.7587 -0.3051  0.9489
  836MOL0     H10319   7.119   3.068   9.142 -1.6624 -0.3403 -0.5500
  836MOL0     H10320   7.375   3.005   9.012  0.0677  0.5481 -1.8842
  836MOL0     H10321   7.234   2.968   8.906  1.7199  1.9340 -0.3939
  836MOL0     H10322   7.275   2.770   9.038  0.8598  3.0900 -3.4902
  836MOL0     H10323   7.130   2.832   9.097  0.0123 -1.2427  0.4431
  836MOL0     H10324   7.266   2.936   9.288  3.8390  0.7824  0.9881
  836MOL0     H10325   7.282   2.763   9.265 -1.8254  0.3130  0.5488
  836MOL0     H10326   7.476   2.981   9.188  0.0746 -0.7239 -0.9989
  836MOL0     H10327   7.503   2.825   9.131  1.2079  0.8838  0.2401
  836MOL0     H10328   7.638   2.847   9.325  1.0477 -1.6945  1.9991
  836MOL0     H10329   7.508   2.751   9.387  0.4031  0.8679 -0.1594
  836MOL0     H10330   7.391   2.980   9.450 -0.5817  1.3351 -2.3761
  836MOL0     H10331   7.525   2.909   9.553  4.8839  0.0667 -0.6939
  836MOL0     H10332   7.678   3.054   9.464  1.4527 -0.3768 -4.7249
  836MOL0     H10333   7.541   3.140   9.537 -0.7005 -0.2872 -1.7910
  836MOL0     H10334   7.047   3.323   8.982 -2.3343  1.5886 -0.1418
  836MOL0     H10335   6.904   3.519   9.082 -0.9488  2.3887  2.7266
  836MOL0     H10336   6.529   3.606   9.391  2.4511 -1.0485  1.1803
  836MOL0     H10337   6.396   3.788   9.405 -0.8294  2.4264  2.2942
  836MOL0     H10338   5.373   3.476   9.877 -1.3219  0.2585  0.9820
  836MOL0     H10339   5.442   3.577   9.675  1.1582 -1.0402  0.5731
  836MOL0     H10340   5.657   3.902   9.452  0.6718 -0.7869 -0.3992
  836MOL0     H10341   5.777   3.898   9.244  0.2157 -1.3683  1.8383
  836MOL0     H10342   5.673   3.875   8.810  1.6617 -1.8410  0.1262
  836MOL0     H10343   5.522   3.864   8.901 -1.0620  0.5471 -0.3243
  836MOL0     H10344   5.539   3.615   8.896 -0.0241  0.7782  0.9349
  836MOL0     H10345   5.622   3.645   8.747 -1.4017 -2.6658  0.1934
  836MOL0     H10346   5.757   3.579   9.005 -3.0404  1.1101  0.6285
  836MOL0     H10347   5.839   3.658   8.860 -1.6580  0.3981 -2.4035
  836MOL0     H10348   5.744   3.464   8.718  0.0986  2.7669  0.3305
  836MOL0     H10349   5.876   3.421   8.818  0.6467  1.9361  2.4568
  836MOL0     H10350   5.539   3.196   8.952  1.1872  0.5188 -0.5732
  836MOL0     H10351   5.422   3.759   9.044 -0.0933  1.2331 -0.6565
  836MOL0     H10352   5.299   3.787   9.245  0.4847 -1.2165  2.8026
  837MOL0     O10353   6.063   6.171  11.380 -0.3134 -0.2956  0.2473
  837MOL0     C10354   5.957   6.177  11.322 -0.0171  0.4886  0.3939
  837MOL0     O10355   5.838   6.126  11.368 -0.1024  0.7802  0.2665
  837MOL0     C10356   5.823   6.028  11.461 -0.7306  0.2699 -1.2040
  837MOL0     C10357   5.890   6.029  11.586 -0.2261 -0.4299 -0.2819
  837MOL0     C10358   5.874   5.920  11.678  0.4117 -0.4422 -0.2116
  837MOL0     C10359   5.804   5.803  11.642 -0.4545 -0.4601  0.2710
  837MOL0     O10360   5.809   5.704  11.733  0.9880  0.5173  0.2544
  837MOL0     C10361   5.680   5.634  11.741 -0.2538 -1.0372  0.2833
  837MOL0     C10362   5.687   5.607  11.888 -1.3895  0.3393 -0.3268
  837MOL0     C10363   5.576   5.516  11.942 -0.6713  0.3035  0.1723
  837MOL0     C10364   5.609   5.493  12.095  0.4142  0.6263 -0.4227
  837MOL0     C10365   5.471   5.439  12.156  1.0900 -0.9572  0.2022
  837MOL0     C10366   5.493   5.396  12.303  0.0534 -0.1706  0.7677
  837MOL0     C10367   5.356   5.359  12.365  0.3391 -0.2987 -0.3694
  837MOL0     C10368   5.300   5.481  12.434 -0.7834  0.0582 -0.2346
  837MOL0     N10369   5.264   5.471  12.582  0.2949 -0.8424  0.5121
  837MOL0     C10370   5.206   5.368  12.643 -0.1079  0.3337 -0.4750
  837MOL0     C10371   5.207   5.402  12.772  0.0311 -0.9451  0.0002
  837MOL0     C10372   5.186   5.316  12.900 -0.3604  0.1832  0.0198
  837MOL0     C10373   5.072   5.209  12.878 -0.9885 -0.7977  0.4016
  837MOL0     C10374   5.009   5.175  12.998  0.3013 -0.3138  0.5789
  837MOL0     C10375   5.106   5.107  13.098 -0.2573 -0.4043  0.3574
  837MOL0     O10376   5.187   5.201  13.180  0.5174  0.2900 -0.1730
  837MOL0     C10377   5.298   5.153  13.242 -0.8758 -0.4337  1.0990
  837MOL0     C10378   5.352   5.025  13.236 -0.3177  0.1243  0.1134
  837MOL0     C10379   5.468   4.992  13.308  0.0204  0.9313  0.1826
  837MOL0     C10380   5.523   5.089  13.400  0.0275  1.2444  0.6082
  837MOL0     C10381   5.646   5.046  13.485  0.7263  0.2556  0.3321
  837MOL0     O10382   5.696   5.141  13.565 -0.2794  0.2449  0.2779
  837MOL0     C10383   5.813   5.110  13.643  0.4089 -1.1253  0.0541
  837MOL0     C10384   5.808   5.140  13.780  0.1788 -0.2225 -0.0435
  837MOL0     C10385   5.931   5.132  13.856  0.8526 -0.4490  0.7837
  837MOL0     C10386   6.055   5.105  13.800 -1.9628  1.0974  0.2846
  837MOL0     O10387   6.183   5.096  13.869 -0.4063  0.4459  0.0844
  837MOL0     C10388   6.196   5.054  14.011  0.3367 -0.6041  0.4814
  837MOL0     C10389   6.130   4.912  14.043 -0.2831 -0.3708  0.2195
  837MOL0     C10390   6.147   4.864  14.191 -0.4434 -0.0870 -0.2624
  837MOL0     C10391   6.012   4.827  14.264 -0.8844  0.7983  0.1549
  837MOL0     C10392   6.007   4.815  14.416  0.3200 -0.2050  0.1587
  837MOL0     C10393   6.047   4.678  14.472 -0.1783  0.3053  0.9267
  837MOL0     C10394   5.957   4.556  14.436  0.6716  0.4223  0.0792
  837MOL0     C10395   5.807   4.576  14.441 -1.2138  0.4039 -0.5785
  837MOL0    Cl10396   5.743   4.618  14.599  0.6348 -0.2158 -0.4022
  837MOL0     C10397   6.058   5.075  13.660 -0.1429 -0.5674  0.0260
  837MOL0     C10398   5.943   5.083  13.589 -0.8638 -0.1431  0.5393
  837MOL0     O10399   5.680   4.927  13.481  0.3221 -0.1828 -0.1912
  837MOL0     C10400   5.470   5.212  13.402 -1.5609 -1.5765  0.2668
  837MOL0     C10401   5.368   5.245  13.315  0.6327  0.7276  0.3143
  837MOL0     N10402   5.281   5.517  12.788 -0.3856 -1.0499 -0.3728
  837MOL0     N10403   5.305   5.567  12.666 -1.2157  0.0429 -0.3435
  837MOL0     C10404   5.734   5.810  11.524 -0.5719  0.6909 -0.6080
  837MOL0     C10405   5.738   5.916  11.442 -0.2848 -0.5463  0.4285
  837MOL0     C10406   5.957   6.243  11.197 -0.1981  1.4877  0.7011
  837MOL0     C10407   6.078   6.280  11.140 -0.3263  0.7671 -0.6358
  837MOL0     C10408   6.088   6.323  11.008 -0.1957  0.4676  0.7426
  837MOL0     C10409   5.968   6.344  10.933 -0.1138 -0.3172 -0.2114
  837MOL0     O10410   5.963   6.400  10.807  0.2665  0.1999 -0.0203
  837MOL0     C10411   6.074   6.474  10.756 -0.6680 -0.6136  0.0412
  837MOL0     C10412   6.061   6.548  10.628 -0.0574 -0.9292 -0.1509
  837MOL0     C10413   5.934   6.639  10.621 -0.6867 -0.0091  0.2329
  837MOL0     C10414   5.941   6.771  10.528  0.0219  0.8692 -0.8177
  837MOL0     C10415   6.057   6.853  10.557 -0.7526 -0.1745  0.2840
  837MOL0     C10416   6.153   6.928  10.561 -0.4828  0.7215 -0.2881
  837MOL0     C10417   5.846   6.318  10.997 -0.5075 -0.4413  0.4127
  837MOL0     C10418   5.845   6.257  11.119 -0.1213  0.4346 -0.5732
  837MOL0     H10419   5.961   6.105  11.617  1.6271 -1.1725 -2.4484
  837MOL0     H10420   5.906   5.931  11.781  0.3733  1.4639 -0.3611
  837MOL0     H10421   5.681   5.541  11.684 -1.3999 -0.4527 -0.7371
  837MOL0     H10422   5.596   5.685  11.693  0.5875  0.3899  0.2483
  837MOL0     H10423   5.677   5.701  11.944  2.4176 -1.2234  3.4555
  837MOL0     H10424   5.788   5.577  11.915 -1.5934  0.2875  0.4087
  837MOL0     H10425   5.565   5.425  11.882 -1.7692  0.6633 -0.2029
  837MOL0     H10426   5.480   5.567  11.929 -1.1020 -0.1965  1.2327
  837MOL0     H10427   5.702   5.439  12.118 -0.0378 -0.7107 -1.6280
  837MOL0     H10428   5.623   5.592  12.140 -1.0911  1.8411 -2.4826
  837MOL0     H10429   5.438   5.353  12.097  4.6106 -2.1892 -0.2124
  837MOL0     H10430   5.403   5.525  12.151  1.7389 -0.3570  1.3005
  837MOL0     H10431   5.558   5.471  12.350 -0.3789  1.8392 -1.6219
  837MOL0     H10432   5.553   5.305  12.296  2.4872  1.4739 -2.8030
  837MOL0     H10433   5.280   5.315  12.298 -0.0062  0.9670 -0.8265
  837MOL0     H10434   5.360   5.276  12.436 -3.1593 -2.1393 -2.0380
  837MOL0     H10435   5.205   5.498  12.383  0.5154  2.1226 -2.1540
  837MOL0     H10436   5.360   5.572  12.420 -2.1981  0.7129 -2.6704
  837MOL0     H10437   5.156   5.284  12.596  0.1199  0.5379 -1.0804
  837MOL0     H10438   5.150   5.386  12.977 -3.7965 -1.1415 -0.1821
  837MOL0     H10439   5.275   5.260  12.929 -1.3189 -2.1187 -1.2583
  837MOL0     H10440   5.119   5.127  12.822 -1.0727 -0.1988 -0.5736
  837MOL0     H10441   4.992   5.259  12.823 -1.1440 -3.2622 -1.8428
  837MOL0     H10442   4.984   5.270  13.046  3.5683  1.0444 -0.0884
  837MOL0     H10443   4.921   5.113  12.986 -0.7412  1.4241 -1.4408
  837MOL0     H10444   5.167   5.031  13.049 -1.1948 -0.5868 -0.5591
  837MOL0     H10445   5.048   5.047  13.168  3.4208 -2.4510  1.9435
  837MOL0     H10446   5.310   4.943  13.179  0.4841 -0.1479 -0.0969
  837MOL0     H10447   5.532   4.906  13.299  1.1969  1.9341 -1.4173
  837MOL0     H10448   5.719   5.167  13.835 -0.2019 -0.7882 -0.3701
  837MOL0     H10449   5.912   5.159  13.960 -0.7308 -2.8163  1.1937
  837MOL0     H10450   6.134   5.121  14.071 -1.2140  0.7563 -2.4464
  837MOL0     H10451   6.301   5.056  14.042  0.4616 -0.2017  0.0512
  837MOL0     H10452   6.169   4.845  13.966  1.7412  1.7221 -0.6892
  837MOL0     H10453   6.022   4.927  14.034  0.0112  1.8146 -0.4132
  837MOL0     H10454   6.197   4.941  14.251 -0.8369  0.2167 -0.3200
  837MOL0     H10455   6.203   4.770  14.191  1.3596  0.9487 -0.8213
  837MOL0     H10456   5.935   4.893  14.223 -1.6940 -1.0366 -1.4756
  837MOL0     H10457   5.986   4.726  14.230 -0.1532  0.6667 -0.0314
  837MOL0     H10458   5.907   4.848  14.445  1.3942  1.6444  2.0268
  837MOL0     H10459   6.067   4.896  14.459  1.4054 -0.8420 -0.1177
  837MOL0     H10460   6.063   4.690  14.579  2.2240  1.1140  0.5420
  837MOL0     H10461   6.149   4.662  14.436 -0.9252 -0.9079 -0.7853
  837MOL0     H10462   5.988   4.507  14.343 -1.0488 -1.2132  0.3315
  837MOL0     H10463   5.982   4.486  14.516 -0.1693  3.0037  2.7855
  837MOL0     H10464   5.757   4.481  14.425  0.6139 -0.6381 -0.4472
  837MOL0     H10465   5.776   4.650  14.367  0.2468  3.2045  1.4076
  837MOL0     H10466   6.150   5.039  13.616  1.3328  4.2639 -1.3924
  837MOL0     H10467   5.958   5.055  13.485  3.4752 -0.5017  1.0886
  837MOL0     H10468   5.515   5.296  13.454 -2.6413 -0.5031 -0.4799
  837MOL0     H10469   5.331   5.347  13.315  2.9436  1.6933 -2.1330
  837MOL0     H10470   5.680   5.723  11.490 -0.9923  1.4520 -1.9626
  837MOL0     H10471   5.679   5.911  11.351  1.3593 -1.2514 -0.6481
  837MOL0     H10472   6.167   6.294  11.201 -0.8606  1.5639 -0.0231
  837MOL0     H10473   6.183   6.356  10.967 -0.3135 -0.3271 -0.1956
  837MOL0     H10474   6.159   6.407  10.742 -0.5247 -0.3981 -0.1160
  837MOL0     H10475   6.096   6.551  10.831 -1.5962 -1.4104  1.1891
  837MOL0     H10476   6.150   6.608  10.607 -0.0072 -1.4805 -1.6460
  837MOL0     H10477   6.055   6.473  10.548  4.3752 -3.1413  1.2631
  837MOL0     H10478   5.919   6.679  10.722 -0.0790 -1.7487  1.0479
  837MOL0     H10479   5.848   6.577  10.595 -0.0548 -0.9855  0.4367
  837MOL0     H10480   5.942   6.730  10.426 -1.0135 -3.0151  0.5673
  837MOL0     H10481   5.850   6.830  10.542 -2.1589 -2.4037 -0.0758
  837MOL0     H10482   6.241   6.986  10.582 -0.6846  0.8891  0.1075
  837MOL0     H10483   5.749   6.326  10.948  0.2580 -1.6942 -1.3702
  837MOL0     H10484   5.746   6.225  11.150 -0.5977 -0.6208 -2.9499
  838MOL0     O10485   2.580   1.328   5.261 -0.2512 -0.1192  0.2530
  838MOL0     C10486   2.518   1.244   5.316  0.0563  0.1508  0.0846
  838MOL0     O10487   2.544   1.108   5.329 -0.2277 -0.0475 -0.2696
  838MOL0     C10488   2.668   1.070   5.279  0.0922 -0.0737 -1.0133
  838MOL0     C10489   2.711   1.087   5.146  0.4697 -0.4561  0.7978
  838MOL0     C10490   2.830   1.031   5.098  0.1338 -0.3057 -0.0036
  838MOL0     C10491   2.917   0.972   5.193  0.0942  1.4985  0.2097
  838MOL0     O10492   3.041   0.911   5.174  0.2634  0.3467  0.9982
  838MOL0     C10493   3.107   0.969   5.062 -0.0824 -0.2494 -0.1523
  838MOL0     C10494   3.088   0.878   4.938 -1.6448  0.3456  0.4136
  838MOL0     C10495   3.121   0.934   4.794 -0.5871 -0.2536 -0.6524
  838MOL0     C10496   3.278   0.953   4.772  0.9675 -0.9165  0.6102
  838MOL0     C10497   3.295   1.029   4.635  0.0545 -1.2430  0.8085
  838MOL0     C10498   3.444   1.073   4.610 -0.7483  0.2187  0.1806
  838MOL0     C10499   3.462   1.122   4.467  1.1546  0.0620 -0.0634
  838MOL0     C10500   3.550   1.242   4.457  0.5742  0.2543  0.6969
  838MOL0     N10501   3.598   1.251   4.321 -1.2560 -0.2164 -0.6585
  838MOL0     C10502   3.596   1.367   4.248 -0.2333 -0.3475  0.0319
  838MOL0     C10503   3.669   1.343   4.135 -0.7053 -0.9937  0.7882
  838MOL0     C10504   3.697   1.445   4.028  0.3246 -0.3167 -0.0422
  838MOL0     C10505   3.837   1.447   3.983 -0.0778 -0.6356 -0.2467
  838MOL0     C10506   3.872   1.328   3.890  1.2246  0.4547  1.0796
  838MOL0     C10507   4.011   1.346   3.847  0.1080 -0.7882  0.8439
  838MOL0     O10508   4.108   1.362   3.951  0.7706 -0.5994  0.3915
  838MOL0     C10509   4.236   1.338   3.918 -0.3513 -0.6087 -0.1553
  838MOL0     C10510   4.329   1.390   4.008  1.2970 -0.7283 -0.6585
  838MOL0     C10511   4.466   1.383   3.994  0.7093  0.2283 -0.7311
  838MOL0     C10512   4.517   1.309   3.887 -0.6738 -0.7750 -0.2427
  838MOL0     C10513   4.665   1.297   3.860  0.3481 -0.9056 -1.2399
  838MOL0     O10514   4.748   1.331   3.971 -0.3687 -0.0935  0.6570
  838MOL0     C10515   4.888   1.348   3.956  0.6793  1.0229 -0.8301
  838MOL0     C10516   4.973   1.264   3.881  0.4643  0.2170 -0.4415
  838MOL0     C10517   5.111   1.283   3.875 -0.0956  0.4073 -0.0449
  838MOL0     C10518   5.163   1.394   3.935  0.4313  0.8232 -0.1044
  838MOL0     O10519   5.299   1.401   3.914  0.1500 -0.0568 -0.6156
  838MOL0     C10520   5.381   1.491   4.004  0.5128  0.1481 -0.1328
  838MOL0     C10521   5.489   1.555   3.922  0.2719  0.3038 -0.3314
  838MOL0     C10522   5.434   1.676   3.842 -0.5945 -0.1232  0.1351
  838MOL0     C10523   5.536   1.738   3.748  0.8571 -0.5895  0.6171
  838MOL0     C10524   5.471   1.846   3.654 -0.5207  0.1928 -0.2112
  838MOL0     C10525   5.382   1.776   3.549 -0.4994  0.8411 -0.3856
  838MOL0     C10526   5.324   1.885   3.456  1.2154  0.2459 -0.1949
  838MOL0     C10527   5.170   1.867   3.439  0.4724 -1.5802 -0.3588
  838MOL0    Cl10528   5.076   1.877   3.588 -0.4461  0.4017 -0.1236
  838MOL0     C10529   5.080   1.486   4.007  0.3393  0.3166 -0.4575
  838MOL0     C10530   4.948   1.458   4.013  0.4755  0.1115 -0.7154
  838MOL0     O10531   4.699   1.270   3.747  0.1584 -0.3193  0.2148
  838MOL0     C10532   4.420   1.267   3.793 -0.6892  0.6249 -0.6132
  838MOL0     C10533   4.284   1.271   3.808  0.3065 -0.1335  0.0318
  838MOL0     N10534   3.715   1.212   4.141  0.2998 -0.3169 -0.6253
  838MOL0     N10535   3.663   1.156   4.249 -0.4292  0.4489  0.6432
  838MOL0     C10536   2.866   0.955   5.324 -0.4017  0.1082  0.6557
  838MOL0     C10537   2.751   1.004   5.370 -0.3046 -0.1259  0.2694
  838MOL0     C10538   2.394   1.288   5.378 -0.4669  0.4580  0.3494
  838MOL0     C10539   2.299   1.194   5.428 -0.6088  0.3122  0.3374
  838MOL0     C10540   2.172   1.238   5.482  0.0260  0.0653  0.8308
  838MOL0     C10541   2.135   1.368   5.478 -0.4092 -0.3629 -0.8387
  838MOL0     O10542   2.009   1.418   5.506  0.3935 -0.5661 -0.0921
  838MOL0     C10543   1.919   1.317   5.553 -0.4436 -0.0248  0.2525
  838MOL0     C10544   1.786   1.373   5.579  1.7453 -0.5238 -0.0139
  838MOL0     C10545   1.745   1.461   5.468  0.0444  0.6523 -0.2377
  838MOL0     C10546   1.594   1.482   5.453 -0.7751 -0.9529 -0.1140
  838MOL0     C10547   1.555   1.569   5.564  0.6757 -0.4889  0.8852
  838MOL0     C10548   1.509   1.640   5.659 -0.2808  0.0310  0.1033
  838MOL0     C10549   2.226   1.466   5.430  0.4879  0.1387 -0.0620
  838MOL0     C10550   2.359   1.423   5.383 -0.1067 -0.4288  0.6116
  838MOL0     H10551   2.651   1.147   5.079  2.0156  1.8279  1.3312
  838MOL0     H10552   2.860   1.052   4.996 -2.5660  2.2573 -0.4156
  838MOL0     H10553   3.212   0.989   5.085 -0.6246  0.2027  2.1641
  838MOL0     H10554   3.078   1.070   5.034 -2.0045 -0.2410  1.5708
  838MOL0     H10555   2.987   0.837   4.934 -1.1453 -1.6972  4.0417
  838MOL0     H10556   3.157   0.793   4.943  0.7914  2.1345 -0.5426
  838MOL0     H10557   3.069   1.029   4.782  0.6491  0.3434 -1.5969
  838MOL0     H10558   3.075   0.868   4.720  2.3134 -1.7391 -1.3150
  838MOL0     H10559   3.301   1.014   4.859  0.8127  2.1053 -1.3268
  838MOL0     H10560   3.333   0.859   4.762  1.2441 -0.5976 -1.3290
  838MOL0     H10561   3.230   1.116   4.622  0.5980 -1.0327 -0.7181
  838MOL0     H10562   3.262   0.957   4.560  1.0414 -3.7090  2.6037
  838MOL0     H10563   3.494   0.977   4.620 -4.1936 -2.4625 -4.3603
  838MOL0     H10564   3.464   1.151   4.685 -2.4892  0.1326  0.7802
  838MOL0     H10565   3.510   1.041   4.411  4.5389  1.5231  0.4777
  838MOL0     H10566   3.368   1.163   4.428 -0.4839 -3.3289 -0.0521
  838MOL0     H10567   3.642   1.236   4.514 -0.3082  2.2420  2.4652
  838MOL0     H10568   3.497   1.328   4.499  3.1320  1.4626  1.6425
  838MOL0     H10569   3.550   1.458   4.285 -0.5390 -0.6047  0.2894
  838MOL0     H10570   3.649   1.541   4.047 -0.9729 -0.5967 -1.6296
  838MOL0     H10571   3.636   1.414   3.942  1.6553 -1.2861 -0.6609
  838MOL0     H10572   3.901   1.447   4.072 -0.3214 -0.0280 -0.0666
  838MOL0     H10573   3.863   1.540   3.932 -0.4180 -0.3356  0.1187
  838MOL0     H10574   3.856   1.233   3.942 -0.7899  0.1280 -0.0265
  838MOL0     H10575   3.811   1.333   3.799  0.6467 -2.1550  1.2406
  838MOL0     H10576   4.019   1.444   3.801  0.2995  0.4470  3.3297
  838MOL0     H10577   4.022   1.260   3.780  2.0965  0.5963 -0.7255
  838MOL0     H10578   4.292   1.430   4.102  2.3360 -0.7791 -0.2079
  838MOL0     H10579   4.524   1.419   4.078 -1.6456  0.0681  1.0834
  838MOL0     H10580   4.928   1.183   3.824 -4.2023  1.9431  0.3523
  838MOL0     H10581   5.170   1.215   3.815 -0.4701  0.3125 -0.3079
  838MOL0     H10582   5.424   1.428   4.083  0.1927  2.0144  1.6172
  838MOL0     H10583   5.322   1.562   4.063 -1.2852 -0.9693 -0.5065
  838MOL0     H10584   5.530   1.482   3.851  1.0484  1.3611 -1.0133
  838MOL0     H10585   5.573   1.595   3.979  0.4636  0.0143 -0.4058
  838MOL0     H10586   5.402   1.754   3.912  0.8724  1.0601 -0.4562
  838MOL0     H10587   5.350   1.634   3.786 -0.2314  1.7477 -1.9820
  838MOL0     H10588   5.605   1.797   3.810 -0.6034 -1.0880  2.8292
  838MOL0     H10589   5.589   1.667   3.684  1.3912 -0.1810  0.5965
  838MOL0     H10590   5.557   1.893   3.605 -0.3830 -1.7270 -1.9469
  838MOL0     H10591   5.422   1.917   3.722  1.9938  1.0547  0.8489
  838MOL0     H10592   5.311   1.711   3.600  0.3664  1.1951  1.3622
  838MOL0     H10593   5.432   1.700   3.489 -1.1032 -2.0537  2.4915
  838MOL0     H10594   5.349   1.987   3.487 -1.2450  0.8768 -0.0814
  838MOL0     H10595   5.377   1.872   3.361  0.5222  1.7933 -0.8316
  838MOL0     H10596   5.161   1.772   3.385  2.0888 -0.6818 -2.3408
  838MOL0     H10597   5.131   1.945   3.374  4.7658  3.1479  2.0550
  838MOL0     H10598   5.103   1.575   4.063  1.0258 -1.3402  2.0513
  838MOL0     H10599   4.882   1.526   4.067  0.8801 -0.0479 -0.0100
  838MOL0     H10600   4.465   1.227   3.703  1.4158 -0.2076  0.7116
  838MOL0     H10601   4.214   1.219   3.744  0.6778 -1.1859  0.4586
  838MOL0     H10602   2.935   0.916   5.398 -2.4963 -0.9941  2.1196
  838MOL0     H10603   2.732   0.986   5.476  1.6759 -4.5916  0.1147
  838MOL0     H10604   2.316   1.087   5.425 -2.0768  0.0621 -0.2179
  838MOL0     H10605   2.104   1.165   5.524  0.9868  0.0408  2.4639
  838MOL0     H10606   1.960   1.270   5.642 -0.0594 -2.6603 -1.2078
  838MOL0     H10607   1.909   1.234   5.482  1.8244  1.3268 -1.8116
  838MOL0     H10608   1.705   1.300   5.585 -0.0049  1.4077  2.6155
  838MOL0     H10609   1.790   1.433   5.671  0.0665  1.5704 -1.2111
  838MOL0     H10610   1.790   1.415   5.380  2.2067  1.9356  0.1063
  838MOL0     H10611   1.788   1.562   5.471 -1.5962  1.4780 -2.3627
  838MOL0     H10612   1.572   1.534   5.359  2.1139  2.1471  0.7455
  838MOL0     H10613   1.547   1.383   5.445  2.6513 -3.0013  2.5682
  838MOL0     H10614   1.483   1.709   5.737 -0.0456  0.4233 -0.1653
  838MOL0     H10615   2.197   1.570   5.437 -4.3384 -0.9983 -0.0624
  838MOL0     H10616   2.435   1.489   5.342 -1.0210  0.2382 -0.0614
  839MOL0     O10617   3.080  11.231   1.008 -0.5277  0.5638 -0.0637
  839MOL0     C10618   3.005  11.286   0.930 -0.0820  1.0437 -0.2023
  839MOL0     O10619   2.874  11.259   0.911  0.2269 -0.1923 -0.0312
  839MOL0     C10620   2.802  11.172   0.987  0.4808 -0.3605 -0.1032
  839MOL0     C10621   2.688  11.112   0.936  0.3310  0.7523 -1.2720
  839MOL0     C10622   2.605  11.027   1.012  0.3680 -0.5174  0.1048
  839MOL0     C10623   2.628  10.996   1.151  0.3196 -0.5779 -0.2462
  839MOL0     O10624   2.556  10.922   1.236 -0.1806 -0.8087 -0.0847
  839MOL0     C10625   2.447  10.842   1.192  0.0597  0.3800 -0.4963
  839MOL0     C10626   2.410  10.751   1.314  0.1100 -1.0862 -0.2279
  839MOL0     C10627   2.384  10.833   1.442  1.0760 -0.2448  0.6414
  839MOL0     C10628   2.509  10.844   1.534  0.3501 -0.5569 -0.3589
  839MOL0     C10629   2.497  10.919   1.661  0.5313 -0.5811  0.3166
  839MOL0     C10630   2.501  11.072   1.656  0.4445  0.4259  0.4336
  839MOL0     C10631   2.515  11.143   1.798  0.1943 -0.1157 -0.0364
  839MOL0     C10632   2.565  11.290   1.780  0.0720 -0.1953  0.2514
  839MOL0     N10633   2.478  11.370   1.698  1.8877 -0.3004  0.9703
  839MOL0     C10634   2.510  11.488   1.641  0.1160 -0.8405 -0.3131
  839MOL0     C10635   2.410  11.530   1.566  0.1487  0.2417  0.3680
  839MOL0     C10636   2.388  11.662   1.497 -0.3100  0.5764  0.0528
  839MOL0     C10637   2.351  11.775   1.592  1.0050 -0.4767 -1.0258
  839MOL0     C10638   2.475  11.875   1.606 -1.0668 -0.8412 -0.7136
  839MOL0     C10639   2.447  12.014   1.670  0.6355  0.5888  0.5086
  839MOL0     O10640   2.345  12.096   1.607  0.3522  0.0778  0.3602
  839MOL0     C10641   2.306  12.214   1.667 -0.9460 -0.6617 -0.3973
  839MOL0     C10642   2.397  12.322   1.704 -0.2332 -0.4999  0.0724
  839MOL0     C10643   2.355  12.427   1.770  0.7467 -0.8951  0.4648
  839MOL0     C10644   2.223  12.435   1.808 -0.2303  0.0996  0.4267
  839MOL0     C10645   2.169  12.558   1.891  0.1832  0.2966  0.6171
  839MOL0     O10646   2.036  12.540   1.946  0.1231  0.0504  0.6539
  839MOL0     C10647   1.996  12.616   2.053  0.1204  0.5877  0.1349
  839MOL0     C10648   2.018  12.574   2.181 -0.1247  0.0327  0.4146
  839MOL0     C10649   1.981  12.642   2.294  0.2058 -0.2202 -0.4537
  839MOL0     C10650   1.916  12.762   2.281 -0.0447 -1.6333 -0.5018
  839MOL0     O10651   1.882  12.826   2.403  0.1626  0.0656  0.1577
  839MOL0     C10652   1.867  12.968   2.400 -0.3553  0.0299  0.1822
  839MOL0     C10653   1.730  13.020   2.387 -0.3539 -0.7023 -0.0990
  839MOL0     C10654   1.635  12.952   2.480  1.0825  0.1369 -1.5586
  839MOL0     C10655   1.506  13.046   2.483  0.4813  0.8924  0.5382
  839MOL0     C10656   1.391  12.988   2.568 -0.2506 -0.1563  0.2450
  839MOL0     C10657   1.318  12.860   2.513 -0.9827  1.0606  0.1428
  839MOL0     C10658   1.232  12.786   2.619  0.3284  0.0287  0.3836
  839MOL0     C10659   1.194  12.646   2.568  1.5245 -0.0537  0.4697
  839MOL0    Cl10660   1.100  12.649   2.418 -0.1539 -0.2351 -0.6798
  839MOL0     C10661   1.892  12.802   2.151  0.5648  0.9166 -0.2668
  839MOL0     C10662   1.922  12.730   2.033  0.2624  0.5187 -0.1211
  839MOL0     O10663   2.245  12.652   1.912 -0.1620 -0.1402 -0.2268
  839MOL0     C10664   2.122  12.350   1.759  0.6164  0.0659 -0.2170
  839MOL0     C10665   2.168  12.241   1.691  0.3437  1.8143 -0.8533
  839MOL0     N10666   2.314  11.427   1.568  0.0470 -0.6076 -0.6187
  839MOL0     N10667   2.353  11.330   1.647  0.3231  0.1608 -0.0644
  839MOL0     C10668   2.749  11.043   1.200  0.4174 -0.3929  0.0882
  839MOL0     C10669   2.817  11.143   1.125 -0.2757 -0.3506  0.3583
  839MOL0     C10670   3.075  11.375   0.833  0.7525  0.0532 -0.9098
  839MOL0     C10671   3.009  11.377   0.713  0.2809  0.4136  0.2444
  839MOL0     C10672   3.059  11.452   0.605 -0.2473 -0.2968 -0.4166
  839MOL0     C10673   3.191  11.514   0.623  0.3578 -0.6328 -0.5262
  839MOL0     O10674   3.258  11.592   0.534  0.0852 -0.3808 -0.0005
  839MOL0     C10675   3.380  11.543   0.476 -0.8019  0.0304  0.2963
  839MOL0     C10676   3.449  11.656   0.385  0.2569  0.2746  0.5279
  839MOL0     C10677   3.528  11.739   0.499  0.3909 -0.7853 -0.8302
  839MOL0     C10678   3.570  11.879   0.422 -0.2721  0.4651 -0.7300
  839MOL0     C10679   3.655  11.876   0.303 -0.1922 -0.6483 -0.0245
  839MOL0     C10680   3.721  11.845   0.212  0.7176  0.5101  0.7864
  839MOL0     C10681   3.254  11.519   0.751  0.1673 -0.5109  0.2164
  839MOL0     C10682   3.193  11.446   0.855 -0.3486  0.0144 -0.3439
  839MOL0     H10683   2.659  11.125   0.833 -4.0906 -2.3676 -0.7163
  839MOL0     H10684   2.511  10.998   0.966 -0.2507  1.1426  0.2514
  839MOL0     H10685   2.493  10.782   1.113  2.1423  3.2222 -1.6229
  839MOL0     H10686   2.366  10.903   1.149 -0.0067 -0.3169 -1.4081
  839MOL0     H10687   2.489  10.677   1.333  1.5780  0.5843  0.4316
  839MOL0     H10688   2.327  10.699   1.266  1.6492 -0.5896 -3.7517
  839MOL0     H10689   2.299  10.801   1.502 -0.0401  2.0693  0.4075
  839MOL0     H10690   2.349  10.929   1.402  0.9936 -0.7060 -0.4310
  839MOL0     H10691   2.525  10.740   1.562 -3.9435 -1.0908  0.8998
  839MOL0     H10692   2.587  10.900   1.482 -0.4644  0.9839 -0.0001
  839MOL0     H10693   2.569  10.882   1.735 -1.0209  0.5436  2.4878
  839MOL0     H10694   2.396  10.908   1.702  0.0043  4.0752  0.7799
  839MOL0     H10695   2.409  11.098   1.604 -0.9533 -4.0069  0.2006
  839MOL0     H10696   2.594  11.102   1.607  0.5908 -0.6586  0.0106
  839MOL0     H10697   2.421  11.140   1.853 -0.7295  2.3305 -1.3424
  839MOL0     H10698   2.578  11.083   1.864  0.1386 -2.1012 -1.6836
  839MOL0     H10699   2.667  11.293   1.740  0.9541 -0.0170  2.3865
  839MOL0     H10700   2.575  11.331   1.881 -3.4952  1.9039 -0.0491
  839MOL0     H10701   2.600  11.545   1.662 -0.2628 -0.1686 -0.4835
  839MOL0     H10702   2.302  11.630   1.438 -0.3290 -2.0484  1.3626
  839MOL0     H10703   2.467  11.692   1.428 -2.5649  1.0674 -2.4771
  839MOL0     H10704   2.308  11.736   1.685  3.0332 -2.2153 -0.7339
  839MOL0     H10705   2.268  11.813   1.533  1.8100  1.2937 -1.0925
  839MOL0     H10706   2.541  11.830   1.681  0.1992  2.3326  0.2030
  839MOL0     H10707   2.528  11.884   1.511  0.0414  1.6984  0.0731
  839MOL0     H10708   2.539  12.072   1.673  0.4007  1.0142 -0.2507
  839MOL0     H10709   2.406  11.990   1.769  1.7812  0.2872  0.9275
  839MOL0     H10710   2.504  12.326   1.685  0.3836  4.8362  2.7228
  839MOL0     H10711   2.422  12.502   1.811 -0.5928  0.5077  0.1754
  839MOL0     H10712   2.079  12.486   2.196 -1.3449 -0.9464 -0.1762
  839MOL0     H10713   2.007  12.601   2.391  3.5438  1.6596 -0.4074
  839MOL0     H10714   1.915  13.012   2.312 -1.9888 -0.7898 -1.1831
  839MOL0     H10715   1.916  13.018   2.484  2.4656  0.9003 -1.8108
  839MOL0     H10716   1.689  13.016   2.286  0.3972  2.4018 -0.6292
  839MOL0     H10717   1.735  13.127   2.407 -0.1720 -0.8761  0.8213
  839MOL0     H10718   1.675  12.952   2.581 -2.1094  1.7404 -0.1364
  839MOL0     H10719   1.622  12.848   2.449  0.7183 -0.4951  0.5624
  839MOL0     H10720   1.541  13.138   2.531 -0.7532  1.1644  0.9386
  839MOL0     H10721   1.464  13.066   2.385 -3.2864 -2.9192  1.0884
  839MOL0     H10722   1.322  13.072   2.576  1.4720  1.5446 -1.6467
  839MOL0     H10723   1.422  12.967   2.671  0.9538 -1.3517 -0.3318
  839MOL0     H10724   1.391  12.790   2.470 -1.0867  0.2930  1.1696
  839MOL0     H10725   1.247  12.902   2.442 -1.7352  3.1181  2.0136
  839MOL0     H10726   1.288  12.775   2.713 -0.3212  1.9451  1.0408
  839MOL0     H10727   1.139  12.840   2.639 -0.5424 -1.0008 -0.7714
  839MOL0     H10728   1.124  12.598   2.637 -0.2059  5.8383  3.4716
  839MOL0     H10729   1.285  12.587   2.554  0.4216 -1.7563  0.2105
  839MOL0     H10730   1.846  12.900   2.145  3.2737  2.7507  4.1509
  839MOL0     H10731   1.901  12.760   1.930  0.3334  1.7625  0.2097
  839MOL0     H10732   2.018  12.364   1.786  0.7380 -0.7077  0.7170
  839MOL0     H10733   2.105  12.165   1.647 -0.5502  4.1696 -4.0509
  839MOL0     H10734   2.770  11.022   1.305 -1.5077 -0.3652  0.5177
  839MOL0     H10735   2.899  11.197   1.169 -0.4930 -0.2454  0.6342
  839MOL0     H10736   2.913  11.330   0.697 -0.1890  0.7066  2.0243
  839MOL0     H10737   3.009  11.444   0.509 -0.3735 -0.4492 -0.3392
  839MOL0     H10738   3.348  11.460   0.413 -0.9675  0.9563 -0.8576
  839MOL0     H10739   3.439  11.510   0.563  1.4096  1.4419 -0.5615
  839MOL0     H10740   3.521  11.612   0.316  1.1327  2.3173  0.0705
  839MOL0     H10741   3.378  11.709   0.321 -1.9431 -4.6991 -1.6814
  839MOL0     H10742   3.608  11.677   0.540 -0.3367 -0.2007  1.6238
  839MOL0     H10743   3.457  11.766   0.577  0.1139 -1.7077 -0.7628
  839MOL0     H10744   3.477  11.922   0.382  0.9526  0.5286 -3.7792
  839MOL0     H10745   3.608  11.952   0.494 -1.2667 -1.5474  1.9820
  839MOL0     H10746   3.781  11.818   0.127 -0.5569 -0.5724  0.1834
  839MOL0     H10747   3.354  11.560   0.762  0.1724 -0.4518 -0.0259
  839MOL0     H10748   3.243  11.446   0.951 -2.7203 -0.2699  0.9797
  840MOL0     O10749   1.348   6.614   1.867  1.1164 -0.5137  0.2305
  840MOL0     C10750   1.388   6.507   1.916 -0.3094  0.2693  0.5172
  840MOL0     O10751   1.356   6.387   1.868 -0.3363  0.4998 -0.2212
  840MOL0     C10752   1.303   6.389   1.741  1.3951  0.3007  0.5922
  840MOL0     C10753   1.378   6.420   1.623  0.0365  0.0054  0.0819
  840MOL0     C10754   1.309   6.422   1.497 -0.6961 -0.7515  0.5914
  840MOL0     C10755   1.175   6.382   1.491 -0.7214  0.7071 -0.1457
  840MOL0     O10756   1.104   6.370   1.374 -0.4910 -1.1710  0.5092
  840MOL0     C10757   1.164   6.394   1.249  0.6260  0.0942  0.4752
  840MOL0     C10758   1.051   6.362   1.146 -0.4739 -0.3196  0.4148
  840MOL0     C10759   0.943   6.478   1.118 -0.4480  0.4626  0.2254
  840MOL0     C10760   0.893   6.472   0.971 -0.3348 -0.0516  0.6484
  840MOL0     C10761   0.779   6.568   0.947  0.2094  0.0211  0.3328
  840MOL0     C10762   0.713   6.570   0.806 -0.5376  0.1587  0.4227
  840MOL0     C10763   0.802   6.622   0.701 -0.6479  0.2416 -0.2659
  840MOL0     C10764   0.720   6.629   0.571  0.2528 -0.4463  0.4711
  840MOL0     N10765   0.794   6.708   0.466  0.1525  0.2987 -0.1906
  840MOL0     C10766   0.837   6.661   0.344  0.4959  1.0278 -0.8876
  840MOL0     C10767   0.903   6.756   0.283 -0.1366 -0.0829  0.3831
  840MOL0     C10768   0.990   6.744   0.161 -0.9686  0.6385 -0.7265
  840MOL0     C10769   0.935   6.788   0.034  0.5596  0.4707  0.6954
  840MOL0     C10770   1.036   6.770  -0.071  0.1317 -0.2091  0.6099
  840MOL0     C10771   0.964   6.737  -0.203  0.6863 -0.0215 -0.3999
  840MOL0     O10772   1.062   6.708  -0.304  0.0807  0.0546  0.2062
  840MOL0     C10773   1.036   6.720  -0.443  1.1177  0.4205 -0.3614
  840MOL0     C10774   1.139   6.749  -0.531  0.1546  0.5491  0.8336
  840MOL0     C10775   1.114   6.755  -0.676 -0.6578  0.2325  0.0482
  840MOL0     C10776   0.977   6.747  -0.721 -0.5572 -0.0050  0.7199
  840MOL0     C10777   0.950   6.758  -0.868 -0.0026  0.9833 -0.2766
  840MOL0     O10778   0.837   6.827  -0.889 -0.4636  0.1187 -0.1029
  840MOL0     C10779   0.795   6.843  -1.022 -0.3624 -0.2290  0.0493
  840MOL0     C10780   0.764   6.971  -1.064  0.9514 -0.5935  0.0959
  840MOL0     C10781   0.717   6.999  -1.190  1.0042 -0.2134 -0.3974
  840MOL0     C10782   0.717   6.893  -1.289 -1.0821 -0.4754 -0.9478
  840MOL0     O10783   0.686   6.935  -1.417 -0.0166  1.0877  0.2112
  840MOL0     C10784   0.624   6.834  -1.498 -0.4265 -0.6412  0.5229
  840MOL0     C10785   0.566   6.910  -1.608 -0.7518 -0.4279 -0.5989
  840MOL0     C10786   0.456   6.829  -1.682  0.3658 -0.6231 -0.1702
  840MOL0     C10787   0.486   6.688  -1.726  0.1498 -0.2008  1.3745
  840MOL0     C10788   0.368   6.593  -1.746 -0.5454 -0.8729  0.4243
  840MOL0     C10789   0.275   6.641  -1.857 -0.1840 -0.1879 -0.5278
  840MOL0     C10790   0.212   6.520  -1.928  1.0280  1.3765  1.2438
  840MOL0     C10791   0.101   6.551  -2.029  0.6569 -0.1960  0.4935
  840MOL0    Cl10792   0.039   6.387  -2.074 -0.0796  0.0812  0.1694
  840MOL0     C10793   0.755   6.767  -1.244  1.1659  0.3822 -0.6852
  840MOL0     C10794   0.790   6.743  -1.114 -0.0317  0.7979  0.3727
  840MOL0     O10795   1.030   6.719  -0.952 -0.5961 -0.0485  0.1061
  840MOL0     C10796   0.875   6.725  -0.625 -0.6440  0.0794 -0.3064
  840MOL0     C10797   0.906   6.710  -0.491 -0.3256  0.4300 -0.3730
  840MOL0     N10798   0.888   6.869   0.358 -0.2053 -0.2565  2.0539
  840MOL0     N10799   0.828   6.844   0.468  1.6431  0.2847  0.4803
  840MOL0     C10800   1.113   6.344   1.608  0.8162  0.3839 -0.1562
  840MOL0     C10801   1.173   6.350   1.732  0.1259  0.1943 -0.6294
  840MOL0     C10802   1.462   6.521   2.045 -0.2132  1.3105 -0.6963
  840MOL0     C10803   1.483   6.397   2.112  0.0399  0.4205  0.3860
  840MOL0     C10804   1.538   6.409   2.241  1.6781  0.1683  0.3830
  840MOL0     C10805   1.571   6.528   2.297  0.1417  0.0862  0.1904
  840MOL0     O10806   1.621   6.539   2.429 -0.4803 -0.3832  0.2204
  840MOL0     C10807   1.763   6.523   2.445 -0.2144 -0.4006 -0.4543
  840MOL0     C10808   1.794   6.510   2.598 -0.2057 -0.3521  0.0989
  840MOL0     C10809   1.868   6.378   2.635 -0.0107  0.4051  0.7262
  840MOL0     C10810   1.774   6.256   2.650  0.8277  1.2633 -0.2426
  840MOL0     C10811   1.859   6.137   2.662  0.0049 -0.0380  0.0563
  840MOL0     C10812   1.931   6.041   2.643 -0.3691 -0.0880 -0.4647
  840MOL0     C10813   1.561   6.645   2.227  0.6972 -0.2163  0.3757
  840MOL0     C10814   1.503   6.646   2.096  0.5721  0.7356 -0.2409
  840MOL0     H10815   1.479   6.448   1.652 -0.4555 -0.1198  2.0307
  840MOL0     H10816   1.355   6.477   1.415  0.5416 -0.5848  1.3815
  840MOL0     H10817   1.232   6.310   1.233 -0.5780 -0.5101 -1.9911
  840MOL0     H10818   1.196   6.495   1.223  0.9696  0.6332  2.7368
  840MOL0     H10819   1.001   6.271   1.181 -5.5293  0.6417 -3.2576
  840MOL0     H10820   1.097   6.339   1.050  0.7081  1.6471  0.4515
  840MOL0     H10821   0.997   6.573   1.125  3.9913 -1.6412 -1.4914
  840MOL0     H10822   0.866   6.465   1.194  1.6510  2.9571  2.9973
  840MOL0     H10823   0.967   6.484   0.891 -1.0138  2.1159  0.2979
  840MOL0     H10824   0.856   6.372   0.944  0.7558 -0.5287  0.8670
  840MOL0     H10825   0.791   6.670   0.985  1.3777  0.3903 -0.9630
  840MOL0     H10826   0.694   6.537   1.009 -1.2762 -1.3718 -2.2590
  840MOL0     H10827   0.626   6.635   0.793 -0.5858 -0.4127 -3.2060
  840MOL0     H10828   0.685   6.468   0.778  3.2527 -0.8526 -0.2523
  840MOL0     H10829   0.843   6.719   0.731  0.3094 -0.1138 -0.4263
  840MOL0     H10830   0.892   6.565   0.678 -0.2859 -0.2974  2.1774
  840MOL0     H10831   0.628   6.687   0.581  1.5492  1.7400  0.3150
  840MOL0     H10832   0.698   6.529   0.531  1.2510  0.8099 -3.6942
  840MOL0     H10833   0.836   6.562   0.298  0.1636  0.9358 -0.6867
  840MOL0     H10834   1.020   6.638   0.160 -2.8469  0.0692 -0.8028
  840MOL0     H10835   1.071   6.810   0.192 -0.9950 -0.0289  0.8742
  840MOL0     H10836   0.894   6.889   0.042 -1.5125  0.3589 -4.3469
  840MOL0     H10837   0.843   6.730   0.017  0.0727  1.4707 -0.1890
  840MOL0     H10838   1.106   6.855  -0.070  3.2535 -2.5966  1.3904
  840MOL0     H10839   1.102   6.686  -0.047  0.0171 -0.7994 -1.0108
  840MOL0     H10840   0.905   6.822  -0.238  2.7324  1.4369 -0.4494
  840MOL0     H10841   0.907   6.647  -0.176 -1.2804  1.8641  2.2950
  840MOL0     H10842   1.244   6.759  -0.507  1.3981 -3.1073 -2.1666
  840MOL0     H10843   1.189   6.773  -0.753 -1.0255  1.1173 -0.1203
  840MOL0     H10844   0.740   7.061  -1.007 -2.4307 -0.9226 -0.6504
  840MOL0     H10845   0.686   7.098  -1.222  1.4699 -0.9120 -3.2709
  840MOL0     H10846   0.547   6.789  -1.434  0.5980  0.7009  2.8236
  840MOL0     H10847   0.702   6.766  -1.533 -0.1373  0.9650 -2.2880
  840MOL0     H10848   0.649   6.951  -1.666 -0.8628 -0.6275 -0.9009
  840MOL0     H10849   0.531   7.006  -1.569  1.6766 -0.2155  1.3184
  840MOL0     H10850   0.423   6.870  -1.778 -2.5876  0.1108  1.0430
  840MOL0     H10851   0.364   6.832  -1.622  2.4449 -1.4389  3.3501
  840MOL0     H10852   0.534   6.708  -1.822  2.4410  2.4167  2.9289
  840MOL0     H10853   0.553   6.636  -1.656  0.9039  0.3010  1.0339
  840MOL0     H10854   0.311   6.578  -1.653  1.5457  2.3541  2.4098
  840MOL0     H10855   0.423   6.507  -1.785 -0.5319  0.5679 -3.0797
  840MOL0     H10856   0.334   6.708  -1.920  3.3970 -2.3680  0.2263
  840MOL0     H10857   0.189   6.697  -1.820 -0.0234 -1.1228  1.3630
  840MOL0     H10858   0.289   6.459  -1.977  0.4500  1.4984  0.1694
  840MOL0     H10859   0.163   6.479  -1.840 -0.0210  0.6744  0.3561
  840MOL0     H10860   0.139   6.603  -2.118  1.3775 -1.0527  0.2916
  840MOL0     H10861   0.017   6.615  -1.999  1.2626  2.6766 -3.1500
  840MOL0     H10862   0.746   6.685  -1.315 -1.0661 -0.9975  1.0603
  840MOL0     H10863   0.816   6.639  -1.096  1.6340  0.9866 -0.7034
  840MOL0     H10864   0.771   6.715  -0.656 -1.6218 -0.3582  2.7105
  840MOL0     H10865   0.816   6.700  -0.432 -0.5917  3.1616 -0.1818
  840MOL0     H10866   1.009   6.314   1.599  0.7068  0.7862 -0.2780
  840MOL0     H10867   1.118   6.326   1.823  0.4162  1.0588 -0.2166
  840MOL0     H10868   1.450   6.300   2.077 -0.0849  0.9504 -1.0000
  840MOL0     H10869   1.549   6.319   2.301  0.3130 -0.3652 -0.1261
  840MOL0     H10870   1.811   6.613   2.405  0.1176  0.2658  1.3424
  840MOL0     H10871   1.797   6.433   2.394 -1.4687  0.7073 -3.4939
  840MOL0     H10872   1.857   6.595   2.627  1.4222 -1.9361  1.4381
  840MOL0     H10873   1.704   6.519   2.659  0.4900 -2.3059  1.5157
  840MOL0     H10874   1.933   6.395   2.721  3.0571 -2.1646 -0.8653
  840MOL0     H10875   1.941   6.354   2.558  1.8001 -0.6846  2.6898
  840MOL0     H10876   1.722   6.265   2.745 -1.5078  1.2289 -1.4493
  840MOL0     H10877   1.698   6.253   2.571 -0.5423 -0.4380  1.0624
  840MOL0     H10878   2.005   5.963   2.639 -0.8128 -0.6366  1.0358
  840MOL0     H10879   1.586   6.743   2.266  0.3818  0.5544 -1.2455
  840MOL0     H10880   1.499   6.729   2.027  2.3325  0.3460 -0.8474
  841MOL0     O10881   4.951   1.140   7.803 -0.0740 -0.1529 -0.1875
  841MOL0     C10882   4.881   1.247   7.787 -0.2371  0.4377 -0.1857
  841MOL0     O10883   4.921   1.378   7.809 -0.6276  1.6830  0.8151
  841MOL0     C10884   5.059   1.410   7.834  0.0279  0.4013 -1.0866
  841MOL0     C10885   5.127   1.467   7.727 -0.4525  0.6089 -0.7949
  841MOL0     C10886   5.263   1.496   7.743 -1.0364 -0.3414 -0.6023
  841MOL0     C10887   5.333   1.470   7.867  0.9691 -0.4666 -0.5273
  841MOL0     O10888   5.464   1.477   7.887  0.0637 -0.4195 -0.5378
  841MOL0     C10889   5.532   1.588   7.821  0.2888 -0.4415 -0.7372
  841MOL0     C10890   5.679   1.563   7.816  0.4738  0.6935 -0.9591
  841MOL0     C10891   5.736   1.590   7.957  0.6622 -0.3880  0.9310
  841MOL0     C10892   5.889   1.578   7.947 -0.2693 -0.5195 -0.6790
  841MOL0     C10893   5.956   1.670   8.042  0.0088  0.2302  0.9795
  841MOL0     C10894   5.930   1.622   8.184 -0.4557  0.0329  0.4125
  841MOL0     C10895   6.009   1.709   8.283 -0.3163  1.0075 -0.4031
  841MOL0     C10896   5.983   1.667   8.432 -0.0020  0.0029 -0.2526
  841MOL0     N10897   6.035   1.532   8.448  0.3418 -0.0798  0.0406
  841MOL0     C10898   5.953   1.420   8.475  0.6718  0.0391  0.8702
  841MOL0     C10899   6.024   1.319   8.522 -0.8093 -0.1726 -0.6694
  841MOL0     C10900   5.981   1.198   8.595 -0.8995 -0.0410  0.2548
  841MOL0     C10901   5.832   1.165   8.577  0.4436  0.4032 -0.0318
  841MOL0     C10902   5.746   1.232   8.682  0.5057 -0.5370  0.6418
  841MOL0     C10903   5.609   1.175   8.679  0.2178  0.7456  0.4980
  841MOL0     O10904   5.551   1.195   8.543 -0.7157 -0.3346  0.3025
  841MOL0     C10905   5.436   1.139   8.497 -0.1828 -0.0749  0.1878
  841MOL0     C10906   5.351   1.050   8.574 -0.5606 -0.8834 -0.8076
  841MOL0     C10907   5.211   1.034   8.543 -0.5360  0.0575  0.5042
  841MOL0     C10908   5.163   1.084   8.420 -0.0447  0.3749 -0.4021
  841MOL0     C10909   5.018   1.066   8.380  0.3950  0.1512 -0.0256
  841MOL0     O10910   4.977   1.142   8.277  0.9699 -0.4962  0.1645
  841MOL0     C10911   4.868   1.096   8.205  0.1271 -0.0688 -1.3170
  841MOL0     C10912   4.778   1.192   8.160 -0.1415 -0.6018  0.5345
  841MOL0     C10913   4.663   1.143   8.085  0.2177 -0.2622  0.6209
  841MOL0     C10914   4.646   1.003   8.058 -1.0758  0.2851 -0.2869
  841MOL0     O10915   4.535   0.956   7.987 -0.1945 -0.1405 -0.3246
  841MOL0     C10916   4.411   1.017   8.028  0.1350  0.0899  0.2128
  841MOL0     C10917   4.280   0.930   7.997  0.3365 -0.4086 -0.5867
  841MOL0     C10918   4.161   0.950   8.106 -0.3011  0.5759  0.0901
  841MOL0     C10919   4.213   0.930   8.247 -0.7427  0.2885 -0.2498
  841MOL0     C10920   4.313   0.802   8.259  0.7818  0.0932 -0.6599
  841MOL0     C10921   4.236   0.674   8.250  0.7359  0.0319 -0.8258
  841MOL0     C10922   4.332   0.554   8.283 -0.1220 -0.1778  0.1904
  841MOL0     C10923   4.429   0.531   8.170  0.9546  0.8038  0.5351
  841MOL0    Cl10924   4.324   0.476   8.037  0.5042  0.1215 -0.0059
  841MOL0     C10925   4.741   0.911   8.098 -0.5268 -0.5649  0.8926
  841MOL0     C10926   4.864   0.961   8.167  0.7495 -0.7121  0.9160
  841MOL0     O10927   4.949   0.988   8.440 -0.1240  0.1745  0.4634
  841MOL0     C10928   5.258   1.159   8.336  0.5692  0.0473 -0.6490
  841MOL0     C10929   5.382   1.196   8.386  0.4599 -0.2525 -0.2603
  841MOL0     N10930   6.157   1.372   8.523 -0.8151 -0.7177 -0.0509
  841MOL0     N10931   6.167   1.495   8.476 -0.6524 -0.2387 -0.0892
  841MOL0     C10932   5.257   1.412   7.969  0.4499  1.1833 -0.4592
  841MOL0     C10933   5.122   1.380   7.948 -0.0988  0.3959 -0.4252
  841MOL0     C10934   4.733   1.238   7.753  1.5686 -0.0837 -0.4800
  841MOL0     C10935   4.631   1.335   7.788 -0.1139  0.1667 -0.0199
  841MOL0     C10936   4.496   1.322   7.784  0.4510 -0.6100  0.9381
  841MOL0     C10937   4.447   1.194   7.731  1.4049 -1.9004  0.3365
  841MOL0     O10938   4.312   1.167   7.706 -0.1818 -0.1757 -0.3983
  841MOL0     C10939   4.239   1.270   7.644  0.5441  0.2731 -0.2882
  841MOL0     C10940   4.113   1.217   7.589  0.1782  0.3014 -0.7830
  841MOL0     C10941   4.137   1.130   7.464 -0.3135 -0.4948 -0.2146
  841MOL0     C10942   4.183   0.982   7.502  0.4087 -0.2174 -0.0096
  841MOL0     C10943   4.197   0.903   7.381 -0.1285 -0.8009 -0.9210
  841MOL0     C10944   4.221   0.848   7.270  0.3600 -0.6369  0.0111
  841MOL0     C10945   4.545   1.096   7.706 -0.3464 -0.5519 -0.2726
  841MOL0     C10946   4.679   1.119   7.710  0.0435  0.4688 -0.0198
  841MOL0     H10947   5.072   1.504   7.641 -3.3995 -3.4611 -0.9444
  841MOL0     H10948   5.310   1.525   7.649 -0.8941 -1.0138 -0.7410
  841MOL0     H10949   5.520   1.680   7.878  0.0601 -1.6337  1.2504
  841MOL0     H10950   5.500   1.604   7.718 -0.6411 -1.3315 -0.5985
  841MOL0     H10951   5.727   1.620   7.736 -1.9030  0.1832 -2.8740
  841MOL0     H10952   5.683   1.455   7.795  0.3146  0.4334  0.2582
  841MOL0     H10953   5.689   1.520   8.027  1.0924  1.9100  3.7120
  841MOL0     H10954   5.707   1.687   7.997 -2.9520 -2.4989  4.1803
  841MOL0     H10955   5.928   1.479   7.972 -0.1773  0.1636  2.1737
  841MOL0     H10956   5.922   1.614   7.849 -2.7433  1.1568 -0.9867
  841MOL0     H10957   5.919   1.772   8.031 -0.1841 -0.0692 -1.6874
  841MOL0     H10958   6.063   1.665   8.021 -0.5520  2.4845 -3.7891
  841MOL0     H10959   5.953   1.515   8.196 -0.2963  0.0803  0.5276
  841MOL0     H10960   5.823   1.633   8.206 -0.4480 -1.6684  1.5687
  841MOL0     H10961   6.115   1.694   8.262 -0.5781 -0.9265 -0.5545
  841MOL0     H10962   5.986   1.815   8.269 -3.9763  0.1903 -1.6442
  841MOL0     H10963   5.878   1.687   8.455 -0.7116 -1.4246 -2.0031
  841MOL0     H10964   6.051   1.729   8.491 -1.2577  1.1142  0.0621
  841MOL0     H10965   5.844   1.423   8.474  0.6491  2.1592 -2.0483
  841MOL0     H10966   6.017   1.206   8.699  0.5940  2.9757 -0.3799
  841MOL0     H10967   6.046   1.114   8.570  0.3035  0.3004  2.0317
  841MOL0     H10968   5.815   1.058   8.588 -0.6286  0.4042 -1.4822
  841MOL0     H10969   5.796   1.184   8.476 -2.3659  0.3539  0.8790
  841MOL0     H10970   5.781   1.203   8.781 -1.0505  0.7881  1.6241
  841MOL0     H10971   5.749   1.341   8.665 -2.4157 -0.2899  1.2214
  841MOL0     H10972   5.552   1.241   8.745 -2.6171 -2.1977  1.2594
  841MOL0     H10973   5.613   1.070   8.709  2.7783  1.3920  2.8078
  841MOL0     H10974   5.397   1.024   8.668  0.0758 -1.1668 -1.1870
  841MOL0     H10975   5.136   0.981   8.602  0.5100 -2.2489 -0.1281
  841MOL0     H10976   4.790   1.299   8.176  2.4761 -1.0882  2.4708
  841MOL0     H10977   4.597   1.227   8.062  0.3871 -0.2144  0.3005
  841MOL0     H10978   4.399   1.119   7.990  0.3509  0.0860  0.1317
  841MOL0     H10979   4.423   1.039   8.134  2.8740 -3.7223  0.9037
  841MOL0     H10980   4.305   0.823   7.998  1.2177 -0.2177  0.9017
  841MOL0     H10981   4.226   0.954   7.904 -2.5685 -1.5181  0.6731
  841MOL0     H10982   4.078   0.879   8.095  0.7492 -1.0537  2.0850
  841MOL0     H10983   4.124   1.051   8.089 -2.1403 -0.1204 -0.3423
  841MOL0     H10984   4.273   1.017   8.275  0.1339 -0.7852  1.3689
  841MOL0     H10985   4.126   0.937   8.315 -0.7665  1.2448 -0.3618
  841MOL0     H10986   4.376   0.811   8.347  2.6953 -3.1057 -1.5505
  841MOL0     H10987   4.390   0.795   8.181  1.8237 -1.1883  0.4355
  841MOL0     H10988   4.193   0.667   8.150  0.0564  4.1507 -0.9962
  841MOL0     H10989   4.153   0.661   8.320 -0.9989 -0.6521 -2.9327
  841MOL0     H10990   4.395   0.569   8.372  1.7888  1.4441 -1.3282
  841MOL0     H10991   4.273   0.462   8.285  0.6500 -0.7153 -0.7427
  841MOL0     H10992   4.497   0.445   8.183  3.5710  2.8553  1.3265
  841MOL0     H10993   4.489   0.618   8.145  4.4220 -1.5970 -0.2594
  841MOL0     H10994   4.744   0.803   8.084  3.3998 -0.8696  2.7864
  841MOL0     H10995   4.941   0.893   8.203 -0.5856 -1.8609  1.7021
  841MOL0     H10996   5.218   1.193   8.242 -2.1103 -2.1595 -0.4286
  841MOL0     H10997   5.452   1.260   8.333 -1.3855  1.6642 -0.5302
  841MOL0     H10998   5.329   1.368   8.036 -0.3027  1.3681  0.4900
  841MOL0     H10999   5.065   1.315   8.014 -1.4176  1.6180 -0.3044
  841MOL0     H11000   4.673   1.432   7.812 -0.2324  0.0499  0.6708
  841MOL0     H11001   4.442   1.413   7.808 -0.5947 -0.2649 -2.2677
  841MOL0     H11002   4.300   1.317   7.566  1.1395 -1.5248 -0.9722
  841MOL0     H11003   4.212   1.345   7.718  3.6429  1.9720 -0.6986
  841MOL0     H11004   4.066   1.150   7.662 -0.6657  1.4363 -0.2519
  841MOL0     H11005   4.039   1.293   7.566  0.7425  0.1835 -3.2446
  841MOL0     H11006   4.205   1.183   7.396  1.4453  1.2529  2.6660
  841MOL0     H11007   4.038   1.120   7.418  0.6403  1.8096 -3.0880
  841MOL0     H11008   4.280   0.979   7.552  0.3075 -0.9154  0.1597
  841MOL0     H11009   4.102   0.942   7.565  1.6610 -1.8584  0.6291
  841MOL0     H11010   4.236   0.814   7.170  2.3705 -2.3422  0.8193
  841MOL0     H11011   4.508   0.998   7.678  1.8478 -2.1513  2.0780
  841MOL0     H11012   4.746   1.035   7.693 -0.6107 -0.1586  0.4504
  842MOL0     O11013   2.402   7.774  11.430 -0.1543  0.6112 -0.8174
  842MOL0     C11014   2.363   7.776  11.313  0.0441  0.4890  0.2258
  842MOL0     O11015   2.444   7.756  11.202  0.2847  0.0844  0.6476
  842MOL0     C11016   2.582   7.759  11.206 -0.7302 -0.8445 -0.0277
  842MOL0     C11017   2.644   7.847  11.116  0.3245 -0.0505  0.4123
  842MOL0     C11018   2.782   7.855  11.105  0.4153  0.5931 -0.0498
  842MOL0     C11019   2.860   7.786  11.194  0.3972 -1.4337  0.3272
  842MOL0     O11020   2.990   7.787  11.169  0.6565  0.1667  0.0023
  842MOL0     C11021   3.094   7.743  11.258 -0.5384 -0.1236  0.1473
  842MOL0     C11022   3.129   7.597  11.246 -0.2331 -0.2222 -0.0019
  842MOL0     C11023   3.191   7.565  11.114 -0.9208 -0.2793 -0.2263
  842MOL0     C11024   3.223   7.417  11.084 -0.3357 -0.2410  0.1743
  842MOL0     C11025   3.323   7.362  11.187 -0.4920 -0.0077 -0.5887
  842MOL0     C11026   3.382   7.227  11.155  0.5264  0.8228  0.1455
  842MOL0     C11027   3.474   7.188  11.271  0.2707  0.3339 -0.0558
  842MOL0     C11028   3.530   7.049  11.260 -1.0314 -0.5780  0.6647
  842MOL0     N11029   3.657   7.033  11.326 -0.2586 -0.1708 -0.7478
  842MOL0     C11030   3.771   7.064  11.265 -0.7509 -0.5010  0.5297
  842MOL0     C11031   3.863   7.026  11.356 -0.0170  0.1342 -0.9258
  842MOL0     C11032   4.016   7.039  11.349  0.7234  0.3209 -0.3652
  842MOL0     C11033   4.081   6.913  11.294  0.1331 -0.5139 -0.0599
  842MOL0     C11034   4.023   6.879  11.166 -0.2844  0.2849 -1.3931
  842MOL0     C11035   4.077   6.745  11.125 -0.0214 -0.0747 -0.8376
  842MOL0     O11036   4.022   6.722  11.007  0.5235  0.1415  0.3778
  842MOL0     C11037   4.023   6.597  10.954  0.7224 -0.1164 -0.3193
  842MOL0     C11038   3.945   6.582  10.836 -0.5886  1.3638  0.6884
  842MOL0     C11039   3.944   6.453  10.764  0.5539 -0.1817  0.1047
  842MOL0     C11040   4.015   6.352  10.822 -0.4620  0.4168 -0.1768
  842MOL0     C11041   4.042   6.223  10.745  0.2852 -0.4180  0.6369
  842MOL0     O11042   4.173   6.180  10.759  0.1166  0.1861  0.1760
  842MOL0     C11043   4.225   6.077  10.681 -1.0040 -0.0711 -0.3500
  842MOL0     C11044   4.167   5.959  10.652  0.4150  0.3604 -0.5479
  842MOL0     C11045   4.233   5.875  10.559  0.2535 -0.1544 -0.1421
  842MOL0     C11046   4.358   5.902  10.500  0.4827  0.2220  0.6266
  842MOL0     O11047   4.405   5.809  10.413 -0.6231 -0.0576 -0.7212
  842MOL0     C11048   4.538   5.829  10.362  0.5913 -0.4355 -1.0999
  842MOL0     C11049   4.612   5.698  10.312 -0.8743 -0.4855  0.0031
  842MOL0     C11050   4.553   5.623  10.193  0.4240 -0.1959  0.9274
  842MOL0     C11051   4.534   5.718  10.069  0.0719 -0.1041 -0.3642
  842MOL0     C11052   4.471   5.639   9.943  0.1679 -0.1653 -0.2327
  842MOL0     C11053   4.412   5.723   9.830  0.1723  0.1663  0.1373
  842MOL0     C11054   4.368   5.642   9.710  0.0007  0.8814 -0.0923
  842MOL0     C11055   4.297   5.736   9.616  0.5566 -0.4777  0.7353
  842MOL0    Cl11056   4.246   5.661   9.466 -0.0956  0.1606  0.8395
  842MOL0     C11057   4.409   6.026  10.519 -0.2220  0.4427  0.4699
  842MOL0     C11058   4.340   6.114  10.607  0.0436 -0.5800  0.1460
  842MOL0     O11059   3.962   6.172  10.667  0.0706 -0.5209  0.6469
  842MOL0     C11060   4.085   6.371  10.942 -0.3387  0.2533 -0.5671
  842MOL0     C11061   4.100   6.498  11.000  0.0951  0.7261  0.2182
  842MOL0     N11062   3.799   6.977  11.465 -0.8546 -0.2311 -0.4868
  842MOL0     N11063   3.675   6.966  11.441 -0.3273  0.7124  0.9349
  842MOL0     C11064   2.805   7.708  11.287  0.7814  0.5467 -0.6995
  842MOL0     C11065   2.660   7.690  11.296 -0.0611  0.0698 -0.3537
  842MOL0     C11066   2.214   7.786  11.287 -0.0560 -0.6305  0.0668
  842MOL0     C11067   2.114   7.803  11.386 -0.2234  0.6805  0.1712
  842MOL0     C11068   1.983   7.851  11.347  0.1291  0.4291 -0.4049
  842MOL0     C11069   1.951   7.878  11.213 -0.0218 -0.5490  0.0407
  842MOL0     O11070   1.828   7.935  11.200 -0.0616 -0.8137  0.2185
  842MOL0     C11071   1.770   7.968  11.075  0.4444  0.2010 -0.1287
  842MOL0     C11072   1.619   7.997  11.097  0.5397 -0.0922 -0.1495
  842MOL0     C11073   1.528   7.882  11.149 -0.5810 -0.0678  1.3538
  842MOL0     C11074   1.540   7.877  11.302 -0.0793 -0.3184 -0.2557
  842MOL0     C11075   1.474   7.764  11.357 -0.4265 -0.1161  0.4901
  842MOL0     C11076   1.427   7.666  11.389  0.3075 -0.5747  0.2229
  842MOL0     C11077   2.049   7.852  11.116 -0.2737  1.1002 -0.7543
  842MOL0     C11078   2.173   7.801  11.158 -0.1548  0.2746  0.8937
  842MOL0     H11079   2.573   7.899  11.054 -0.9307  0.4321  2.1852
  842MOL0     H11080   2.827   7.909  11.023  1.3516  1.0868  0.7767
  842MOL0     H11081   3.089   7.780  11.361 -0.8899  0.4252 -0.0590
  842MOL0     H11082   3.180   7.806  11.235 -0.7862  0.2151  0.1254
  842MOL0     H11083   3.037   7.540  11.265  0.0342  0.0856  2.5414
  842MOL0     H11084   3.196   7.571  11.328  1.5504  0.1892 -1.2846
  842MOL0     H11085   3.280   7.626  11.094 -1.4640  0.2527 -1.0787
  842MOL0     H11086   3.122   7.597  11.035 -2.0189  0.3380  0.9522
  842MOL0     H11087   3.125   7.367  11.091 -1.0910  0.9800 -1.0772
  842MOL0     H11088   3.275   7.418  10.987  1.8890  0.6961  1.3175
  842MOL0     H11089   3.265   7.365  11.280  1.3097 -0.4759  0.5897
  842MOL0     H11090   3.408   7.430  11.193  1.0476 -2.0008  1.6733
  842MOL0     H11091   3.438   7.239  11.061 -1.6640 -2.0999 -1.7225
  842MOL0     H11092   3.300   7.155  11.147  0.4790  1.0870 -2.9807
  842MOL0     H11093   3.561   7.253  11.280 -1.1805  2.3926 -0.1451
  842MOL0     H11094   3.414   7.195  11.362 -1.4812 -0.0070 -1.1219
  842MOL0     H11095   3.533   7.033  11.152 -0.7200 -2.0127  0.8731
  842MOL0     H11096   3.451   6.977  11.284  0.1655 -2.4878 -0.8493
  842MOL0     H11097   3.782   7.090  11.160  1.3212 -1.3980  0.4781
  842MOL0     H11098   4.061   7.050  11.448  3.6091  3.0859 -1.7963
  842MOL0     H11099   4.039   7.121  11.281 -0.9363 -2.4786 -4.7814
  842MOL0     H11100   4.041   6.846  11.371 -0.0940  1.2104  1.3702
  842MOL0     H11101   4.187   6.931  11.275  0.4137  1.4236  2.7507
  842MOL0     H11102   3.915   6.863  11.177  0.0394 -0.8603  0.3481
  842MOL0     H11103   4.052   6.950  11.087 -0.0408  0.3714 -1.2253
  842MOL0     H11104   4.050   6.668  11.198 -0.8777 -0.1940 -1.2564
  842MOL0     H11105   4.185   6.744  11.111 -0.0156 -2.7549 -1.1578
  842MOL0     H11106   3.900   6.668  10.786 -0.5391  1.1062  0.2028
  842MOL0     H11107   3.893   6.447  10.669  0.0844  1.0732  0.2483
  842MOL0     H11108   4.076   5.927  10.700 -0.5206  0.3522 -2.2599
  842MOL0     H11109   4.179   5.782  10.544  0.1557 -0.4791  1.9288
  842MOL0     H11110   4.593   5.885  10.438 -1.0958  0.2275 -0.2971
  842MOL0     H11111   4.523   5.895  10.276 -2.7870 -0.3154 -0.5677
  842MOL0     H11112   4.622   5.628  10.396  0.0061 -0.9873 -0.5067
  842MOL0     H11113   4.712   5.732  10.284 -2.1211  1.6561 -2.1940
  842MOL0     H11114   4.456   5.592  10.232 -0.1896 -1.4394 -1.4427
  842MOL0     H11115   4.612   5.533  10.175  0.0616  0.2080 -3.1116
  842MOL0     H11116   4.448   5.784  10.087  0.4748 -0.1082  1.8002
  842MOL0     H11117   4.624   5.777  10.050 -0.5771  1.1047  0.1653
  842MOL0     H11118   4.383   5.586   9.981  0.0117 -0.2179 -0.6624
  842MOL0     H11119   4.531   5.555   9.908 -0.4292 -0.5922 -0.2488
  842MOL0     H11120   4.489   5.795   9.802  1.6080 -2.2735 -2.6592
  842MOL0     H11121   4.320   5.772   9.865 -0.0916 -0.7371  0.7312
  842MOL0     H11122   4.459   5.595   9.672 -0.3525 -0.8500  1.0613
  842MOL0     H11123   4.304   5.561   9.748  1.2387 -0.7734 -1.3395
  842MOL0     H11124   4.355   5.824   9.585  1.0937 -0.0833  2.7682
  842MOL0     H11125   4.209   5.781   9.662  1.4712  0.2754  1.8032
  842MOL0     H11126   4.488   6.064  10.455  0.6636 -0.3107  1.0825
  842MOL0     H11127   4.384   6.213  10.597 -0.9621 -0.3680 -3.5364
  842MOL0     H11128   4.131   6.285  10.991 -3.6560 -0.1084  2.3601
  842MOL0     H11129   4.157   6.524  11.089  0.1811  2.7984 -0.3844
  842MOL0     H11130   2.856   7.643  11.357 -0.8915  0.4533  0.5200
  842MOL0     H11131   2.610   7.619  11.361 -2.8972  1.4319 -0.9105
  842MOL0     H11132   2.133   7.786  11.492 -0.6964 -2.2727 -0.1241
  842MOL0     H11133   1.910   7.880  11.422 -0.0741 -1.4698  0.1988
  842MOL0     H11134   1.798   7.897  10.996  3.6586  0.4060  0.6728
  842MOL0     H11135   1.813   8.063  11.041 -1.3022  1.2105  0.3591
  842MOL0     H11136   1.623   8.084  11.163  3.0789 -2.6878  3.5451
  842MOL0     H11137   1.583   8.023  10.997 -0.1319 -0.3438  0.0210
  842MOL0     H11138   1.566   7.797  11.091 -2.7432  1.1265 -2.1000
  842MOL0     H11139   1.425   7.902  11.118 -0.0205  2.4963  0.9561
  842MOL0     H11140   1.642   7.871  11.340 -0.5481 -1.2275  0.9398
  842MOL0     H11141   1.484   7.960  11.347 -0.9531 -1.8095  1.5917
  842MOL0     H11142   1.380   7.572  11.408 -3.8215  1.1860 -0.1773
  842MOL0     H11143   2.026   7.880  11.014  1.1677  5.2585 -0.1354
  842MOL0     H11144   2.239   7.785  11.074  0.4109 -1.1554  1.5798
  843MOL0     O11145   4.293   2.803  10.978 -0.4431 -0.3328  0.2112
  843MOL0     C11146   4.205   2.841  10.902 -0.2604 -0.4768  0.1568
  843MOL0     O11147   4.077   2.860  10.942  0.0998  0.0831  0.3988
  843MOL0     C11148   4.027   2.834  11.060 -0.0609  0.5321  0.0398
  843MOL0     C11149   4.028   2.710  11.113  0.0308 -0.4577  0.5410
  843MOL0     C11150   3.961   2.684  11.235  0.1877 -0.8494 -0.0436
  843MOL0     C11151   3.895   2.786  11.311 -0.0964  0.1706  0.5117
  843MOL0     O11152   3.832   2.743  11.424 -0.2833  0.1914  0.4055
  843MOL0     C11153   3.744   2.837  11.487  0.0565  0.5466  0.2407
  843MOL0     C11154   3.807   2.936  11.586 -0.3429 -1.0583  0.4535
  843MOL0     C11155   3.915   2.878  11.681  0.0728  0.5138  0.7175
  843MOL0     C11156   4.012   2.962  11.770  0.1086 -0.2697 -0.0598
  843MOL0     C11157   4.092   2.860  11.849 -0.3321  0.0655  0.2346
  843MOL0     C11158   4.195   2.929  11.928 -0.2282 -0.5503 -0.1009
  843MOL0     C11159   4.275   2.834  12.029 -0.5536  0.2040 -0.4386
  843MOL0     C11160   4.345   2.906  12.142  0.2185  0.2295 -0.2602
  843MOL0     N11161   4.429   3.003  12.086 -0.0810  0.5274 -0.5197
  843MOL0     C11162   4.515   2.981  11.977  0.2567 -0.6100  0.0774
  843MOL0     C11163   4.604   3.079  11.978  0.1694 -0.2085  1.0395
  843MOL0     C11164   4.711   3.083  11.882  0.1741  0.0494 -0.1465
  843MOL0     C11165   4.659   3.071  11.741 -0.7867  0.9343  0.7159
  843MOL0     C11166   4.764   3.043  11.643  0.0363  0.5870  0.9211
  843MOL0     C11167   4.719   3.006  11.495  0.9740 -0.2301 -0.5558
  843MOL0     O11168   4.654   3.124  11.445  0.3019  0.1605  0.0295
  843MOL0     C11169   4.623   3.135  11.314 -0.1498 -0.5693 -0.7659
  843MOL0     C11170   4.601   3.018  11.238  0.4100 -0.1798  0.0493
  843MOL0     C11171   4.573   3.020  11.103  0.3755  0.9710  0.5036
  843MOL0     C11172   4.561   3.142  11.040  0.1589  1.0686 -1.1343
  843MOL0     C11173   4.540   3.147  10.898 -0.5758 -0.0413 -0.5169
  843MOL0     O11174   4.548   3.275  10.844 -0.8054  0.2375  0.0931
  843MOL0     C11175   4.521   3.304  10.714 -0.4565  0.3687  0.5224
  843MOL0     C11176   4.610   3.400  10.664  0.2285  0.0012 -0.7554
  843MOL0     C11177   4.607   3.438  10.528  0.6619 -0.4483 -0.1113
  843MOL0     C11178   4.519   3.374  10.442 -0.3456 -0.0852  0.5514
  843MOL0     O11179   4.518   3.427  10.318 -0.2142  0.4561  1.0382
  843MOL0     C11180   4.410   3.391  10.222 -0.3921 -0.1450  0.4012
  843MOL0     C11181   4.372   3.515  10.141  0.4207  0.5281 -1.1720
  843MOL0     C11182   4.271   3.472  10.039 -0.1565  1.5594  0.2321
  843MOL0     C11183   4.218   3.587   9.952 -0.4683  0.7387 -0.1601
  843MOL0     C11184   4.084   3.534   9.882 -0.0598 -0.2458 -0.6785
  843MOL0     C11185   3.998   3.646   9.827 -0.5804  0.0824  0.3821
  843MOL0     C11186   3.867   3.665   9.916  0.4883  0.5463  1.2592
  843MOL0     C11187   3.906   3.720  10.051 -0.7458  0.3276  0.3645
  843MOL0    Cl11188   3.753   3.779  10.117 -0.1060 -0.1696  0.7768
  843MOL0     C11189   4.428   3.282  10.488 -0.1837  0.4105  0.0284
  843MOL0     C11190   4.423   3.248  10.633 -0.2764 -0.5145 -0.3229
  843MOL0     O11191   4.521   3.043  10.832 -0.7411 -0.5138  0.7320
  843MOL0     C11192   4.581   3.257  11.111 -0.1872 -0.4983 -0.1180
  843MOL0     C11193   4.614   3.255  11.252 -0.0665 -1.4556  0.1297
  843MOL0     N11194   4.571   3.167  12.070 -0.4620  0.1696  0.0132
  843MOL0     N11195   4.467   3.120  12.143  0.3984 -0.1976 -0.4416
  843MOL0     C11196   3.888   2.910  11.244  0.1753 -0.8186  0.0083
  843MOL0     C11197   3.958   2.933  11.127  0.0232 -0.8857  0.1585
  843MOL0     C11198   4.230   2.848  10.760  0.1382 -0.3708  0.6572
  843MOL0     C11199   4.147   2.935  10.688 -0.8044 -0.1368 -0.2094
  843MOL0     C11200   4.151   2.945  10.550 -0.4447  0.5156 -0.9350
  843MOL0     C11201   4.248   2.869  10.478 -0.1067  0.2233 -0.6137
  843MOL0     O11202   4.229   2.877  10.344 -0.2302  0.1879  0.4851
  843MOL0     C11203   4.315   2.801  10.246  0.6490 -0.0636 -0.1714
  843MOL0     C11204   4.260   2.655  10.240 -0.8260  1.1149 -0.5565
  843MOL0     C11205   4.119   2.642  10.178  0.2034 -0.0227 -0.2543
  843MOL0     C11206   4.115   2.589  10.038  0.4750 -0.2630 -0.3434
  843MOL0     C11207   4.074   2.449  10.030  0.5864  0.0542  0.5375
  843MOL0     C11208   4.051   2.330  10.035  0.2906 -0.2004  0.2814
  843MOL0     C11209   4.331   2.786  10.539 -0.8231  0.6642  0.7950
  843MOL0     C11210   4.317   2.768  10.679 -0.2628 -0.0635 -0.2855
  843MOL0     H11211   4.091   2.640  11.060  3.7249  3.4596 -0.8263
  843MOL0     H11212   3.981   2.590  11.286 -1.2608 -1.2438 -0.1678
  843MOL0     H11213   3.680   2.775  11.551  1.5937 -0.1807  1.1399
  843MOL0     H11214   3.682   2.884  11.410 -1.3455  1.1844  1.7086
  843MOL0     H11215   3.722   2.968  11.648 -3.6184  0.8497 -4.3928
  843MOL0     H11216   3.845   3.025  11.535  3.5526 -0.9202  3.1628
  843MOL0     H11217   3.978   2.815  11.617 -1.9013  0.5242 -1.3373
  843MOL0     H11218   3.866   2.808  11.748 -1.7063  0.0708 -0.9672
  843MOL0     H11219   4.079   3.016  11.703  0.4025 -0.2849  0.2214
  843MOL0     H11220   3.966   3.042  11.827 -1.3758  1.8484 -3.8267
  843MOL0     H11221   4.140   2.804  11.769 -1.1269  2.6936 -2.2666
  843MOL0     H11222   4.041   2.791  11.917 -1.6401  0.1714 -0.6125
  843MOL0     H11223   4.151   3.012  11.985  1.5814 -0.4713  1.2963
  843MOL0     H11224   4.262   2.980  11.858  4.8270 -4.1241  1.5336
  843MOL0     H11225   4.212   2.761  12.081  0.7183 -0.2957  0.4308
  843MOL0     H11226   4.352   2.784  11.970 -0.7773  0.0868 -0.6360
  843MOL0     H11227   4.393   2.830  12.205  0.1820 -3.0534 -3.8455
  843MOL0     H11228   4.263   2.956  12.195 -0.7660 -0.2585 -1.2852
  843MOL0     H11229   4.491   2.907  11.903 -2.7920  0.1966  0.1437
  843MOL0     H11230   4.789   3.010  11.902  0.3761  0.0069 -1.0447
  843MOL0     H11231   4.766   3.178  11.887 -0.0138  0.2122 -0.9775
  843MOL0     H11232   4.604   3.162  11.716  0.3971  1.9781  1.7423
  843MOL0     H11233   4.598   2.981  11.727  0.5024  0.2523 -0.7650
  843MOL0     H11234   4.825   3.134  11.636 -2.8181  2.4952 -3.5395
  843MOL0     H11235   4.820   2.958  11.682 -1.8995 -0.6821  1.0483
  843MOL0     H11236   4.643   2.927  11.495 -0.9628  1.5448 -0.1443
  843MOL0     H11237   4.801   2.978  11.428  1.1207 -1.6763  0.2004
  843MOL0     H11238   4.590   2.920  11.284  0.3970  0.4132  1.3618
  843MOL0     H11239   4.564   2.921  11.059 -0.1994 -0.8331  4.2710
  843MOL0     H11240   4.672   3.442  10.742  0.2361  0.7080 -1.1319
  843MOL0     H11241   4.694   3.495  10.500 -0.4639  0.9242 -0.9755
  843MOL0     H11242   4.324   3.359  10.282  0.9238  0.2458  2.6146
  843MOL0     H11243   4.452   3.315  10.156  2.7541  0.3680  1.6390
  843MOL0     H11244   4.452   3.553  10.077 -0.6847 -2.2390 -4.5393
  843MOL0     H11245   4.318   3.589  10.200 -1.3647 -1.0042 -0.7789
  843MOL0     H11246   4.193   3.420  10.094  0.9018 -2.1476 -1.4587
  843MOL0     H11247   4.321   3.391   9.984 -1.0958  1.1925 -0.1078
  843MOL0     H11248   4.217   3.667  10.026  3.4279 -2.1639  3.5635
  843MOL0     H11249   4.306   3.612   9.892  0.9475  3.7264  2.8530
  843MOL0     H11250   4.025   3.477   9.954 -0.3648  2.5118  1.4353
  843MOL0     H11251   4.113   3.466   9.802  2.4031  1.0564 -1.0110
  843MOL0     H11252   3.971   3.612   9.727 -1.8419 -0.3108  0.8358
  843MOL0     H11253   4.059   3.736   9.820 -2.4776  1.7078  2.7028
  843MOL0     H11254   3.807   3.739   9.864  1.3022  0.2688 -0.1050
  843MOL0     H11255   3.803   3.576   9.923  0.6428  0.1074 -1.7401
  843MOL0     H11256   3.971   3.809  10.051 -0.6038  0.2255  0.5925
  843MOL0     H11257   3.964   3.642  10.100  0.7159  0.0943 -1.5852
  843MOL0     H11258   4.356   3.231  10.425 -0.2737  0.8209 -0.2009
  843MOL0     H11259   4.357   3.168  10.666  0.7975 -1.4829 -0.4690
  843MOL0     H11260   4.582   3.347  11.050  2.6483 -2.1163 -2.7459
  843MOL0     H11261   4.629   3.354  11.295 -0.7201 -0.5803 -1.5430
  843MOL0     H11262   3.833   2.993  11.287  0.0478 -0.5765 -0.6123
  843MOL0     H11263   3.964   3.037  11.094 -2.4614 -0.5166  0.6579
  843MOL0     H11264   4.075   3.008  10.725  2.6211  1.6360  3.8200
  843MOL0     H11265   4.078   3.008  10.501 -0.0138  2.1060  0.3879
  843MOL0     H11266   4.415   2.804  10.289 -0.7833  0.6721  3.4504
  843MOL0     H11267   4.309   2.859  10.154  0.8326  2.4500  1.3320
  843MOL0     H11268   4.334   2.594  10.188 -0.8741 -0.6519  1.3340
  843MOL0     H11269   4.257   2.609  10.339  2.1163  0.5689 -0.6279
  843MOL0     H11270   4.089   2.745  10.157 -0.6198 -0.3371 -0.7151
  843MOL0     H11271   4.049   2.592  10.246 -1.2862  1.7653 -0.4020
  843MOL0     H11272   4.047   2.647   9.975  2.0222  0.2565 -1.5822
  843MOL0     H11273   4.207   2.600   9.981 -0.9440  0.8587 -2.5524
  843MOL0     H11274   4.028   2.226  10.020 -0.3912 -0.1154  0.6955
  843MOL0     H11275   4.405   2.731  10.482 -0.0859  4.0449 -1.8240
  843MOL0     H11276   4.389   2.705  10.730 -1.9754 -0.7395  1.4503
  844MOL0     O11277   0.313   1.479   6.402 -0.2382 -0.3756  0.8813
  844MOL0     C11278   0.403   1.555   6.361 -0.1756  0.7423  0.5467
  844MOL0     O11279   0.382   1.680   6.317 -0.6469  0.1956  0.0033
  844MOL0     C11280   0.257   1.724   6.319  0.5993 -0.4376 -0.5368
  844MOL0     C11281   0.154   1.668   6.241  0.1221 -0.6519 -0.1210
  844MOL0     C11282   0.035   1.728   6.221  1.2903  0.0813 -0.3433
  844MOL0     C11283   0.006   1.853   6.295  0.1238  0.3408 -0.8349
  844MOL0     O11284  -0.118   1.910   6.275  0.4754 -0.0124  0.3574
  844MOL0     C11285  -0.138   2.038   6.331 -0.7660  0.6214 -0.2972
  844MOL0     C11286  -0.284   2.092   6.299  0.8416  0.6714 -0.0693
  844MOL0     C11287  -0.390   2.007   6.382 -0.1510 -1.3699  0.3286
  844MOL0     C11288  -0.528   2.045   6.321 -0.3695 -0.0920  0.1590
  844MOL0     C11289  -0.640   1.960   6.377  0.4294 -0.3917  1.0617
  844MOL0     C11290  -0.771   1.995   6.311 -0.9389 -0.2345  0.0370
  844MOL0     C11291  -0.891   1.957   6.389  0.5400  0.0728 -0.6002
  844MOL0     C11292  -1.028   1.961   6.318  0.4871  0.2518 -0.5432
  844MOL0     N11293  -1.030   2.068   6.228 -1.3670  0.5023  0.3608
  844MOL0     C11294  -1.011   2.065   6.091  1.0025  0.7660 -0.8808
  844MOL0     C11295  -1.034   2.184   6.041 -0.3498 -1.1513 -1.2251
  844MOL0     C11296  -1.018   2.222   5.896 -0.0658  0.5422  0.3845
  844MOL0     C11297  -1.112   2.146   5.795  0.6784 -0.3572  0.2613
  844MOL0     C11298  -1.262   2.184   5.810  0.1807 -0.5672 -1.0163
  844MOL0     C11299  -1.369   2.078   5.792  0.0803 -0.3469 -0.2221
  844MOL0     O11300  -1.489   2.155   5.752 -0.1599 -0.1303  0.0143
  844MOL0     C11301  -1.599   2.080   5.696 -1.1074  1.5832  0.8006
  844MOL0     C11302  -1.710   2.151   5.654  0.3812 -0.2182  0.3726
  844MOL0     C11303  -1.818   2.084   5.601 -0.0439  0.7613  0.2448
  844MOL0     C11304  -1.826   1.940   5.599  0.3821 -0.4086  0.5165
  844MOL0     C11305  -1.939   1.881   5.515 -1.0791 -0.9518  1.0247
  844MOL0     O11306  -1.934   1.746   5.520  0.0350 -0.1066 -0.4526
  844MOL0     C11307  -2.012   1.690   5.424 -1.0285  0.3765 -1.4808
  844MOL0     C11308  -2.144   1.674   5.445 -0.1795 -0.0518 -0.7830
  844MOL0     C11309  -2.222   1.613   5.345 -0.1068 -0.0647 -0.4713
  844MOL0     C11310  -2.157   1.561   5.228 -0.2607  0.9049 -1.0041
  844MOL0     O11311  -2.248   1.491   5.155  0.2380 -0.6569  0.8148
  844MOL0     C11312  -2.233   1.483   5.010 -0.1722  1.0169  0.9007
  844MOL0     C11313  -2.169   1.353   4.970  1.0666  0.4285  0.0966
  844MOL0     C11314  -2.252   1.231   5.005 -0.3112  0.2058 -0.4595
  844MOL0     C11315  -2.166   1.102   4.980  0.4076  1.0176  0.1376
  844MOL0     C11316  -2.246   0.991   5.035  0.2098 -0.9797  0.2772
  844MOL0     C11317  -2.160   0.882   5.092  0.5128 -0.9151  0.1410
  844MOL0     C11318  -2.253   0.782   5.167 -0.1164 -0.1789  0.1056
  844MOL0     C11319  -2.181   0.656   5.206 -0.2404 -0.5962 -0.2207
  844MOL0    Cl11320  -2.052   0.686   5.319  0.1942  0.6418 -0.1488
  844MOL0     C11321  -2.025   1.570   5.207 -0.2572  0.6266 -0.5203
  844MOL0     C11322  -1.950   1.633   5.304  0.0179 -0.8149  0.0395
  844MOL0     O11323  -2.003   1.945   5.437 -0.1302 -0.2099 -0.6767
  844MOL0     C11324  -1.717   1.870   5.646  0.3442  0.3768  0.5072
  844MOL0     C11325  -1.608   1.932   5.699 -0.2893  0.1811  0.0178
  844MOL0     N11326  -1.053   2.267   6.150 -0.5093  0.6423  0.2983
  844MOL0     N11327  -1.064   2.192   6.260  0.4934  0.7880 -0.0615
  844MOL0     C11328   0.117   1.916   6.359 -0.5044  0.5447 -1.0416
  844MOL0     C11329   0.240   1.853   6.369  0.0762  0.4685  0.1316
  844MOL0     C11330   0.539   1.511   6.348 -0.1034  0.8451  0.1629
  844MOL0     C11331   0.646   1.597   6.305 -1.2023  0.4086  0.0428
  844MOL0     C11332   0.782   1.553   6.298 -0.6374 -0.3119 -0.1640
  844MOL0     C11333   0.817   1.423   6.329  0.6139 -0.0003  0.6683
  844MOL0     O11334   0.945   1.374   6.319 -0.6136 -0.2413  0.3499
  844MOL0     C11335   1.048   1.462   6.273 -0.4574  0.3632 -0.1647
  844MOL0     C11336   1.177   1.374   6.262 -1.0169 -1.1204  0.1265
  844MOL0     C11337   1.155   1.238   6.213  0.1196  0.5484 -0.0270
  844MOL0     C11338   1.259   1.166   6.130  0.5691  0.3223  1.1877
  844MOL0     C11339   1.297   1.241   6.015  0.5641 -0.5004  0.2501
  844MOL0     C11340   1.324   1.316   5.926 -0.0791 -0.5071  0.8931
  844MOL0     C11341   0.710   1.334   6.354  0.6642 -0.3463 -0.3140
  844MOL0     C11342   0.578   1.378   6.384  0.9689  0.2432  1.0306
  844MOL0     H11343   0.144   1.569   6.197 -1.2882 -0.3120 -0.6096
  844MOL0     H11344  -0.042   1.683   6.160  1.4469 -1.5940  0.6257
  844MOL0     H11345  -0.070   2.110   6.286  1.2585 -1.2295 -0.3580
  844MOL0     H11346  -0.133   2.019   6.438 -2.8337 -3.2784 -0.6818
  844MOL0     H11347  -0.311   2.083   6.193  0.6011 -0.6730  0.0939
  844MOL0     H11348  -0.281   2.197   6.329 -0.4698 -0.4165  4.7924
  844MOL0     H11349  -0.380   2.027   6.489  0.5315  1.4727 -0.1853
  844MOL0     H11350  -0.372   1.902   6.359  1.9897 -0.3232 -3.6921
  844MOL0     H11351  -0.555   2.150   6.332 -2.4903 -0.6663  0.8845
  844MOL0     H11352  -0.523   2.029   6.213 -1.6866  2.3989 -0.3505
  844MOL0     H11353  -0.653   1.960   6.486  2.7158 -4.6027  1.5662
  844MOL0     H11354  -0.620   1.854   6.359 -0.3351 -0.1571 -1.6661
  844MOL0     H11355  -0.789   1.945   6.215  1.3967 -1.8697  0.3824
  844MOL0     H11356  -0.776   2.104   6.310  0.3855 -0.1159  1.6109
  844MOL0     H11357  -0.885   1.857   6.434  1.3059  0.3323 -0.0945
  844MOL0     H11358  -0.896   2.018   6.479 -1.4711  2.3199 -2.1168
  844MOL0     H11359  -1.100   1.986   6.397  0.8293  0.2376 -0.2232
  844MOL0     H11360  -1.063   1.867   6.275 -0.3066  0.1595  0.2766
  844MOL0     H11361  -0.979   1.979   6.034  1.0871  0.8645 -0.9817
  844MOL0     H11362  -0.911   2.219   5.874 -0.0208  2.1080  0.2972
  844MOL0     H11363  -1.041   2.328   5.884  2.3167  0.9013 -1.8659
  844MOL0     H11364  -1.094   2.040   5.811  0.4131 -1.1771 -3.7355
  844MOL0     H11365  -1.082   2.160   5.690 -0.3137  0.1644  0.0284
  844MOL0     H11366  -1.286   2.206   5.914  2.5643  2.4678 -0.9652
  844MOL0     H11367  -1.289   2.276   5.759 -2.9615  0.4509  2.0874
  844MOL0     H11368  -1.376   2.020   5.885  1.0198 -2.8242 -1.6207
  844MOL0     H11369  -1.346   2.011   5.709 -1.2771 -0.2495 -0.6945
  844MOL0     H11370  -1.692   2.258   5.651  1.5089 -0.3040 -3.9166
  844MOL0     H11371  -1.902   2.137   5.556  0.7552  2.3876  0.5973
  844MOL0     H11372  -2.186   1.711   5.538  0.6510 -2.2188  0.5291
  844MOL0     H11373  -2.325   1.586   5.365  0.4503 -2.6423 -0.6896
  844MOL0     H11374  -2.169   1.563   4.974 -0.6808  0.2380 -2.0124
  844MOL0     H11375  -2.334   1.474   4.969 -0.7169  0.8287  2.2154
  844MOL0     H11376  -2.073   1.346   5.022  1.4873  2.0644 -0.3872
  844MOL0     H11377  -2.149   1.355   4.862  2.8348 -0.1479  0.3976
  844MOL0     H11378  -2.337   1.236   4.936  2.9154  2.7361 -4.7375
  844MOL0     H11379  -2.269   1.250   5.112  0.2712  1.6940 -0.6067
  844MOL0     H11380  -2.131   1.081   4.878  2.5964  1.3309  0.7630
  844MOL0     H11381  -2.075   1.117   5.039  0.7081  1.3456 -0.3945
  844MOL0     H11382  -2.318   0.945   4.966 -0.2392 -2.3802  1.6158
  844MOL0     H11383  -2.309   1.032   5.115 -0.1331  3.1069 -1.8520
  844MOL0     H11384  -2.092   0.922   5.167 -0.2971 -1.3427  1.1256
  844MOL0     H11385  -2.111   0.830   5.009 -0.2109 -0.6387 -0.4683
  844MOL0     H11386  -2.289   0.832   5.257  0.6256  0.7997 -0.1246
  844MOL0     H11387  -2.343   0.744   5.118  0.5047 -3.0564  0.9618
  844MOL0     H11388  -2.138   0.604   5.120  1.2689  1.4269 -0.7582
  844MOL0     H11389  -2.260   0.600   5.256 -0.2591  0.9004  1.5207
  844MOL0     H11390  -1.989   1.526   5.114  1.0070 -0.0796  0.2651
  844MOL0     H11391  -1.843   1.618   5.301 -0.2908 -3.7980  1.1173
  844MOL0     H11392  -1.716   1.762   5.654  2.5355  0.4683  2.6099
  844MOL0     H11393  -1.530   1.880   5.753  0.2147  2.0554  1.1946
  844MOL0     H11394   0.121   2.009   6.415 -0.8213  0.4601 -0.8815
  844MOL0     H11395   0.330   1.902   6.404  1.5893 -2.9900  1.4510
  844MOL0     H11396   0.635   1.703   6.283  0.2135  0.5089 -0.2667
  844MOL0     H11397   0.861   1.627   6.289  0.6001 -1.4552  0.8457
  844MOL0     H11398   1.062   1.546   6.342  2.0649 -2.7753  3.5400
  844MOL0     H11399   1.015   1.488   6.171  0.1737 -0.3059 -0.5472
  844MOL0     H11400   1.253   1.424   6.201 -0.0961 -2.6151 -0.0045
  844MOL0     H11401   1.220   1.378   6.363  0.6668 -0.1657 -0.5868
  844MOL0     H11402   1.064   1.238   6.152 -0.0680 -1.5953  0.1785
  844MOL0     H11403   1.131   1.169   6.295 -1.6598 -0.0183 -0.9648
  844MOL0     H11404   1.345   1.135   6.190  2.7978 -0.7376 -2.2452
  844MOL0     H11405   1.211   1.072   6.101 -0.1961  0.8262  0.7870
  844MOL0     H11406   1.352   1.383   5.848  2.8396 -0.7841  1.5500
  844MOL0     H11407   0.743   1.231   6.360  0.1216 -0.4887  0.3442
  844MOL0     H11408   0.488   1.318   6.395 -1.2296  2.9792 -0.7215
  845MOL0     O11409   7.360  11.121   0.986  0.2176 -0.0677  0.0299
  845MOL0     C11410   7.424  11.175   1.075  0.7622  0.1672  0.4603
  845MOL0     O11411   7.556  11.159   1.097 -0.0757 -1.0978 -0.9090
  845MOL0     C11412   7.631  11.058   1.035 -0.0331 -0.5279  0.2193
  845MOL0     C11413   7.723  11.015   1.129  0.3156  0.5905  0.8234
  845MOL0     C11414   7.829  10.937   1.083  0.4001  0.3472  0.8511
  845MOL0     C11415   7.838  10.900   0.948 -0.8167  0.3391  0.2420
  845MOL0     O11416   7.947  10.824   0.924  0.1398  0.4801  0.3961
  845MOL0     C11417   7.999  10.796   0.791  0.1097  0.2485  0.4779
  845MOL0     C11418   8.110  10.690   0.808  0.1870  0.9449 -0.2387
  845MOL0     C11419   8.253  10.757   0.796 -0.2435  0.1590  0.3574
  845MOL0     C11420   8.367  10.671   0.836  0.5382 -0.1619 -0.3991
  845MOL0     C11421   8.499  10.746   0.807 -0.6419 -0.4178  0.2475
  845MOL0     C11422   8.595  10.686   0.906  0.2526 -0.6578 -0.4437
  845MOL0     C11423   8.732  10.769   0.900 -0.5261  1.2515 -0.1429
  845MOL0     C11424   8.728  10.907   0.968  0.3889  0.7971 -0.4248
  845MOL0     N11425   8.847  10.982   0.954 -0.3601 -0.2338  0.1397
  845MOL0     C11426   8.970  10.939   0.994 -0.1568  0.0397  0.2717
  845MOL0     C11427   9.047  11.055   0.993  0.4056  0.3267 -0.0762
  845MOL0     C11428   9.178  11.080   1.052 -0.2126  0.2774  0.2871
  845MOL0     C11429   9.164  11.103   1.202  0.5055  0.3750  0.4562
  845MOL0     C11430   9.287  11.132   1.288 -0.9989 -0.1164  0.4505
  845MOL0     C11431   9.236  11.174   1.434  0.3802  0.3339  0.6728
  845MOL0     O11432   9.327  11.115   1.527  0.3242  0.1617 -0.2313
  845MOL0     C11433   9.438  11.185   1.567 -0.7871  0.1256  0.0191
  845MOL0     C11434   9.499  11.155   1.692  0.1752  0.1853 -0.0709
  845MOL0     C11435   9.607  11.226   1.737 -1.3349 -0.1914  0.1741
  845MOL0     C11436   9.676  11.320   1.655  0.2047 -0.7871  0.8783
  845MOL0     C11437   9.797  11.379   1.698  0.3869  0.8379 -0.9930
  845MOL0     O11438   9.847  11.349   1.822  0.6225 -0.1094  0.3383
  845MOL0     C11439   9.945  11.433   1.881 -0.3746  0.0779 -0.1753
  845MOL0     C11440  10.034  11.360   1.968  1.0307  0.4679 -0.3588
  845MOL0     C11441  10.138  11.427   2.036  0.1650 -0.0041  0.0936
  845MOL0     C11442  10.158  11.564   2.035  0.8044 -0.2595 -0.4737
  845MOL0     O11443  10.263  11.620   2.101  1.4344  0.3430 -0.0283
  845MOL0     C11444  10.283  11.766   2.089 -0.0690  0.9670 -0.3027
  845MOL0     C11445  10.379  11.801   1.979 -1.0423 -0.1186  0.3887
  845MOL0     C11446  10.389  11.955   1.956  0.8583 -0.4257 -0.9223
  845MOL0     C11447  10.281  11.988   1.865 -0.1126 -0.0248 -0.1325
  845MOL0     C11448  10.290  12.130   1.806  0.0743  0.2981 -0.7295
  845MOL0     C11449  10.234  12.249   1.887  0.9116  0.7084  0.5771
  845MOL0     C11450  10.089  12.254   1.894  0.3535 -0.0314 -0.2247
  845MOL0     C11451  10.012  12.233   1.750  0.8275 -0.2002  0.4250
  845MOL0    Cl11452   9.990  12.062   1.731  0.2823  0.4100  0.3450
  845MOL0     C11453  10.067  11.634   1.938  0.4039 -0.4644 -0.0385
  845MOL0     C11454   9.959  11.566   1.863 -0.7715 -0.2226 -0.8680
  845MOL0     O11455   9.840  11.467   1.626  0.7487  0.2865  0.6394
  845MOL0     C11456   9.624  11.345   1.522  0.1827  0.8359 -0.2842
  845MOL0     C11457   9.506  11.272   1.481 -1.1359  0.4588  0.5325
  845MOL0     N11458   8.973  11.163   0.944 -0.4972 -0.9553 -0.3700
  845MOL0     N11459   8.867  11.113   0.915 -0.0516 -0.7607  1.0315
  845MOL0     C11460   7.733  10.937   0.855 -0.6658  0.4092 -0.0996
  845MOL0     C11461   7.635  11.026   0.897 -0.2748 -0.1930  0.4176
  845MOL0     C11462   7.347  11.260   1.166 -0.2034 -0.0925 -0.9552
  845MOL0     C11463   7.245  11.335   1.125 -0.4625 -0.1771  0.6984
  845MOL0     C11464   7.180  11.423   1.214  0.3776  0.3496  0.0718
  845MOL0     C11465   7.210  11.430   1.346 -1.0061 -0.1226 -0.3912
  845MOL0     O11466   7.145  11.522   1.420  0.2364  0.4402 -0.1961
  845MOL0     C11467   7.158  11.504   1.567 -1.7028  0.0658 -0.1496
  845MOL0     C11468   7.046  11.561   1.653  0.2188  0.0440  0.0785
  845MOL0     C11469   7.017  11.482   1.774 -0.1723  0.1357 -0.8274
  845MOL0     C11470   6.905  11.551   1.862 -1.1129  0.3334 -0.1066
  845MOL0     C11471   6.965  11.602   1.985  0.6596 -1.0929 -1.9849
  845MOL0     C11472   7.008  11.637   2.097 -0.6295  1.7342  0.3655
  845MOL0     C11473   7.296  11.330   1.388  0.6921 -0.0448 -1.0823
  845MOL0     C11474   7.374  11.256   1.305  0.7275  1.6678  1.2645
  845MOL0     H11475   7.708  11.044   1.233 -4.0496  2.1418 -0.0368
  845MOL0     H11476   7.913  10.918   1.149  0.6484 -1.0870  0.1449
  845MOL0     H11477   8.037  10.887   0.742 -1.4248 -0.1026 -1.5348
  845MOL0     H11478   7.919  10.748   0.734  0.0224  1.0014 -0.0553
  845MOL0     H11479   8.098  10.619   0.726 -1.4864 -0.8255  1.4569
  845MOL0     H11480   8.090  10.634   0.899  3.4053 -1.1323 -0.6460
  845MOL0     H11481   8.252  10.840   0.867 -0.3727 -0.7247  1.4238
  845MOL0     H11482   8.265  10.797   0.695  0.4715  0.3688  0.5197
  845MOL0     H11483   8.358  10.628   0.936 -2.7475 -2.2669 -1.4540
  845MOL0     H11484   8.365  10.578   0.780  1.1813  0.4494 -1.4634
  845MOL0     H11485   8.496  10.854   0.818  1.4489 -0.2276 -0.5489
  845MOL0     H11486   8.538  10.725   0.707  0.6438 -1.8751  1.0140
  845MOL0     H11487   8.613  10.582   0.876 -5.0616 -1.3591 -2.2272
  845MOL0     H11488   8.556  10.683   1.008 -4.4667  1.1927 -1.8966
  845MOL0     H11489   8.804  10.702   0.949 -0.7422  1.2256  0.1446
  845MOL0     H11490   8.765  10.779   0.797  0.3740  1.4759  0.1591
  845MOL0     H11491   8.700  10.888   1.072 -1.1925  0.6653 -0.8585
  845MOL0     H11492   8.638  10.958   0.934 -0.1080  0.2883  0.0949
  845MOL0     H11493   8.998  10.842   1.035 -0.1054  0.3366  0.9707
  845MOL0     H11494   9.225  11.168   1.008  3.7263  0.1845  3.6948
  845MOL0     H11495   9.252  11.003   1.030  1.0720  1.4364  0.4327
  845MOL0     H11496   9.115  11.013   1.239  0.7689 -0.5617 -1.3367
  845MOL0     H11497   9.094  11.188   1.206  2.8380  2.5731 -1.7649
  845MOL0     H11498   9.365  11.055   1.288 -0.2943  0.5786 -0.0105
  845MOL0     H11499   9.324  11.226   1.245 -1.9625 -0.0506 -0.2734
  845MOL0     H11500   9.137  11.134   1.457  0.8539  0.5480  3.3660
  845MOL0     H11501   9.216  11.280   1.448  2.7030  0.9446 -0.1294
  845MOL0     H11502   9.458  11.071   1.747  0.5390 -0.4533 -0.7682
  845MOL0     H11503   9.652  11.185   1.827  1.8113 -1.0073 -1.6241
  845MOL0     H11504  10.032  11.256   1.998 -0.4544  1.1344  2.0857
  845MOL0     H11505  10.194  11.367   2.107 -1.4390 -2.4943 -0.5992
  845MOL0     H11506  10.317  11.793   2.190  0.6580 -1.5439  0.2054
  845MOL0     H11507  10.194  11.828   2.075  0.8346  2.2847 -0.3203
  845MOL0     H11508  10.354  11.760   1.881  1.0211  1.4211 -0.8594
  845MOL0     H11509  10.477  11.757   2.000  0.1872  1.2753 -2.0562
  845MOL0     H11510  10.488  11.992   1.926  1.6530 -0.5040  1.3991
  845MOL0     H11511  10.361  11.996   2.054  1.8238  1.2341 -1.2911
  845MOL0     H11512  10.289  11.926   1.776  0.9909 -2.7573  1.7459
  845MOL0     H11513  10.186  11.961   1.911  0.1461  1.1144  1.1567
  845MOL0     H11514  10.242  12.144   1.709  0.2854  2.6038 -0.5777
  845MOL0     H11515  10.392  12.161   1.784 -0.8201  2.4973 -2.1410
  845MOL0     H11516  10.268  12.333   1.826  0.8018 -1.0116 -2.0017
  845MOL0     H11517  10.277  12.242   1.987  0.1561 -3.7473  0.7744
  845MOL0     H11518  10.052  12.177   1.962  1.4971 -1.9821 -1.6834
  845MOL0     H11519  10.071  12.360   1.910  1.8259  0.2458 -0.3209
  845MOL0     H11520  10.058  12.281   1.664  0.1361  3.6594  1.9866
  845MOL0     H11521   9.916  12.283   1.760  1.6270  1.1371  1.9588
  845MOL0     H11522  10.075  11.741   1.924  2.5353 -0.5097  0.5824
  845MOL0     H11523   9.892  11.621   1.798  2.3273  0.9157 -3.3356
  845MOL0     H11524   9.676  11.404   1.447  2.3659 -0.2830  0.2605
  845MOL0     H11525   9.477  11.293   1.379 -1.5155 -1.4490  0.2189
  845MOL0     H11526   7.733  10.914   0.749 -1.1457  1.7582 -0.4234
  845MOL0     H11527   7.569  11.081   0.831 -1.5572 -1.6023  0.4779
  845MOL0     H11528   7.220  11.336   1.019 -0.8223 -1.1533  0.7661
  845MOL0     H11529   7.108  11.490   1.167  2.6004  2.8812 -0.0019
  845MOL0     H11530   7.248  11.542   1.615 -2.1096  1.4533 -0.4564
  845MOL0     H11531   7.163  11.396   1.583 -0.3304  0.1485  0.1467
  845MOL0     H11532   7.067  11.665   1.680 -0.6983 -0.3932  2.7247
  845MOL0     H11533   6.955  11.579   1.595 -0.9722 -0.8567  1.5981
  845MOL0     H11534   7.108  11.478   1.834  0.2921  3.2925 -1.1347
  845MOL0     H11535   6.983  11.381   1.752  1.0787 -0.7877  1.2441
  845MOL0     H11536   6.866  11.624   1.791 -0.9218  0.7069  0.1690
  845MOL0     H11537   6.831  11.475   1.889  0.5898 -0.8419  1.5061
  845MOL0     H11538   7.061  11.668   2.185  0.8806 -1.8567  0.8759
  845MOL0     H11539   7.312  11.305   1.492 -3.0317  1.1471 -0.0870
  845MOL0     H11540   7.452  11.189   1.340 -1.7415 -0.3834  3.2589
  846MOL0     O11541   2.170   4.711   9.215 -0.2692  0.3075  0.2400
  846MOL0     C11542   2.150   4.664   9.099 -0.7590  1.0784 -0.1332
  846MOL0     O11543   2.168   4.542   9.052 -0.3928  0.1471  0.2139
  846MOL0     C11544   2.200   4.432   9.128 -1.4475 -1.1554 -0.9765
  846MOL0     C11545   2.292   4.446   9.234 -0.2556  0.3477 -0.7953
  846MOL0     C11546   2.310   4.348   9.331 -0.4056  0.6096  0.3186
  846MOL0     C11547   2.244   4.228   9.321  0.1322 -0.3594  0.6275
  846MOL0     O11548   2.264   4.118   9.408  0.3068  0.3639  0.7110
  846MOL0     C11549   2.325   4.126   9.531  0.0688 -0.1492 -0.7291
  846MOL0     C11550   2.268   4.211   9.644  0.0890  0.6862  0.9745
  846MOL0     C11551   2.112   4.208   9.636  0.1282  0.5592  0.6360
  846MOL0     C11552   2.046   4.067   9.659  0.1264 -0.0848 -0.9258
  846MOL0     C11553   2.070   4.029   9.810  0.2248  0.0237 -0.2775
  846MOL0     C11554   1.975   3.920   9.858  0.2164 -0.4923 -1.2043
  846MOL0     C11555   2.017   3.861  10.005  0.3583  0.3707  0.0710
  846MOL0     C11556   1.897   3.794  10.073  0.8025 -0.6836  0.6577
  846MOL0     N11557   1.928   3.750  10.215 -0.5280 -0.4149 -0.3004
  846MOL0     C11558   1.936   3.617  10.264  0.6212  0.1311  0.5599
  846MOL0     C11559   1.968   3.627  10.393  0.2764 -0.2712  0.2164
  846MOL0     C11560   2.013   3.527  10.496  0.3561 -0.5516 -0.5849
  846MOL0     C11561   1.908   3.455  10.596 -0.3580 -1.1401  0.0704
  846MOL0     C11562   1.988   3.398  10.709 -0.1028 -1.2844 -0.1858
  846MOL0     C11563   1.905   3.378  10.838 -0.1711  0.7500  0.0520
  846MOL0     O11564   1.871   3.239  10.848 -0.6309  0.1948 -0.4786
  846MOL0     C11565   1.763   3.192  10.928  1.1750  0.0777 -1.2627
  846MOL0     C11566   1.726   3.059  10.917  0.2458  0.7060  0.1070
  846MOL0     C11567   1.606   3.008  10.979  1.1710 -0.1985  0.5344
  846MOL0     C11568   1.527   3.094  11.062 -0.1795  0.0653  0.4180
  846MOL0     C11569   1.395   3.045  11.124 -0.3202  0.4609 -0.8451
  846MOL0     O11570   1.351   2.910  11.102 -0.9266 -0.9839  0.4241
  846MOL0     C11571   1.312   2.837  11.212  0.7536  0.2347  0.7734
  846MOL0     C11572   1.393   2.825  11.325 -0.0064 -0.2817 -0.6657
  846MOL0     C11573   1.347   2.757  11.441  0.1575  0.8834  0.5082
  846MOL0     C11574   1.216   2.707  11.454 -1.0220 -0.7252  1.0306
  846MOL0     O11575   1.169   2.655  11.573 -0.2965  1.3706 -1.2600
  846MOL0     C11576   1.034   2.677  11.607 -0.4163  0.4870  0.6228
  846MOL0     C11577   1.039   2.661  11.756 -1.0124 -0.0156  0.4080
  846MOL0     C11578   0.992   2.796  11.824 -0.2534 -0.1647 -0.1553
  846MOL0     C11579   1.026   2.800  11.974 -0.6602 -0.4144 -0.0119
  846MOL0     C11580   1.024   2.948  12.030  0.0495  0.1076 -0.0847
  846MOL0     C11581   0.886   3.007  12.016 -0.7103 -0.5109 -0.3264
  846MOL0     C11582   0.875   3.143  12.087 -0.3880 -0.3260 -0.2054
  846MOL0     C11583   0.959   3.250  12.020 -0.8961 -0.1268 -0.0263
  846MOL0    Cl11584   0.916   3.410  12.076  0.9866 -0.3739 -0.5237
  846MOL0     C11585   1.136   2.721  11.342 -0.3852 -0.0153 -0.4164
  846MOL0     C11586   1.189   2.776  11.225  0.0781  0.4092 -0.2840
  846MOL0     O11587   1.326   3.130  11.183 -0.6767  0.1978  0.8595
  846MOL0     C11588   1.563   3.228  11.072 -0.2668 -0.4341  0.8377
  846MOL0     C11589   1.683   3.272  11.010  0.4083 -0.6625  0.8994
  846MOL0     N11590   1.969   3.764  10.427  0.5911 -0.3674 -0.0343
  846MOL0     N11591   1.962   3.826  10.320  0.2508  0.4514  0.1869
  846MOL0     C11592   2.154   4.201   9.214 -0.0489 -0.1315 -0.4388
  846MOL0     C11593   2.132   4.310   9.126 -0.0245  0.3690  0.9705
  846MOL0     C11594   2.085   4.756   9.013 -0.0565 -0.0509  0.2532
  846MOL0     C11595   1.982   4.713   8.931  0.5178 -0.1721 -0.1688
  846MOL0     C11596   1.937   4.791   8.829 -0.1128 -0.4974 -0.3127
  846MOL0     C11597   1.994   4.921   8.806  0.6519  0.1087  0.9070
  846MOL0     O11598   1.918   5.003   8.723  0.8940 -0.0750  0.1175
  846MOL0     C11599   1.973   5.127   8.682  0.5347 -0.0008 -1.1558
  846MOL0     C11600   1.880   5.231   8.614  0.4657  0.0853 -1.3644
  846MOL0     C11601   1.931   5.386   8.633  0.3014  0.5198  0.5918
  846MOL0     C11602   1.842   5.480   8.548  0.2601 -0.2033  1.1782
  846MOL0     C11603   1.711   5.496   8.605 -0.4221 -0.5516  0.3132
  846MOL0     C11604   1.596   5.527   8.624  0.0439 -0.8118 -0.4854
  846MOL0     C11605   2.116   4.946   8.869  0.2393 -0.1987  0.6797
  846MOL0     C11606   2.163   4.857   8.967  0.9431 -0.8231 -0.6710
  846MOL0     H11607   2.351   4.535   9.251  1.9241 -0.8718 -1.5177
  846MOL0     H11608   2.385   4.368   9.408 -1.3140  2.9921  0.6704
  846MOL0     H11609   2.432   4.146   9.519  1.0481 -0.9458  4.3315
  846MOL0     H11610   2.350   4.024   9.565 -1.7333 -0.5793 -0.6081
  846MOL0     H11611   2.303   4.314   9.632  4.0866 -0.6208 -0.4138
  846MOL0     H11612   2.295   4.177   9.744  0.1229 -1.4377  0.3009
  846MOL0     H11613   2.073   4.255   9.545 -0.2271 -2.0053 -0.6379
  846MOL0     H11614   2.071   4.274   9.712 -3.9012 -0.4019 -0.4705
  846MOL0     H11615   1.938   4.075   9.648  0.2755 -0.5212 -3.2002
  846MOL0     H11616   2.074   3.994   9.582  3.6999  1.2416 -1.0880
  846MOL0     H11617   2.054   4.110   9.882 -1.4029 -2.1037  1.9013
  846MOL0     H11618   2.168   3.981   9.802 -0.2154 -0.7546 -1.2860
  846MOL0     H11619   1.975   3.835   9.790 -2.0925 -2.7442  1.3725
  846MOL0     H11620   1.869   3.943   9.868  0.2893 -0.5737 -0.1412
  846MOL0     H11621   2.101   3.792   9.993  1.7064  2.1386 -1.0973
  846MOL0     H11622   2.063   3.932  10.074  2.3862 -0.6755 -0.1283
  846MOL0     H11623   1.890   3.701  10.015 -2.5852 -0.4041  0.4688
  846MOL0     H11624   1.804   3.850  10.070  1.4941  0.4693  0.3223
  846MOL0     H11625   1.923   3.526  10.205 -1.1374 -1.8971  3.7424
  846MOL0     H11626   2.085   3.582  10.557 -0.0841  0.0016 -0.5515
  846MOL0     H11627   2.072   3.446  10.453  0.5693 -0.6062 -0.1906
  846MOL0     H11628   1.860   3.365  10.556 -2.0859 -1.5200  2.7350
  846MOL0     H11629   1.841   3.534  10.631  2.9895  1.8710  0.2104
  846MOL0     H11630   2.039   3.303  10.688 -0.9540 -1.8576  0.2593
  846MOL0     H11631   2.066   3.468  10.740 -2.5546  1.9240 -0.7312
  846MOL0     H11632   1.814   3.438  10.837 -1.7300 -1.4485  1.1836
  846MOL0     H11633   1.967   3.415  10.921  3.0742  0.5976 -2.1097
  846MOL0     H11634   1.786   2.995  10.853 -1.1127  2.3521 -3.0437
  846MOL0     H11635   1.579   2.903  10.976 -2.3217  0.4593  2.8879
  846MOL0     H11636   1.490   2.873  11.318  0.1492 -0.0973  1.9397
  846MOL0     H11637   1.419   2.731  11.518  0.7597  1.8606  0.2994
  846MOL0     H11638   0.953   2.615  11.569 -1.6025  1.6176  1.2032
  846MOL0     H11639   1.015   2.780  11.574 -3.5727 -1.0950 -3.1377
  846MOL0     H11640   1.141   2.632  11.783 -1.7489 -1.8975  1.3265
  846MOL0     H11641   0.978   2.573  11.780 -0.2941 -1.3184 -2.1376
  846MOL0     H11642   0.884   2.802  11.810 -0.4303  3.0623  1.4996
  846MOL0     H11643   1.039   2.882  11.775 -1.3800 -0.7864 -2.4883
  846MOL0     H11644   0.954   2.743  12.033 -1.0579  0.9427  0.8611
  846MOL0     H11645   1.121   2.752  11.997  0.3867  1.1440 -0.8626
  846MOL0     H11646   1.101   3.011  11.984 -0.3101  0.6414  0.0245
  846MOL0     H11647   1.058   2.952  12.134 -0.9321 -1.4983  0.3238
  846MOL0     H11648   0.818   2.930  12.053  0.4030 -0.7307  1.3753
  846MOL0     H11649   0.873   3.036  11.911  1.7913  0.7079 -0.3712
  846MOL0     H11650   0.774   3.182  12.077  0.3878  1.5348 -1.2878
  846MOL0     H11651   0.885   3.136  12.196 -1.8052  0.5209  0.0000
  846MOL0     H11652   0.951   3.250  11.911  0.8370  0.4021 -0.1840
  846MOL0     H11653   1.066   3.236  12.042 -1.2662 -0.8903  1.3880
  846MOL0     H11654   1.037   2.676  11.349 -0.3813  0.1858  1.2284
  846MOL0     H11655   1.126   2.776  11.137 -0.0644  3.9843 -0.3413
  846MOL0     H11656   1.501   3.280  11.145  0.3192 -3.0822  3.4293
  846MOL0     H11657   1.702   3.376  11.032 -0.1043  0.2074 -2.2544
  846MOL0     H11658   2.100   4.109   9.198 -1.2339  0.9624 -3.2793
  846MOL0     H11659   2.054   4.308   9.051  0.8784  3.4054 -0.2033
  846MOL0     H11660   1.957   4.608   8.924 -0.0235 -0.0459 -0.1892
  846MOL0     H11661   1.852   4.770   8.764 -1.0487 -1.8804  1.2814
  846MOL0     H11662   2.057   5.109   8.614  1.6344  0.0190  0.1481
  846MOL0     H11663   2.013   5.177   8.771 -1.2977 -0.9041  0.2558
  846MOL0     H11664   1.864   5.217   8.507  0.5983  1.7544 -1.6362
  846MOL0     H11665   1.790   5.231   8.677  1.8629  2.2981  0.8532
  846MOL0     H11666   2.028   5.382   8.582 -0.3221  2.5132 -0.8480
  846MOL0     H11667   1.944   5.424   8.735  0.8872  2.0964 -0.0391
  846MOL0     H11668   1.907   5.568   8.548  0.0679 -0.0486 -0.2542
  846MOL0     H11669   1.842   5.435   8.448  4.6453  3.0369 -0.5615
  846MOL0     H11670   1.495   5.559   8.641  0.0490  0.3127 -2.3156
  846MOL0     H11671   2.150   5.048   8.856 -4.3398  1.8995  2.7330
  846MOL0     H11672   2.267   4.867   8.996  1.6252 -6.5316 -0.0166
  847MOL0     O11673   2.649   0.264   1.018  0.6502  0.4165 -0.4790
  847MOL0     C11674   2.617   0.359   0.942 -0.6119  0.1121 -0.1930
  847MOL0     O11675   2.489   0.382   0.896  0.5762 -0.0870 -0.2428
  847MOL0     C11676   2.385   0.354   0.978  0.3261  0.2444  1.2878
  847MOL0     C11677   2.286   0.277   0.931 -0.2385 -0.2433  0.1680
  847MOL0     C11678   2.177   0.244   1.004  0.4351 -0.4356  0.2269
  847MOL0     C11679   2.155   0.293   1.131 -0.2541 -0.3606 -0.5748
  847MOL0     O11680   2.036   0.278   1.195 -0.1690  0.6644  0.2881
  847MOL0     C11681   1.935   0.186   1.132 -1.3430 -0.5836 -0.0995
  847MOL0     C11682   1.807   0.189   1.210 -0.9117 -0.3805  0.4445
  847MOL0     C11683   1.688   0.113   1.141 -0.1587 -0.3589 -1.0552
  847MOL0     C11684   1.568   0.119   1.239  0.2466  1.0064  0.3656
  847MOL0     C11685   1.602   0.035   1.368 -0.0072  0.0127 -0.2436
  847MOL0     C11686   1.478   0.022   1.460  0.0429  0.0394  0.6598
  847MOL0     C11687   1.474  -0.058   1.589 -0.6312  0.7453 -0.0565
  847MOL0     C11688   1.416  -0.195   1.554  0.7294  1.3331 -0.3579
  847MOL0     N11689   1.429  -0.288   1.670 -0.3188  0.6086  1.0481
  847MOL0     C11690   1.518  -0.274   1.776 -0.2065  0.2542 -0.0317
  847MOL0     C11691   1.487  -0.361   1.867 -0.7194  0.1203  0.0675
  847MOL0     C11692   1.554  -0.385   1.996  0.1541  0.8741 -0.2923
  847MOL0     C11693   1.679  -0.471   1.978  0.5204  0.8195 -0.1187
  847MOL0     C11694   1.699  -0.577   2.092 -0.5478  0.6738 -0.2217
  847MOL0     C11695   1.776  -0.698   2.046 -0.0572  0.7013 -0.5558
  847MOL0     O11696   1.904  -0.658   2.002  0.5791  0.1417  0.3474
  847MOL0     C11697   1.937  -0.734   1.897 -0.1242  0.6501 -0.7112
  847MOL0     C11698   1.869  -0.731   1.776  0.1403  0.5052  0.0473
  847MOL0     C11699   1.923  -0.797   1.665  0.6464 -0.1186 -0.9612
  847MOL0     C11700   2.051  -0.857   1.664  0.3422  1.3591 -0.4425
  847MOL0     C11701   2.113  -0.909   1.547  0.0468  0.3989 -0.4298
  847MOL0     O11702   2.068  -0.875   1.425  0.0770  0.5033  0.0798
  847MOL0     C11703   2.117  -0.916   1.299 -0.1614  0.0476 -0.6396
  847MOL0     C11704   2.066  -0.848   1.180 -0.4460 -0.0924  0.1640
  847MOL0     C11705   2.111  -0.876   1.057  0.0606  0.4982  0.2825
  847MOL0     C11706   2.199  -0.989   1.033 -0.0007  0.3607 -0.2723
  847MOL0     O11707   2.258  -1.022   0.915 -0.3014 -0.2032 -0.6376
  847MOL0     C11708   2.315  -0.916   0.845 -0.2927 -0.9120 -0.3719
  847MOL0     C11709   2.474  -0.912   0.834 -0.1169 -1.2250  0.5428
  847MOL0     C11710   2.520  -0.798   0.742  0.2385 -0.3605  0.5483
  847MOL0     C11711   2.671  -0.810   0.708 -0.1589 -0.2438  0.2274
  847MOL0     C11712   2.732  -0.678   0.651 -0.6957  0.6247  0.2287
  847MOL0     C11713   2.687  -0.647   0.499 -0.1423 -0.3289 -0.3620
  847MOL0     C11714   2.691  -0.504   0.449 -0.1909 -0.2817 -0.4281
  847MOL0     C11715   2.822  -0.441   0.409  0.4729  0.3724 -0.2103
  847MOL0    Cl11716   2.812  -0.267   0.381 -0.1455  0.0918 -0.1043
  847MOL0     C11717   2.248  -1.059   1.140  0.3981 -0.9418  0.0980
  847MOL0     C11718   2.205  -1.023   1.274  0.1949  0.5696 -0.0053
  847MOL0     O11719   2.207  -0.992   1.566  0.4861 -0.4871 -0.3851
  847MOL0     C11720   2.114  -0.866   1.786 -0.1589  0.0891 -1.0541
  847MOL0     C11721   2.055  -0.806   1.901 -0.2740 -0.4566  0.0673
  847MOL0     N11722   1.371  -0.417   1.821  0.7890  0.0617 -0.3289
  847MOL0     N11723   1.337  -0.375   1.710 -0.2892  0.4388  0.1774
  847MOL0     C11724   2.244   0.382   1.186 -0.4923 -0.3316  0.6772
  847MOL0     C11725   2.363   0.413   1.110  0.8706  0.1289  0.1815
  847MOL0     C11726   2.717   0.452   0.909 -0.4661  0.3373 -0.2258
  847MOL0     C11727   2.829   0.467   1.000  0.3220  1.2696 -0.6910
  847MOL0     C11728   2.920   0.574   0.984  0.0825 -0.3305  0.2612
  847MOL0     C11729   2.910   0.647   0.864  0.1601 -0.0319 -1.0718
  847MOL0     O11730   3.004   0.738   0.840  0.2946  0.3480  0.3157
  847MOL0     C11731   3.069   0.711   0.722 -0.4468 -0.7255 -0.4082
  847MOL0     C11732   3.134   0.834   0.680 -0.0717 -0.5317 -0.7690
  847MOL0     C11733   3.241   0.816   0.580 -0.4018 -0.7014 -0.7292
  847MOL0     C11734   3.276   0.960   0.521 -0.5800 -0.3422  0.4716
  847MOL0     C11735   3.359   0.928   0.402 -0.9252  0.6538 -0.0383
  847MOL0     C11736   3.429   0.902   0.313 -1.1874  1.2902  0.1756
  847MOL0     C11737   2.800   0.634   0.778 -0.5103 -0.8000 -0.7866
  847MOL0     C11738   2.705   0.538   0.796 -0.5525  0.5272 -0.2763
  847MOL0     H11739   2.301   0.245   0.829  2.6976 -0.4823  0.5907
  847MOL0     H11740   2.102   0.184   0.953  0.6629 -2.3761  2.0011
  847MOL0     H11741   1.963   0.082   1.115 -1.0161 -0.3176 -1.2632
  847MOL0     H11742   1.897   0.219   1.035 -0.8500 -1.9994 -0.7992
  847MOL0     H11743   1.779   0.292   1.233  0.2987 -0.4117  2.2428
  847MOL0     H11744   1.838   0.139   1.302  0.3807 -2.9425 -1.2661
  847MOL0     H11745   1.713   0.008   1.122  0.3197 -0.2683 -0.9330
  847MOL0     H11746   1.664   0.149   1.041  0.0538  0.1577 -0.9225
  847MOL0     H11747   1.540   0.221   1.265  2.6621  1.5772  0.9796
  847MOL0     H11748   1.488   0.053   1.205 -1.0234  1.9561  1.4170
  847MOL0     H11749   1.676   0.085   1.431 -1.5059 -0.6628  2.2000
  847MOL0     H11750   1.624  -0.071   1.352 -0.5864 -0.3433  1.2085
  847MOL0     H11751   1.388   0.005   1.399  1.1085 -1.0466 -0.6722
  847MOL0     H11752   1.475   0.123   1.502 -2.2451  0.3633 -0.1242
  847MOL0     H11753   1.574  -0.073   1.629 -2.0361 -2.3095  2.7268
  847MOL0     H11754   1.420  -0.016   1.674  0.1724 -2.5818  2.2545
  847MOL0     H11755   1.452  -0.244   1.464 -0.0695  1.5144 -0.7838
  847MOL0     H11756   1.311  -0.170   1.540  1.1289  1.8850 -2.7501
  847MOL0     H11757   1.600  -0.204   1.785  1.1066 -1.5101  3.0456
  847MOL0     H11758   1.479  -0.440   2.053 -0.9429  1.1618 -1.4004
  847MOL0     H11759   1.582  -0.294   2.049 -2.2670  2.6129 -1.7809
  847MOL0     H11760   1.774  -0.418   1.971  0.8714  0.1931 -0.2209
  847MOL0     H11761   1.661  -0.524   1.884 -1.6173 -0.8213  1.1001
  847MOL0     H11762   1.742  -0.521   2.176  0.8611 -1.4956  0.5904
  847MOL0     H11763   1.608  -0.618   2.138 -0.4070 -1.2457 -1.5597
  847MOL0     H11764   1.726  -0.768   1.979  2.0115 -1.4222 -0.0088
  847MOL0     H11765   1.781  -0.760   2.136  1.3723  0.6246 -0.6641
  847MOL0     H11766   1.778  -0.672   1.763 -1.9981 -2.5019  0.4320
  847MOL0     H11767   1.863  -0.793   1.575  0.3501 -2.0812 -0.8985
  847MOL0     H11768   1.990  -0.770   1.180  1.6925  2.1658 -1.5683
  847MOL0     H11769   2.083  -0.812   0.974 -0.4763 -0.0497  0.0334
  847MOL0     H11770   2.279  -0.824   0.892 -2.0039 -2.6826  2.0920
  847MOL0     H11771   2.283  -0.927   0.741 -0.0885  0.5439 -0.6166
  847MOL0     H11772   2.510  -1.005   0.790  3.0333  0.9968 -2.0103
  847MOL0     H11773   2.519  -0.877   0.927 -1.2837  1.1098  0.3074
  847MOL0     H11774   2.504  -0.695   0.775  3.8014  1.6799 -3.1832
  847MOL0     H11775   2.470  -0.804   0.645 -2.0560 -1.6496  1.7389
  847MOL0     H11776   2.730  -0.834   0.797  0.5383 -0.1442 -0.1984
  847MOL0     H11777   2.694  -0.900   0.650  3.2849 -1.4335  3.0640
  847MOL0     H11778   2.841  -0.683   0.665 -0.2125 -1.8701 -3.1604
  847MOL0     H11779   2.694  -0.588   0.699 -1.9908  1.3063 -1.9619
  847MOL0     H11780   2.590  -0.693   0.478  0.2255 -2.1415  1.5731
  847MOL0     H11781   2.751  -0.707   0.434 -0.6376 -2.2815  0.8743
  847MOL0     H11782   2.620  -0.496   0.366 -1.1608 -4.1242 -0.1547
  847MOL0     H11783   2.659  -0.446   0.536  1.2722  0.7944 -0.5698
  847MOL0     H11784   2.863  -0.483   0.317  0.7259 -1.0804  0.5429
  847MOL0     H11785   2.898  -0.453   0.487  1.9368  4.0384 -0.8606
  847MOL0     H11786   2.319  -1.139   1.122  0.7096 -1.1446  2.0434
  847MOL0     H11787   2.246  -1.080   1.357 -0.7564  1.0488  0.7992
  847MOL0     H11788   2.218  -0.898   1.792  0.6861  2.7838  0.4719
  847MOL0     H11789   2.099  -0.802   2.001  1.4390  1.1065 -0.6883
  847MOL0     H11790   2.227   0.436   1.278  1.4944 -0.1289  0.9635
  847MOL0     H11791   2.431   0.493   1.137 -2.6159  3.9777 -1.3247
  847MOL0     H11792   2.844   0.406   1.088 -0.7515  2.1331  0.1185
  847MOL0     H11793   2.996   0.597   1.058 -0.1351 -0.0089  0.3835
  847MOL0     H11794   2.997   0.679   0.646 -3.0019  1.8569  0.7520
  847MOL0     H11795   3.143   0.630   0.728  2.6130  1.9415  1.2588
  847MOL0     H11796   3.056   0.904   0.649  1.1367  0.0670 -2.6621
  847MOL0     H11797   3.174   0.878   0.772 -3.3483 -1.8581  1.4677
  847MOL0     H11798   3.212   0.740   0.506  1.0399 -0.8252 -1.1839
  847MOL0     H11799   3.313   0.771   0.648 -1.9238 -1.0626  0.7269
  847MOL0     H11800   3.192   1.015   0.477 -2.4362 -1.2805  2.5880
  847MOL0     H11801   3.328   1.025   0.592 -1.9023  1.9656 -0.5621
  847MOL0     H11802   3.495   0.891   0.229 -4.2603 -1.2788 -2.1638
  847MOL0     H11803   2.780   0.705   0.699 -1.4218  1.1279  1.0733
  847MOL0     H11804   2.616   0.550   0.735 -2.1653  2.2765  2.1794
  848MOL0     O11805   5.196   1.457  11.051  0.9176 -0.8140  0.6261
  848MOL0     C11806   5.099   1.531  11.045 -0.3279  0.0308  0.3314
  848MOL0     O11807   5.030   1.572  11.163  0.0807  0.2917  0.4227
  848MOL0     C11808   5.099   1.567  11.277  0.4327 -0.6619 -0.2395
  848MOL0     C11809   5.168   1.685  11.319 -0.0313  0.6220  0.1045
  848MOL0     C11810   5.231   1.693  11.441  0.7318 -0.9186  0.1930
  848MOL0     C11811   5.253   1.581  11.527 -0.3659  0.5805  0.1115
  848MOL0     O11812   5.343   1.590  11.631  0.9796 -0.5597  0.5953
  848MOL0     C11813   5.340   1.493  11.735 -0.0653 -0.4407  0.2715
  848MOL0     C11814   5.420   1.370  11.713 -0.1600 -0.0920  0.9441
  848MOL0     C11815   5.504   1.331  11.839  0.4601  0.4350  0.2802
  848MOL0     C11816   5.632   1.256  11.792 -0.5657  1.1633  0.0926
  848MOL0     C11817   5.716   1.245  11.910 -0.9377 -0.5034 -0.6149
  848MOL0     C11818   5.861   1.242  11.869  0.0448 -0.2070  0.4984
  848MOL0     C11819   5.956   1.196  11.982 -0.7976  0.2699 -0.5420
  848MOL0     C11820   6.091   1.183  11.918 -0.2919  0.3662  1.4274
  848MOL0     N11821   6.196   1.238  12.002 -0.2178 -0.6926 -0.1853
  848MOL0     C11822   6.200   1.334  12.101 -0.0740 -0.6445  0.4394
  848MOL0     C11823   6.328   1.318  12.150  0.4935 -0.4477  0.1430
  848MOL0     C11824   6.389   1.404  12.269  0.1066 -0.0040  0.4949
  848MOL0     C11825   6.534   1.359  12.310 -0.4187  0.2304  0.4024
  848MOL0     C11826   6.638   1.390  12.203 -0.1798  0.4839  0.6382
  848MOL0     C11827   6.743   1.277  12.194  0.1479  1.1359 -0.6933
  848MOL0     O11828   6.771   1.200  12.312  0.5316 -0.9069 -0.2988
  848MOL0     C11829   6.842   1.087  12.299 -1.4051 -0.0994 -0.6150
  848MOL0     C11830   6.888   1.031  12.181 -0.6109  0.4084  0.3876
  848MOL0     C11831   6.980   0.931  12.181  0.1185  0.9613  0.2172
  848MOL0     C11832   7.037   0.884  12.302  0.5065  0.0084  1.1168
  848MOL0     C11833   7.147   0.784  12.305 -0.2270  0.8767  0.5345
  848MOL0     O11834   7.201   0.739  12.190  0.6342 -0.0166 -0.4957
  848MOL0     C11835   7.285   0.633  12.203 -0.8540  0.0950 -0.7944
  848MOL0     C11836   7.422   0.653  12.230  1.2596 -0.7121  1.1428
  848MOL0     C11837   7.497   0.532  12.251  0.4788 -0.5102  0.8184
  848MOL0     C11838   7.437   0.409  12.230 -0.3331  0.7561 -0.0731
  848MOL0     O11839   7.512   0.288  12.236 -0.2863 -0.1563 -0.6244
  848MOL0     C11840   7.634   0.303  12.312 -0.3007 -0.4790 -0.5583
  848MOL0     C11841   7.700   0.169  12.333  0.9793  0.5838 -0.3057
  848MOL0     C11842   7.827   0.188  12.417 -0.6649 -0.1762 -0.1663
  848MOL0     C11843   7.925   0.071  12.401  0.7629  0.0106 -0.0760
  848MOL0     C11844   7.876  -0.066  12.416  1.3656  0.2431 -1.4485
  848MOL0     C11845   7.978  -0.165  12.365 -0.3627  0.5842 -0.0505
  848MOL0     C11846   8.109  -0.172  12.448 -0.0487  0.6826 -0.2095
  848MOL0     C11847   8.180  -0.305  12.460 -0.2823  0.0082 -0.0961
  848MOL0    Cl11848   8.315  -0.309  12.572 -0.1199  0.4856 -0.1693
  848MOL0     C11849   7.306   0.396  12.184 -0.1442  0.5216  0.2239
  848MOL0     C11850   7.229   0.509  12.178  0.5953  0.5328 -0.9204
  848MOL0     O11851   7.174   0.740  12.417 -0.2230  0.5506 -0.7771
  848MOL0     C11852   6.986   0.936  12.425  0.5872 -0.5107 -0.0942
  848MOL0     C11853   6.893   1.041  12.422 -0.3173 -0.5204 -0.6743
  848MOL0     N11854   6.398   1.220  12.088 -0.4061  0.5674  0.4789
  848MOL0     N11855   6.314   1.167  12.008 -0.0918 -0.3102 -1.2661
  848MOL0     C11856   5.181   1.464  11.486  0.6127 -1.1474 -0.6060
  848MOL0     C11857   5.106   1.461  11.363 -0.4249 -0.8789  0.0579
  848MOL0     C11858   5.038   1.562  10.910 -0.3653 -0.6555  0.8740
  848MOL0     C11859   4.942   1.666  10.905 -0.8246  0.5889 -0.6218
  848MOL0     C11860   4.904   1.724  10.791 -0.0871  0.3753  1.1305
  848MOL0     C11861   4.957   1.688  10.671 -0.1161 -0.1695  0.5283
  848MOL0     O11862   4.923   1.769  10.562  0.3430  0.0122  0.7867
  848MOL0     C11863   4.953   1.715  10.427 -0.1914  0.7785 -0.2393
  848MOL0     C11864   4.890   1.572  10.388  0.3531  0.1193 -0.7973
  848MOL0     C11865   4.741   1.589  10.391  0.1914  0.9390 -0.1846
  848MOL0     C11866   4.686   1.630  10.255  0.8325  0.3431  1.0676
  848MOL0     C11867   4.539   1.642  10.259 -0.4957  0.0128 -0.0613
  848MOL0     C11868   4.417   1.661  10.267 -0.1507  0.3121 -0.1640
  848MOL0     C11869   5.053   1.593  10.670 -0.5213 -0.0627  0.5797
  848MOL0     C11870   5.102   1.526  10.784 -0.1186 -0.3849  0.0163
  848MOL0     H11871   5.161   1.776  11.261  0.5573  0.3873 -0.3424
  848MOL0     H11872   5.288   1.784  11.455  0.4129 -0.8765  1.2965
  848MOL0     H11873   5.235   1.466  11.745  0.4281 -3.1548 -0.8793
  848MOL0     H11874   5.369   1.550  11.823  1.5263  0.1048 -0.5625
  848MOL0     H11875   5.484   1.381  11.626 -0.6249 -2.2828  0.2835
  848MOL0     H11876   5.356   1.283  11.697  0.3828 -0.3753  0.2990
  848MOL0     H11877   5.439   1.274  11.907 -0.4407  0.8393 -0.2207
  848MOL0     H11878   5.531   1.430  11.876  0.9808  0.1199  0.7507
  848MOL0     H11879   5.613   1.156  11.751 -2.0008  0.8191  1.5222
  848MOL0     H11880   5.680   1.323  11.719  0.6407 -0.6621 -0.8769
  848MOL0     H11881   5.700   1.150  11.962  2.6866 -1.4563 -1.0048
  848MOL0     H11882   5.703   1.332  11.975  2.1114 -2.1840  2.6431
  848MOL0     H11883   5.884   1.345  11.838  0.8138 -0.6408 -0.3905
  848MOL0     H11884   5.873   1.168  11.789 -3.2817 -1.7307  1.2342
  848MOL0     H11885   5.962   1.272  12.060 -0.8251  2.9284 -2.9563
  848MOL0     H11886   5.916   1.100  12.016 -0.8565  0.8315  1.0315
  848MOL0     H11887   6.087   1.234  11.821  0.6355 -0.8815  0.7032
  848MOL0     H11888   6.124   1.083  11.889  1.8503  0.6163  2.7839
  848MOL0     H11889   6.133   1.413  12.132  0.1936 -0.2582  0.0428
  848MOL0     H11890   6.314   1.389  12.347 -0.0626  1.2182  0.5904
  848MOL0     H11891   6.387   1.506  12.228 -0.3238 -0.3018 -0.2537
  848MOL0     H11892   6.518   1.250  12.316 -1.8918  0.4745  2.0567
  848MOL0     H11893   6.562   1.390  12.411 -0.9419  1.2681  0.2367
  848MOL0     H11894   6.592   1.409  12.106 -0.3344  2.3894  1.0486
  848MOL0     H11895   6.695   1.482  12.221  1.6439  0.1618 -2.8560
  848MOL0     H11896   6.834   1.315  12.145  0.6424  1.2163  0.2653
  848MOL0     H11897   6.699   1.213  12.117  0.0588  1.1642 -0.6653
  848MOL0     H11898   6.844   1.067  12.089  1.8250 -1.5706 -1.6634
  848MOL0     H11899   6.993   0.883  12.084 -0.7464 -0.2450  0.6766
  848MOL0     H11900   7.458   0.755  12.242 -3.9016  1.4055  1.3138
  848MOL0     H11901   7.604   0.545  12.264  0.9929 -1.8892 -1.6028
  848MOL0     H11902   7.613   0.350  12.409  0.3320  1.1928 -1.2033
  848MOL0     H11903   7.698   0.370  12.254 -1.5254  1.9795  0.7741
  848MOL0     H11904   7.732   0.127  12.237  2.2672 -1.8892  1.1029
  848MOL0     H11905   7.633   0.096  12.378 -0.0066  1.2115 -0.7267
  848MOL0     H11906   7.798   0.195  12.522 -1.9196 -2.1802 -0.3171
  848MOL0     H11907   7.882   0.278  12.388  1.3166 -1.6658 -1.3092
  848MOL0     H11908   7.961   0.075  12.298 -1.0886  1.1417 -0.7182
  848MOL0     H11909   8.012   0.093  12.464  2.2277  0.7617 -2.2462
  848MOL0     H11910   7.785  -0.083  12.359 -0.5120 -0.0682  1.4533
  848MOL0     H11911   7.856  -0.096  12.519  0.9204 -0.5069 -1.7500
  848MOL0     H11912   7.998  -0.133  12.262 -1.1852 -0.0143 -0.4087
  848MOL0     H11913   7.938  -0.267  12.358 -1.3003  0.9467 -0.1081
  848MOL0     H11914   8.187  -0.105  12.411  1.8016 -2.8225 -3.3748
  848MOL0     H11915   8.077  -0.148  12.550  0.7400 -0.2659  0.2837
  848MOL0     H11916   8.204  -0.353  12.365 -1.5822 -4.5228  1.6007
  848MOL0     H11917   8.113  -0.376  12.509  0.3764  0.1539  1.0763
  848MOL0     H11918   7.276   0.295  12.157  2.8842 -0.8368  1.4845
  848MOL0     H11919   7.123   0.504  12.155 -0.0099  1.4275  1.4009
  848MOL0     H11920   7.012   0.902  12.525 -2.4187 -0.1998  0.8709
  848MOL0     H11921   6.879   1.081  12.521  0.3108 -4.1766  1.0551
  848MOL0     H11922   5.183   1.370  11.540  0.8352  1.3193  4.2341
  848MOL0     H11923   5.063   1.368  11.327 -0.0242 -0.7427 -0.7946
  848MOL0     H11924   4.888   1.714  10.986 -0.1260  1.7128 -0.8011
  848MOL0     H11925   4.828   1.802  10.794 -0.7687 -0.1589 -1.0156
  848MOL0     H11926   5.062   1.713  10.418 -0.3558 -0.8706 -3.3107
  848MOL0     H11927   4.907   1.780  10.352 -1.7677 -2.2575 -2.1433
  848MOL0     H11928   4.938   1.541  10.294  1.1658 -0.6114 -0.1594
  848MOL0     H11929   4.925   1.484  10.443  2.6412 -0.7518 -3.4251
  848MOL0     H11930   4.706   1.666  10.460  0.4574 -0.3920  1.5049
  848MOL0     H11931   4.699   1.493  10.424  3.1126 -2.4197 -4.8647
  848MOL0     H11932   4.732   1.727  10.236  1.2520  0.0505  0.5605
  848MOL0     H11933   4.701   1.550  10.182  1.4254  0.6015  0.9023
  848MOL0     H11934   4.313   1.682  10.277 -0.2413 -0.6454  1.2221
  848MOL0     H11935   5.111   1.568  10.582  0.6833  0.1524  1.2952
  848MOL0     H11936   5.198   1.475  10.785  1.1492  1.6448  4.0194
  849MOL0     O11937   2.534  10.725   2.897  0.5989  0.4045 -0.3685
  849MOL0     C11938   2.463  10.702   2.996 -0.5270 -0.5455 -1.0800
  849MOL0     O11939   2.507  10.629   3.095  0.1389  0.2352 -0.6713
  849MOL0     C11940   2.632  10.576   3.098 -0.1299  0.9383 -0.0472
  849MOL0     C11941   2.751  10.660   3.084  0.4869  0.6398  0.3792
  849MOL0     C11942   2.884  10.610   3.090 -0.3798  0.5859 -0.2941
  849MOL0     C11943   2.903  10.470   3.104  0.0659  0.4465  0.0119
  849MOL0     O11944   3.021  10.398   3.124  0.1883 -0.4599 -0.1769
  849MOL0     C11945   3.146  10.466   3.123  0.2702 -0.3506  0.7494
  849MOL0     C11946   3.260  10.361   3.124  0.1813 -0.7855 -1.1019
  849MOL0     C11947   3.388  10.438   3.173 -0.7812 -0.5655  0.1336
  849MOL0     C11948   3.516  10.347   3.169 -0.4710  0.4982  0.4129
  849MOL0     C11949   3.637  10.388   3.263 -1.0055 -0.3695 -0.1311
  849MOL0     C11950   3.699  10.507   3.189  0.0037  0.2996  0.5640
  849MOL0     C11951   3.837  10.540   3.245  0.6750  0.5106 -0.2173
  849MOL0     C11952   3.837  10.568   3.389 -1.0327 -0.5889 -0.2051
  849MOL0     N11953   3.915  10.691   3.419 -0.7360 -0.0361  0.3200
  849MOL0     C11954   3.863  10.818   3.429  0.2632  0.0881  0.2367
  849MOL0     C11955   3.958  10.901   3.474 -0.7955 -0.4615 -0.1152
  849MOL0     C11956   3.952  11.048   3.509 -0.2396 -1.2199  0.4338
  849MOL0     C11957   3.923  11.135   3.391 -0.4357 -0.5544 -0.0069
  849MOL0     C11958   3.898  11.284   3.438  0.0485 -0.5415  0.3671
  849MOL0     C11959   3.778  11.313   3.527 -0.5212  1.1671 -0.7181
  849MOL0     O11960   3.662  11.284   3.445  0.2099 -0.2974  0.8386
  849MOL0     C11961   3.536  11.300   3.509 -0.6651 -0.6505 -0.1312
  849MOL0     C11962   3.527  11.328   3.648 -0.5405  0.7002 -0.6399
  849MOL0     C11963   3.397  11.333   3.702  0.7333  0.7700 -0.5952
  849MOL0     C11964   3.283  11.341   3.621 -0.5461  0.6115  0.4778
  849MOL0     C11965   3.150  11.380   3.669  0.5031 -0.3696 -0.2383
  849MOL0     O11966   3.067  11.429   3.582 -0.7765  0.3814 -0.1602
  849MOL0     C11967   2.954  11.487   3.622  0.3781  0.5232  0.4369
  849MOL0     C11968   2.949  11.619   3.672 -0.2744 -0.0145  0.3151
  849MOL0     C11969   2.835  11.692   3.692  0.5438  0.3745  0.0908
  849MOL0     C11970   2.718  11.624   3.677  0.8580  0.3961  0.8269
  849MOL0     O11971   2.602  11.693   3.681 -0.4276  0.9324  0.0936
  849MOL0     C11972   2.581  11.775   3.795  0.1855 -0.2614 -0.9530
  849MOL0     C11973   2.431  11.787   3.819 -0.5089  0.1875  0.4622
  849MOL0     C11974   2.374  11.906   3.748 -0.4805  0.1558  0.7246
  849MOL0     C11975   2.216  11.918   3.763 -0.7063  0.7044 -0.2354
  849MOL0     C11976   2.159  12.047   3.709 -0.2788 -0.7311  0.3779
  849MOL0     C11977   2.012  12.048   3.719 -0.4313  1.1453 -0.2272
  849MOL0     C11978   1.956  12.139   3.612 -0.4578  0.3654 -0.4890
  849MOL0     C11979   1.804  12.096   3.578 -0.9383  0.4105 -0.9436
  849MOL0    Cl11980   1.720  12.083   3.742  0.2474 -0.2410  0.1063
  849MOL0     C11981   2.710  11.493   3.633  0.0351 -0.4143  1.2851
  849MOL0     C11982   2.828  11.431   3.596 -0.6169 -0.3682 -0.2707
  849MOL0     O11983   3.130  11.381   3.794 -0.0851 -0.1930  0.2675
  849MOL0     C11984   3.296  11.317   3.482 -0.3112 -0.0244  0.0489
  849MOL0     C11985   3.425  11.305   3.430 -0.3658 -0.2013 -0.0005
  849MOL0     N11986   4.074  10.824   3.466 -0.4013  0.0362 -0.3303
  849MOL0     N11987   4.052  10.704   3.440 -0.0356 -0.2112 -0.1199
  849MOL0     C11988   2.787  10.387   3.108  0.4283  1.0761 -0.2960
  849MOL0     C11989   2.657  10.442   3.107 -0.2871  0.8973  0.0910
  849MOL0     C11990   2.328  10.759   3.004  0.4983  0.2579  0.1550
  849MOL0     C11991   2.247  10.750   3.121  0.3833  0.8798  0.1694
  849MOL0     C11992   2.113  10.780   3.123  0.0652 -0.8645 -0.3393
  849MOL0     C11993   2.055  10.843   3.019 -1.2598 -1.1207  0.2817
  849MOL0     O11994   1.935  10.897   3.031  0.0958  0.1915 -0.3969
  849MOL0     C11995   1.926  11.034   3.066 -0.4229 -0.5377  0.6469
  849MOL0     C11996   1.849  11.058   3.200  0.3209  0.0839 -0.2165
  849MOL0     C11997   1.707  10.999   3.194 -0.8826 -1.2483 -0.9444
  849MOL0     C11998   1.628  11.042   3.074  1.0058  0.0201 -0.9622
  849MOL0     C11999   1.483  11.015   3.087 -0.7372  0.7010 -1.0172
  849MOL0     C12000   1.363  10.990   3.093  0.2124  1.3210 -0.3620
  849MOL0     C12001   2.138  10.841   2.900 -0.0467 -0.9735  0.1780
  849MOL0     C12002   2.263  10.796   2.891 -0.8969  0.6789 -0.6335
  849MOL0     H12003   2.751  10.765   3.055 -0.8661  0.7069  0.5683
  849MOL0     H12004   2.962  10.683   3.071 -1.5595  1.8711 -0.4039
  849MOL0     H12005   3.156  10.529   3.211  2.5158 -2.4724  2.1365
  849MOL0     H12006   3.154  10.528   3.034  0.9462  2.1374  2.4577
  849MOL0     H12007   3.285  10.322   3.025  1.3583 -2.3728 -0.2283
  849MOL0     H12008   3.244  10.281   3.197 -0.5046  0.8575  0.6362
  849MOL0     H12009   3.374  10.482   3.272  2.3674 -0.6846  0.7277
  849MOL0     H12010   3.422  10.522   3.110  1.8585 -0.1276  1.9607
  849MOL0     H12011   3.483  10.247   3.196 -2.6258  1.2399  0.6809
  849MOL0     H12012   3.555  10.340   3.067  2.6941 -2.0643  1.6109
  849MOL0     H12013   3.713  10.309   3.261  3.4987  3.5646 -1.7580
  849MOL0     H12014   3.608  10.411   3.366 -2.9803  0.3783 -0.8061
  849MOL0     H12015   3.640  10.599   3.199  3.7572  2.9903  0.1907
  849MOL0     H12016   3.717  10.488   3.083 -0.2401 -1.4219  0.8073
  849MOL0     H12017   3.906  10.459   3.219  1.3830  0.5811  1.3824
  849MOL0     H12018   3.869  10.633   3.197 -0.8744  0.8269 -0.7148
  849MOL0     H12019   3.872  10.491   3.458 -1.8191  0.2619  1.1860
  849MOL0     H12020   3.734  10.590   3.417 -1.2161  2.9327 -2.9612
  849MOL0     H12021   3.757  10.842   3.418 -0.3392 -0.6529  3.4440
  849MOL0     H12022   4.049  11.077   3.551  0.2508 -0.5296 -1.0921
  849MOL0     H12023   3.876  11.042   3.586  1.6256  0.8938  2.6009
  849MOL0     H12024   3.842  11.096   3.328  2.6206 -2.9447 -2.7853
  849MOL0     H12025   4.007  11.146   3.323 -0.5653  2.6105  0.1739
  849MOL0     H12026   3.993  11.318   3.481  0.1146 -3.2198  2.6226
  849MOL0     H12027   3.879  11.342   3.347  1.9404 -0.2284  0.1317
  849MOL0     H12028   3.780  11.417   3.562  1.4007  0.2486  2.3250
  849MOL0     H12029   3.783  11.244   3.611 -0.9726  2.5051  0.4486
  849MOL0     H12030   3.613  11.351   3.711  0.4732 -0.0294 -1.7170
  849MOL0     H12031   3.375  11.334   3.808 -2.7668 -0.0646 -1.1904
  849MOL0     H12032   3.041  11.677   3.677  1.0618 -2.0820  1.0625
  849MOL0     H12033   2.848  11.796   3.721 -0.5988  0.8734 -1.0910
  849MOL0     H12034   2.618  11.877   3.782 -2.0958  0.6071 -1.1873
  849MOL0     H12035   2.638  11.734   3.878  2.2149  1.2280 -1.5332
  849MOL0     H12036   2.414  11.813   3.924 -2.2440  2.4064 -0.3085
  849MOL0     H12037   2.391  11.690   3.788  0.2237 -0.0616  0.2913
  849MOL0     H12038   2.405  11.900   3.643  1.5258  2.1675  1.1006
  849MOL0     H12039   2.410  12.000   3.791 -1.3987  0.0756  1.6800
  849MOL0     H12040   2.177  11.837   3.700 -1.2334  0.6982  0.0933
  849MOL0     H12041   2.189  11.893   3.866  4.4675 -1.8392  0.8425
  849MOL0     H12042   2.196  12.051   3.606 -1.6197 -5.8619 -0.5663
  849MOL0     H12043   2.188  12.141   3.758 -2.2381 -1.1453  2.5526
  849MOL0     H12044   1.979  12.080   3.818 -1.0085 -0.0679 -0.0055
  849MOL0     H12045   1.971  11.947   3.704 -0.8757  1.3809 -0.6074
  849MOL0     H12046   1.972  12.240   3.650  2.0624 -0.5665  1.2059
  849MOL0     H12047   2.008  12.139   3.516 -1.3719  1.0822 -0.9987
  849MOL0     H12048   1.810  11.996   3.533  3.9721 -0.8867  1.8597
  849MOL0     H12049   1.755  12.176   3.521  4.2944  2.0592 -3.7766
  849MOL0     H12050   2.615  11.444   3.615  0.8296 -0.9728 -1.9765
  849MOL0     H12051   2.831  11.329   3.561  3.8570  0.1874 -2.1689
  849MOL0     H12052   3.213  11.318   3.412 -0.1622 -4.8652 -0.5154
  849MOL0     H12053   3.446  11.284   3.326  1.1415 -2.5593  0.7053
  849MOL0     H12054   2.787  10.280   3.091 -1.1907  1.5341 -4.4989
  849MOL0     H12055   2.573  10.373   3.110 -0.0123  0.5728  0.6523
  849MOL0     H12056   2.286  10.710   3.214 -1.6078  1.7563  1.4544
  849MOL0     H12057   2.043  10.786   3.206 -0.1515  0.7692 -0.6034
  849MOL0     H12058   1.877  11.090   2.986 -0.2549  0.9434  1.5501
  849MOL0     H12059   2.031  11.063   3.076 -0.1365 -0.9891 -0.7151
  849MOL0     H12060   1.902  11.013   3.285 -1.3240 -3.5747 -0.9435
  849MOL0     H12061   1.839  11.163   3.229 -0.3865 -0.0167 -0.0893
  849MOL0     H12062   1.658  11.031   3.286  3.0727  1.0240  0.6012
  849MOL0     H12063   1.713  10.890   3.198  0.6528 -1.1246  0.8556
  849MOL0     H12064   1.643  11.149   3.063  3.1973 -0.2136 -0.7446
  849MOL0     H12065   1.681  10.996   2.989  4.3259 -3.9894  2.7953
  849MOL0     H12066   1.262  10.966   3.118  0.8344  1.3575  2.6196
  849MOL0     H12067   2.094  10.882   2.810  1.1940  0.3921  0.1515
  849MOL0     H12068   2.328  10.795   2.804  0.7052 -1.4830  0.4808
  850MOL0     O12069   8.540   6.156   4.321  0.3920  0.4595 -0.4751
  850MOL0     C12070   8.441   6.091   4.281 -1.1654  0.6052  0.0857
  850MOL0     O12071   8.365   6.111   4.172 -0.0575 -0.2383 -0.1566
  850MOL0     C12072   8.387   6.220   4.089 -0.6066  0.3307 -0.5900
  850MOL0     C12073   8.491   6.223   4.005  0.3974  0.1539  0.2399
  850MOL0     C12074   8.515   6.324   3.909  0.6884 -0.1513  1.0723
  850MOL0     C12075   8.414   6.434   3.907  0.4871  0.6097  0.4775
  850MOL0     O12076   8.429   6.547   3.827  0.0164  0.0576 -0.3852
  850MOL0     C12077   8.559   6.597   3.844 -0.5355 -0.7838  0.3469
  850MOL0     C12078   8.566   6.723   3.756 -0.1732  0.1924 -0.6935
  850MOL0     C12079   8.544   6.699   3.610 -0.4473  0.5720 -0.9575
  850MOL0     C12080   8.567   6.831   3.547  0.3266 -0.5617 -0.5646
  850MOL0     C12081   8.565   6.829   3.397 -0.6981 -0.1807  0.7487
  850MOL0     C12082   8.445   6.764   3.330 -0.3702 -0.1398 -0.7586
  850MOL0     C12083   8.310   6.823   3.375 -1.1311 -0.6610 -0.2188
  850MOL0     C12084   8.179   6.771   3.292 -0.5184 -0.1129 -0.2651
  850MOL0     N12085   8.186   6.756   3.147 -0.4415 -0.4445 -0.1566
  850MOL0     C12086   8.171   6.636   3.085  0.0051 -0.1286  0.9758
  850MOL0     C12087   8.182   6.664   2.951  0.1514 -0.2062 -0.2984
  850MOL0     C12088   8.182   6.576   2.835  0.0410  0.0585  0.1352
  850MOL0     C12089   8.070   6.473   2.852  0.4825 -0.0131 -0.2260
  850MOL0     C12090   8.024   6.412   2.713  0.1122 -0.2991  0.4324
  850MOL0     C12091   8.125   6.328   2.626  0.1212 -0.5669  0.0497
  850MOL0     O12092   8.241   6.262   2.684 -0.0126 -0.1214 -0.0224
  850MOL0     C12093   8.218   6.135   2.740  0.5959  0.4904 -0.0680
  850MOL0     C12094   8.091   6.086   2.788  0.2466  0.0619  0.0792
  850MOL0     C12095   8.081   5.950   2.825 -0.2247  0.5708 -0.2865
  850MOL0     C12096   8.192   5.862   2.822  0.1243  0.0537  0.1691
  850MOL0     C12097   8.171   5.716   2.858 -0.4459 -0.4726  0.5162
  850MOL0     O12098   8.050   5.683   2.911 -0.6046 -0.0574  0.4512
  850MOL0     C12099   8.008   5.555   2.930 -1.2082 -0.9592  1.7472
  850MOL0     C12100   8.067   5.436   2.877 -0.0935 -0.6585 -0.0909
  850MOL0     C12101   8.007   5.310   2.888 -0.2142  0.0305  0.3115
  850MOL0     C12102   7.897   5.292   2.971  0.8784 -0.6584 -0.9700
  850MOL0     O12103   7.848   5.164   2.981 -0.0061  0.0459 -0.4717
  850MOL0     C12104   7.710   5.149   2.935 -1.0440  0.3165  0.2095
  850MOL0     C12105   7.624   5.105   3.054  0.2144  0.6987  0.2250
  850MOL0     C12106   7.487   5.077   2.995 -0.8528 -0.4168 -0.4775
  850MOL0     C12107   7.391   5.035   3.116 -1.0967  0.2928  0.0874
  850MOL0     C12108   7.253   5.042   3.061 -1.3824  0.3807  0.6195
  850MOL0     C12109   7.143   5.034   3.161 -0.8452 -0.9567 -0.6893
  850MOL0     C12110   7.010   5.032   3.081  0.7555  0.4139  0.2772
  850MOL0     C12111   6.895   4.999   3.176 -0.2700  0.1333  0.4322
  850MOL0    Cl12112   6.814   5.147   3.239  0.0676  0.1589 -0.2185
  850MOL0     C12113   7.845   5.398   3.040  0.4529  0.2283  0.0225
  850MOL0     C12114   7.895   5.525   3.005 -0.5860  0.0986  0.2038
  850MOL0     O12115   8.255   5.639   2.823  0.4767 -0.4522  0.3376
  850MOL0     C12116   8.320   5.915   2.790 -0.1524 -0.6696 -0.5751
  850MOL0     C12117   8.335   6.049   2.748 -0.3929 -0.0416  0.9186
  850MOL0     N12118   8.213   6.793   2.934  0.6838 -0.3635  0.0088
  850MOL0     N12119   8.204   6.843   3.055 -1.1454  0.5530 -0.1673
  850MOL0     C12120   8.298   6.433   3.992  0.0894  0.2754  0.1557
  850MOL0     C12121   8.288   6.324   4.083 -0.0434  0.5510 -0.5030
  850MOL0     C12122   8.371   6.009   4.382  0.8467  0.7016  0.1653
  850MOL0     C12123   8.234   6.013   4.398  1.1144 -0.6782  0.5682
  850MOL0     C12124   8.170   5.923   4.482  0.8103 -0.7135  0.3288
  850MOL0     C12125   8.241   5.823   4.552  0.0589 -0.3900  0.0970
  850MOL0     O12126   8.194   5.733   4.640  0.1114 -0.5624  0.3366
  850MOL0     C12127   8.060   5.729   4.684 -0.0899  0.1729  1.0229
  850MOL0     C12128   8.018   5.579   4.685 -0.0991  0.2390 -0.3851
  850MOL0     C12129   8.101   5.479   4.768 -0.6443 -0.7876 -0.6627
  850MOL0     C12130   8.134   5.528   4.911 -0.0822  0.7694  0.6880
  850MOL0     C12131   8.149   5.420   5.011 -0.1885 -0.0348 -0.5855
  850MOL0     C12132   8.149   5.327   5.100  0.5504  0.3085  0.0447
  850MOL0     C12133   8.377   5.819   4.542  0.6206 -0.3856  0.0175
  850MOL0     C12134   8.435   5.914   4.461 -1.0533  0.4263  0.0949
  850MOL0     H12135   8.565   6.144   4.010 -0.5751 -0.7552  0.4545
  850MOL0     H12136   8.590   6.325   3.831 -0.0824  1.6515  0.3093
  850MOL0     H12137   8.634   6.521   3.820 -0.4560  0.1824 -3.0445
  850MOL0     H12138   8.565   6.612   3.952 -2.0282 -3.5956  0.9362
  850MOL0     H12139   8.660   6.776   3.771 -0.3918  0.0459  1.6040
  850MOL0     H12140   8.494   6.790   3.805  0.9111 -0.7817  2.4914
  850MOL0     H12141   8.443   6.669   3.582 -0.8931  0.9693  0.1935
  850MOL0     H12142   8.619   6.630   3.572  1.2490  1.4725  0.5798
  850MOL0     H12143   8.497   6.906   3.586  1.0677 -0.5599  0.8369
  850MOL0     H12144   8.665   6.873   3.571  0.2467 -1.1991  1.0285
  850MOL0     H12145   8.659   6.781   3.370  0.6343  1.8965  1.4530
  850MOL0     H12146   8.574   6.936   3.376  2.3143 -0.7493 -1.4239
  850MOL0     H12147   8.433   6.658   3.354 -2.2799  0.5031  1.4894
  850MOL0     H12148   8.461   6.763   3.221 -0.8611 -3.0652 -0.8864
  850MOL0     H12149   8.298   6.807   3.482  0.5192  0.2990  0.1437
  850MOL0     H12150   8.326   6.930   3.356  2.0547 -1.1201 -0.6866
  850MOL0     H12151   8.103   6.849   3.305 -0.3930  0.0299 -0.3906
  850MOL0     H12152   8.146   6.675   3.333  1.5324 -1.2754 -1.2047
  850MOL0     H12153   8.162   6.536   3.128 -3.2310  0.0404  0.9574
  850MOL0     H12154   8.279   6.526   2.833 -0.2356 -0.6077  1.7926
  850MOL0     H12155   8.175   6.635   2.743  2.1426  0.9215  0.4908
  850MOL0     H12156   7.988   6.540   2.879  1.7781  2.2368 -1.5377
  850MOL0     H12157   8.093   6.401   2.931  1.9064 -0.4719 -1.0185
  850MOL0     H12158   7.930   6.355   2.716  0.3151 -1.0049 -2.7534
  850MOL0     H12159   7.998   6.502   2.656 -0.1848 -0.3628  0.4619
  850MOL0     H12160   8.162   6.402   2.555  2.0524 -2.3550 -0.9092
  850MOL0     H12161   8.086   6.257   2.553  4.6635 -2.3487 -1.0075
  850MOL0     H12162   8.000   6.146   2.790  0.9462  1.2376 -1.3476
  850MOL0     H12163   7.985   5.925   2.869 -1.0708  1.6037 -1.4844
  850MOL0     H12164   8.163   5.441   2.827  0.0965 -0.7033  0.2712
  850MOL0     H12165   8.043   5.232   2.823  2.3178 -0.7938  2.5110
  850MOL0     H12166   7.705   5.080   2.851 -0.4763  0.9252 -0.3371
  850MOL0     H12167   7.677   5.245   2.893 -1.3791  0.8135  1.5305
  850MOL0     H12168   7.616   5.184   3.130 -1.9888  0.1913  0.5916
  850MOL0     H12169   7.664   5.018   3.107  1.9475  3.5188  4.0218
  850MOL0     H12170   7.491   5.018   2.903  2.0382 -1.1234 -0.0000
  850MOL0     H12171   7.455   5.173   2.954 -0.1476 -0.1558 -0.4260
  850MOL0     H12172   7.427   4.936   3.146  0.4615  0.7619 -0.1431
  850MOL0     H12173   7.399   5.097   3.206  0.9868 -0.5838  0.5750
  850MOL0     H12174   7.234   4.952   3.002 -1.1965  2.2247 -2.4721
  850MOL0     H12175   7.231   5.124   2.992 -3.7648  0.0927  0.9577
  850MOL0     H12176   7.144   5.120   3.229 -2.0860 -1.1504 -0.3956
  850MOL0     H12177   7.162   4.939   3.212 -0.1160 -0.9431 -0.9182
  850MOL0     H12178   6.991   5.131   3.038 -1.2867 -0.2320 -0.4058
  850MOL0     H12179   7.014   4.955   3.004 -0.0725  2.6070 -2.1039
  850MOL0     H12180   6.934   4.943   3.262  1.2762 -2.3299 -1.7353
  850MOL0     H12181   6.826   4.927   3.129  1.7377 -1.1248 -0.7285
  850MOL0     H12182   7.762   5.392   3.109 -0.4923  3.6011 -0.6221
  850MOL0     H12183   7.845   5.605   3.058  0.3040  0.9140 -0.1584
  850MOL0     H12184   8.410   5.855   2.779 -0.3774 -1.1856  0.3045
  850MOL0     H12185   8.436   6.076   2.717 -0.3493 -2.9018 -1.9664
  850MOL0     H12186   8.211   6.497   3.984  0.5954  0.7824 -1.9466
  850MOL0     H12187   8.201   6.298   4.142 -1.0526 -2.8071 -3.1214
  850MOL0     H12188   8.183   6.092   4.344  3.4798  2.1079  2.1533
  850MOL0     H12189   8.062   5.925   4.479  0.7579 -2.3172  0.4672
  850MOL0     H12190   7.996   5.785   4.615  0.9960  0.4433  0.2075
  850MOL0     H12191   8.048   5.772   4.784 -2.1056 -1.2002  1.4297
  850MOL0     H12192   7.918   5.585   4.729  1.1592  0.9923  2.6787
  850MOL0     H12193   8.018   5.548   4.580  1.8441  0.4658 -0.4981
  850MOL0     H12194   8.194   5.449   4.720  1.2520  2.0289  0.9910
  850MOL0     H12195   8.042   5.389   4.789  1.0571 -1.5572  1.2597
  850MOL0     H12196   8.220   5.593   4.893 -0.0353  0.5147 -0.0425
  850MOL0     H12197   8.053   5.584   4.957 -1.1668 -0.9791  1.0089
  850MOL0     H12198   8.154   5.239   5.161 -5.4341  0.3859  1.1920
  850MOL0     H12199   8.432   5.742   4.597  0.9720  0.0911  0.3414
  850MOL0     H12200   8.543   5.928   4.456 -1.1272  3.2665  2.9569
  851MOL0     O12201   1.386   2.740   4.831 -0.4255  0.3137  0.5341
  851MOL0     C12202   1.433   2.669   4.921  0.7051 -0.1774 -0.4711
  851MOL0     O12203   1.367   2.625   5.033 -0.0182 -0.6208  0.1899
  851MOL0     C12204   1.230   2.647   5.051 -0.0012  0.4787  0.3502
  851MOL0     C12205   1.201   2.721   5.165  0.4183 -0.4027  0.2058
  851MOL0     C12206   1.066   2.720   5.209  0.8859  0.1395  0.7291
  851MOL0     C12207   0.963   2.662   5.136  0.6354 -0.9355  0.4975
  851MOL0     O12208   0.834   2.659   5.183 -0.2703  0.5726 -0.1313
  851MOL0     C12209   0.730   2.662   5.092  0.5773  0.2314  0.5086
  851MOL0     C12210   0.607   2.638   5.179  0.4018  0.0302 -0.9442
  851MOL0     C12211   0.619   2.524   5.280 -0.0730  0.3408  0.5320
  851MOL0     C12212   0.501   2.527   5.366  0.8036  0.4367 -0.5568
  851MOL0     C12213   0.504   2.429   5.486 -0.1607  0.7459  0.4563
  851MOL0     C12214   0.393   2.451   5.594 -0.2753  0.1302 -0.0276
  851MOL0     C12215   0.414   2.366   5.712 -0.1964  0.0156  0.1278
  851MOL0     C12216   0.275   2.336   5.777  0.3251 -0.4592  0.6592
  851MOL0     N12217   0.282   2.257   5.896  0.3524 -0.2672 -0.5453
  851MOL0     C12218   0.347   2.134   5.896 -0.4839 -1.1162 -0.0342
  851MOL0     C12219   0.335   2.080   6.022 -0.9283 -0.5821 -0.8734
  851MOL0     C12220   0.410   1.967   6.088  0.4991  0.3725  0.3182
  851MOL0     C12221   0.555   1.944   6.036  0.1308  0.8593  0.8825
  851MOL0     C12222   0.670   2.008   6.121 -0.6551  0.8299  0.3994
  851MOL0     C12223   0.661   2.163   6.137  0.1657 -0.1301  0.1716
  851MOL0     O12224   0.785   2.219   6.184  0.0888  0.4615  1.0803
  851MOL0     C12225   0.776   2.354   6.202 -0.4718  0.2445 -0.0859
  851MOL0     C12226   0.698   2.445   6.131  0.3536  0.1814 -0.7525
  851MOL0     C12227   0.720   2.580   6.153 -0.0023  1.0934 -0.4849
  851MOL0     C12228   0.801   2.636   6.255 -0.0727  0.2914 -0.2588
  851MOL0     C12229   0.797   2.781   6.292 -0.8439 -0.3694 -0.1439
  851MOL0     O12230   0.689   2.859   6.251 -0.0784  0.2598 -0.4523
  851MOL0     C12231   0.665   2.983   6.306  0.1799  0.8356  0.4216
  851MOL0     C12232   0.601   3.071   6.222  0.2274 -0.6420  0.1971
  851MOL0     C12233   0.548   3.196   6.274 -0.1654  0.4098  0.7900
  851MOL0     C12234   0.589   3.242   6.398  0.2932  0.2777  0.3210
  851MOL0     O12235   0.547   3.366   6.439 -0.7233  0.4359  0.2321
  851MOL0     C12236   0.661   3.439   6.493  0.3666  0.1322  0.2919
  851MOL0     C12237   0.653   3.581   6.438  0.0447  0.2423  1.1688
  851MOL0     C12238   0.567   3.676   6.534 -0.8042 -0.6940  0.3679
  851MOL0     C12239   0.425   3.657   6.503 -1.3530  0.1168 -0.6352
  851MOL0     C12240   0.318   3.761   6.556 -0.9263  0.0487  0.2083
  851MOL0     C12241   0.180   3.705   6.599  0.5914 -0.1864 -0.6554
  851MOL0     C12242   0.129   3.609   6.491 -0.1057 -0.1911  0.0409
  851MOL0     C12243   0.079   3.660   6.352  0.2779  0.1133  0.1708
  851MOL0    Cl12244  -0.029   3.542   6.266  0.3108  0.0102 -0.4809
  851MOL0     C12245   0.656   3.151   6.483 -0.3926 -1.0057  0.3348
  851MOL0     C12246   0.699   3.026   6.438  0.5603  1.3241  0.3082
  851MOL0     O12247   0.912   2.819   6.339  0.5637  0.3399 -1.1982
  851MOL0     C12248   0.884   2.542   6.324  0.2088 -0.2723  0.1858
  851MOL0     C12249   0.873   2.400   6.297 -0.7094 -0.1078 -0.2124
  851MOL0     N12250   0.275   2.179   6.094 -0.4376  0.1125 -0.0644
  851MOL0     N12251   0.236   2.275   6.022 -0.2920 -0.8827 -0.0733
  851MOL0     C12252   1.002   2.585   5.022  0.2531 -0.0349  0.2528
  851MOL0     C12253   1.134   2.574   4.984 -0.0719  0.1340  0.2487
  851MOL0     C12254   1.570   2.629   4.906  0.2635  0.3095 -0.3802
  851MOL0     C12255   1.619   2.587   4.779  0.0606  0.0982  0.5670
  851MOL0     C12256   1.752   2.559   4.752 -0.6352 -0.5266 -0.0682
  851MOL0     C12257   1.838   2.566   4.860  0.3293 -0.3790  0.3243
  851MOL0     O12258   1.970   2.535   4.824  0.0167 -0.1655  0.5081
  851MOL0     C12259   2.061   2.468   4.917  0.4014  0.3448 -0.8508
  851MOL0     C12260   2.163   2.555   4.976 -0.1412 -0.1069 -0.0655
  851MOL0     C12261   2.273   2.481   5.031 -0.3588  0.2190 -0.3799
  851MOL0     C12262   2.249   2.379   5.145  0.4088 -0.2823  0.4014
  851MOL0     C12263   2.171   2.255   5.124  0.5190  0.7927 -0.0005
  851MOL0     C12264   2.091   2.159   5.116 -0.4887 -0.2206  0.1537
  851MOL0     C12265   1.800   2.585   4.989  0.3669  0.5449 -0.0005
  851MOL0     C12266   1.665   2.628   5.008 -0.1179  0.8634  0.4238
  851MOL0     H12267   1.282   2.772   5.217  1.0307 -2.6659  1.6175
  851MOL0     H12268   1.032   2.756   5.306  0.7287  0.7411  0.4521
  851MOL0     H12269   0.734   2.586   5.014  2.5101  2.3937 -1.7100
  851MOL0     H12270   0.717   2.760   5.045 -2.0882 -1.4709 -2.6601
  851MOL0     H12271   0.524   2.618   5.110  0.0231 -2.0473  0.0303
  851MOL0     H12272   0.585   2.729   5.237 -2.3277 -0.9230 -0.3202
  851MOL0     H12273   0.713   2.531   5.336  0.1618 -2.0544  0.5426
  851MOL0     H12274   0.618   2.430   5.226 -0.0057  0.2660  0.6608
  851MOL0     H12275   0.495   2.630   5.404  1.2777 -0.0968  1.0065
  851MOL0     H12276   0.407   2.509   5.313  0.8448  2.5916 -1.5118
  851MOL0     H12277   0.598   2.453   5.537  0.2715  0.7651 -0.3236
  851MOL0     H12278   0.514   2.324   5.455  1.2353  0.7671  0.7786
  851MOL0     H12279   0.296   2.439   5.544  0.2722 -0.3047 -1.0258
  851MOL0     H12280   0.401   2.552   5.634  1.2484  0.0942 -0.1660
  851MOL0     H12281   0.453   2.272   5.672  1.8664  0.2662  1.3975
  851MOL0     H12282   0.495   2.406   5.773  0.1563  1.3008 -1.1409
  851MOL0     H12283   0.208   2.285   5.707  0.9970 -3.1014  1.8359
  851MOL0     H12284   0.223   2.429   5.802 -1.2868 -1.1550  0.0582
  851MOL0     H12285   0.416   2.105   5.817  2.4083  0.2430  1.8216
  851MOL0     H12286   0.355   1.876   6.061 -0.7934  1.6024 -1.4792
  851MOL0     H12287   0.406   1.974   6.197 -2.5001 -1.1780  0.4232
  851MOL0     H12288   0.567   1.991   5.938  0.8122 -0.3716  0.3534
  851MOL0     H12289   0.567   1.837   6.014 -1.8821  0.6993  0.4272
  851MOL0     H12290   0.676   1.957   6.218 -0.0096  0.3988  0.1417
  851MOL0     H12291   0.765   1.991   6.069 -1.0425 -3.5441  0.7858
  851MOL0     H12292   0.577   2.192   6.199  0.4523 -1.6397  1.3407
  851MOL0     H12293   0.635   2.197   6.036 -2.4026  0.7757  1.0794
  851MOL0     H12294   0.634   2.421   6.047  1.5273  1.9943 -2.2436
  851MOL0     H12295   0.664   2.648   6.090 -2.7141  1.1498  1.8017
  851MOL0     H12296   0.574   3.035   6.123 -1.3189  0.2137  0.2733
  851MOL0     H12297   0.489   3.262   6.212  0.0231 -1.5242 -1.6005
  851MOL0     H12298   0.760   3.396   6.472  0.6025  0.1040  1.4347
  851MOL0     H12299   0.644   3.449   6.600  0.6887  1.8347  0.2106
  851MOL0     H12300   0.621   3.570   6.334  0.9017 -3.5523  1.1709
  851MOL0     H12301   0.758   3.609   6.425  0.0034  0.4285  1.2378
  851MOL0     H12302   0.593   3.780   6.513 -0.7574 -0.4068  1.7603
  851MOL0     H12303   0.587   3.657   6.640  0.1310 -0.4420  0.2440
  851MOL0     H12304   0.408   3.651   6.395 -0.6361 -3.6754 -0.6616
  851MOL0     H12305   0.399   3.559   6.544  2.0964  0.4568  3.0699
  851MOL0     H12306   0.320   3.837   6.478  1.2589  2.9833  2.8651
  851MOL0     H12307   0.372   3.795   6.645 -1.5353 -0.0767  0.6321
  851MOL0     H12308   0.112   3.791   6.601  1.1749  0.2629  0.6290
  851MOL0     H12309   0.173   3.657   6.697  0.7570  2.3122  0.6731
  851MOL0     H12310   0.188   3.518   6.480  3.0258  1.5526  1.1940
  851MOL0     H12311   0.030   3.586   6.532  0.8304 -0.9692  1.9474
  851MOL0     H12312   0.169   3.675   6.292  0.6888  0.6066  0.8999
  851MOL0     H12313   0.022   3.754   6.356  0.9317  0.5258  0.0094
  851MOL0     H12314   0.681   3.186   6.583  0.1608  1.2912 -0.5523
  851MOL0     H12315   0.752   2.951   6.497 -0.8866  0.6699  0.8162
  851MOL0     H12316   0.963   2.577   6.390  0.9911 -0.1019 -0.8341
  851MOL0     H12317   0.950   2.334   6.333  0.2971 -1.2437 -4.0229
  851MOL0     H12318   0.924   2.524   4.976  1.2308 -2.8597  2.0382
  851MOL0     H12319   1.161   2.502   4.907 -3.8032  1.8280 -2.9585
  851MOL0     H12320   1.557   2.605   4.692 -0.7464 -0.2303  1.0557
  851MOL0     H12321   1.781   2.540   4.650 -0.6157  0.6439 -0.2863
  851MOL0     H12322   2.107   2.376   4.879  2.7443  0.6551  1.0464
  851MOL0     H12323   2.000   2.428   4.998 -0.9629  0.5039 -1.7610
  851MOL0     H12324   2.213   2.613   4.898 -0.3483 -2.8211 -2.3604
  851MOL0     H12325   2.112   2.606   5.059  0.1799 -3.8475  2.6646
  851MOL0     H12326   2.332   2.557   5.083  0.5064 -1.9936  2.0753
  851MOL0     H12327   2.340   2.437   4.956  1.0467  0.4085  0.7268
  851MOL0     H12328   2.348   2.355   5.184  0.6648 -2.0374 -1.1792
  851MOL0     H12329   2.201   2.436   5.225  1.6514 -0.2050  1.1233
  851MOL0     H12330   2.014   2.085   5.123 -2.9427  2.3204  2.6295
  851MOL0     H12331   1.879   2.572   5.062  2.3340  1.0743 -1.9380
  851MOL0     H12332   1.638   2.645   5.112  2.6402 -1.2448  1.6126
  852MOL0     O12333   2.965   2.807   5.896 -0.4871 -0.2063  0.5828
  852MOL0     C12334   3.081   2.792   5.927 -0.2090 -0.8467 -0.5773
  852MOL0     O12335   3.154   2.673   5.914 -0.3551  0.2941  0.8383
  852MOL0     C12336   3.091   2.554   5.876  0.6580  0.0320 -0.2204
  852MOL0     C12337   3.087   2.528   5.737  0.1921 -0.8650  0.2715
  852MOL0     C12338   3.036   2.411   5.689 -0.5336  0.8578 -0.0800
  852MOL0     C12339   3.004   2.314   5.785 -0.9911 -0.0884  0.5065
  852MOL0     O12340   2.948   2.196   5.730 -0.6432 -0.3023  0.1482
  852MOL0     C12341   2.875   2.107   5.815 -0.2362  0.3993  0.4386
  852MOL0     C12342   2.815   1.983   5.742 -0.1005 -0.9628 -0.1989
  852MOL0     C12343   2.688   1.928   5.819 -0.8304  0.7280 -0.2698
  852MOL0     C12344   2.728   1.842   5.941 -0.3357 -0.1991  0.5241
  852MOL0     C12345   2.608   1.851   6.036 -0.2067 -0.5969 -0.4607
  852MOL0     C12346   2.633   1.738   6.129 -0.7788 -0.4355 -0.2697
  852MOL0     C12347   2.530   1.751   6.240 -0.6820  0.4162 -0.0403
  852MOL0     C12348   2.536   1.621   6.323 -0.0803  0.0287  0.1931
  852MOL0     N12349   2.472   1.634   6.449  1.1473 -0.1545  0.0643
  852MOL0     C12350   2.348   1.583   6.484  0.2750  0.1870 -0.3300
  852MOL0     C12351   2.322   1.661   6.597 -1.0015  0.1756 -0.7402
  852MOL0     C12352   2.198   1.651   6.673 -0.3130 -0.4488 -0.5560
  852MOL0     C12353   2.191   1.515   6.736  0.0228  0.7816  0.1342
  852MOL0     C12354   2.304   1.461   6.828  0.8792 -0.2275 -0.2933
  852MOL0     C12355   2.351   1.543   6.939 -0.1472 -0.6933  0.6083
  852MOL0     O12356   2.426   1.477   7.039  0.5667 -0.2955 -0.0879
  852MOL0     C12357   2.553   1.425   7.001  0.6673 -0.0765  0.5215
  852MOL0     C12358   2.646   1.505   6.930  0.9127  0.2799 -1.0439
  852MOL0     C12359   2.776   1.447   6.917  0.3987 -0.2831 -0.6249
  852MOL0     C12360   2.799   1.310   6.925  0.6484  0.0463  0.2249
  852MOL0     C12361   2.930   1.253   6.877 -0.6506 -0.7289 -0.0136
  852MOL0     O12362   2.957   1.129   6.933  0.5762 -0.3791  0.2878
  852MOL0     C12363   3.069   1.054   6.886  0.1319 -0.9812 -0.5828
  852MOL0     C12364   3.166   1.022   6.972  0.2342 -0.1745 -0.3922
  852MOL0     C12365   3.281   0.946   6.925 -0.6743 -0.6955 -0.1749
  852MOL0     C12366   3.285   0.916   6.789 -0.9135  0.5888  0.6768
  852MOL0     O12367   3.394   0.846   6.741 -0.9875 -0.6316 -0.0157
  852MOL0     C12368   3.501   0.935   6.716 -0.0826 -0.1600  0.4880
  852MOL0     C12369   3.497   0.933   6.561 -1.0827 -0.0308  0.5073
  852MOL0     C12370   3.596   1.032   6.505 -0.2729 -0.5059 -0.2455
  852MOL0     C12371   3.747   1.004   6.519 -0.2717 -0.0456 -0.0598
  852MOL0     C12372   3.844   1.116   6.469 -0.2200  0.2988  0.3347
  852MOL0     C12373   3.828   1.164   6.325 -1.1430 -0.0204  0.6782
  852MOL0     C12374   3.963   1.209   6.267 -0.3348 -0.1417  0.3719
  852MOL0     C12375   3.919   1.296   6.146 -0.5990 -0.1313  0.0370
  852MOL0    Cl12376   3.856   1.468   6.191 -0.6649 -0.3735 -0.1337
  852MOL0     C12377   3.184   0.959   6.706 -0.0041 -0.0681 -0.2354
  852MOL0     C12378   3.071   1.016   6.755 -0.1183 -0.8099  1.5706
  852MOL0     O12379   3.015   1.321   6.810 -0.4526  0.0406  0.6135
  852MOL0     C12380   2.699   1.232   6.987 -0.1688  0.0767  0.4917
  852MOL0     C12381   2.581   1.293   7.030  0.4285 -0.3716 -0.4687
  852MOL0     N12382   2.425   1.746   6.637  0.2227 -0.2663  0.7305
  852MOL0     N12383   2.517   1.717   6.546  0.2539  0.2787 -0.1464
  852MOL0     C12384   3.019   2.338   5.926 -0.4743 -0.3667  0.6133
  852MOL0     C12385   3.064   2.457   5.972  0.6875  0.5013 -0.0462
  852MOL0     C12386   3.150   2.904   6.002  0.8514  0.0254 -0.4743
  852MOL0     C12387   3.284   2.931   6.001  0.2177 -0.1594  0.3799
  852MOL0     C12388   3.348   3.033   6.066  0.0429 -0.0374  0.5707
  852MOL0     C12389   3.272   3.136   6.133 -0.4332 -0.2689  0.3833
  852MOL0     O12390   3.342   3.237   6.193 -0.0456 -0.1387 -1.3664
  852MOL0     C12391   3.264   3.329   6.265  0.1078  0.5631  0.6663
  852MOL0     C12392   3.350   3.404   6.351 -0.8405 -0.1178 -0.3326
  852MOL0     C12393   3.406   3.328   6.470 -0.9616  1.6769  0.4758
  852MOL0     C12394   3.518   3.399   6.536  0.5351 -0.6456 -0.9676
  852MOL0     C12395   3.637   3.341   6.480  0.1921  0.6089 -0.0324
  852MOL0     C12396   3.726   3.269   6.446  0.4159  0.1600 -0.3410
  852MOL0     C12397   3.143   3.114   6.139  0.2068  0.7917 -0.0100
  852MOL0     C12398   3.071   2.999   6.080 -0.9594  0.5020 -0.7306
  852MOL0     H12399   3.130   2.594   5.662 -0.6721 -0.1306  0.3962
  852MOL0     H12400   3.039   2.389   5.583  0.2136  2.3048 -0.3775
  852MOL0     H12401   2.799   2.160   5.872  0.3991  1.5674  0.2281
  852MOL0     H12402   2.942   2.060   5.888  0.3363 -0.5125 -0.6350
  852MOL0     H12403   2.897   1.917   5.714  0.2619 -0.2305 -0.9189
  852MOL0     H12404   2.776   2.025   5.649  1.1107  1.5293  0.3130
  852MOL0     H12405   2.630   1.874   5.744  0.4101 -1.3255  0.1873
  852MOL0     H12406   2.629   2.015   5.851  2.2838  1.8263  3.3651
  852MOL0     H12407   2.752   1.739   5.914  2.3150  0.5498 -0.2600
  852MOL0     H12408   2.816   1.876   5.996 -0.0132 -1.0189  0.5190
  852MOL0     H12409   2.513   1.845   5.984 -0.5653 -1.7614  0.3028
  852MOL0     H12410   2.609   1.950   6.082  2.5944 -0.1765 -1.2444
  852MOL0     H12411   2.736   1.741   6.168 -1.5051 -1.8497  1.9690
  852MOL0     H12412   2.623   1.646   6.072 -0.3734 -3.0382  3.4740
  852MOL0     H12413   2.553   1.838   6.303  0.2529 -0.4791  0.8832
  852MOL0     H12414   2.429   1.771   6.203 -0.1901 -1.5353 -2.6908
  852MOL0     H12415   2.636   1.587   6.352 -2.0160 -3.4557  3.7359
  852MOL0     H12416   2.501   1.531   6.272  0.7657 -0.2582  0.0905
  852MOL0     H12417   2.288   1.507   6.434 -1.1147 -0.3354  1.9832
  852MOL0     H12418   2.109   1.667   6.611 -1.1873  2.6150  1.2904
  852MOL0     H12419   2.193   1.713   6.763 -0.6870  2.0036 -2.1720
  852MOL0     H12420   2.187   1.446   6.651  2.1404 -1.4680  1.7361
  852MOL0     H12421   2.098   1.500   6.792  1.9121  2.4918  4.1333
  852MOL0     H12422   2.275   1.363   6.868 -0.1137  0.3694  0.4917
  852MOL0     H12423   2.396   1.443   6.772  0.9347 -0.6256 -0.0753
  852MOL0     H12424   2.261   1.584   6.987 -0.7317 -2.2585  0.9028
  852MOL0     H12425   2.400   1.632   6.898  0.8940 -1.6599 -0.2968
  852MOL0     H12426   2.627   1.610   6.907  0.2350  1.1486  2.8331
  852MOL0     H12427   2.848   1.509   6.866  0.1448 -1.2272 -2.1917
  852MOL0     H12428   3.158   1.049   7.076 -3.0896  3.4803 -1.3278
  852MOL0     H12429   3.359   0.921   6.996 -1.0155 -0.5377  0.2617
  852MOL0     H12430   3.594   0.890   6.750  0.2032  1.0030  1.2819
  852MOL0     H12431   3.491   1.033   6.762 -0.1219  0.1205 -0.1090
  852MOL0     H12432   3.400   0.965   6.522 -2.2521 -4.0728 -0.3506
  852MOL0     H12433   3.521   0.832   6.527 -0.9634  0.0498  0.3537
  852MOL0     H12434   3.568   1.131   6.542 -1.9837 -0.1368 -2.3120
  852MOL0     H12435   3.567   1.044   6.401 -1.9459  2.7975  0.4595
  852MOL0     H12436   3.751   1.000   6.628 -1.9906  2.3016  0.1632
  852MOL0     H12437   3.770   0.906   6.477  1.2661  0.0169  0.5719
  852MOL0     H12438   3.944   1.074   6.482 -0.2953  0.2675  0.8613
  852MOL0     H12439   3.837   1.200   6.539 -0.5276 -0.9304  1.8524
  852MOL0     H12440   3.749   1.240   6.316 -0.7537  0.1266 -3.6897
  852MOL0     H12441   3.802   1.081   6.258  2.3624 -0.9520  0.3100
  852MOL0     H12442   4.017   1.274   6.336  1.9734 -1.4441 -0.1143
  852MOL0     H12443   4.022   1.122   6.237  1.6188  0.3053  2.5765
  852MOL0     H12444   3.837   1.239   6.102 -2.3861  1.1503  1.5739
  852MOL0     H12445   3.998   1.300   6.070  0.0847 -3.1244  0.4651
  852MOL0     H12446   3.182   0.924   6.603 -2.2317  1.2305 -0.7111
  852MOL0     H12447   2.984   1.036   6.693  0.5230  1.5980  1.3340
  852MOL0     H12448   2.726   1.127   6.998  0.0108 -0.1672 -1.8722
  852MOL0     H12449   2.507   1.229   7.076  1.2354 -0.0377  1.4162
  852MOL0     H12450   3.011   2.260   6.001 -3.2141 -0.7515  0.0545
  852MOL0     H12451   3.090   2.480   6.074 -1.6070 -1.2383  1.0278
  852MOL0     H12452   3.350   2.855   5.960  1.2850  1.3285 -0.7642
  852MOL0     H12453   3.456   3.020   6.068 -0.2904 -4.2176 -0.5558
  852MOL0     H12454   3.182   3.285   6.324 -1.4833  0.0885 -1.7567
  852MOL0     H12455   3.221   3.406   6.200 -0.0330 -0.8916 -1.0481
  852MOL0     H12456   3.435   3.439   6.291  1.8524  1.3859  3.8371
  852MOL0     H12457   3.302   3.494   6.390 -1.2915  0.4018 -2.0054
  852MOL0     H12458   3.440   3.238   6.417 -2.8963  0.9808  0.3207
  852MOL0     H12459   3.322   3.294   6.532  0.0924 -0.4746  0.8340
  852MOL0     H12460   3.512   3.508   6.539  3.4301 -0.4251  0.7577
  852MOL0     H12461   3.503   3.381   6.643  0.9706 -0.4903 -0.8806
  852MOL0     H12462   3.813   3.212   6.422  1.0766  0.7893  0.5091
  852MOL0     H12463   3.074   3.186   6.182  0.2879  0.9283 -0.1087
  852MOL0     H12464   2.963   2.986   6.076 -0.9833  0.8082 -1.1833
  853MOL0     O12465   3.003   0.683   1.721 -0.3329  0.0614  1.2302
  853MOL0     C12466   3.079   0.625   1.643 -0.8031 -0.0585  0.1852
  853MOL0     O12467   3.071   0.634   1.505 -0.0300  0.2133 -0.1405
  853MOL0     C12468   2.960   0.694   1.444  0.3274  0.6831  0.2878
  853MOL0     C12469   2.910   0.819   1.482 -0.6307  1.1767 -0.3465
  853MOL0     C12470   2.807   0.880   1.419  0.8688 -0.3377  0.5750
  853MOL0     C12471   2.739   0.807   1.311 -0.1511  0.2609 -1.0313
  853MOL0     O12472   2.623   0.852   1.243 -0.1170 -0.5129 -0.3361
  853MOL0     C12473   2.550   0.966   1.297  0.1661  0.3751  0.3345
  853MOL0     C12474   2.412   0.966   1.243  0.1755  0.2054 -0.5148
  853MOL0     C12475   2.342   0.836   1.260  0.2127  0.5030 -0.5901
  853MOL0     C12476   2.193   0.848   1.222  0.0933  0.1450  0.1360
  853MOL0     C12477   2.107   0.731   1.216  0.3205  0.7920  0.4839
  853MOL0     C12478   1.966   0.786   1.211  2.4945  0.1110  0.2184
  853MOL0     C12479   1.863   0.666   1.200  0.2195 -0.1437  0.9623
  853MOL0     C12480   1.824   0.608   1.341  0.0179 -0.3651  0.2904
  853MOL0     N12481   1.750   0.697   1.428 -0.4188  0.1107 -0.4760
  853MOL0     C12482   1.609   0.701   1.427  0.2389 -0.6831 -0.6048
  853MOL0     C12483   1.577   0.752   1.548 -0.0379 -0.8500 -0.3910
  853MOL0     C12484   1.433   0.790   1.573 -0.0264  0.5218  0.3577
  853MOL0     C12485   1.398   0.797   1.720  0.0318  0.0732 -0.6465
  853MOL0     C12486   1.246   0.801   1.730  0.6089  0.6315 -0.3535
  853MOL0     C12487   1.194   0.705   1.836  0.6457  0.5041  0.0564
  853MOL0     O12488   1.059   0.695   1.784  0.4851  0.0807 -0.8412
  853MOL0     C12489   0.988   0.582   1.822 -1.2974 -0.5576 -0.3002
  853MOL0     C12490   0.934   0.559   1.947 -0.7815  0.5174  0.5919
  853MOL0     C12491   0.854   0.448   1.974 -0.0109 -0.9922 -1.1485
  853MOL0     C12492   0.819   0.353   1.872 -0.3384  0.3250  0.3339
  853MOL0     C12493   0.720   0.233   1.881 -0.2545 -0.4166  0.2557
  853MOL0     O12494   0.698   0.162   1.770 -0.2860  0.1577 -0.2460
  853MOL0     C12495   0.639   0.040   1.795 -0.1019  1.3670  0.8938
  853MOL0     C12496   0.500   0.029   1.801  0.5021  0.7664  0.6354
  853MOL0     C12497   0.445  -0.101   1.820  0.9774  0.5245 -0.2558
  853MOL0     C12498   0.525  -0.213   1.821  0.3118  0.0816 -0.0678
  853MOL0     O12499   0.442  -0.324   1.854 -0.3992  0.2060 -0.5924
  853MOL0     C12500   0.388  -0.412   1.752 -0.6949 -0.6066 -0.9742
  853MOL0     C12501   0.250  -0.453   1.781 -0.5107 -0.1055 -0.1540
  853MOL0     C12502   0.155  -0.340   1.803 -0.9899 -0.1602 -1.5248
  853MOL0     C12503   0.018  -0.365   1.840 -0.1863  0.4996  0.3968
  853MOL0     C12504  -0.073  -0.406   1.723 -0.2620 -0.7825 -0.2213
  853MOL0     C12505  -0.223  -0.372   1.757  0.0543  0.1637 -0.4100
  853MOL0     C12506  -0.313  -0.419   1.648 -0.1537 -0.0777 -0.1357
  853MOL0     C12507  -0.456  -0.360   1.684  0.6309  0.4299  0.1248
  853MOL0    Cl12508  -0.579  -0.404   1.569 -0.0083 -0.2479  0.4286
  853MOL0     C12509   0.663  -0.210   1.803  1.3323 -0.0597  0.3604
  853MOL0     C12510   0.716  -0.082   1.785  0.2505 -0.9239  0.3072
  853MOL0     O12511   0.677   0.208   1.992 -0.3313 -0.1738 -0.3668
  853MOL0     C12512   0.889   0.375   1.747  0.1719 -0.2525  0.6622
  853MOL0     C12513   0.979   0.483   1.728  1.1308 -0.6478  0.5871
  853MOL0     N12514   1.694   0.772   1.623  0.6027 -0.6524  0.8358
  853MOL0     N12515   1.794   0.738   1.551 -0.1227 -0.4516 -0.2923
  853MOL0     C12516   2.784   0.684   1.280  0.4858 -0.0292 -0.1999
  853MOL0     C12517   2.891   0.627   1.341 -0.0393  0.2021 -0.0345
  853MOL0     C12518   3.176   0.528   1.702 -0.1036 -0.2805 -0.4133
  853MOL0     C12519   3.191   0.520   1.839  0.7176  0.3062 -0.1906
  853MOL0     C12520   3.291   0.433   1.890 -0.8530 -0.9687 -0.3236
  853MOL0     C12521   3.376   0.360   1.812  1.0731 -0.1556 -0.8606
  853MOL0     O12522   3.450   0.249   1.857  0.0248  0.0934  0.7941
  853MOL0     C12523   3.513   0.258   1.987 -0.2729  0.3756 -0.6550
  853MOL0     C12524   3.655   0.201   1.981 -0.0897 -0.2926 -0.1888
  853MOL0     C12525   3.639   0.050   1.974 -0.9006 -0.4904  0.4775
  853MOL0     C12526   3.772  -0.007   2.012  0.2354  0.0880 -0.3787
  853MOL0     C12527   3.783  -0.049   2.155  1.4510 -0.5036 -0.3842
  853MOL0     C12528   3.773  -0.065   2.272  0.6601 -0.0171 -0.3173
  853MOL0     C12529   3.354   0.371   1.671 -0.3453  0.0157 -0.4146
  853MOL0     C12530   3.252   0.442   1.616  1.1740 -0.0990  0.3827
  853MOL0     H12531   2.960   0.859   1.570 -1.8086 -0.7195  1.2658
  853MOL0     H12532   2.782   0.985   1.431  1.2166  0.0000 -1.4219
  853MOL0     H12533   2.606   1.055   1.268  2.7237 -1.4089 -0.5835
  853MOL0     H12534   2.549   0.962   1.407 -0.9243 -1.1430  0.2981
  853MOL0     H12535   2.416   0.982   1.135  2.4739  0.8842 -0.3792
  853MOL0     H12536   2.359   1.054   1.280  1.2962  0.4180  0.6240
  853MOL0     H12537   2.345   0.791   1.359 -1.9866  2.3444  0.4198
  853MOL0     H12538   2.385   0.764   1.190 -2.2612 -3.9299  1.9938
  853MOL0     H12539   2.151   0.927   1.285 -2.1119 -1.1510  0.4231
  853MOL0     H12540   2.189   0.894   1.123  0.4676 -2.6389 -1.2880
  853MOL0     H12541   2.127   0.666   1.302  0.8265  0.2344 -0.0403
  853MOL0     H12542   2.123   0.671   1.126 -0.3327  4.2187 -2.1311
  853MOL0     H12543   1.941   0.846   1.123  1.2284 -1.0460 -0.2420
  853MOL0     H12544   1.939   0.845   1.299  3.7575  0.0750  0.6558
  853MOL0     H12545   1.771   0.715   1.166  1.0360  2.8439  2.6243
  853MOL0     H12546   1.903   0.591   1.132  3.1760  1.3289  0.9146
  853MOL0     H12547   1.907   0.568   1.400 -0.0411  1.2728  1.5463
  853MOL0     H12548   1.768   0.517   1.317  0.9646 -0.3249 -2.4806
  853MOL0     H12549   1.538   0.680   1.348  0.0037 -1.5500 -0.1770
  853MOL0     H12550   1.369   0.719   1.519  0.5712  0.8099 -0.7759
  853MOL0     H12551   1.414   0.889   1.531  2.8655  0.8192 -0.4577
  853MOL0     H12552   1.443   0.889   1.758 -0.4709  0.0457  0.0330
  853MOL0     H12553   1.446   0.717   1.775 -0.1734 -0.2539 -0.9387
  853MOL0     H12554   1.206   0.902   1.742 -1.2818 -0.0688 -0.5476
  853MOL0     H12555   1.191   0.776   1.639 -2.3161 -0.3432  1.5502
  853MOL0     H12556   1.203   0.747   1.936 -0.9787  0.4108  0.2684
  853MOL0     H12557   1.253   0.613   1.834  4.6392  2.8248 -0.0255
  853MOL0     H12558   0.963   0.627   2.027 -1.3306  0.8619  0.5011
  853MOL0     H12559   0.812   0.439   2.074  1.0364  1.2399 -0.4275
  853MOL0     H12560   0.436   0.116   1.793  0.5993  0.9541  1.7635
  853MOL0     H12561   0.336  -0.101   1.827  1.0513 -0.2334  1.2575
  853MOL0     H12562   0.454  -0.496   1.728 -2.9277 -2.2101 -1.8068
  853MOL0     H12563   0.389  -0.350   1.662 -1.9067  0.5699 -0.2195
  853MOL0     H12564   0.259  -0.508   1.875  0.5197  1.3307  0.6147
  853MOL0     H12565   0.208  -0.530   1.715 -2.7693 -0.2033  1.2579
  853MOL0     H12566   0.152  -0.264   1.724 -0.5438 -0.8610 -2.2369
  853MOL0     H12567   0.198  -0.274   1.878 -2.4425 -0.4140 -0.4310
  853MOL0     H12568   0.009  -0.445   1.914 -3.4318  0.4211  0.0345
  853MOL0     H12569  -0.020  -0.273   1.884  0.1858 -0.3265  2.5717
  853MOL0     H12570  -0.057  -0.512   1.702  2.1079 -0.7737  1.2696
  853MOL0     H12571  -0.033  -0.367   1.629 -1.0465 -1.6722 -0.9439
  853MOL0     H12572  -0.239  -0.267   1.781  0.6708 -0.0266  0.9623
  853MOL0     H12573  -0.249  -0.418   1.854 -1.5412  0.5823 -0.6078
  853MOL0     H12574  -0.290  -0.366   1.555 -0.3822 -0.9822 -0.7243
  853MOL0     H12575  -0.313  -0.528   1.636 -0.9582  0.0884 -2.1305
  853MOL0     H12576  -0.460  -0.250   1.686  1.9904  0.4748  1.3269
  853MOL0     H12577  -0.483  -0.376   1.789  2.8705  0.1460  0.7025
  853MOL0     H12578   0.716  -0.304   1.812 -1.4713 -1.5585  3.7100
  853MOL0     H12579   0.824  -0.078   1.773  0.9441 -3.3486  3.9946
  853MOL0     H12580   0.875   0.312   1.659  1.5556  0.9420 -0.4676
  853MOL0     H12581   1.033   0.492   1.634  0.9349  2.8182  0.6744
  853MOL0     H12582   2.736   0.622   1.205  0.0364 -3.7146  2.8545
  853MOL0     H12583   2.929   0.532   1.305  2.0912 -0.2143  2.8733
  853MOL0     H12584   3.129   0.584   1.901  1.4907  1.6875 -0.7893
  853MOL0     H12585   3.289   0.446   1.998 -0.1952  0.2863 -0.4412
  853MOL0     H12586   3.452   0.214   2.067  1.6519 -3.6042 -1.1484
  853MOL0     H12587   3.517   0.365   2.010 -0.9211  0.1131  0.8650
  853MOL0     H12588   3.693   0.246   1.888 -1.4538  1.8805  0.2199
  853MOL0     H12589   3.721   0.226   2.064  0.2645  0.1987 -0.6059
  853MOL0     H12590   3.605   0.011   1.877 -0.2735 -1.4840  0.6455
  853MOL0     H12591   3.556   0.024   2.040 -2.6003  0.4906 -1.1732
  853MOL0     H12592   3.796  -0.096   1.953  2.0940  2.0057 -2.7652
  853MOL0     H12593   3.863   0.053   1.997  3.3403 -3.8613  1.0494
  853MOL0     H12594   3.741  -0.072   2.374 -2.5783  3.5966 -0.8709
  853MOL0     H12595   3.427   0.329   1.602  4.4552  1.6824  3.0920
  853MOL0     H12596   3.234   0.455   1.510  1.7939 -1.2109  0.1399
  854MOL0     O12597   1.931   5.015   4.049 -0.0801 -0.3913 -0.3990
  854MOL0     C12598   1.829   5.081   4.074  0.2227  0.0697  0.0556
  854MOL0     O12599   1.788   5.128   4.199 -0.1833  0.2502  0.1711
  854MOL0     C12600   1.856   5.095   4.319  0.2471  0.1264  0.2591
  854MOL0     C12601   1.932   4.977   4.337  1.1484 -0.0709 -0.2522
  854MOL0     C12602   1.996   4.953   4.462  0.3563  0.5366 -0.1749
  854MOL0     C12603   1.976   5.031   4.578  0.0284 -0.4894  0.9540
  854MOL0     O12604   2.045   4.988   4.684 -0.5561  0.0648  0.2477
  854MOL0     C12605   2.081   5.096   4.773 -0.4271  0.0118  1.3360
  854MOL0     C12606   2.150   5.050   4.905 -0.4462  0.4771 -0.5586
  854MOL0     C12607   2.240   4.923   4.879 -0.3190 -0.9752  0.3651
  854MOL0     C12608   2.339   4.897   4.995 -0.4175  0.7240  0.2191
  854MOL0     C12609   2.463   4.800   4.952  0.4329 -0.3089  0.0992
  854MOL0     C12610   2.580   4.796   5.051 -0.3686  0.0987  0.8904
  854MOL0     C12611   2.539   4.738   5.183  0.1492  1.2417  0.8089
  854MOL0     C12612   2.661   4.748   5.276  0.6973  0.1520  0.2070
  854MOL0     N12613   2.648   4.688   5.404 -0.2953  0.1925 -0.2743
  854MOL0     C12614   2.748   4.700   5.493  0.6901 -0.2659  0.1107
  854MOL0     C12615   2.682   4.654   5.607  0.0819  0.4160  0.9300
  854MOL0     C12616   2.707   4.680   5.750  0.5118 -0.3122 -0.0141
  854MOL0     C12617   2.619   4.796   5.803  0.1746 -0.0557 -0.1245
  854MOL0     C12618   2.660   4.855   5.941 -0.0250 -1.1458 -0.1140
  854MOL0     C12619   2.599   4.772   6.059 -0.1158  0.3930 -0.2803
  854MOL0     O12620   2.643   4.836   6.184 -0.1917  0.3619  0.0484
  854MOL0     C12621   2.774   4.802   6.220  0.7457 -0.3409  0.6431
  854MOL0     C12622   2.815   4.854   6.345 -0.3026  0.6022  0.0394
  854MOL0     C12623   2.943   4.829   6.400  0.4310  0.0469 -0.2192
  854MOL0     C12624   3.023   4.743   6.331 -0.0434  0.2488 -0.7032
  854MOL0     C12625   3.156   4.711   6.395  1.1918  0.0840  0.2792
  854MOL0     O12626   3.202   4.793   6.500  0.5367 -0.2461 -0.4488
  854MOL0     C12627   3.296   4.759   6.593 -0.8403 -0.3815 -0.1319
  854MOL0     C12628   3.311   4.628   6.646  0.3019 -0.3072  0.0185
  854MOL0     C12629   3.398   4.591   6.743  0.4255 -0.6415  0.1581
  854MOL0     C12630   3.463   4.694   6.809 -0.3167 -0.7593  0.4418
  854MOL0     O12631   3.541   4.660   6.921 -0.1368 -0.9851  0.2180
  854MOL0     C12632   3.670   4.722   6.952 -0.1755 -0.6393  0.7850
  854MOL0     C12633   3.648   4.783   7.096  0.3626  0.4845 -0.1659
  854MOL0     C12634   3.586   4.692   7.200 -1.6451 -0.2352 -0.2878
  854MOL0     C12635   3.621   4.751   7.343 -0.4896  0.3011  0.7423
  854MOL0     C12636   3.529   4.689   7.457 -0.3758  0.2288  0.6189
  854MOL0     C12637   3.565   4.744   7.585  0.2135 -0.5937  0.4382
  854MOL0     C12638   3.505   4.672   7.712  0.1970 -0.5939  0.2949
  854MOL0     C12639   3.462   4.771   7.819  0.2193 -0.4200 -0.7694
  854MOL0    Cl12640   3.334   4.688   7.936 -0.2028 -0.0434 -0.2104
  854MOL0     C12641   3.464   4.829   6.767  1.2792 -0.5850 -0.6035
  854MOL0     C12642   3.375   4.855   6.653 -0.6637  0.2866  0.0308
  854MOL0     O12643   3.211   4.607   6.362  0.4281 -0.6004  0.2928
  854MOL0     C12644   2.981   4.694   6.208  0.0051 -0.0788 -0.0624
  854MOL0     C12645   2.862   4.722   6.145 -0.5776  0.1840  0.0445
  854MOL0     N12646   2.560   4.590   5.575 -0.7362 -0.3991 -0.5002
  854MOL0     N12647   2.542   4.616   5.450 -0.1816  0.0835  0.1903
  854MOL0     C12648   1.893   5.142   4.564 -0.4787  1.0488 -0.5345
  854MOL0     C12649   1.831   5.167   4.440  0.1524 -0.2960  0.5399
  854MOL0     C12650   1.746   5.107   3.948 -0.5897 -0.3700  0.0056
  854MOL0     C12651   1.769   5.045   3.820 -0.3294 -0.6210 -0.4367
  854MOL0     C12652   1.684   5.069   3.709 -0.0378  0.5547  1.1063
  854MOL0     C12653   1.599   5.183   3.716 -0.4329 -0.2254 -0.0504
  854MOL0     O12654   1.518   5.237   3.616  0.2390 -0.2795 -0.0553
  854MOL0     C12655   1.528   5.194   3.483 -0.5387  0.4438 -0.8083
  854MOL0     C12656   1.467   5.055   3.439 -0.0142  0.8465  0.5318
  854MOL0     C12657   1.503   5.014   3.296 -0.4239 -0.0408  0.4690
  854MOL0     C12658   1.414   4.905   3.234  0.8421  0.1543  0.2837
  854MOL0     C12659   1.441   4.777   3.307 -0.0436  0.1446  0.3783
  854MOL0     C12660   1.466   4.673   3.364  0.3850 -0.8017  0.0617
  854MOL0     C12661   1.577   5.242   3.848  0.6519 -0.2164 -0.3852
  854MOL0     C12662   1.654   5.205   3.955 -0.1786  0.0568  0.1480
  854MOL0     H12663   1.952   4.908   4.256  0.1318  0.3455 -0.8705
  854MOL0     H12664   2.060   4.868   4.482 -0.5805  0.2300  1.8197
  854MOL0     H12665   1.994   5.155   4.804 -0.2822  1.0275 -0.0976
  854MOL0     H12666   2.154   5.162   4.725 -1.3603  0.5564  0.6188
  854MOL0     H12667   2.072   5.024   4.977  2.3979 -1.7887  1.9393
  854MOL0     H12668   2.223   5.123   4.940  1.3027 -1.7919  0.8120
  854MOL0     H12669   2.293   4.949   4.787 -0.0777  2.0398  1.2521
  854MOL0     H12670   2.175   4.837   4.860 -2.1117 -0.0705  2.0359
  854MOL0     H12671   2.383   4.994   5.020 -1.5415  1.7336 -1.5761
  854MOL0     H12672   2.282   4.866   5.084  1.8065 -1.5922  0.9716
  854MOL0     H12673   2.492   4.824   4.849  3.4272 -1.4010  0.5713
  854MOL0     H12674   2.424   4.698   4.964  2.0305 -1.1044 -1.0133
  854MOL0     H12675   2.632   4.892   5.049 -1.0893  0.4874 -1.1897
  854MOL0     H12676   2.649   4.733   4.996 -0.8000 -0.1055  0.5734
  854MOL0     H12677   2.453   4.791   5.224 -0.2688  1.3097 -0.1427
  854MOL0     H12678   2.522   4.630   5.181  0.4111  1.1165  2.9693
  854MOL0     H12679   2.696   4.851   5.290  0.7550  0.4578 -1.8382
  854MOL0     H12680   2.747   4.700   5.230 -0.4678 -0.0164 -1.9182
  854MOL0     H12681   2.840   4.758   5.489  0.0853  0.6267 -1.0568
  854MOL0     H12682   2.812   4.707   5.758  0.3661  0.3218 -0.1821
  854MOL0     H12683   2.696   4.592   5.813  2.3417  0.5256  1.5791
  854MOL0     H12684   2.518   4.755   5.800  1.0294 -2.2444 -1.6898
  854MOL0     H12685   2.621   4.872   5.724  3.9115  0.1895  0.0090
  854MOL0     H12686   2.769   4.864   5.945 -0.0856 -0.7035  1.8510
  854MOL0     H12687   2.616   4.955   5.946 -0.1392 -1.1596 -0.7836
  854MOL0     H12688   2.622   4.665   6.047 -2.8818 -0.7996  3.2540
  854MOL0     H12689   2.490   4.762   6.054  0.1094 -2.6983 -3.7450
  854MOL0     H12690   2.747   4.918   6.400  0.4125 -1.5193  3.7446
  854MOL0     H12691   2.960   4.862   6.502 -0.1870 -0.1936 -0.0328
  854MOL0     H12692   3.251   4.551   6.598  1.3179  0.1470 -2.0972
  854MOL0     H12693   3.418   4.488   6.772  0.7354 -0.0366  2.1962
  854MOL0     H12694   3.702   4.796   6.879  0.2655 -3.8339 -2.5670
  854MOL0     H12695   3.754   4.652   6.959  1.1938  0.9814  1.2942
  854MOL0     H12696   3.589   4.872   7.070  0.5070  1.2086  1.8603
  854MOL0     H12697   3.740   4.823   7.139  1.0328 -1.4290  0.2422
  854MOL0     H12698   3.633   4.594   7.190 -0.3937  0.5526 -2.5686
  854MOL0     H12699   3.479   4.697   7.179 -2.1706 -0.3502  2.0182
  854MOL0     H12700   3.726   4.727   7.365 -1.1723 -3.1696  0.7461
  854MOL0     H12701   3.621   4.861   7.347 -0.7453  0.2925  1.0106
  854MOL0     H12702   3.542   4.580   7.449 -2.0784 -0.0800  1.5124
  854MOL0     H12703   3.426   4.703   7.424 -0.3276 -0.3563  0.1905
  854MOL0     H12704   3.540   4.850   7.574 -0.6290 -0.6638  1.5137
  854MOL0     H12705   3.673   4.728   7.582  0.2678 -0.2290  0.4577
  854MOL0     H12706   3.410   4.626   7.680  0.2641 -1.9342  1.9002
  854MOL0     H12707   3.572   4.597   7.754  0.4183  0.8838  2.7647
  854MOL0     H12708   3.416   4.849   7.758 -3.6655 -1.7154  0.2103
  854MOL0     H12709   3.539   4.817   7.881 -0.2919  0.0187 -0.4597
  854MOL0     H12710   3.505   4.914   6.821 -3.1679  1.8038 -0.4884
  854MOL0     H12711   3.383   4.960   6.627  1.1580  0.6794  1.9392
  854MOL0     H12712   3.061   4.639   6.159  0.9491  0.8298  0.3973
  854MOL0     H12713   2.834   4.675   6.052 -1.2055 -1.3725  0.9751
  854MOL0     H12714   1.866   5.197   4.654  0.3730  0.3595  0.1607
  854MOL0     H12715   1.768   5.255   4.433 -0.5911 -0.8576 -0.0518
  854MOL0     H12716   1.838   4.964   3.798  0.2564  0.1648 -1.5018
  854MOL0     H12717   1.695   5.003   3.623 -0.2800 -0.3433  1.7399
  854MOL0     H12718   1.626   5.216   3.441 -0.5989  0.3923 -0.9752
  854MOL0     H12719   1.473   5.270   3.427  0.2458 -0.2885 -2.6145
  854MOL0     H12720   1.496   4.976   3.508 -3.1338 -0.4157  0.5572
  854MOL0     H12721   1.358   5.056   3.451 -0.7431 -0.6328 -4.0038
  854MOL0     H12722   1.610   4.989   3.291 -0.4138  0.1974 -1.0304
  854MOL0     H12723   1.490   5.097   3.226 -2.3494 -1.5605 -1.0696
  854MOL0     H12724   1.308   4.928   3.247  0.8480  1.2245 -1.2858
  854MOL0     H12725   1.435   4.887   3.128 -2.8017 -0.7351 -0.4224
  854MOL0     H12726   1.493   4.575   3.399  3.6811 -0.8979 -2.2629
  854MOL0     H12727   1.504   5.322   3.857 -0.4689 -1.0969 -1.2735
  854MOL0     H12728   1.651   5.261   4.048  1.6834  3.2203 -1.4966
  855MOL0     O12729   4.562   1.604   2.495  0.0080  1.2465  0.5024
  855MOL0     C12730   4.620   1.635   2.387  0.7557  0.0029 -0.1684
  855MOL0     O12731   4.555   1.630   2.263  0.2432  0.7524  0.3620
  855MOL0     C12732   4.445   1.559   2.248  0.0506 -0.8196 -0.0031
  855MOL0     C12733   4.319   1.613   2.299  0.3833 -0.3849 -0.0289
  855MOL0     C12734   4.203   1.531   2.280 -0.6408 -1.1823  0.4354
  855MOL0     C12735   4.214   1.396   2.242 -0.3446 -1.0504  0.1815
  855MOL0     O12736   4.100   1.329   2.250  0.1117 -0.0270 -0.2316
  855MOL0     C12737   4.095   1.218   2.340 -0.9558  0.1122 -0.0819
  855MOL0     C12738   3.997   1.124   2.287 -0.0809 -0.0559  0.4196
  855MOL0     C12739   3.868   1.124   2.368  0.2563 -0.1423 -0.3812
  855MOL0     C12740   3.766   1.024   2.302  0.0596 -0.0272  0.6000
  855MOL0     C12741   3.714   1.065   2.170  0.7803  0.8536  0.1797
  855MOL0     C12742   3.580   0.999   2.138  0.9910 -0.0378 -0.0609
  855MOL0     C12743   3.544   1.054   2.000  0.0382  0.1656 -0.1670
  855MOL0     C12744   3.438   0.968   1.943  0.3501 -0.1481 -0.8519
  855MOL0     N12745   3.303   0.974   2.020 -0.9056 -0.6006  0.1307
  855MOL0     C12746   3.189   1.036   1.960 -0.1907  0.2214  0.5511
  855MOL0     C12747   3.093   1.009   2.056  0.5507  0.8288  0.3081
  855MOL0     C12748   2.952   1.063   2.058 -0.3236 -0.4655  0.7213
  855MOL0     C12749   2.848   0.982   2.133 -0.8941  0.1168 -0.5452
  855MOL0     C12750   2.704   1.032   2.105 -1.6917  0.0572 -0.0552
  855MOL0     C12751   2.684   1.154   2.191 -0.1206 -0.0087 -0.4984
  855MOL0     O12752   2.549   1.203   2.204  0.0194  0.1195  0.7393
  855MOL0     C12753   2.507   1.332   2.229 -0.9345 -0.6737 -0.5730
  855MOL0     C12754   2.373   1.358   2.234  0.3099  0.6511  0.6778
  855MOL0     C12755   2.326   1.492   2.255  1.2593 -0.0132  0.1290
  855MOL0     C12756   2.406   1.601   2.273  0.2590  0.6910  0.6962
  855MOL0     C12757   2.353   1.731   2.310  1.1506  0.4826 -0.7474
  855MOL0     O12758   2.229   1.762   2.273 -0.3504 -0.3000 -0.1405
  855MOL0     C12759   2.171   1.880   2.322 -0.9498  0.0860  0.9633
  855MOL0     C12760   2.216   2.011   2.288 -0.5380  0.2835 -0.4283
  855MOL0     C12761   2.148   2.126   2.320 -0.3061  0.3791 -0.2082
  855MOL0     C12762   2.034   2.115   2.390 -0.6213 -0.4470 -0.0845
  855MOL0     O12763   1.973   2.240   2.410 -0.3798  0.9082 -0.7772
  855MOL0     C12764   1.873   2.231   2.509  0.2078 -0.6285 -0.0657
  855MOL0     C12765   1.832   2.375   2.540  0.9443 -0.7512  0.8009
  855MOL0     C12766   1.725   2.421   2.445  0.3754 -0.4116  1.0757
  855MOL0     C12767   1.659   2.563   2.470  0.1437 -0.5667  0.0136
  855MOL0     C12768   1.541   2.589   2.364 -0.3156  0.0531  0.1798
  855MOL0     C12769   1.433   2.690   2.414 -0.1278 -0.8334  0.4310
  855MOL0     C12770   1.339   2.724   2.300 -0.2905 -0.8117 -0.8453
  855MOL0     C12771   1.204   2.782   2.334  0.7407 -0.2311 -0.2374
  855MOL0    Cl12772   1.210   2.930   2.430  0.2282  0.3612 -0.1724
  855MOL0     C12773   1.984   1.990   2.426 -0.4545  0.3884  0.4990
  855MOL0     C12774   2.049   1.870   2.386  0.2683  0.5527 -0.0232
  855MOL0     O12775   2.432   1.803   2.367 -0.0191 -0.5736 -0.7173
  855MOL0     C12776   2.540   1.580   2.257 -0.3629  0.1230 -0.0846
  855MOL0     C12777   2.588   1.444   2.242 -0.2680 -0.0007  0.0560
  855MOL0     N12778   3.143   0.934   2.159 -0.3374 -0.4739 -0.0963
  855MOL0     N12779   3.263   0.909   2.129  0.1287  0.6611  0.2173
  855MOL0     C12780   4.339   1.343   2.196  0.7355 -0.0104 -0.2480
  855MOL0     C12781   4.454   1.431   2.192 -0.3496  0.4337 -0.5252
  855MOL0     C12782   4.759   1.688   2.392  0.7610 -0.4333  0.5347
  855MOL0     C12783   4.820   1.753   2.280  0.8195  0.9339 -0.6439
  855MOL0     C12784   4.957   1.780   2.282 -0.1992 -0.7770 -0.1600
  855MOL0     C12785   5.038   1.734   2.390 -0.3676 -0.1898  0.3969
  855MOL0     O12786   5.167   1.760   2.410 -0.2130 -0.7083  0.3520
  855MOL0     C12787   5.231   1.837   2.300 -0.6677  0.2981  0.3700
  855MOL0     C12788   5.374   1.870   2.334  0.3739  0.3166  0.2200
  855MOL0     C12789   5.458   1.932   2.217  0.2139 -0.0511 -0.4136
  855MOL0     C12790   5.584   2.002   2.265 -0.2647  0.0595  0.2526
  855MOL0     C12791   5.676   2.028   2.153  0.7308  0.2289  0.0033
  855MOL0     C12792   5.755   2.026   2.060 -0.1677  0.6288 -0.2480
  855MOL0     C12793   4.980   1.680   2.499  1.0185  0.7314 -0.8740
  855MOL0     C12794   4.842   1.661   2.501  0.5918 -0.7714  0.9412
  855MOL0     H12795   4.317   1.710   2.347 -1.7805  0.0133 -0.7699
  855MOL0     H12796   4.106   1.574   2.304 -0.6613 -1.9920  1.9499
  855MOL0     H12797   4.079   1.262   2.439  2.9619  2.8107 -0.3902
  855MOL0     H12798   4.194   1.171   2.347 -1.0363  0.1781  2.2101
  855MOL0     H12799   4.053   1.030   2.287 -1.3736 -0.9190 -2.0602
  855MOL0     H12800   3.967   1.149   2.185  0.6637  3.1415  0.8734
  855MOL0     H12801   3.818   1.221   2.380 -0.5564 -0.7122  1.1042
  855MOL0     H12802   3.878   1.101   2.474 -0.8254  0.8506 -0.0301
  855MOL0     H12803   3.816   0.927   2.302 -0.9808 -0.6125  2.3693
  855MOL0     H12804   3.683   1.015   2.373  0.5353 -4.7047  0.9325
  855MOL0     H12805   3.790   1.027   2.101  0.3347 -1.0022  0.6450
  855MOL0     H12806   3.712   1.174   2.164 -3.6877  0.8924 -1.3216
  855MOL0     H12807   3.502   1.028   2.208  0.1417  2.0556 -1.7811
  855MOL0     H12808   3.591   0.890   2.142  1.2367 -0.0718 -1.1546
  855MOL0     H12809   3.516   1.160   2.007  2.2840  0.8552 -0.5013
  855MOL0     H12810   3.634   1.051   1.937 -1.6383 -3.1193 -2.7151
  855MOL0     H12811   3.474   0.866   1.954  1.1918  0.2974  0.8511
  855MOL0     H12812   3.420   0.985   1.836  0.9916  0.0239 -0.9337
  855MOL0     H12813   3.182   1.094   1.869  3.9130  0.7501  0.3761
  855MOL0     H12814   2.922   1.064   1.953  3.4547 -0.4094 -0.4923
  855MOL0     H12815   2.960   1.169   2.083 -2.9754  0.9529 -3.3564
  855MOL0     H12816   2.871   0.985   2.240 -0.7770 -1.7406 -0.4743
  855MOL0     H12817   2.849   0.874   2.115  0.2652 -0.7861  3.8146
  855MOL0     H12818   2.704   1.064   2.000  1.7304  0.3609 -0.0646
  855MOL0     H12819   2.641   0.955   2.151  1.7886 -1.8154  2.0651
  855MOL0     H12820   2.745   1.240   2.161 -1.9024  1.2732 -0.6492
  855MOL0     H12821   2.707   1.129   2.295  3.7241  0.4510 -1.0943
  855MOL0     H12822   2.290   1.288   2.223 -1.7944  2.6648  2.4722
  855MOL0     H12823   2.218   1.497   2.250  1.2446 -1.1745 -1.8273
  855MOL0     H12824   2.310   2.020   2.234  0.4978  1.5130  1.4671
  855MOL0     H12825   2.193   2.223   2.301 -0.3052  1.6381  4.7952
  855MOL0     H12826   1.902   2.183   2.603 -0.4338  0.7713  0.8776
  855MOL0     H12827   1.787   2.181   2.464 -0.8425  1.2576 -0.2837
  855MOL0     H12828   1.921   2.437   2.524  1.0187 -0.9933  0.2464
  855MOL0     H12829   1.791   2.373   2.642 -3.3605 -2.8715 -0.7419
  855MOL0     H12830   1.647   2.344   2.451 -0.8685  0.5867 -1.2124
  855MOL0     H12831   1.759   2.419   2.341 -2.3351  1.3152  0.0559
  855MOL0     H12832   1.629   2.564   2.575  2.0096 -0.7070  0.5755
  855MOL0     H12833   1.726   2.648   2.452 -0.9079 -0.4823 -4.7905
  855MOL0     H12834   1.496   2.496   2.329  0.1997  0.0929 -0.6039
  855MOL0     H12835   1.579   2.648   2.280 -3.0505  3.1398  0.8587
  855MOL0     H12836   1.473   2.784   2.453 -1.2612 -0.7404  1.4449
  855MOL0     H12837   1.379   2.646   2.498 -1.2285  0.0249  0.1981
  855MOL0     H12838   1.393   2.801   2.244 -0.6990  0.1169  0.0016
  855MOL0     H12839   1.339   2.634   2.238  5.0775 -0.8353 -1.2303
  855MOL0     H12840   1.147   2.711   2.393  0.0050  0.4195 -0.1468
  855MOL0     H12841   1.151   2.809   2.241 -0.8787 -1.5254  0.2662
  855MOL0     H12842   1.887   1.986   2.476 -0.1738  1.5159  1.1736
  855MOL0     H12843   2.014   1.769   2.406  0.4703  0.1820 -1.3907
  855MOL0     H12844   2.609   1.664   2.248  2.6126 -2.2560 -1.3287
  855MOL0     H12845   2.695   1.430   2.254 -0.3751 -1.3780 -0.4201
  855MOL0     H12846   4.344   1.242   2.157  0.4781  0.3102 -1.1224
  855MOL0     H12847   4.548   1.391   2.155 -1.4385 -1.3980 -1.4858
  855MOL0     H12848   4.754   1.779   2.198 -0.1554  1.3944  0.2641
  855MOL0     H12849   5.001   1.823   2.192  1.0706 -0.2402  0.6798
  855MOL0     H12850   5.162   1.917   2.273  0.8760  1.1912 -1.0865
  855MOL0     H12851   5.238   1.768   2.216  0.6611  2.3732 -1.3209
  855MOL0     H12852   5.364   1.947   2.411  0.6202  0.7641 -0.1947
  855MOL0     H12853   5.412   1.772   2.364 -1.9315 -1.2801 -1.6591
  855MOL0     H12854   5.407   2.012   2.163 -0.7814  0.4853  1.2704
  855MOL0     H12855   5.475   1.848   2.149 -0.1924 -1.8411  1.5907
  855MOL0     H12856   5.555   2.093   2.319  0.5170  0.9725 -0.8054
  855MOL0     H12857   5.642   1.927   2.319  0.6545 -0.3997 -1.3068
  855MOL0     H12858   5.818   2.022   1.974 -2.9580 -1.2500 -2.3720
  855MOL0     H12859   5.045   1.647   2.579 -1.8655  1.0129  1.7832
  855MOL0     H12860   4.795   1.608   2.583  1.9692 -2.1433  0.9011
  856MOL0     O12861   2.177   7.907   6.156  0.8420  0.2566 -0.3538
  856MOL0     C12862   2.240   7.966   6.072  0.0786  0.8053  0.1735
  856MOL0     O12863   2.354   8.033   6.105 -0.2240  0.1338  0.6439
  856MOL0     C12864   2.420   8.015   6.225  0.9603  0.9658 -0.5272
  856MOL0     C12865   2.408   7.916   6.327  0.1113 -0.3330 -0.0727
  856MOL0     C12866   2.498   7.906   6.438 -0.5505 -0.3738  0.0991
  856MOL0     C12867   2.607   7.995   6.453  0.0598  0.1874 -0.7948
  856MOL0     O12868   2.699   7.980   6.557  0.5547  0.8744  0.2415
  856MOL0     C12869   2.827   8.037   6.540 -0.2854  0.1509  0.0666
  856MOL0     C12870   2.922   8.001   6.651 -0.1611 -0.4805  0.5812
  856MOL0     C12871   3.073   8.003   6.623 -0.7504  0.2110 -0.1091
  856MOL0     C12872   3.131   8.148   6.617 -0.1617 -0.1366  0.4112
  856MOL0     C12873   3.283   8.142   6.577  0.1177  1.3608  0.5199
  856MOL0     C12874   3.319   8.115   6.433  0.2942 -0.8449  0.6469
  856MOL0     C12875   3.264   8.204   6.322 -0.1031  0.4825  0.4730
  856MOL0     C12876   3.296   8.353   6.339  0.8644 -0.0259 -0.5966
  856MOL0     N12877   3.441   8.388   6.356  0.2784  0.4585 -0.5559
  856MOL0     C12878   3.533   8.361   6.262 -0.4614  0.1553 -0.5741
  856MOL0     C12879   3.633   8.430   6.304 -0.5399 -1.4627  0.6493
  856MOL0     C12880   3.763   8.444   6.228 -0.2380 -0.1008 -0.3136
  856MOL0     C12881   3.887   8.446   6.313  0.4462 -0.0425 -0.4788
  856MOL0     C12882   3.992   8.557   6.261 -0.6310  0.8750  0.9981
  856MOL0     C12883   3.964   8.696   6.301  0.0322  0.3596  1.3323
  856MOL0     O12884   4.033   8.805   6.224 -0.0617 -0.6015 -0.3352
  856MOL0     C12885   4.142   8.875   6.276  0.1656 -0.6299  0.0973
  856MOL0     C12886   4.197   8.842   6.396 -0.9999  0.1081 -0.4321
  856MOL0     C12887   4.310   8.913   6.444  0.0165 -0.7793  0.1222
  856MOL0     C12888   4.383   9.010   6.355 -0.0869  2.1279 -0.6964
  856MOL0     C12889   4.518   9.059   6.371  1.2094 -0.2517  0.4685
  856MOL0     O12890   4.581   9.092   6.251 -0.7662 -0.3763 -0.4514
  856MOL0     C12891   4.709   9.151   6.250  0.6918 -0.1551 -0.0703
  856MOL0     C12892   4.822   9.105   6.316 -0.1178 -0.0558  0.5370
  856MOL0     C12893   4.941   9.178   6.324 -0.7514 -0.0755  0.2461
  856MOL0     C12894   4.953   9.298   6.263 -0.2109  0.3158 -1.2999
  856MOL0     O12895   5.066   9.372   6.277 -0.5672 -0.6137 -0.2155
  856MOL0     C12896   5.127   9.377   6.410 -0.4726  1.2877 -0.4193
  856MOL0     C12897   5.098   9.515   6.479  0.0389  0.1655  0.5106
  856MOL0     C12898   5.147   9.536   6.623 -1.0966 -0.5597  0.6105
  856MOL0     C12899   5.303   9.517   6.633  0.4245  0.5232  0.1034
  856MOL0     C12900   5.353   9.535   6.776  0.0819  0.1985 -0.3343
  856MOL0     C12901   5.336   9.679   6.840  0.4002  0.3325 -0.5097
  856MOL0     C12902   5.434   9.707   6.960 -0.3222 -0.2039  0.4694
  856MOL0     C12903   5.402   9.824   7.032  0.2133  0.5246 -0.4357
  856MOL0    Cl12904   5.423   9.987   6.954  0.0007 -0.0008 -0.1615
  856MOL0     C12905   4.846   9.352   6.192 -0.3734  0.2116 -0.2797
  856MOL0     C12906   4.727   9.281   6.184 -0.2300 -0.1944  0.6604
  856MOL0     O12907   4.577   9.043   6.473  0.2093 -0.3029  0.2220
  856MOL0     C12908   4.317   9.043   6.239 -0.3124  0.3335  0.7491
  856MOL0     C12909   4.199   8.982   6.200 -0.5741  0.8766 -0.6394
  856MOL0     N12910   3.613   8.503   6.421  0.4262  0.5924 -0.3118
  856MOL0     N12911   3.494   8.468   6.459 -0.5591  1.0729  0.3831
  856MOL0     C12912   2.617   8.098   6.360  0.1267  0.3186 -0.9643
  856MOL0     C12913   2.526   8.107   6.251  1.2754 -0.9504  1.7622
  856MOL0     C12914   2.177   7.980   5.942 -0.8219 -0.3861 -0.3050
  856MOL0     C12915   2.241   8.059   5.847 -1.5559 -0.1169 -0.4206
  856MOL0     C12916   2.189   8.087   5.728  0.7566  0.6021 -0.6410
  856MOL0     C12917   2.057   8.045   5.695  0.3970 -0.8246  0.7442
  856MOL0     O12918   2.005   8.090   5.570 -0.7422  0.4467 -0.2201
  856MOL0     C12919   1.901   8.003   5.518 -0.2956 -0.3123 -0.4663
  856MOL0     C12920   1.953   7.872   5.480  0.3227  1.5902  0.5310
  856MOL0     C12921   2.071   7.886   5.381  0.2817 -0.5253 -0.0635
  856MOL0     C12922   2.104   7.746   5.328 -0.7380 -0.2699  0.0182
  856MOL0     C12923   2.208   7.766   5.226  0.9866  0.8716  0.3366
  856MOL0     C12924   2.278   7.795   5.129  0.3717  0.0006  0.1060
  856MOL0     C12925   1.991   7.982   5.793  0.6001  0.6494 -0.3795
  856MOL0     C12926   2.053   7.947   5.915 -0.0374  0.5822 -0.2806
  856MOL0     H12927   2.344   7.830   6.314 -0.1655  0.2222 -3.0882
  856MOL0     H12928   2.485   7.828   6.511  0.5250  0.8260  1.6433
  856MOL0     H12929   2.828   8.146   6.548 -2.1181  0.1441  0.9350
  856MOL0     H12930   2.868   8.004   6.444 -2.4575 -0.9121 -0.5724
  856MOL0     H12931   2.910   7.897   6.684 -3.0563  0.1999  2.0138
  856MOL0     H12932   2.909   8.070   6.735  0.2653  0.1292  0.1520
  856MOL0     H12933   3.084   7.948   6.529 -1.1299  2.0930 -1.3012
  856MOL0     H12934   3.129   7.943   6.695  1.3238 -0.1336 -1.8921
  856MOL0     H12935   3.069   8.204   6.546  1.3139 -3.1444 -3.5864
  856MOL0     H12936   3.127   8.189   6.719  1.4739  1.6132 -0.1815
  856MOL0     H12937   3.334   8.068   6.640 -1.2731 -1.0516 -1.0160
  856MOL0     H12938   3.322   8.240   6.605 -0.0178  1.1011  1.6694
  856MOL0     H12939   3.286   8.014   6.406 -2.0657  0.3293 -1.2904
  856MOL0     H12940   3.428   8.126   6.422  0.6753  1.4871  4.7101
  856MOL0     H12941   3.314   8.182   6.228 -1.5012 -0.7071 -0.0341
  856MOL0     H12942   3.160   8.170   6.319 -0.2995  0.5341  3.3737
  856MOL0     H12943   3.233   8.393   6.420  3.1589  0.5275  1.0052
  856MOL0     H12944   3.264   8.415   6.254 -0.5190 -1.2149 -0.9904
  856MOL0     H12945   3.535   8.303   6.170 -0.2822  0.8125 -0.9938
  856MOL0     H12946   3.761   8.537   6.171  1.5557 -0.0595 -0.3560
  856MOL0     H12947   3.774   8.368   6.149  2.9754 -0.1291  0.0565
  856MOL0     H12948   3.949   8.356   6.311  2.1635  0.9501  2.1358
  856MOL0     H12949   3.857   8.465   6.417 -2.2972  0.8927 -1.3585
  856MOL0     H12950   4.080   8.532   6.321  0.7473  0.2613 -1.1621
  856MOL0     H12951   4.026   8.528   6.161 -0.9674 -0.3318  1.2205
  856MOL0     H12952   3.974   8.700   6.410  2.6800  2.3372  1.1135
  856MOL0     H12953   3.856   8.710   6.290  0.2868  1.1765 -0.3423
  856MOL0     H12954   4.160   8.764   6.460 -3.2131 -1.0775 -2.9570
  856MOL0     H12955   4.349   8.895   6.543 -3.3511 -1.8046  1.4305
  856MOL0     H12956   4.819   9.002   6.352  1.4911 -0.4044 -0.2111
  856MOL0     H12957   5.028   9.131   6.368 -1.2257 -0.7815  0.4403
  856MOL0     H12958   5.234   9.362   6.390 -0.4628  0.1878  0.3760
  856MOL0     H12959   5.076   9.308   6.479 -0.7295  3.5076  1.7771
  856MOL0     H12960   4.989   9.521   6.489 -0.4873 -3.2939 -1.4443
  856MOL0     H12961   5.125   9.590   6.404  2.9231 -0.4794  0.7889
  856MOL0     H12962   5.097   9.469   6.694 -0.8922  0.5675  1.8632
  856MOL0     H12963   5.124   9.634   6.666  1.1147 -0.4698  1.7673
  856MOL0     H12964   5.327   9.415   6.599  0.0996  0.7108 -0.7255
  856MOL0     H12965   5.351   9.591   6.569  0.5550  1.4369  1.2290
  856MOL0     H12966   5.460   9.515   6.778 -0.4670 -3.6699 -0.2085
  856MOL0     H12967   5.296   9.463   6.836 -0.9273  0.2679 -1.1807
  856MOL0     H12968   5.230   9.680   6.869  0.1690  3.4616 -1.1385
  856MOL0     H12969   5.365   9.752   6.764 -1.2732  2.6931  0.9855
  856MOL0     H12970   5.410   9.619   7.020  2.7392 -1.2519  0.3410
  856MOL0     H12971   5.539   9.706   6.928 -0.5009  2.0859 -0.3672
  856MOL0     H12972   5.445   9.818   7.132 -0.1707 -2.7357 -0.3389
  856MOL0     H12973   5.295   9.817   7.055 -0.3061  0.6306 -2.5994
  856MOL0     H12974   4.851   9.451   6.147  0.3204  1.3395  2.1040
  856MOL0     H12975   4.648   9.333   6.131 -1.0031 -0.1459  1.8165
  856MOL0     H12976   4.354   9.121   6.172  1.5638 -1.4289 -0.3565
  856MOL0     H12977   4.152   9.013   6.107  0.4662  3.2152 -0.4540
  856MOL0     H12978   2.697   8.170   6.370 -0.6565  0.8646  2.4005
  856MOL0     H12979   2.543   8.188   6.181 -1.6660 -2.9848 -1.6312
  856MOL0     H12980   2.338   8.099   5.874 -1.0542 -0.9408 -0.9575
  856MOL0     H12981   2.236   8.137   5.644  0.9514 -1.2985 -1.7236
  856MOL0     H12982   1.844   8.055   5.441  2.7465  4.0273 -0.1218
  856MOL0     H12983   1.831   7.977   5.598  0.3050  0.2054  0.2436
  856MOL0     H12984   1.978   7.814   5.570  0.3989 -0.7833 -0.9445
  856MOL0     H12985   1.878   7.810   5.431  1.0087  0.3883  0.9754
  856MOL0     H12986   2.161   7.929   5.427 -0.0175  0.3050 -0.2421
  856MOL0     H12987   2.032   7.953   5.304  2.5665  0.6298 -0.3054
  856MOL0     H12988   2.144   7.670   5.396 -1.1177 -3.9459 -3.4913
  856MOL0     H12989   2.015   7.705   5.279 -0.4029 -1.6084  0.4881
  856MOL0     H12990   2.346   7.802   5.047  0.4059  0.8101  0.1957
  856MOL0     H12991   1.883   7.965   5.790  0.9212 -1.6836 -1.3003
  856MOL0     H12992   1.994   7.887   5.984 -1.0163  2.4891  0.6129
  857MOL0     O12993   0.115   4.701   5.533  0.2400  0.1867 -0.0838
  857MOL0     C12994   0.208   4.750   5.598  1.0646  0.6807 -0.9113
  857MOL0     O12995   0.263   4.863   5.566 -0.9071  0.1172 -0.4665
  857MOL0     C12996   0.225   4.951   5.460 -0.9502  0.1284  0.3724
  857MOL0     C12997   0.089   4.954   5.408 -0.5102 -0.3605  0.2281
  857MOL0     C12998   0.053   5.054   5.316  0.3354 -0.0556  0.0040
  857MOL0     C12999   0.148   5.149   5.281 -0.2316  0.0167 -0.3884
  857MOL0     O13000   0.105   5.244   5.192  0.2472 -0.3213 -0.6843
  857MOL0     C13001   0.213   5.331   5.146  0.5168 -0.1907  0.5379
  857MOL0     C13002   0.174   5.432   5.040  0.0861 -0.6750  0.5124
  857MOL0     C13003   0.290   5.514   4.982  0.6100 -0.1689 -1.1535
  857MOL0     C13004   0.227   5.631   4.910 -0.2509 -0.4216 -0.5646
  857MOL0     C13005   0.345   5.721   4.892 -0.9800 -0.2017  0.6392
  857MOL0     C13006   0.301   5.847   4.809  0.0726  0.0433 -0.1167
  857MOL0     C13007   0.292   5.818   4.654 -0.7313  0.4046  0.0172
  857MOL0     C13008   0.342   5.939   4.584  0.3125  0.6658  0.5142
  857MOL0     N13009   0.339   5.924   4.439 -0.9113  0.4370  1.1752
  857MOL0     C13010   0.255   5.989   4.343 -0.2638 -1.1534 -0.3171
  857MOL0     C13011   0.312   5.958   4.227  0.4497 -0.3900  1.7099
  857MOL0     C13012   0.244   5.993   4.092 -0.6450  0.1281 -0.9921
  857MOL0     C13013   0.230   5.852   4.019 -0.1647 -0.1682 -0.7285
  857MOL0     C13014   0.140   5.747   4.095 -0.4841 -0.1671 -0.2043
  857MOL0     C13015  -0.007   5.782   4.090 -0.5614 -0.0585 -0.3778
  857MOL0     O13016  -0.087   5.666   4.129 -0.3122  0.2553 -0.1450
  857MOL0     C13017  -0.206   5.626   4.075 -0.4497  0.2555  0.0910
  857MOL0     C13018  -0.270   5.686   3.968  0.0021 -0.5541 -0.0089
  857MOL0     C13019  -0.386   5.629   3.908 -0.1546  0.1058  0.3752
  857MOL0     C13020  -0.440   5.509   3.969 -0.1537 -1.3354 -0.1702
  857MOL0     C13021  -0.566   5.452   3.922  0.7457 -1.2898  0.4517
  857MOL0     O13022  -0.608   5.335   3.965 -0.1212  0.1766  0.0364
  857MOL0     C13023  -0.720   5.282   3.920 -0.3851 -0.6136 -0.5715
  857MOL0     C13024  -0.715   5.195   3.807  0.3943 -1.2732 -0.8789
  857MOL0     C13025  -0.837   5.165   3.752  0.3619  0.9955  0.3383
  857MOL0     C13026  -0.963   5.203   3.802 -0.2091  0.2346  0.0223
  857MOL0     O13027  -1.090   5.167   3.755  0.7732  0.1913 -0.5090
  857MOL0     C13028  -1.109   5.068   3.657  0.4697 -0.4900  0.9381
  857MOL0     C13029  -1.069   5.103   3.509 -0.7712 -0.4142 -0.4401
  857MOL0     C13030  -1.172   5.212   3.463  0.8346 -0.8068 -0.8020
  857MOL0     C13031  -1.104   5.284   3.335 -0.0533  1.3717  0.6031
  857MOL0     C13032  -1.218   5.357   3.249 -0.0535 -0.6265 -1.1361
  857MOL0     C13033  -1.236   5.494   3.313  0.4416  0.3436  0.2126
  857MOL0     C13034  -1.127   5.588   3.254  0.8312 -1.0206  0.1449
  857MOL0     C13035  -1.154   5.741   3.270  0.8071  0.3408 -0.1264
  857MOL0    Cl13036  -0.997   5.831   3.218 -0.0997  0.0003  0.3791
  857MOL0     C13037  -0.957   5.290   3.916  0.5605 -0.9695  0.1494
  857MOL0     C13038  -0.839   5.315   3.980  0.2394 -0.6913  0.6715
  857MOL0     O13039  -0.632   5.515   3.832  0.0886 -0.5086  0.0466
  857MOL0     C13040  -0.378   5.450   4.073  1.0330  0.1877 -0.5458
  857MOL0     C13041  -0.268   5.513   4.134 -1.3355  0.0073 -0.4488
  857MOL0     N13042   0.427   5.878   4.248  0.2861 -0.2630 -0.8233
  857MOL0     N13043   0.445   5.865   4.375 -0.4340  0.7491  0.9116
  857MOL0     C13044   0.281   5.139   5.331  0.5065 -0.3695  0.0558
  857MOL0     C13045   0.324   5.041   5.420  0.0123  0.1240  0.1812
  857MOL0     C13046   0.253   4.688   5.715 -0.2778  0.2738 -0.0145
  857MOL0     C13047   0.231   4.549   5.744  0.2671 -0.7523 -1.1380
  857MOL0     C13048   0.292   4.484   5.853  0.5102 -0.4583  0.1895
  857MOL0     C13049   0.378   4.549   5.943 -0.3359  0.0888 -1.0014
  857MOL0     O13050   0.469   4.476   6.023  0.1992 -0.8465 -0.7190
  857MOL0     C13051   0.516   4.541   6.144  0.1143 -0.2210 -0.4792
  857MOL0     C13052   0.489   4.428   6.246 -1.0085 -0.5581 -0.1822
  857MOL0     C13053   0.563   4.466   6.378  0.2187  0.2199  0.0119
  857MOL0     C13054   0.538   4.357   6.481 -0.1704  0.3226  0.5529
  857MOL0     C13055   0.637   4.250   6.450  0.3967  0.7540  0.5105
  857MOL0     C13056   0.724   4.167   6.420 -0.6350 -0.2520 -0.5843
  857MOL0     C13057   0.400   4.683   5.918  0.5639 -0.0886  0.5590
  857MOL0     C13058   0.346   4.753   5.803  0.3851  0.2976 -0.7880
  857MOL0     H13059   0.017   4.888   5.455  1.2424 -0.9333  2.2893
  857MOL0     H13060  -0.050   5.056   5.281 -0.2514  0.7704  1.7030
  857MOL0     H13061   0.282   5.264   5.095 -0.5208 -0.3202 -0.7368
  857MOL0     H13062   0.249   5.381   5.237  3.6145 -1.8606  0.3796
  857MOL0     H13063   0.109   5.505   5.088  1.4071 -1.4712  3.7314
  857MOL0     H13064   0.121   5.384   4.956 -0.1864 -1.6829  1.2380
  857MOL0     H13065   0.331   5.443   4.909 -1.5222 -2.5214 -0.2117
  857MOL0     H13066   0.369   5.541   5.052 -0.2259 -1.1776  0.2395
  857MOL0     H13067   0.190   5.607   4.810  0.7364  0.1827 -1.0958
  857MOL0     H13068   0.150   5.679   4.970 -0.1330 -0.8317 -0.0802
  857MOL0     H13069   0.422   5.669   4.835  0.2913  0.1668  1.9732
  857MOL0     H13070   0.401   5.743   4.983  0.5235 -0.3920 -0.2122
  857MOL0     H13071   0.380   5.922   4.814  0.9542 -0.2744 -4.5519
  857MOL0     H13072   0.205   5.880   4.850  0.0770 -1.3088  1.0549
  857MOL0     H13073   0.364   5.740   4.629  0.8908  1.4968  1.1044
  857MOL0     H13074   0.196   5.772   4.628 -1.2373 -0.0093  2.3070
  857MOL0     H13075   0.446   5.945   4.616  0.5370 -4.1332  1.3361
  857MOL0     H13076   0.282   6.025   4.617 -4.9377 -2.3303 -0.1675
  857MOL0     H13077   0.174   6.062   4.346  1.3109  0.7144 -0.8534
  857MOL0     H13078   0.314   6.052   4.031  0.1160  2.4410  1.8698
  857MOL0     H13079   0.148   6.044   4.084  0.2986  1.8020 -2.1833
  857MOL0     H13080   0.325   5.802   3.997 -0.9378 -1.4218 -1.3824
  857MOL0     H13081   0.183   5.875   3.923 -0.5457  0.8965 -0.2952
  857MOL0     H13082   0.147   5.648   4.047  0.1821  0.7292 -2.0496
  857MOL0     H13083   0.173   5.730   4.198 -0.3265 -1.0797 -0.3907
  857MOL0     H13084  -0.034   5.817   3.990  0.4864  2.6019  0.1602
  857MOL0     H13085  -0.035   5.870   4.150 -2.6816 -0.5981 -0.5247
  857MOL0     H13086  -0.247   5.781   3.922 -4.0119  2.0348  2.7095
  857MOL0     H13087  -0.426   5.674   3.817 -0.6893 -3.3402 -1.2701
  857MOL0     H13088  -0.618   5.185   3.759  2.1874 -2.7127  2.6315
  857MOL0     H13089  -0.842   5.110   3.659  3.0916 -1.7234  1.6266
  857MOL0     H13090  -1.216   5.057   3.639  0.6510 -0.6375 -0.0962
  857MOL0     H13091  -1.073   4.969   3.685  1.4287  0.0428  1.6534
  857MOL0     H13092  -1.072   5.010   3.452 -1.3771 -0.6964  0.0410
  857MOL0     H13093  -0.965   5.128   3.488 -0.8906 -0.9198 -1.7233
  857MOL0     H13094  -1.189   5.273   3.552 -4.0357  1.2170 -2.7439
  857MOL0     H13095  -1.271   5.177   3.431  0.2115 -0.3234  0.5246
  857MOL0     H13096  -1.023   5.348   3.370  1.1790 -0.5431  1.4025
  857MOL0     H13097  -1.055   5.214   3.267  0.9311  2.3288  0.3225
  857MOL0     H13098  -1.310   5.298   3.248  2.1837 -4.4662 -1.3636
  857MOL0     H13099  -1.188   5.366   3.144  0.7942  0.7386 -0.8065
  857MOL0     H13100  -1.219   5.477   3.419  2.0585  2.6026  0.3783
  857MOL0     H13101  -1.338   5.530   3.297  1.3070  1.8010 -2.7852
  857MOL0     H13102  -1.036   5.546   3.297  0.0081 -1.3663  1.6144
  857MOL0     H13103  -1.127   5.574   3.145  0.5657 -1.9000  0.2449
  857MOL0     H13104  -1.188   5.755   3.372 -1.2563  3.0897 -1.0914
  857MOL0     H13105  -1.236   5.767   3.203  0.2367  0.1161  0.4787
  857MOL0     H13106  -1.045   5.342   3.952  1.4955 -0.1088  1.2825
  857MOL0     H13107  -0.839   5.377   4.069 -0.5944 -3.0065  2.3562
  857MOL0     H13108  -0.421   5.360   4.116 -0.3994  1.8365  1.6678
  857MOL0     H13109  -0.221   5.473   4.224 -0.5898  2.9363  0.5924
  857MOL0     H13110   0.352   5.215   5.300 -1.0615  1.2546  0.2739
  857MOL0     H13111   0.423   5.038   5.463 -0.1557  0.4233  0.5907
  857MOL0     H13112   0.167   4.493   5.676 -2.5544  2.2230 -1.1532
  857MOL0     H13113   0.269   4.378   5.858 -0.2458 -0.3298 -0.4270
  857MOL0     H13114   0.462   4.630   6.177  2.7505  0.9720  0.9233
  857MOL0     H13115   0.621   4.560   6.120  0.6198 -0.3049  1.5559
  857MOL0     H13116   0.383   4.435   6.272 -2.2657 -0.2513 -4.6458
  857MOL0     H13117   0.524   4.333   6.205 -2.5649 -1.3156  0.1416
  857MOL0     H13118   0.520   4.555   6.425  1.6522  0.4061  1.0684
  857MOL0     H13119   0.668   4.491   6.357  0.1824  1.4455  1.1117
  857MOL0     H13120   0.549   4.378   6.588 -3.2897 -0.6388  1.1808
  857MOL0     H13121   0.436   4.321   6.461 -0.1099  1.3113 -1.8881
  857MOL0     H13122   0.808   4.106   6.390 -1.2848 -0.2124 -2.6803
  857MOL0     H13123   0.465   4.740   5.984  0.5020  0.1110  0.4466
  857MOL0     H13124   0.376   4.857   5.791 -2.0737  1.4387  1.6868
  858MOL0     O13125   5.567   1.860   7.099 -0.7792  0.5561 -0.0420
  858MOL0     C13126   5.564   1.940   7.196 -0.3204  0.4040 -0.4518
  858MOL0     O13127   5.480   1.926   7.303 -0.4767  0.1890 -0.2760
  858MOL0     C13128   5.397   1.817   7.305 -0.3031  0.2774  0.1088
  858MOL0     C13129   5.280   1.862   7.354  0.3714 -0.5172 -0.0345
  858MOL0     C13130   5.168   1.779   7.351 -0.2331  0.4381  0.6427
  858MOL0     C13131   5.176   1.646   7.314 -0.0319  1.1067  0.0697
  858MOL0     O13132   5.063   1.578   7.330  0.9223  0.1077 -0.5591
  858MOL0     C13133   5.065   1.437   7.360 -0.0134 -0.4283  0.2295
  858MOL0     C13134   4.919   1.401   7.379  0.4303  0.7722  0.5952
  858MOL0     C13135   4.899   1.248   7.388  0.4843  0.0230 -0.5364
  858MOL0     C13136   4.751   1.213   7.401 -1.1056  0.4358  0.3889
  858MOL0     C13137   4.660   1.224   7.269  0.7092 -0.4651  0.3120
  858MOL0     C13138   4.509   1.187   7.279 -0.9374  0.0232  0.3062
  858MOL0     C13139   4.420   1.209   7.148 -0.5457 -1.6233  0.1883
  858MOL0     C13140   4.458   1.340   7.075 -0.2909 -0.2281 -0.4237
  858MOL0     N13141   4.358   1.381   6.970  0.0823  0.0574  0.1041
  858MOL0     C13142   4.342   1.333   6.839  0.1875 -1.0030  0.6002
  858MOL0     C13143   4.277   1.438   6.770 -1.0577  0.8431 -0.3430
  858MOL0     C13144   4.246   1.458   6.625  0.2807  0.2051 -0.0387
  858MOL0     C13145   4.099   1.417   6.613 -0.3293 -1.6587  0.2730
  858MOL0     C13146   4.010   1.542   6.633 -1.4202 -0.9107  0.2164
  858MOL0     C13147   3.880   1.484   6.677 -0.1573  0.1644 -0.4459
  858MOL0     O13148   3.788   1.595   6.687 -0.4477 -0.0017 -2.0461
  858MOL0     C13149   3.763   1.643   6.812  1.3137  0.4830 -0.1769
  858MOL0     C13150   3.857   1.725   6.876  0.2832  0.3142 -0.7947
  858MOL0     C13151   3.833   1.788   6.996  0.5413 -0.7858 -0.3104
  858MOL0     C13152   3.703   1.774   7.062  0.0922  0.0562 -0.5875
  858MOL0     C13153   3.681   1.833   7.189 -0.8796 -0.4503 -0.8011
  858MOL0     O13154   3.779   1.880   7.264  0.5127  0.3705  0.2532
  858MOL0     C13155   3.758   1.916   7.395 -0.2978 -0.5810 -0.3386
  858MOL0     C13156   3.847   2.008   7.446  0.3690 -0.2964 -0.3979
  858MOL0     C13157   3.838   2.048   7.578  0.2802  0.0699 -0.3013
  858MOL0     C13158   3.738   1.994   7.668 -0.4063 -0.4843  0.5090
  858MOL0     O13159   3.725   2.031   7.805  0.5802  0.2934  1.1427
  858MOL0     C13160   3.852   2.027   7.879  0.2038 -0.9766 -0.6637
  858MOL0     C13161   3.801   2.093   8.012  0.1235 -0.6081  0.8500
  858MOL0     C13162   3.924   2.075   8.107  0.2866 -0.3377  0.8725
  858MOL0     C13163   3.933   2.172   8.217  1.3864  0.0255  0.2643
  858MOL0     C13164   4.016   2.118   8.338 -1.0195  0.0339 -0.0950
  858MOL0     C13165   4.059   2.234   8.440 -0.1084  0.6732 -0.4270
  858MOL0     C13166   4.117   2.181   8.576  0.6344 -0.4769 -0.2059
  858MOL0     C13167   4.013   2.117   8.665 -0.0145  0.2878  0.1744
  858MOL0    Cl13168   3.907   2.245   8.745  0.5618  0.2560 -0.2222
  858MOL0     C13169   3.648   1.905   7.615  0.0957  0.8682 -0.6782
  858MOL0     C13170   3.659   1.864   7.482  0.0167 -1.0295 -0.7434
  858MOL0     O13171   3.565   1.827   7.223 -0.0201 -0.2605 -0.4884
  858MOL0     C13172   3.620   1.674   7.007  0.2742 -0.6106  0.0821
  858MOL0     C13173   3.646   1.614   6.882 -0.0419 -0.0187  0.9257
  858MOL0     N13174   4.251   1.538   6.857 -0.7230 -0.8274 -0.8957
  858MOL0     N13175   4.301   1.505   6.974 -0.1897 -0.0173  0.0288
  858MOL0     C13176   5.299   1.597   7.265 -0.5356 -0.3222 -0.2859
  858MOL0     C13177   5.405   1.684   7.265 -0.5006  0.0853  0.1862
  858MOL0     C13178   5.681   2.032   7.201 -0.2211 -0.4658  0.0904
  858MOL0     C13179   5.709   2.118   7.315  0.3928  1.7522  0.7223
  858MOL0     C13180   5.833   2.187   7.330  0.5586  0.3766 -0.0891
  858MOL0     C13181   5.935   2.188   7.232 -0.0381  0.1628  0.2349
  858MOL0     O13182   6.066   2.244   7.250  0.0701 -0.1655  0.0716
  858MOL0     C13183   6.139   2.176   7.357  0.1065  0.1305  0.8759
  858MOL0     C13184   6.292   2.192   7.338  0.6502 -0.4050 -1.0381
  858MOL0     C13185   6.352   2.338   7.346  0.5049  0.5941 -0.7018
  858MOL0     C13186   6.507   2.338   7.371 -0.7208  0.9065  0.5971
  858MOL0     C13187   6.543   2.477   7.405 -0.8947 -0.1544 -0.8759
  858MOL0     C13188   6.594   2.581   7.445  1.4599 -1.1164  0.7072
  858MOL0     C13189   5.899   2.116   7.115 -0.5022  0.6177  0.2216
  858MOL0     C13190   5.789   2.028   7.105 -0.5109 -0.6974  0.1124
  858MOL0     H13191   5.261   1.963   7.388 -1.1311 -0.3890 -1.1319
  858MOL0     H13192   5.073   1.820   7.382 -0.8826  1.5518 -2.4942
  858MOL0     H13193   5.120   1.405   7.449 -3.6166 -1.4795  2.2566
  858MOL0     H13194   5.105   1.385   7.272  2.3605  1.2502  0.2026
  858MOL0     H13195   4.871   1.429   7.285 -2.5416 -1.2085  1.4143
  858MOL0     H13196   4.867   1.458   7.457  2.3978  1.5258  1.4547
  858MOL0     H13197   4.963   1.220   7.472  0.1214 -1.3835 -0.7001
  858MOL0     H13198   4.950   1.201   7.303  0.1553  1.2901 -1.4651
  858MOL0     H13199   4.754   1.109   7.435  3.1944  0.3703  0.3713
  858MOL0     H13200   4.706   1.270   7.483 -1.0735  0.2637  0.5278
  858MOL0     H13201   4.710   1.171   7.187  1.7694 -1.0556  1.3056
  858MOL0     H13202   4.673   1.326   7.233  2.0772 -0.7817 -0.1818
  858MOL0     H13203   4.462   1.253   7.354 -3.1477  1.0356 -1.8165
  858MOL0     H13204   4.494   1.087   7.320 -0.6696 -0.7476 -1.4182
  858MOL0     H13205   4.441   1.122   7.086 -0.6771 -1.5066 -0.0198
  858MOL0     H13206   4.318   1.224   7.183  0.0404  1.7604  0.8074
  858MOL0     H13207   4.556   1.348   7.027 -2.6198  1.1106 -5.6478
  858MOL0     H13208   4.449   1.421   7.148 -2.3220 -1.2902  0.5925
  858MOL0     H13209   4.374   1.240   6.793  1.6498 -1.1443  1.8132
  858MOL0     H13210   4.298   1.381   6.569  0.6256 -1.2326  2.1268
  858MOL0     H13211   4.266   1.560   6.590  0.7688  0.9839  2.3277
  858MOL0     H13212   4.075   1.354   6.699  0.5110 -2.8227 -0.3161
  858MOL0     H13213   4.069   1.365   6.521 -2.3281  0.9956 -0.7055
  858MOL0     H13214   4.042   1.613   6.710 -3.2536 -1.1844  1.2921
  858MOL0     H13215   4.000   1.601   6.542  1.8404  0.6894  0.7276
  858MOL0     H13216   3.889   1.427   6.770  1.8821 -2.6604 -2.2377
  858MOL0     H13217   3.844   1.410   6.605 -0.6505  0.0238 -0.0615
  858MOL0     H13218   3.950   1.742   6.822  1.9319 -2.7724  0.8241
  858MOL0     H13219   3.899   1.857   7.047 -2.2780  2.2117 -0.4024
  858MOL0     H13220   3.902   2.058   7.366  0.4363 -1.5045 -1.1455
  858MOL0     H13221   3.910   2.125   7.606 -2.8489  2.7757  0.9915
  858MOL0     H13222   3.930   2.092   7.839 -1.9896  2.9182  0.8402
  858MOL0     H13223   3.896   1.931   7.906  2.2836  0.1079  0.0608
  858MOL0     H13224   3.717   2.040   8.058 -0.3876  1.5528  2.5876
  858MOL0     H13225   3.781   2.201   8.007 -1.9659 -0.6420  4.4203
  858MOL0     H13226   4.022   2.086   8.060  0.6427  0.1090  1.6872
  858MOL0     H13227   3.923   1.972   8.143  2.1547 -0.5098  0.5012
  858MOL0     H13228   3.970   2.265   8.174  0.8461 -0.6853 -1.8586
  858MOL0     H13229   3.830   2.184   8.252  0.4089 -2.4828 -1.4871
  858MOL0     H13230   4.114   2.084   8.301 -1.7606 -3.6813  0.9454
  858MOL0     H13231   3.980   2.024   8.380  1.3535 -0.2792  1.4768
  858MOL0     H13232   3.975   2.302   8.454 -1.4677  0.0093 -4.1378
  858MOL0     H13233   4.136   2.290   8.386 -2.2373  2.7477 -1.4754
  858MOL0     H13234   4.196   2.114   8.543  2.2364  0.9453  0.6002
  858MOL0     H13235   4.167   2.259   8.634  1.2768 -0.5019 -0.7110
  858MOL0     H13236   4.071   2.068   8.743  0.3518  1.8766  0.9457
  858MOL0     H13237   3.951   2.043   8.614  1.9905 -1.7447  0.5555
  858MOL0     H13238   3.583   1.864   7.691  0.3593  1.8138  0.0790
  858MOL0     H13239   3.605   1.772   7.462 -0.7761 -1.3677  2.5126
  858MOL0     H13240   3.524   1.644   7.049  1.0428 -2.2012  0.7976
  858MOL0     H13241   3.571   1.549   6.838 -1.7185  2.4307  0.0061
  858MOL0     H13242   5.327   1.500   7.225  1.4478  1.0528 -2.5137
  858MOL0     H13243   5.497   1.647   7.220 -1.2957  0.6018 -1.9675
  858MOL0     H13244   5.633   2.117   7.393 -1.2407 -0.2690 -0.7771
  858MOL0     H13245   5.857   2.252   7.413 -1.7561  6.0305 -3.3133
  858MOL0     H13246   6.131   2.067   7.365  2.7118 -0.2348 -0.4300
  858MOL0     H13247   6.099   2.220   7.448 -2.3238  2.4884 -1.1512
  858MOL0     H13248   6.340   2.138   7.420 -0.8602 -0.2293  0.0103
  858MOL0     H13249   6.315   2.150   7.240 -0.3012  0.9759 -1.8935
  858MOL0     H13250   6.310   2.378   7.438  2.6800  0.0896  0.6001
  858MOL0     H13251   6.339   2.387   7.250  6.0775  1.6416 -1.2551
  858MOL0     H13252   6.537   2.272   7.453  1.4872 -0.2505 -1.0524
  858MOL0     H13253   6.571   2.295   7.293 -0.5560  0.1393  1.1466
  858MOL0     H13254   6.646   2.671   7.471 -1.1370  1.6731 -2.7282
  858MOL0     H13255   5.968   2.115   7.031 -0.5414 -1.2431  0.1711
  858MOL0     H13256   5.777   1.965   7.017 -2.8642  3.1658 -2.6865
  859MOL0     O13257  11.280   5.773   1.001  0.3999  0.5647  0.0521
  859MOL0     C13258  11.181   5.722   1.056  0.0550  0.6341  0.3807
  859MOL0     O13259  11.076   5.676   0.987 -0.4333  1.1622  0.0684
  859MOL0     C13260  11.076   5.680   0.848  0.6231 -0.1154 -0.9298
  859MOL0     C13261  11.185   5.642   0.766  0.9163 -0.6177  0.3137
  859MOL0     C13262  11.163   5.645   0.620  0.3133 -0.4812 -0.2050
  859MOL0     C13263  11.047   5.694   0.565  0.7695  0.0488 -0.2199
  859MOL0     O13264  11.049   5.705   0.428 -0.5385 -0.3937  0.0783
  859MOL0     C13265  10.947   5.647   0.354 -0.0994 -1.3201  0.2286
  859MOL0     C13266  10.981   5.502   0.338  0.5475  0.3773 -1.0507
  859MOL0     C13267  11.092   5.496   0.230 -0.7334 -0.2629 -0.2739
  859MOL0     C13268  11.167   5.358   0.243 -0.2874 -0.8663  0.0733
  859MOL0     C13269  11.262   5.323   0.121 -0.0323  0.5127  0.5386
  859MOL0     C13270  11.329   5.184   0.127  0.7309 -0.1190 -0.1069
  859MOL0     C13271  11.455   5.158   0.047  0.2918 -0.2393 -0.5967
  859MOL0     C13272  11.419   5.170  -0.098  0.0916 -0.2867 -0.1210
  859MOL0     N13273  11.333   5.058  -0.137 -0.0928  1.0470 -0.1117
  859MOL0     C13274  11.213   5.064  -0.209 -0.5077 -1.0200  0.5262
  859MOL0     C13275  11.149   4.948  -0.191  0.1755 -0.6559  0.5212
  859MOL0     C13276  11.013   4.902  -0.236  0.0402  0.2066 -0.0055
  859MOL0     C13277  10.916   5.022  -0.275 -0.4205 -0.4358  0.0903
  859MOL0     C13278  10.916   5.135  -0.162  0.1968 -0.1911  0.2963
  859MOL0     C13279  10.781   5.202  -0.156 -1.1452  0.9587  0.9170
  859MOL0     O13280  10.773   5.295  -0.047  0.5368 -0.5210 -0.0429
  859MOL0     C13281  10.701   5.408  -0.063  0.2222  0.4049  0.6016
  859MOL0     C13282  10.728   5.521   0.017  0.1256  0.1993  0.0322
  859MOL0     C13283  10.667   5.642  -0.008  0.2807  0.4648 -0.4014
  859MOL0     C13284  10.564   5.661  -0.106 -0.0894  0.0723 -0.5890
  859MOL0     C13285  10.516   5.792  -0.149 -0.9898 -0.7775  0.2784
  859MOL0     O13286  10.436   5.793  -0.254  0.2069 -0.1451 -0.4160
  859MOL0     C13287  10.369   5.915  -0.275  0.8144  0.1094 -0.0231
  859MOL0     C13288  10.311   5.995  -0.177 -0.1838 -0.1786  0.2742
  859MOL0     C13289  10.257   6.113  -0.217  0.8641  0.5655 -0.1785
  859MOL0     C13290  10.235   6.148  -0.351 -0.5541 -0.8557  0.0401
  859MOL0     O13291  10.192   6.270  -0.406 -0.3533 -0.0785  0.1710
  859MOL0     C13292  10.172   6.388  -0.323  0.0650 -0.8456  0.1188
  859MOL0     C13293  10.059   6.467  -0.397 -0.2266 -0.9198 -0.4090
  859MOL0     C13294  10.039   6.602  -0.328 -0.5886 -0.1775  1.6570
  859MOL0     C13295  10.163   6.698  -0.354 -0.3376  0.9700  0.0836
  859MOL0     C13296  10.127   6.843  -0.359  0.5569  0.1414 -0.0437
  859MOL0     C13297  10.251   6.937  -0.361  0.3086  0.5743  0.3531
  859MOL0     C13298  10.211   7.084  -0.411  0.1315 -0.2938  0.5586
  859MOL0     C13299  10.334   7.161  -0.425  0.1726 -0.4109  0.5259
  859MOL0    Cl13300  10.429   7.071  -0.547 -0.0779  0.5421 -0.0375
  859MOL0     C13301  10.276   6.057  -0.447  0.2727  0.0247 -0.1683
  859MOL0     C13302  10.352   5.944  -0.415 -0.1988  0.4245 -0.6526
  859MOL0     O13303  10.573   5.892  -0.104 -0.0323  0.4661 -0.3429
  859MOL0     C13304  10.532   5.553  -0.186  0.5201 -0.2285  0.3968
  859MOL0     C13305  10.589   5.423  -0.154  0.0081 -0.4692  1.3525
  859MOL0     N13306  11.224   4.863  -0.122 -0.1923 -0.3109 -0.3178
  859MOL0     N13307  11.331   4.931  -0.080  0.6094  0.3121  0.9990
  859MOL0     C13308  10.941   5.729   0.648  1.3099  0.3177  0.0933
  859MOL0     C13309  10.957   5.721   0.782  0.6435 -0.5116  0.1976
  859MOL0     C13310  11.181   5.726   1.206  0.4489  0.1922 -0.7791
  859MOL0     C13311  11.074   5.720   1.302  0.0457  0.2857  0.5447
  859MOL0     C13312  11.093   5.722   1.436 -0.0026  0.0190  0.3157
  859MOL0     C13313  11.224   5.720   1.492 -0.4157  0.0884  0.1227
  859MOL0     O13314  11.247   5.731   1.627  0.2350  0.7800  0.2754
  859MOL0     C13315  11.151   5.810   1.696 -0.2850 -0.4760 -0.2815
  859MOL0     C13316  11.075   5.726   1.809  0.3782 -0.0052  0.5192
  859MOL0     C13317  11.177   5.656   1.899  0.1322  0.4655 -0.6916
  859MOL0     C13318  11.257   5.760   1.995 -0.3992  1.3869  0.0189
  859MOL0     C13319  11.293   5.691   2.124  0.2511 -0.4392 -0.2180
  859MOL0     C13320  11.312   5.629   2.225 -1.6181 -0.2162 -0.3227
  859MOL0     C13321  11.328   5.721   1.406 -0.0701 -0.9765 -0.6220
  859MOL0     C13322  11.300   5.729   1.271 -0.1902  0.0371 -0.3720
  859MOL0     H13323  11.276   5.609   0.815  0.5923 -3.8984 -1.0698
  859MOL0     H13324  11.247   5.624   0.554  0.3681 -2.2324  0.3659
  859MOL0     H13325  10.954   5.691   0.254 -0.5697  0.3210  0.8763
  859MOL0     H13326  10.849   5.670   0.397 -0.0946 -2.2566  0.7743
  859MOL0     H13327  10.896   5.441   0.307  1.5661 -1.9702  0.5298
  859MOL0     H13328  11.016   5.465   0.435 -2.0442  0.1117 -0.1295
  859MOL0     H13329  11.165   5.578   0.234  2.2103 -2.7182  0.3418
  859MOL0     H13330  11.056   5.496   0.126  0.5246 -1.3368 -0.7472
  859MOL0     H13331  11.226   5.360   0.334  1.7583  2.1121 -1.1703
  859MOL0     H13332  11.091   5.279   0.246  1.3265 -2.4280  2.1706
  859MOL0     H13333  11.346   5.391   0.141  1.2235 -0.7501 -0.3154
  859MOL0     H13334  11.218   5.346   0.024 -3.6680  0.4120  1.9930
  859MOL0     H13335  11.249   5.116   0.096  0.1361  0.6491 -0.2784
  859MOL0     H13336  11.348   5.152   0.230 -0.1818  0.0674  0.1251
  859MOL0     H13337  11.530   5.231   0.079 -3.0858  2.4012  2.1046
  859MOL0     H13338  11.488   5.057   0.075 -3.6616 -1.6785 -0.5442
  859MOL0     H13339  11.505   5.182  -0.165 -2.6781  0.8548 -3.8255
  859MOL0     H13340  11.365   5.263  -0.114 -0.1503 -0.6258 -1.3881
  859MOL0     H13341  11.191   5.158  -0.259 -1.0888  1.0050  4.2824
  859MOL0     H13342  10.966   4.820  -0.180  1.1505 -1.7484 -1.7855
  859MOL0     H13343  11.042   4.852  -0.329  1.6223  1.1725 -0.0625
  859MOL0     H13344  10.812   4.997  -0.297 -1.1398  1.1531  1.4515
  859MOL0     H13345  10.961   5.073  -0.360  0.6710 -0.6813  0.5038
  859MOL0     H13346  10.965   5.087  -0.076  1.1722  0.6421  0.2252
  859MOL0     H13347  10.973   5.222  -0.197 -1.8569  1.0572 -0.1061
  859MOL0     H13348  10.698   5.131  -0.151  1.4205 -2.3548  0.2052
  859MOL0     H13349  10.774   5.252  -0.253  0.4359 -0.0279  0.2530
  859MOL0     H13350  10.810   5.516   0.088 -0.4429  0.9699  0.7457
  859MOL0     H13351  10.694   5.723   0.060  4.1327 -1.7442  1.0096
  859MOL0     H13352  10.318   5.969  -0.072 -0.5173  1.5941  0.7655
  859MOL0     H13353  10.215   6.185  -0.148 -1.6859  2.9610 -3.8178
  859MOL0     H13354  10.261   6.452  -0.320 -1.4338  1.9611 -4.7288
  859MOL0     H13355  10.139   6.362  -0.222  0.5473  0.0142  0.5166
  859MOL0     H13356   9.972   6.405  -0.372 -0.8801 -1.0339 -2.7647
  859MOL0     H13357  10.067   6.485  -0.504 -2.4775  1.5179 -0.2675
  859MOL0     H13358  10.013   6.589  -0.223  0.3675 -1.2927  1.7814
  859MOL0     H13359   9.952   6.637  -0.385 -0.4840  0.4248  1.8602
  859MOL0     H13360  10.243   6.675  -0.284  0.7109  0.2798 -1.2762
  859MOL0     H13361  10.209   6.675  -0.451  2.9062  4.4574  0.5621
  859MOL0     H13362  10.062   6.872  -0.276 -2.1072 -1.4596 -1.4360
  859MOL0     H13363  10.077   6.866  -0.454 -2.6433  1.6620  1.8281
  859MOL0     H13364  10.323   6.896  -0.432 -0.9486  0.2245 -0.7281
  859MOL0     H13365  10.286   6.937  -0.257 -3.2747  2.3006  1.7229
  859MOL0     H13366  10.157   7.088  -0.505 -0.8976 -0.0219  1.1485
  859MOL0     H13367  10.144   7.129  -0.338 -1.0638 -2.9359  1.2041
  859MOL0     H13368  10.384   7.164  -0.328  2.3952  1.4198 -0.5983
  859MOL0     H13369  10.298   7.259  -0.456  0.1741  0.2168  2.4208
  859MOL0     H13370  10.279   6.070  -0.555 -0.0332  1.3655 -0.0329
  859MOL0     H13371  10.397   5.881  -0.490 -0.8381  0.5239 -1.1287
  859MOL0     H13372  10.453   5.556  -0.260  1.5563  1.4459 -0.7138
  859MOL0     H13373  10.562   5.339  -0.217 -1.1935 -1.1079  2.6705
  859MOL0     H13374  10.844   5.767   0.617  0.5522 -0.5417  1.3251
  859MOL0     H13375  10.871   5.738   0.846  2.2605 -1.8702  2.9354
  859MOL0     H13376  10.975   5.722   1.258 -1.0464 -1.2494  2.7260
  859MOL0     H13377  11.003   5.735   1.495  0.6928 -1.5389  1.8283
  859MOL0     H13378  11.077   5.858   1.631  0.6320  1.6994  0.2304
  859MOL0     H13379  11.206   5.895   1.736 -1.9261  2.8615 -4.3638
  859MOL0     H13380  11.002   5.788   1.861  0.3597  1.1866 -0.8416
  859MOL0     H13381  11.024   5.640   1.763  2.0845 -0.9825  0.3961
  859MOL0     H13382  11.251   5.589   1.854  0.6207 -0.2955  1.1489
  859MOL0     H13383  11.126   5.581   1.960  1.0307  1.4426  1.3719
  859MOL0     H13384  11.349   5.773   1.938  0.2688  2.0570  1.2041
  859MOL0     H13385  11.183   5.837   2.017 -3.6467 -1.6301  0.5924
  859MOL0     H13386  11.316   5.570   2.315  0.4575  1.0948  0.5184
  859MOL0     H13387  11.431   5.708   1.440 -0.4927 -1.7715  0.4304
  859MOL0     H13388  11.394   5.752   1.220  0.9110  1.1303  1.9749
  860MOL0     O13389   4.323   2.555   6.996 -0.1152  0.2254 -0.9666
  860MOL0     C13390   4.386   2.453   7.038 -0.0764 -0.6404 -0.3845
  860MOL0     O13391   4.427   2.349   6.965  0.4207 -0.2255 -0.9599
  860MOL0     C13392   4.380   2.341   6.835  0.4264  0.0410  0.0671
  860MOL0     C13393   4.247   2.327   6.793  0.1302 -0.1656  0.7409
  860MOL0     C13394   4.207   2.316   6.657  0.7919 -0.9350  0.5224
  860MOL0     C13395   4.292   2.348   6.555 -0.4846 -0.0953 -0.4494
  860MOL0     O13396   4.257   2.333   6.423  0.1397 -0.1660  0.4153
  860MOL0     C13397   4.172   2.435   6.358  0.3784  0.0378 -0.5327
  860MOL0     C13398   4.084   2.348   6.265  0.0897 -0.1246  0.5387
  860MOL0     C13399   3.994   2.235   6.320  0.3198 -0.1457 -0.2617
  860MOL0     C13400   3.918   2.259   6.446  0.1475  0.6345 -0.7371
  860MOL0     C13401   3.766   2.242   6.438 -0.4255 -0.3174 -0.1843
  860MOL0     C13402   3.705   2.300   6.569 -0.1436 -0.9236  0.2130
  860MOL0     C13403   3.563   2.248   6.592 -0.6351 -0.8153  0.2497
  860MOL0     C13404   3.486   2.329   6.698 -0.0197 -0.1823  0.5731
  860MOL0     N13405   3.342   2.295   6.693 -0.6335 -0.5131 -0.5698
  860MOL0     C13406   3.242   2.374   6.651  0.4084  0.3039 -0.2126
  860MOL0     C13407   3.130   2.311   6.676 -0.2006 -0.0783 -0.9632
  860MOL0     C13408   2.996   2.381   6.686  1.1215 -0.2523  0.2482
  860MOL0     C13409   2.930   2.399   6.557  0.0675  0.7261 -1.2670
  860MOL0     C13410   2.783   2.439   6.564 -0.3483  0.5176 -0.0927
  860MOL0     C13411   2.700   2.377   6.454 -0.8586  0.2702  1.4069
  860MOL0     O13412   2.741   2.418   6.315 -0.5582  0.1496 -0.6378
  860MOL0     C13413   2.715   2.542   6.272 -0.1292 -0.0799  0.6278
  860MOL0     C13414   2.760   2.593   6.146  0.4032  0.3050 -0.1942
  860MOL0     C13415   2.718   2.720   6.103 -1.3126 -0.1887 -0.8976
  860MOL0     C13416   2.645   2.810   6.185 -0.4838 -0.8856 -0.5249
  860MOL0     C13417   2.624   2.951   6.148 -0.0142  0.0514  0.8793
  860MOL0     O13418   2.522   3.011   6.213 -0.2406 -0.1803 -0.4249
  860MOL0     C13419   2.476   3.127   6.150 -0.3292  1.0897  0.3144
  860MOL0     C13420   2.447   3.143   6.020  0.7470  0.0457 -0.1395
  860MOL0     C13421   2.406   3.270   5.970  0.2831  0.0514  0.1691
  860MOL0     C13422   2.383   3.376   6.062  0.3580 -0.7842 -0.6032
  860MOL0     O13423   2.337   3.497   6.024  0.0997 -0.7387 -0.9124
  860MOL0     C13424   2.202   3.496   5.986 -0.3258  0.0612  0.1722
  860MOL0     C13425   2.153   3.638   5.956 -0.1499  0.0470  0.3296
  860MOL0     C13426   2.012   3.643   5.891  0.2318  0.3464 -0.3953
  860MOL0     C13427   1.912   3.558   5.967  0.3447 -0.0117  0.9441
  860MOL0     C13428   1.762   3.601   5.929 -0.1482 -0.3023  0.2600
  860MOL0     C13429   1.677   3.476   5.928 -0.5342 -0.0858 -1.2707
  860MOL0     C13430   1.524   3.520   5.952 -0.4539  0.0766  0.4491
  860MOL0     C13431   1.453   3.390   5.979  0.2434 -0.2973  1.3287
  860MOL0    Cl13432   1.499   3.348   6.146  0.3258  0.2924  0.0232
  860MOL0     C13433   2.405   3.353   6.202  0.2384 -0.3408 -0.7167
  860MOL0     C13434   2.450   3.227   6.238 -0.9059 -0.4626  0.0784
  860MOL0     O13435   2.708   2.998   6.074 -0.2761  1.1319  0.2387
  860MOL0     C13436   2.601   2.761   6.309  0.6045  0.1158 -0.4963
  860MOL0     C13437   2.633   2.631   6.348 -0.3026 -0.9613 -1.3755
  860MOL0     N13438   3.161   2.189   6.735 -0.5001 -0.4234 -0.9087
  860MOL0     N13439   3.289   2.178   6.743  0.0215  0.1185  0.2912
  860MOL0     C13440   4.429   2.346   6.593 -0.2877 -0.0939  0.3697
  860MOL0     C13441   4.470   2.338   6.732 -1.3602  0.2268  0.0225
  860MOL0     C13442   4.418   2.460   7.188  0.3898  0.7892  0.2010
  860MOL0     C13443   4.349   2.534   7.282 -0.0055 -0.7813 -0.4663
  860MOL0     C13444   4.391   2.553   7.417 -0.4249  0.3948 -0.9816
  860MOL0     C13445   4.504   2.484   7.457  0.0679 -0.5583  0.0797
  860MOL0     O13446   4.550   2.502   7.586 -0.5553 -0.0906  0.6994
  860MOL0     C13447   4.548   2.382   7.658 -0.2622  0.3437  0.5214
  860MOL0     C13448   4.696   2.359   7.710 -0.2222  0.1855  0.5428
  860MOL0     C13449   4.696   2.251   7.812 -0.0029  0.6806 -0.4617
  860MOL0     C13450   4.822   2.176   7.823 -0.1301  0.0935 -0.5902
  860MOL0     C13451   4.927   2.254   7.895 -0.7645  0.0049  0.6585
  860MOL0     C13452   5.024   2.320   7.944  0.1633 -0.3977  0.4995
  860MOL0     C13453   4.571   2.404   7.360 -0.3999  0.6651 -0.1538
  860MOL0     C13454   4.527   2.391   7.229 -0.0425  0.3066 -0.3527
  860MOL0     H13455   4.183   2.303   6.877  2.1972  0.2719  2.5374
  860MOL0     H13456   4.117   2.265   6.623  1.1026 -0.9618 -0.2666
  860MOL0     H13457   4.237   2.500   6.298  2.1888 -4.0607 -3.4550
  860MOL0     H13458   4.111   2.484   6.435  0.2187 -0.5914 -0.2528
  860MOL0     H13459   4.148   2.310   6.185  1.4467 -1.9296  2.3674
  860MOL0     H13460   4.012   2.412   6.214 -2.8364 -1.2121  2.9367
  860MOL0     H13461   4.065   2.153   6.339  0.6762  0.1343 -0.3769
  860MOL0     H13462   3.924   2.199   6.245  2.9896 -4.7940 -0.9388
  860MOL0     H13463   3.952   2.191   6.525  1.0200 -0.2856 -1.8607
  860MOL0     H13464   3.946   2.352   6.497 -0.3891 -2.6817  7.0966
  860MOL0     H13465   3.755   2.133   6.443  3.1043 -0.7587  3.4072
  860MOL0     H13466   3.728   2.288   6.346  2.1298 -1.1397 -1.7602
  860MOL0     H13467   3.707   2.409   6.573  0.3484 -0.9765  1.9081
  860MOL0     H13468   3.766   2.264   6.652  0.4119  2.0241  1.1927
  860MOL0     H13469   3.512   2.254   6.495  0.6541  1.5873 -0.3482
  860MOL0     H13470   3.563   2.139   6.602 -2.5736 -1.0340 -1.3873
  860MOL0     H13471   3.499   2.437   6.690  1.6288 -0.5070 -2.7429
  860MOL0     H13472   3.520   2.289   6.794 -0.2768 -2.8052 -0.3560
  860MOL0     H13473   3.265   2.471   6.608  5.8426 -2.1025 -3.7114
  860MOL0     H13474   2.989   2.478   6.736  0.1447 -0.8853  1.3759
  860MOL0     H13475   2.932   2.317   6.747  0.1921  0.5765  0.1540
  860MOL0     H13476   2.933   2.300   6.511 -1.5309 -0.0441  0.1817
  860MOL0     H13477   2.979   2.472   6.493 -0.2737 -0.1531 -2.5681
  860MOL0     H13478   2.734   2.411   6.657 -1.4482 -1.9730 -1.3526
  860MOL0     H13479   2.778   2.548   6.553  1.0536  0.4766 -1.6670
  860MOL0     H13480   2.594   2.400   6.462 -2.2896 -3.4092 -3.0070
  860MOL0     H13481   2.713   2.269   6.454  0.9230  0.3455 -2.3841
  860MOL0     H13482   2.826   2.536   6.081  2.7649  1.5036  1.0216
  860MOL0     H13483   2.767   2.756   6.013 -1.7839 -0.8619 -1.4280
  860MOL0     H13484   2.471   3.057   5.957 -0.4122 -0.4484  0.0764
  860MOL0     H13485   2.375   3.285   5.868  2.3795 -0.4583 -0.5889
  860MOL0     H13486   2.140   3.461   6.069 -0.7788  2.6744  1.0108
  860MOL0     H13487   2.193   3.440   5.892  1.5545  1.9549 -1.2371
  860MOL0     H13488   2.224   3.693   5.893  0.8322 -2.5554 -0.9423
  860MOL0     H13489   2.137   3.686   6.053  0.2325  1.7555 -0.3982
  860MOL0     H13490   2.009   3.601   5.790 -0.4565  2.4825 -1.3312
  860MOL0     H13491   1.972   3.745   5.890 -2.1378 -0.4425  1.9590
  860MOL0     H13492   1.945   3.456   5.944 -0.8910 -0.3352  0.5176
  860MOL0     H13493   1.918   3.559   6.076 -0.8094  1.8807  1.0386
  860MOL0     H13494   1.756   3.653   5.833 -1.0281  0.0419  0.4913
  860MOL0     H13495   1.728   3.682   5.994  5.0858  2.7496 -0.2151
  860MOL0     H13496   1.722   3.403   5.996 -0.3618  0.6458 -0.5919
  860MOL0     H13497   1.670   3.421   5.833 -1.2266 -0.1869 -1.1708
  860MOL0     H13498   1.503   3.602   6.021  0.1301 -0.6981  1.5837
  860MOL0     H13499   1.487   3.560   5.858  0.6662 -2.6436 -1.2595
  860MOL0     H13500   1.481   3.315   5.904 -1.4945  0.7275 -0.4406
  860MOL0     H13501   1.345   3.401   5.984  0.2854  0.9583  0.2810
  860MOL0     H13502   2.385   3.439   6.266  3.4101  0.0569 -0.1118
  860MOL0     H13503   2.478   3.209   6.342 -1.6137 -1.7173  0.0734
  860MOL0     H13504   2.542   2.818   6.380 -0.0705 -0.1350 -0.8554
  860MOL0     H13505   2.582   2.599   6.438 -1.9574  1.2780 -1.4281
  860MOL0     H13506   4.499   2.355   6.510 -1.8830 -0.7205 -1.0901
  860MOL0     H13507   4.576   2.343   6.753 -0.6853 -2.1304 -2.2074
  860MOL0     H13508   4.260   2.580   7.240 -0.1035  1.8058  2.2772
  860MOL0     H13509   4.335   2.624   7.476 -0.7775 -0.8407  0.2148
  860MOL0     H13510   4.523   2.292   7.601  1.3906  0.3962 -0.3558
  860MOL0     H13511   4.477   2.392   7.741  1.9270  0.6991  2.4582
  860MOL0     H13512   4.763   2.341   7.625 -0.0193 -1.5351  1.0342
  860MOL0     H13513   4.730   2.449   7.761 -0.5773  1.1697 -0.8944
  860MOL0     H13514   4.613   2.182   7.800  0.7129 -0.3649  0.4022
  860MOL0     H13515   4.694   2.301   7.909  1.7772  0.8995 -0.4990
  860MOL0     H13516   4.807   2.088   7.886 -2.6833 -0.2427 -1.5740
  860MOL0     H13517   4.852   2.142   7.723 -1.4957 -1.0723 -0.6216
  860MOL0     H13518   5.105   2.381   7.979  0.4785 -1.4863  1.7406
  860MOL0     H13519   4.664   2.353   7.382  0.3650  0.4879 -3.3123
  860MOL0     H13520   4.597   2.330   7.173 -0.2204 -0.9693  0.7782
  861MOL0     O13521   8.537   1.839  11.036  0.9418 -0.2261 -0.1525
  861MOL0     C13522   8.519   1.864  10.912  0.3886 -0.0832 -0.9704
  861MOL0     O13523   8.612   1.864  10.821 -0.5297  0.3793  0.6443
  861MOL0     C13524   8.749   1.850  10.842 -1.3998  1.1802 -0.3767
  861MOL0     C13525   8.835   1.957  10.791  0.4954  0.3598  0.2802
  861MOL0     C13526   8.974   1.963  10.816 -0.3181 -0.3459  0.3875
  861MOL0     C13527   9.029   1.860  10.891  0.4806 -0.9886 -0.5735
  861MOL0     O13528   9.157   1.875  10.941 -0.5637 -0.6045 -0.6432
  861MOL0     C13529   9.235   1.750  10.950  0.9852 -0.3181  0.7938
  861MOL0     C13530   9.327   1.736  10.836  0.1152 -0.8636 -0.3252
  861MOL0     C13531   9.271   1.738  10.686 -0.3775  0.9953 -0.2814
  861MOL0     C13532   9.174   1.637  10.662 -0.3766 -0.6809 -0.0577
  861MOL0     C13533   9.213   1.491  10.682  0.2415 -0.1463 -0.2168
  861MOL0     C13534   9.323   1.448  10.583 -0.7351  0.0831 -0.1631
  861MOL0     C13535   9.385   1.314  10.630 -0.2233  0.0586  0.7026
  861MOL0     C13536   9.524   1.327  10.694 -0.2223  0.6661 -0.2004
  861MOL0     N13537   9.577   1.195  10.724  0.0723 -0.4634 -0.2296
  861MOL0     C13538   9.555   1.084  10.648  0.3176 -0.3714  0.6911
  861MOL0     C13539   9.568   0.978  10.728 -0.3947  0.0342  0.3022
  861MOL0     C13540   9.567   0.840  10.669 -0.1274 -0.0128  0.0703
  861MOL0     C13541   9.624   0.730  10.749 -0.5631  0.3143 -0.2320
  861MOL0     C13542   9.628   0.598  10.661  0.2740 -0.4118 -0.4168
  861MOL0     C13543   9.679   0.476  10.744  0.0144 -0.8182 -0.4636
  861MOL0     O13544   9.805   0.502  10.809  0.1661  0.7443 -0.3817
  861MOL0     C13545   9.913   0.534  10.740 -0.3065  0.4009  0.1064
  861MOL0     C13546   9.938   0.495  10.612  0.6900  0.2345  0.6669
  861MOL0     C13547  10.051   0.534  10.547  0.1311  0.1013 -0.5590
  861MOL0     C13548  10.150   0.612  10.605 -0.1206  0.4075 -0.8668
  861MOL0     C13549  10.264   0.661  10.529 -0.9520  0.4555 -0.9218
  861MOL0     O13550  10.349   0.740  10.598 -0.0683 -0.8260 -0.0732
  861MOL0     C13551  10.411   0.846  10.542  0.1304  0.4730  0.8110
  861MOL0     C13552  10.502   0.908  10.626 -0.3558  0.3645  0.0869
  861MOL0     C13553  10.584   1.012  10.575 -0.9592  0.4866 -0.3719
  861MOL0     C13554  10.574   1.055  10.438  1.1153  1.5150  0.3840
  861MOL0     O13555  10.672   1.125  10.374  0.6475 -0.4453  0.1701
  861MOL0     C13556  10.786   1.175  10.451  0.7701 -0.0902 -0.1997
  861MOL0     C13557  10.903   1.212  10.369  0.0272 -0.9519  0.2336
  861MOL0     C13558  11.025   1.128  10.377 -0.4039 -0.1545 -0.9158
  861MOL0     C13559  11.077   1.097  10.519  0.0059 -0.5775 -0.0914
  861MOL0     C13560  11.222   1.077  10.518  0.5091  0.2870 -0.6344
  861MOL0     C13561  11.266   1.030  10.658 -0.2010  0.0704  0.3738
  861MOL0     C13562  11.421   0.992  10.632  0.0743  0.3825  0.2894
  861MOL0     C13563  11.461   0.848  10.677 -0.7322  0.4233 -0.1247
  861MOL0    Cl13564  11.380   0.771  10.809 -0.3377  0.3965  0.2323
  861MOL0     C13565  10.486   0.984  10.355  0.0695  0.0064 -0.4980
  861MOL0     C13566  10.402   0.883  10.399  0.0517  0.6905 -0.3497
  861MOL0     O13567  10.270   0.616  10.416 -0.2949  0.2971 -0.4837
  861MOL0     C13568  10.136   0.642  10.747  0.1786 -1.1329  0.6301
  861MOL0     C13569  10.011   0.603  10.813 -0.9484  0.5124  0.6257
  861MOL0     N13570   9.578   1.027  10.859  0.2825 -0.3507 -0.5661
  861MOL0     N13571   9.588   1.155  10.848 -0.0668 -1.2330 -0.1437
  861MOL0     C13572   8.944   1.761  10.941  0.1113  0.4717 -0.7727
  861MOL0     C13573   8.804   1.758  10.922  0.3848 -0.1743 -0.4781
  861MOL0     C13574   8.381   1.896  10.872 -0.0712  0.8112 -0.3491
  861MOL0     C13575   8.360   1.947  10.741  0.5788 -0.8723 -1.0617
  861MOL0     C13576   8.235   1.991  10.709  0.4985 -1.2567  0.4945
  861MOL0     C13577   8.120   1.989  10.791  0.1519  0.7371  0.5568
  861MOL0     O13578   7.995   2.049  10.768  0.7543  0.8667  0.2533
  861MOL0     C13579   7.966   2.086  10.634  1.5497  0.4193  0.0503
  861MOL0     C13580   8.009   2.217  10.599 -0.6643 -0.6169 -0.7928
  861MOL0     C13581   8.033   2.245  10.443 -0.0344  0.4129 -0.2552
  861MOL0     C13582   8.014   2.396  10.400 -0.1830 -1.0454  0.7124
  861MOL0     C13583   7.902   2.475  10.449  0.1887 -0.3818  0.2469
  861MOL0     C13584   7.805   2.532  10.488  1.8239  0.7585  0.0856
  861MOL0     C13585   8.139   1.927  10.910  0.4247 -0.8344  0.6655
  861MOL0     C13586   8.268   1.896  10.960  0.6031  0.3181 -0.4625
  861MOL0     H13587   8.781   2.038  10.743  0.6694  1.7777  2.3306
  861MOL0     H13588   9.045   2.038  10.780  1.4517 -1.5831  1.1455
  861MOL0     H13589   9.181   1.654  10.952 -1.7027  1.0331 -1.2832
  861MOL0     H13590   9.285   1.766  11.046 -4.0098  5.6760  3.0651
  861MOL0     H13591   9.382   1.642  10.847  0.7673 -0.4781 -0.2032
  861MOL0     H13592   9.397   1.821  10.833  1.5553 -1.9738  0.4274
  861MOL0     H13593   9.354   1.731  10.615 -2.5456 -2.2693 -2.7744
  861MOL0     H13594   9.224   1.832  10.655  1.3859  1.7309 -0.8293
  861MOL0     H13595   9.081   1.669  10.710 -0.4486 -0.6416 -0.2247
  861MOL0     H13596   9.169   1.648  10.554  3.0688 -3.0274 -0.6125
  861MOL0     H13597   9.112   1.449  10.672 -1.6920  3.5021  1.7292
  861MOL0     H13598   9.237   1.471  10.787  2.6029  0.1102 -0.6453
  861MOL0     H13599   9.412   1.511  10.593  2.5366 -4.1937  0.8602
  861MOL0     H13600   9.289   1.438  10.480 -2.0990 -0.0087  0.2852
  861MOL0     H13601   9.328   1.263  10.708  2.7872 -1.8584  1.8351
  861MOL0     H13602   9.398   1.254  10.539  3.8949 -0.5275  1.4681
  861MOL0     H13603   9.494   1.378  10.786 -1.7891 -0.1805 -0.2025
  861MOL0     H13604   9.593   1.382  10.630  2.1486 -3.6821 -1.7386
  861MOL0     H13605   9.542   1.071  10.541 -1.5038 -2.0096  1.0748
  861MOL0     H13606   9.630   0.858  10.582 -1.0482  2.0378 -0.2362
  861MOL0     H13607   9.463   0.816  10.645 -0.3294  0.7747  0.1062
  861MOL0     H13608   9.565   0.707  10.838  1.1022 -3.1403  0.1689
  861MOL0     H13609   9.721   0.767  10.783 -1.3996  2.7773 -0.3471
  861MOL0     H13610   9.523   0.574  10.643 -1.1674  2.8808  2.4265
  861MOL0     H13611   9.686   0.613  10.569 -1.7878 -0.8884 -1.8754
  861MOL0     H13612   9.684   0.398  10.668  0.3357  0.8127 -2.1929
  861MOL0     H13613   9.604   0.450  10.820  1.5207  1.4982  1.9950
  861MOL0     H13614   9.861   0.432  10.568 -0.5725  2.1804 -0.0509
  861MOL0     H13615  10.070   0.501  10.446  1.9202 -1.3895  0.1844
  861MOL0     H13616  10.496   0.895  10.733  3.1941 -0.0443  0.3743
  861MOL0     H13617  10.644   1.065  10.648 -0.2964 -0.6182 -0.0903
  861MOL0     H13618  10.809   1.114  10.538 -1.5997 -1.6829 -0.5938
  861MOL0     H13619  10.745   1.268  10.493 -0.7613 -0.4916 -0.7340
  861MOL0     H13620  10.918   1.313  10.410 -1.3756 -1.4733  2.1887
  861MOL0     H13621  10.877   1.228  10.264  0.1833  0.0118  0.3250
  861MOL0     H13622  11.106   1.179  10.326  1.6558 -1.0136  1.3183
  861MOL0     H13623  11.006   1.032  10.327 -2.4323 -0.5889  0.5343
  861MOL0     H13624  11.047   1.173  10.592  2.8460  1.3155 -0.7344
  861MOL0     H13625  11.023   1.007  10.551 -0.3227 -0.0753  0.8286
  861MOL0     H13626  11.269   1.175  10.505 -1.1712  1.0852 -0.9623
  861MOL0     H13627  11.257   1.018  10.433  0.7143  3.8844 -3.2863
  861MOL0     H13628  11.211   0.940  10.685 -0.2235 -0.4881 -1.4140
  861MOL0     H13629  11.265   1.104  10.739  0.6201 -0.4153  0.8435
  861MOL0     H13630  11.442   0.996  10.525  2.5808 -1.6157  0.6351
  861MOL0     H13631  11.484   1.070  10.676  0.8782  0.2755 -0.6459
  861MOL0     H13632  11.568   0.850  10.702  0.2226 -1.0427 -3.4681
  861MOL0     H13633  11.444   0.792  10.584  1.4961 -1.5185  0.5270
  861MOL0     H13634  10.474   1.022  10.254 -1.3892  0.0945 -0.3102
  861MOL0     H13635  10.321   0.853  10.333  0.1005  1.0468 -0.5789
  861MOL0     H13636  10.215   0.703  10.791  1.4780 -0.0594 -2.8575
  861MOL0     H13637  10.008   0.635  10.917  0.2804 -2.8806  1.8423
  861MOL0     H13638   8.982   1.675  10.995 -0.9001  0.6868  0.3253
  861MOL0     H13639   8.738   1.684  10.964  0.0383  0.5273  0.2374
  861MOL0     H13640   8.431   1.969  10.663  1.5743 -1.7616 -0.4353
  861MOL0     H13641   8.211   2.024  10.609  2.3119  0.5819  0.6068
  861MOL0     H13642   7.858   2.085  10.619  1.4430  3.9983 -0.3847
  861MOL0     H13643   8.001   2.013  10.561 -0.2552 -0.2445 -0.2088
  861MOL0     H13644   7.924   2.276  10.635  0.9162 -1.0405  4.4933
  861MOL0     H13645   8.091   2.246  10.666 -0.0931 -3.7375  0.0534
  861MOL0     H13646   7.963   2.182  10.389  0.3420  1.3293 -1.8932
  861MOL0     H13647   8.137   2.221  10.418 -1.1005 -3.2239 -1.7635
  861MOL0     H13648   8.107   2.443  10.434 -0.9263  0.8722  0.2371
  861MOL0     H13649   8.021   2.396  10.291 -0.8241  0.9356  0.6385
  861MOL0     H13650   7.712   2.573  10.521  0.8576  2.5121 -4.1763
  861MOL0     H13651   8.058   1.916  10.983 -0.5362  0.3214 -0.1795
  861MOL0     H13652   8.273   1.856  11.061 -2.4474 -0.8808 -0.6957
  862MOL0     O13653   5.188   4.023  10.816  0.4071  0.5781 -0.3094
  862MOL0     C13654   5.068   3.986  10.828  0.2133  0.1547 -0.1744
  862MOL0     O13655   4.969   4.045  10.895 -0.0649 -0.7217 -0.0526
  862MOL0     C13656   4.987   4.170  10.955 -0.2311 -0.2921 -0.0387
  862MOL0     C13657   4.952   4.183  11.097  0.0975 -0.8878 -0.7188
  862MOL0     C13658   4.961   4.310  11.155 -0.5594 -0.6784  1.2273
  862MOL0     C13659   5.013   4.410  11.081 -0.1968 -0.3934  0.3092
  862MOL0     O13660   5.013   4.539  11.126  0.3368 -0.8346 -0.0129
  862MOL0     C13661   4.916   4.583  11.229  0.1039  0.2147 -0.0577
  862MOL0     C13662   4.852   4.701  11.174  0.4358 -0.4615  0.0129
  862MOL0     C13663   4.734   4.753  11.264  0.4158 -0.0206  0.0888
  862MOL0     C13664   4.679   4.879  11.215  0.3016  0.5988  0.0587
  862MOL0     C13665   4.529   4.890  11.255  0.0050 -0.1361  0.0247
  862MOL0     C13666   4.478   4.879  11.395  0.0620 -0.3686  0.5089
  862MOL0     C13667   4.322   4.901  11.409  0.3880 -0.1161  0.6162
  862MOL0     C13668   4.294   5.010  11.515 -0.2424 -0.4219  0.1056
  862MOL0     N13669   4.336   5.134  11.455 -0.0178 -0.5543  0.0160
  862MOL0     C13670   4.254   5.181  11.346 -0.7143 -0.4044  0.1817
  862MOL0     C13671   4.305   5.307  11.313  0.2069 -0.8421  0.6384
  862MOL0     C13672   4.243   5.418  11.220 -0.9579  1.0723 -0.2574
  862MOL0     C13673   4.249   5.553  11.299 -0.2629 -0.1369 -0.2965
  862MOL0     C13674   4.134   5.650  11.268 -0.2902  0.4741 -0.5545
  862MOL0     C13675   4.131   5.778  11.352 -0.6599  0.3790  0.6430
  862MOL0     O13676   3.994   5.817  11.344  0.8797  0.2477  0.0966
  862MOL0     C13677   3.957   5.927  11.422 -0.4264 -0.2655 -0.1260
  862MOL0     C13678   4.052   6.001  11.491 -0.1199  1.4326 -0.2614
  862MOL0     C13679   4.009   6.103  11.562 -0.3070  0.0302  0.1278
  862MOL0     C13680   3.874   6.146  11.561  0.2122 -1.0876  1.6676
  862MOL0     C13681   3.836   6.262  11.643  0.2330 -0.6713  0.9273
  862MOL0     O13682   3.934   6.349  11.676 -0.4099 -0.1120 -0.5230
  862MOL0     C13683   3.916   6.423  11.791  0.2307  0.0291 -0.1370
  862MOL0     C13684   3.851   6.368  11.903 -0.4558 -0.1582  0.3291
  862MOL0     C13685   3.843   6.423  12.027 -0.1359 -0.5024 -0.0354
  862MOL0     C13686   3.903   6.553  12.045 -0.0157  0.1737  1.0938
  862MOL0     O13687   3.886   6.609  12.168  0.4377  0.0216 -0.0439
  862MOL0     C13688   3.917   6.748  12.189  0.4460 -0.1775 -1.3324
  862MOL0     C13689   3.904   6.804  12.337  0.0273  0.6802 -0.5703
  862MOL0     C13690   3.931   6.692  12.437 -0.1095  0.1839  0.8830
  862MOL0     C13691   3.934   6.737  12.580  0.6237  0.5897  0.0964
  862MOL0     C13692   3.949   6.617  12.676  0.6834  0.9098 -0.0285
  862MOL0     C13693   3.958   6.648  12.820 -0.1069 -0.4699 -0.4033
  862MOL0     C13694   3.969   6.539  12.926 -0.2917 -0.6084  0.2659
  862MOL0     C13695   3.858   6.435  12.927  0.8330  0.1940  0.2440
  862MOL0    Cl13696   3.712   6.525  12.981 -0.4297 -0.3093  0.2085
  862MOL0     C13697   3.978   6.615  11.935  0.5731  0.2622 -0.5139
  862MOL0     C13698   3.982   6.543  11.816  0.0462  0.9182 -0.2848
  862MOL0     O13699   3.721   6.271  11.677  0.8089  0.0543 -0.0735
  862MOL0     C13700   3.786   6.082  11.465 -0.1444 -0.7543  0.3684
  862MOL0     C13701   3.825   5.972  11.400  0.7753  0.0700 -0.7149
  862MOL0     N13702   4.408   5.332  11.398  0.1417 -0.2627 -0.5849
  862MOL0     N13703   4.421   5.237  11.489 -0.4849 -1.0026  0.4024
  862MOL0     C13704   5.056   4.393  10.946 -0.0149  0.3770 -0.5446
  862MOL0     C13705   5.038   4.275  10.878  0.2887 -0.6767  0.0990
  862MOL0     C13706   5.041   3.866  10.741 -0.1877 -0.3113  0.3523
  862MOL0     C13707   5.150   3.804  10.667 -0.8059  0.4834  0.0930
  862MOL0     C13708   5.113   3.719  10.555  0.3360  0.0232 -0.3181
  862MOL0     C13709   4.988   3.659  10.555  0.7392 -0.4844 -0.0645
  862MOL0     O13710   4.950   3.553  10.476 -0.0568 -0.2726  0.3786
  862MOL0     C13711   5.011   3.524  10.354  0.5780 -0.3810  0.5519
  862MOL0     C13712   4.924   3.567  10.236 -0.8246 -0.1760 -0.8608
  862MOL0     C13713   5.009   3.625  10.121  0.1350 -0.3789  0.5393
  862MOL0     C13714   4.941   3.620   9.988 -0.2706 -0.4834  0.8688
  862MOL0     C13715   4.808   3.669   9.966  0.1359 -0.4970 -0.8128
  862MOL0     C13716   4.696   3.701   9.955  0.3347 -0.7477  0.5300
  862MOL0     C13717   4.894   3.688  10.656  0.3078  0.3864  0.1311
  862MOL0     C13718   4.918   3.796  10.739 -0.3379 -0.4417  0.0862
  862MOL0     H13719   4.925   4.103  11.164 -0.8779  0.5603  0.6873
  862MOL0     H13720   4.926   4.321  11.257 -1.5432  1.5055  0.7061
  862MOL0     H13721   4.968   4.595  11.324 -0.5821 -2.2769  0.6926
  862MOL0     H13722   4.831   4.515  11.241 -0.9155  0.9687 -2.4084
  862MOL0     H13723   4.813   4.676  11.075  0.4222  1.7979 -0.6050
  862MOL0     H13724   4.924   4.783  11.171  0.8871 -0.5654  3.5335
  862MOL0     H13725   4.775   4.766  11.365 -1.4921  1.4214  0.7205
  862MOL0     H13726   4.651   4.682  11.274  1.1859 -0.9248  0.2580
  862MOL0     H13727   4.734   4.961  11.261 -0.2211  1.5780 -1.0097
  862MOL0     H13728   4.683   4.884  11.106 -0.9791  1.1070  0.0152
  862MOL0     H13729   4.483   4.803  11.208 -0.0164 -0.3777  0.4889
  862MOL0     H13730   4.486   4.977  11.204  3.3307  1.2443 -0.7078
  862MOL0     H13731   4.534   4.940  11.467  0.2523 -0.0196  0.0701
  862MOL0     H13732   4.484   4.774  11.425  0.3265 -0.1224  1.3413
  862MOL0     H13733   4.276   4.924  11.313 -3.7103 -2.1069  1.8759
  862MOL0     H13734   4.269   4.811  11.442 -0.2970 -1.7590 -4.2096
  862MOL0     H13735   4.349   5.002  11.609  2.3337 -1.7376 -1.4051
  862MOL0     H13736   4.187   5.016  11.538 -0.5968  2.7837 -1.8968
  862MOL0     H13737   4.160   5.142  11.307 -2.1769  1.5490  1.5776
  862MOL0     H13738   4.145   5.387  11.183  0.2400  1.7150 -4.4212
  862MOL0     H13739   4.302   5.412  11.128  1.1695 -0.8152  1.1128
  862MOL0     H13740   4.337   5.617  11.288 -0.1759 -0.4816 -1.7408
  862MOL0     H13741   4.250   5.524  11.405 -2.0377 -2.2321 -0.7820
  862MOL0     H13742   4.156   5.674  11.164  2.5726  0.9686  0.0768
  862MOL0     H13743   4.040   5.598  11.290 -2.1260  4.0749  1.0400
  862MOL0     H13744   4.191   5.859  11.309 -2.5805  0.7119 -1.6581
  862MOL0     H13745   4.167   5.752  11.452  2.5550 -1.0682 -0.7210
  862MOL0     H13746   4.158   5.979  11.493 -0.5815 -1.9040 -2.8945
  862MOL0     H13747   4.092   6.147  11.617  2.8761 -2.2201 -2.5398
  862MOL0     H13748   3.821   6.264  11.897  1.6225 -0.6824 -2.6320
  862MOL0     H13749   3.794   6.376  12.111  0.4747  0.8254  1.0983
  862MOL0     H13750   3.859   6.818  12.128  1.8751  3.4923  1.1312
  862MOL0     H13751   4.020   6.764  12.158  0.6071  2.3441  0.2229
  862MOL0     H13752   3.800   6.834  12.351 -0.7456 -2.8970  3.3529
  862MOL0     H13753   3.975   6.883  12.364  0.2817 -0.1788  1.3835
  862MOL0     H13754   4.026   6.649  12.404 -1.6796 -2.4578 -0.5111
  862MOL0     H13755   3.857   6.612  12.427 -0.7973  1.0990 -2.3436
  862MOL0     H13756   4.023   6.797  12.601  3.2782 -2.4454 -1.6677
  862MOL0     H13757   3.833   6.779  12.593  0.3867  0.7339 -1.9473
  862MOL0     H13758   4.045   6.572  12.651 -0.8921 -4.1030  1.7389
  862MOL0     H13759   3.875   6.539  12.656  3.2125 -1.2045 -1.7812
  862MOL0     H13760   3.878   6.721  12.833 -0.2426 -1.0691  2.7596
  862MOL0     H13761   4.050   6.706  12.828 -0.3947 -0.0586 -0.0782
  862MOL0     H13762   4.049   6.470  12.898 -0.4611  0.0098 -1.9015
  862MOL0     H13763   3.987   6.578  13.027  0.2537  0.7172 -0.3182
  862MOL0     H13764   3.899   6.358  12.993  1.3161  1.7392  1.8054
  862MOL0     H13765   3.835   6.397  12.827  0.0052 -0.2044  0.5741
  862MOL0     H13766   4.036   6.707  11.938 -1.0354  1.3014 -0.5061
  862MOL0     H13767   4.046   6.561  11.730  0.4180 -0.4930 -0.3383
  862MOL0     H13768   3.690   6.127  11.445  0.3689 -0.8149 -2.7133
  862MOL0     H13769   3.750   5.914  11.349  0.0578 -0.1868  0.5797
  862MOL0     H13770   5.080   4.475  10.880  1.2834 -0.2601 -0.8955
  862MOL0     H13771   5.077   4.266  10.777  0.5879 -0.8905  0.2324
  862MOL0     H13772   5.253   3.835  10.679 -0.6375 -0.1048  0.1757
  862MOL0     H13773   5.193   3.665  10.505 -1.3657 -3.5746  0.5500
  862MOL0     H13774   5.024   3.417  10.333  2.3888  0.1245 -1.3991
  862MOL0     H13775   5.115   3.555  10.339  0.6492 -1.7601 -2.7069
  862MOL0     H13776   4.868   3.480  10.202  2.3938 -2.0567 -1.7572
  862MOL0     H13777   4.868   3.646  10.287  2.1243  0.2483  2.0898
  862MOL0     H13778   5.096   3.559  10.124  1.2421  0.9025 -1.0220
  862MOL0     H13779   5.053   3.722  10.147 -0.6211 -0.1535  0.9852
  862MOL0     H13780   5.012   3.667   9.919 -2.1242  1.1298 -0.0240
  862MOL0     H13781   4.942   3.514   9.960 -0.7449 -0.1412 -0.4985
  862MOL0     H13782   4.599   3.737   9.927  0.5991 -0.7102 -0.3570
  862MOL0     H13783   4.790   3.659  10.664 -1.7045  5.6421 -2.2758
  862MOL0     H13784   4.840   3.829  10.807  0.6115  1.1368  0.4653
  863MOL0     O13785   3.198   3.137  10.648  0.0433 -0.2411 -0.5196
  863MOL0     C13786   3.273   3.047  10.667 -0.5170  0.1588  0.1812
  863MOL0     O13787   3.238   2.930  10.733 -0.0278  0.3761  0.6826
  863MOL0     C13788   3.119   2.914  10.799  0.7137 -0.2784  0.1922
  863MOL0     C13789   3.007   2.999  10.807  0.3864  0.4061 -0.3189
  863MOL0     C13790   2.897   2.960  10.876  0.4530 -0.0223 -0.3027
  863MOL0     C13791   2.899   2.841  10.958  0.0399 -0.5820  0.0168
  863MOL0     O13792   2.789   2.818  11.044 -0.2951 -0.4530  0.1275
  863MOL0     C13793   2.800   2.733  11.157 -0.2366 -0.0239 -0.4706
  863MOL0     C13794   2.683   2.643  11.160 -0.0385 -0.5096  0.0628
  863MOL0     C13795   2.684   2.542  11.048  0.4503 -0.3386  0.2250
  863MOL0     C13796   2.564   2.440  11.061  0.9354 -0.5935  0.2099
  863MOL0     C13797   2.548   2.350  10.933  0.7149 -0.0077 -0.5294
  863MOL0     C13798   2.666   2.268  10.897 -0.3311  0.1923 -1.7343
  863MOL0     C13799   2.632   2.168  10.781 -0.6578 -0.0141  0.6599
  863MOL0     C13800   2.760   2.109  10.713 -0.3561  0.2702 -0.4524
  863MOL0     N13801   2.740   1.974  10.672 -0.0552  0.5736  0.5597
  863MOL0     C13802   2.739   1.856  10.748  0.2925 -0.0145 -0.3884
  863MOL0     C13803   2.725   1.749  10.664 -0.2812 -0.2224  0.2431
  863MOL0     C13804   2.735   1.601  10.692  0.0929 -1.4913 -0.4543
  863MOL0     C13805   2.878   1.554  10.721  0.1350  0.1392 -0.4030
  863MOL0     C13806   2.894   1.412  10.768  0.2416  1.3614  0.1309
  863MOL0     C13807   2.828   1.383  10.907  0.1142  0.2230 -0.2747
  863MOL0     O13808   2.863   1.486  11.007  0.0303 -0.3420  0.6288
  863MOL0     C13809   2.819   1.475  11.134  0.8499  0.7542  0.5039
  863MOL0     C13810   2.712   1.401  11.188  0.2177  0.0712  0.0548
  863MOL0     C13811   2.675   1.420  11.329 -0.0631  1.1101  0.6769
  863MOL0     C13812   2.745   1.514  11.415  0.3310  0.4539  0.4474
  863MOL0     C13813   2.703   1.533  11.553 -0.2492  0.6297  0.8337
  863MOL0     O13814   2.758   1.632  11.621  0.2862  0.1210 -0.4430
  863MOL0     C13815   2.688   1.682  11.729  0.0504 -0.1378  0.0462
  863MOL0     C13816   2.544   1.711  11.725  0.8514 -0.5541 -0.0863
  863MOL0     C13817   2.471   1.772  11.836  0.0461 -0.4070 -0.2217
  863MOL0     C13818   2.537   1.801  11.956  0.4254 -0.1588  0.3935
  863MOL0     O13819   2.471   1.825  12.076 -0.1410  0.3572  0.7405
  863MOL0     C13820   2.327   1.853  12.073 -0.2276  0.2661 -0.6658
  863MOL0     C13821   2.275   1.879  12.214 -0.5790  0.3407  0.1513
  863MOL0     C13822   2.281   2.030  12.242 -0.2734 -0.4503 -0.2889
  863MOL0     C13823   2.262   2.058  12.390 -0.4948 -0.4592 -0.1784
  863MOL0     C13824   2.291   2.204  12.420 -0.6437 -0.1882 -0.5439
  863MOL0     C13825   2.437   2.246  12.429 -0.1012 -0.5717 -0.0766
  863MOL0     C13826   2.433   2.398  12.456 -0.5659 -0.3351  0.1249
  863MOL0     C13827   2.573   2.464  12.477  0.1106  0.5771 -0.3339
  863MOL0    Cl13828   2.558   2.627  12.525  0.4869  0.0069  0.2028
  863MOL0     C13829   2.676   1.775  11.958  0.0323 -0.3002 -0.8674
  863MOL0     C13830   2.745   1.728  11.845  0.5089  1.0123 -0.6863
  863MOL0     O13831   2.619   1.459  11.593 -0.0400 -0.1205  0.8447
  863MOL0     C13832   2.844   1.585  11.358 -0.5285  0.4215 -0.5841
  863MOL0     C13833   2.873   1.567  11.221  0.3492  0.0596  0.4271
  863MOL0     N13834   2.729   1.809  10.535  0.8100 -0.0636 -0.2462
  863MOL0     N13835   2.742   1.935  10.544 -0.0361  0.4437 -0.7926
  863MOL0     C13836   3.019   2.773  10.969 -0.6236 -0.0100  0.2482
  863MOL0     C13837   3.125   2.808  10.889 -0.1485  0.7373 -0.8113
  863MOL0     C13838   3.407   3.062  10.608 -0.7447 -0.0951 -0.1472
  863MOL0     C13839   3.496   2.954  10.611 -0.9931 -0.0595  1.2141
  863MOL0     C13840   3.618   2.972  10.548 -1.2026  0.1934 -0.4744
  863MOL0     C13841   3.656   3.087  10.487 -0.1160  0.3536 -0.3486
  863MOL0     O13842   3.774   3.102  10.418 -0.0249  0.1525 -0.2624
  863MOL0     C13843   3.827   2.993  10.337  0.9295 -0.9657 -0.9738
  863MOL0     C13844   3.910   3.049  10.230  0.7678 -0.6353  0.9562
  863MOL0     C13845   3.822   3.127  10.127 -0.4509 -0.1542 -0.7125
  863MOL0     C13846   3.800   3.280  10.153  0.2777  0.1744 -0.4580
  863MOL0     C13847   3.691   3.346  10.083 -0.0001 -0.3835 -0.7336
  863MOL0     C13848   3.611   3.416  10.020 -0.6803 -0.2301  0.0646
  863MOL0     C13849   3.573   3.191  10.477  0.4167  0.6818  1.0590
  863MOL0     C13850   3.448   3.181  10.542  0.8950  0.6532  0.3246
  863MOL0     H13851   3.009   3.095  10.758  2.2125 -0.1486 -1.4004
  863MOL0     H13852   2.808   3.021  10.869  3.1258  4.0754 -2.5257
  863MOL0     H13853   2.798   2.801  11.243 -1.3774 -0.5376 -0.0737
  863MOL0     H13854   2.897   2.687  11.174  0.3600  1.7718  1.4222
  863MOL0     H13855   2.593   2.706  11.165  0.3868  0.0925  0.2296
  863MOL0     H13856   2.691   2.584  11.252  2.1348  2.8260  2.2524
  863MOL0     H13857   2.783   2.498  11.064 -0.3016 -1.9998  0.4705
  863MOL0     H13858   2.672   2.575  10.945 -3.1173 -4.4276 -0.9394
  863MOL0     H13859   2.585   2.369  11.142  1.2794 -2.0096 -1.0634
  863MOL0     H13860   2.477   2.501  11.086 -0.0673 -2.0227  0.3450
  863MOL0     H13861   2.506   2.414  10.854 -0.2595  1.8076  1.3702
  863MOL0     H13862   2.469   2.275  10.940 -0.4399  1.0809 -1.4027
  863MOL0     H13863   2.690   2.220  10.992 -1.6957  0.6500 -1.1380
  863MOL0     H13864   2.752   2.332  10.870 -0.4530  1.0534 -0.1724
  863MOL0     H13865   2.577   2.089  10.832 -0.3091  0.2379  1.4448
  863MOL0     H13866   2.565   2.210  10.706 -1.9179 -0.0989  1.7112
  863MOL0     H13867   2.834   2.106  10.793 -0.4991 -0.9960 -0.3566
  863MOL0     H13868   2.805   2.178  10.641 -1.9249  2.2727  0.3660
  863MOL0     H13869   2.765   1.838  10.851  2.5100 -0.8333 -1.0251
  863MOL0     H13870   2.695   1.535  10.614 -2.0777  0.4747 -1.1088
  863MOL0     H13871   2.664   1.582  10.773  0.4276 -0.8046  0.0052
  863MOL0     H13872   2.916   1.620  10.799 -2.5328 -0.6132  1.6847
  863MOL0     H13873   2.942   1.554  10.632 -2.5562 -1.5104 -2.5081
  863MOL0     H13874   2.848   1.350  10.691 -0.3441  1.1810  0.6127
  863MOL0     H13875   2.998   1.378  10.775 -1.1027 -3.3339  0.1129
  863MOL0     H13876   2.878   1.289  10.935 -1.3520 -2.4959 -5.4591
  863MOL0     H13877   2.720   1.373  10.895 -0.1877  2.0745  0.4585
  863MOL0     H13878   2.665   1.318  11.135  1.5715 -1.0179  0.4979
  863MOL0     H13879   2.585   1.364  11.353 -1.4345  2.0703 -1.8577
  863MOL0     H13880   2.484   1.696  11.637 -0.0484  0.0384  0.4137
  863MOL0     H13881   2.365   1.779  11.814 -0.0863  1.9020  0.8992
  863MOL0     H13882   2.282   1.756  12.050 -0.4658 -0.1284  1.2522
  863MOL0     H13883   2.304   1.929  11.999 -2.6644  1.3868  1.0948
  863MOL0     H13884   2.341   1.818  12.276 -2.5916 -0.2656  1.8343
  863MOL0     H13885   2.173   1.840  12.225 -0.8761  0.9351 -0.4085
  863MOL0     H13886   2.208   2.077  12.175 -0.0261 -0.1204 -0.3325
  863MOL0     H13887   2.380   2.069  12.218  0.2918 -0.9162  1.2271
  863MOL0     H13888   2.157   2.037  12.414  0.0935 -2.3005  0.9343
  863MOL0     H13889   2.330   1.986  12.437 -0.6936  0.8842  2.3320
  863MOL0     H13890   2.240   2.239  12.511  0.2346  1.8579 -0.7749
  863MOL0     H13891   2.247   2.250  12.331  0.0186 -4.1893 -3.1596
  863MOL0     H13892   2.491   2.227  12.336  2.3067 -0.7302  1.2690
  863MOL0     H13893   2.487   2.191  12.510  1.7723  2.5157  1.0242
  863MOL0     H13894   2.369   2.447  12.382  1.1510  0.3441 -0.9538
  863MOL0     H13895   2.379   2.394  12.551  0.0781 -0.8608  0.4765
  863MOL0     H13896   2.648   2.455  12.398  2.8690  5.3288  1.3554
  863MOL0     H13897   2.629   2.416  12.558 -0.7801  0.1384  0.0391
  863MOL0     H13898   2.744   1.804  12.037  1.2246  0.9473 -2.2915
  863MOL0     H13899   2.853   1.737  11.839  0.6480 -0.3770 -0.5813
  863MOL0     H13900   2.901   1.661  11.411  1.0681 -1.6746  0.8478
  863MOL0     H13901   2.947   1.630  11.171 -0.9635  0.2819 -1.3285
  863MOL0     H13902   3.025   2.682  11.027  2.1903 -0.0849 -0.0276
  863MOL0     H13903   3.222   2.759  10.895 -1.4142 -1.7648  3.0185
  863MOL0     H13904   3.471   2.855  10.646 -2.8957  0.3447  1.1241
  863MOL0     H13905   3.690   2.892  10.548 -1.9816 -0.5429  0.7801
  863MOL0     H13906   3.746   2.936  10.290  3.4496 -2.9915 -3.1801
  863MOL0     H13907   3.889   2.931  10.402 -2.8470 -2.6613  1.3201
  863MOL0     H13908   3.995   3.100  10.276 -0.2421 -0.1768  2.4026
  863MOL0     H13909   3.954   2.967  10.174 -0.7568 -1.2342  0.5751
  863MOL0     H13910   3.726   3.075  10.114  1.5089 -4.3303  0.1325
  863MOL0     H13911   3.882   3.109  10.037  1.9624 -2.5150  1.2426
  863MOL0     H13912   3.789   3.302  10.260  1.3687  0.3753 -0.3706
  863MOL0     H13913   3.894   3.326  10.120  3.4794 -4.2847  1.5121
  863MOL0     H13914   3.537   3.475   9.970  3.0681  0.7180 -5.2257
  863MOL0     H13915   3.604   3.276  10.417  0.4088  0.5454  0.8605
  863MOL0     H13916   3.389   3.272  10.542  0.2325  0.2508 -1.6560
  864MOL0     O13917   5.990   6.661   6.333 -0.4701  0.1537  0.0478
  864MOL0     C13918   6.109   6.673   6.358 -0.4226  0.2796 -0.0835
  864MOL0     O13919   6.171   6.666   6.481 -0.4566  0.0615  0.3017
  864MOL0     C13920   6.109   6.606   6.582  0.0114 -0.0100  1.1095
  864MOL0     C13921   6.019   6.493   6.574 -0.1298 -0.0266  0.0208
  864MOL0     C13922   5.949   6.441   6.682 -0.8141  0.1027 -0.1921
  864MOL0     C13923   5.966   6.504   6.806 -0.7518 -0.3884  0.3229
  864MOL0     O13924   5.901   6.468   6.927 -0.4876 -0.3974  0.5812
  864MOL0     C13925   5.767   6.427   6.908  0.2103 -0.5954 -0.2508
  864MOL0     C13926   5.675   6.446   7.033 -0.3385 -0.1650 -0.3681
  864MOL0     C13927   5.565   6.327   7.031 -0.7507  0.5428  0.8383
  864MOL0     C13928   5.466   6.348   7.136  0.0582  0.0281 -0.1063
  864MOL0     C13929   5.473   6.270   7.270  0.1230 -0.5160  0.1515
  864MOL0     C13930   5.604   6.286   7.345  0.5944  0.4558 -0.1888
  864MOL0     C13931   5.594   6.227   7.483 -0.5663  0.0143 -0.4138
  864MOL0     C13932   5.524   6.339   7.566 -0.8683  1.2889 -0.0056
  864MOL0     N13933   5.507   6.297   7.708  0.3128  0.2170  0.2075
  864MOL0     C13934   5.596   6.328   7.799  0.2587 -0.2897  0.3460
  864MOL0     C13935   5.529   6.327   7.913  0.3860 -0.2093 -0.4522
  864MOL0     C13936   5.576   6.356   8.051  1.3442  0.3313 -0.8485
  864MOL0     C13937   5.641   6.499   8.056 -0.2186 -0.3872  0.0535
  864MOL0     C13938   5.678   6.527   8.205  0.7895 -0.8324  0.5446
  864MOL0     C13939   5.726   6.671   8.210 -0.4492  0.1009 -0.1124
  864MOL0     O13940   5.833   6.703   8.296  0.9548 -0.1828 -0.3952
  864MOL0     C13941   5.807   6.696   8.429  0.3255  0.2415 -0.1425
  864MOL0     C13942   5.683   6.696   8.491  0.4249  1.3864  0.0655
  864MOL0     C13943   5.660   6.702   8.633 -0.8066 -0.1167  0.2697
  864MOL0     C13944   5.773   6.672   8.714 -0.6898 -0.3151  1.1671
  864MOL0     C13945   5.767   6.662   8.860 -0.3930  0.2942  0.3695
  864MOL0     O13946   5.639   6.648   8.895  0.5062  0.5106 -0.7486
  864MOL0     C13947   5.622   6.630   9.025  0.5380 -0.1735 -0.1210
  864MOL0     C13948   5.544   6.726   9.084 -0.9506  0.0011 -0.5661
  864MOL0     C13949   5.517   6.717   9.221  0.8740 -0.3915 -0.3881
  864MOL0     C13950   5.564   6.613   9.301  0.8428 -0.1691 -0.4814
  864MOL0     O13951   5.535   6.626   9.435  0.0201  0.4387 -0.2709
  864MOL0     C13952   5.477   6.513   9.505 -0.3372  0.5684 -0.0381
  864MOL0     C13953   5.585   6.437   9.573 -0.2057 -0.3419  0.1378
  864MOL0     C13954   5.531   6.310   9.646  0.4882  0.0867 -0.1872
  864MOL0     C13955   5.640   6.264   9.748 -0.4140 -0.0874  0.8460
  864MOL0     C13956   5.593   6.134   9.805  0.6909 -0.0818 -0.6972
  864MOL0     C13957   5.705   6.064   9.885 -0.0954 -1.4720  0.0788
  864MOL0     C13958   5.650   5.969   9.986  0.4907  0.1158 -0.5354
  864MOL0     C13959   5.776   5.899  10.042  0.5697 -0.4055 -0.3096
  864MOL0    Cl13960   5.821   5.778   9.921  0.0190 -0.0337  0.3662
  864MOL0     C13961   5.615   6.499   9.228 -0.2295 -0.2278  0.3408
  864MOL0     C13962   5.659   6.515   9.098  0.0782 -0.4965 -0.6650
  864MOL0     O13963   5.860   6.663   8.940  0.2299  0.6391  0.3295
  864MOL0     C13964   5.901   6.668   8.653 -0.3805 -0.4664  0.3170
  864MOL0     C13965   5.913   6.684   8.509  0.1825 -0.9398 -0.6480
  864MOL0     N13966   5.395   6.322   7.891 -0.2295  0.8226 -0.1201
  864MOL0     N13967   5.387   6.301   7.763 -0.2705 -0.0740  0.4586
  864MOL0     C13968   6.074   6.602   6.815  0.4871 -1.2468 -0.2340
  864MOL0     C13969   6.143   6.648   6.712  0.2687 -0.1432  0.2656
  864MOL0     C13970   6.182   6.725   6.242 -0.5764  1.0277 -0.9698
  864MOL0     C13971   6.168   6.662   6.120 -0.2240 -0.1077 -0.2145
  864MOL0     C13972   6.253   6.710   6.006  0.5330  0.3038 -0.0089
  864MOL0     C13973   6.340   6.819   6.028 -0.5471  1.3276 -0.1029
  864MOL0     O13974   6.438   6.848   5.951 -0.3987 -0.1107 -0.0095
  864MOL0     C13975   6.535   6.757   5.922 -0.2540 -0.2011  0.0979
  864MOL0     C13976   6.633   6.807   5.811 -0.0728 -0.0821  0.2453
  864MOL0     C13977   6.745   6.899   5.870 -0.0209 -0.0210  0.3404
  864MOL0     C13978   6.826   6.845   5.987  0.3541  0.0965  0.6033
  864MOL0     C13979   6.853   6.701   5.990 -0.3702  0.0695  0.4448
  864MOL0     C13980   6.859   6.574   5.988  0.3781  0.5713 -0.2925
  864MOL0     C13981   6.347   6.874   6.154 -0.2580  0.6924  0.7414
  864MOL0     C13982   6.271   6.828   6.256 -0.8253 -0.4480  0.1588
  864MOL0     H13983   5.995   6.450   6.478 -1.1334  1.0884 -0.2502
  864MOL0     H13984   5.892   6.349   6.684 -0.8956  0.1557  1.5150
  864MOL0     H13985   5.771   6.320   6.891 -1.2376 -0.8714  0.9406
  864MOL0     H13986   5.726   6.487   6.826  3.3424 -0.4436 -1.8446
  864MOL0     H13987   5.632   6.547   7.030  4.3237  2.2201  1.9758
  864MOL0     H13988   5.748   6.439   7.114  0.3109  1.4385 -0.7722
  864MOL0     H13989   5.608   6.226   7.034  0.6076  0.7713 -3.4955
  864MOL0     H13990   5.508   6.324   6.937 -2.8187 -0.0644  2.0637
  864MOL0     H13991   5.459   6.456   7.152 -1.6641 -0.3713  2.5434
  864MOL0     H13992   5.376   6.305   7.092  1.6942 -3.3822 -0.4990
  864MOL0     H13993   5.455   6.168   7.235  0.3705 -0.5875  0.2319
  864MOL0     H13994   5.394   6.302   7.339  0.7122  0.3801  0.4286
  864MOL0     H13995   5.620   6.394   7.358  1.6793  0.4229 -1.1412
  864MOL0     H13996   5.685   6.249   7.282 -0.3529 -4.1282  0.9085
  864MOL0     H13997   5.559   6.123   7.482  3.9546 -1.7975  2.0405
  864MOL0     H13998   5.698   6.221   7.516 -0.9442  0.8214  1.0006
  864MOL0     H13999   5.431   6.371   7.518 -1.1997 -3.3574 -3.1455
  864MOL0     H14000   5.610   6.406   7.558  1.8414 -2.0815 -2.3451
  864MOL0     H14001   5.703   6.346   7.791  0.5563 -2.2577 -0.7096
  864MOL0     H14002   5.656   6.283   8.067  1.8215  1.0775  0.2874
  864MOL0     H14003   5.498   6.344   8.126  0.5307  2.3135 -1.3169
  864MOL0     H14004   5.571   6.576   8.022  1.2391  0.5151 -0.9890
  864MOL0     H14005   5.727   6.501   7.989 -0.2387  1.3428  0.0247
  864MOL0     H14006   5.587   6.515   8.265  0.8137 -1.3608  0.4812
  864MOL0     H14007   5.760   6.465   8.239  1.8783 -0.7598 -1.7647
  864MOL0     H14008   5.637   6.732   8.228 -1.9396 -1.9698 -0.0010
  864MOL0     H14009   5.766   6.703   8.113 -1.9317  1.4779 -0.3140
  864MOL0     H14010   5.601   6.715   8.423  2.3165  1.3616 -2.3581
  864MOL0     H14011   5.562   6.706   8.680 -1.8275 -4.0305 -1.1657
  864MOL0     H14012   5.512   6.811   9.025  1.8305  0.1924 -1.9859
  864MOL0     H14013   5.479   6.803   9.274  3.0848 -0.1164  0.9201
  864MOL0     H14014   5.426   6.447   9.434  1.9378  0.3363 -1.5583
  864MOL0     H14015   5.408   6.533   9.587  0.6272 -0.3115  1.0299
  864MOL0     H14016   5.631   6.501   9.649 -0.5725  0.7636 -0.5482
  864MOL0     H14017   5.658   6.395   9.503 -1.3370 -1.6677 -0.2730
  864MOL0     H14018   5.505   6.239   9.567 -2.7201  1.7846 -0.8205
  864MOL0     H14019   5.431   6.322   9.689 -0.4765 -0.0459 -2.2704
  864MOL0     H14020   5.731   6.242   9.691 -0.3197 -0.2996  1.0780
  864MOL0     H14021   5.667   6.339   9.823  2.3226 -2.2852  2.2143
  864MOL0     H14022   5.556   6.062   9.730 -2.0471  0.4768 -0.0036
  864MOL0     H14023   5.508   6.149   9.872  1.6544  0.8431  0.3538
  864MOL0     H14024   5.768   6.136   9.938 -3.3741  1.4898  0.2628
  864MOL0     H14025   5.767   6.019   9.807 -2.6332  1.2534 -3.8280
  864MOL0     H14026   5.618   6.031  10.070  0.3194 -0.2499 -0.3288
  864MOL0     H14027   5.579   5.894   9.950  2.2025 -2.3206  0.8476
  864MOL0     H14028   5.749   5.840  10.130 -0.0950 -1.1003 -0.9690
  864MOL0     H14029   5.844   5.979  10.072 -1.3234  1.6872 -1.3805
  864MOL0     H14030   5.647   6.415   9.288 -0.8178 -0.0958  0.8556
  864MOL0     H14031   5.712   6.438   9.043 -1.4195 -1.7375 -0.4254
  864MOL0     H14032   5.988   6.645   8.714  1.5428  2.1992 -1.2216
  864MOL0     H14033   6.007   6.709   8.460 -0.9618 -2.2774 -3.8212
  864MOL0     H14034   6.109   6.637   6.912 -0.8046  0.5421 -0.3648
  864MOL0     H14035   6.216   6.728   6.721 -2.0366  2.0485  0.7686
  864MOL0     H14036   6.101   6.583   6.087  0.0763  0.2225 -1.6951
  864MOL0     H14037   6.256   6.657   5.911  4.4113 -2.0541  1.1793
  864MOL0     H14038   6.484   6.668   5.886 -0.2189  0.5915 -2.0352
  864MOL0     H14039   6.583   6.725   6.015 -1.1248 -1.6187  0.0891
  864MOL0     H14040   6.664   6.720   5.753 -1.8063 -0.8535  0.4130
  864MOL0     H14041   6.568   6.860   5.741 -1.5985 -1.2821  0.6998
  864MOL0     H14042   6.712   7.000   5.896 -0.1867 -0.8510  3.8146
  864MOL0     H14043   6.819   6.917   5.792  1.6705  0.4105  1.9688
  864MOL0     H14044   6.916   6.905   5.997 -1.3012  2.6674  0.9476
  864MOL0     H14045   6.763   6.868   6.073  1.5643 -1.3345  1.9426
  864MOL0     H14046   6.856   6.467   5.976 -3.3359  0.6004 -0.8607
  864MOL0     H14047   6.426   6.945   6.175 -1.0573  1.1723  2.2714
  864MOL0     H14048   6.283   6.859   6.360 -2.7103  0.0112  0.2818
  865MOL0     O14049   8.882   3.097   0.652  0.4230 -1.0114 -0.1109
  865MOL0     C14050   8.979   3.021   0.657  0.5893 -0.8388 -0.0211
  865MOL0     O14051   9.113   3.064   0.690  0.1446 -0.1692  0.9206
  865MOL0     C14052   9.150   3.196   0.666  0.2319  0.3138  1.8085
  865MOL0     C14053   9.233   3.268   0.755 -0.0611  0.1731 -0.2625
  865MOL0     C14054   9.278   3.397   0.725  0.3823  0.3551 -1.5433
  865MOL0     C14055   9.245   3.464   0.601  0.1432 -0.7220 -0.2135
  865MOL0     O14056   9.299   3.580   0.555  0.1350 -0.0001 -0.0217
  865MOL0     C14057   9.409   3.638   0.617 -0.8171 -1.3683  0.2995
  865MOL0     C14058   9.448   3.765   0.550 -0.6710 -0.7668 -0.5890
  865MOL0     C14059   9.559   3.862   0.613  0.7617 -0.2116 -0.0949
  865MOL0     C14060   9.695   3.794   0.614 -0.4614  0.7927  0.3310
  865MOL0     C14061   9.761   3.799   0.472 -0.2415 -0.0575 -0.2190
  865MOL0     C14062   9.776   3.949   0.414  0.0581 -0.1039  0.3333
  865MOL0     C14063   9.851   3.942   0.285  0.2745  0.3339  0.3867
  865MOL0     C14064   9.868   4.087   0.242 -0.4936 -0.6681 -0.5133
  865MOL0     N14065   9.959   4.096   0.131  0.1571  0.1650 -0.6329
  865MOL0     C14066   9.925   4.123  -0.002 -0.5964 -0.2812 -0.1371
  865MOL0     C14067  10.042   4.114  -0.068 -1.0142 -0.1469  0.8688
  865MOL0     C14068  10.060   4.130  -0.219  0.4436 -0.1947  0.1101
  865MOL0     C14069  10.086   4.278  -0.243 -0.1392 -0.0444  0.1995
  865MOL0     C14070  10.095   4.324  -0.385  0.2952 -0.5072 -0.2364
  865MOL0     C14071  10.097   4.468  -0.400 -0.8864 -0.3179 -0.8256
  865MOL0     O14072  10.115   4.491  -0.537  0.3767 -0.2804  1.3240
  865MOL0     C14073  10.114   4.613  -0.591 -0.4389  0.6665  0.1218
  865MOL0     C14074  10.115   4.732  -0.518  0.0142 -0.0438  0.7048
  865MOL0     C14075  10.101   4.855  -0.575 -0.2196  0.7042 -1.0848
  865MOL0     C14076  10.101   4.862  -0.715  0.3244 -0.1365 -0.0188
  865MOL0     C14077  10.076   4.986  -0.774  0.1673  0.1729  0.4372
  865MOL0     O14078  10.079   4.994  -0.909 -0.9029 -0.2718  0.0182
  865MOL0     C14079  10.035   5.112  -0.966 -1.0191  0.4936 -0.4563
  865MOL0     C14080   9.916   5.121  -1.033  0.4380 -0.1102  0.2938
  865MOL0     C14081   9.873   5.244  -1.082  0.7420  0.2279  0.6846
  865MOL0     C14082   9.951   5.364  -1.067  0.7272  0.3267  0.3966
  865MOL0     O14083   9.890   5.475  -1.126 -0.0523 -0.0065  0.5932
  865MOL0     C14084   9.948   5.596  -1.125  0.0231 -1.1548 -0.3654
  865MOL0     C14085   9.836   5.715  -1.146  0.0672 -0.4653 -0.2589
  865MOL0     C14086   9.890   5.865  -1.160  0.8338 -0.2691 -0.4231
  865MOL0     C14087  10.014   5.872  -1.246 -0.1258 -0.7066  0.3226
  865MOL0     C14088   9.990   5.846  -1.395  0.3008 -0.5921 -0.2017
  865MOL0     C14089  10.120   5.893  -1.476  0.2746  0.1883 -0.1610
  865MOL0     C14090  10.100   5.927  -1.629  0.0466  0.1979 -0.2195
  865MOL0     C14091  10.242   5.956  -1.683  0.6646 -0.3791  0.4883
  865MOL0    Cl14092  10.269   5.948  -1.866  0.1613 -0.2995 -0.2496
  865MOL0     C14093  10.080   5.355  -1.007  0.5158  0.2619 -0.3594
  865MOL0     C14094  10.122   5.223  -0.961  0.2524  1.0800  0.6018
  865MOL0     O14095  10.045   5.081  -0.700  0.0960  0.3307  0.0140
  865MOL0     C14096  10.118   4.743  -0.794 -0.8349 -0.4613  0.2868
  865MOL0     C14097  10.131   4.621  -0.733  0.2229  1.0543 -0.6452
  865MOL0     N14098  10.144   4.100   0.027  0.1457  0.0138 -0.1557
  865MOL0     N14099  10.095   4.088   0.143  0.5857  0.0297  0.3400
  865MOL0     C14100   9.161   3.387   0.515  0.6063 -0.2305  0.6865
  865MOL0     C14101   9.121   3.260   0.544 -0.3697  0.3008 -0.8036
  865MOL0     C14102   8.962   2.881   0.617  0.5629 -0.5269  0.8924
  865MOL0     C14103   8.833   2.827   0.595  0.2929 -1.1832  0.6002
  865MOL0     C14104   8.830   2.693   0.554 -1.2495 -0.7195 -0.1721
  865MOL0     C14105   8.940   2.611   0.533  0.5509  0.2256 -0.0601
  865MOL0     O14106   8.939   2.480   0.491  0.0043 -0.1132 -0.4689
  865MOL0     C14107   8.813   2.399   0.501 -0.8528  0.1202 -0.2793
  865MOL0     C14108   8.728   2.417   0.370 -0.8985  0.3138 -0.6698
  865MOL0     C14109   8.624   2.312   0.349  0.7184  0.7768  0.0233
  865MOL0     C14110   8.532   2.287   0.461  0.2685  0.8964  0.4514
  865MOL0     C14111   8.422   2.207   0.415 -0.5215  0.2849  1.4995
  865MOL0     C14112   8.336   2.130   0.372  0.1782  0.9185 -0.7725
  865MOL0     C14113   9.056   2.672   0.528  0.0119  0.4263  0.4953
  865MOL0     C14114   9.074   2.805   0.572 -0.1864 -0.1002  0.4814
  865MOL0     H14115   9.244   3.222   0.853  0.4681  1.1381  0.1429
  865MOL0     H14116   9.344   3.451   0.793  2.7475 -1.6574 -2.1082
  865MOL0     H14117   9.492   3.567   0.618  1.0148  0.5252 -2.7019
  865MOL0     H14118   9.394   3.665   0.723  0.4130  0.5322  0.0407
  865MOL0     H14119   9.352   3.818   0.548 -0.0856  0.5008  1.6961
  865MOL0     H14120   9.496   3.753   0.453 -2.1677  0.4111 -1.5340
  865MOL0     H14121   9.523   3.881   0.715 -2.5150  0.1773 -1.1963
  865MOL0     H14122   9.546   3.952   0.552  1.6907  0.8252  1.1828
  865MOL0     H14123   9.757   3.838   0.692  1.2565 -2.4230  0.9437
  865MOL0     H14124   9.694   3.693   0.656  1.4104  1.2358  1.5134
  865MOL0     H14125   9.708   3.735   0.401 -2.7480  4.7797 -3.2782
  865MOL0     H14126   9.867   3.772   0.476  0.2198  1.7107  2.8161
  865MOL0     H14127   9.828   4.012   0.486  0.6341 -0.1958  0.0065
  865MOL0     H14128   9.674   3.984   0.400 -0.2546 -1.6586 -1.8270
  865MOL0     H14129   9.953   3.912   0.314 -0.6391 -0.5354  3.0630
  865MOL0     H14130   9.803   3.873   0.216  2.4495  0.6343 -1.5477
  865MOL0     H14131   9.908   4.137   0.330 -0.6266 -1.5659  0.0674
  865MOL0     H14132   9.771   4.129   0.210 -0.0317  1.4773  0.7242
  865MOL0     H14133   9.833   4.143  -0.056 -2.4002 -4.2472  1.0912
  865MOL0     H14134   9.970   4.099  -0.273  0.8857  0.6007 -1.1395
  865MOL0     H14135  10.148   4.070  -0.242  0.8297  0.4784 -0.2274
  865MOL0     H14136  10.176   4.305  -0.187  1.7739 -2.8035 -1.2575
  865MOL0     H14137   9.997   4.321  -0.198 -1.1414  1.3756 -2.8380
  865MOL0     H14138  10.182   4.278  -0.433  0.3883  0.7676 -1.3675
  865MOL0     H14139  10.004   4.305  -0.443  1.1891 -1.5956 -1.3616
  865MOL0     H14140  10.182   4.511  -0.346 -2.0200  3.8415 -2.0043
  865MOL0     H14141  10.009   4.522  -0.366  1.8569  4.4779 -0.5120
  865MOL0     H14142  10.104   4.733  -0.410 -0.5004 -0.5184  0.6596
  865MOL0     H14143  10.103   4.945  -0.514  1.1410 -0.9864  1.5747
  865MOL0     H14144   9.842   5.044  -1.053 -0.9071  0.7013  1.8739
  865MOL0     H14145   9.772   5.248  -1.121  1.2647 -0.5158 -0.8586
  865MOL0     H14146  10.014   5.598  -1.212  0.9311 -0.9328  0.3151
  865MOL0     H14147  10.000   5.625  -1.034 -0.8194  0.7718 -0.4519
  865MOL0     H14148   9.772   5.709  -1.058 -0.2363 -3.1580 -0.6035
  865MOL0     H14149   9.778   5.692  -1.236  0.4416 -0.5966 -0.4673
  865MOL0     H14150   9.923   5.908  -1.065  0.3387 -1.1631  0.1614
  865MOL0     H14151   9.804   5.921  -1.197 -0.2950 -0.2565  2.0321
  865MOL0     H14152  10.055   5.971  -1.222 -2.7691  1.2610 -2.5095
  865MOL0     H14153  10.082   5.796  -1.205 -2.7200 -1.4937  3.4965
  865MOL0     H14154   9.907   5.907  -1.431 -0.1584 -1.3691 -0.4670
  865MOL0     H14155   9.974   5.743  -1.425  0.3185 -0.3268 -1.1742
  865MOL0     H14156  10.206   5.827  -1.462  2.2293  2.5913 -0.0694
  865MOL0     H14157  10.147   5.990  -1.433 -2.3197  1.4798 -1.2434
  865MOL0     H14158  10.059   5.847  -1.690  3.3208 -0.2858 -2.0464
  865MOL0     H14159  10.033   6.013  -1.639  0.5657  0.6051 -0.2500
  865MOL0     H14160  10.301   5.868  -1.657 -2.1671 -3.4530 -2.4220
  865MOL0     H14161  10.275   6.049  -1.635 -1.8770  0.6980  0.2920
  865MOL0     H14162  10.145   5.437  -0.980 -1.7346  1.7464  0.7954
  865MOL0     H14163  10.223   5.207  -0.925 -0.9309 -2.2673  2.9054
  865MOL0     H14164  10.096   4.753  -0.900 -1.5258 -0.4204  0.4262
  865MOL0     H14165  10.154   4.531  -0.789  3.8220  0.9992  0.6695
  865MOL0     H14166   9.156   3.430   0.416  3.6728  1.3060  1.0846
  865MOL0     H14167   9.060   3.198   0.477 -1.1369 -0.2545  0.3775
  865MOL0     H14168   8.738   2.878   0.605  0.6935 -0.5824  1.4510
  865MOL0     H14169   8.731   2.654   0.531 -1.2862 -1.5319  1.2038
  865MOL0     H14170   8.759   2.427   0.592 -0.1499  2.4709 -0.5448
  865MOL0     H14171   8.823   2.290   0.514 -0.9670  0.2095  0.5938
  865MOL0     H14172   8.693   2.521   0.362  1.7855  1.1882 -2.3343
  865MOL0     H14173   8.801   2.394   0.291 -1.4172 -1.4589 -0.6723
  865MOL0     H14174   8.678   2.222   0.321 -0.5984 -0.0755  0.1247
  865MOL0     H14175   8.562   2.331   0.261 -0.3778  0.8990  0.7942
  865MOL0     H14176   8.586   2.226   0.534 -0.3316  0.1621  0.2971
  865MOL0     H14177   8.491   2.375   0.512 -2.3415  0.0169  0.0551
  865MOL0     H14178   8.259   2.057   0.360  1.8305 -0.7691 -1.5672
  865MOL0     H14179   9.132   2.608   0.483 -1.5269 -0.6337 -0.7074
  865MOL0     H14180   9.178   2.837   0.575  0.3818 -1.2168 -2.7603
  866MOL0     O14181   9.122   3.914  11.176  0.2250 -0.2527 -0.4837
  866MOL0     C14182   9.009   3.971  11.157 -1.0834  1.0078  0.0895
  866MOL0     O14183   8.985   4.097  11.184  0.6939  0.6159  0.2085
  866MOL0     C14184   9.102   4.176  11.191  0.7087  0.1612 -0.4534
  866MOL0     C14185   9.153   4.194  11.319  0.0094  0.6292 -0.2190
  866MOL0     C14186   9.256   4.281  11.346 -0.7479 -0.6841 -0.0858
  866MOL0     C14187   9.318   4.353  11.253  0.6199 -0.3558  0.4466
  866MOL0     O14188   9.426   4.432  11.266  0.1529 -0.2014  0.5541
  866MOL0     C14189   9.501   4.434  11.396 -0.2409  0.4813  0.1497
  866MOL0     C14190   9.621   4.530  11.369 -0.2268 -0.5575  0.1321
  866MOL0     C14191   9.590   4.686  11.347  0.5937 -0.4289  0.5436
  866MOL0     C14192   9.537   4.734  11.482  0.0533 -1.1357  0.0244
  866MOL0     C14193   9.424   4.840  11.451  0.1373  0.9178 -0.0360
  866MOL0     C14194   9.291   4.774  11.505 -0.2776 -0.5817 -0.3843
  866MOL0     C14195   9.181   4.872  11.530  0.3413 -1.0180 -0.5660
  866MOL0     C14196   9.121   4.932  11.395  0.3771  0.1921 -1.3454
  866MOL0     N14197   9.046   5.059  11.416 -0.7375  0.6197 -0.6793
  866MOL0     C14198   9.103   5.169  11.472 -0.6182 -0.4431  0.1228
  866MOL0     C14199   8.993   5.250  11.515 -0.6315 -0.3573  1.0863
  866MOL0     C14200   9.013   5.390  11.552  0.2232  0.4821 -0.1800
  866MOL0     C14201   9.057   5.472  11.430  0.8760 -1.3837  0.2886
  866MOL0     C14202   8.956   5.480  11.308 -0.5740  0.2607  0.2124
  866MOL0     C14203   9.010   5.454  11.162 -0.4285  0.2981 -0.4031
  866MOL0     O14204   9.096   5.342  11.153 -0.5789  0.3518 -0.5758
  866MOL0     C14205   9.048   5.225  11.102 -1.0822  0.1983  1.1518
  866MOL0     C14206   8.911   5.191  11.081 -0.6801  0.3308 -0.0222
  866MOL0     C14207   8.889   5.062  11.034  0.9218 -0.0012  0.2297
  866MOL0     C14208   8.991   4.959  11.004 -0.2261 -0.0074 -0.1616
  866MOL0     C14209   8.940   4.835  10.961 -0.1998  1.0665  0.0065
  866MOL0     O14210   9.017   4.750  10.893  0.0448 -0.3505 -0.2047
  866MOL0     C14211   8.962   4.639  10.834  0.3563 -0.4089 -1.1827
  866MOL0     C14212   8.962   4.523  10.912 -0.2555  0.8511 -0.4605
  866MOL0     C14213   8.946   4.392  10.857 -0.5312  0.3339 -0.2566
  866MOL0     C14214   8.921   4.384  10.720  0.6754  0.1514 -0.4419
  866MOL0     O14215   8.911   4.267  10.658 -0.2963 -0.1399  0.5817
  866MOL0     C14216   8.783   4.198  10.675  0.0221 -0.7660 -0.8382
  866MOL0     C14217   8.766   4.081  10.580 -0.5645  0.6820 -0.0550
  866MOL0     C14218   8.761   4.112  10.434  0.1385  0.2235  1.1683
  866MOL0     C14219   8.894   4.188  10.366 -0.4247  0.4730 -0.3365
  866MOL0     C14220   8.904   4.167  10.213  1.1352 -1.0900 -0.2833
  866MOL0     C14221   9.027   4.244  10.171 -0.5662  0.6453  0.3803
  866MOL0     C14222   9.060   4.227  10.019 -0.0549 -0.2107 -0.9788
  866MOL0     C14223   9.211   4.247  10.006  0.6947 -0.3646 -0.3636
  866MOL0    Cl14224   9.271   4.209   9.842  0.2218  0.1133  0.6024
  866MOL0     C14225   8.920   4.502  10.647  0.6260 -0.6659  0.2832
  866MOL0     C14226   8.952   4.626  10.706  1.2094  1.2896  0.6357
  866MOL0     O14227   8.831   4.802  10.997  0.3302 -0.2957  0.5227
  866MOL0     C14228   9.128   5.001  11.025 -0.3934 -0.1342  0.1079
  866MOL0     C14229   9.152   5.130  11.074  0.2824 -0.1088 -0.1709
  866MOL0     N14230   8.878   5.191  11.472  0.5373 -0.7967 -0.2655
  866MOL0     N14231   8.913   5.078  11.417  0.9995  1.1511 -0.3364
  866MOL0     C14232   9.267   4.323  11.122  0.0333 -0.0809  0.6592
  866MOL0     C14233   9.163   4.232  11.088  0.5342 -0.0344 -0.3073
  866MOL0     C14234   8.914   3.908  11.074 -0.3940 -0.0861 -0.0377
  866MOL0     C14235   8.790   3.975  11.047  0.7670  0.1869  1.2179
  866MOL0     C14236   8.687   3.910  10.970  0.3642 -0.4639 -0.0766
  866MOL0     C14237   8.704   3.775  10.927 -0.3343  0.2274 -0.8258
  866MOL0     O14238   8.598   3.706  10.865  0.7190  0.2148 -0.9852
  866MOL0     C14239   8.497   3.664  10.960 -0.3434  0.0411  0.1540
  866MOL0     C14240   8.367   3.621  10.887  0.2097 -0.9328  0.1069
  866MOL0     C14241   8.381   3.479  10.808 -1.3825  0.6883 -0.3974
  866MOL0     C14242   8.326   3.349  10.890 -0.4564  0.3716  0.7836
  866MOL0     C14243   8.329   3.232  10.808  0.5401 -0.9158 -0.8765
  866MOL0     C14244   8.325   3.133  10.747 -1.1716  0.5922  0.5582
  866MOL0     C14245   8.823   3.709  10.955 -0.3851  0.3123  0.2940
  866MOL0     C14246   8.919   3.773  11.030  0.5689  0.1924  0.1841
  866MOL0     H14247   9.103   4.142  11.400 -0.4020  2.3090  0.6515
  866MOL0     H14248   9.282   4.284  11.452  0.4936 -2.4631 -0.2926
  866MOL0     H14249   9.533   4.334  11.425 -0.7658  0.2720  0.0193
  866MOL0     H14250   9.437   4.453  11.483 -0.2899 -3.3710  1.1495
  866MOL0     H14251   9.672   4.495  11.279 -0.2556  1.1382 -0.5836
  866MOL0     H14252   9.690   4.525  11.454 -1.6126 -1.3403  1.2688
  866MOL0     H14253   9.505   4.695  11.278  1.3790 -0.3412 -0.4309
  866MOL0     H14254   9.662   4.754  11.302 -0.6675  2.4807  2.5728
  866MOL0     H14255   9.499   4.658  11.550  2.4697  0.9447  4.1242
  866MOL0     H14256   9.614   4.788  11.539 -1.1279  1.5900 -0.7856
  866MOL0     H14257   9.415   4.877  11.349  2.0472 -1.0942 -1.0259
  866MOL0     H14258   9.439   4.929  11.513  1.3291 -0.1914  1.3546
  866MOL0     H14259   9.306   4.737  11.606 -0.7555 -1.2423 -0.5562
  866MOL0     H14260   9.265   4.683  11.450  1.1834 -2.8025  2.3345
  866MOL0     H14261   9.111   4.823  11.598  0.8394  0.2815  0.9300
  866MOL0     H14262   9.224   4.957  11.583 -3.0466  0.5914 -0.1926
  866MOL0     H14263   9.052   4.858  11.355  0.2826 -0.3228 -0.2749
  866MOL0     H14264   9.196   4.951  11.318 -0.9773  2.6418 -2.1720
  866MOL0     H14265   9.210   5.184  11.457 -0.4776 -1.5104 -0.0567
  866MOL0     H14266   9.072   5.396  11.644 -1.0136  0.6922  0.6208
  866MOL0     H14267   8.912   5.421  11.579  0.3105  1.2968 -0.7533
  866MOL0     H14268   9.151   5.443  11.382  1.1682  0.6468 -0.4595
  866MOL0     H14269   9.070   5.576  11.460  0.7755 -1.2937  0.0255
  866MOL0     H14270   8.892   5.393  11.326 -0.3145 -0.4211 -1.9115
  866MOL0     H14271   8.889   5.566  11.314 -1.3566 -0.3918  1.2187
  866MOL0     H14272   9.067   5.541  11.127  0.3982 -0.0563  0.0405
  866MOL0     H14273   8.922   5.430  11.101 -1.4840  0.0582  1.1538
  866MOL0     H14274   8.822   5.252  11.090 -0.3676  0.5123  3.1444
  866MOL0     H14275   8.783   5.052  11.013  1.0460 -0.3803 -0.2507
  866MOL0     H14276   8.972   4.530  11.020 -0.0344 -1.0207 -0.3294
  866MOL0     H14277   8.937   4.311  10.929 -0.8139 -0.1391 -0.8188
  866MOL0     H14278   8.700   4.269  10.662 -0.6027 -1.3085  0.1296
  866MOL0     H14279   8.772   4.162  10.777 -2.2891 -0.5213 -0.9396
  866MOL0     H14280   8.672   4.034  10.610 -0.2864  0.6441  0.7938
  866MOL0     H14281   8.849   4.012  10.601 -2.4466 -1.2178  1.5644
  866MOL0     H14282   8.671   4.170  10.411  0.5576 -1.0110 -5.2569
  866MOL0     H14283   8.740   4.016  10.385  2.3355 -1.4490  3.2505
  866MOL0     H14284   8.892   4.293  10.397  0.9098  0.5015 -0.2932
  866MOL0     H14285   8.988   4.147  10.403 -1.1601 -0.1032  0.9348
  866MOL0     H14286   8.818   4.204  10.156  0.6996  1.1097  1.6636
  866MOL0     H14287   8.905   4.059  10.198 -3.8120 -1.5598  1.1468
  866MOL0     H14288   9.116   4.211  10.224  0.2835 -2.6145 -2.7047
  866MOL0     H14289   9.020   4.350  10.198 -1.4617  0.3189  1.5274
  866MOL0     H14290   9.019   4.133   9.979  0.9877 -0.2692 -1.9715
  866MOL0     H14291   8.990   4.296   9.970 -1.7526  0.5648  2.2778
  866MOL0     H14292   9.262   4.181  10.077  0.0662  0.1747  0.6105
  866MOL0     H14293   9.234   4.352  10.027  1.5541 -0.8374  1.1690
  866MOL0     H14294   8.905   4.496  10.540 -1.4742  1.5792  0.3733
  866MOL0     H14295   8.959   4.712  10.640  2.3476 -0.4426 -1.6404
  866MOL0     H14296   9.209   4.941  10.985 -1.9421 -1.6302 -0.9909
  866MOL0     H14297   9.253   5.166  11.086 -0.1546  0.9497  0.4880
  866MOL0     H14298   9.313   4.378  11.041  1.0545  0.4992  1.6121
  866MOL0     H14299   9.134   4.215  10.985  0.8604  1.8196 -0.7524
  866MOL0     H14300   8.752   4.070  11.084 -0.9654 -0.5190  1.3465
  866MOL0     H14301   8.596   3.961  10.942  0.9340  1.0211  0.7001
  866MOL0     H14302   8.469   3.746  11.027 -1.4147 -0.9538  0.9596
  866MOL0     H14303   8.542   3.586  11.022  2.3226  1.9502  0.8017
  866MOL0     H14304   8.278   3.607  10.949 -0.6909  3.9600  0.3210
  866MOL0     H14305   8.351   3.706  10.820  0.4734 -0.4524  0.6457
  866MOL0     H14306   8.484   3.457  10.778 -0.9968  1.0047  0.6661
  866MOL0     H14307   8.320   3.481  10.717 -2.3595 -0.2336  0.2174
  866MOL0     H14308   8.367   3.333  10.990 -1.7610  3.3788  1.9247
  866MOL0     H14309   8.222   3.374  10.914 -1.2485 -0.2321 -1.7744
  866MOL0     H14310   8.316   3.039  10.698  1.0891 -0.4061  1.9076
  866MOL0     H14311   8.840   3.603  10.938 -0.1884  0.2838  0.6418
  866MOL0     H14312   9.007   3.726  11.072  1.2912  0.7009 -0.7294
  867MOL0     O14313  10.014   3.344   3.001 -0.3420  0.2328  0.4286
  867MOL0     C14314   9.967   3.453   3.029  0.7586  0.1763  0.3742
  867MOL0     O14315   9.869   3.518   2.955  0.3760 -0.1280  0.2892
  867MOL0     C14316   9.803   3.439   2.867  0.8891 -0.5423 -0.7954
  867MOL0     C14317   9.719   3.329   2.897 -0.4661  0.0110  0.7584
  867MOL0     C14318   9.655   3.269   2.792  0.2553  0.0179 -0.9421
  867MOL0     C14319   9.682   3.292   2.657  0.2237 -0.4141 -0.0215
  867MOL0     O14320   9.625   3.212   2.562 -0.3093  0.4036  0.8310
  867MOL0     C14321   9.576   3.267   2.436  0.3152  1.2068 -0.7151
  867MOL0     C14322   9.503   3.142   2.377 -0.5924 -0.7812  0.0081
  867MOL0     C14323   9.597   3.020   2.352 -0.4360  0.0881 -0.3819
  867MOL0     C14324   9.720   3.057   2.267  0.1152  0.1768  0.5015
  867MOL0     C14325   9.792   2.949   2.180 -0.4546  0.0754  0.9540
  867MOL0     C14326   9.705   2.894   2.070 -0.3762  0.1536  0.5849
  867MOL0     C14327   9.794   2.831   1.959  0.3518 -0.1090 -0.1400
  867MOL0     C14328   9.737   2.803   1.823 -0.1284  0.7529 -0.1889
  867MOL0     N14329   9.595   2.757   1.808  0.3782  0.0351 -0.0458
  867MOL0     C14330   9.493   2.847   1.816 -0.3430  0.6639  0.6553
  867MOL0     C14331   9.390   2.781   1.873 -0.5277 -0.3191 -0.9266
  867MOL0     C14332   9.257   2.855   1.904 -0.3577 -0.0395 -1.4174
  867MOL0     C14333   9.237   2.881   2.051 -0.1364 -0.4762 -0.9857
  867MOL0     C14334   9.190   2.754   2.130 -0.5529 -0.8468  0.6257
  867MOL0     C14335   9.054   2.702   2.085 -0.6603  0.2597  0.5912
  867MOL0     O14336   8.957   2.800   2.115 -0.2230 -0.5432 -0.5939
  867MOL0     C14337   8.849   2.762   2.177  0.5558  0.6487  0.5964
  867MOL0     C14338   8.735   2.795   2.109 -0.0528 -0.1842 -0.3737
  867MOL0     C14339   8.608   2.770   2.166 -0.1614 -0.0363 -0.3394
  867MOL0     C14340   8.597   2.716   2.292  0.3271 -1.0285 -0.6059
  867MOL0     C14341   8.468   2.702   2.360 -0.1130  0.7240 -1.0417
  867MOL0     O14342   8.474   2.669   2.499 -0.2516 -0.1953 -0.3945
  867MOL0     C14343   8.353   2.641   2.558  0.0689  0.1910 -0.4063
  867MOL0     C14344   8.263   2.746   2.591 -0.2826  0.7159  0.3685
  867MOL0     C14345   8.145   2.728   2.655 -0.3690 -0.0069 -0.0143
  867MOL0     C14346   8.096   2.598   2.676  0.1757  0.6179 -1.1978
  867MOL0     O14347   7.966   2.594   2.729 -0.7328 -0.0392  0.3925
  867MOL0     C14348   7.920   2.466   2.774 -0.2906  0.6516 -0.8365
  867MOL0     C14349   7.783   2.477   2.840 -0.7671 -0.2642  0.1389
  867MOL0     C14350   7.800   2.551   2.969 -0.1421 -0.3260 -0.8654
  867MOL0     C14351   7.852   2.467   3.090 -0.9338  0.4475  0.5928
  867MOL0     C14352   7.812   2.546   3.223 -0.7248  0.7189  0.6809
  867MOL0     C14353   7.835   2.474   3.355  0.2518 -0.1937 -0.6007
  867MOL0     C14354   7.973   2.411   3.363  0.1484 -0.1262  0.2361
  867MOL0     C14355   7.988   2.296   3.460  0.1232  0.7116 -0.3841
  867MOL0    Cl14356   8.149   2.216   3.440  0.2504 -0.2869 -0.3916
  867MOL0     C14357   8.176   2.490   2.624  1.6226  0.4791  0.6180
  867MOL0     C14358   8.303   2.519   2.569 -0.5472  0.4463 -0.4449
  867MOL0     O14359   8.369   2.678   2.291 -0.5336 -0.1179  0.3563
  867MOL0     C14360   8.719   2.693   2.362 -0.3272  0.6396  0.0392
  867MOL0     C14361   8.848   2.716   2.308  0.2541  0.5002 -0.7429
  867MOL0     N14362   9.436   2.652   1.915  0.0397  0.0386 -0.8754
  867MOL0     N14363   9.561   2.644   1.868  0.5702 -0.4708  0.2963
  867MOL0     C14364   9.758   3.405   2.625  0.1172  0.6168  0.3676
  867MOL0     C14365   9.808   3.478   2.737 -0.1055 -1.1462 -0.0113
  867MOL0     C14366   9.991   3.498   3.162 -0.2852 -0.2450  0.5652
  867MOL0     C14367   9.927   3.614   3.205  0.0731 -0.3022 -1.0376
  867MOL0     C14368   9.969   3.678   3.323  0.4431  0.2470  0.4765
  867MOL0     C14369  10.074   3.624   3.392  0.2409  0.7684 -0.2346
  867MOL0     O14370  10.108   3.697   3.508  0.1645 -0.2127 -0.3854
  867MOL0     C14371  10.225   3.665   3.584 -1.1131  0.2229  1.3928
  867MOL0     C14372  10.350   3.706   3.511 -0.5921 -0.1809 -0.2160
  867MOL0     C14373  10.364   3.860   3.472  0.2605  1.0738  0.3596
  867MOL0     C14374  10.374   3.951   3.592  0.7404  0.6207  0.4096
  867MOL0     C14375  10.493   3.939   3.677 -0.2579 -0.6501  0.0163
  867MOL0     C14376  10.572   3.943   3.772 -0.0395 -0.3579 -0.1921
  867MOL0     C14377  10.130   3.502   3.361 -0.8579  0.0640 -0.2876
  867MOL0     C14378  10.096   3.446   3.246  0.4134  1.0712  0.6849
  867MOL0     H14379   9.688   3.295   2.996 -1.5494 -0.0913  0.3945
  867MOL0     H14380   9.585   3.188   2.812 -1.4489  1.5601 -0.3954
  867MOL0     H14381   9.661   3.298   2.373  3.0995  0.1723  2.2535
  867MOL0     H14382   9.499   3.341   2.459 -1.0313  0.0686 -1.4142
  867MOL0     H14383   9.464   3.175   2.280 -1.0324  1.7137  0.9680
  867MOL0     H14384   9.414   3.098   2.424 -1.2591 -2.0526 -2.2715
  867MOL0     H14385   9.541   2.943   2.298  0.6089  1.0978 -3.0348
  867MOL0     H14386   9.626   2.965   2.442 -1.0807  1.1323  0.4905
  867MOL0     H14387   9.692   3.149   2.215 -5.0643 -0.7578  1.1357
  867MOL0     H14388   9.791   3.095   2.341 -1.1639  0.7767  1.4544
  867MOL0     H14389   9.821   2.866   2.245 -0.7984 -0.8388 -0.0279
  867MOL0     H14390   9.880   2.998   2.138 -0.5000 -0.9601 -0.4163
  867MOL0     H14391   9.632   2.962   2.025 -0.5402 -1.8924 -2.5301
  867MOL0     H14392   9.653   2.812   2.120  2.1702 -2.5101 -0.8808
  867MOL0     H14393   9.876   2.902   1.947 -1.7816  3.0241  2.1030
  867MOL0     H14394   9.832   2.735   1.997  1.4435  1.1591  2.2766
  867MOL0     H14395   9.800   2.738   1.763 -1.3168  1.8155 -2.7494
  867MOL0     H14396   9.718   2.901   1.777 -0.9918  0.0204 -1.4284
  867MOL0     H14397   9.485   2.951   1.786 -0.6282  0.1201 -1.3518
  867MOL0     H14398   9.179   2.791   1.863 -1.5534  0.2907  0.2507
  867MOL0     H14399   9.250   2.946   1.845  0.8183  1.8823  1.1986
  867MOL0     H14400   9.166   2.959   2.084 -2.8506 -2.8580 -0.8045
  867MOL0     H14401   9.329   2.934   2.076 -1.9557  2.6910 -0.3328
  867MOL0     H14402   9.268   2.679   2.120 -1.1343 -1.6919  2.1862
  867MOL0     H14403   9.186   2.788   2.234  2.6626  0.5665  0.4110
  867MOL0     H14404   9.035   2.615   2.148  0.7673  2.6715  4.8096
  867MOL0     H14405   9.039   2.677   1.980  0.1911 -1.3650  0.8227
  867MOL0     H14406   8.732   2.840   2.010 -1.8424 -1.8071 -1.1133
  867MOL0     H14407   8.532   2.794   2.093 -1.6539 -0.6797  0.9236
  867MOL0     H14408   8.289   2.850   2.575 -0.2562  0.5325 -0.8449
  867MOL0     H14409   8.071   2.801   2.685 -5.9965 -3.6793 -3.1201
  867MOL0     H14410   7.986   2.426   2.852 -2.1474 -1.1325 -0.0655
  867MOL0     H14411   7.910   2.393   2.693 -0.4016  2.1474 -2.2122
  867MOL0     H14412   7.744   2.377   2.861 -2.0948  0.1507 -0.3097
  867MOL0     H14413   7.710   2.512   2.767  1.7441 -0.1894 -2.5466
  867MOL0     H14414   7.697   2.579   2.993 -0.7692  0.4558 -4.0276
  867MOL0     H14415   7.867   2.637   2.968  0.1427 -0.4390  1.7306
  867MOL0     H14416   7.820   2.363   3.097  4.0131 -1.3309  0.0066
  867MOL0     H14417   7.961   2.462   3.082 -0.9649 -2.2206  0.9935
  867MOL0     H14418   7.704   2.565   3.220 -1.3787 -2.4116  0.9679
  867MOL0     H14419   7.868   2.640   3.230 -1.0110  0.9251  0.2626
  867MOL0     H14420   7.764   2.391   3.362  0.4969 -0.6157 -2.6677
  867MOL0     H14421   7.811   2.554   3.426  2.0944 -0.6262  0.5974
  867MOL0     H14422   8.000   2.375   3.264  1.1752  3.8805 -1.1566
  867MOL0     H14423   8.043   2.490   3.393 -1.1313  1.3474 -0.4961
  867MOL0     H14424   7.911   2.222   3.435  0.7318 -1.3194  3.0920
  867MOL0     H14425   7.965   2.328   3.562 -2.2543 -0.2085 -0.5562
  867MOL0     H14426   8.124   2.396   2.638  1.9646 -0.3410 -2.7758
  867MOL0     H14427   8.371   2.441   2.536 -0.8679  0.0287 -0.1433
  867MOL0     H14428   8.707   2.650   2.461 -1.3779  0.5939 -0.1049
  867MOL0     H14429   8.934   2.699   2.371  0.4923 -0.0730 -1.2065
  867MOL0     H14430   9.774   3.445   2.526 -0.9479 -1.4221 -0.7102
  867MOL0     H14431   9.857   3.573   2.718  1.7816 -2.0764  0.0925
  867MOL0     H14432   9.851   3.668   3.149 -1.2352 -3.1140 -2.1520
  867MOL0     H14433   9.915   3.760   3.370 -2.4134 -2.1236  1.6630
  867MOL0     H14434  10.227   3.557   3.604  1.9504 -0.2416 -0.7155
  867MOL0     H14435  10.228   3.728   3.674  0.0746 -0.6015  1.9568
  867MOL0     H14436  10.432   3.671   3.574  1.2888 -1.6048 -3.1737
  867MOL0     H14437  10.348   3.648   3.418 -2.0783  1.2232 -1.1044
  867MOL0     H14438  10.287   3.880   3.398 -0.4877 -0.5364  0.6671
  867MOL0     H14439  10.456   3.868   3.413  1.9370 -3.5508  1.8911
  867MOL0     H14440  10.370   4.052   3.551 -2.5729  0.2789 -0.4420
  867MOL0     H14441  10.280   3.935   3.647  0.3137 -0.4561 -0.5798
  867MOL0     H14442  10.631   3.965   3.859  2.3638 -0.7263 -1.6137
  867MOL0     H14443  10.214   3.457   3.412  1.6351  2.5220 -1.9313
  867MOL0     H14444  10.149   3.356   3.216 -2.0160  0.0300 -0.7839
  868MOL0     O14445  10.516   6.359   5.761  0.1186 -0.4439  0.0863
  868MOL0     C14446  10.416   6.312   5.822 -0.5569  0.3107  0.2550
  868MOL0     O14447  10.338   6.379   5.911 -1.0252  0.2853  0.3974
  868MOL0     C14448  10.327   6.511   5.936 -0.6719 -1.6146  0.5700
  868MOL0     C14449  10.256   6.550   6.043  0.7820  0.0955  0.1617
  868MOL0     C14450  10.243   6.686   6.081  0.1400 -0.9059  0.4750
  868MOL0     C14451  10.302   6.788   6.006  0.6910 -0.3341  0.0843
  868MOL0     O14452  10.318   6.916   6.043 -0.2472 -0.1776  0.6378
  868MOL0     C14453  10.241   6.966   6.151 -0.5324 -0.2870 -0.0477
  868MOL0     C14454  10.264   7.113   6.197 -0.5811 -0.7973  1.0605
  868MOL0     C14455  10.416   7.133   6.236  0.3246  0.0393 -0.0077
  868MOL0     C14456  10.429   7.165   6.384 -0.0988 -0.2192 -0.0974
  868MOL0     C14457  10.386   7.062   6.489 -0.1208  0.1431 -0.3228
  868MOL0     C14458  10.470   6.937   6.469  0.6789 -0.9576  0.2634
  868MOL0     C14459  10.470   6.843   6.579  0.1116 -0.3796 -0.1217
  868MOL0     C14460  10.532   6.704   6.549  1.0472  1.3588 -0.2689
  868MOL0     N14461  10.423   6.614   6.493  0.0155 -0.7298  0.1098
  868MOL0     C14462  10.321   6.568   6.576  1.0878 -0.0635  0.7253
  868MOL0     C14463  10.224   6.509   6.497 -0.2158  0.2930  1.1506
  868MOL0     C14464  10.101   6.439   6.533  0.6977  0.2724  0.2709
  868MOL0     C14465   9.991   6.425   6.414 -0.7089 -0.3187 -0.6977
  868MOL0     C14466   9.951   6.562   6.350  0.6374 -0.3199  0.4868
  868MOL0     C14467   9.840   6.531   6.244  0.1325  0.3871  0.2651
  868MOL0     O14468   9.903   6.458   6.133 -0.3368  0.3586  0.6204
  868MOL0     C14469   9.840   6.439   6.015  0.5671  1.0573  0.1851
  868MOL0     C14470   9.702   6.462   5.996 -0.9835 -0.3872  0.2924
  868MOL0     C14471   9.646   6.454   5.869  0.3741  0.1851  0.3463
  868MOL0     C14472   9.713   6.411   5.753 -0.5817  0.7090  0.2160
  868MOL0     C14473   9.650   6.404   5.626 -0.1123 -1.5026 -0.2451
  868MOL0     O14474   9.726   6.344   5.521 -0.2711  0.1628 -0.2917
  868MOL0     C14475   9.705   6.361   5.386  0.7167  0.5301 -0.1336
  868MOL0     C14476   9.752   6.257   5.312 -0.1362  0.2407 -0.8922
  868MOL0     C14477   9.753   6.265   5.175  0.4075  0.4068 -0.4426
  868MOL0     C14478   9.701   6.374   5.112  0.6723 -0.4581  0.8081
  868MOL0     O14479   9.720   6.418   4.978 -0.2480 -0.1466 -0.1575
  868MOL0     C14480   9.851   6.459   4.950  0.2420 -0.0111 -0.1315
  868MOL0     C14481   9.866   6.530   4.809 -0.5552  0.7352  0.1201
  868MOL0     C14482   9.865   6.411   4.716  0.0606 -0.1775 -0.3416
  868MOL0     C14483   9.838   6.437   4.566  0.2560  0.9446  0.3249
  868MOL0     C14484   9.859   6.306   4.485 -0.2775 -0.0277  0.5225
  868MOL0     C14485   9.769   6.192   4.525 -0.6044 -0.2789 -0.1761
  868MOL0     C14486   9.616   6.225   4.528  0.7076 -0.5774  0.6343
  868MOL0     C14487   9.556   6.279   4.387  0.0233 -1.0317  0.0362
  868MOL0    Cl14488   9.516   6.154   4.274 -0.0067  0.5542  0.1500
  868MOL0     C14489   9.632   6.469   5.191  0.3647 -0.1495 -0.5616
  868MOL0     C14490   9.638   6.464   5.331  0.3923 -0.7876 -0.0168
  868MOL0     O14491   9.541   6.451   5.611 -0.1566  0.1874 -0.5058
  868MOL0     C14492   9.858   6.382   5.778  0.4312 -0.6071 -0.9230
  868MOL0     C14493   9.914   6.396   5.902  0.1055  0.8073  0.3489
  868MOL0     N14494  10.281   6.512   6.368 -0.1080 -0.3195 -0.0942
  868MOL0     N14495  10.396   6.579   6.365 -0.4062  0.1163  0.6027
  868MOL0     C14496  10.375   6.754   5.889  0.3435 -0.6382  0.1091
  868MOL0     C14497  10.379   6.614   5.852  0.4272 -0.3622  0.2745
  868MOL0     C14498  10.392   6.172   5.811 -0.2018 -0.1483  0.0087
  868MOL0     C14499  10.407   6.105   5.688 -0.4192 -0.7337 -0.1424
  868MOL0     C14500  10.404   5.967   5.684  0.5086 -0.2671 -1.0511
  868MOL0     C14501  10.358   5.902   5.794 -0.0729  0.7035 -0.0816
  868MOL0     O14502  10.341   5.770   5.747  0.1571  0.3890 -0.1302
  868MOL0     C14503  10.313   5.671   5.851 -0.4311  0.4234  0.3221
  868MOL0     C14504  10.158   5.645   5.871 -0.2056  0.2040  0.5401
  868MOL0     C14505  10.085   5.562   5.757 -0.2707 -1.0315  0.6332
  868MOL0     C14506   9.946   5.517   5.779 -0.0504  0.1348 -0.3549
  868MOL0     C14507   9.850   5.625   5.781  1.6522  0.6082 -0.8577
  868MOL0     C14508   9.760   5.702   5.796  0.7981 -0.6058  0.4442
  868MOL0     C14509  10.319   5.963   5.911  0.0979  0.7715 -0.0519
  868MOL0     C14510  10.346   6.097   5.920  0.8308  0.6963  1.2921
  868MOL0     H14511  10.209   6.477   6.110  2.9866 -0.6650  0.9878
  868MOL0     H14512  10.199   6.706   6.178  2.1584  1.2508  1.0561
  868MOL0     H14513  10.246   6.904   6.241  1.9217 -2.3025 -1.4348
  868MOL0     H14514  10.136   6.968   6.121 -0.6723 -2.6503  0.0620
  868MOL0     H14515  10.194   7.130   6.280 -1.8729 -1.8533  0.2282
  868MOL0     H14516  10.229   7.184   6.122 -2.4543 -4.4258 -1.8209
  868MOL0     H14517  10.468   7.208   6.175  0.9274 -0.6354 -0.3261
  868MOL0     H14518  10.471   7.043   6.208  2.7357  1.5086 -0.3018
  868MOL0     H14519  10.536   7.186   6.394  0.4939 -0.1687 -4.5186
  868MOL0     H14520  10.371   7.257   6.387  1.5032  1.0192 -3.0184
  868MOL0     H14521  10.282   7.031   6.473 -0.2740  0.6696 -0.3770
  868MOL0     H14522  10.402   7.105   6.589 -0.0480  3.7604 -1.7480
  868MOL0     H14523  10.571   6.975   6.455  0.1808  0.3957  0.1775
  868MOL0     H14524  10.438   6.892   6.375 -0.1837 -1.9809  1.0228
  868MOL0     H14525  10.508   6.896   6.667 -0.0507  1.5711 -1.1852
  868MOL0     H14526  10.365   6.825   6.606  0.1574  0.7483  0.8873
  868MOL0     H14527  10.597   6.666   6.628 -0.4274 -1.6139 -0.3580
  868MOL0     H14528  10.602   6.711   6.464  4.0614 -0.2343  1.8935
  868MOL0     H14529  10.317   6.573   6.685  0.5029 -0.6427  0.7355
  868MOL0     H14530  10.065   6.478   6.628 -2.6475 -0.5860 -0.5048
  868MOL0     H14531  10.125   6.337   6.565  0.3140 -1.1902 -3.5904
  868MOL0     H14532   9.902   6.382   6.462  0.0355  0.1305  1.1764
  868MOL0     H14533  10.035   6.357   6.340  0.7521 -1.2646  0.9473
  868MOL0     H14534   9.908   6.628   6.427  0.2865 -0.5047  0.4467
  868MOL0     H14535  10.034   6.611   6.298 -1.1801  0.9178 -1.4197
  868MOL0     H14536   9.807   6.628   6.204  2.1444  0.1086 -2.3482
  868MOL0     H14537   9.747   6.481   6.273 -0.8628  1.8060 -0.3510
  868MOL0     H14538   9.647   6.483   6.087  0.8769  0.3095  1.3110
  868MOL0     H14539   9.541   6.483   5.871 -0.3327 -2.0658 -0.8462
  868MOL0     H14540   9.788   6.166   5.359 -0.0724  1.4526  1.5888
  868MOL0     H14541   9.824   6.199   5.126  3.5782  1.9867  1.6478
  868MOL0     H14542   9.926   6.382   4.967  0.0093 -0.4831 -1.1713
  868MOL0     H14543   9.871   6.533   5.028  0.8055 -1.8797  1.5812
  868MOL0     H14544   9.960   6.584   4.792  0.8521 -1.9587 -1.2131
  868MOL0     H14545   9.786   6.603   4.791  0.4940  1.7459 -0.5652
  868MOL0     H14546   9.778   6.358   4.756  1.5016 -1.3731  1.4016
  868MOL0     H14547   9.962   6.363   4.733  0.7942  1.7226  1.1512
  868MOL0     H14548   9.735   6.464   4.543  0.9164  2.7520 -0.6869
  868MOL0     H14549   9.893   6.516   4.514 -0.3861  1.2923  0.1721
  868MOL0     H14550   9.965   6.275   4.484 -1.0120 -2.8180 -0.0005
  868MOL0     H14551   9.846   6.335   4.380 -1.4951 -0.6422  0.4930
  868MOL0     H14552   9.790   6.138   4.617 -0.9162  0.0123  0.0687
  868MOL0     H14553   9.780   6.114   4.448  1.3294  0.2717 -0.4923
  868MOL0     H14554   9.558   6.138   4.562 -0.8140 -0.0324 -0.4353
  868MOL0     H14555   9.598   6.305   4.600 -0.8476 -0.8265  0.5653
  868MOL0     H14556   9.630   6.345   4.342 -2.4214 -0.1376 -2.9982
  868MOL0     H14557   9.467   6.335   4.418  0.4729 -1.0353  1.4029
  868MOL0     H14558   9.576   6.550   5.145  0.9531  0.4977 -0.1656
  868MOL0     H14559   9.587   6.541   5.388  1.7567  0.5904 -0.5833
  868MOL0     H14560   9.924   6.346   5.700 -1.2337 -1.1962 -2.1308
  868MOL0     H14561  10.022   6.386   5.912 -0.1536  0.1835  3.4184
  868MOL0     H14562  10.421   6.839   5.841  1.6564  0.1030  2.4944
  868MOL0     H14563  10.444   6.583   5.770  0.2134  0.6414 -0.2856
  868MOL0     H14564  10.433   6.161   5.598 -1.8756 -2.4995 -1.7400
  868MOL0     H14565  10.440   5.935   5.587 -1.2868 -1.4060 -1.3834
  868MOL0     H14566  10.351   5.706   5.947  1.5587  0.3054 -0.3824
  868MOL0     H14567  10.372   5.580   5.835 -3.0194 -1.3397  0.2357
  868MOL0     H14568  10.134   5.596   5.966 -0.2673  0.7718  0.8230
  868MOL0     H14569  10.114   5.745   5.878  1.6792  1.2689 -1.5653
  868MOL0     H14570  10.144   5.471   5.746  0.1621 -0.4990 -2.1333
  868MOL0     H14571  10.090   5.607   5.658  0.6877 -2.7620 -0.1494
  868MOL0     H14572   9.916   5.444   5.703  0.6405 -0.5207 -0.0077
  868MOL0     H14573   9.938   5.463   5.873  0.9509  2.2950  1.0375
  868MOL0     H14574   9.665   5.751   5.802  0.5239 -0.8418 -1.2886
  868MOL0     H14575  10.282   5.900   5.992  0.8437 -0.8120 -0.8983
  868MOL0     H14576  10.311   6.130   6.017 -0.2819 -0.2381  1.2280
  869MOL0     O14577   3.765   9.033   0.863 -0.8042 -0.1625  0.0203
  869MOL0     C14578   3.838   9.136   0.876  0.2743  1.5903 -0.0516
  869MOL0     O14579   3.794   9.259   0.827 -0.3440 -0.5632 -0.1622
  869MOL0     C14580   3.668   9.282   0.768 -0.0363 -0.8714 -0.5690
  869MOL0     C14581   3.630   9.421   0.777  0.6030  0.5165  0.8745
  869MOL0     C14582   3.511   9.470   0.723  0.5505 -0.0309  0.6860
  869MOL0     C14583   3.426   9.380   0.647  0.4543 -0.5557  0.0637
  869MOL0     O14584   3.316   9.418   0.581 -0.1229 -0.0843 -0.9271
  869MOL0     C14585   3.220   9.443   0.687  0.3942  0.8073  0.1698
  869MOL0     C14586   3.081   9.408   0.646 -0.2669 -0.1677  0.3281
  869MOL0     C14587   2.976   9.434   0.757 -0.0993  0.4579  0.7759
  869MOL0     C14588   2.862   9.526   0.706  0.3367  0.5697 -0.2831
  869MOL0     C14589   2.733   9.502   0.780  0.7564  0.2112  1.2542
  869MOL0     C14590   2.736   9.553   0.914 -0.1634 -0.5162  0.0024
  869MOL0     C14591   2.594   9.556   0.969 -0.0137 -0.2031  0.2953
  869MOL0     C14592   2.584   9.607   1.109 -0.6972 -0.3190  0.1146
  869MOL0     N14593   2.453   9.598   1.171  0.2694  0.2739 -0.6740
  869MOL0     C14594   2.422   9.572   1.308 -0.1687 -0.9623 -0.2254
  869MOL0     C14595   2.294   9.576   1.321  0.3179 -0.2249  0.5464
  869MOL0     C14596   2.227   9.547   1.449  0.1078 -0.2574  0.4973
  869MOL0     C14597   2.092   9.492   1.421 -0.4151  0.3374 -0.3965
  869MOL0     C14598   2.013   9.465   1.549 -0.2628  0.0738  0.3374
  869MOL0     C14599   1.957   9.320   1.546 -0.0874 -0.3289 -0.6580
  869MOL0     O14600   1.887   9.298   1.677 -0.6369  0.2837 -0.5847
  869MOL0     C14601   1.948   9.229   1.782 -0.6795 -0.4260  0.2846
  869MOL0     C14602   1.871   9.172   1.874  0.1842  0.5561 -0.2245
  869MOL0     C14603   1.928   9.103   1.984  0.5641 -0.6204  0.1376
  869MOL0     C14604   2.075   9.093   2.000  1.3340  0.4013 -0.1931
  869MOL0     C14605   2.133   9.015   2.107  0.1480  1.0160 -0.2748
  869MOL0     O14606   2.135   9.075   2.227 -0.0309 -0.3870 -0.0406
  869MOL0     C14607   2.195   9.026   2.340 -0.2250  0.4132 -0.5244
  869MOL0     C14608   2.201   9.130   2.439 -0.0672  0.1063  0.5011
  869MOL0     C14609   2.271   9.111   2.557 -1.0415  1.3230 -0.3957
  869MOL0     C14610   2.328   8.986   2.589 -0.3357 -0.7954  0.8117
  869MOL0     O14611   2.375   8.973   2.719 -0.1693  0.2332  0.0068
  869MOL0     C14612   2.517   8.982   2.720  0.3715 -0.0300  0.4129
  869MOL0     C14613   2.582   8.934   2.847 -0.2429  0.5068 -0.7314
  869MOL0     C14614   2.549   8.781   2.884 -0.0190 -0.7273  0.4947
  869MOL0     C14615   2.611   8.683   2.774  0.5134  1.0705  0.1154
  869MOL0     C14616   2.509   8.568   2.770  0.6378  0.5562  0.5676
  869MOL0     C14617   2.528   8.481   2.639 -0.3658 -0.9469 -0.0308
  869MOL0     C14618   2.405   8.402   2.612  0.0330  0.0999  0.5546
  869MOL0     C14619   2.346   8.322   2.724  0.3305 -0.8718 -0.2854
  869MOL0    Cl14620   2.461   8.204   2.790 -0.5159 -0.1029 -0.0349
  869MOL0     C14621   2.327   8.883   2.489  0.0736  0.1094 -1.0137
  869MOL0     C14622   2.260   8.901   2.370  0.8172  0.4739  0.4076
  869MOL0     O14623   2.214   8.922   2.069  0.2698  0.2837  0.5459
  869MOL0     C14624   2.150   9.155   1.900  0.5756  0.4409  0.4399
  869MOL0     C14625   2.089   9.221   1.799  0.0568 -0.0548 -0.3706
  869MOL0     N14626   2.245   9.621   1.203  0.2638 -0.3581 -0.3000
  869MOL0     N14627   2.334   9.636   1.122  0.1896  0.3732  0.0572
  869MOL0     C14628   3.468   9.249   0.631 -0.1026 -0.5176 -0.8880
  869MOL0     C14629   3.585   9.192   0.701 -0.1862  0.1253  1.6102
  869MOL0     C14630   3.973   9.132   0.915 -0.5151  0.1091 -0.6448
  869MOL0     C14631   4.061   9.247   0.914 -0.0884  0.5577  0.3455
  869MOL0     C14632   4.189   9.238   0.960 -0.1822  0.6694  0.4025
  869MOL0     C14633   4.225   9.123   1.031  0.4319 -0.6657  1.0229
  869MOL0     O14634   4.347   9.108   1.093 -0.6346  0.2337 -0.0698
  869MOL0     C14635   4.470   9.130   1.021  0.3921  0.3907 -0.2679
  869MOL0     C14636   4.516   9.018   0.937 -0.9519 -0.3776 -0.0820
  869MOL0     C14637   4.527   8.877   1.007 -0.8687  0.3537  0.6963
  869MOL0     C14638   4.460   8.761   0.924  0.4997 -0.5169  0.1510
  869MOL0     C14639   4.314   8.739   0.954 -0.0478 -0.3928 -0.3043
  869MOL0     C14640   4.196   8.712   0.967  1.3425 -0.3994 -0.1325
  869MOL0     C14641   4.140   9.018   1.037  0.7159  0.7479 -0.1059
  869MOL0     C14642   4.019   9.018   0.985  0.1478  0.3189  0.0080
  869MOL0     H14643   3.689   9.491   0.835  2.1252  2.5771 -2.8616
  869MOL0     H14644   3.481   9.571   0.750  0.8384  0.5303 -0.9703
  869MOL0     H14645   3.225   9.550   0.710 -0.4991  0.8715  0.0827
  869MOL0     H14646   3.255   9.405   0.783  2.7328 -0.0743 -0.9333
  869MOL0     H14647   3.085   9.304   0.612  2.7740  0.3762 -1.3878
  869MOL0     H14648   3.054   9.458   0.553  1.8534 -1.2282 -0.9390
  869MOL0     H14649   3.022   9.472   0.849 -0.4327 -0.8027  1.4856
  869MOL0     H14650   2.936   9.338   0.791 -1.3394  1.7599  3.2223
  869MOL0     H14651   2.890   9.631   0.714 -2.8873  1.4895  0.1180
  869MOL0     H14652   2.841   9.504   0.601 -3.1847 -1.1006  0.6400
  869MOL0     H14653   2.701   9.398   0.762 -0.8903  0.8680  0.1370
  869MOL0     H14654   2.662   9.561   0.721  2.1793 -0.1712 -0.9769
  869MOL0     H14655   2.782   9.652   0.911 -0.9067 -0.1625 -0.0101
  869MOL0     H14656   2.792   9.493   0.986  0.6053 -2.9967 -2.4860
  869MOL0     H14657   2.533   9.620   0.903 -0.7913 -2.2907 -1.1084
  869MOL0     H14658   2.544   9.459   0.966  3.6488 -2.2528 -2.0941
  869MOL0     H14659   2.616   9.712   1.114 -0.8012 -0.2647 -0.3749
  869MOL0     H14660   2.650   9.541   1.166  1.7208 -0.0491 -2.1934
  869MOL0     H14661   2.490   9.546   1.389  1.6782  2.0875 -0.6312
  869MOL0     H14662   2.218   9.644   1.500 -1.3058 -0.5549  0.8551
  869MOL0     H14663   2.275   9.467   1.508  1.5989  0.0762 -0.2141
  869MOL0     H14664   2.105   9.394   1.374 -1.6247 -0.8632  1.6319
  869MOL0     H14665   2.027   9.558   1.362 -1.7498 -0.6224 -0.0451
  869MOL0     H14666   2.070   9.493   1.637  1.7754 -0.0131 -0.8867
  869MOL0     H14667   1.922   9.522   1.530 -1.1711 -1.5464 -0.4006
  869MOL0     H14668   2.029   9.237   1.543  0.9985  0.5957 -0.7711
  869MOL0     H14669   1.877   9.312   1.472 -1.6880 -0.8757  1.0275
  869MOL0     H14670   1.764   9.183   1.858 -0.1589  1.1528  2.1110
  869MOL0     H14671   1.870   9.047   2.057  0.1126  1.2241  1.2639
  869MOL0     H14672   2.148   9.224   2.432  1.5991  1.0214 -0.3428
  869MOL0     H14673   2.279   9.193   2.628  1.3285 -0.0301  1.0003
  869MOL0     H14674   2.555   9.081   2.694  0.1633 -0.3952 -1.4185
  869MOL0     H14675   2.559   8.918   2.642 -1.2719  0.7279 -1.1517
  869MOL0     H14676   2.544   8.993   2.930 -0.1628 -0.1665 -0.2067
  869MOL0     H14677   2.687   8.956   2.825 -0.8939  2.9103 -1.8061
  869MOL0     H14678   2.440   8.776   2.891 -0.2095  2.5054  1.8844
  869MOL0     H14679   2.604   8.750   2.973 -1.0236 -2.1964  0.6399
  869MOL0     H14680   2.602   8.728   2.675 -0.4210 -2.5751 -1.5984
  869MOL0     H14681   2.714   8.670   2.809  0.5097  3.3010  1.1477
  869MOL0     H14682   2.404   8.597   2.779  0.4911  0.3808 -0.4288
  869MOL0     H14683   2.528   8.504   2.857 -0.4631 -0.0548  0.3791
  869MOL0     H14684   2.604   8.404   2.653 -1.7471 -2.4013 -0.2058
  869MOL0     H14685   2.547   8.543   2.551  0.0029  1.4826  1.6427
  869MOL0     H14686   2.326   8.471   2.582 -1.0003 -1.1598  0.3146
  869MOL0     H14687   2.411   8.328   2.532 -2.1848  0.1137  0.3343
  869MOL0     H14688   2.259   8.263   2.692  2.2225 -2.8632 -2.0746
  869MOL0     H14689   2.314   8.399   2.794 -0.3373 -1.2691 -0.1391
  869MOL0     H14690   2.367   8.783   2.505  0.2412  0.3102 -0.1226
  869MOL0     H14691   2.275   8.827   2.292 -3.4750 -1.7684  1.3719
  869MOL0     H14692   2.258   9.144   1.895  0.3165 -2.4837 -0.4084
  869MOL0     H14693   2.142   9.271   1.718 -0.6188  0.2157 -0.6516
  869MOL0     H14694   3.413   9.185   0.563  1.8356 -1.4191 -1.6888
  869MOL0     H14695   3.624   9.092   0.681  1.8377  0.8753  1.4919
  869MOL0     H14696   4.034   9.346   0.877 -2.5101  0.6197  2.0020
  869MOL0     H14697   4.259   9.320   0.945 -0.0871  0.4696 -0.2980
  869MOL0     H14698   4.536   9.156   1.104 -1.2515 -0.2302  1.3021
  869MOL0     H14699   4.474   9.220   0.959  0.3316  0.7064  0.1746
  869MOL0     H14700   4.441   9.013   0.858 -0.7747 -0.7586 -0.2285
  869MOL0     H14701   4.610   9.050   0.891 -1.6624 -3.0609 -3.8832
  869MOL0     H14702   4.485   8.886   1.108  0.0018 -2.0487  1.3309
  869MOL0     H14703   4.630   8.845   1.022 -0.7153  0.7864  0.5745
  869MOL0     H14704   4.468   8.771   0.815 -1.3375 -1.2526 -0.0786
  869MOL0     H14705   4.502   8.667   0.961 -1.0081 -0.5485  1.9365
  869MOL0     H14706   4.091   8.696   0.975  1.5801 -1.1446  2.1415
  869MOL0     H14707   4.181   8.940   1.102 -1.0364  0.8158  1.1553
  869MOL0     H14708   3.948   8.937   0.999  0.1629  0.6624  2.3397
  870MOL0     O14709   5.844   6.328   6.275  0.2037  0.8293 -0.2879
  870MOL0     C14710   5.813   6.411   6.192  0.2322 -0.2941  0.8010
  870MOL0     O14711   5.699   6.492   6.194 -0.6817  0.1180 -0.3417
  870MOL0     C14712   5.613   6.483   6.305 -0.2244  0.2107 -0.0498
  870MOL0     C14713   5.538   6.364   6.336  0.2973  0.2809 -0.1048
  870MOL0     C14714   5.460   6.365   6.458  0.7195 -0.3987  0.2934
  870MOL0     C14715   5.452   6.481   6.536  0.2720 -0.0443  0.7750
  870MOL0     O14716   5.393   6.468   6.659 -0.3267  0.2449  0.3084
  870MOL0     C14717   5.384   6.583   6.743 -0.1388  0.0034 -0.5173
  870MOL0     C14718   5.294   6.557   6.855 -0.1570  0.6574  0.8579
  870MOL0     C14719   5.156   6.545   6.798  0.1219  0.0524  0.3234
  870MOL0     C14720   5.058   6.465   6.887 -0.2666 -0.6959 -0.2088
  870MOL0     C14721   4.922   6.491   6.830 -0.0003  0.8421 -0.1561
  870MOL0     C14722   4.813   6.396   6.890  0.3062  0.7382 -0.2626
  870MOL0     C14723   4.770   6.430   7.031  0.3210  0.2955  0.1875
  870MOL0     C14724   4.697   6.571   7.052 -0.5287 -0.6237  0.1168
  870MOL0     N14725   4.581   6.586   6.966  0.5520  0.0972 -0.1569
  870MOL0     C14726   4.484   6.485   6.944 -0.6829 -0.8834  0.9757
  870MOL0     C14727   4.397   6.553   6.864  0.5970 -1.8288 -0.4494
  870MOL0     C14728   4.257   6.502   6.815 -0.5755 -0.6660  0.0388
  870MOL0     C14729   4.257   6.375   6.720 -0.2725  0.0956  0.8189
  870MOL0     C14730   4.272   6.409   6.572  0.0992  0.0663 -0.2126
  870MOL0     C14731   4.138   6.414   6.503 -0.4722  0.1885 -0.3839
  870MOL0     O14732   4.150   6.462   6.375  0.1914  0.3523  0.0383
  870MOL0     C14733   4.212   6.376   6.289  0.0373  1.0017 -0.3579
  870MOL0     C14734   4.194   6.241   6.264 -0.4685  0.1647 -0.3324
  870MOL0     C14735   4.264   6.180   6.153 -0.9673  0.2985  1.2670
  870MOL0     C14736   4.354   6.251   6.081 -1.2622  0.1745 -0.6459
  870MOL0     C14737   4.438   6.183   5.973 -0.7207  0.3056  0.0108
  870MOL0     O14738   4.450   6.046   5.986  0.0066 -0.1201 -0.5449
  870MOL0     C14739   4.536   5.965   5.907 -0.3546 -0.3216  0.5050
  870MOL0     C14740   4.650   6.006   5.819 -0.3359 -0.4785 -0.4758
  870MOL0     C14741   4.711   5.914   5.734 -0.7043  0.8082 -0.6790
  870MOL0     C14742   4.662   5.784   5.735 -1.3269 -0.4363 -0.3887
  870MOL0     O14743   4.706   5.684   5.648  0.0215  0.0451  0.8837
  870MOL0     C14744   4.826   5.702   5.573  0.6477  0.6442  0.2045
  870MOL0     C14745   4.849   5.577   5.484  0.8685 -0.4138 -0.4041
  870MOL0     C14746   4.935   5.616   5.375 -0.4598 -0.1250  0.3018
  870MOL0     C14747   4.985   5.491   5.303 -0.1483 -1.3060  1.0095
  870MOL0     C14748   5.043   5.508   5.164 -0.1678  0.2533 -1.0378
  870MOL0     C14749   4.955   5.565   5.048 -0.2872  0.2386 -0.1484
  870MOL0     C14750   4.816   5.496   5.046 -0.3141 -0.7381 -1.2274
  870MOL0     C14751   4.745   5.494   4.908 -0.8717  1.0340 -0.1375
  870MOL0    Cl14752   4.712   5.663   4.878  0.1592  0.0678 -0.1686
  870MOL0     C14753   4.563   5.744   5.820 -0.7478 -0.0423 -0.9664
  870MOL0     C14754   4.502   5.827   5.899  0.1645 -1.2477  0.1889
  870MOL0     O14755   4.469   6.246   5.874 -0.9916  0.1800  0.1914
  870MOL0     C14756   4.379   6.384   6.110  0.2473 -0.0323  0.2271
  870MOL0     C14757   4.309   6.441   6.211 -0.3260 -0.7407  1.1862
  870MOL0     N14758   4.449   6.673   6.815 -1.0366 -0.3884  0.4083
  870MOL0     N14759   4.565   6.684   6.870  0.7429  0.6003 -0.5828
  870MOL0     C14760   5.514   6.596   6.486 -0.1880  0.0631 -0.0126
  870MOL0     C14761   5.607   6.595   6.384 -0.2750  0.5670 -0.2447
  870MOL0     C14762   5.905   6.424   6.076 -0.0222 -0.6233 -0.2550
  870MOL0     C14763   5.872   6.494   5.955 -0.1627  0.3176 -0.9801
  870MOL0     C14764   5.952   6.477   5.842 -0.4224  0.1618  0.2278
  870MOL0     C14765   6.076   6.410   5.849 -0.6335  0.7489 -0.3437
  870MOL0     O14766   6.153   6.424   5.742 -0.7445 -0.2814 -0.2140
  870MOL0     C14767   6.298   6.395   5.759  0.0536 -0.1914 -0.4419
  870MOL0     C14768   6.368   6.473   5.646  0.2995 -0.0693  0.8184
  870MOL0     C14769   6.332   6.412   5.505  0.3526 -0.3879 -0.0895
  870MOL0     C14770   6.369   6.509   5.390 -0.0010  1.2602 -0.1002
  870MOL0     C14771   6.513   6.528   5.379  1.1363 -0.7526  0.1622
  870MOL0     C14772   6.635   6.541   5.378  0.4886  0.3155  0.1350
  870MOL0     C14773   6.104   6.336   5.971  0.5872 -0.2004  0.9605
  870MOL0     C14774   6.019   6.347   6.080  0.3632  0.5535 -0.1372
  870MOL0     H14775   5.542   6.274   6.274 -0.9042 -0.9741  1.5390
  870MOL0     H14776   5.397   6.284   6.495  2.3896 -0.7657  2.5523
  870MOL0     H14777   5.336   6.663   6.686 -1.5011 -0.8048 -0.5604
  870MOL0     H14778   5.483   6.606   6.784 -0.0790 -1.1823  0.0563
  870MOL0     H14779   5.292   6.632   6.934 -6.3003  1.3699  0.5049
  870MOL0     H14780   5.328   6.471   6.913  1.1662  3.0347  3.8646
  870MOL0     H14781   5.154   6.500   6.698  2.8495 -1.7914  0.9866
  870MOL0     H14782   5.131   6.650   6.777  0.3937 -0.5900 -4.3309
  870MOL0     H14783   5.091   6.361   6.882  0.5419 -0.6449  2.5628
  870MOL0     H14784   5.054   6.500   6.990 -1.4060  0.7661 -0.7098
  870MOL0     H14785   4.916   6.477   6.722 -3.9047  1.2965 -0.1512
  870MOL0     H14786   4.889   6.592   6.854 -0.4556  0.9749 -1.2817
  870MOL0     H14787   4.847   6.292   6.879 -3.4908 -0.8260  1.2692
  870MOL0     H14788   4.729   6.409   6.821  0.4976 -1.4784 -0.9897
  870MOL0     H14789   4.706   6.349   7.066 -2.4068  2.6283  1.0463
  870MOL0     H14790   4.858   6.419   7.094 -0.9529 -3.2392  1.5827
  870MOL0     H14791   4.765   6.656   7.047  0.4090 -1.2368  1.6391
  870MOL0     H14792   4.656   6.574   7.153  2.7488  2.0307  1.5720
  870MOL0     H14793   4.467   6.398   7.005 -0.5713  0.0337  2.3556
  870MOL0     H14794   4.195   6.576   6.765 -0.3664  1.4141  2.6339
  870MOL0     H14795   4.204   6.461   6.901 -0.8487 -2.5902 -0.9952
  870MOL0     H14796   4.154   6.340   6.728  0.2795 -2.8593 -2.4034
  870MOL0     H14797   4.334   6.307   6.758 -0.4466 -1.0929 -0.8361
  870MOL0     H14798   4.321   6.505   6.558 -1.1891  0.6763 -0.7185
  870MOL0     H14799   4.332   6.325   6.536  2.8591  1.9453 -0.3047
  870MOL0     H14800   4.056   6.467   6.551 -3.3318 -0.3839 -4.1468
  870MOL0     H14801   4.101   6.311   6.492  3.0705 -1.2622 -0.0142
  870MOL0     H14802   4.119   6.181   6.314 -0.2057  1.2798  1.4811
  870MOL0     H14803   4.242   6.075   6.133  1.5451  0.1733 -1.5063
  870MOL0     H14804   4.696   6.105   5.827 -2.1525  0.6009 -2.4113
  870MOL0     H14805   4.794   5.944   5.670  0.8622  1.8459  1.6694
  870MOL0     H14806   4.914   5.705   5.639  2.1772 -3.1850 -1.3756
  870MOL0     H14807   4.833   5.789   5.508  2.0462  1.6558  1.6261
  870MOL0     H14808   4.755   5.549   5.435 -1.3499  1.4146  2.4358
  870MOL0     H14809   4.901   5.493   5.531 -0.7273 -1.2256 -0.0017
  870MOL0     H14810   5.026   5.664   5.412  0.3236 -0.7186 -0.8006
  870MOL0     H14811   4.890   5.693   5.311 -1.1405  0.4702  1.4683
  870MOL0     H14812   5.060   5.448   5.370  1.7027 -0.3784 -0.3653
  870MOL0     H14813   4.899   5.423   5.309 -1.2156  0.0174  1.3607
  870MOL0     H14814   5.074   5.406   5.140 -1.1105  0.1767 -2.0208
  870MOL0     H14815   5.138   5.562   5.170  1.8878 -3.2050  0.5283
  870MOL0     H14816   4.989   5.543   4.946  1.8606 -0.3525  0.6488
  870MOL0     H14817   4.952   5.673   5.061 -0.8883  0.2788 -0.5476
  870MOL0     H14818   4.842   5.395   5.079  0.0311  0.1099  1.3156
  870MOL0     H14819   4.748   5.537   5.121 -0.3770 -1.6344 -0.7766
  870MOL0     H14820   4.661   5.426   4.917 -0.2021 -0.0613 -1.6966
  870MOL0     H14821   4.812   5.465   4.827 -3.4489 -1.5585 -1.5072
  870MOL0     H14822   4.537   5.638   5.822  0.2082 -0.2850 -0.5600
  870MOL0     H14823   4.423   5.785   5.961  0.6428 -2.3740  0.0611
  870MOL0     H14824   4.463   6.433   6.061 -1.8705  1.8403 -1.8143
  870MOL0     H14825   4.321   6.547   6.229 -0.6725 -0.3572 -0.6215
  870MOL0     H14826   5.503   6.692   6.536  0.3022 -0.5310  1.2730
  870MOL0     H14827   5.674   6.674   6.353 -0.5501 -0.4960 -3.9811
  870MOL0     H14828   5.789   6.564   5.956 -0.2015  0.4232  3.0293
  870MOL0     H14829   5.946   6.531   5.748  4.6539 -0.9289 -0.9957
  870MOL0     H14830   6.307   6.287   5.746 -1.1121 -0.3782  0.1217
  870MOL0     H14831   6.336   6.432   5.855 -0.8880  0.1127 -0.1718
  870MOL0     H14832   6.335   6.577   5.656 -1.4102 -0.2594 -1.9852
  870MOL0     H14833   6.476   6.472   5.663  0.1564 -0.3594  1.7851
  870MOL0     H14834   6.227   6.384   5.503  1.3578 -5.4434  1.9530
  870MOL0     H14835   6.392   6.322   5.491  0.0797 -0.6825  0.6203
  870MOL0     H14836   6.335   6.463   5.297 -1.3745 -1.4146  1.5778
  870MOL0     H14837   6.317   6.604   5.406 -2.1472  0.5296 -2.1755
  870MOL0     H14838   6.740   6.560   5.370  0.5197 -0.0811 -0.5002
  870MOL0     H14839   6.193   6.274   5.979  0.4886 -0.7292 -1.3023
  870MOL0     H14840   6.054   6.290   6.165  1.9556  2.2678  0.4144
  871MOL0     O14841   1.026   0.397   3.940  0.0422 -0.2581  0.6359
  871MOL0     C14842   0.961   0.362   3.842 -0.1066 -0.0481  1.1121
  871MOL0     O14843   0.874   0.441   3.776  0.0787  0.4583  0.6666
  871MOL0     C14844   0.861   0.569   3.821 -0.3369  0.0181 -0.8001
  871MOL0     C14845   0.835   0.606   3.960  0.2674 -0.0455 -0.7274
  871MOL0     C14846   0.804   0.735   3.993  0.7913  0.5464 -0.1518
  871MOL0     C14847   0.799   0.835   3.891 -0.3539  0.1658 -0.6277
  871MOL0     O14848   0.758   0.962   3.896  0.4177 -0.7283 -0.7358
  871MOL0     C14849   0.735   1.020   4.022 -0.0665  1.3634  0.5834
  871MOL0     C14850   0.757   1.169   4.010  0.0054 -0.1029 -1.0439
  871MOL0     C14851   0.738   1.252   4.139 -0.6600 -0.4375 -0.2616
  871MOL0     C14852   0.752   1.400   4.105 -0.3215  0.4093  0.3460
  871MOL0     C14853   0.739   1.506   4.217 -0.8763 -0.2642  0.5452
  871MOL0     C14854   0.835   1.473   4.334 -0.3002  0.5571  0.7425
  871MOL0     C14855   0.812   1.569   4.450  0.3668  0.0629 -0.6991
  871MOL0     C14856   0.863   1.715   4.423 -0.7653  0.0158  0.4505
  871MOL0     N14857   0.859   1.800   4.542 -0.5471 -0.0480 -0.6518
  871MOL0     C14858   0.743   1.834   4.609  0.5103 -0.2686  0.4157
  871MOL0     C14859   0.791   1.874   4.728  0.6069 -0.0575 -0.0446
  871MOL0     C14860   0.721   1.938   4.836 -0.5064  0.0818 -0.1397
  871MOL0     C14861   0.613   1.859   4.891  0.3413  0.4582 -0.6298
  871MOL0     C14862   0.656   1.724   4.950 -0.5060 -0.0597  0.5618
  871MOL0     C14863   0.548   1.651   5.044  0.3017 -0.1185  0.7580
  871MOL0     O14864   0.429   1.613   4.976  0.2863  0.3406  0.5372
  871MOL0     C14865   0.454   1.532   4.870  0.6358 -0.2656 -0.0526
  871MOL0     C14866   0.451   1.568   4.734 -0.8867 -0.3722  0.8416
  871MOL0     C14867   0.468   1.474   4.627 -0.4318 -0.2396  0.1979
  871MOL0     C14868   0.494   1.342   4.642 -0.5954 -0.9622  0.2273
  871MOL0     C14869   0.515   1.240   4.530  0.0590 -0.0164 -0.9206
  871MOL0     O14870   0.532   1.110   4.572 -0.3252 -0.2536  0.1244
  871MOL0     C14871   0.595   1.013   4.500  0.4049  0.1992 -0.7921
  871MOL0     C14872   0.713   1.034   4.433  0.3443  0.2286  1.0181
  871MOL0     C14873   0.775   0.910   4.387  1.0282 -1.0478 -0.2838
  871MOL0     C14874   0.719   0.779   4.408  0.5200 -0.2416  0.2526
  871MOL0     O14875   0.779   0.659   4.395  0.1155  0.4178  0.3960
  871MOL0     C14876   0.913   0.661   4.348 -0.9274 -0.4590  0.0002
  871MOL0     C14877   0.965   0.519   4.330  0.8171 -0.0142 -1.2458
  871MOL0     C14878   1.109   0.501   4.275  0.1238  0.2732  0.0854
  871MOL0     C14879   1.169   0.365   4.272 -0.3155 -1.0339 -0.4212
  871MOL0     C14880   1.278   0.361   4.168  0.7067  0.2279  0.1728
  871MOL0     C14881   1.407   0.428   4.194 -0.1253  0.0791  0.3121
  871MOL0     C14882   1.510   0.401   4.091 -0.1552  0.7585  0.1574
  871MOL0     C14883   1.555   0.265   4.067  0.7880  0.1563 -0.3055
  871MOL0    Cl14884   1.679   0.252   3.942  0.0689 -0.3903 -0.0811
  871MOL0     C14885   0.596   0.766   4.468 -0.2025 -1.5154 -0.0237
  871MOL0     C14886   0.533   0.884   4.512 -0.5791  0.0980 -0.0202
  871MOL0     O14887   0.534   1.291   4.425  0.1072 -0.9881 -0.3727
  871MOL0     C14888   0.506   1.303   4.777 -0.2997 -0.2537  0.5786
  871MOL0     C14889   0.479   1.400   4.889 -0.4885 -0.1320  0.0149
  871MOL0     N14890   0.930   1.864   4.737  1.3958  0.2552 -0.1865
  871MOL0     N14891   0.966   1.812   4.623 -0.3224  0.8831  0.6741
  871MOL0     C14892   0.835   0.806   3.763 -0.6180  0.0840 -0.1544
  871MOL0     C14893   0.865   0.671   3.727  0.4093  0.0899 -0.0972
  871MOL0     C14894   0.984   0.217   3.792  0.7870 -0.7552 -0.5903
  871MOL0     C14895   1.061   0.134   3.874  0.1653 -0.5880 -0.1926
  871MOL0     C14896   1.074   0.006   3.832 -0.2055  0.4890  0.4719
  871MOL0     C14897   1.020  -0.039   3.709  0.4230  1.0736 -0.2011
  871MOL0     O14898   1.046  -0.163   3.661  0.2890  0.2360  0.1376
  871MOL0     C14899   1.119  -0.263   3.746  0.4324 -0.0192  0.0610
  871MOL0     C14900   1.137  -0.392   3.676  0.2414  0.1432  0.1017
  871MOL0     C14901   1.221  -0.369   3.557 -0.3702 -0.5158 -0.0351
  871MOL0     C14902   1.253  -0.491   3.469 -1.1186 -0.5117 -0.6745
  871MOL0     C14903   1.354  -0.577   3.529  0.2743  0.0173  0.2342
  871MOL0     C14904   1.443  -0.645   3.584 -0.6504 -0.4625 -0.5862
  871MOL0     C14905   0.941   0.045   3.631 -0.0436 -1.1437  0.3313
  871MOL0     C14906   0.915   0.172   3.678  0.1141 -0.0385  0.5401
  871MOL0     H14907   0.816   0.532   4.037 -0.2969 -0.6533 -1.4388
  871MOL0     H14908   0.779   0.762   4.096 -1.7373 -2.1422  0.0720
  871MOL0     H14909   0.795   0.983   4.106 -2.6194  0.6259  2.1696
  871MOL0     H14910   0.635   0.994   4.056  1.2186 -3.2365  1.4784
  871MOL0     H14911   0.695   1.206   3.927  1.2640  1.9562 -1.1348
  871MOL0     H14912   0.859   1.190   3.977 -0.0932  3.2456  0.3390
  871MOL0     H14913   0.804   1.218   4.219  2.7868  4.3173 -0.6164
  871MOL0     H14914   0.637   1.230   4.174 -0.4883 -1.0236 -0.1331
  871MOL0     H14915   0.851   1.413   4.059  0.2770 -2.0456  0.7990
  871MOL0     H14916   0.685   1.430   4.023  1.2701  0.6879 -0.9236
  871MOL0     H14917   0.636   1.515   4.254 -0.1848 -0.5497  2.6382
  871MOL0     H14918   0.765   1.603   4.173 -2.2173 -0.1877 -0.1508
  871MOL0     H14919   0.937   1.463   4.295  0.5188  1.8909  2.3892
  871MOL0     H14920   0.810   1.375   4.376  3.6497 -0.8945  0.1460
  871MOL0     H14921   0.706   1.573   4.477 -0.1835 -1.4221 -2.4236
  871MOL0     H14922   0.873   1.536   4.535 -1.3743  1.4943  1.1874
  871MOL0     H14923   0.811   1.768   4.342  0.9547  0.8999 -0.1141
  871MOL0     H14924   0.967   1.706   4.390 -1.2829  0.0320 -1.3191
  871MOL0     H14925   0.645   1.823   4.564 -0.2576 -0.9496  2.1639
  871MOL0     H14926   0.670   2.029   4.804  0.0259  0.3682 -0.2022
  871MOL0     H14927   0.794   1.972   4.910 -2.5510  2.3591  0.9697
  871MOL0     H14928   0.542   1.836   4.811  1.3396 -4.1211 -0.4765
  871MOL0     H14929   0.566   1.925   4.965 -2.9219 -0.7321 -1.4513
  871MOL0     H14930   0.683   1.651   4.873  3.9171  0.2999  1.5334
  871MOL0     H14931   0.746   1.745   5.009 -0.7297  1.9824  0.2459
  871MOL0     H14932   0.527   1.719   5.127  0.7156  0.2148  0.5969
  871MOL0     H14933   0.599   1.567   5.093 -3.9673 -0.2768  5.8105
  871MOL0     H14934   0.424   1.670   4.711  0.2590  0.0177  1.2151
  871MOL0     H14935   0.458   1.516   4.527 -0.0083  2.9788  1.3872
  871MOL0     H14936   0.742   1.133   4.401 -1.0997  0.3637 -0.0029
  871MOL0     H14937   0.865   0.923   4.328  2.2498 -0.8158  1.5579
  871MOL0     H14938   0.984   0.714   4.412  0.0062 -0.4441 -1.0246
  871MOL0     H14939   0.907   0.712   4.252  2.5567 -0.7166 -0.4792
  871MOL0     H14940   0.894   0.465   4.267 -0.2272  0.1223 -0.2325
  871MOL0     H14941   0.968   0.484   4.434 -0.6502  1.8378 -0.5269
  871MOL0     H14942   1.175   0.569   4.329 -1.3428  2.9063 -1.2711
  871MOL0     H14943   1.095   0.528   4.169  0.6210 -2.6879 -0.8370
  871MOL0     H14944   1.214   0.338   4.368  2.5278  0.7101 -1.1649
  871MOL0     H14945   1.091   0.293   4.243 -2.2732  0.0960  1.6722
  871MOL0     H14946   1.251   0.392   4.067 -1.1710  0.1477  0.6204
  871MOL0     H14947   1.289   0.252   4.163  1.4117  0.0571  3.2763
  871MOL0     H14948   1.428   0.387   4.293 -2.7123 -1.9993  0.1266
  871MOL0     H14949   1.415   0.535   4.214  3.6441  0.1717 -0.9779
  871MOL0     H14950   1.476   0.441   3.995  1.0198  0.5537 -0.3731
  871MOL0     H14951   1.599   0.462   4.109  0.3235  1.2800 -3.2554
  871MOL0     H14952   1.465   0.212   4.036  0.0976 -0.1509  2.0424
  871MOL0     H14953   1.606   0.228   4.156 -2.8506  0.7619  2.2506
  871MOL0     H14954   0.563   0.663   4.482  2.5291 -2.3840  0.6601
  871MOL0     H14955   0.440   0.871   4.566 -0.7362 -3.9383 -0.8995
  871MOL0     H14956   0.505   1.199   4.809 -2.2924  0.3319  2.6654
  871MOL0     H14957   0.483   1.369   4.993  0.6524 -0.6929 -0.1830
  871MOL0     H14958   0.832   0.890   3.695  0.2371  0.1614 -0.1062
  871MOL0     H14959   0.873   0.640   3.623  0.7802  1.3849 -0.4689
  871MOL0     H14960   1.112   0.161   3.966  1.5670 -1.3194 -0.7192
  871MOL0     H14961   1.140  -0.048   3.899  3.0861  2.3648 -1.0010
  871MOL0     H14962   1.070  -0.271   3.843 -0.2021 -1.2487 -0.3424
  871MOL0     H14963   1.223  -0.229   3.749 -0.0338  2.3381 -3.6646
  871MOL0     H14964   1.194  -0.457   3.743  1.7535  0.7312 -0.5726
  871MOL0     H14965   1.032  -0.418   3.655 -0.3828  1.1645  1.7372
  871MOL0     H14966   1.309  -0.324   3.604 -0.5341 -0.9485  0.7092
  871MOL0     H14967   1.162  -0.296   3.501  0.3086  0.6786  0.7762
  871MOL0     H14968   1.163  -0.545   3.438 -1.1878  0.6777 -2.6855
  871MOL0     H14969   1.307  -0.454   3.382  2.1047 -3.8221 -0.3506
  871MOL0     H14970   1.525  -0.701   3.625 -1.8299 -0.9346  1.2336
  871MOL0     H14971   0.900   0.012   3.537  1.3602  1.0115 -1.1390
  871MOL0     H14972   0.842   0.229   3.622  0.4275 -0.5823 -0.4508
  872MOL0     O14973   2.693   4.417   7.652 -0.3740 -0.1745  0.7127
  872MOL0     C14974   2.690   4.545   7.651  0.1579 -0.3332  0.4149
  872MOL0     O14975   2.789   4.625   7.691  0.1699  0.0757 -0.5609
  872MOL0     C14976   2.909   4.564   7.718  0.9612 -0.2828 -0.1402
  872MOL0     C14977   2.941   4.480   7.828  0.2008  0.2240  0.2516
  872MOL0     C14978   3.075   4.426   7.845  1.3338 -0.9436 -0.2098
  872MOL0     C14979   3.171   4.450   7.750  0.4100 -0.4987  0.5627
  872MOL0     O14980   3.300   4.428   7.784  1.0132 -0.1930 -0.0070
  872MOL0     C14981   3.336   4.347   7.895 -0.4173  0.9781 -1.0793
  872MOL0     C14982   3.489   4.315   7.872 -0.0790 -0.3136 -0.3820
  872MOL0     C14983   3.529   4.200   7.965  0.4461 -0.0295 -0.8442
  872MOL0     C14984   3.504   4.065   7.906 -0.2065 -0.1012  0.3898
  872MOL0     C14985   3.519   3.949   7.986  0.8116 -0.7000  0.0874
  872MOL0     C14986   3.669   3.924   8.029 -0.4596  0.1624  0.2853
  872MOL0     C14987   3.665   3.805   8.118 -0.9559  0.0003 -0.4174
  872MOL0     C14988   3.796   3.767   8.188  0.0031 -0.0879 -0.2075
  872MOL0     N14989   3.777   3.650   8.277  0.5919 -0.4619 -0.5588
  872MOL0     C14990   3.720   3.638   8.403  0.5089 -0.7293  0.1377
  872MOL0     C14991   3.747   3.511   8.436 -0.8013  0.6833 -0.2376
  872MOL0     C14992   3.708   3.439   8.557  0.6819  0.1768 -0.2291
  872MOL0     C14993   3.809   3.449   8.669 -0.1692 -0.1890  0.1354
  872MOL0     C14994   3.792   3.574   8.756 -0.0694 -0.0102 -0.2846
  872MOL0     C14995   3.920   3.572   8.833  0.1132 -0.0392  0.0135
  872MOL0     O14996   4.033   3.608   8.752  0.4011 -0.1294  0.8917
  872MOL0     C14997   4.037   3.719   8.686 -0.2125 -1.2939  1.1757
  872MOL0     C14998   4.018   3.856   8.731  0.2302 -0.0645 -0.6473
  872MOL0     C14999   4.010   3.973   8.650  0.7793  0.3866  0.2748
  872MOL0     C15000   4.025   3.957   8.516 -0.1304  0.4698  0.3907
  872MOL0     C15001   4.005   4.073   8.419  0.1920 -0.1220  0.0808
  872MOL0     O15002   4.052   4.051   8.296  0.0921  0.1744 -0.3901
  872MOL0     C15003   4.027   4.146   8.204  0.7507  0.2142 -0.1662
  872MOL0     C15004   3.973   4.096   8.082 -1.5153 -0.3641 -0.5944
  872MOL0     C15005   3.929   4.183   7.977 -0.1835  0.4049 -0.0736
  872MOL0     C15006   3.941   4.323   8.003 -0.4457  0.8443 -0.2654
  872MOL0     O15007   3.919   4.413   7.899  0.0086 -0.6220 -0.4140
  872MOL0     C15008   3.979   4.391   7.763  1.2435 -1.0651 -0.3421
  872MOL0     C15009   3.957   4.535   7.702 -0.7882  0.5497 -0.1217
  872MOL0     C15010   3.996   4.548   7.554  0.1456 -1.3358  0.2553
  872MOL0     C15011   3.890   4.490   7.464  0.0908 -0.1284 -0.2662
  872MOL0     C15012   3.951   4.492   7.322  0.8552  0.0644 -0.0141
  872MOL0     C15013   4.030   4.372   7.291 -0.0765 -0.1490 -0.1282
  872MOL0     C15014   4.132   4.407   7.182  0.2243  0.0248  0.2719
  872MOL0     C15015   4.075   4.461   7.052 -0.0310 -0.2746 -0.0599
  872MOL0    Cl15016   4.205   4.445   6.945 -0.5464  0.1617  0.3057
  872MOL0     C15017   3.995   4.369   8.125  0.3114 -0.0536  0.5161
  872MOL0     C15018   4.031   4.283   8.228  1.0290  0.0915 -0.2291
  872MOL0     O15019   3.941   4.170   8.462 -0.2498  1.3221  0.8368
  872MOL0     C15020   4.044   3.828   8.469 -0.3498  1.4572  1.2280
  872MOL0     C15021   4.050   3.715   8.549  0.9510 -0.7832 -0.4248
  872MOL0     N15022   3.806   3.446   8.330 -0.3437  0.6720 -0.2386
  872MOL0     N15023   3.820   3.527   8.238 -0.2016 -0.1142 -0.8519
  872MOL0     C15024   3.138   4.530   7.639 -0.3094 -0.8277 -0.9449
  872MOL0     C15025   3.012   4.582   7.623  0.3252 -0.1505  0.0747
  872MOL0     C15026   2.573   4.608   7.589  1.4467  0.2959 -0.0865
  872MOL0     C15027   2.570   4.748   7.558 -0.0826 -0.5049  0.5277
  872MOL0     C15028   2.458   4.811   7.511  1.3494 -0.4763 -0.2302
  872MOL0     C15029   2.336   4.745   7.513 -0.7198 -0.1592  0.2231
  872MOL0     O15030   2.239   4.833   7.462  0.5017  0.0890  0.3797
  872MOL0     C15031   2.117   4.771   7.412 -0.1276 -0.6176  0.2698
  872MOL0     C15032   2.035   4.890   7.368  0.7803  0.7685 -0.8731
  872MOL0     C15033   1.888   4.863   7.347 -0.4343  0.5513 -0.3317
  872MOL0     C15034   1.876   4.785   7.214  0.0710 -0.1237  0.1986
  872MOL0     C15035   1.766   4.686   7.231 -0.2613 -0.3686  0.1256
  872MOL0     C15036   1.673   4.612   7.248  0.4008 -0.2743 -0.6610
  872MOL0     C15037   2.333   4.608   7.543  0.3583  0.2046 -0.4599
  872MOL0     C15038   2.448   4.541   7.583 -0.5783 -0.0414  0.7308
  872MOL0     H15039   2.876   4.462   7.913 -1.2565  0.5134 -0.7697
  872MOL0     H15040   3.098   4.370   7.934 -2.4231  0.1763  1.6836
  872MOL0     H15041   3.283   4.251   7.889 -1.3035  1.1406  2.3014
  872MOL0     H15042   3.327   4.396   7.992 -0.7850  0.5265 -0.8800
  872MOL0     H15043   3.543   4.408   7.891 -0.6382 -0.4621  2.5024
  872MOL0     H15044   3.503   4.284   7.768  1.0791 -0.4135 -0.2057
  872MOL0     H15045   3.486   4.190   8.065  1.6164 -3.0639 -0.5403
  872MOL0     H15046   3.636   4.209   7.990 -0.1231  1.1479  1.4763
  872MOL0     H15047   3.405   4.074   7.859 -0.4955 -2.7193  0.3587
  872MOL0     H15048   3.571   4.050   7.820  1.1383 -0.7415  1.5071
  872MOL0     H15049   3.487   3.860   7.931  0.8009 -1.4590  1.2923
  872MOL0     H15050   3.447   3.968   8.066 -2.6848  1.4536 -3.2193
  872MOL0     H15051   3.706   4.012   8.082 -0.3330  0.8624 -0.9322
  872MOL0     H15052   3.736   3.914   7.943  0.3751  3.7080  0.3570
  872MOL0     H15053   3.603   3.830   8.204  0.2994 -0.1288  0.5618
  872MOL0     H15054   3.638   3.717   8.058  0.2241  1.1148 -2.7380
  872MOL0     H15055   3.832   3.850   8.249  1.3403  1.2034 -2.6200
  872MOL0     H15056   3.875   3.755   8.114  3.0298  1.0132  2.5767
  872MOL0     H15057   3.654   3.699   8.464 -0.5288 -3.7381  2.2553
  872MOL0     H15058   3.700   3.333   8.532 -0.8002 -0.3249  2.0550
  872MOL0     H15059   3.608   3.476   8.582  0.3684 -0.9769  0.2852
  872MOL0     H15060   3.907   3.442   8.620  0.5369 -0.1277  1.4974
  872MOL0     H15061   3.795   3.367   8.740 -1.7821 -0.7740 -0.8108
  872MOL0     H15062   3.782   3.666   8.696 -1.7639  0.2886  0.4176
  872MOL0     H15063   3.704   3.557   8.817 -0.2919  1.7428 -0.0457
  872MOL0     H15064   3.939   3.474   8.879 -1.5911 -0.4189 -0.0351
  872MOL0     H15065   3.907   3.636   8.921  1.9815  0.2373  0.1360
  872MOL0     H15066   4.014   3.870   8.839 -3.4096 -0.4238 -0.6163
  872MOL0     H15067   3.999   4.064   8.709  0.1163 -0.0477  0.8282
  872MOL0     H15068   3.980   3.988   8.076  0.6507 -0.2755 -0.5040
  872MOL0     H15069   3.907   4.145   7.878  2.9990 -0.2940 -0.6347
  872MOL0     H15070   3.918   4.309   7.724 -2.1166  0.7457  0.6996
  872MOL0     H15071   4.088   4.379   7.767  1.8479  2.8558 -0.4141
  872MOL0     H15072   4.026   4.598   7.758  0.6477 -1.5837  0.6616
  872MOL0     H15073   3.853   4.565   7.718 -1.0488 -1.3688  2.4963
  872MOL0     H15074   4.090   4.494   7.540  0.0911 -1.5404  0.6492
  872MOL0     H15075   4.009   4.651   7.518 -1.1712 -0.9533  0.8083
  872MOL0     H15076   3.874   4.383   7.481  3.2071 -1.3685 -3.8141
  872MOL0     H15077   3.804   4.558   7.462  0.1558 -0.0276  0.2257
  872MOL0     H15078   4.025   4.572   7.313  0.1770  0.6625 -0.3048
  872MOL0     H15079   3.870   4.512   7.251  1.3094 -0.4894 -0.7084
  872MOL0     H15080   3.976   4.290   7.242 -2.6651  0.5352  1.3646
  872MOL0     H15081   4.090   4.339   7.376 -0.3050  1.4365  0.6911
  872MOL0     H15082   4.186   4.486   7.235 -1.0243  0.6256  0.6834
  872MOL0     H15083   4.185   4.312   7.169 -0.6275 -0.3285 -0.7387
  872MOL0     H15084   4.051   4.567   7.059  4.4179  0.9384 -0.2893
  872MOL0     H15085   3.986   4.413   7.009 -0.2893  2.6304 -3.1701
  872MOL0     H15086   4.005   4.477   8.137 -1.0813  0.9572 -4.8863
  872MOL0     H15087   4.084   4.316   8.316  0.8165 -1.5562  0.5420
  872MOL0     H15088   4.046   3.809   8.363  2.3146 -0.8592  1.5485
  872MOL0     H15089   4.065   3.617   8.505 -0.3365  0.0754 -2.9605
  872MOL0     H15090   3.210   4.572   7.570 -1.1226  2.2789 -0.0853
  872MOL0     H15091   3.008   4.635   7.528  0.4719  0.8064  0.5848
  872MOL0     H15092   2.663   4.804   7.563 -1.0998  1.5267 -1.5634
  872MOL0     H15093   2.459   4.913   7.473 -1.5972  0.4812  1.8444
  872MOL0     H15094   2.061   4.716   7.488  1.1676  0.1075  1.8059
  872MOL0     H15095   2.136   4.710   7.323 -0.6787  0.9898 -1.0223
  872MOL0     H15096   2.037   4.961   7.452 -0.0785 -0.7545  0.4965
  872MOL0     H15097   2.084   4.945   7.287  3.2930 -1.0366 -0.6927
  872MOL0     H15098   1.832   4.957   7.346 -0.3291  0.6140 -0.3344
  872MOL0     H15099   1.854   4.808   7.436  1.1768 -0.9564 -0.5940
  872MOL0     H15100   1.850   4.858   7.137 -1.0708 -1.9766 -1.2440
  872MOL0     H15101   1.965   4.725   7.194 -1.2401 -1.5668 -1.6616
  872MOL0     H15102   1.582   4.556   7.237  0.5575 -0.1942 -2.8409
  872MOL0     H15103   2.235   4.564   7.556 -0.6010  2.4171  0.3778
  872MOL0     H15104   2.446   4.437   7.613  0.2605 -0.3822 -0.3305
  873MOL0     O15105   9.385   0.068   7.783  0.0859  0.0631 -0.2162
  873MOL0     C15106   9.449   0.135   7.704 -0.5324  0.3035  0.4055
  873MOL0     O15107   9.552   0.218   7.727 -0.1020 -0.5659  0.3107
  873MOL0     C15108   9.613   0.204   7.848  0.5795 -0.5459  0.0805
  873MOL0     C15109   9.748   0.151   7.858 -1.2200 -0.1589 -0.5477
  873MOL0     C15110   9.812   0.157   7.983  0.9426 -0.6227 -0.0037
  873MOL0     C15111   9.745   0.205   8.097  1.0125  0.0923  0.4669
  873MOL0     O15112   9.817   0.201   8.209 -0.4709  0.1763 -0.6028
  873MOL0     C15113   9.781   0.183   8.349  0.0463 -0.7070 -0.3209
  873MOL0     C15114   9.702   0.057   8.390 -1.8893 -0.2510 -0.2507
  873MOL0     C15115   9.697   0.077   8.540  0.1343 -0.3009  0.2306
  873MOL0     C15116   9.641  -0.052   8.607  1.1789  0.0639 -0.2644
  873MOL0     C15117   9.596  -0.015   8.751  0.4915  0.2508  0.1098
  873MOL0     C15118   9.550  -0.135   8.833 -0.0963  0.3238  0.7693
  873MOL0     C15119   9.648  -0.244   8.868 -0.3358  0.5451  0.0987
  873MOL0     C15120   9.724  -0.225   8.996  0.0375 -0.1827 -0.0823
  873MOL0     N15121   9.648  -0.271   9.111 -0.0157  0.5514 -0.8839
  873MOL0     C15122   9.667  -0.399   9.164 -1.0574  0.4840  0.3990
  873MOL0     C15123   9.600  -0.402   9.279  0.6617 -0.7287  0.1623
  873MOL0     C15124   9.599  -0.523   9.375  0.1465 -1.1865 -0.7760
  873MOL0     C15125   9.484  -0.508   9.473  0.0901  0.0968  0.9378
  873MOL0     C15126   9.482  -0.623   9.573  0.0849  0.5949 -1.0652
  873MOL0     C15127   9.394  -0.575   9.697 -0.0380 -0.0706 -0.6565
  873MOL0     O15128   9.248  -0.572   9.669 -1.2026 -0.7855  0.6953
  873MOL0     C15129   9.191  -0.672   9.591  0.1538 -0.6197  0.0388
  873MOL0     C15130   9.117  -0.643   9.475 -0.2349  0.0366 -0.1411
  873MOL0     C15131   9.079  -0.750   9.392  0.3019 -1.0312  0.3505
  873MOL0     C15132   9.103  -0.887   9.431 -0.3002  0.4239  0.7627
  873MOL0     C15133   9.069  -1.003   9.347  0.0657 -1.0294  0.1270
  873MOL0     O15134   8.973  -0.974   9.261  0.1777 -0.0783  0.1068
  873MOL0     C15135   8.919  -1.068   9.177 -0.3406 -0.9080  0.3226
  873MOL0     C15136   8.983  -1.169   9.111 -0.0125 -0.1536 -0.2316
  873MOL0     C15137   8.910  -1.256   9.032 -0.1123  0.5089  0.2755
  873MOL0     C15138   8.775  -1.238   9.010  0.2115  0.2719  0.1349
  873MOL0     O15139   8.704  -1.328   8.930  0.4889 -0.4370  0.6363
  873MOL0     C15140   8.769  -1.380   8.812 -0.2028 -0.2741 -1.2151
  873MOL0     C15141   8.663  -1.423   8.711 -0.5159 -0.5006  0.5556
  873MOL0     C15142   8.592  -1.305   8.637 -0.4308  0.3735 -0.4694
  873MOL0     C15143   8.683  -1.247   8.526  1.3212 -0.1785  0.0156
  873MOL0     C15144   8.643  -1.281   8.384 -0.8119 -0.3367  0.3037
  873MOL0     C15145   8.654  -1.163   8.283  0.0876 -0.8149 -0.2793
  873MOL0     C15146   8.529  -1.064   8.305 -0.6230 -0.3684 -0.5811
  873MOL0     C15147   8.497  -0.981   8.182 -0.0404 -0.1994  0.0404
  873MOL0    Cl15148   8.640  -0.883   8.130  0.8421 -0.1010  0.0130
  873MOL0     C15149   8.703  -1.152   9.083  0.0197 -0.5817  0.3980
  873MOL0     C15150   8.778  -1.065   9.172 -0.5221  0.6949  0.2040
  873MOL0     O15151   9.126  -1.104   9.356 -0.1099  0.0740  0.2565
  873MOL0     C15152   9.169  -0.908   9.553  0.2036  0.2249 -0.4738
  873MOL0     C15153   9.206  -0.803   9.637 -0.1503  0.6279  0.5005
  873MOL0     N15154   9.548  -0.280   9.305  0.1128 -0.2386  0.0083
  873MOL0     N15155   9.587  -0.191   9.214 -0.0270  0.2278 -1.0987
  873MOL0     C15156   9.616   0.258   8.086 -0.1872 -0.4251 -0.6618
  873MOL0     C15157   9.551   0.253   7.961  1.4591 -0.7070  0.0527
  873MOL0     C15158   9.410   0.128   7.561 -0.1353  0.2673 -0.0321
  873MOL0     C15159   9.343   0.013   7.522 -0.5624 -0.5302 -0.7468
  873MOL0     C15160   9.307   0.004   7.389  0.1431  0.1860 -0.7572
  873MOL0     C15161   9.318   0.107   7.298 -1.3128 -0.0434 -0.5889
  873MOL0     O15162   9.262   0.082   7.181 -0.9136  1.0770  0.7194
  873MOL0     C15163   9.262   0.175   7.080  0.4794  0.7840  0.5134
  873MOL0     C15164   9.224   0.094   6.953  0.8832  0.7924  0.0430
  873MOL0     C15165   9.076   0.038   6.973  0.4702 -0.7777  0.3889
  873MOL0     C15166   9.051  -0.070   6.866  0.2927 -0.2999  1.0899
  873MOL0     C15167   9.081  -0.033   6.727  0.0515 -0.6687  0.3427
  873MOL0     C15168   9.091  -0.012   6.611 -0.4299  0.6883  0.1317
  873MOL0     C15169   9.370   0.227   7.343  0.1526 -0.0086  0.2092
  873MOL0     C15170   9.411   0.241   7.474 -0.3486  0.0287  0.9167
  873MOL0     H15171   9.810   0.121   7.774  2.6908 -1.4491  2.4708
  873MOL0     H15172   9.915   0.129   8.001  0.9167 -2.4214 -2.1496
  873MOL0     H15173   9.708   0.260   8.376  0.3785 -0.8517  1.0964
  873MOL0     H15174   9.872   0.187   8.410  0.2407 -0.1113 -0.6342
  873MOL0     H15175   9.762  -0.029   8.359  0.2021  1.5849 -1.7223
  873MOL0     H15176   9.603   0.058   8.343 -3.2043  1.6175  2.3027
  873MOL0     H15177   9.624   0.157   8.553  0.9385  0.6770 -1.0061
  873MOL0     H15178   9.795   0.102   8.580  0.4353  1.0942 -1.2616
  873MOL0     H15179   9.559  -0.084   8.542 -0.1153  1.6468  0.5105
  873MOL0     H15180   9.723  -0.124   8.611  0.9289 -0.4788 -3.0466
  873MOL0     H15181   9.514   0.057   8.749 -0.3313 -0.6681 -1.2192
  873MOL0     H15182   9.677   0.029   8.809  2.6311 -3.1619  0.0234
  873MOL0     H15183   9.464  -0.177   8.779  0.4403  0.4836 -0.2298
  873MOL0     H15184   9.508  -0.109   8.931 -0.9298  1.2699  0.1874
  873MOL0     H15185   9.601  -0.343   8.864  0.3958  0.2194 -0.5529
  873MOL0     H15186   9.728  -0.255   8.795 -0.8456 -1.6220 -0.2122
  873MOL0     H15187   9.756  -0.121   9.010  1.7871 -0.8088  0.7513
  873MOL0     H15188   9.816  -0.283   8.989 -0.3925 -0.9830  0.6456
  873MOL0     H15189   9.713  -0.479   9.108 -0.8923  1.6716 -1.2288
  873MOL0     H15190   9.695  -0.523   9.427 -0.8447  0.6482  1.2708
  873MOL0     H15191   9.592  -0.609   9.308 -0.8022 -1.7486  0.0106
  873MOL0     H15192   9.382  -0.498   9.434  0.2826 -2.8444 -0.6485
  873MOL0     H15193   9.509  -0.422   9.535  1.2333  1.1066 -0.8089
  873MOL0     H15194   9.444  -0.713   9.523  2.1728 -1.1023  0.2315
  873MOL0     H15195   9.584  -0.635   9.610 -0.2780 -1.2829 -0.5922
  873MOL0     H15196   9.435  -0.475   9.715  0.9092 -0.2806 -1.5699
  873MOL0     H15197   9.429  -0.646   9.772  1.2168  1.0760 -0.0961
  873MOL0     H15198   9.106  -0.536   9.457 -1.5821 -0.1021 -0.1929
  873MOL0     H15199   9.025  -0.723   9.302  0.0888 -0.9313  0.5071
  873MOL0     H15200   9.090  -1.187   9.118  0.2993  0.8998 -1.8973
  873MOL0     H15201   8.955  -1.340   8.981  1.2944  0.7920  1.0037
  873MOL0     H15202   8.842  -1.460   8.825  0.2803  0.2207 -0.7756
  873MOL0     H15203   8.828  -1.302   8.761 -1.4456  0.7195 -1.1882
  873MOL0     H15204   8.588  -1.492   8.752 -1.4683  0.2069  0.0528
  873MOL0     H15205   8.714  -1.489   8.641 -0.7085 -3.5704  3.0711
  873MOL0     H15206   8.560  -1.238   8.717  2.5820 -0.5374  1.7105
  873MOL0     H15207   8.496  -1.336   8.594  0.7232 -0.9854 -2.2420
  873MOL0     H15208   8.669  -1.139   8.536  0.5859  0.2207 -3.7781
  873MOL0     H15209   8.789  -1.263   8.549  0.6554  0.8282  5.1770
  873MOL0     H15210   8.540  -1.318   8.374 -0.5897 -0.4118 -3.0003
  873MOL0     H15211   8.694  -1.371   8.350 -2.8223 -1.9128  1.1861
  873MOL0     H15212   8.660  -1.203   8.181  0.0990 -1.6534  0.0431
  873MOL0     H15213   8.743  -1.107   8.312 -2.5143  3.0154  1.0773
  873MOL0     H15214   8.437  -1.117   8.332 -0.6986  0.0819  0.0714
  873MOL0     H15215   8.561  -0.994   8.382  1.3194 -1.9167  0.1115
  873MOL0     H15216   8.405  -0.923   8.186 -0.8679 -1.5220  1.2774
  873MOL0     H15217   8.471  -1.053   8.105  1.6028  1.9300 -2.6745
  873MOL0     H15218   8.598  -1.134   9.064  0.0686 -0.0593  0.6215
  873MOL0     H15219   8.721  -0.986   9.220 -2.6085  0.4968 -1.7835
  873MOL0     H15220   9.189  -1.008   9.590 -0.0987  0.9892  2.0052
  873MOL0     H15221   9.242  -0.837   9.734 -0.1276 -1.4867 -0.2028
  873MOL0     H15222   9.567   0.299   8.173  3.0108  0.8919  0.6599
  873MOL0     H15223   9.450   0.287   7.944  1.1739 -1.2199  0.6857
  873MOL0     H15224   9.313  -0.072   7.582 -1.4943  0.0154 -0.4092
  873MOL0     H15225   9.272  -0.090   7.347 -0.6715  0.4534 -0.6959
  873MOL0     H15226   9.358   0.226   7.064  0.2368  0.8999 -0.6680
  873MOL0     H15227   9.190   0.255   7.097  0.5328  1.0244 -0.3473
  873MOL0     H15228   9.222   0.167   6.872 -1.9662  1.0516  0.2278
  873MOL0     H15229   9.290   0.007   6.941 -1.8225 -1.4942  0.5652
  873MOL0     H15230   9.015   0.127   6.958  1.5567  0.2826  1.9029
  873MOL0     H15231   9.071   0.002   7.076  3.1423  1.6176  1.5016
  873MOL0     H15232   9.106  -0.161   6.892  2.3888  0.1470 -1.4331
  873MOL0     H15233   8.949  -0.109   6.874  0.1777 -0.4533 -0.8539
  873MOL0     H15234   9.113   0.008   6.508 -0.6125  1.1668  0.1830
  873MOL0     H15235   9.372   0.314   7.278 -1.7400 -1.1688 -1.5163
  873MOL0     H15236   9.448   0.339   7.502 -1.6725  0.5476  0.9031
  874MOL0     O15237   3.554   2.082   4.298  0.2222 -0.2450  0.3034
  874MOL0     C15238   3.588   2.199   4.300  0.1634  0.0601  0.0905
  874MOL0     O15239   3.520   2.295   4.373  0.4726 -0.2097  0.6990
  874MOL0     C15240   3.389   2.284   4.405  0.1391 -0.1017 -0.4905
  874MOL0     C15241   3.292   2.194   4.353 -0.7204 -0.1317  1.4312
  874MOL0     C15242   3.170   2.186   4.419 -0.4284  0.0570  0.1710
  874MOL0     C15243   3.150   2.270   4.537  1.2677  0.4534 -0.3543
  874MOL0     O15244   3.041   2.245   4.615  0.4238 -0.1541  0.3311
  874MOL0     C15245   3.058   2.163   4.732 -0.1484  0.3346  0.5710
  874MOL0     C15246   2.994   2.253   4.847  0.3681 -1.2972  0.6553
  874MOL0     C15247   2.844   2.274   4.839  0.0100  0.9611 -0.8455
  874MOL0     C15248   2.767   2.149   4.905 -0.6117 -0.7991 -0.1662
  874MOL0     C15249   2.617   2.164   4.910  0.2966  0.5346 -0.0889
  874MOL0     C15250   2.554   2.030   4.936  0.1481  0.0636  0.5957
  874MOL0     C15251   2.413   2.035   4.895 -0.2715 -0.0153 -1.1132
  874MOL0     C15252   2.361   1.886   4.882 -1.2315 -0.6048 -0.6304
  874MOL0     N15253   2.225   1.883   4.840 -0.2756  0.2361  0.0202
  874MOL0     C15254   2.181   1.817   4.728  0.2268  1.0218 -0.2185
  874MOL0     C15255   2.045   1.855   4.722  0.2632  0.2166  0.1202
  874MOL0     C15256   1.932   1.817   4.639  1.2952  1.7679  0.2405
  874MOL0     C15257   1.958   1.679   4.549  0.1040 -0.0691  1.3123
  874MOL0     C15258   1.847   1.565   4.577  0.4866 -0.8753 -0.8012
  874MOL0     C15259   1.865   1.429   4.509  0.1580 -0.1167  0.7569
  874MOL0     O15260   1.998   1.394   4.529  0.0963  0.4908  0.2709
  874MOL0     C15261   2.054   1.312   4.433  0.4379 -0.4079  0.0654
  874MOL0     C15262   2.185   1.330   4.398  0.1947 -0.3042 -0.0903
  874MOL0     C15263   2.242   1.265   4.286  0.1257  0.4242  1.0772
  874MOL0     C15264   2.185   1.145   4.237 -0.0277 -1.1284 -0.8150
  874MOL0     C15265   2.248   1.069   4.123  0.5139 -0.8304  0.5434
  874MOL0     O15266   2.345   1.139   4.055 -0.3008  0.7634 -0.8897
  874MOL0     C15267   2.401   1.063   3.955 -0.3636  0.4828  0.6785
  874MOL0     C15268   2.538   1.047   3.950 -1.6652 -0.0284  0.2165
  874MOL0     C15269   2.605   1.000   3.833  0.7524 -1.1072 -0.0846
  874MOL0     C15270   2.531   0.954   3.720  0.5262  0.2854 -0.0271
  874MOL0     O15271   2.605   0.895   3.622  0.0008 -0.3171  0.2453
  874MOL0     C15272   2.546   0.780   3.559 -0.6629  0.4283  0.1752
  874MOL0     C15273   2.645   0.652   3.566  0.6497  0.4310  0.5528
  874MOL0     C15274   2.772   0.654   3.479  0.1747 -0.4298 -0.0063
  874MOL0     C15275   2.785   0.527   3.390  0.3638 -0.3227  0.4571
  874MOL0     C15276   2.919   0.497   3.324  1.0884 -0.3280 -0.3977
  874MOL0     C15277   3.001   0.434   3.434  0.2941  0.1856  0.0176
  874MOL0     C15278   3.145   0.389   3.390  0.3237  0.3944  0.5530
  874MOL0     C15279   3.181   0.247   3.449 -0.3556 -0.1819  0.4231
  874MOL0    Cl15280   3.338   0.200   3.406 -0.0762  0.0802  0.0479
  874MOL0     C15281   2.396   0.960   3.730  0.0772  0.1533  0.7157
  874MOL0     C15282   2.327   1.018   3.838 -0.0359 -0.8115 -0.5383
  874MOL0     O15283   2.204   0.957   4.090  0.0691 -0.7861  0.3927
  874MOL0     C15284   2.056   1.118   4.290 -0.4370  0.3450  0.1958
  874MOL0     C15285   1.995   1.192   4.391 -0.0150 -0.6897 -0.0074
  874MOL0     N15286   2.022   1.948   4.824 -0.1997  0.1011  0.4276
  874MOL0     N15287   2.126   1.973   4.887 -0.1768  0.0150  0.6013
  874MOL0     C15288   3.239   2.368   4.574  0.6559 -0.4273  0.2246
  874MOL0     C15289   3.358   2.376   4.502  0.2542 -0.2616  1.5765
  874MOL0     C15290   3.702   2.242   4.228 -0.9136 -0.4350  0.6543
  874MOL0     C15291   3.794   2.139   4.185  0.5144  0.2013  0.4003
  874MOL0     C15292   3.922   2.182   4.126 -0.0482 -0.9325  0.2393
  874MOL0     C15293   3.947   2.316   4.090 -0.2211 -0.1877 -0.4333
  874MOL0     O15294   4.064   2.350   4.022  0.4794  0.2047  0.3191
  874MOL0     C15295   4.147   2.443   4.099  0.4514 -0.1307 -1.0855
  874MOL0     C15296   4.282   2.380   4.121 -0.3818 -1.1423 -0.5923
  874MOL0     C15297   4.385   2.469   4.182 -0.1965 -0.2397 -0.4689
  874MOL0     C15298   4.370   2.504   4.328  0.2482 -0.0764  0.2514
  874MOL0     C15299   4.486   2.582   4.357 -0.4867 -0.4350 -0.3131
  874MOL0     C15300   4.592   2.645   4.374  0.5026 -0.1138  0.3593
  874MOL0     C15301   3.848   2.407   4.120  0.2442  0.8945 -0.5019
  874MOL0     C15302   3.729   2.375   4.196 -0.0530  0.1820 -0.9282
  874MOL0     H15303   3.322   2.125   4.274  3.1482  0.7653  1.9180
  874MOL0     H15304   3.099   2.107   4.396 -1.1095  0.1880  1.6928
  874MOL0     H15305   3.165   2.149   4.749 -0.6346 -3.2297  1.3788
  874MOL0     H15306   3.005   2.068   4.732 -0.6805  0.6241 -0.0592
  874MOL0     H15307   3.042   2.350   4.833  1.0099 -1.4810  1.4726
  874MOL0     H15308   3.020   2.219   4.947  1.4956 -0.2377  0.7485
  874MOL0     H15309   2.797   2.291   4.742 -0.9406 -2.5679 -1.1618
  874MOL0     H15310   2.818   2.359   4.903 -1.6087 -0.2994  0.2473
  874MOL0     H15311   2.790   2.048   4.870 -2.1275 -2.1788  2.4900
  874MOL0     H15312   2.819   2.141   5.001  0.7123 -1.8467 -0.9443
  874MOL0     H15313   2.572   2.176   4.811  0.9289 -5.4748 -1.5345
  874MOL0     H15314   2.577   2.232   4.986  2.6325  0.7682  1.0043
  874MOL0     H15315   2.573   1.990   5.036  0.5463  1.6064  1.1502
  874MOL0     H15316   2.607   1.955   4.876 -0.3697 -0.4406  0.7591
  874MOL0     H15317   2.352   2.074   4.977 -1.3523 -2.0530 -0.8807
  874MOL0     H15318   2.389   2.079   4.798 -3.5045  4.0984  1.2139
  874MOL0     H15319   2.368   1.832   4.977 -5.0596  2.9882  2.0551
  874MOL0     H15320   2.415   1.859   4.791  0.5863 -0.1886  0.2687
  874MOL0     H15321   2.223   1.741   4.663  5.7424  1.5174  2.2118
  874MOL0     H15322   1.898   1.895   4.570 -1.7313  1.9164  1.7611
  874MOL0     H15323   1.852   1.809   4.714  0.0171  1.3730 -1.1046
  874MOL0     H15324   2.051   1.629   4.578  0.0919 -1.7686 -1.2511
  874MOL0     H15325   1.962   1.707   4.443  0.2794 -0.0537  1.3222
  874MOL0     H15326   1.841   1.541   4.683 -3.0557 -0.0184 -0.6866
  874MOL0     H15327   1.756   1.612   4.537 -0.0126 -1.4396 -0.3578
  874MOL0     H15328   1.837   1.440   4.403 -3.3846  2.2034  1.7558
  874MOL0     H15329   1.809   1.350   4.560 -2.3714  1.3491  0.4236
  874MOL0     H15330   2.244   1.412   4.439  0.6716 -0.3331 -0.6997
  874MOL0     H15331   2.335   1.295   4.239  0.5482 -2.5886 -0.1990
  874MOL0     H15332   2.612   1.084   4.020 -2.4733  4.5964 -1.0522
  874MOL0     H15333   2.713   1.006   3.838  0.6293  0.1951  1.9958
  874MOL0     H15334   2.511   0.802   3.458  1.5311  3.6607 -0.0050
  874MOL0     H15335   2.460   0.743   3.616  1.1478 -0.8784  2.2351
  874MOL0     H15336   2.587   0.563   3.541 -0.0777  1.4516 -1.5824
  874MOL0     H15337   2.680   0.646   3.669 -0.2045  0.3388  0.8413
  874MOL0     H15338   2.861   0.669   3.541 -0.3597 -2.1100  1.2655
  874MOL0     H15339   2.765   0.739   3.411 -5.6001 -1.2721 -0.9977
  874MOL0     H15340   2.750   0.447   3.456 -1.7648  1.7064  1.9209
  874MOL0     H15341   2.705   0.528   3.316 -0.9306 -3.1221  1.6861
  874MOL0     H15342   2.972   0.585   3.287 -0.6106  0.5125 -0.9532
  874MOL0     H15343   2.904   0.430   3.238  0.7938  0.7350 -1.1947
  874MOL0     H15344   2.949   0.345   3.472  1.9009 -0.5186  0.6944
  874MOL0     H15345   3.021   0.511   3.509  2.9573 -2.4216  2.2403
  874MOL0     H15346   3.152   0.385   3.281 -0.6805 -1.6849  0.5027
  874MOL0     H15347   3.213   0.465   3.428  0.4417  0.8926 -0.6276
  874MOL0     H15348   3.111   0.171   3.413 -1.9421  1.4765 -0.1116
  874MOL0     H15349   3.182   0.262   3.558 -1.1921 -1.2638  0.6007
  874MOL0     H15350   2.327   0.912   3.660 -1.0480  1.2304  1.0492
  874MOL0     H15351   2.219   1.017   3.833  0.0065 -2.7465 -2.9305
  874MOL0     H15352   1.998   1.038   4.246  1.9200 -2.0162  1.1584
  874MOL0     H15353   1.896   1.166   4.426  0.0733 -1.2950 -0.1994
  874MOL0     H15354   3.234   2.432   4.661  0.7200 -0.9442  0.6137
  874MOL0     H15355   3.418   2.463   4.523 -0.6070  0.7640 -0.0243
  874MOL0     H15356   3.784   2.036   4.215  1.4579 -0.6374 -1.9055
  874MOL0     H15357   4.000   2.112   4.099  0.2029 -0.4606 -0.2658
  874MOL0     H15358   4.097   2.471   4.192  0.8930 -0.2857 -0.8023
  874MOL0     H15359   4.172   2.541   4.056 -1.8066  1.8090  1.6440
  874MOL0     H15360   4.280   2.282   4.170  0.0065 -1.1793 -0.6470
  874MOL0     H15361   4.315   2.346   4.022 -2.2026 -4.2686 -0.2619
  874MOL0     H15362   4.392   2.559   4.119 -1.9917 -0.3499 -0.8710
  874MOL0     H15363   4.484   2.423   4.173  0.1931 -0.1103  2.4934
  874MOL0     H15364   4.284   2.569   4.348  1.5948  1.7588  0.2769
  874MOL0     H15365   4.364   2.416   4.393  1.0257 -2.3596 -2.5492
  874MOL0     H15366   4.675   2.713   4.375  0.4299  0.0527 -1.2896
  874MOL0     H15367   3.848   2.509   4.084  1.5835  1.4854  1.0717
  874MOL0     H15368   3.656   2.454   4.210  0.4394  0.6547 -1.0296
  875MOL0     O15369   7.497  11.117  10.346 -0.9444 -0.1528  0.5088
  875MOL0     C15370   7.551  11.024  10.413 -0.1867 -0.0985 -1.3197
  875MOL0     O15371   7.638  10.929  10.367  0.4237 -0.3099  0.1608
  875MOL0     C15372   7.691  10.947  10.240  0.7849  0.0493 -0.1601
  875MOL0     C15373   7.644  10.891  10.124  0.0842 -0.6150  1.3879
  875MOL0     C15374   7.703  10.911   9.990 -1.2401  0.0869  0.4424
  875MOL0     C15375   7.799  11.016   9.976  0.4661 -0.3127  0.7415
  875MOL0     O15376   7.860  11.051   9.861  0.6387 -0.0638  0.5586
  875MOL0     C15377   7.892  10.952   9.770  0.3375  0.2901 -0.2228
  875MOL0     C15378   8.045  10.955   9.740  0.7130 -0.1911 -0.0814
  875MOL0     C15379   8.104  11.087   9.724 -0.7131 -0.5884 -0.3627
  875MOL0     C15380   8.248  11.091   9.675  0.8606 -1.3084 -0.4040
  875MOL0     C15381   8.305  11.236   9.682  0.9387 -0.3555 -1.2495
  875MOL0     C15382   8.449  11.245   9.619 -1.2623  0.2907 -0.5961
  875MOL0     C15383   8.470  11.392   9.575  0.8372 -0.4521  0.2783
  875MOL0     C15384   8.577  11.411   9.469 -0.3298 -0.3797 -0.1991
  875MOL0     N15385   8.569  11.543   9.395 -0.0606 -0.1564 -0.1402
  875MOL0     C15386   8.486  11.652   9.429 -0.4977 -0.2538 -1.9911
  875MOL0     C15387   8.535  11.751   9.350  1.1100  1.2139  0.3213
  875MOL0     C15388   8.475  11.891   9.359 -1.3988  0.9015  0.6692
  875MOL0     C15389   8.342  11.900   9.292 -0.0656  0.0864 -0.3305
  875MOL0     C15390   8.233  11.822   9.358  0.2076  0.0850 -0.0247
  875MOL0     C15391   8.095  11.876   9.307  0.2071 -0.8878 -0.7824
  875MOL0     O15392   8.072  11.883   9.162 -0.0582 -0.6184  0.0262
  875MOL0     C15393   8.031  11.782   9.086 -0.4325 -0.4678 -0.0099
  875MOL0     C15394   7.900  11.743   9.079  0.0546  0.4835  0.5674
  875MOL0     C15395   7.861  11.628   9.005  0.1141 -0.0934  0.1333
  875MOL0     C15396   7.955  11.547   8.938 -0.5426 -0.7862  0.4182
  875MOL0     C15397   7.915  11.419   8.883 -0.4785 -0.4087 -0.6664
  875MOL0     O15398   8.007  11.365   8.799 -0.5254 -0.8726  0.7021
  875MOL0     C15399   7.975  11.241   8.749  0.0461 -0.4419  0.2298
  875MOL0     C15400   7.875  11.145   8.786 -0.6804 -0.2100  0.5010
  875MOL0     C15401   7.860  11.017   8.717  0.0966  0.5931  0.2370
  875MOL0     C15402   7.934  10.982   8.610 -0.4066  0.7343  0.7987
  875MOL0     O15403   7.927  10.874   8.527 -0.2341  0.1674  0.9211
  875MOL0     C15404   7.826  10.774   8.544  0.8223  0.6876  0.5630
  875MOL0     C15405   7.809  10.694   8.415 -0.1621 -0.2483  0.1192
  875MOL0     C15406   7.675  10.631   8.401 -0.3100 -0.7125  0.6430
  875MOL0     C15407   7.559  10.741   8.399 -0.3775  0.4543 -0.0509
  875MOL0     C15408   7.440  10.710   8.309  0.5336 -0.4169  0.0588
  875MOL0     C15409   7.368  10.578   8.353 -0.0013 -0.8969 -0.3188
  875MOL0     C15410   7.291  10.508   8.242  1.0080 -0.2230 -0.2344
  875MOL0     C15411   7.297  10.351   8.256  0.9476 -0.1923 -0.1134
  875MOL0    Cl15412   7.450  10.270   8.193 -0.1566 -0.0456  0.0687
  875MOL0     C15413   8.026  11.080   8.562 -0.1266  0.6976  0.1022
  875MOL0     C15414   8.046  11.201   8.636  1.3755 -0.8600 -1.2352
  875MOL0     O15415   7.805  11.375   8.914  0.6608  0.1643  0.0016
  875MOL0     C15416   8.094  11.593   8.945  0.2827  0.2427  1.2253
  875MOL0     C15417   8.131  11.713   9.008  0.4137 -0.3452 -1.0023
  875MOL0     N15418   8.634  11.706   9.271 -0.2285  0.8547 -0.0342
  875MOL0     N15419   8.662  11.582   9.300  0.5293 -0.2293 -0.7423
  875MOL0     C15420   7.841  11.088  10.092 -0.4741  0.0343 -0.5349
  875MOL0     C15421   7.783  11.051  10.217 -0.0370 -0.2220 -0.2119
  875MOL0     C15422   7.528  11.034  10.557  0.6171  0.8548  0.6796
  875MOL0     C15423   7.437  11.130  10.603 -0.6366  0.6942 -0.6591
  875MOL0     C15424   7.390  11.119  10.732  0.0531 -0.1614  0.5744
  875MOL0     C15425   7.441  11.027  10.818  0.2223 -0.5790 -0.1547
  875MOL0     O15426   7.409  11.011  10.950  0.5777 -0.4557 -0.0745
  875MOL0     C15427   7.312  11.087  11.028 -0.1329 -0.0700 -0.1105
  875MOL0     C15428   7.174  11.024  11.014 -0.9350 -0.3748 -0.6600
  875MOL0     C15429   7.170  10.876  11.053 -0.3518  0.5438 -0.5768
  875MOL0     C15430   7.026  10.826  11.058 -1.6073 -0.9270 -0.2209
  875MOL0     C15431   6.957  10.872  11.178  1.0258 -0.7104 -0.3669
  875MOL0     C15432   6.898  10.919  11.271 -0.3916 -0.8998  0.8045
  875MOL0     C15433   7.535  10.927  10.774 -1.0222 -0.2446  0.3305
  875MOL0     C15434   7.572  10.931  10.644  0.3304  0.0412 -0.6811
  875MOL0     H15435   7.570  10.814  10.145  0.4299 -0.9058  1.5466
  875MOL0     H15436   7.679  10.840   9.911  2.8674  1.1106 -2.0362
  875MOL0     H15437   7.839  10.985   9.680  0.4183  3.6489  0.7958
  875MOL0     H15438   7.866  10.853   9.807 -1.0097 -0.0589 -1.9453
  875MOL0     H15439   8.066  10.891   9.654  0.2404 -0.8948  0.3136
  875MOL0     H15440   8.093  10.908   9.827  0.2894 -2.4990 -1.0313
  875MOL0     H15441   8.106  11.135   9.823  0.0421  0.1914 -0.7459
  875MOL0     H15442   8.049  11.145   9.649 -1.7999 -3.8082 -2.2277
  875MOL0     H15443   8.303  11.033   9.749  2.3998  2.3596  1.6305
  875MOL0     H15444   8.246  11.062   9.570 -0.8104  4.9006 -2.5413
  875MOL0     H15445   8.306  11.269   9.786 -0.3640 -0.4587 -1.1821
  875MOL0     H15446   8.241  11.310   9.633  0.1072  0.2187  0.6166
  875MOL0     H15447   8.450  11.179   9.531 -0.4464 -3.2482  1.8579
  875MOL0     H15448   8.526  11.213   9.690 -1.2281  1.9783  0.1615
  875MOL0     H15449   8.378  11.443   9.545  0.2237 -2.0589 -0.6421
  875MOL0     H15450   8.496  11.432   9.673  0.1824 -1.1270  0.7323
  875MOL0     H15451   8.573  11.337   9.388  0.9683 -0.8570  0.1460
  875MOL0     H15452   8.680  11.406   9.507 -0.0966 -0.3712 -0.8246
  875MOL0     H15453   8.416  11.653   9.512  1.4917 -1.4092 -0.2026
  875MOL0     H15454   8.537  11.963   9.306  0.3974  0.0197  1.4876
  875MOL0     H15455   8.484  11.915   9.465  1.5839  1.4723  0.3830
  875MOL0     H15456   8.347  11.878   9.184 -0.9634 -1.4379 -0.0888
  875MOL0     H15457   8.315  12.005   9.279  0.0192  0.4611  2.1158
  875MOL0     H15458   8.252  11.717   9.333  1.5545 -0.1965  1.9669
  875MOL0     H15459   8.234  11.831   9.467 -2.1777 -3.0531  0.3871
  875MOL0     H15460   8.080  11.980   9.337  2.5200  0.3995 -3.5687
  875MOL0     H15461   8.014  11.810   9.340 -2.3198  1.5384 -1.6593
  875MOL0     H15462   7.827  11.791   9.142  0.4301  1.8113  0.0176
  875MOL0     H15463   7.754  11.609   9.016  0.1627 -0.5906 -0.1893
  875MOL0     H15464   7.800  11.147   8.865 -0.9976  3.1493  0.2720
  875MOL0     H15465   7.786  10.951   8.761  0.6838  0.2195  0.6824
  875MOL0     H15466   7.732  10.816   8.580  0.0512 -0.1219 -0.4574
  875MOL0     H15467   7.860  10.698   8.615  1.3686  1.3451  1.0220
  875MOL0     H15468   7.882  10.613   8.412  0.3711  0.1895 -3.8880
  875MOL0     H15469   7.840  10.766   8.339  3.4560 -0.5367  1.1462
  875MOL0     H15470   7.667  10.570   8.491 -0.1596  0.3733  1.4169
  875MOL0     H15471   7.665  10.575   8.308 -2.7099  2.3949 -1.1867
  875MOL0     H15472   7.522  10.761   8.500 -0.2058  0.5922 -0.0143
  875MOL0     H15473   7.600  10.835   8.360 -1.2192  0.2124 -1.5864
  875MOL0     H15474   7.475  10.684   8.209  1.7883 -1.3378  0.7044
  875MOL0     H15475   7.372  10.794   8.293 -0.3284 -1.5655 -3.0298
  875MOL0     H15476   7.289  10.591   8.429  0.5941  0.5939  0.0639
  875MOL0     H15477   7.444  10.509   8.390 -2.8166 -2.4934  3.2344
  875MOL0     H15478   7.187  10.540   8.254  1.6221  1.7289  0.1942
  875MOL0     H15479   7.320  10.541   8.142 -0.1160  1.8291  0.0609
  875MOL0     H15480   7.219  10.320   8.186  1.0770 -1.1051  0.1424
  875MOL0     H15481   7.279  10.316   8.358  1.9418  2.7723  1.2031
  875MOL0     H15482   8.089  11.046   8.480  1.2764 -0.9371  1.7875
  875MOL0     H15483   8.126  11.266   8.604 -0.3188  1.4956 -0.9069
  875MOL0     H15484   8.165  11.520   8.909 -1.0511 -0.0544 -0.9154
  875MOL0     H15485   8.232  11.745   9.033 -0.5454  1.9338  0.2711
  875MOL0     H15486   7.907  11.173  10.076 -0.9064  0.9144  1.9344
  875MOL0     H15487   7.822  11.104  10.304  1.2973 -0.5821 -0.5739
  875MOL0     H15488   7.421  11.227  10.559  1.8229  1.9313  0.9471
  875MOL0     H15489   7.319  11.190  10.773 -1.4891 -2.2456  1.6819
  875MOL0     H15490   7.300  11.193  11.004  0.5866  0.0842  0.1815
  875MOL0     H15491   7.352  11.081  11.130  2.5058  0.0964 -1.0461
  875MOL0     H15492   7.104  11.089  11.067  1.0660  2.4446 -1.2637
  875MOL0     H15493   7.143  11.032  10.909 -2.0417  2.4274 -0.1854
  875MOL0     H15494   7.211  10.882  11.154  2.5283 -0.3190 -1.5823
  875MOL0     H15495   7.228  10.800  10.999 -1.7932  0.4466 -2.0692
  875MOL0     H15496   6.969  10.846  10.967  0.7129 -0.5517 -1.6896
  875MOL0     H15497   7.017  10.719  11.077  2.5879 -0.9750  2.7574
  875MOL0     H15498   6.837  10.983  11.332 -2.1604 -0.0915 -1.6057
  875MOL0     H15499   7.571  10.844  10.835  0.3232 -1.8467 -2.4637
  875MOL0     H15500   7.647  10.863  10.607  2.1144  1.4467  0.2019
  876MOL0     O15501   3.994   1.052   0.968  0.0991 -0.8193  0.1580
  876MOL0     C15502   4.085   1.117   0.928 -0.1859 -0.3559 -0.6926
  876MOL0     O15503   4.069   1.243   0.882  0.1568  0.8295 -1.3490
  876MOL0     C15504   3.939   1.282   0.866  0.6018  0.0864  1.0160
  876MOL0     C15505   3.865   1.330   0.965  0.0377 -0.8906 -0.1059
  876MOL0     C15506   3.730   1.356   0.943  0.6929 -1.3661 -0.4297
  876MOL0     C15507   3.668   1.337   0.826  0.5505  0.3239  0.1007
  876MOL0     O15508   3.531   1.339   0.809 -0.6200 -0.0220  0.1595
  876MOL0     C15509   3.462   1.245   0.890  0.2082 -1.5589 -0.2572
  876MOL0     C15510   3.343   1.308   0.959  0.9809 -0.5200  0.4167
  876MOL0     C15511   3.384   1.405   1.070 -0.4684 -0.6773 -0.2233
  876MOL0     C15512   3.262   1.460   1.151 -0.5432  1.1831  0.3162
  876MOL0     C15513   3.300   1.585   1.233 -0.7080  1.5911  0.1792
  876MOL0     C15514   3.188   1.606   1.328  0.2415 -0.0372 -0.3288
  876MOL0     C15515   3.158   1.760   1.346  0.5069 -0.1514  0.2003
  876MOL0     C15516   3.085   1.786   1.477  0.4552  0.1771 -0.8889
  876MOL0     N15517   3.034   1.921   1.495  0.1273 -0.1526  0.3541
  876MOL0     C15518   2.901   1.964   1.492 -0.2489  0.2827 -0.4268
  876MOL0     C15519   2.912   2.094   1.511 -0.2230 -0.0173 -0.4711
  876MOL0     C15520   2.792   2.183   1.529 -0.4771 -0.4481  0.0351
  876MOL0     C15521   2.799   2.292   1.416  0.2752  0.1066  0.5465
  876MOL0     C15522   2.700   2.397   1.432  0.3319  0.5344 -0.5081
  876MOL0     C15523   2.716   2.461   1.570 -0.5676 -0.3817 -0.3932
  876MOL0     O15524   2.667   2.598   1.562  0.2616 -0.1096  0.7974
  876MOL0     C15525   2.757   2.703   1.548  0.0690  0.2798  0.3666
  876MOL0     C15526   2.724   2.790   1.449  0.1997 -0.4466  1.0247
  876MOL0     C15527   2.787   2.915   1.425  0.3147  0.4512 -0.0059
  876MOL0     C15528   2.900   2.942   1.499 -0.7683 -0.5836  0.2290
  876MOL0     C15529   2.976   3.070   1.469 -0.2496 -0.2710  0.6605
  876MOL0     O15530   3.079   3.100   1.546 -0.5631 -0.0942  0.6362
  876MOL0     C15531   3.148   3.218   1.524  0.1354 -0.3461  0.4525
  876MOL0     C15532   3.091   3.338   1.588 -0.5705  0.3554 -0.5414
  876MOL0     C15533   3.184   3.433   1.633 -0.5964  0.2434 -0.0492
  876MOL0     C15534   3.312   3.433   1.585 -0.5092 -0.3696  0.4492
  876MOL0     O15535   3.406   3.535   1.614  0.0582 -0.7892 -0.0175
  876MOL0     C15536   3.358   3.674   1.578  0.4393  0.3858  0.1336
  876MOL0     C15537   3.430   3.714   1.453  1.3756 -0.8721 -0.7880
  876MOL0     C15538   3.374   3.836   1.379  0.3117 -0.8289  0.8997
  876MOL0     C15539   3.224   3.843   1.342 -0.5741  0.5919 -0.1111
  876MOL0     C15540   3.205   3.951   1.227 -0.3740  0.2571 -0.0855
  876MOL0     C15541   3.055   3.973   1.210 -0.2736  0.2428 -0.1948
  876MOL0     C15542   3.013   4.079   1.115  0.5494  0.0892  0.0953
  876MOL0     C15543   2.857   4.076   1.089 -0.5006  0.0577  0.8274
  876MOL0    Cl15544   2.776   4.134   1.243 -0.3903  0.2336 -0.2420
  876MOL0     C15545   3.362   3.326   1.523 -0.2307  1.3191 -0.1733
  876MOL0     C15546   3.279   3.214   1.505  0.0402  0.2794  0.7756
  876MOL0     O15547   2.920   3.149   1.390  0.5412 -0.4805 -0.4211
  876MOL0     C15548   2.953   2.844   1.582  0.5721  0.0560  0.9002
  876MOL0     C15549   2.877   2.726   1.612 -0.0105  0.6664  0.4009
  876MOL0     N15550   3.043   2.137   1.537  0.4432 -0.1739 -0.9034
  876MOL0     N15551   3.117   2.031   1.525 -0.1316  0.1172 -0.4603
  876MOL0     C15552   3.753   1.318   0.714 -0.5108  0.4388 -0.6367
  876MOL0     C15553   3.885   1.278   0.731 -0.5038  0.4450 -0.4330
  876MOL0     C15554   4.213   1.053   0.919 -0.2391  0.6305  0.0885
  876MOL0     C15555   4.328   1.129   0.912  0.0567 -0.6091 -0.0590
  876MOL0     C15556   4.451   1.074   0.900 -0.4470  0.1667  0.4696
  876MOL0     C15557   4.461   0.935   0.908 -0.1669  0.9872  0.6687
  876MOL0     O15558   4.582   0.869   0.898 -0.5017 -0.1003 -0.0199
  876MOL0     C15559   4.707   0.928   0.940 -0.1217 -0.9513 -0.2225
  876MOL0     C15560   4.813   0.830   0.885 -0.4067  0.0243 -1.1606
  876MOL0     C15561   4.784   0.781   0.749  0.2075  0.4030  0.4873
  876MOL0     C15562   4.899   0.687   0.698  0.1833 -0.6702 -0.3327
  876MOL0     C15563   4.885   0.631   0.564  0.5394 -0.4600  0.2831
  876MOL0     C15564   4.872   0.587   0.454  0.1772 -0.4296 -0.7996
  876MOL0     C15565   4.351   0.854   0.923 -0.4275  0.4180  0.8163
  876MOL0     C15566   4.225   0.914   0.920  0.4162 -0.4052  0.7834
  876MOL0     H15567   3.917   1.338   1.059 -0.0394 -0.3141 -0.1088
  876MOL0     H15568   3.681   1.388   1.035  0.1494 -1.5332 -0.6587
  876MOL0     H15569   3.530   1.208   0.967  0.3971  0.7852  0.7821
  876MOL0     H15570   3.439   1.157   0.829  1.6437 -2.2498  0.1507
  876MOL0     H15571   3.270   1.238   1.000  2.2391 -0.7756  2.3270
  876MOL0     H15572   3.299   1.363   0.875  1.7995 -0.5801 -0.0677
  876MOL0     H15573   3.448   1.484   1.030 -1.6106 -0.2964 -1.3335
  876MOL0     H15574   3.445   1.351   1.143 -2.2192 -1.0955  0.9865
  876MOL0     H15575   3.187   1.472   1.072  2.3962  0.0266 -2.8898
  876MOL0     H15576   3.212   1.385   1.213 -0.0144  0.9138  0.4171
  876MOL0     H15577   3.314   1.673   1.169 -3.6413  2.3839  0.4442
  876MOL0     H15578   3.390   1.560   1.289 -2.4167 -0.7510  2.1459
  876MOL0     H15579   3.198   1.550   1.422  0.3106 -1.9800 -1.4479
  876MOL0     H15580   3.102   1.565   1.274  1.4076 -0.0385 -2.2784
  876MOL0     H15581   3.251   1.818   1.352  1.5480 -1.5218 -1.6418
  876MOL0     H15582   3.101   1.801   1.263  0.4446  0.8411  0.7208
  876MOL0     H15583   3.159   1.781   1.558 -0.0145  1.2963 -0.3712
  876MOL0     H15584   2.999   1.721   1.490 -2.4769  3.8826  0.1736
  876MOL0     H15585   2.806   1.915   1.474 -0.7356  1.6108 -1.5948
  876MOL0     H15586   2.808   2.226   1.628 -2.2151 -4.3181  2.1977
  876MOL0     H15587   2.699   2.126   1.529  0.4743 -2.1091  0.9491
  876MOL0     H15588   2.784   2.237   1.322 -1.0992 -0.2605  0.9647
  876MOL0     H15589   2.890   2.353   1.413 -0.6931  1.5952  0.2187
  876MOL0     H15590   2.708   2.466   1.347 -4.7200  2.8266  0.5200
  876MOL0     H15591   2.600   2.355   1.422  0.1688  0.8303 -0.1583
  876MOL0     H15592   2.820   2.468   1.601 -1.1067 -0.4364  1.5673
  876MOL0     H15593   2.658   2.404   1.643 -1.8273  2.9776  1.4681
  876MOL0     H15594   2.640   2.773   1.383  0.4025  0.7442  0.4271
  876MOL0     H15595   2.747   2.982   1.350  1.6026  1.7983  0.4460
  876MOL0     H15596   2.986   3.339   1.612 -0.0036  1.0922  2.2589
  876MOL0     H15597   3.145   3.518   1.688 -2.2795 -0.4677 -0.0467
  876MOL0     H15598   3.379   3.741   1.662  0.2745  0.0333  0.4601
  876MOL0     H15599   3.249   3.672   1.569  0.5662 -3.6357 -2.9590
  876MOL0     H15600   3.438   3.629   1.385 -0.2829 -1.3816 -0.3923
  876MOL0     H15601   3.529   3.740   1.491 -0.1881  3.2051  1.0789
  876MOL0     H15602   3.425   3.853   1.283  0.6877  3.2483  1.6359
  876MOL0     H15603   3.397   3.927   1.435 -1.2245  0.7291 -0.8745
  876MOL0     H15604   3.198   3.738   1.324  0.8326  0.6391 -2.9956
  876MOL0     H15605   3.176   3.871   1.436  0.2768  1.3000  0.1261
  876MOL0     H15606   3.239   3.928   1.126 -3.2433  0.6361 -1.2199
  876MOL0     H15607   3.253   4.044   1.256  1.2162 -1.2670  2.6312
  876MOL0     H15608   3.012   4.000   1.307  2.9256  1.1316  1.1047
  876MOL0     H15609   3.020   3.876   1.172  2.8425 -0.5871 -1.2627
  876MOL0     H15610   3.030   4.177   1.161  0.5221  0.4636 -0.6872
  876MOL0     H15611   3.071   4.082   1.022 -2.2653 -1.3644 -1.8335
  876MOL0     H15612   2.826   3.985   1.036  1.1288  0.6354 -1.2590
  876MOL0     H15613   2.840   4.157   1.017 -1.1760 -2.4715 -2.0868
  876MOL0     H15614   3.463   3.319   1.486  0.0059 -0.5519  0.7185
  876MOL0     H15615   3.331   3.127   1.465 -2.1628 -0.3841 -0.8619
  876MOL0     H15616   3.055   2.845   1.621  0.0527 -2.1881  2.5708
  876MOL0     H15617   2.911   2.659   1.690  0.0294  0.3829  0.1408
  876MOL0     H15618   3.702   1.324   0.618 -0.2044  0.9133 -0.7724
  876MOL0     H15619   3.944   1.247   0.646 -2.7368 -2.6449 -1.0291
  876MOL0     H15620   4.329   1.238   0.914  1.4181 -0.5264 -1.9465
  876MOL0     H15621   4.547   1.123   0.907  1.4655 -3.2829  0.9455
  876MOL0     H15622   4.712   0.939   1.048  0.1184 -0.2916 -0.2936
  876MOL0     H15623   4.728   1.024   0.891  0.1520 -0.1215  1.4568
  876MOL0     H15624   4.903   0.892   0.887  0.4342 -1.1765  0.1815
  876MOL0     H15625   4.828   0.743   0.950  0.0504 -2.1487 -3.9763
  876MOL0     H15626   4.761   0.865   0.683 -2.2724 -2.2137 -2.3248
  876MOL0     H15627   4.693   0.720   0.744  0.0649  0.6447  0.1380
  876MOL0     H15628   4.998   0.732   0.710 -0.4386  0.4219  0.8964
  876MOL0     H15629   4.885   0.596   0.757 -2.9517 -0.8399 -1.1279
  876MOL0     H15630   4.873   0.538   0.358  0.2742 -1.4428 -0.3028
  876MOL0     H15631   4.358   0.746   0.938 -0.5518  0.0251 -1.6095
  876MOL0     H15632   4.142   0.844   0.925 -1.2585  1.5532  1.7611
  877MOL0     O15633   9.124   3.352  11.299  0.6819 -0.0946  0.0916
  877MOL0     C15634   9.231   3.329  11.353 -0.5447  0.0229 -0.2023
  877MOL0     O15635   9.294   3.210  11.348  0.7222 -0.2732  0.2487
  877MOL0     C15636   9.247   3.110  11.267  0.1636  0.5395 -0.6631
  877MOL0     C15637   9.125   3.066  11.256 -0.3243 -0.0674 -0.5799
  877MOL0     C15638   9.089   2.970  11.161 -0.0505  1.2559 -1.5519
  877MOL0     C15639   9.191   2.913  11.083  1.4994  0.5058  0.3754
  877MOL0     O15640   9.183   2.806  10.992  0.5136  0.5882  0.3223
  877MOL0     C15641   9.136   2.673  11.032 -0.3482  0.0890 -0.4336
  877MOL0     C15642   8.988   2.644  11.012  0.7600 -0.3917  0.4196
  877MOL0     C15643   8.936   2.694  10.879  0.1861  0.5678  0.1454
  877MOL0     C15644   8.783   2.674  10.858 -0.1179  1.1253  0.7214
  877MOL0     C15645   8.741   2.696  10.707  1.1125 -0.3460  0.0744
  877MOL0     C15646   8.739   2.852  10.669  0.4814  0.4379  0.8195
  877MOL0     C15647   8.803   2.870  10.530 -0.0465  1.3826 -0.1270
  877MOL0     C15648   8.941   2.906  10.527 -0.7233 -0.1863 -0.2357
  877MOL0     N15649   8.966   3.034  10.593  0.4764  0.0956 -0.6014
  877MOL0     C15650   9.033   3.061  10.709  0.2629  0.0669 -0.6034
  877MOL0     C15651   9.006   3.188  10.746  0.0008 -0.2163  0.3103
  877MOL0     C15652   9.066   3.272  10.859  0.2999  0.5722 -0.0273
  877MOL0     C15653   9.030   3.420  10.829  0.3116  0.6452 -0.3779
  877MOL0     C15654   9.126   3.462  10.721 -0.6630 -0.6238  0.8832
  877MOL0     C15655   9.103   3.617  10.689 -0.4762  0.3154  0.8161
  877MOL0     O15656   9.208   3.649  10.604 -0.0707  0.3467  0.8896
  877MOL0     C15657   9.231   3.787  10.577  0.6256  0.4159  0.6947
  877MOL0     C15658   9.174   3.889  10.649 -0.0772  0.5385 -0.2470
  877MOL0     C15659   9.208   4.023  10.629  0.0432 -0.0391 -0.0647
  877MOL0     C15660   9.295   4.064  10.521  0.3068  0.1474  0.0476
  877MOL0     C15661   9.316   4.213  10.488 -0.9586 -0.1822 -0.2041
  877MOL0     O15662   9.257   4.305  10.573  0.2720  0.2527 -0.7024
  877MOL0     C15663   9.265   4.433  10.531  0.0488  0.2719 -0.3100
  877MOL0     C15664   9.246   4.486  10.397  1.1335 -0.3116 -0.3473
  877MOL0     C15665   9.253   4.622  10.374 -0.0825 -0.0447  0.5790
  877MOL0     C15666   9.272   4.713  10.477 -0.2978  0.0260  0.3872
  877MOL0     O15667   9.279   4.842  10.455 -0.5703 -0.8329 -0.0154
  877MOL0     C15668   9.169   4.900  10.387  0.0880  0.6157 -0.3248
  877MOL0     C15669   9.167   5.050  10.421 -0.6368  0.5792 -0.2003
  877MOL0     C15670   9.136   5.082  10.563 -1.3696 -0.8375 -0.0758
  877MOL0     C15671   8.998   5.072  10.593  0.4967 -0.0160  0.0176
  877MOL0     C15672   8.962   5.148  10.722 -0.4796 -0.3626 -0.1477
  877MOL0     C15673   8.947   5.304  10.698 -0.4275  0.4957  0.5135
  877MOL0     C15674   8.796   5.327  10.655  0.0895 -0.1753 -0.0043
  877MOL0     C15675   8.690   5.306  10.767 -0.3946 -0.5139  0.3665
  877MOL0    Cl15676   8.728   5.421  10.896  0.0599  0.3234  0.1580
  877MOL0     C15677   9.294   4.661  10.601  0.1685 -0.1625 -0.7097
  877MOL0     C15678   9.282   4.528  10.634 -1.4544 -0.6616  0.3638
  877MOL0     O15679   9.401   4.236  10.403  0.1056 -0.1212  0.9353
  877MOL0     C15680   9.358   3.962  10.456 -0.0706 -0.5317  0.6594
  877MOL0     C15681   9.328   3.823  10.482 -0.4054  0.5320  0.1820
  877MOL0     N15682   8.915   3.233  10.651  0.2607 -0.7259 -0.8110
  877MOL0     N15683   8.892   3.143  10.567  0.0602  0.5242 -0.5130
  877MOL0     C15684   9.323   2.953  11.091  0.0609  0.5989 -0.3783
  877MOL0     C15685   9.349   3.049  11.188  0.1080  0.2068  0.6696
  877MOL0     C15686   9.318   3.442  11.404  0.4377  0.6276 -0.6292
  877MOL0     C15687   9.434   3.430  11.473 -0.1970  0.3672 -0.0636
  877MOL0     C15688   9.514   3.541  11.516  0.3385 -1.0768  0.2940
  877MOL0     C15689   9.478   3.672  11.481  0.0911 -0.5985 -0.2908
  877MOL0     O15690   9.558   3.780  11.527  0.4623 -0.1105  0.0519
  877MOL0     C15691   9.549   3.919  11.484 -0.0779  0.2233  0.2323
  877MOL0     C15692   9.596   3.931  11.343 -1.4128  0.2663  0.3195
  877MOL0     C15693   9.734   3.857  11.316 -2.1293  0.0370 -0.4297
  877MOL0     C15694   9.717   3.733  11.227  0.0899  0.2833  0.5273
  877MOL0     C15695   9.855   3.683  11.204  0.4131  0.6354  0.1840
  877MOL0     C15696   9.960   3.627  11.176 -0.3612 -0.2073  0.2067
  877MOL0     C15697   9.349   3.691  11.416  0.6577 -0.3889 -0.1901
  877MOL0     C15698   9.282   3.578  11.374  0.4078  0.6075 -0.5031
  877MOL0     H15699   9.048   3.100  11.325 -1.3155  0.2673 -1.8114
  877MOL0     H15700   8.992   2.924  11.154  0.3178 -0.5178  2.2986
  877MOL0     H15701   9.157   2.663  11.139 -1.2435 -0.6744 -0.3110
  877MOL0     H15702   9.195   2.597  10.980 -1.3768 -3.6255  3.2300
  877MOL0     H15703   8.922   2.696  11.083 -0.1963 -0.4890 -0.3835
  877MOL0     H15704   8.965   2.538  11.021 -3.9607  0.0639 -2.8001
  877MOL0     H15705   8.988   2.644  10.796 -0.7172 -1.2770  0.6244
  877MOL0     H15706   8.936   2.803  10.883 -0.4722  0.5886 -0.2429
  877MOL0     H15707   8.778   2.567  10.879 -1.1311 -0.2881 -5.0336
  877MOL0     H15708   8.720   2.732  10.927 -0.6951  1.8716 -0.4030
  877MOL0     H15709   8.644   2.656  10.674  1.2757  1.3520 -2.8244
  877MOL0     H15710   8.805   2.633  10.645 -1.0736 -1.7414 -0.8774
  877MOL0     H15711   8.798   2.915  10.736  1.1395  2.3701 -1.4433
  877MOL0     H15712   8.638   2.890  10.688  0.1358 -1.1621  2.4997
  877MOL0     H15713   8.809   2.773  10.480  1.9048  0.6800  1.3562
  877MOL0     H15714   8.756   2.942  10.463  0.0476 -0.6911 -2.5865
  877MOL0     H15715   8.964   2.915  10.421 -2.7340  0.4381 -0.6615
  877MOL0     H15716   9.006   2.832  10.575 -1.7086 -0.0133  1.4517
  877MOL0     H15717   9.100   2.989  10.756 -2.4961 -1.8019  0.7685
  877MOL0     H15718   9.176   3.268  10.857  0.3839  2.2973 -2.0288
  877MOL0     H15719   9.038   3.234  10.957  2.1703 -0.2340  0.2531
  877MOL0     H15720   9.044   3.468  10.927  2.3437 -1.7716  0.6281
  877MOL0     H15721   8.929   3.444  10.796  0.5742  0.2773 -1.4721
  877MOL0     H15722   9.230   3.451  10.754 -1.4151 -1.0891  3.3285
  877MOL0     H15723   9.111   3.403  10.631  3.1039  0.2750 -0.5018
  877MOL0     H15724   9.117   3.657  10.790 -2.3012  0.3344  1.0968
  877MOL0     H15725   9.002   3.623  10.649  0.8547 -2.4799 -3.8487
  877MOL0     H15726   9.097   3.884  10.725  0.7713 -0.8599  0.5818
  877MOL0     H15727   9.172   4.105  10.691  1.1749  1.3008 -1.1162
  877MOL0     H15728   9.217   4.409  10.326  1.7858 -0.0906 -0.8543
  877MOL0     H15729   9.234   4.652  10.272 -0.4820  0.7457  0.8775
  877MOL0     H15730   9.073   4.863  10.424 -0.4623  6.1344  5.5905
  877MOL0     H15731   9.200   4.887  10.283  2.7503 -1.2014  0.5825
  877MOL0     H15732   9.092   5.095  10.356 -1.6481  3.2709  2.5814
  877MOL0     H15733   9.265   5.091  10.394 -1.1688  0.5710 -2.3238
  877MOL0     H15734   9.158   5.188  10.579  0.9890 -1.5354  2.0192
  877MOL0     H15735   9.208   5.040  10.634  0.2438  2.0352  0.1677
  877MOL0     H15736   8.931   5.114  10.517  3.8503  3.9040 -1.1358
  877MOL0     H15737   8.976   4.965  10.606  2.7605 -0.2170  3.2968
  877MOL0     H15738   9.035   5.120  10.799 -1.7147 -2.5483  0.3044
  877MOL0     H15739   8.867   5.100  10.748  0.0195 -2.6059 -2.1502
  877MOL0     H15740   9.005   5.324  10.607 -1.4683 -2.1098 -0.8546
  877MOL0     H15741   8.975   5.370  10.780  0.2499  0.6777  0.1463
  877MOL0     H15742   8.794   5.432  10.623 -0.6915 -0.0050  0.5955
  877MOL0     H15743   8.769   5.262  10.571 -1.0666  0.5458 -0.2060
  877MOL0     H15744   8.695   5.205  10.810 -0.3661 -1.1567 -1.0722
  877MOL0     H15745   8.590   5.321  10.726 -1.1678  3.1525  3.0818
  877MOL0     H15746   9.310   4.725  10.686 -0.3027 -0.3703 -0.4605
  877MOL0     H15747   9.308   4.491  10.733 -1.6499  0.8544  1.0073
  877MOL0     H15748   9.433   3.981  10.381 -0.1770 -1.2991  0.3458
  877MOL0     H15749   9.381   3.745  10.429 -1.5732 -0.2539  0.1279
  877MOL0     H15750   9.414   2.915  11.045  1.0045 -0.1343  1.9445
  877MOL0     H15751   9.453   3.080  11.200 -0.3514  1.5048  1.5358
  877MOL0     H15752   9.460   3.327  11.498 -0.2213  0.8725  2.2398
  877MOL0     H15753   9.609   3.514  11.561  1.4571  0.4994 -1.0170
  877MOL0     H15754   9.610   3.984  11.547 -0.3792 -1.6258  2.5694
  877MOL0     H15755   9.452   3.964  11.503  0.8443  1.9302  1.1450
  877MOL0     H15756   9.525   3.882  11.276 -0.7676 -0.0028 -0.1783
  877MOL0     H15757   9.606   4.040  11.334 -1.5015  0.4104  1.7491
  877MOL0     H15758   9.791   3.824  11.403 -1.3386  1.4083 -0.3950
  877MOL0     H15759   9.798   3.929  11.265  0.1432 -1.3960  0.2614
  877MOL0     H15760   9.648   3.659  11.267  1.5667  0.1960  3.0943
  877MOL0     H15761   9.681   3.750  11.125 -3.4371 -6.1716  0.1583
  877MOL0     H15762  10.048   3.574  11.145  0.0421  0.7450 -0.3259
  877MOL0     H15763   9.304   3.783  11.382 -2.6725 -1.5688  0.6092
  877MOL0     H15764   9.188   3.588  11.321 -0.9814 -1.8324  1.3015
  878MOL0     O15765  10.581   9.382   2.638  0.2466 -0.6348  0.1098
  878MOL0     C15766  10.637   9.376   2.746  0.2449 -0.6914 -0.9792
  878MOL0     O15767  10.579   9.353   2.869  0.0816 -0.8645 -0.0140
  878MOL0     C15768  10.463   9.295   2.899 -0.0804 -0.2389  0.0996
  878MOL0     C15769  10.410   9.192   2.823 -1.1077 -1.5976 -0.3185
  878MOL0     C15770  10.285   9.135   2.865  0.7598  0.3916 -0.8124
  878MOL0     C15771  10.214   9.180   2.982  0.2674 -0.0170  0.4667
  878MOL0     O15772  10.091   9.132   3.014 -0.1616  0.4290  0.6543
  878MOL0     C15773  10.082   9.059   3.140 -0.0247  0.3067  0.2008
  878MOL0     C15774   9.939   9.032   3.149  0.3406 -0.0493 -0.4521
  878MOL0     C15775   9.840   9.155   3.126 -0.6648  0.7500 -0.0375
  878MOL0     C15776   9.696   9.113   3.127  0.2444 -0.3865 -0.0795
  878MOL0     C15777   9.598   9.224   3.075 -0.3869 -0.4824  1.0199
  878MOL0     C15778   9.455   9.181   3.082 -0.1277  0.0546 -0.2076
  878MOL0     C15779   9.375   9.307   3.059  0.8380  0.4638 -0.6708
  878MOL0     C15780   9.228   9.265   3.022 -0.3058 -0.1860 -0.3607
  878MOL0     N15781   9.139   9.384   2.986 -0.2075  0.7955  0.6382
  878MOL0     C15782   9.188   9.515   2.973  0.2336 -0.0827  0.7967
  878MOL0     C15783   9.074   9.581   2.975  0.9296  0.0047  0.0912
  878MOL0     C15784   9.056   9.729   2.953  0.5377 -0.0310  0.0741
  878MOL0     C15785   9.115   9.815   3.069 -0.2969  0.3359 -0.4338
  878MOL0     C15786   9.035   9.799   3.204  0.4736 -0.3791  0.6918
  878MOL0     C15787   8.890   9.844   3.208 -0.1206 -0.0240 -0.3831
  878MOL0     O15788   8.847   9.872   3.348  0.0679  0.4058 -0.2725
  878MOL0     C15789   8.742   9.962   3.365  0.5836 -0.0069 -1.3352
  878MOL0     C15790   8.644   9.988   3.267 -0.2057 -0.3513 -0.1226
  878MOL0     C15791   8.548  10.092   3.278 -0.0751 -0.0073  0.0995
  878MOL0     C15792   8.539  10.165   3.407  0.5995 -0.1499  0.0823
  878MOL0     C15793   8.437  10.267   3.420  0.3804 -0.4242  0.9739
  878MOL0     O15794   8.359  10.304   3.304  0.2767 -0.7821 -0.4654
  878MOL0     C15795   8.278  10.413   3.303  1.3260 -0.0009 -0.4800
  878MOL0     C15796   8.224  10.446   3.180 -0.4588 -0.8595  0.0772
  878MOL0     C15797   8.137  10.559   3.164 -0.2341  0.1533  0.5221
  878MOL0     C15798   8.113  10.642   3.262  0.4721  0.4398 -0.0395
  878MOL0     O15799   8.019  10.740   3.238  0.2183  0.4845 -0.6968
  878MOL0     C15800   7.985  10.835   3.345  0.7109 -0.3901  0.2964
  878MOL0     C15801   7.870  10.768   3.425 -0.1571  0.9436  0.2483
  878MOL0     C15802   7.855  10.827   3.569 -0.3706  0.4298  0.6883
  878MOL0     C15803   7.719  10.819   3.607  0.5104 -0.2826  0.5801
  878MOL0     C15804   7.660  10.677   3.606  0.7265 -0.4034 -0.2219
  878MOL0     C15805   7.733  10.571   3.682 -0.3982  0.5632  0.2520
  878MOL0     C15806   7.673  10.431   3.656  0.1621  0.2555  0.5137
  878MOL0     C15807   7.720  10.361   3.531 -1.1923 -0.0491  0.0178
  878MOL0    Cl15808   7.903  10.345   3.499 -0.1558 -0.4849 -0.2351
  878MOL0     C15809   8.169  10.617   3.387 -1.0799  0.3171 -0.2174
  878MOL0     C15810   8.253  10.510   3.404  0.6671 -0.3169 -1.0425
  878MOL0     O15811   8.428  10.313   3.529 -0.5438 -0.6105 -0.3705
  878MOL0     C15812   8.635  10.134   3.506  0.3964  0.0064 -0.8878
  878MOL0     C15813   8.727  10.028   3.493 -0.4360  0.0044  0.4277
  878MOL0     N15814   8.965   9.500   3.001 -0.3362 -0.3478  0.6033
  878MOL0     N15815   9.006   9.379   3.007 -0.0214 -0.2297  0.5327
  878MOL0     C15816  10.270   9.298   3.043  0.0727 -0.0406  0.0513
  878MOL0     C15817  10.396   9.341   3.011  0.0425 -0.0491 -0.0503
  878MOL0     C15818  10.781   9.402   2.751 -0.8598 -0.2573  0.2612
  878MOL0     C15819  10.856   9.406   2.873 -0.2349  0.5844  0.1496
  878MOL0     C15820  10.992   9.430   2.866  0.9407 -0.3768 -0.0734
  878MOL0     C15821  11.061   9.452   2.745 -0.1644  0.7230 -0.5064
  878MOL0     O15822  11.188   9.494   2.760 -0.0361 -0.2657  0.3312
  878MOL0     C15823  11.231   9.608   2.677  0.2935 -0.0270  0.7750
  878MOL0     C15824  11.359   9.660   2.734 -0.3512 -0.1243 -0.0372
  878MOL0     C15825  11.476   9.562   2.730  0.1443  0.6755  0.7627
  878MOL0     C15826  11.586   9.610   2.818  0.7917  0.1871  0.3984
  878MOL0     C15827  11.667   9.733   2.781  0.4876  0.7704 -0.0927
  878MOL0     C15828  11.734   9.825   2.751 -0.8232  0.0076 -0.6285
  878MOL0     C15829  10.987   9.436   2.625 -0.2307 -0.4779 -0.2373
  878MOL0     C15830  10.854   9.406   2.632  0.3119 -0.6089  0.2289
  878MOL0     H15831  10.458   9.158   2.732 -0.6887  0.8817 -1.1005
  878MOL0     H15832  10.233   9.066   2.799  0.2029  0.9005 -0.9091
  878MOL0     H15833  10.123   9.128   3.213  2.9360  2.1639 -2.9297
  878MOL0     H15834  10.135   8.964   3.141 -2.2115 -1.0932 -2.3347
  878MOL0     H15835   9.924   8.997   3.251  0.0552  3.3538  0.7958
  878MOL0     H15836   9.904   8.955   3.081  1.2019 -2.4979  1.7261
  878MOL0     H15837   9.869   9.195   3.029  0.7938 -0.0288  0.0615
  878MOL0     H15838   9.863   9.237   3.195 -1.5848  1.9146 -1.0524
  878MOL0     H15839   9.684   9.022   3.068 -1.2664 -1.0348  1.1673
  878MOL0     H15840   9.665   9.095   3.230 -0.1376 -0.1883 -0.1597
  878MOL0     H15841   9.623   9.238   2.969 -2.3222 -2.5774  0.2080
  878MOL0     H15842   9.614   9.312   3.137  2.7104 -1.2848  1.5558
  878MOL0     H15843   9.439   9.134   3.180  0.0777 -2.2167 -1.2133
  878MOL0     H15844   9.426   9.109   3.005 -2.1525  1.2332 -0.6402
  878MOL0     H15845   9.381   9.373   3.147  0.8662  0.8376 -0.9531
  878MOL0     H15846   9.417   9.359   2.973 -2.5983  1.6626 -1.8138
  878MOL0     H15847   9.187   9.213   3.109 -1.1688  3.4053  1.6034
  878MOL0     H15848   9.227   9.199   2.935  1.2069 -0.0466 -0.5125
  878MOL0     H15849   9.290   9.547   2.953  0.2416 -0.0700  0.8574
  878MOL0     H15850   8.956   9.766   2.928  0.6614  0.9170  0.8867
  878MOL0     H15851   9.124   9.758   2.873  2.3405 -1.9299  0.8215
  878MOL0     H15852   9.098   9.920   3.042 -0.8498  0.4781  0.4139
  878MOL0     H15853   9.222   9.803   3.088 -0.3689  1.8039  1.1621
  878MOL0     H15854   9.039   9.695   3.240 -1.9230 -0.0700  2.0764
  878MOL0     H15855   9.087   9.870   3.269  1.1722  0.4170 -0.6898
  878MOL0     H15856   8.814   9.779   3.163 -2.7970  2.4062  0.2997
  878MOL0     H15857   8.892   9.937   3.151 -2.2808  0.2552 -0.0772
  878MOL0     H15858   8.650   9.943   3.168 -0.9897 -1.5297  0.3360
  878MOL0     H15859   8.481  10.115   3.197 -0.8246  1.7316  1.1520
  878MOL0     H15860   8.250  10.382   3.096 -1.2326  0.0559 -0.8868
  878MOL0     H15861   8.079  10.579   3.074 -1.1148 -3.9602 -0.0298
  878MOL0     H15862   7.953  10.930   3.302  1.5426  0.6525  1.9314
  878MOL0     H15863   8.070  10.854   3.410 -0.7541  0.1256  2.1467
  878MOL0     H15864   7.881  10.659   3.432  1.4981  1.1123  0.5776
  878MOL0     H15865   7.782  10.793   3.365  1.4002  0.8018 -2.2220
  878MOL0     H15866   7.876  10.933   3.550  2.3281  0.0715  1.1656
  878MOL0     H15867   7.926  10.797   3.647  0.9392  1.0558 -0.2052
  878MOL0     H15868   7.698  10.878   3.696  1.8190  2.1427 -0.6303
  878MOL0     H15869   7.660  10.878   3.536 -0.8643 -1.3467  0.7903
  878MOL0     H15870   7.652  10.651   3.500  3.4012  1.1369 -0.8728
  878MOL0     H15871   7.560  10.682   3.650  1.6543  2.2931  1.8544
  878MOL0     H15872   7.717  10.591   3.788  0.2131  1.2747  0.2185
  878MOL0     H15873   7.841  10.579   3.662 -0.4126 -0.7452 -0.4072
  878MOL0     H15874   7.709  10.374   3.743 -1.0794 -0.3153  0.6735
  878MOL0     H15875   7.564  10.426   3.656  0.2091 -1.9336 -1.3624
  878MOL0     H15876   7.678  10.419   3.449  1.5531  0.4457 -1.1769
  878MOL0     H15877   7.676  10.261   3.529  1.7763 -1.4844  0.6230
  878MOL0     H15878   8.134  10.668   3.476  0.4567 -2.9135  2.4818
  878MOL0     H15879   8.287  10.504   3.507 -0.6761  0.9299 -0.4950
  878MOL0     H15880   8.643  10.182   3.603  2.0633 -1.4771 -0.2458
  878MOL0     H15881   8.794   9.989   3.568 -1.8570 -1.0893  1.1886
  878MOL0     H15882  10.216   9.346   3.124 -1.3951 -1.5608  0.0153
  878MOL0     H15883  10.438   9.425   3.065  0.1658  0.3806 -0.8109
  878MOL0     H15884  10.807   9.413   2.970 -0.8366 -2.5862  0.1658
  878MOL0     H15885  11.039   9.421   2.964  2.3282 -1.8837 -0.8219
  878MOL0     H15886  11.159   9.689   2.695 -1.3872 -1.5103  1.0235
  878MOL0     H15887  11.251   9.575   2.575 -0.3005  1.0592  0.2933
  878MOL0     H15888  11.387   9.752   2.681  3.7696 -0.7499  0.6949
  878MOL0     H15889  11.341   9.673   2.841 -3.4876  1.0507 -0.5868
  878MOL0     H15890  11.508   9.550   2.626 -1.0900  0.9049  0.3346
  878MOL0     H15891  11.434   9.468   2.768  0.3340  1.4306  3.0137
  878MOL0     H15892  11.531   9.628   2.911 -0.5185  1.3340 -0.5635
  878MOL0     H15893  11.656   9.528   2.833  2.6337  1.6060 -0.0449
  878MOL0     H15894  11.784   9.910   2.710  1.7738  1.0587  4.0163
  878MOL0     H15895  11.050   9.450   2.537  0.8315  2.5935  0.8793
  878MOL0     H15896  10.798   9.399   2.539  0.1568 -1.9571  0.3965
  879MOL0     O15897   5.300   0.026   4.026  0.5430  0.4805  0.2912
  879MOL0     C15898   5.225  -0.062   4.066  0.5667 -0.6767  0.4342
  879MOL0     O15899   5.244  -0.202   4.057 -0.2432 -0.2612  0.5344
  879MOL0     C15900   5.356  -0.238   3.986  0.2073 -0.5960 -0.1916
  879MOL0     C15901   5.342  -0.327   3.884 -0.1491 -0.8957 -1.0140
  879MOL0     C15902   5.460  -0.395   3.837  0.1963 -0.7132  0.3803
  879MOL0     C15903   5.592  -0.363   3.885  0.8779  0.1317 -0.5458
  879MOL0     O15904   5.704  -0.419   3.828  0.2628 -0.3226  0.7148
  879MOL0     C15905   5.829  -0.349   3.807  0.6283 -0.6579 -1.1190
  879MOL0     C15906   5.935  -0.441   3.747 -0.2527  0.2565  0.3064
  879MOL0     C15907   6.070  -0.410   3.805 -0.2596 -0.1878 -0.5968
  879MOL0     C15908   6.137  -0.297   3.723 -0.2820 -0.2672 -0.1957
  879MOL0     C15909   6.277  -0.282   3.785 -0.2212  0.2033  0.1799
  879MOL0     C15910   6.288  -0.237   3.930 -0.8143  0.3473 -0.3378
  879MOL0     C15911   6.207  -0.116   3.950  0.2487  0.0888 -0.2626
  879MOL0     C15912   6.207  -0.064   4.093 -0.1441  0.5810 -1.0936
  879MOL0     N15913   6.117  -0.128   4.185 -0.5386  0.3099  0.9851
  879MOL0     C15914   6.151  -0.142   4.318  0.2486  0.6655 -0.0350
  879MOL0     C15915   6.034  -0.185   4.372  0.2730  0.9084  0.4594
  879MOL0     C15916   6.014  -0.193   4.517 -0.1318 -0.0854 -0.1650
  879MOL0     C15917   5.950  -0.060   4.585  1.2420 -0.5673  0.8342
  879MOL0     C15918   5.975  -0.071   4.731  0.0697 -0.4017  0.8818
  879MOL0     C15919   5.963   0.063   4.801 -0.4513  0.2912  0.6581
  879MOL0     O15920   5.959   0.028   4.942 -0.1564 -0.0258  0.5754
  879MOL0     C15921   6.081   0.031   5.010 -0.2170 -0.1532 -0.3140
  879MOL0     C15922   6.131   0.155   5.039  0.8941 -0.0983 -0.8587
  879MOL0     C15923   6.243   0.163   5.117  0.1081  0.2169  1.0647
  879MOL0     C15924   6.324   0.050   5.142  0.5672 -0.0005  0.7080
  879MOL0     C15925   6.437   0.065   5.238 -0.6783 -0.0964 -0.3548
  879MOL0     O15926   6.518  -0.042   5.270  0.3515 -1.1098  0.1013
  879MOL0     C15927   6.633  -0.036   5.343 -0.4230  0.2972 -0.7469
  879MOL0     C15928   6.645  -0.135   5.442 -0.6340 -0.5802 -0.2814
  879MOL0     C15929   6.761  -0.146   5.517  0.9952  1.0383  0.1674
  879MOL0     C15930   6.861  -0.049   5.500  0.2369  0.2868 -0.0665
  879MOL0     O15931   6.980  -0.075   5.564  0.5013 -0.0429 -0.0287
  879MOL0     C15932   7.105  -0.000   5.544 -1.4093  0.2086  0.0840
  879MOL0     C15933   7.204  -0.065   5.647  0.5766 -0.0515 -0.4713
  879MOL0     C15934   7.235  -0.213   5.637  0.1632 -0.0516  0.2865
  879MOL0     C15935   7.350  -0.261   5.736  0.1906 -0.5714 -0.1377
  879MOL0     C15936   7.401  -0.407   5.706 -1.2480 -0.2356 -1.0045
  879MOL0     C15937   7.293  -0.511   5.734 -0.6672  0.6657 -0.6624
  879MOL0     C15938   7.357  -0.645   5.730 -0.2079  0.3165 -0.6251
  879MOL0     C15939   7.369  -0.700   5.590 -0.0320  0.5141 -0.0972
  879MOL0    Cl15940   7.465  -0.846   5.599 -0.2943  0.0925  0.2264
  879MOL0     C15941   6.855   0.034   5.390 -0.2941 -0.4009 -0.1834
  879MOL0     C15942   6.740   0.044   5.313 -1.2285  0.5461 -0.7439
  879MOL0     O15943   6.467   0.186   5.259  0.7635  0.1166 -0.3303
  879MOL0     C15944   6.283  -0.080   5.104 -0.9006  0.6672  0.4414
  879MOL0     C15945   6.146  -0.087   5.050  0.2585 -0.5606  0.1032
  879MOL0     N15946   5.938  -0.206   4.271 -0.4633 -0.2067 -0.4884
  879MOL0     N15947   5.989  -0.163   4.160  0.2447 -0.3644 -0.3498
  879MOL0     C15948   5.594  -0.291   4.000  0.2438 -0.5180  0.3635
  879MOL0     C15949   5.481  -0.220   4.043 -0.2758  0.6956 -0.2051
  879MOL0     C15950   5.095  -0.011   4.118 -0.8299  0.0165 -0.3263
  879MOL0     C15951   5.051   0.122   4.117 -0.2711  1.0886  0.3865
  879MOL0     C15952   4.933   0.158   4.175  0.9732  0.2050  0.2511
  879MOL0     C15953   4.858   0.064   4.249 -0.7011 -0.2015  0.1407
  879MOL0     O15954   4.752   0.108   4.329  0.3128 -0.0497 -0.1883
  879MOL0     C15955   4.773   0.238   4.395  1.0134  0.1367  0.3045
  879MOL0     C15956   4.648   0.264   4.475 -0.1356  0.3764  0.2509
  879MOL0     C15957   4.663   0.388   4.565 -0.8012  0.5714 -0.2561
  879MOL0     C15958   4.536   0.401   4.644 -0.0714 -0.5858 -0.9609
  879MOL0     C15959   4.545   0.516   4.725 -1.2816  0.0427  0.0187
  879MOL0     C15960   4.554   0.617   4.789  0.3633  0.1733  0.3189
  879MOL0     C15961   4.902  -0.068   4.250 -0.7978  0.3111 -0.8888
  879MOL0     C15962   5.014  -0.106   4.181 -0.3396  0.9610  0.0255
  879MOL0     H15963   5.240  -0.350   3.853 -0.7000  1.0168 -0.7150
  879MOL0     H15964   5.460  -0.470   3.758  0.1516 -1.1694  0.8079
  879MOL0     H15965   5.856  -0.320   3.909 -2.3020  0.1627 -0.4496
  879MOL0     H15966   5.823  -0.253   3.755  0.5462  1.2288  2.0846
  879MOL0     H15967   5.932  -0.437   3.637 -0.6023  3.5196  0.3611
  879MOL0     H15968   5.909  -0.547   3.753  0.4820  0.0250 -0.3332
  879MOL0     H15969   6.126  -0.503   3.797 -1.6123 -1.2123  1.2195
  879MOL0     H15970   6.065  -0.396   3.913 -0.2208 -2.0779 -0.3260
  879MOL0     H15971   6.148  -0.315   3.616 -0.3177  3.1741 -0.9026
  879MOL0     H15972   6.086  -0.201   3.714  0.4339  0.0611 -0.9700
  879MOL0     H15973   6.336  -0.202   3.740  1.4496 -0.7806  0.5310
  879MOL0     H15974   6.330  -0.378   3.784 -3.1326 -1.5643  0.9237
  879MOL0     H15975   6.393  -0.224   3.954 -0.6303 -4.0947  2.3560
  879MOL0     H15976   6.266  -0.319   3.999  0.1482 -0.1132 -0.5696
  879MOL0     H15977   6.238  -0.037   3.881 -2.0417 -0.8093 -2.5094
  879MOL0     H15978   6.103  -0.136   3.922  0.4202  1.4603 -2.0913
  879MOL0     H15979   6.177   0.042   4.088  2.7499  1.5302 -0.3141
  879MOL0     H15980   6.303  -0.065   4.146 -0.7271 -2.1117  0.0738
  879MOL0     H15981   6.238  -0.113   4.376 -0.0622 -0.5405  1.0877
  879MOL0     H15982   6.112  -0.205   4.564 -0.1395 -1.8945 -0.5342
  879MOL0     H15983   5.955  -0.277   4.558  0.8885  1.0621  4.2005
  879MOL0     H15984   5.841  -0.055   4.584  1.1804 -1.5065 -0.4969
  879MOL0     H15985   5.997   0.027   4.537 -0.5910  0.9123  1.5977
  879MOL0     H15986   5.906  -0.148   4.769 -1.3785  0.9141  1.0456
  879MOL0     H15987   6.081  -0.095   4.742  0.1273  0.0205  1.2824
  879MOL0     H15988   5.863   0.095   4.771 -0.0414  1.5769  0.6021
  879MOL0     H15989   6.025   0.152   4.785  1.5722 -1.1061  0.3780
  879MOL0     H15990   6.078   0.246   5.016 -0.5928  0.0122  2.4773
  879MOL0     H15991   6.275   0.256   5.164  0.7259 -0.5205  2.1543
  879MOL0     H15992   6.574  -0.216   5.458  0.6089 -1.7247 -0.4249
  879MOL0     H15993   6.781  -0.230   5.583 -0.2068 -1.5375 -2.4868
  879MOL0     H15994   7.099   0.108   5.561 -0.1046  0.8568 -2.9327
  879MOL0     H15995   7.149  -0.022   5.447 -2.4160  0.7875 -0.5270
  879MOL0     H15996   7.157  -0.042   5.743  2.0078  3.6356 -0.4869
  879MOL0     H15997   7.301  -0.014   5.648 -0.4322  2.2496 -3.3181
  879MOL0     H15998   7.256  -0.235   5.532 -1.4867  0.3047 -0.1487
  879MOL0     H15999   7.142  -0.268   5.657 -0.5180  0.5212 -1.1444
  879MOL0     H16000   7.438  -0.199   5.753  0.6663 -0.8669 -1.4630
  879MOL0     H16001   7.299  -0.266   5.833 -0.8754  0.1682 -0.6321
  879MOL0     H16002   7.490  -0.435   5.763 -1.2189 -1.1218 -1.4790
  879MOL0     H16003   7.429  -0.419   5.601  3.2389 -2.7196  0.2120
  879MOL0     H16004   7.207  -0.504   5.667 -0.2640  2.1124 -1.0672
  879MOL0     H16005   7.264  -0.502   5.839  1.0289  2.9835 -0.3044
  879MOL0     H16006   7.454  -0.637   5.781 -0.2399  1.8848 -0.7718
  879MOL0     H16007   7.296  -0.717   5.786  0.0289  1.3641  1.0438
  879MOL0     H16008   7.411  -0.632   5.516 -1.6711 -0.6190 -2.1715
  879MOL0     H16009   7.272  -0.735   5.554  0.0280 -1.9183  1.7779
  879MOL0     H16010   6.946   0.079   5.354  0.3123 -3.3426 -2.8389
  879MOL0     H16011   6.729   0.098   5.220 -0.8725  0.4784 -0.8246
  879MOL0     H16012   6.339  -0.167   5.136 -2.3508  0.5597  2.9189
  879MOL0     H16013   6.102  -0.184   5.029  0.9342 -1.6567  3.1286
  879MOL0     H16014   5.695  -0.290   4.038  1.0037 -2.7624 -1.3457
  879MOL0     H16015   5.481  -0.177   4.143  3.2441  0.6310 -0.0238
  879MOL0     H16016   5.124   0.193   4.079 -1.6962  2.5689  0.3145
  879MOL0     H16017   4.921   0.266   4.175  0.2526  0.1334  0.8475
  879MOL0     H16018   4.773   0.317   4.319 -0.6567 -0.2513 -0.1406
  879MOL0     H16019   4.861   0.233   4.460 -0.3781  2.9225  2.6557
  879MOL0     H16020   4.560   0.273   4.409  0.3180  1.0299 -0.2767
  879MOL0     H16021   4.636   0.177   4.540  1.0595 -0.7556 -0.9515
  879MOL0     H16022   4.678   0.476   4.502 -4.4392  1.1434 -0.5813
  879MOL0     H16023   4.737   0.376   4.644 -1.7456 -1.6844  0.3939
  879MOL0     H16024   4.452   0.411   4.575 -1.4850 -1.0818  0.6392
  879MOL0     H16025   4.523   0.314   4.709 -1.2544 -0.9596 -1.6662
  879MOL0     H16026   4.562   0.699   4.857  0.2795  0.6298 -0.2112
  879MOL0     H16027   4.837  -0.135   4.306  0.1759  0.2266  0.1784
  879MOL0     H16028   5.024  -0.214   4.184 -2.2372  0.7536  2.8650
  880MOL0     O16029   1.854   1.523   7.876 -0.4204 -0.4695 -0.2694
  880MOL0     C16030   1.921   1.621   7.906  0.5615 -0.7016 -0.4493
  880MOL0     O16031   1.989   1.640   8.018 -0.8957  0.5153 -0.2926
  880MOL0     C16032   2.037   1.524   8.091  0.3448  0.4220  0.5257
  880MOL0     C16033   2.079   1.535   8.223  0.8095  0.5263  0.2346
  880MOL0     C16034   2.135   1.424   8.294 -0.1781 -0.5562  0.4061
  880MOL0     C16035   2.154   1.304   8.233  0.1821  0.1441 -0.0176
  880MOL0     O16036   2.214   1.197   8.292 -0.2505 -0.1269 -0.0276
  880MOL0     C16037   2.336   1.204   8.365  0.3861 -0.7822  0.3312
  880MOL0     C16038   2.429   1.094   8.325 -1.0155  0.4113 -0.5699
  880MOL0     C16039   2.551   1.073   8.419  0.3725  1.0435 -0.2597
  880MOL0     C16040   2.674   1.152   8.375 -0.2152 -0.5560  0.4503
  880MOL0     C16041   2.793   1.139   8.464 -0.1848  0.0687  0.1575
  880MOL0     C16042   2.871   1.008   8.451 -0.5574 -1.0506 -0.4919
  880MOL0     C16043   2.984   1.012   8.544  0.1058 -0.0092  0.4454
  880MOL0     C16044   3.067   0.883   8.542  0.7125 -0.2885 -0.1062
  880MOL0     N16045   3.193   0.906   8.469  0.0682  0.2904 -0.6036
  880MOL0     C16046   3.209   0.874   8.337 -0.4179 -0.6961  0.2585
  880MOL0     C16047   3.350   0.884   8.319  0.6646  0.6252  0.8536
  880MOL0     C16048   3.428   0.841   8.191  0.5537  0.1201 -0.2755
  880MOL0     C16049   3.566   0.804   8.220 -0.2635  0.1973 -1.0788
  880MOL0     C16050   3.673   0.921   8.207  0.1585 -0.2422  0.5823
  880MOL0     C16051   3.643   1.054   8.283  0.4942 -0.4330 -0.9298
  880MOL0     O16052   3.743   1.152   8.254 -0.1895  0.2434 -0.1607
  880MOL0     C16053   3.740   1.286   8.291 -0.0690  0.4384  0.1818
  880MOL0     C16054   3.857   1.374   8.282  0.3511  0.3630 -0.2473
  880MOL0     C16055   3.864   1.503   8.334 -0.2916  0.5863 -0.0213
  880MOL0     C16056   3.748   1.564   8.370  0.4224  0.0857  0.7710
  880MOL0     C16057   3.739   1.715   8.411 -0.1416  0.7907 -0.1182
  880MOL0     O16058   3.648   1.764   8.507 -0.0039  1.2259  0.0024
  880MOL0     C16059   3.642   1.902   8.535  0.9400  1.1502 -0.2079
  880MOL0     C16060   3.651   1.955   8.663 -0.0479  0.2869 -0.7297
  880MOL0     C16061   3.634   2.093   8.676  0.1952 -0.1830 -0.3476
  880MOL0     C16062   3.620   2.181   8.572 -0.2031  0.1844  0.9463
  880MOL0     O16063   3.605   2.321   8.606 -0.0291  0.3623  0.7030
  880MOL0     C16064   3.618   2.426   8.510 -0.6687 -0.0539  0.7184
  880MOL0     C16065   3.738   2.513   8.550 -0.3092  1.1411  0.1523
  880MOL0     C16066   3.753   2.579   8.691  0.1316  0.3302 -0.0161
  880MOL0     C16067   3.894   2.603   8.739 -0.0062 -0.8461 -0.1927
  880MOL0     C16068   3.976   2.723   8.675  0.0665  0.6073 -0.1777
  880MOL0     C16069   4.127   2.706   8.657  0.1404 -0.0573 -0.5360
  880MOL0     C16070   4.215   2.686   8.778  0.2181  0.8885  0.4348
  880MOL0     C16071   4.357   2.734   8.751 -0.8120  0.6233  0.3218
  880MOL0    Cl16072   4.423   2.643   8.620  0.1955 -0.5635 -0.0487
  880MOL0     C16073   3.608   2.128   8.441  0.4059 -0.5643 -0.1390
  880MOL0     C16074   3.616   1.993   8.425 -0.4212  0.5730 -0.4121
  880MOL0     O16075   3.814   1.789   8.347 -0.6458 -0.4361  0.0065
  880MOL0     C16076   3.623   1.487   8.367  0.3309  0.5222  0.1693
  880MOL0     C16077   3.624   1.351   8.332 -0.0220  0.0799 -0.1427
  880MOL0     N16078   3.410   0.934   8.437 -0.2062  0.1873  0.5712
  880MOL0     N16079   3.310   0.945   8.525  0.4393  0.0779  0.2329
  880MOL0     C16080   2.102   1.289   8.099 -0.4554  0.7380  1.3096
  880MOL0     C16081   2.057   1.398   8.029 -0.5704 -0.4958  0.9169
  880MOL0     C16082   1.892   1.735   7.818  0.6793  0.2977  0.4191
  880MOL0     C16083   1.923   1.876   7.858 -0.4318 -0.0411 -0.3174
  880MOL0     C16084   1.895   1.973   7.769 -0.3945 -0.6280  0.7401
  880MOL0     C16085   1.848   1.937   7.634 -0.6065  0.4640  0.4012
  880MOL0     O16086   1.837   2.025   7.533  0.4929 -0.5847  0.2544
  880MOL0     C16087   1.911   2.153   7.529  0.2730 -0.0318  0.3336
  880MOL0     C16088   2.055   2.133   7.521 -0.4389 -0.8032 -0.7225
  880MOL0     C16089   2.096   2.022   7.429 -1.2591 -0.2108 -0.1123
  880MOL0     C16090   2.012   2.014   7.292 -0.1254  0.2742 -1.3336
  880MOL0     C16091   2.033   2.152   7.243  0.7712  0.2985 -1.6465
  880MOL0     C16092   2.057   2.266   7.211  0.8624 -1.3168  0.2790
  880MOL0     C16093   1.829   1.805   7.590  0.1351  0.2296  0.2490
  880MOL0     C16094   1.841   1.710   7.692  0.9136  0.2150  0.7191
  880MOL0     H16095   2.075   1.623   8.285 -0.2971  0.4964  0.2161
  880MOL0     H16096   2.181   1.456   8.387  3.0824  3.4538 -2.2058
  880MOL0     H16097   2.308   1.181   8.469 -1.6766  1.6173  0.3913
  880MOL0     H16098   2.381   1.303   8.357 -2.4915  0.6120  0.2403
  880MOL0     H16099   2.477   1.109   8.227  2.2505 -0.9273  0.6621
  880MOL0     H16100   2.379   0.997   8.316  2.5459 -1.7339  0.7523
  880MOL0     H16101   2.581   0.968   8.414  0.1625  1.0128 -3.9028
  880MOL0     H16102   2.530   1.090   8.524 -0.2865 -0.3505 -0.1394
  880MOL0     H16103   2.703   1.125   8.274  0.7556  1.7646  0.0368
  880MOL0     H16104   2.651   1.256   8.350  1.1745 -0.9297 -2.7753
  880MOL0     H16105   2.759   1.157   8.567 -2.4833  2.5058 -0.9201
  880MOL0     H16106   2.860   1.222   8.442 -1.1786  0.2418 -2.5056
  880MOL0     H16107   2.914   1.008   8.350 -2.6983  2.8270 -1.5931
  880MOL0     H16108   2.805   0.927   8.483  1.4555 -3.4336 -2.0252
  880MOL0     H16109   3.042   1.101   8.519  3.1241 -1.8166  0.5247
  880MOL0     H16110   2.948   1.022   8.647 -1.5277 -0.2886 -0.0655
  880MOL0     H16111   3.012   0.806   8.488 -0.5402 -0.0447  0.8048
  880MOL0     H16112   3.100   0.846   8.639  2.5621 -2.8038 -1.5563
  880MOL0     H16113   3.129   0.843   8.270  0.4862 -1.3800 -0.5213
  880MOL0     H16114   3.425   0.926   8.122  2.1193  1.4354  1.1821
  880MOL0     H16115   3.364   0.760   8.158 -1.5831  1.6155  0.0090
  880MOL0     H16116   3.595   0.718   8.158  3.3456  0.5688 -0.1681
  880MOL0     H16117   3.576   0.765   8.322  0.9314  0.3178 -1.1270
  880MOL0     H16118   3.764   0.870   8.243 -0.0539 -1.2686 -0.2771
  880MOL0     H16119   3.691   0.950   8.103 -0.6776  1.2726  0.8319
  880MOL0     H16120   3.643   1.034   8.391 -2.3604 -1.2174 -0.9998
  880MOL0     H16121   3.541   1.086   8.260  0.0356 -1.2846 -0.1569
  880MOL0     H16122   3.943   1.317   8.250  3.1051  0.8386  5.1217
  880MOL0     H16123   3.951   1.568   8.329 -0.7763  1.1510 -4.5224
  880MOL0     H16124   3.674   1.891   8.748  0.3902  2.5377  0.9693
  880MOL0     H16125   3.641   2.131   8.777  0.4331  0.5970 -0.6484
  880MOL0     H16126   3.531   2.493   8.507  0.5009  1.5514  0.9550
  880MOL0     H16127   3.640   2.391   8.409  0.9096  1.8860  0.3257
  880MOL0     H16128   3.738   2.589   8.471 -2.3636 -0.7930 -1.8923
  880MOL0     H16129   3.826   2.450   8.534 -2.0671 -1.7493  0.9396
  880MOL0     H16130   3.710   2.529   8.778 -0.7710  1.9520  0.5242
  880MOL0     H16131   3.697   2.673   8.700 -1.3145 -0.7021  4.0067
  880MOL0     H16132   3.893   2.624   8.847 -0.0942 -2.4394  0.1433
  880MOL0     H16133   3.945   2.507   8.726  1.4609  0.1023 -1.8482
  880MOL0     H16134   3.958   2.811   8.737  1.8622  0.8055  0.1064
  880MOL0     H16135   3.938   2.745   8.575  0.8417  2.9815  0.0127
  880MOL0     H16136   4.157   2.797   8.604 -1.8642 -0.1892 -2.0402
  880MOL0     H16137   4.147   2.617   8.596  1.5096 -1.3426  1.6185
  880MOL0     H16138   4.171   2.738   8.864  0.1799  1.3908  0.1157
  880MOL0     H16139   4.199   2.582   8.806 -3.0403  1.0613 -0.4370
  880MOL0     H16140   4.418   2.726   8.841 -0.3171 -1.1724 -0.1175
  880MOL0     H16141   4.355   2.838   8.718  2.3270  0.2514 -1.4028
  880MOL0     H16142   3.584   2.187   8.353  3.1020 -1.9498 -1.9400
  880MOL0     H16143   3.606   1.946   8.328  3.5487 -1.4166 -0.0471
  880MOL0     H16144   3.524   1.528   8.384  0.3982  0.0097  2.0341
  880MOL0     H16145   3.528   1.306   8.351 -0.1539  0.2625 -0.3661
  880MOL0     H16146   2.114   1.193   8.050  0.2958  1.2605  0.4440
  880MOL0     H16147   2.043   1.377   7.924  0.6593 -1.3884  0.9060
  880MOL0     H16148   1.947   1.913   7.957  1.1659  1.4203 -1.2117
  880MOL0     H16149   1.901   2.075   7.803 -0.6973 -1.2206  2.7242
  880MOL0     H16150   1.879   2.233   7.597 -3.5509  1.6961 -3.0497
  880MOL0     H16151   1.859   2.206   7.448 -1.6923 -1.5472  0.5264
  880MOL0     H16152   2.106   2.227   7.497  2.5940 -2.1345  0.0682
  880MOL0     H16153   2.091   2.098   7.618  0.0076 -1.1785 -1.0203
  880MOL0     H16154   2.082   1.925   7.478  0.2877 -0.7951 -0.7398
  880MOL0     H16155   2.205   2.027   7.425 -1.1117 -1.0005  1.7726
  880MOL0     H16156   2.067   1.952   7.222  0.1409  0.0798 -0.9557
  880MOL0     H16157   1.909   1.977   7.296 -1.5579  3.8670 -1.1707
  880MOL0     H16158   2.059   2.361   7.162 -0.3657  0.7402  3.8323
  880MOL0     H16159   1.786   1.790   7.492  0.1799  1.2203  0.0695
  880MOL0     H16160   1.823   1.605   7.672 -0.4711  0.2316  1.7491
  881MOL0     O16161   1.109   4.273   5.378  1.1213  0.0682  0.4512
  881MOL0     C16162   1.180   4.201   5.438 -1.2204 -0.2212  0.0652
  881MOL0     O16163   1.254   4.095   5.394 -0.4698 -0.7821 -0.5340
  881MOL0     C16164   1.261   4.075   5.259 -0.9188  0.4367  1.1669
  881MOL0     C16165   1.313   4.181   5.176  0.1443  0.7451 -0.5026
  881MOL0     C16166   1.322   4.162   5.039  0.3678 -0.1918  0.0029
  881MOL0     C16167   1.271   4.045   4.978  0.2355  0.4314 -0.2067
  881MOL0     O16168   1.294   4.028   4.844 -0.3012  0.0605 -0.0966
  881MOL0     C16169   1.171   4.006   4.779 -0.1862  0.8533  0.3680
  881MOL0     C16170   1.190   4.057   4.643 -0.6278  0.6253  0.0761
  881MOL0     C16171   1.135   4.202   4.634 -0.5478 -0.3855 -0.3132
  881MOL0     C16172   1.238   4.305   4.684  0.2304 -0.2889  0.1989
  881MOL0     C16173   1.193   4.443   4.655  0.5360 -0.3420  0.3444
  881MOL0     C16174   1.068   4.495   4.729  0.1761  0.4803 -0.1164
  881MOL0     C16175   1.063   4.650   4.721 -0.3003  0.1814  0.7429
  881MOL0     C16176   0.930   4.706   4.761 -0.4062 -0.0899 -0.6366
  881MOL0     N16177   0.939   4.852   4.754  0.0259 -0.2853 -0.4496
  881MOL0     C16178   0.948   4.934   4.643  0.3480 -0.9303 -0.1933
  881MOL0     C16179   0.957   5.057   4.692 -0.4516 -0.1037 -0.0966
  881MOL0     C16180   0.947   5.183   4.621 -0.5352 -0.0223  1.4406
  881MOL0     C16181   0.802   5.229   4.631  0.5438 -0.0386  0.0966
  881MOL0     C16182   0.775   5.359   4.553  0.0891  0.7969  0.3436
  881MOL0     C16183   0.639   5.429   4.577  0.3677  0.2767 -0.4622
  881MOL0     O16184   0.640   5.534   4.670  0.9521  0.5682  0.5444
  881MOL0     C16185   0.678   5.664   4.629 -0.1461  1.0256  0.0286
  881MOL0     C16186   0.672   5.722   4.503  0.2097 -0.1066  0.1470
  881MOL0     C16187   0.718   5.851   4.477 -0.0583 -0.4634  1.3715
  881MOL0     C16188   0.773   5.921   4.587 -0.1393 -0.3000  0.0265
  881MOL0     C16189   0.810   6.064   4.570  0.4482  1.5810 -1.4621
  881MOL0     O16190   0.860   6.093   4.446 -0.6324 -0.0395  0.2986
  881MOL0     C16191   0.922   6.215   4.417  0.2317  0.4236 -0.3213
  881MOL0     C16192   0.978   6.302   4.510  0.1367 -0.6532  0.2658
  881MOL0     C16193   1.051   6.418   4.464 -0.8517 -0.6402  0.9491
  881MOL0     C16194   1.070   6.439   4.321 -0.0236  0.3294 -0.4895
  881MOL0     O16195   1.132   6.553   4.268 -0.4568  0.4373  0.2541
  881MOL0     C16196   1.180   6.643   4.367 -0.6881 -0.3511 -0.6026
  881MOL0     C16197   1.224   6.778   4.312  0.1791  0.1004  0.0043
  881MOL0     C16198   1.222   6.891   4.413 -0.4269  0.2688 -0.1536
  881MOL0     C16199   1.286   7.027   4.362 -0.4061  0.6098 -0.1803
  881MOL0     C16200   1.230   7.071   4.225 -0.2288 -0.3876 -0.4911
  881MOL0     C16201   1.074   7.086   4.231  0.6205 -0.6546 -0.8776
  881MOL0     C16202   1.003   7.180   4.129  0.5442 -0.7896  0.6175
  881MOL0     C16203   0.854   7.164   4.116 -0.3319 -0.0325  0.8568
  881MOL0    Cl16204   0.796   7.208   4.279  0.0855 -0.0682  0.5789
  881MOL0     C16205   1.007   6.350   4.237  1.5079  0.4822 -0.0754
  881MOL0     C16206   0.945   6.237   4.285 -0.2164 -1.0505  0.7652
  881MOL0     O16207   0.799   6.134   4.673 -0.3377 -0.7076 -0.2097
  881MOL0     C16208   0.770   5.873   4.715 -0.6511  0.1624 -0.1006
  881MOL0     C16209   0.727   5.742   4.736  0.0994 -0.3111  0.3568
  881MOL0     N16210   0.971   5.051   4.823  0.4376  0.0547 -0.0309
  881MOL0     N16211   0.969   4.926   4.864  0.2737  0.0354  0.6294
  881MOL0     C16212   1.213   3.948   5.059  0.2887  1.0085 -0.5921
  881MOL0     C16213   1.205   3.961   5.198  0.2201  0.0971 -0.2807
  881MOL0     C16214   1.210   4.236   5.572  0.4083 -0.2960  0.8236
  881MOL0     C16215   1.262   4.360   5.603 -0.0178 -0.6828  0.5685
  881MOL0     C16216   1.268   4.396   5.741 -0.2051 -0.2491 -0.0148
  881MOL0     C16217   1.241   4.303   5.846  1.0657  0.2969  0.1682
  881MOL0     O16218   1.258   4.336   5.977  0.3620 -0.1990  0.0321
  881MOL0     C16219   1.366   4.416   6.018 -0.2505 -0.6649 -0.2550
  881MOL0     C16220   1.349   4.476   6.163  0.0049 -0.3476 -0.2261
  881MOL0     C16221   1.477   4.544   6.213  0.2340 -0.4650 -0.7954
  881MOL0     C16222   1.467   4.582   6.361 -0.0127 -0.0494  0.4524
  881MOL0     C16223   1.590   4.661   6.402 -0.6000  0.3203  0.2977
  881MOL0     C16224   1.704   4.713   6.415  0.4263  0.3838 -0.1775
  881MOL0     C16225   1.192   4.176   5.808  0.9533  0.4097  0.5543
  881MOL0     C16226   1.174   4.140   5.672  0.3096  0.7801  0.3458
  881MOL0     H16227   1.368   4.265   5.218 -1.8408  1.8732 -0.0427
  881MOL0     H16228   1.368   4.237   4.976  0.5540 -0.4709 -0.1979
  881MOL0     H16229   1.082   4.044   4.831 -2.2398 -2.6333 -0.2654
  881MOL0     H16230   1.142   3.900   4.777  1.8888  0.1954 -2.8504
  881MOL0     H16231   1.137   3.992   4.573  1.8495  1.6856 -3.0022
  881MOL0     H16232   1.292   4.060   4.604 -0.0263  0.2222  1.5313
  881MOL0     H16233   1.040   4.219   4.685 -0.1776  0.2032  0.1946
  881MOL0     H16234   1.116   4.229   4.529  0.7279  2.3359  0.0619
  881MOL0     H16235   1.254   4.298   4.792 -0.2773  0.9532  0.3646
  881MOL0     H16236   1.329   4.272   4.632  0.3292 -2.1932  1.4543
  881MOL0     H16237   1.180   4.459   4.548  1.1968 -0.9535  0.1693
  881MOL0     H16238   1.265   4.519   4.687 -0.0071  0.4309 -0.2271
  881MOL0     H16239   1.056   4.465   4.834 -2.1176  4.1026  0.8207
  881MOL0     H16240   0.987   4.442   4.677 -1.2164 -0.0305  2.4123
  881MOL0     H16241   1.136   4.686   4.794 -0.0568 -0.4415  0.8112
  881MOL0     H16242   1.088   4.676   4.618 -0.5293  0.4052  0.7401
  881MOL0     H16243   0.890   4.674   4.858 -1.8145  0.4993 -0.9960
  881MOL0     H16244   0.852   4.672   4.692 -2.1828 -0.7068  1.5740
  881MOL0     H16245   0.946   4.906   4.539  0.3166 -3.0451  0.3295
  881MOL0     H16246   0.982   5.166   4.519  0.1872 -1.9529  1.9657
  881MOL0     H16247   1.014   5.258   4.665  3.6398 -2.2758 -0.4835
  881MOL0     H16248   0.807   5.264   4.734  6.0292 -2.9231  1.2057
  881MOL0     H16249   0.731   5.148   4.614  2.8595 -1.8316 -1.8131
  881MOL0     H16250   0.865   5.416   4.577  1.1216 -0.5808 -0.1931
  881MOL0     H16251   0.777   5.342   4.445 -0.9737  0.6369  0.3339
  881MOL0     H16252   0.574   5.348   4.611  1.8823 -0.3523  1.0843
  881MOL0     H16253   0.602   5.472   4.483  1.3190 -2.6711 -2.3289
  881MOL0     H16254   0.622   5.669   4.423 -4.9246 -1.7659  3.8979
  881MOL0     H16255   0.722   5.882   4.373  1.7977 -2.6742  0.6945
  881MOL0     H16256   0.989   6.276   4.614 -2.6579 -1.6013  0.3897
  881MOL0     H16257   1.102   6.469   4.545  0.6244 -0.4181 -0.0858
  881MOL0     H16258   1.270   6.608   4.418 -0.7818 -3.3017 -2.2392
  881MOL0     H16259   1.109   6.683   4.441 -0.1990  1.6695 -1.1475
  881MOL0     H16260   1.158   6.796   4.225  2.1668 -0.2627 -1.6543
  881MOL0     H16261   1.324   6.766   4.269  0.1417 -0.1463 -0.0154
  881MOL0     H16262   1.285   6.848   4.491 -0.2725 -2.6974 -1.7364
  881MOL0     H16263   1.122   6.897   4.456  0.2391 -0.1783  1.5162
  881MOL0     H16264   1.264   7.102   4.439  0.8443  1.6802 -0.8187
  881MOL0     H16265   1.395   7.023   4.366 -0.3020  1.9620 -1.1026
  881MOL0     H16266   1.260   6.996   4.152 -0.7523 -0.7272 -0.3634
  881MOL0     H16267   1.276   7.167   4.199 -1.1586  0.0478 -0.5774
  881MOL0     H16268   1.050   7.133   4.327 -0.7651 -2.6196 -0.2023
  881MOL0     H16269   1.020   6.991   4.230  1.4808 -1.3501  2.7472
  881MOL0     H16270   1.013   7.281   4.169 -3.5519  0.1196 -0.2048
  881MOL0     H16271   1.060   7.177   4.035 -1.2701  0.3447 -0.5861
  881MOL0     H16272   0.824   7.064   4.083 -4.9082  0.0618  3.7804
  881MOL0     H16273   0.805   7.237   4.051 -1.5729 -0.5831  1.1439
  881MOL0     H16274   1.002   6.374   4.131  0.9136  0.0525 -0.1487
  881MOL0     H16275   0.909   6.156   4.223 -1.0388 -1.8626  2.2416
  881MOL0     H16276   0.793   5.932   4.803 -3.5337  0.3947  0.6069
  881MOL0     H16277   0.751   5.701   4.833  2.4181 -1.9477 -0.8044
  881MOL0     H16278   1.178   3.864   4.999  1.9680 -1.2028  1.3398
  881MOL0     H16279   1.158   3.892   5.267 -0.4535  1.2233  0.4165
  881MOL0     H16280   1.278   4.438   5.530 -1.5106 -0.8343  0.0263
  881MOL0     H16281   1.286   4.502   5.754  1.2458 -0.4324 -0.3671
  881MOL0     H16282   1.386   4.503   5.955  2.0149 -1.0727 -0.2044
  881MOL0     H16283   1.451   4.347   6.009  0.8098  0.7539 -1.6518
  881MOL0     H16284   1.262   4.542   6.158  0.4540  0.3339  0.8042
  881MOL0     H16285   1.319   4.386   6.218 -0.3170 -1.7922 -2.6019
  881MOL0     H16286   1.491   4.640   6.162 -2.3101  1.5150  1.8536
  881MOL0     H16287   1.560   4.476   6.191  1.0232  0.6947 -1.5789
  881MOL0     H16288   1.375   4.638   6.377  0.8583  1.1574  1.4093
  881MOL0     H16289   1.479   4.489   6.418  0.5649  0.0584  0.5207
  881MOL0     H16290   1.804   4.751   6.415  0.4558  0.4412 -2.1565
  881MOL0     H16291   1.192   4.102   5.888  2.9493 -2.7976 -2.1679
  881MOL0     H16292   1.134   4.042   5.649  2.2402  0.5036 -2.4105
  882MOL0     O16293   0.474   1.189   2.519 -0.3990  0.5229 -0.3766
  882MOL0     C16294   0.396   1.194   2.614  0.6902  0.0401 -0.0285
  882MOL0     O16295   0.367   1.300   2.687  0.4884  0.3325 -0.3976
  882MOL0     C16296   0.477   1.384   2.696 -0.2230 -0.1770  0.0083
  882MOL0     C16297   0.491   1.493   2.611 -0.0933  0.0371 -1.0565
  882MOL0     C16298   0.595   1.590   2.638 -0.0777 -1.1496  0.3323
  882MOL0     C16299   0.685   1.564   2.747  0.1510  0.1676  1.4136
  882MOL0     O16300   0.778   1.656   2.799  0.2666  0.0566 -0.1470
  882MOL0     C16301   0.776   1.796   2.756  0.7377 -0.2389 -0.3764
  882MOL0     C16302   0.700   1.877   2.860  0.5103  0.0956  2.2453
  882MOL0     C16303   0.618   1.997   2.814 -1.0615 -0.2509  0.4164
  882MOL0     C16304   0.525   1.958   2.697  0.7323 -0.5590  0.3269
  882MOL0     C16305   0.450   2.075   2.641  0.8711 -0.9296  1.2273
  882MOL0     C16306   0.329   2.033   2.558 -0.1714 -1.0421 -0.0839
  882MOL0     C16307   0.231   2.146   2.538  0.3390 -0.2853  0.5961
  882MOL0     C16308   0.136   2.127   2.414 -0.5898  0.4378 -0.1110
  882MOL0     N16309   0.036   2.024   2.436  0.1784 -0.0012  0.3998
  882MOL0     C16310  -0.077   2.028   2.518 -0.1971 -0.9221  0.8682
  882MOL0     C16311  -0.157   1.932   2.472 -0.0289  0.9845  0.0428
  882MOL0     C16312  -0.282   1.882   2.526 -0.8098  0.2959  0.5656
  882MOL0     C16313  -0.261   1.826   2.672  0.0191 -0.1876 -0.2481
  882MOL0     C16314  -0.396   1.782   2.727  0.1931 -0.1190  0.1875
  882MOL0     C16315  -0.384   1.751   2.875 -0.0482 -0.1822  0.1950
  882MOL0     O16316  -0.269   1.679   2.915 -0.7531 -0.1007  1.2698
  882MOL0     C16317  -0.274   1.576   3.009 -0.0688  0.8899 -0.3692
  882MOL0     C16318  -0.214   1.599   3.132  0.0802  0.6318  0.3967
  882MOL0     C16319  -0.210   1.493   3.225 -0.0917  0.9250  0.7787
  882MOL0     C16320  -0.260   1.365   3.201 -1.1526  0.0133  0.3588
  882MOL0     C16321  -0.276   1.274   3.315  0.2353  0.4738 -0.2534
  882MOL0     O16322  -0.224   1.310   3.430  0.2080  0.6213 -0.3493
  882MOL0     C16323  -0.209   1.208   3.524  1.2190 -0.5582  0.1799
  882MOL0     C16324  -0.309   1.177   3.609 -0.3001  0.9309  0.3006
  882MOL0     C16325  -0.285   1.086   3.717  0.4220 -1.3541  0.4151
  882MOL0     C16326  -0.169   1.003   3.722  0.0400 -0.8469 -0.5835
  882MOL0     O16327  -0.135   0.916   3.819  0.1656 -0.2330 -0.1274
  882MOL0     C16328  -0.229   0.883   3.923  0.7509 -0.4405  0.5745
  882MOL0     C16329  -0.226   0.993   4.032 -0.0347 -0.4589 -0.3214
  882MOL0     C16330  -0.344   0.991   4.127 -0.4323  0.1658 -0.0823
  882MOL0     C16331  -0.319   1.083   4.246  0.8472 -0.3992 -0.3470
  882MOL0     C16332  -0.441   1.083   4.341  0.0904  0.2841 -0.2987
  882MOL0     C16333  -0.443   1.205   4.437  0.3571  1.0245 -0.6397
  882MOL0     C16334  -0.529   1.173   4.559 -0.6240 -0.3944 -0.2311
  882MOL0     C16335  -0.429   1.133   4.675  0.7302  0.3305  0.3265
  882MOL0    Cl16336  -0.370   1.283   4.753 -0.3451  0.0712  0.0472
  882MOL0     C16337  -0.065   1.039   3.631  0.4689  0.1143 -0.2753
  882MOL0     C16338  -0.089   1.140   3.540 -0.1562 -0.5561 -0.5016
  882MOL0     O16339  -0.318   1.162   3.289 -0.5076  0.3342  0.6042
  882MOL0     C16340  -0.308   1.339   3.067  0.1005  0.4305 -0.4716
  882MOL0     C16341  -0.320   1.450   2.975  0.1663 -0.5145  0.1104
  882MOL0     N16342  -0.092   1.867   2.364 -0.0528  0.2873 -0.9827
  882MOL0     N16343   0.019   1.919   2.344  0.5699 -1.1029 -0.0059
  882MOL0     C16344   0.663   1.450   2.818 -0.7861  0.3239 -0.1661
  882MOL0     C16345   0.568   1.358   2.790  0.3940 -0.0749  0.1532
  882MOL0     C16346   0.325   1.068   2.649  0.5903 -0.6990 -0.1786
  882MOL0     C16347   0.368   0.944   2.594  0.7964  0.6069 -0.4172
  882MOL0     C16348   0.298   0.823   2.604  0.3083 -0.5581  0.4731
  882MOL0     C16349   0.174   0.820   2.670 -0.8450  0.0307  1.0572
  882MOL0     O16350   0.122   0.695   2.684 -0.4054 -0.0471  0.8090
  882MOL0     C16351   0.007   0.683   2.762  0.8267 -0.4995  0.1082
  882MOL0     C16352  -0.007   0.535   2.800  0.0946 -0.8767  1.1628
  882MOL0     C16353   0.075   0.501   2.929  0.1567  0.3860 -0.0361
  882MOL0     C16354   0.222   0.530   2.940 -0.3574 -0.0393 -0.5940
  882MOL0     C16355   0.253   0.510   3.080  0.3242  0.4106  0.3100
  882MOL0     C16356   0.275   0.488   3.192 -1.2487  0.0702  0.4313
  882MOL0     C16357   0.126   0.949   2.715 -0.1346  0.6031  0.9920
  882MOL0     C16358   0.200   1.073   2.709  0.0603 -1.0360  1.4505
  882MOL0     H16359   0.425   1.519   2.529  1.1471  2.1337 -1.4550
  882MOL0     H16360   0.599   1.673   2.569  2.3363 -1.7766 -0.3884
  882MOL0     H16361   0.751   1.804   2.650  3.2129 -2.0904 -1.1976
  882MOL0     H16362   0.869   1.854   2.756 -0.1730  1.4211  2.3990
  882MOL0     H16363   0.773   1.914   2.932  1.4733 -0.8830  1.7978
  882MOL0     H16364   0.624   1.822   2.916  3.6190 -3.0561  3.7255
  882MOL0     H16365   0.676   2.078   2.768 -1.3772  0.9749  2.0819
  882MOL0     H16366   0.563   2.041   2.898 -0.4602 -0.9871  1.2153
  882MOL0     H16367   0.583   1.897   2.626  0.9039 -2.8116  2.2842
  882MOL0     H16368   0.442   1.898   2.734  0.7628  0.2017  1.6903
  882MOL0     H16369   0.518   2.125   2.571  0.6852 -1.0010  0.9953
  882MOL0     H16370   0.411   2.137   2.723  0.4947  0.2394  0.2028
  882MOL0     H16371   0.274   1.952   2.605 -0.4791 -2.1472 -2.2457
  882MOL0     H16372   0.370   1.995   2.464 -2.9963 -1.0705 -1.4073
  882MOL0     H16373   0.169   2.157   2.627  1.4905 -0.5405  1.4615
  882MOL0     H16374   0.293   2.235   2.521  0.6383 -0.9229 -2.2183
  882MOL0     H16375   0.195   2.110   2.324  0.1550 -2.0634  0.7422
  882MOL0     H16376   0.081   2.218   2.394 -0.5811  0.2251 -1.1470
  882MOL0     H16377  -0.083   2.083   2.612 -2.6603 -0.8865  0.7603
  882MOL0     H16378  -0.313   1.799   2.462  3.9429 -0.5050 -1.0624
  882MOL0     H16379  -0.360   1.959   2.521 -2.9549 -1.7408  0.8125
  882MOL0     H16380  -0.229   1.913   2.728  0.3884 -1.2778  1.2922
  882MOL0     H16381  -0.188   1.745   2.665  0.5093  0.1394  0.9145
  882MOL0     H16382  -0.466   1.865   2.711  1.4347  1.3248  1.8466
  882MOL0     H16383  -0.433   1.703   2.662  2.1506 -1.3212  0.4501
  882MOL0     H16384  -0.481   1.711   2.909  0.8628 -1.8418  0.9483
  882MOL0     H16385  -0.370   1.847   2.925  0.6774 -1.2748  2.2079
  882MOL0     H16386  -0.178   1.697   3.160  1.3793 -0.3331  2.3697
  882MOL0     H16387  -0.178   1.526   3.323  0.0891  2.8213  0.1209
  882MOL0     H16388  -0.404   1.226   3.594 -0.7642  1.0741  3.1716
  882MOL0     H16389  -0.373   1.063   3.774 -0.3927 -0.3061 -0.3756
  882MOL0     H16390  -0.198   0.788   3.968  0.7003  0.4891  2.6526
  882MOL0     H16391  -0.325   0.875   3.870  0.9913  1.6884 -0.2784
  882MOL0     H16392  -0.225   1.086   3.974 -0.3805 -0.6830 -0.6870
  882MOL0     H16393  -0.137   0.981   4.095 -2.3689 -1.6659  3.0086
  882MOL0     H16394  -0.340   0.890   4.169  1.3124  0.0319 -0.5180
  882MOL0     H16395  -0.438   1.007   4.073  0.1619 -1.1818 -1.5963
  882MOL0     H16396  -0.233   1.052   4.307 -0.9373 -3.4187  0.8528
  882MOL0     H16397  -0.295   1.183   4.209  0.1123  0.2584  0.8659
  882MOL0     H16398  -0.477   0.989   4.383 -1.7027 -0.5236 -3.3766
  882MOL0     H16399  -0.528   1.099   4.278 -2.3444 -1.5367  2.3475
  882MOL0     H16400  -0.474   1.301   4.397  0.3768  1.7252  0.9490
  882MOL0     H16401  -0.339   1.221   4.468  0.2001 -0.3853  0.7462
  882MOL0     H16402  -0.579   1.266   4.585 -4.4946 -2.4773  0.5355
  882MOL0     H16403  -0.609   1.101   4.539 -1.0861  0.1755 -0.4295
  882MOL0     H16404  -0.359   1.059   4.634 -1.2301 -0.0744 -2.6158
  882MOL0     H16405  -0.481   1.091   4.761  0.5215  0.8290  0.4443
  882MOL0     H16406   0.017   0.968   3.629  0.6081  0.2919 -1.9177
  882MOL0     H16407  -0.003   1.167   3.478  0.8542 -0.4006  0.9262
  882MOL0     H16408  -0.362   1.250   3.036  1.9074 -0.9201  0.1297
  882MOL0     H16409  -0.367   1.441   2.877 -0.0785  1.5990 -0.0248
  882MOL0     H16410   0.733   1.447   2.901 -0.7050  2.4755 -0.1053
  882MOL0     H16411   0.550   1.261   2.834  1.4033 -0.7029 -0.7848
  882MOL0     H16412   0.456   0.925   2.534  0.0381 -5.1832 -0.3254
  882MOL0     H16413   0.325   0.725   2.568 -0.7689 -0.9583  0.7248
  882MOL0     H16414  -0.084   0.701   2.703  0.0632  0.3279  1.4756
  882MOL0     H16415   0.001   0.735   2.858 -2.4388 -0.5765  0.0677
  882MOL0     H16416  -0.111   0.520   2.832 -1.1542  0.4521 -1.8940
  882MOL0     H16417   0.008   0.469   2.714 -0.9572 -1.1268  1.1562
  882MOL0     H16418   0.068   0.395   2.957  1.7651  0.6203  1.4156
  882MOL0     H16419   0.016   0.550   3.008  0.6383  0.4325  0.3001
  882MOL0     H16420   0.287   0.462   2.884  3.9641  0.6898  2.9635
  882MOL0     H16421   0.244   0.632   2.910  1.0070 -0.6871 -1.9181
  882MOL0     H16422   0.325   0.484   3.287  2.6338  1.2781 -1.3614
  882MOL0     H16423   0.027   0.958   2.757  1.2036  1.4766  4.2283
  882MOL0     H16424   0.138   1.155   2.745 -0.4374 -1.9051  2.6208
  883MOL0     O16425   6.193   0.967   8.893  0.2725  0.3174  0.8058
  883MOL0     C16426   6.164   1.059   8.963 -0.1269  0.6402 -0.1161
  883MOL0     O16427   6.067   1.051   9.058  0.6309  0.0600  0.0938
  883MOL0     C16428   5.961   0.962   9.033 -0.6070 -0.0129 -0.6785
  883MOL0     C16429   5.893   0.936   8.911 -0.2630  1.5888 -0.1266
  883MOL0     C16430   5.780   0.861   8.901 -0.1146 -0.5977  0.0275
  883MOL0     C16431   5.715   0.829   9.027 -0.2416  0.1434 -0.2564
  883MOL0     O16432   5.593   0.772   9.037  1.2920  0.4131 -0.3435
  883MOL0     C16433   5.498   0.812   8.939  0.0655  0.3241  0.9989
  883MOL0     C16434   5.356   0.769   8.975 -0.0780  0.3992 -0.2429
  883MOL0     C16435   5.254   0.800   8.856 -0.3894  0.0359 -0.0515
  883MOL0     C16436   5.110   0.764   8.896 -0.0916  0.7934  0.3653
  883MOL0     C16437   5.016   0.725   8.770  0.2993  0.4834  0.0511
  883MOL0     C16438   4.873   0.720   8.822  1.0811  0.6525  0.0164
  883MOL0     C16439   4.865   0.589   8.916  1.3792 -0.2313 -0.3537
  883MOL0     C16440   4.720   0.560   8.950  0.0064  0.0028  0.0915
  883MOL0     N16441   4.646   0.504   8.838  0.5340 -0.3760  0.5679
  883MOL0     C16442   4.627   0.373   8.815  1.2688  0.4094 -0.2603
  883MOL0     C16443   4.516   0.372   8.739 -0.5402 -0.7051 -0.2286
  883MOL0     C16444   4.466   0.250   8.683 -0.3646 -0.1893  1.2853
  883MOL0     C16445   4.339   0.183   8.728  0.0576  0.6475 -0.2914
  883MOL0     C16446   4.287   0.082   8.628  0.0985 -0.9239 -0.3469
  883MOL0     C16447   4.147   0.034   8.668 -0.3369 -0.0286  0.0204
  883MOL0     O16448   4.135  -0.103   8.622 -0.5011 -0.5716 -0.1122
  883MOL0     C16449   4.008  -0.156   8.633  0.0637  0.5368  0.5420
  883MOL0     C16450   4.000  -0.292   8.576 -0.0459 -1.3093  0.2018
  883MOL0     C16451   3.880  -0.365   8.584 -0.6879  0.3593 -0.0986
  883MOL0     C16452   3.772  -0.298   8.637  0.3264  0.4091 -0.5245
  883MOL0     C16453   3.636  -0.374   8.633 -0.4597  0.2743  1.1940
  883MOL0     O16454   3.529  -0.300   8.670 -0.9254 -0.2649  0.2720
  883MOL0     C16455   3.398  -0.345   8.661 -0.1381  0.3453 -0.1086
  883MOL0     C16456   3.341  -0.414   8.559 -1.1296 -0.1733  0.3153
  883MOL0     C16457   3.210  -0.445   8.553  0.1665  0.4465 -0.3297
  883MOL0     C16458   3.122  -0.410   8.659 -0.7874  0.1354  0.2920
  883MOL0     O16459   2.991  -0.447   8.669 -0.4189  0.3439  0.5582
  883MOL0     C16460   2.954  -0.575   8.620  0.1604  0.3152 -0.0949
  883MOL0     C16461   2.841  -0.640   8.700  0.5509  0.4451  0.8663
  883MOL0     C16462   2.891  -0.715   8.830 -0.1840  0.5122  0.4249
  883MOL0     C16463   2.969  -0.635   8.939  0.3479 -0.2671 -0.3366
  883MOL0     C16464   3.001  -0.720   9.070  0.6837  0.2369  0.3136
  883MOL0     C16465   3.003  -0.632   9.195 -1.3340 -0.6294  0.6516
  883MOL0     C16466   3.043  -0.697   9.319  0.1759 -0.3831  0.1306
  883MOL0     C16467   3.193  -0.739   9.324  1.2209 -0.1349 -0.5220
  883MOL0    Cl16468   3.256  -0.739   9.492 -0.1073  0.3727 -0.6942
  883MOL0     C16469   3.179  -0.337   8.761  0.4942  0.1903  0.2675
  883MOL0     C16470   3.315  -0.292   8.763  0.6813  0.7643 -0.0020
  883MOL0     O16471   3.631  -0.495   8.604  0.1024 -0.5045  0.1860
  883MOL0     C16472   3.784  -0.177   8.698 -0.0961 -0.9184  0.0496
  883MOL0     C16473   3.901  -0.100   8.689  0.6741  0.2786  0.3196
  883MOL0     N16474   4.472   0.505   8.715  0.2356  0.3640 -1.0100
  883MOL0     N16475   4.547   0.584   8.787 -0.4274 -0.3237 -0.6338
  883MOL0     C16476   5.780   0.845   9.147 -0.8824 -0.2989 -0.0101
  883MOL0     C16477   5.903   0.912   9.147  0.8169  0.0495  0.3950
  883MOL0     C16478   6.225   1.189   8.927  0.1524 -1.0124 -0.2204
  883MOL0     C16479   6.231   1.280   9.031  0.6344  0.1721 -0.2928
  883MOL0     C16480   6.278   1.414   9.017 -0.0557 -0.2754  0.3914
  883MOL0     C16481   6.343   1.442   8.891 -0.4623  0.5800  1.1033
  883MOL0     O16482   6.405   1.565   8.858  0.9614  0.2510  0.6059
  883MOL0     C16483   6.399   1.668   8.955 -0.8975  0.2426  0.0377
  883MOL0     C16484   6.463   1.793   8.897 -0.5762  0.0386 -0.8014
  883MOL0     C16485   6.369   1.865   8.807 -0.0450 -0.1003  0.1191
  883MOL0     C16486   6.405   1.827   8.665  1.0431 -0.6464 -0.1694
  883MOL0     C16487   6.311   1.902   8.585  0.0961  0.9003 -0.8924
  883MOL0     C16488   6.230   1.965   8.518 -0.8851 -0.8740  0.0323
  883MOL0     C16489   6.358   1.340   8.791 -0.2920  0.3630 -0.4344
  883MOL0     C16490   6.299   1.214   8.809 -0.6479  0.3937 -0.4730
  883MOL0     H16491   5.928   0.972   8.815  1.7565 -3.0611 -1.4144
  883MOL0     H16492   5.733   0.848   8.804 -1.3517  0.3729  0.4651
  883MOL0     H16493   5.525   0.764   8.845  0.5083  2.3101  0.0478
  883MOL0     H16494   5.501   0.922   8.937 -1.4076  0.3955  1.3965
  883MOL0     H16495   5.345   0.809   9.076  2.4936 -1.1035  0.7186
  883MOL0     H16496   5.361   0.660   8.974  0.3950  0.3054 -4.4685
  883MOL0     H16497   5.279   0.751   8.761  3.4489  1.2048  0.1842
  883MOL0     H16498   5.267   0.906   8.835 -2.3869  0.1778 -0.7031
  883MOL0     H16499   5.120   0.673   8.956 -3.6165 -1.5006 -2.1315
  883MOL0     H16500   5.077   0.848   8.958  0.0266 -0.1324  1.7275
  883MOL0     H16501   5.038   0.623   8.738 -0.9674  0.4568 -0.8562
  883MOL0     H16502   5.034   0.775   8.674 -0.1298 -1.7916 -1.2966
  883MOL0     H16503   4.804   0.720   8.737  2.6497 -1.6674 -1.3794
  883MOL0     H16504   4.849   0.815   8.869 -1.3479  1.2965 -2.3095
  883MOL0     H16505   4.902   0.506   8.855  0.1457  0.0636 -1.5722
  883MOL0     H16506   4.911   0.613   9.011 -2.1295 -0.3797  1.5627
  883MOL0     H16507   4.652   0.637   8.990 -2.1827 -0.7878 -1.8490
  883MOL0     H16508   4.721   0.478   9.022  0.6154 -1.5915 -1.6694
  883MOL0     H16509   4.654   0.280   8.864  2.6938 -1.1993 -3.7800
  883MOL0     H16510   4.545   0.175   8.677  0.5515  0.8472 -2.9090
  883MOL0     H16511   4.454   0.290   8.581  2.0365  0.4754  1.2020
  883MOL0     H16512   4.264   0.262   8.742  0.2356  1.3034 -2.6087
  883MOL0     H16513   4.349   0.127   8.821  1.1471 -0.6056 -1.1340
  883MOL0     H16514   4.279   0.139   8.535  2.2049  1.7028  0.9292
  883MOL0     H16515   4.358   0.001   8.610 -0.5221 -2.1922  2.3456
  883MOL0     H16516   4.079   0.108   8.626  1.1774  4.0387  3.8395
  883MOL0     H16517   4.138   0.046   8.777  4.3952  0.5308  0.5630
  883MOL0     H16518   4.090  -0.325   8.525  1.1748 -1.4485  2.3178
  883MOL0     H16519   3.865  -0.459   8.532 -2.0770  0.0374  0.8406
  883MOL0     H16520   3.404  -0.462   8.484 -0.2338 -0.8047  1.4518
  883MOL0     H16521   3.179  -0.513   8.474  1.9332  1.1240 -1.6732
  883MOL0     H16522   3.038  -0.644   8.608  0.9481  1.7568 -5.1413
  883MOL0     H16523   2.923  -0.567   8.515 -0.6053 -4.6920 -0.5016
  883MOL0     H16524   2.799  -0.713   8.631  0.0574  0.6526  0.9399
  883MOL0     H16525   2.768  -0.562   8.723 -0.4148 -0.9025  2.7334
  883MOL0     H16526   2.965  -0.793   8.808 -0.7785 -1.4598  4.5519
  883MOL0     H16527   2.808  -0.751   8.890  0.7377 -1.5793  0.5355
  883MOL0     H16528   3.059  -0.587   8.899 -0.4765  1.2621 -0.4464
  883MOL0     H16529   2.909  -0.547   8.968  0.6001 -0.6092  1.2945
  883MOL0     H16530   3.096  -0.773   9.061  0.3359 -0.2447 -0.6389
  883MOL0     H16531   2.933  -0.802   9.094  0.4351 -0.1616 -1.5843
  883MOL0     H16532   2.906  -0.583   9.211  0.7417  3.4412  1.9634
  883MOL0     H16533   3.076  -0.553   9.177 -0.3242 -1.6132  0.3086
  883MOL0     H16534   3.021  -0.626   9.399 -2.1128  0.9744 -1.5515
  883MOL0     H16535   2.970  -0.776   9.338 -0.3508  0.6747  2.9090
  883MOL0     H16536   3.260  -0.687   9.254  4.1525  0.9285  2.7792
  883MOL0     H16537   3.201  -0.844   9.292  4.4846  0.2367 -1.3913
  883MOL0     H16538   3.107  -0.308   8.838  0.1885 -1.6899  0.7321
  883MOL0     H16539   3.355  -0.241   8.850  0.5796 -2.5454  2.1724
  883MOL0     H16540   3.703  -0.132   8.756 -2.2552 -1.5002 -2.3380
  883MOL0     H16541   3.900  -0.003   8.736 -1.8794  3.2503 -5.0061
  883MOL0     H16542   5.743   0.807   9.242 -2.4879  0.3492 -0.3341
  883MOL0     H16543   5.949   0.934   9.243 -2.2351  1.0187  1.7692
  883MOL0     H16544   6.184   1.248   9.124 -0.4888  2.1546 -0.1137
  883MOL0     H16545   6.277   1.489   9.095  2.0535  0.2390 -0.0092
  883MOL0     H16546   6.470   1.648   9.036  2.2065  3.7888 -1.5305
  883MOL0     H16547   6.299   1.676   9.000 -1.0880  0.7610 -0.4614
  883MOL0     H16548   6.494   1.874   8.963  1.6077 -0.6606 -0.8880
  883MOL0     H16549   6.553   1.758   8.846 -0.4731 -1.9140  0.5898
  883MOL0     H16550   6.371   1.974   8.817 -2.7680 -0.1078  2.1608
  883MOL0     H16551   6.267   1.829   8.823 -0.6118  1.4625  0.2499
  883MOL0     H16552   6.509   1.839   8.634  0.4724  2.1754 -1.3904
  883MOL0     H16553   6.390   1.720   8.645 -2.1651 -0.3199 -0.1372
  883MOL0     H16554   6.169   2.022   8.451 -4.3716 -0.8825  2.9030
  883MOL0     H16555   6.390   1.367   8.691 -2.1274 -1.1617 -1.4863
  883MOL0     H16556   6.305   1.132   8.737 -0.7220 -0.3173  0.3148
  884MOL0     O16557   3.485  11.331   7.831 -0.6258  0.1590 -0.5683
  884MOL0     C16558   3.524  11.309   7.714 -0.2325 -0.0053 -0.3786
  884MOL0     O16559   3.438  11.295   7.609 -0.0814 -0.3690  0.8055
  884MOL0     C16560   3.313  11.246   7.640  0.5122  0.2797  1.1140
  884MOL0     C16561   3.221  11.282   7.537  0.2347 -0.9157  0.3483
  884MOL0     C16562   3.087  11.234   7.544  0.2021  0.3116  0.4355
  884MOL0     C16563   3.053  11.142   7.647  0.5559  0.2789  0.3764
  884MOL0     O16564   2.922  11.098   7.646  0.2940  0.0402 -0.0906
  884MOL0     C16565   2.883  11.022   7.760  0.0449  0.2108 -0.5663
  884MOL0     C16566   2.730  11.002   7.740  0.2207  0.2121 -0.6440
  884MOL0     C16567   2.673  10.887   7.826  1.3268  0.3184  0.2907
  884MOL0     C16568   2.525  10.861   7.807 -0.3408 -1.2129  1.4893
  884MOL0     C16569   2.449  10.968   7.877 -0.0773 -0.2706  0.0228
  884MOL0     C16570   2.299  10.937   7.901 -0.3534  0.0870  0.3095
  884MOL0     C16571   2.297  10.873   8.044  0.0176 -0.0859 -0.2557
  884MOL0     C16572   2.174  10.787   8.065 -0.5081 -0.3909  0.4200
  884MOL0     N16573   2.150  10.730   8.202 -0.5132  0.1739 -0.5493
  884MOL0     C16574   2.109  10.804   8.309  0.4482 -0.0782 -1.1918
  884MOL0     C16575   2.085  10.716   8.406  1.1803  0.7594  0.3806
  884MOL0     C16576   2.019  10.745   8.536  0.4283  0.2520 -1.0081
  884MOL0     C16577   2.129  10.752   8.638 -0.0867 -0.0768  0.0898
  884MOL0     C16578   2.067  10.717   8.774 -0.3022 -0.1914  0.7330
  884MOL0     C16579   2.047  10.563   8.788 -0.0055 -0.4864  1.5486
  884MOL0     O16580   2.179  10.505   8.771 -0.1671 -0.1660  0.1082
  884MOL0     C16581   2.216  10.389   8.837 -0.2604 -0.5250 -0.0703
  884MOL0     C16582   2.119  10.307   8.897  0.2899 -0.5044  0.7740
  884MOL0     C16583   2.146  10.186   8.937 -1.0841  0.5831  1.3320
  884MOL0     C16584   2.272  10.130   8.904 -0.7328 -0.1512  0.2889
  884MOL0     C16585   2.296   9.995   8.959 -0.7032 -0.2976 -0.0826
  884MOL0     O16586   2.182   9.922   8.994  0.1269 -0.5272 -0.6101
  884MOL0     C16587   2.196   9.790   9.041 -0.6869 -0.7062  0.5773
  884MOL0     C16588   2.115   9.744   9.146  1.0254 -0.2678 -0.6242
  884MOL0     C16589   2.130   9.611   9.189  0.1561  0.2059 -0.0478
  884MOL0     C16590   2.209   9.524   9.115  0.6164  0.0834  0.4073
  884MOL0     O16591   2.205   9.402   9.167 -0.3441  0.0782  0.1881
  884MOL0     C16592   2.311   9.314   9.133 -0.1043 -0.8563  0.7433
  884MOL0     C16593   2.288   9.182   9.203  0.6430  0.2206 -0.6585
  884MOL0     C16594   2.334   9.189   9.353  0.4905 -0.2608 -0.3804
  884MOL0     C16595   2.283   9.072   9.434  0.1182  0.4239 -0.1186
  884MOL0     C16596   2.338   9.073   9.581  0.5803 -0.2412 -0.7934
  884MOL0     C16597   2.311   8.947   9.655 -0.6151 -0.3967  0.4066
  884MOL0     C16598   2.414   8.918   9.765  0.9092  0.2055 -0.0640
  884MOL0     C16599   2.435   9.035   9.860 -0.5083  0.6558  0.7438
  884MOL0    Cl16600   2.289   9.042   9.960  0.1219 -0.7449 -0.3853
  884MOL0     C16601   2.282   9.567   9.001 -0.4271  0.0989 -0.7673
  884MOL0     C16602   2.279   9.701   8.960  0.8641 -0.2183  0.6471
  884MOL0     O16603   2.417   9.965   8.990  0.5378  0.3858 -0.0081
  884MOL0     C16604   2.373  10.207   8.842 -0.9909  0.3025 -0.7016
  884MOL0     C16605   2.338  10.338   8.804 -0.2533  0.1309  0.0964
  884MOL0     N16606   2.087  10.584   8.351 -0.0319 -0.4431 -1.0839
  884MOL0     N16607   2.136  10.601   8.233 -0.1987  0.5251  0.7201
  884MOL0     C16608   3.144  11.104   7.742 -0.1734 -0.8524 -0.9491
  884MOL0     C16609   3.275  11.148   7.729 -0.9078  0.2063 -0.3260
  884MOL0     C16610   3.671  11.307   7.700 -0.6680 -0.7073 -0.1932
  884MOL0     C16611   3.735  11.318   7.581  0.1567  0.0466 -0.2384
  884MOL0     C16612   3.874  11.313   7.564  0.8574 -0.7992  0.5910
  884MOL0     C16613   3.955  11.285   7.673 -0.7294 -0.1209  0.6861
  884MOL0     O16614   4.093  11.267   7.663 -0.8419 -0.3871 -0.3617
  884MOL0     C16615   4.153  11.290   7.536 -0.8355 -0.2397  0.3499
  884MOL0     C16616   4.309  11.294   7.526 -0.5125  0.1598 -0.3534
  884MOL0     C16617   4.359  11.406   7.610  0.5976 -1.1070 -0.1049
  884MOL0     C16618   4.394  11.371   7.757 -0.4393  0.4506 -0.3673
  884MOL0     C16619   4.400  11.497   7.840  0.6120  0.3670  0.2879
  884MOL0     C16620   4.376  11.595   7.903  0.1020 -0.1000 -0.2029
  884MOL0     C16621   3.900  11.280   7.806 -0.0414  0.1931  0.2504
  884MOL0     C16622   3.752  11.296   7.814 -0.1650 -0.4373 -0.3948
  884MOL0     H16623   3.249  11.346   7.454 -3.0289  0.2646  0.0006
  884MOL0     H16624   3.007  11.272   7.482 -0.9266  1.7127  2.6568
  884MOL0     H16625   2.897  11.078   7.852  0.0673 -1.1380  0.2883
  884MOL0     H16626   2.943  10.930   7.767  1.3306  0.8967 -1.9224
  884MOL0     H16627   2.714  10.978   7.634 -0.8139  1.8026 -0.8777
  884MOL0     H16628   2.672  11.086   7.778 -0.3844 -0.7786  0.6900
  884MOL0     H16629   2.698  10.895   7.932 -0.5031  0.6552  0.7319
  884MOL0     H16630   2.724  10.793   7.804 -0.2734 -0.2993 -1.0339
  884MOL0     H16631   2.498  10.863   7.701  4.1117  1.4418  0.1457
  884MOL0     H16632   2.485  10.766   7.842 -1.8736 -2.1011 -2.1526
  884MOL0     H16633   2.459  11.062   7.823  1.5692 -0.1126  0.5454
  884MOL0     H16634   2.501  10.993   7.970 -2.7679  1.2834  1.2236
  884MOL0     H16635   2.261  10.863   7.829  1.3651 -0.6917  0.1636
  884MOL0     H16636   2.239  11.028   7.892  2.3061  2.0428  1.3938
  884MOL0     H16637   2.382  10.810   8.073  0.0041  0.7630  1.8199
  884MOL0     H16638   2.296  10.955   8.117  1.5412  0.5476 -0.8935
  884MOL0     H16639   2.170  10.711   7.986  0.6381  0.2691 -0.2954
  884MOL0     H16640   2.081  10.842   8.048 -1.5598 -2.1856  0.0635
  884MOL0     H16641   2.098  10.912   8.314 -2.8229 -0.3789  2.0599
  884MOL0     H16642   1.939  10.677   8.567  0.1930 -0.4991 -3.1397
  884MOL0     H16643   1.970  10.842   8.534 -2.4149 -1.0933 -1.3642
  884MOL0     H16644   2.158  10.858   8.642 -1.0114  0.1324  2.4496
  884MOL0     H16645   2.215  10.689   8.615  0.4997  0.6704  0.1780
  884MOL0     H16646   2.138  10.747   8.851 -2.1954  2.5936  1.5388
  884MOL0     H16647   1.969  10.764   8.786 -0.4919 -0.5798  0.7348
  884MOL0     H16648   1.982  10.514   8.716  1.7953 -0.0865 -0.4352
  884MOL0     H16649   2.025  10.559   8.895 -0.5240 -0.1764  1.4573
  884MOL0     H16650   2.016  10.337   8.915 -0.3619 -0.8338 -1.9648
  884MOL0     H16651   2.063  10.130   8.980 -2.2534  2.7086  1.9596
  884MOL0     H16652   2.042   9.807   9.194 -2.3160 -3.7064 -0.7263
  884MOL0     H16653   2.074   9.568   9.271 -1.9444  3.6350  0.5092
  884MOL0     H16654   2.403   9.367   9.158 -0.6586 -0.1462  1.3650
  884MOL0     H16655   2.319   9.282   9.029  0.4051  0.2512  0.4241
  884MOL0     H16656   2.357   9.107   9.162  3.0110  1.5750  0.6574
  884MOL0     H16657   2.188   9.136   9.195  0.6876 -0.1013  0.4955
  884MOL0     H16658   2.279   9.276   9.392  0.0553 -1.2044  1.2171
  884MOL0     H16659   2.440   9.206   9.373  1.5955 -2.3211 -3.6421
  884MOL0     H16660   2.173   9.081   9.434  0.1445  1.4537  1.8155
  884MOL0     H16661   2.322   8.981   9.388 -1.7962 -0.2678 -0.4815
  884MOL0     H16662   2.293   9.157   9.634  0.7527  0.4634 -1.7282
  884MOL0     H16663   2.445   9.093   9.578  0.6899 -0.5690  0.3564
  884MOL0     H16664   2.333   8.866   9.585  2.8371 -0.7056  1.6791
  884MOL0     H16665   2.208   8.946   9.692 -1.7708 -0.2792 -2.4979
  884MOL0     H16666   2.375   8.832   9.820  0.2037  1.7064  1.8998
  884MOL0     H16667   2.511   8.891   9.721  1.3967  2.2474 -0.3461
  884MOL0     H16668   2.443   9.131   9.808  1.3373  0.8185  1.2581
  884MOL0     H16669   2.527   9.020   9.918  0.8706  2.4221 -0.8832
  884MOL0     H16670   2.334   9.489   8.946  3.1316  1.0279  0.9813
  884MOL0     H16671   2.334   9.750   8.880  1.7574  1.1542  2.0229
  884MOL0     H16672   2.472  10.174   8.814  0.0258  1.2131  1.6208
  884MOL0     H16673   2.406  10.392   8.739 -2.1181  0.0824 -2.0173
  884MOL0     H16674   3.140  11.024   7.816 -1.3044  2.5898  3.1229
  884MOL0     H16675   3.343  11.117   7.808 -1.1808 -0.7085 -0.4363
  884MOL0     H16676   3.663  11.352   7.508 -2.1840  0.3409  2.0848
  884MOL0     H16677   3.909  11.310   7.461 -0.8609 -0.6791 -0.0232
  884MOL0     H16678   4.124  11.388   7.496  2.4895  1.0134  0.7505
  884MOL0     H16679   4.126  11.206   7.471 -2.1832  1.4077 -1.3448
  884MOL0     H16680   4.356  11.200   7.556  0.7596  1.5607  2.3096
  884MOL0     H16681   4.321  11.323   7.421 -3.1364  2.4629 -0.1351
  884MOL0     H16682   4.301  11.499   7.597  2.5573  0.0621 -1.0570
  884MOL0     H16683   4.459  11.443   7.585  0.7494  1.2877  3.3277
  884MOL0     H16684   4.317  11.298   7.786 -0.4852  0.2043 -1.0807
  884MOL0     H16685   4.491  11.322   7.759 -0.5431  0.0316 -2.6718
  884MOL0     H16686   4.353  11.684   7.958 -0.2284  0.3640 -1.0794
  884MOL0     H16687   3.950  11.258   7.899 -2.7766 -0.3872  1.7064
  884MOL0     H16688   3.706  11.278   7.910 -0.5134  2.5088  0.0964
  885MOL0     O16689   8.976  10.795  10.617  0.3474  0.5724 -0.3339
  885MOL0     C16690   8.928  10.890  10.677 -0.3711  0.1267 -0.0444
  885MOL0     O16691   8.990  10.952  10.788  0.7673  0.6228 -0.7236
  885MOL0     C16692   9.115  10.915  10.835  0.0406 -0.2896  0.4116
  885MOL0     C16693   9.210  11.014  10.823  0.2263  0.0441  0.1430
  885MOL0     C16694   9.339  10.994  10.869  0.8512 -0.7257  0.0005
  885MOL0     C16695   9.378  10.862  10.905 -0.2883 -0.3087 -0.8302
  885MOL0     O16696   9.511  10.853  10.938  0.6798  0.6459  0.1975
  885MOL0     C16697   9.589  10.748  10.868 -0.4706 -0.2747  0.1214
  885MOL0     C16698   9.727  10.806  10.843  0.2797 -0.3820 -0.3468
  885MOL0     C16699   9.821  10.813  10.961  0.3178 -0.4590 -0.2673
  885MOL0     C16700   9.848  10.669  11.021 -0.0336  0.5997 -0.4551
  885MOL0     C16701   9.951  10.687  11.139 -0.2455  1.0625 -0.6777
  885MOL0     C16702   9.990  10.549  11.193 -0.1371  0.0147 -0.3607
  885MOL0     C16703   9.882  10.453  11.237 -0.7874 -0.0680  0.4450
  885MOL0     C16704   9.832  10.506  11.374  0.1725  0.4221  0.6817
  885MOL0     N16705   9.765  10.401  11.451  1.2060 -0.4809 -0.2300
  885MOL0     C16706   9.666  10.428  11.534  0.4591  0.4359 -0.4139
  885MOL0     C16707   9.613  10.304  11.569 -0.4743  0.4342 -0.0684
  885MOL0     C16708   9.503  10.272  11.662  0.4868  0.2352  0.2200
  885MOL0     C16709   9.403  10.400  11.685  0.3504  0.0028  0.1386
  885MOL0     C16710   9.256  10.361  11.733 -0.2989 -0.8486  0.1028
  885MOL0     C16711   9.248  10.256  11.841 -0.0491  0.6902 -0.4812
  885MOL0     O16712   9.334  10.298  11.949 -0.3656 -0.2122  0.5707
  885MOL0     C16713   9.278  10.359  12.057  0.5060  0.1851  0.7740
  885MOL0     C16714   9.149  10.393  12.074  0.1867 -0.7209  0.6322
  885MOL0     C16715   9.104  10.473  12.173 -0.0015 -0.4444 -0.2903
  885MOL0     C16716   9.192  10.508  12.271  0.5180  0.4136  0.0376
  885MOL0     C16717   9.147  10.577  12.397 -0.0424 -0.5140 -0.9724
  885MOL0     O16718   9.250  10.617  12.479 -0.0348 -0.6314 -0.2952
  885MOL0     C16719   9.227  10.644  12.615  0.0468  0.7521  0.5741
  885MOL0     C16720   9.299  10.748  12.679 -0.7491 -0.0604  1.1688
  885MOL0     C16721   9.272  10.790  12.814 -0.7655  0.8396  0.5393
  885MOL0     C16722   9.155  10.750  12.881 -0.4028  0.5612  0.1046
  885MOL0     O16723   9.116  10.766  13.019 -0.3001 -1.2396  0.0774
  885MOL0     C16724   9.232  10.773  13.111 -0.2889 -0.2031  0.2978
  885MOL0     C16725   9.174  10.753  13.250 -0.4996  0.4746  0.3653
  885MOL0     C16726   9.153  10.890  13.315 -0.0896 -0.0217  0.6121
  885MOL0     C16727   9.057  10.871  13.429  1.1492 -1.0584  0.1486
  885MOL0     C16728   9.020  11.004  13.504  0.5163  0.5359 -0.0479
  885MOL0     C16729   8.922  11.105  13.440 -0.2054  0.6341 -0.1910
  885MOL0     C16730   8.890  11.234  13.516 -0.1045 -1.0355 -0.3997
  885MOL0     C16731   8.837  11.223  13.663  0.3963 -0.1440 -0.4016
  885MOL0    Cl16732   8.691  11.109  13.664 -0.2713 -0.2895 -0.3172
  885MOL0     C16733   9.089  10.640  12.821 -0.1015  0.5952  0.2093
  885MOL0     C16734   9.130  10.581  12.696 -0.5508 -0.0284  1.2785
  885MOL0     O16735   9.029  10.587  12.425 -0.1335 -0.2445  0.4056
  885MOL0     C16736   9.326  10.472  12.258 -0.8151  0.2461  0.5374
  885MOL0     C16737   9.368  10.389  12.152  0.8334  0.5051 -0.1941
  885MOL0     N16738   9.696  10.209  11.513  0.9592 -0.5612 -0.4759
  885MOL0     N16739   9.776  10.273  11.437 -0.0416  0.8171 -0.0178
  885MOL0     C16740   9.287  10.748  10.902 -0.4171  0.3265 -0.8238
  885MOL0     C16741   9.155  10.776  10.864  0.8839  0.3704  0.0194
  885MOL0     C16742   8.819  10.957  10.609  0.3941 -1.0476  0.5672
  885MOL0     C16743   8.760  10.905  10.497  0.7645  0.2323 -0.1223
  885MOL0     C16744   8.644  10.960  10.448  1.0813 -1.0475  0.2556
  885MOL0     C16745   8.592  11.078  10.502  0.5013 -1.2859  0.4181
  885MOL0     O16746   8.491  11.146  10.460  0.4208  0.0868 -0.3705
  885MOL0     C16747   8.423  11.102  10.342 -0.4129 -0.6523 -0.1335
  885MOL0     C16748   8.327  11.221  10.288 -0.1835 -0.3654 -0.3062
  885MOL0     C16749   8.400  11.358  10.267 -0.1385 -0.0992 -0.1714
  885MOL0     C16750   8.492  11.355  10.141 -0.3205 -0.0335  0.0108
  885MOL0     C16751   8.511  11.484  10.083  1.0334 -1.3205 -0.9242
  885MOL0     C16752   8.532  11.594  10.039  0.0260  0.7809 -0.0760
  885MOL0     C16753   8.661  11.143  10.606  0.4734  0.9313  0.5935
  885MOL0     C16754   8.773  11.075  10.665 -0.5983 -0.6537  0.2055
  885MOL0     H16755   9.175  11.113  10.797  0.7372  0.3980  0.7732
  885MOL0     H16756   9.402  11.079  10.894 -2.4333  2.0064 -0.2621
  885MOL0     H16757   9.539  10.720  10.775 -0.9899 -0.0011  0.3143
  885MOL0     H16758   9.590  10.650  10.918  0.4626 -1.3755 -1.9601
  885MOL0     H16759   9.705  10.907  10.808 -2.0679  0.4846  3.0940
  885MOL0     H16760   9.777  10.760  10.758 -0.9297  0.1108 -1.3530
  885MOL0     H16761   9.766  10.877  11.031  0.8390  0.3883 -0.6237
  885MOL0     H16762   9.915  10.849  10.919  0.0587  0.9221  0.2795
  885MOL0     H16763   9.758  10.618  11.056 -1.7404  2.2669 -2.1211
  885MOL0     H16764   9.886  10.604  10.942 -0.8818  2.7335 -2.7803
  885MOL0     H16765   9.890  10.723  11.222 -0.8376 -1.5996  0.1612
  885MOL0     H16766  10.035  10.751  11.111  1.4337 -1.3410 -1.4852
  885MOL0     H16767  10.051  10.563  11.282  0.1409 -0.1396 -0.5269
  885MOL0     H16768  10.036  10.492  11.112  3.3065  1.9159  0.0814
  885MOL0     H16769   9.802  10.438  11.165  0.7808  2.2147 -1.9139
  885MOL0     H16770   9.935  10.359  11.257 -0.0739  0.4439  1.0060
  885MOL0     H16771   9.760  10.588  11.369 -0.2265  0.3562  3.4277
  885MOL0     H16772   9.915  10.541  11.436  1.5361 -0.7512 -0.4328
  885MOL0     H16773   9.616  10.520  11.560 -2.9826 -0.3872 -3.2862
  885MOL0     H16774   9.529  10.217  11.753  0.2859 -1.3676 -0.6637
  885MOL0     H16775   9.435  10.215  11.599 -0.3794  0.7764  0.6327
  885MOL0     H16776   9.405  10.474  11.605 -0.1570 -0.7433 -0.5848
  885MOL0     H16777   9.445  10.451  11.772 -0.4804 -0.7150  0.9856
  885MOL0     H16778   9.205  10.454  11.761 -0.3036 -0.4919 -1.0360
  885MOL0     H16779   9.196  10.314  11.654  0.2991 -2.4354  0.5554
  885MOL0     H16780   9.280  10.159  11.802  2.4893  0.7322  1.2354
  885MOL0     H16781   9.152  10.233  11.890  1.2571  0.6169  2.2273
  885MOL0     H16782   9.076  10.385  11.995 -1.8339  2.1487  2.0412
  885MOL0     H16783   9.002  10.509  12.175  1.3526  4.0902 -0.1226
  885MOL0     H16784   9.381  10.796  12.628 -1.3689 -0.1139  0.1040
  885MOL0     H16785   9.345  10.856  12.858 -0.1570  1.8487 -1.8074
  885MOL0     H16786   9.276  10.873  13.102 -0.0167 -0.3896 -0.5087
  885MOL0     H16787   9.303  10.693  13.090  3.4612  2.8076  0.2277
  885MOL0     H16788   9.244  10.696  13.313 -2.3748 -1.2292  0.9983
  885MOL0     H16789   9.079  10.698  13.249  0.0309 -0.5271  1.4593
  885MOL0     H16790   9.110  10.960  13.243 -1.3097 -1.2122  0.1400
  885MOL0     H16791   9.240  10.941  13.358  0.1675  2.2658 -2.2878
  885MOL0     H16792   8.960  10.838  13.392  0.3365  2.8942 -1.7982
  885MOL0     H16793   9.098  10.803  13.504 -1.9701  2.6583  6.0044
  885MOL0     H16794   9.110  11.062  13.528  1.3602 -0.8522  0.2654
  885MOL0     H16795   8.987  10.960  13.598  1.7580  1.1510  0.7066
  885MOL0     H16796   8.825  11.061  13.411 -1.8575  4.0200 -0.2272
  885MOL0     H16797   8.956  11.129  13.339 -4.0644 -0.8387 -2.0461
  885MOL0     H16798   8.971  11.306  13.500 -0.7345 -0.5424 -1.4787
  885MOL0     H16799   8.813  11.278  13.451  0.9099 -3.8758 -3.8406
  885MOL0     H16800   8.818  11.323  13.702  2.3675 -0.0818  0.5245
  885MOL0     H16801   8.917  11.188  13.729  0.2459  1.9212  0.9710
  885MOL0     H16802   9.007  10.584  12.863 -0.8049 -0.1127 -1.9551
  885MOL0     H16803   9.081  10.500  12.642  0.6171  0.2217 -0.2033
  885MOL0     H16804   9.396  10.486  12.340 -2.7906 -1.2561  2.5940
  885MOL0     H16805   9.474  10.370  12.141  1.7242  1.8581  3.9469
  885MOL0     H16806   9.321  10.647  10.921 -2.6737 -0.4206 -0.3608
  885MOL0     H16807   9.086  10.696  10.841  1.8271  0.5776 -4.4105
  885MOL0     H16808   8.790  10.807  10.463  0.9488 -0.1800  1.1840
  885MOL0     H16809   8.601  10.905  10.364 -0.1437 -1.3022  1.0275
  885MOL0     H16810   8.367  11.012  10.369 -0.6792 -0.1966  0.9202
  885MOL0     H16811   8.496  11.081  10.264  0.0590  0.4598 -0.0089
  885MOL0     H16812   8.291  11.181  10.193  2.4055 -2.7372 -0.4202
  885MOL0     H16813   8.248  11.237  10.362  0.4892 -1.7925  0.7550
  885MOL0     H16814   8.454  11.393  10.355 -0.4070 -1.5690  0.5894
  885MOL0     H16815   8.323  11.434  10.251  0.3633  0.3655 -0.4363
  885MOL0     H16816   8.590  11.320  10.176  0.7659  3.2631  0.5705
  885MOL0     H16817   8.446  11.294  10.062 -2.0432  0.1294  0.8367
  885MOL0     H16818   8.546  11.696  10.010 -0.8532  0.0840 -3.4562
  885MOL0     H16819   8.640  11.246  10.633  2.6194  0.8188  2.9481
  885MOL0     H16820   8.825  11.128  10.744 -2.5905  2.4767 -0.3987
  886MOL0     O16821   2.108   8.615   6.466 -0.2900  0.4615  0.2202
  886MOL0     C16822   2.031   8.526   6.506 -0.2814  0.2638  1.2346
  886MOL0     O16823   1.902   8.534   6.508 -0.3677  0.6034  0.2234
  886MOL0     C16824   1.852   8.654   6.470 -0.1262  0.4463  0.2947
  886MOL0     C16825   1.825   8.688   6.329 -0.3871  0.4022 -0.5513
  886MOL0     C16826   1.776   8.812   6.293  0.1679 -0.1848 -0.4462
  886MOL0     C16827   1.764   8.912   6.396  0.0022  0.1044 -0.5978
  886MOL0     O16828   1.708   9.036   6.382  0.1868  0.0103 -0.3400
  886MOL0     C16829   1.723   9.104   6.259 -0.4457  0.3980  0.5118
  886MOL0     C16830   1.687   9.257   6.273  0.1962  1.0677 -0.5566
  886MOL0     C16831   1.680   9.329   6.136  0.5545 -0.4798 -0.0427
  886MOL0     C16832   1.601   9.463   6.163 -0.6023 -0.8871 -0.6425
  886MOL0     C16833   1.689   9.582   6.145  0.2557 -1.2206 -0.3863
  886MOL0     C16834   1.709   9.629   5.998 -0.0524 -0.7801  0.0460
  886MOL0     C16835   1.799   9.756   5.987 -1.1757 -0.8087 -0.3212
  886MOL0     C16836   1.956   9.735   5.993  0.2958  0.6276 -0.1183
  886MOL0     N16837   2.035   9.838   6.049 -0.3556  0.8046  0.7967
  886MOL0     C16838   2.170   9.822   6.087  0.1219  0.0408  0.6581
  886MOL0     C16839   2.205   9.944   6.128 -0.8665 -0.0557 -0.4727
  886MOL0     C16840   2.336   9.976   6.189 -0.3143 -0.1486  0.4689
  886MOL0     C16841   2.461   9.932   6.109  0.2417 -0.2072  0.7360
  886MOL0     C16842   2.538  10.043   6.036 -0.5312  0.3814 -0.4909
  886MOL0     C16843   2.618  10.131   6.138 -0.3147 -0.9206  0.4204
  886MOL0     O16844   2.717  10.224   6.083  0.4835  0.1596  0.5468
  886MOL0     C16845   2.834  10.180   6.022  0.2134  0.0307  1.3923
  886MOL0     C16846   2.875  10.052   5.990 -0.1275  0.9414  1.4175
  886MOL0     C16847   3.005  10.027   5.941 -0.3106  1.0237 -0.1703
  886MOL0     C16848   3.097  10.132   5.923  1.3536 -1.0037  0.2332
  886MOL0     C16849   3.231  10.111   5.869  0.2407  0.3971 -0.7896
  886MOL0     O16850   3.293  10.224   5.848 -0.7094  0.0465  0.2655
  886MOL0     C16851   3.432  10.215   5.832  0.2619 -0.2017 -0.0770
  886MOL0     C16852   3.490  10.252   5.719  0.1786  0.5815  0.7154
  886MOL0     C16853   3.625  10.275   5.709  0.2257  1.0842  0.0718
  886MOL0     C16854   3.712  10.243   5.818 -0.3776  0.1062 -1.5333
  886MOL0     O16855   3.840  10.287   5.834  0.7796 -0.5791 -1.2622
  886MOL0     C16856   3.915  10.329   5.720  0.1785  0.0485  0.8909
  886MOL0     C16857   4.070  10.305   5.745  0.5859  0.5771 -0.5492
  886MOL0     C16858   4.151  10.353   5.628  0.9718  0.6375  0.1917
  886MOL0     C16859   4.121  10.265   5.505 -0.1189  0.8805 -0.6345
  886MOL0     C16860   4.224  10.314   5.388  0.0899 -0.0335 -0.3168
  886MOL0     C16861   4.212  10.212   5.275  0.2473 -0.7947  0.0484
  886MOL0     C16862   4.254  10.065   5.316  0.6419  0.4620  0.7004
  886MOL0     C16863   4.322  10.002   5.201 -0.1291  0.0343 -0.0703
  886MOL0    Cl16864   4.307   9.823   5.215 -0.2178 -0.4280 -0.2068
  886MOL0     C16865   3.650  10.195   5.942 -0.8564  0.2939 -0.4677
  886MOL0     C16866   3.510  10.187   5.948  0.1248 -0.2478  0.2463
  886MOL0     O16867   3.263  10.005   5.815 -0.0959  0.8976 -0.3219
  886MOL0     C16868   3.057  10.262   5.976 -0.3301  0.1232  1.1427
  886MOL0     C16869   2.929  10.288   6.012  0.1416 -0.4234 -0.7755
  886MOL0     N16870   2.103  10.033   6.112  0.2828 -0.4603  0.1542
  886MOL0     N16871   2.000   9.969   6.071  0.0275 -0.3466  0.6796
  886MOL0     C16872   1.779   8.870   6.527  0.2284 -0.7015  0.5389
  886MOL0     C16873   1.824   8.746   6.567  0.1491 -0.4499 -0.8124
  886MOL0     C16874   2.091   8.402   6.550  0.5768  0.1352  0.7622
  886MOL0     C16875   2.042   8.334   6.659 -1.4503  0.2334 -0.0071
  886MOL0     C16876   2.096   8.210   6.698 -0.1785  0.6645 -0.5087
  886MOL0     C16877   2.194   8.139   6.619 -0.1031  0.5638 -0.0051
  886MOL0     O16878   2.240   8.017   6.647 -0.6273 -0.5019 -0.6068
  886MOL0     C16879   2.252   7.984   6.786  0.5942 -0.0013 -0.0200
  886MOL0     C16880   2.352   8.072   6.858  0.6180  0.8884  0.0148
  886MOL0     C16881   2.383   8.015   6.998 -0.4293  0.4064  0.2833
  886MOL0     C16882   2.477   8.098   7.080 -0.7886  0.4425 -0.0983
  886MOL0     C16883   2.532   8.032   7.200  0.9399  0.0573 -1.6428
  886MOL0     C16884   2.571   7.966   7.291  0.0640 -0.9924 -0.1495
  886MOL0     C16885   2.232   8.206   6.500 -0.0441  0.2059  0.3968
  886MOL0     C16886   2.180   8.336   6.470 -0.2521  0.6935  1.1073
  886MOL0     H16887   1.856   8.625   6.247 -1.2971  0.9446 -1.3237
  886MOL0     H16888   1.753   8.848   6.193  2.2688  2.2073 -0.1707
  886MOL0     H16889   1.667   9.061   6.176 -0.6675  0.7155  0.4966
  886MOL0     H16890   1.825   9.090   6.223 -1.5163 -1.9204 -1.9314
  886MOL0     H16891   1.758   9.300   6.344 -0.7457  0.8504  0.5344
  886MOL0     H16892   1.586   9.267   6.313  1.5095 -0.1602  3.6157
  886MOL0     H16893   1.626   9.279   6.054  1.6995 -2.0603  0.1248
  886MOL0     H16894   1.778   9.351   6.094  0.3527 -2.4353 -1.6931
  886MOL0     H16895   1.517   9.461   6.093 -1.7900 -3.2004  0.7149
  886MOL0     H16896   1.564   9.467   6.266 -0.1701  0.9384 -0.5357
  886MOL0     H16897   1.783   9.565   6.199  0.2615 -1.1060 -0.3600
  886MOL0     H16898   1.646   9.660   6.209  0.8847 -1.3161  0.1686
  886MOL0     H16899   1.611   9.650   5.954  0.8187 -1.4342 -2.3300
  886MOL0     H16900   1.770   9.560   5.939 -2.1093 -0.8539 -2.1320
  886MOL0     H16901   1.764   9.814   5.902 -1.0012  1.8357  1.2890
  886MOL0     H16902   1.783   9.801   6.086 -0.1602 -2.5563  0.6897
  886MOL0     H16903   1.991   9.723   5.890  1.3545 -1.1704  0.3863
  886MOL0     H16904   1.972   9.637   6.040 -2.5803  0.9882  1.8092
  886MOL0     H16905   2.245   9.746   6.065  1.8679  0.5871  4.0204
  886MOL0     H16906   2.353   9.912   6.275  2.9378  2.4011  1.9326
  886MOL0     H16907   2.335  10.082   6.215 -0.6383  0.5108 -1.9724
  886MOL0     H16908   2.437   9.866   6.026 -0.3112 -0.3087  0.9776
  886MOL0     H16909   2.532   9.878   6.172  1.4961 -0.9196 -1.2108
  886MOL0     H16910   2.606   9.983   5.975  2.2418 -0.1426  2.8299
  886MOL0     H16911   2.473  10.104   5.972 -1.4944  0.0053  0.1122
  886MOL0     H16912   2.673  10.066   6.206 -1.6493 -0.2503  2.2151
  886MOL0     H16913   2.547  10.178   6.207 -0.1495  3.8025 -2.2142
  886MOL0     H16914   2.812   9.964   5.990  3.7304 -2.0747  2.0609
  886MOL0     H16915   3.021   9.923   5.915 -1.0082  0.3857  1.7742
  886MOL0     H16916   3.440  10.276   5.625  1.6976 -2.6847 -1.0835
  886MOL0     H16917   3.671  10.314   5.620  2.6506  4.9734  2.7329
  886MOL0     H16918   3.911  10.435   5.691 -0.7370 -0.8927 -2.9900
  886MOL0     H16919   3.891  10.260   5.638  0.2739 -1.0567  1.7696
  886MOL0     H16920   4.104  10.204   5.770 -2.9747 -0.6971 -0.3525
  886MOL0     H16921   4.099  10.355   5.838 -0.3292 -0.8255  0.5281
  886MOL0     H16922   4.257  10.361   5.652  1.4459  0.7967 -1.8223
  886MOL0     H16923   4.112  10.451   5.599  1.0645  0.3088 -1.0785
  886MOL0     H16924   4.143  10.159   5.527  2.6923  1.8019  1.7106
  886MOL0     H16925   4.016  10.278   5.477 -0.1625 -0.3837 -1.1376
  886MOL0     H16926   4.328  10.322   5.423  0.0378 -0.8310  0.0386
  886MOL0     H16927   4.198  10.415   5.355  1.5735 -0.2637 -2.3942
  886MOL0     H16928   4.271  10.261   5.197  0.2513 -0.0860  0.4848
  886MOL0     H16929   4.109  10.216   5.238  0.3916 -1.8543 -0.5236
  886MOL0     H16930   4.314  10.072   5.407 -1.8295  0.0336  2.4846
  886MOL0     H16931   4.168  10.005   5.348  2.3112 -3.0883 -0.9155
  886MOL0     H16932   4.425  10.037   5.188  0.2084 -0.5831  0.8383
  886MOL0     H16933   4.275  10.035   5.108  2.3750  1.6949 -0.8582
  886MOL0     H16934   3.703  10.189   6.037 -2.3447 -0.3850  0.3612
  886MOL0     H16935   3.461  10.181   6.045 -1.1184  1.7185 -0.1914
  886MOL0     H16936   3.133  10.339   5.978 -1.2588  1.0738  0.9014
  886MOL0     H16937   2.886  10.378   6.055 -0.1896 -2.3856  3.4414
  886MOL0     H16938   1.772   8.943   6.607  2.4760  1.0346 -0.7366
  886MOL0     H16939   1.841   8.716   6.671  3.4682 -0.6761 -1.3104
  886MOL0     H16940   1.960   8.361   6.725 -0.1800 -1.3275  2.3622
  886MOL0     H16941   2.042   8.177   6.786  0.4947  1.0029  0.0417
  886MOL0     H16942   2.297   7.885   6.797  3.9673  1.3353 -0.7168
  886MOL0     H16943   2.150   7.978   6.826  0.9070 -0.1725  0.7603
  886MOL0     H16944   2.449   8.069   6.807  2.3708  1.5415  3.0566
  886MOL0     H16945   2.329   8.179   6.869  0.4402  0.9535 -0.8787
  886MOL0     H16946   2.421   7.914   6.985 -0.6348  0.2728  0.6981
  886MOL0     H16947   2.284   8.007   7.045  0.2055 -0.5975  1.4877
  886MOL0     H16948   2.569   8.129   7.029  1.1673 -4.4973 -0.0945
  886MOL0     H16949   2.431   8.190   7.116  0.8887  1.0613  0.5437
  886MOL0     H16950   2.613   7.913   7.374  0.6297 -0.4371 -0.0738
  886MOL0     H16951   2.302   8.157   6.433  1.7338 -0.2351  2.4905
  886MOL0     H16952   2.207   8.385   6.377 -1.4432 -3.4974 -1.7512
  887MOL0     O16953   7.634   0.433  11.070  0.4805 -1.1320 -0.1728
  887MOL0     C16954   7.529   0.376  11.087  0.1954 -0.9582 -0.2220
  887MOL0     O16955   7.506   0.244  11.058 -0.8744 -0.3353  0.2102
  887MOL0     C16956   7.598   0.162  10.993  0.5490 -0.3339 -0.9265
  887MOL0     C16957   7.700   0.205  10.907  0.7046 -0.0190  0.3026
  887MOL0     C16958   7.775   0.111  10.847 -0.8785  0.2000 -0.4426
  887MOL0     C16959   7.763  -0.026  10.869 -0.2719  0.6161 -0.3465
  887MOL0     O16960   7.860  -0.108  10.809 -0.1351  0.5151  0.2135
  887MOL0     C16961   7.824  -0.199  10.705 -0.6369 -0.2830  0.9831
  887MOL0     C16962   7.894  -0.326  10.723 -0.2492 -0.3708  0.0643
  887MOL0     C16963   8.049  -0.308  10.730 -0.5168  0.1273 -0.4075
  887MOL0     C16964   8.124  -0.445  10.756 -0.4066  0.1887  0.7815
  887MOL0     C16965   8.260  -0.456  10.679  0.6429 -0.6154  0.8547
  887MOL0     C16966   8.320  -0.591  10.697  0.9537 -0.8323  0.1664
  887MOL0     C16967   8.353  -0.630  10.845  0.1612  0.3993  0.5804
  887MOL0     C16968   8.438  -0.518  10.915  0.3148 -0.1586  0.2074
  887MOL0     N16969   8.401  -0.527  11.049  0.7669 -0.6452 -0.0232
  887MOL0     C16970   8.293  -0.458  11.105 -0.2811 -0.0075  0.1810
  887MOL0     C16971   8.262  -0.533  11.216 -0.1489 -0.1552 -0.1418
  887MOL0     C16972   8.146  -0.501  11.303 -0.2360  0.7188 -0.3679
  887MOL0     C16973   8.039  -0.589  11.244 -0.2696  0.2980  0.3185
  887MOL0     C16974   7.962  -0.561  11.120 -0.2796 -0.9471  0.0689
  887MOL0     C16975   7.827  -0.632  11.102  1.3796  0.7067  0.3898
  887MOL0     O16976   7.713  -0.533  11.098  0.6591  0.3362 -0.2153
  887MOL0     C16977   7.604  -0.604  11.151 -0.5928  0.7703  0.2974
  887MOL0     C16978   7.549  -0.723  11.104  0.8593 -0.0206  1.3313
  887MOL0     C16979   7.446  -0.778  11.174 -0.3871 -0.1508 -0.3112
  887MOL0     C16980   7.402  -0.734  11.295  0.3625  0.5181 -0.0138
  887MOL0     C16981   7.293  -0.800  11.366  0.5828 -0.3979 -0.5509
  887MOL0     O16982   7.255  -0.756  11.499 -0.0598  0.3621 -0.0830
  887MOL0     C16983   7.206  -0.851  11.583  0.5242  0.1214  0.2499
  887MOL0     C16984   7.279  -0.968  11.611  0.1326 -0.5258 -0.4042
  887MOL0     C16985   7.227  -1.076  11.682 -0.7485 -1.1362 -0.8065
  887MOL0     C16986   7.101  -1.063  11.740  0.6087  0.2755  0.3289
  887MOL0     O16987   7.048  -1.173  11.808 -0.5205  0.0134  0.0455
  887MOL0     C16988   6.907  -1.161  11.835 -0.9382 -0.3650  0.0230
  887MOL0     C16989   6.855  -1.293  11.906  0.9280  0.2654  0.9021
  887MOL0     C16990   6.712  -1.278  11.973 -0.2124  0.4314  0.8285
  887MOL0     C16991   6.658  -1.417  12.008  0.4398 -0.3576  0.1898
  887MOL0     C16992   6.505  -1.405  12.017  0.6560  0.5675 -0.7687
  887MOL0     C16993   6.429  -1.539  12.050  0.3181 -0.3940 -0.4609
  887MOL0     C16994   6.446  -1.649  11.939  0.0204 -0.2183  1.2138
  887MOL0     C16995   6.439  -1.787  12.007 -0.8814 -0.1184  0.0164
  887MOL0    Cl16996   6.585  -1.807  12.099  0.2272  0.7151  0.0417
  887MOL0     C16997   7.031  -0.941  11.718 -0.9066 -0.1154  0.4055
  887MOL0     C16998   7.079  -0.837  11.638 -0.0928 -0.3645 -0.8783
  887MOL0     O16999   7.268  -0.915  11.319  0.0042 -0.4803 -0.3175
  887MOL0     C17000   7.457  -0.613  11.345  0.2679  0.0547 -0.5055
  887MOL0     C17001   7.561  -0.548  11.273 -0.2580  0.4547 -0.1767
  887MOL0     N17002   8.369  -0.618  11.241  0.6435 -0.0623 -0.5529
  887MOL0     N17003   8.446  -0.620  11.131  0.7070  0.5252 -0.7246
  887MOL0     C17004   7.662  -0.065  10.950  0.0793  0.6525 -0.1127
  887MOL0     C17005   7.578   0.029  11.004 -0.3170  0.6281  0.5242
  887MOL0     C17006   7.412   0.450  11.148 -0.8772 -0.3997 -0.4177
  887MOL0     C17007   7.298   0.386  11.192  0.1238 -0.3270 -1.0531
  887MOL0     C17008   7.203   0.463  11.266  0.7170  0.8947 -1.1087
  887MOL0     C17009   7.209   0.599  11.277 -0.6683  1.2717 -0.0927
  887MOL0     O17010   7.102   0.673  11.325 -0.3990  0.4223 -0.6615
  887MOL0     C17011   7.083   0.696  11.467 -0.5815 -0.3349  0.6196
  887MOL0     C17012   7.000   0.590  11.538  0.4245 -0.5048 -0.4253
  887MOL0     C17013   6.847   0.603  11.513  0.6289 -0.4099  0.4194
  887MOL0     C17014   6.778   0.514  11.624  0.1357 -0.7404  0.0220
  887MOL0     C17015   6.781   0.588  11.753  0.8179  0.4586 -0.3095
  887MOL0     C17016   6.779   0.650  11.862  0.1232  0.1099 -0.1852
  887MOL0     C17017   7.310   0.664  11.202 -0.3491 -0.3945  0.4501
  887MOL0     C17018   7.413   0.591  11.146  0.6308 -0.8283 -0.3094
  887MOL0     H17019   7.719   0.309  10.880  4.3730 -0.2805  1.3713
  887MOL0     H17020   7.846   0.160  10.782 -0.4724  0.6834  0.3642
  887MOL0     H17021   7.838  -0.156  10.605 -0.6200  0.1563  1.1675
  887MOL0     H17022   7.719  -0.226  10.718 -0.7437 -0.3317  0.1175
  887MOL0     H17023   7.854  -0.389  10.643  1.4927 -2.2932  0.6394
  887MOL0     H17024   7.866  -0.374  10.817 -0.1263 -2.1552 -0.7681
  887MOL0     H17025   8.080  -0.240  10.809 -1.1175  0.6917 -0.6525
  887MOL0     H17026   8.087  -0.255  10.643 -0.0870  0.3144 -0.1067
  887MOL0     H17027   8.135  -0.447  10.864 -2.1182  1.2943  1.0013
  887MOL0     H17028   8.060  -0.530  10.730  2.0515 -1.4474 -0.4349
  887MOL0     H17029   8.326  -0.370  10.693 -0.8387  0.2717  2.9586
  887MOL0     H17030   8.230  -0.442  10.574 -1.1470 -1.1987  1.2416
  887MOL0     H17031   8.409  -0.600  10.634  1.6650  0.7561  0.8871
  887MOL0     H17032   8.246  -0.659  10.654  1.3008 -2.9660  2.7256
  887MOL0     H17033   8.254  -0.634  10.892  0.7444 -1.0232  1.7658
  887MOL0     H17034   8.393  -0.731  10.840 -1.4286 -0.2236 -0.4926
  887MOL0     H17035   8.409  -0.416  10.888  0.0909 -0.3225 -0.1972
  887MOL0     H17036   8.546  -0.532  10.904  0.4723  2.5744 -3.8117
  887MOL0     H17037   8.231  -0.379  11.062  2.1568  0.8094 -2.0910
  887MOL0     H17038   8.124  -0.395  11.294  2.2821  1.4110  0.8086
  887MOL0     H17039   8.171  -0.548  11.399 -0.0255  0.7610 -0.4014
  887MOL0     H17040   7.961  -0.574  11.319  2.5508  0.8637  3.3780
  887MOL0     H17041   8.075  -0.692  11.244  0.0020  0.3815 -0.5274
  887MOL0     H17042   7.965  -0.452  11.109 -1.8892 -0.4773  3.1844
  887MOL0     H17043   8.028  -0.597  11.041  0.3291 -0.8378  0.5162
  887MOL0     H17044   7.818  -0.702  11.187 -1.5531  1.4229  0.7620
  887MOL0     H17045   7.832  -0.684  11.006  2.1645 -0.0789  0.8331
  887MOL0     H17046   7.571  -0.772  11.010  3.1999 -1.1838  2.3898
  887MOL0     H17047   7.386  -0.862  11.140 -0.3508 -0.3683  0.1560
  887MOL0     H17048   7.374  -0.979  11.560  0.8847  1.4102  0.4840
  887MOL0     H17049   7.276  -1.173  11.687 -1.8293 -1.6803 -0.5315
  887MOL0     H17050   6.846  -1.144  11.746  0.3280  1.3748 -0.5625
  887MOL0     H17051   6.875  -1.081  11.902 -0.8216  0.2563 -0.6607
  887MOL0     H17052   6.925  -1.334  11.978 -1.1460 -0.0814  2.8398
  887MOL0     H17053   6.836  -1.359  11.821 -0.5803  1.7897 -0.0295
  887MOL0     H17054   6.642  -1.219  11.912  0.5084 -0.2442 -0.7169
  887MOL0     H17055   6.728  -1.219  12.064 -0.1694 -0.7556  1.6081
  887MOL0     H17056   6.685  -1.494  11.935 -1.0775 -0.1788 -0.6050
  887MOL0     H17057   6.701  -1.449  12.103 -0.1839 -0.6139  0.3920
  887MOL0     H17058   6.466  -1.374  11.919  2.1374  0.7850 -1.3168
  887MOL0     H17059   6.482  -1.328  12.091 -1.0505  2.2385 -2.8786
  887MOL0     H17060   6.323  -1.525  12.072  0.4141 -0.8958  0.3548
  887MOL0     H17061   6.462  -1.573  12.148  0.5142  2.0798  0.3967
  887MOL0     H17062   6.362  -1.638  11.870 -0.2456 -1.3828  1.3454
  887MOL0     H17063   6.539  -1.647  11.882 -1.1563 -0.7407 -0.8243
  887MOL0     H17064   6.425  -1.860  11.927 -2.6285  0.8430 -0.6171
  887MOL0     H17065   6.365  -1.796  12.088 -0.4449 -1.9517  0.2643
  887MOL0     H17066   6.933  -0.917  11.757 -0.8384  1.1565 -0.1593
  887MOL0     H17067   7.017  -0.751  11.615  0.7931  0.4797 -0.2419
  887MOL0     H17068   7.424  -0.572  11.440 -1.0717 -0.1928 -0.8479
  887MOL0     H17069   7.607  -0.459  11.317  2.0480 -0.7287 -0.0133
  887MOL0     H17070   7.650  -0.171  10.967  1.4202  0.1893 -1.7872
  887MOL0     H17071   7.508  -0.011  11.076 -0.3672 -0.3707 -0.0605
  887MOL0     H17072   7.266   0.284  11.174 -1.1441  0.1191 -1.4117
  887MOL0     H17073   7.111   0.417  11.301  0.5133  2.6003  0.7921
  887MOL0     H17074   7.044   0.796  11.486 -1.8672 -0.7202  0.0921
  887MOL0     H17075   7.180   0.683  11.517 -0.2391 -2.9400 -0.5290
  887MOL0     H17076   7.042   0.492  11.512  0.3080 -0.7294  0.2114
  887MOL0     H17077   7.010   0.613  11.645  1.7617 -0.6379 -0.5033
  887MOL0     H17078   6.834   0.573  11.409 -2.6002  1.2501  0.2198
  887MOL0     H17079   6.799   0.701  11.525 -1.8088 -1.1909 -1.9812
  887MOL0     H17080   6.678   0.517  11.579  1.8391  1.2342 -4.1386
  887MOL0     H17081   6.824   0.415  11.635 -0.6273 -1.2167 -0.8917
  887MOL0     H17082   6.786   0.716  11.946  3.3572 -1.2462  0.7642
  887MOL0     H17083   7.332   0.770  11.205 -2.9808  0.2415 -0.5012
  887MOL0     H17084   7.492   0.633  11.085 -0.5704  1.0736 -0.6308
  888MOL0     O17085   9.432   6.477   2.996  0.4277 -0.0691 -0.0918
  888MOL0     C17086   9.429   6.545   3.100  0.2725  0.2939  1.0423
  888MOL0     O17087   9.396   6.675   3.093  1.1108 -0.8202  0.3460
  888MOL0     C17088   9.365   6.748   2.978 -0.1761  0.7130 -0.4674
  888MOL0     C17089   9.374   6.887   2.999 -0.5883 -0.2151  0.3145
  888MOL0     C17090   9.346   6.971   2.893  0.5508  0.0644 -0.2045
  888MOL0     C17091   9.298   6.926   2.763 -0.4439  0.9294 -1.0780
  888MOL0     O17092   9.229   7.017   2.684  1.1185  0.0490  0.3883
  888MOL0     C17093   9.291   7.058   2.562  0.0137  0.4234 -0.3675
  888MOL0     C17094   9.187   7.089   2.458 -0.7256  0.2462  0.3240
  888MOL0     C17095   9.239   7.083   2.315 -0.7594  0.0349  0.5244
  888MOL0     C17096   9.278   6.944   2.259 -0.2834  0.7023  0.5679
  888MOL0     C17097   9.172   6.824   2.281 -0.3964 -1.2730  0.5848
  888MOL0     C17098   9.213   6.685   2.222  0.6852  0.4623 -0.5007
  888MOL0     C17099   9.313   6.613   2.299  0.6752 -0.5219  0.3379
  888MOL0     C17100   9.325   6.467   2.255  0.1218 -0.0485 -0.1891
  888MOL0     N17101   9.379   6.456   2.121 -0.1820  0.9487  0.1902
  888MOL0     C17102   9.311   6.446   1.998  0.1597  0.3858 -0.5568
  888MOL0     C17103   9.411   6.457   1.908 -0.6757  0.2082 -0.0166
  888MOL0     C17104   9.390   6.422   1.755  0.4067 -0.8768 -0.7614
  888MOL0     C17105   9.238   6.387   1.732 -0.8308 -0.6577  1.4181
  888MOL0     C17106   9.229   6.344   1.588  0.0635  0.4732 -0.0522
  888MOL0     C17107   9.094   6.282   1.559  0.1107 -0.2811 -0.1901
  888MOL0     O17108   9.096   6.152   1.612  0.5657  0.5351  0.4204
  888MOL0     C17109   8.983   6.081   1.574  0.0139  0.6098 -0.3230
  888MOL0     C17110   8.864   6.125   1.514  0.8293 -0.7623 -1.0358
  888MOL0     C17111   8.768   6.038   1.463 -0.6593 -0.7551 -0.6581
  888MOL0     C17112   8.773   5.906   1.475 -0.2921 -0.2851 -0.2630
  888MOL0     C17113   8.662   5.822   1.421  0.1738  0.8240  0.2660
  888MOL0     O17114   8.585   5.861   1.311 -0.2003  0.0442 -0.6577
  888MOL0     C17115   8.472   5.785   1.286 -1.2680  0.0834  0.5892
  888MOL0     C17116   8.361   5.861   1.264  0.4284  0.1886  0.5992
  888MOL0     C17117   8.238   5.799   1.219  0.4500  0.1642 -0.4211
  888MOL0     C17118   8.232   5.659   1.191 -0.0841  0.3183 -0.4794
  888MOL0     O17119   8.118   5.591   1.152 -0.2846 -0.3484 -0.6869
  888MOL0     C17120   8.025   5.665   1.081  0.7594 -0.0492  0.3310
  888MOL0     C17121   7.917   5.576   1.015 -0.6410  1.0600  0.1600
  888MOL0     C17122   7.800   5.556   1.107  0.0054 -0.7451  0.2417
  888MOL0     C17123   7.698   5.470   1.041 -0.1107 -0.3163  1.1668
  888MOL0     C17124   7.604   5.406   1.143  0.5434  0.0696  0.6894
  888MOL0     C17125   7.495   5.324   1.078  0.2812 -0.2414 -0.4267
  888MOL0     C17126   7.387   5.281   1.188  0.1570  0.4258  0.5789
  888MOL0     C17127   7.330   5.153   1.128 -0.4597  0.3559  0.6890
  888MOL0    Cl17128   7.270   5.170   0.960 -0.2293  0.2854 -0.4881
  888MOL0     C17129   8.356   5.589   1.199 -0.3021 -0.1620  0.5094
  888MOL0     C17130   8.471   5.648   1.240 -0.2750  0.1139 -0.5691
  888MOL0     O17131   8.634   5.729   1.488  0.5895  0.5063 -0.6963
  888MOL0     C17132   8.878   5.856   1.550  0.0912 -0.2340  0.0183
  888MOL0     C17133   8.982   5.945   1.602 -0.4238 -0.0204 -1.4349
  888MOL0     N17134   9.534   6.467   1.977 -0.1846  0.5491 -0.6038
  888MOL0     N17135   9.514   6.466   2.109 -0.3107 -0.3125  0.5893
  888MOL0     C17136   9.280   6.786   2.747  0.6740 -0.0729 -0.1798
  888MOL0     C17137   9.324   6.704   2.852  0.8157  0.1375  1.1736
  888MOL0     C17138   9.448   6.481   3.222 -0.1752 -0.4339  0.1739
  888MOL0     C17139   9.453   6.561   3.338 -0.3423 -0.1591  0.5720
  888MOL0     C17140   9.454   6.502   3.471  0.4542  0.3228  0.4608
  888MOL0     C17141   9.508   6.376   3.483 -0.3328  0.1934  0.0422
  888MOL0     O17142   9.531   6.313   3.597 -0.3430 -0.4077  0.5461
  888MOL0     C17143   9.580   6.384   3.714 -0.0362 -1.0885 -0.1808
  888MOL0     C17144   9.604   6.287   3.835  1.1297  0.9313  1.1848
  888MOL0     C17145   9.590   6.347   3.978 -0.5618  0.5090 -0.1337
  888MOL0     C17146   9.698   6.454   4.006 -0.9311 -0.2539 -0.4510
  888MOL0     C17147   9.835   6.397   3.994 -1.8263  0.0867  0.7242
  888MOL0     C17148   9.936   6.331   3.985 -0.8582 -0.3619 -0.5783
  888MOL0     C17149   9.520   6.299   3.364 -1.1052 -0.6544  0.7308
  888MOL0     C17150   9.491   6.348   3.239 -0.5479 -0.0001  0.3666
  888MOL0     H17151   9.394   6.925   3.099 -3.6567  0.4963  0.7479
  888MOL0     H17152   9.350   7.072   2.934  1.3650 -0.3741  0.8419
  888MOL0     H17153   9.355   6.979   2.523  0.5346  0.1436  1.0091
  888MOL0     H17154   9.340   7.153   2.584  0.0546  1.5450 -4.4932
  888MOL0     H17155   9.140   7.184   2.484 -1.3267  0.5099 -1.5373
  888MOL0     H17156   9.104   7.018   2.467 -0.9162  0.4167 -0.0590
  888MOL0     H17157   9.324   7.149   2.297  0.4573 -2.1997 -3.0819
  888MOL0     H17158   9.167   7.139   2.256  1.9112  2.4684 -0.6334
  888MOL0     H17159   9.286   6.951   2.150 -2.2040  0.1272  0.3438
  888MOL0     H17160   9.375   6.915   2.300  2.0684  4.2753 -1.8774
  888MOL0     H17161   9.079   6.855   2.233  0.2397  2.0727  1.2526
  888MOL0     H17162   9.157   6.805   2.388 -0.5481  0.8124  0.9713
  888MOL0     H17163   9.256   6.704   2.123 -1.0058  0.1780 -1.3438
  888MOL0     H17164   9.119   6.628   2.221  0.6352  0.3799 -4.0179
  888MOL0     H17165   9.411   6.656   2.275  0.4719  1.7464  2.9852
  888MOL0     H17166   9.290   6.626   2.405 -2.5315  2.2535 -0.5151
  888MOL0     H17167   9.230   6.413   2.263  0.9655 -1.4928  0.4769
  888MOL0     H17168   9.385   6.421   2.334  0.4724 -0.4420 -0.6780
  888MOL0     H17169   9.206   6.418   1.995 -0.1284  1.4984 -1.4433
  888MOL0     H17170   9.443   6.328   1.733 -0.4203 -2.1347  2.0535
  888MOL0     H17171   9.420   6.505   1.692  0.0349 -0.9427 -1.0278
  888MOL0     H17172   9.174   6.475   1.748  1.0529  0.7939  1.4139
  888MOL0     H17173   9.214   6.297   1.788  1.1034 -3.2717 -1.6443
  888MOL0     H17174   9.237   6.431   1.521  0.9129  1.9175  1.8356
  888MOL0     H17175   9.309   6.272   1.565 -0.7934 -0.1845 -1.0393
  888MOL0     H17176   9.082   6.277   1.451 -2.1701 -1.1031  0.0628
  888MOL0     H17177   9.010   6.347   1.587 -0.3318 -0.7282 -0.4745
  888MOL0     H17178   8.859   6.230   1.485  3.7480  0.0853  1.0190
  888MOL0     H17179   8.691   6.084   1.402  1.9795  0.5615 -3.2630
  888MOL0     H17180   8.361   5.963   1.300 -0.6531 -0.2689  1.9651
  888MOL0     H17181   8.158   5.871   1.209 -1.8117 -1.2238  4.4786
  888MOL0     H17182   8.072   5.714   0.995  1.4002 -2.3278 -0.6756
  888MOL0     H17183   7.973   5.738   1.144 -1.2450 -0.5778 -0.6564
  888MOL0     H17184   7.969   5.482   0.998 -0.3026  1.4807 -1.2656
  888MOL0     H17185   7.888   5.621   0.919 -1.0321 -1.7493 -1.1265
  888MOL0     H17186   7.753   5.647   1.145  3.9404  1.1645  1.0964
  888MOL0     H17187   7.829   5.502   1.198 -0.3443  2.8100  2.6503
  888MOL0     H17188   7.648   5.531   0.964 -1.1027 -2.0456  0.3757
  888MOL0     H17189   7.740   5.384   0.987 -0.3460  0.7066 -0.7473
  888MOL0     H17190   7.561   5.485   1.205 -1.5123 -0.5059  0.1041
  888MOL0     H17191   7.652   5.327   1.202 -3.6419 -2.0955  1.6370
  888MOL0     H17192   7.540   5.240   1.025  2.0935  0.1660  0.3913
  888MOL0     H17193   7.451   5.385   0.998  0.2934  0.7999  0.3410
  888MOL0     H17194   7.425   5.255   1.287  3.4289 -1.4451 -0.9978
  888MOL0     H17195   7.310   5.357   1.175  1.3607  1.4911 -0.7876
  888MOL0     H17196   7.254   5.115   1.197  2.4110  1.4767  4.8475
  888MOL0     H17197   7.399   5.073   1.100 -3.6624 -1.8161 -1.7536
  888MOL0     H17198   8.357   5.486   1.165 -3.0600 -0.8064  2.0618
  888MOL0     H17199   8.564   5.593   1.232 -0.2654  0.3251 -2.7202
  888MOL0     H17200   8.878   5.747   1.558  0.2361 -0.1987  0.5213
  888MOL0     H17201   9.063   5.904   1.662 -0.9017  3.5539  2.0562
  888MOL0     H17202   9.217   6.754   2.665 -0.6112  1.7401  0.0442
  888MOL0     H17203   9.311   6.598   2.837 -0.4455  0.0853  2.3764
  888MOL0     H17204   9.446   6.669   3.334 -1.6023 -0.2424 -0.1050
  888MOL0     H17205   9.427   6.568   3.553 -0.1716 -1.1855  1.5107
  888MOL0     H17206   9.505   6.458   3.743  0.8645 -1.4029  3.4801
  888MOL0     H17207   9.668   6.445   3.688 -0.4094 -1.7512 -3.4370
  888MOL0     H17208   9.540   6.198   3.835  0.4927  1.3688  2.1037
  888MOL0     H17209   9.702   6.241   3.819 -0.1695 -1.4042 -0.8038
  888MOL0     H17210   9.605   6.266   4.049 -0.8584  1.1740  0.7024
  888MOL0     H17211   9.482   6.362   3.994 -2.0140 -4.0327 -3.4589
  888MOL0     H17212   9.676   6.538   3.940  3.3245  1.1953 -0.2761
  888MOL0     H17213   9.694   6.503   4.104  2.4758 -1.3748  0.3853
  888MOL0     H17214  10.026   6.274   3.980  0.6502  1.4537  2.5387
  888MOL0     H17215   9.555   6.196   3.368  2.1457  0.2724 -0.3908
  888MOL0     H17216   9.491   6.284   3.151 -1.2006 -0.2022  0.5091
  889MOL0     O17217  10.497   8.279  10.151 -0.3367 -0.1049 -0.0469
  889MOL0     C17218  10.542   8.169  10.127  0.9001  0.1655  0.2534
  889MOL0     O17219  10.636   8.094  10.193 -0.7940 -0.0203  0.3031
  889MOL0     C17220  10.711   8.141  10.300  1.2269  0.3633  0.5807
  889MOL0     C17221  10.709   8.256  10.372  0.8524 -0.2070 -0.1324
  889MOL0     C17222  10.794   8.286  10.470  0.9815  0.1758  0.6137
  889MOL0     C17223  10.895   8.195  10.497 -0.1835 -0.9293  0.4071
  889MOL0     O17224  10.998   8.214  10.579 -0.6906 -0.4259 -0.6331
  889MOL0     C17225  11.004   8.327  10.679 -0.4353  0.2616 -0.4618
  889MOL0     C17226  11.144   8.330  10.744  0.4406 -0.0155 -0.1359
  889MOL0     C17227  11.248   8.345  10.627  0.6877  0.0838 -0.8552
  889MOL0     C17228  11.386   8.338  10.687 -1.0649  0.4987 -0.1834
  889MOL0     C17229  11.494   8.298  10.576 -0.1852 -0.1715  0.4064
  889MOL0     C17230  11.468   8.361  10.441  0.0639  0.4025 -0.2171
  889MOL0     C17231  11.494   8.509  10.434  0.2978  0.0895 -0.0627
  889MOL0     C17232  11.638   8.552  10.405 -0.0975 -0.4631 -0.0085
  889MOL0     N17233  11.651   8.683  10.474  0.4797  0.0908 -0.1891
  889MOL0     C17234  11.659   8.711  10.609  0.3438 -0.1803 -1.2215
  889MOL0     C17235  11.693   8.845  10.609  0.0278  0.8207 -0.5747
  889MOL0     C17236  11.749   8.923  10.729 -0.7096  0.5437 -0.3081
  889MOL0     C17237  11.888   8.885  10.770 -0.2261  0.0681 -0.7544
  889MOL0     C17238  11.993   8.915  10.666  0.3747  0.4816 -0.1851
  889MOL0     C17239  12.135   8.898  10.727  0.6121 -0.1431 -0.2475
  889MOL0     O17240  12.165   9.015  10.806 -0.0494 -0.0144 -0.0412
  889MOL0     C17241  12.296   9.065  10.795  0.3540  0.2344  0.0701
  889MOL0     C17242  12.415   8.997  10.768  0.2224 -0.2659  0.1191
  889MOL0     C17243  12.542   9.063  10.758 -0.1304  0.1047 -0.4688
  889MOL0     C17244  12.546   9.198  10.793 -0.1554 -0.6775  0.4001
  889MOL0     C17245  12.684   9.276  10.798  0.3223  0.0601 -0.7837
  889MOL0     O17246  12.786   9.209  10.857 -0.8248  0.5449  0.2377
  889MOL0     C17247  12.906   9.267  10.853  0.8847  0.4857  0.3060
  889MOL0     C17248  12.995   9.232  10.753  0.5483  0.8018 -0.8114
  889MOL0     C17249  13.121   9.289  10.736  0.2545 -0.6312 -0.0272
  889MOL0     C17250  13.162   9.392  10.821  0.2477  0.8584 -0.5351
  889MOL0     O17251  13.286   9.438  10.790  0.6248  0.5857  0.1214
  889MOL0     C17252  13.323   9.571  10.819  0.4809  0.3663 -0.3633
  889MOL0     C17253  13.464   9.613  10.771  1.0998  0.3303  0.3668
  889MOL0     C17254  13.446   9.717  10.658 -0.1755  0.1504 -1.0174
  889MOL0     C17255  13.584   9.792  10.625  0.0938  0.5247 -0.1493
  889MOL0     C17256  13.561   9.929  10.570  0.2638 -0.5401 -0.2091
  889MOL0     C17257  13.489   9.931  10.439  0.4828  0.3345 -0.2903
  889MOL0     C17258  13.452  10.069  10.377  0.2197 -0.0084  0.8001
  889MOL0     C17259  13.325  10.133  10.458  0.4562  0.7440  0.6307
  889MOL0    Cl17260  13.271  10.284  10.382  0.2523 -0.3570  0.3209
  889MOL0     C17261  13.072   9.438  10.921 -1.5859  0.4095  0.1966
  889MOL0     C17262  12.947   9.368  10.947  0.5722 -0.4917 -0.0090
  889MOL0     O17263  12.680   9.399  10.780  0.7792 -0.8946  0.4585
  889MOL0     C17264  12.432   9.267  10.812 -0.8099 -0.2500  0.1663
  889MOL0     C17265  12.302   9.204  10.811  0.3906  0.0103 -0.4627
  889MOL0     N17266  11.701   8.889  10.479  0.0860  0.7867 -0.5957
  889MOL0     N17267  11.682   8.790  10.402 -0.7131 -0.0382  0.8495
  889MOL0     C17268  10.892   8.076  10.433 -1.0499  0.4672 -0.1285
  889MOL0     C17269  10.812   8.055  10.330 -0.0344 -0.0831 -1.2553
  889MOL0     C17270  10.484   8.097  10.014  0.5926  0.0412  1.7334
  889MOL0     C17271  10.558   7.994   9.944  0.3358 -0.9077  0.3929
  889MOL0     C17272  10.513   7.947   9.817  0.2936  0.2167 -0.2226
  889MOL0     C17273  10.387   7.988   9.761  0.0901 -0.2710 -1.2182
  889MOL0     O17274  10.340   7.956   9.639  0.2941  0.0440  0.5868
  889MOL0     C17275  10.376   7.820   9.598 -0.3488 -1.3711  0.2874
  889MOL0     C17276  10.303   7.771   9.471 -0.3115  0.4903 -0.2680
  889MOL0     C17277  10.178   7.697   9.515  0.3266 -0.1504 -0.3897
  889MOL0     C17278  10.084   7.662   9.407  1.6687 -0.0447 -0.4676
  889MOL0     C17279  10.132   7.567   9.310 -0.4945  0.7566  0.1578
  889MOL0     C17280  10.187   7.504   9.215  1.1222 -0.7480  0.7311
  889MOL0     C17281  10.321   8.089   9.831  0.0514  0.3027  0.3081
  889MOL0     C17282  10.366   8.147   9.949 -0.6294  0.2321  0.8668
  889MOL0     H17283  10.636   8.335  10.358  1.2781  0.0933 -0.6943
  889MOL0     H17284  10.780   8.384  10.513 -1.7194 -0.2741  0.9326
  889MOL0     H17285  10.933   8.328  10.763 -1.1757  2.9564 -1.0331
  889MOL0     H17286  10.985   8.419  10.624  1.2031  1.3019  0.6329
  889MOL0     H17287  11.169   8.241  10.802 -1.1278 -1.3244 -1.3729
  889MOL0     H17288  11.154   8.413  10.815  1.5271  0.2579 -0.5962
  889MOL0     H17289  11.227   8.439  10.574  0.0341  0.8782  0.7510
  889MOL0     H17290  11.239   8.250  10.573 -0.5558 -1.2080  1.4653
  889MOL0     H17291  11.409   8.438  10.726  0.7646 -0.2795  0.8255
  889MOL0     H17292  11.388   8.259  10.762  2.0594 -0.0950 -0.7856
  889MOL0     H17293  11.510   8.191  10.557  0.5909  0.0060  0.0148
  889MOL0     H17294  11.596   8.325  10.606  0.1330 -0.2574 -0.5756
  889MOL0     H17295  11.365   8.354  10.403 -0.2709 -3.0761  0.9069
  889MOL0     H17296  11.523   8.300  10.368  2.4105 -0.6916  2.3010
  889MOL0     H17297  11.418   8.549  10.365  0.5060 -3.5001 -2.6321
  889MOL0     H17298  11.471   8.541  10.537  0.3911 -1.4962  0.4708
  889MOL0     H17299  11.662   8.560  10.298 -2.8710  0.9555 -0.6176
  889MOL0     H17300  11.713   8.485  10.449 -0.6396 -0.9056  0.2516
  889MOL0     H17301  11.667   8.649  10.697  3.8673  2.3264  0.4820
  889MOL0     H17302  11.678   8.897  10.808  0.3117 -2.4749 -0.2809
  889MOL0     H17303  11.733   9.027  10.699  0.7076  1.5171  2.0381
  889MOL0     H17304  11.895   8.780  10.800  1.8167 -0.4859 -2.8809
  889MOL0     H17305  11.910   8.946  10.859  0.4034 -0.5069 -0.5037
  889MOL0     H17306  11.981   8.848  10.581  1.4392 -1.1826  0.9300
  889MOL0     H17307  11.973   9.018  10.633 -2.5051  0.0157 -0.1608
  889MOL0     H17308  12.216   8.887  10.655  3.1483 -0.3331  2.4503
  889MOL0     H17309  12.146   8.804  10.780 -0.9975 -1.0825 -1.4914
  889MOL0     H17310  12.426   8.890  10.754  5.5527  0.3258 -2.9734
  889MOL0     H17311  12.632   9.007  10.732  0.1642  0.1867  0.3681
  889MOL0     H17312  12.955   9.169  10.674  1.8113 -2.5458  1.0458
  889MOL0     H17313  13.187   9.247  10.661  0.3419 -2.1706  0.8542
  889MOL0     H17314  13.310   9.584  10.927 -0.4738 -1.0760 -0.2765
  889MOL0     H17315  13.245   9.633  10.774  2.7836  3.2094 -0.7453
  889MOL0     H17316  13.520   9.536  10.716  0.9003  1.0693 -0.9133
  889MOL0     H17317  13.515   9.641  10.864 -1.1638 -1.2853  2.2313
  889MOL0     H17318  13.384   9.797  10.700  0.0626 -0.8064  1.2421
  889MOL0     H17319  13.390   9.680  10.572 -0.8509 -0.0309 -0.5089
  889MOL0     H17320  13.648   9.797  10.714  0.2390 -1.5326 -0.0790
  889MOL0     H17321  13.633   9.719  10.560  0.1592  0.1987  0.2592
  889MOL0     H17322  13.648   9.996  10.564 -1.5125  1.8293 -1.0114
  889MOL0     H17323  13.490   9.983  10.633 -1.7326 -0.8177 -2.0795
  889MOL0     H17324  13.392   9.880  10.435  0.3200  0.6606 -0.5967
  889MOL0     H17325  13.545   9.865  10.373  1.5007 -1.4162  2.1731
  889MOL0     H17326  13.535  10.139  10.388 -0.0860  0.4537  0.2123
  889MOL0     H17327  13.416  10.053  10.275  2.4311 -2.3211  0.2916
  889MOL0     H17328  13.351  10.157  10.562  0.6362 -0.2747  0.8301
  889MOL0     H17329  13.251  10.054  10.445  2.8272 -1.3164 -1.1816
  889MOL0     H17330  13.091   9.530  10.975 -0.6518  1.6229 -2.0836
  889MOL0     H17331  12.880   9.401  11.026  2.8009  0.9528  1.3599
  889MOL0     H17332  12.433   9.374  10.826 -2.6076 -0.2701  0.7134
  889MOL0     H17333  12.213   9.265  10.821 -3.9991 -5.8415  1.2564
  889MOL0     H17334  10.967   8.002  10.460 -0.9020  0.0837 -1.4978
  889MOL0     H17335  10.813   7.962  10.275  1.7841 -0.7296 -0.2289
  889MOL0     H17336  10.655   7.961   9.980 -0.2882  0.1057  3.2980
  889MOL0     H17337  10.580   7.888   9.755  1.3483  2.0116 -0.8748
  889MOL0     H17338  10.359   7.748   9.679 -1.1364  0.7614  2.1339
  889MOL0     H17339  10.482   7.823   9.571 -0.0081 -0.9877  1.6144
  889MOL0     H17340  10.283   7.852   9.400  1.3815 -1.2452 -2.9045
  889MOL0     H17341  10.359   7.690   9.425 -1.0784 -0.7314  0.8615
  889MOL0     H17342  10.117   7.759   9.581  0.4556  0.0946 -0.5001
  889MOL0     H17343  10.205   7.605   9.569 -4.1659 -0.1979  2.2524
  889MOL0     H17344   9.984   7.632   9.439  1.0040  0.7537 -1.7122
  889MOL0     H17345  10.070   7.752   9.347  0.6515  0.5989  0.6961
  889MOL0     H17346  10.232   7.475   9.122  1.5294  1.1493  0.2913
  889MOL0     H17347  10.232   8.145   9.802 -1.6541 -1.1062  2.4509
  889MOL0     H17348  10.317   8.234   9.993 -1.0019 -0.4938  1.9210
  890MOL0     O17349   1.212   1.410   3.975 -0.8377 -0.5558  0.4265
  890MOL0     C17350   1.127   1.503   3.971  0.4556  1.5643  0.6661
  890MOL0     O17351   1.017   1.511   3.886 -0.2059 -0.0575  0.4453
  890MOL0     C17352   0.999   1.425   3.776 -0.9284 -0.6464 -0.3357
  890MOL0     C17353   1.099   1.346   3.712  0.9693 -0.6696 -0.7387
  890MOL0     C17354   1.051   1.246   3.619  0.3289 -1.0421 -0.1013
  890MOL0     C17355   0.913   1.221   3.595 -0.3857 -0.9746 -1.1851
  890MOL0     O17356   0.870   1.119   3.508  0.1400  0.4817  1.0389
  890MOL0     C17357   0.959   1.015   3.453  0.6307 -0.4187  0.0191
  890MOL0     C17358   0.883   0.910   3.362  0.3676  0.2209 -0.2041
  890MOL0     C17359   0.983   0.823   3.279 -0.8532 -0.9696  0.1447
  890MOL0     C17360   0.889   0.738   3.178 -0.3079  0.6918  0.0532
  890MOL0     C17361   0.974   0.658   3.087  0.2192 -0.3387 -0.0333
  890MOL0     C17362   1.053   0.546   3.161 -0.6162 -0.0692  0.4053
  890MOL0     C17363   1.124   0.474   3.044 -0.0111 -0.3590  0.7998
  890MOL0     C17364   1.198   0.350   3.103  0.8378  0.2732 -0.0818
  890MOL0     N17365   1.295   0.354   3.208  0.0187  0.0784 -0.0514
  890MOL0     C17366   1.283   0.391   3.338 -0.6781  0.2563  0.4527
  890MOL0     C17367   1.403   0.372   3.398  0.0942  1.4959 -0.2383
  890MOL0     C17368   1.448   0.385   3.550  0.8580  0.3277 -0.3180
  890MOL0     C17369   1.346   0.452   3.640  0.5358 -0.1157 -0.0731
  890MOL0     C17370   1.332   0.605   3.596 -1.0719  0.1700  0.6112
  890MOL0     C17371   1.185   0.661   3.610 -0.8865 -0.1230  0.3639
  890MOL0     O17372   1.195   0.806   3.635 -0.2706 -0.0078 -0.5124
  890MOL0     C17373   1.185   0.838   3.771  0.3679 -0.4245  0.7525
  890MOL0     C17374   1.124   0.959   3.792  0.4181  0.0078 -0.6119
  890MOL0     C17375   1.110   1.001   3.930  0.5808  0.0955 -0.6264
  890MOL0     C17376   1.154   0.928   4.039  0.3340 -1.2233  0.0610
  890MOL0     C17377   1.136   0.974   4.177  0.0390 -0.5441  0.5779
  890MOL0     O17378   1.108   1.109   4.181  0.1663  0.9999 -0.3352
  890MOL0     C17379   1.117   1.175   4.308  0.5407  0.0624  0.0686
  890MOL0     C17380   1.157   1.308   4.297  0.2579 -0.0768  0.8357
  890MOL0     C17381   1.173   1.389   4.412  0.3973  1.3894  0.3720
  890MOL0     C17382   1.177   1.331   4.543 -1.0472  0.5140  0.4166
  890MOL0     O17383   1.231   1.389   4.650  0.8379  0.0932 -0.1595
  890MOL0     C17384   1.363   1.461   4.638 -0.0557  0.0369 -0.2210
  890MOL0     C17385   1.422   1.481   4.786 -0.1284  0.3941  0.1432
  890MOL0     C17386   1.505   1.600   4.796 -0.5093 -0.0116 -0.4240
  890MOL0     C17387   1.549   1.612   4.941 -0.6668  0.6857  0.3317
  890MOL0     C17388   1.629   1.733   4.969 -0.3435  0.9999 -0.4172
  890MOL0     C17389   1.664   1.743   5.116  0.0771  1.0138 -0.2038
  890MOL0     C17390   1.779   1.835   5.124  0.3553  0.2868  0.3948
  890MOL0     C17391   1.849   1.843   5.269  0.9442 -0.4199 -0.6645
  890MOL0    Cl17392   1.742   1.860   5.407  0.0481 -0.0268 -0.3405
  890MOL0     C17393   1.141   1.195   4.549 -0.7248 -0.7452 -0.2941
  890MOL0     C17394   1.106   1.125   4.437  0.3300  0.4568 -0.4232
  890MOL0     O17395   1.169   0.899   4.270  0.4039  0.3527 -0.1932
  890MOL0     C17396   1.217   0.804   3.999  0.4058  0.1528 -0.4409
  890MOL0     C17397   1.241   0.771   3.872 -0.6052  1.1562 -0.2074
  890MOL0     N17398   1.492   0.321   3.304 -0.7672 -0.2964  0.8581
  890MOL0     N17399   1.426   0.318   3.188  0.2446 -0.8623  0.0588
  890MOL0     C17400   0.823   1.314   3.647  0.8286 -0.1462 -0.3541
  890MOL0     C17401   0.869   1.411   3.740 -0.2591  1.3295 -1.1136
  890MOL0     C17402   1.137   1.614   4.071 -0.3663 -0.2421 -0.0982
  890MOL0     C17403   1.249   1.640   4.144  0.1705 -0.4411 -0.4952
  890MOL0     C17404   1.265   1.755   4.224 -0.3494  1.3334 -0.3277
  890MOL0     C17405   1.159   1.842   4.243 -0.4730 -0.3072  0.5874
  890MOL0     O17406   1.169   1.937   4.351 -0.1210 -0.3386 -0.0300
  890MOL0     C17407   1.070   2.032   4.366  0.0850  0.8100 -0.2602
  890MOL0     C17408   1.095   2.112   4.491 -0.4839  0.0991  0.3851
  890MOL0     C17409   0.976   2.192   4.538 -0.7585 -0.4187  0.5131
  890MOL0     C17410   1.011   2.296   4.643 -0.1845 -0.0093 -0.3229
  890MOL0     C17411   1.055   2.232   4.769  0.7326 -0.3582  0.4049
  890MOL0     C17412   1.072   2.209   4.887 -0.4878  0.1318  0.9699
  890MOL0     C17413   1.041   1.818   4.171  0.4235  0.7116  1.0873
  890MOL0     C17414   1.024   1.703   4.092  0.6268 -1.0677  1.4396
  890MOL0     H17415   1.204   1.359   3.735  0.9823  1.6853 -1.8901
  890MOL0     H17416   1.117   1.186   3.556 -0.5240 -1.5180 -0.5662
  890MOL0     H17417   1.009   0.954   3.528  1.2645 -2.6226 -2.0569
  890MOL0     H17418   1.037   1.053   3.386  0.7167 -0.3231  0.1731
  890MOL0     H17419   0.827   0.972   3.292  3.1566  0.6262 -2.2602
  890MOL0     H17420   0.816   0.854   3.428  0.4713  0.6835  0.3022
  890MOL0     H17421   1.050   0.777   3.352  3.2644  2.6361 -0.9828
  890MOL0     H17422   1.043   0.880   3.208 -0.7605  0.1526  1.0896
  890MOL0     H17423   0.810   0.679   3.225  0.6979  0.0854  1.0164
  890MOL0     H17424   0.839   0.817   3.121 -4.6747 -2.2828 -0.6960
  890MOL0     H17425   1.041   0.713   3.020 -1.3854 -0.3260 -1.7251
  890MOL0     H17426   0.903   0.603   3.024 -1.7675  1.3717  0.6029
  890MOL0     H17427   1.007   0.466   3.220  2.5285 -1.7021  0.8841
  890MOL0     H17428   1.132   0.596   3.217  0.3045  0.1563 -1.0251
  890MOL0     H17429   1.053   0.434   2.971 -2.2840  0.9659  2.1554
  890MOL0     H17430   1.186   0.546   2.990  0.8709 -2.6529 -1.4223
  890MOL0     H17431   1.248   0.308   3.015  0.3492  0.2986 -0.3796
  890MOL0     H17432   1.123   0.279   3.138  0.1840  0.1673 -1.6161
  890MOL0     H17433   1.186   0.424   3.375 -1.6508 -2.9134  0.9874
  890MOL0     H17434   1.543   0.437   3.538 -0.2704  2.0579 -2.3369
  890MOL0     H17435   1.455   0.279   3.575  1.8782  0.9096  2.2413
  890MOL0     H17436   1.383   0.452   3.743 -0.5078  1.3087  0.3315
  890MOL0     H17437   1.253   0.397   3.656  1.5612 -1.1672  2.9085
  890MOL0     H17438   1.405   0.659   3.657  0.1451 -1.5495  0.7515
  890MOL0     H17439   1.357   0.619   3.490 -0.1899 -0.3424  0.7386
  890MOL0     H17440   1.126   0.610   3.688  1.2378 -2.0211  0.8527
  890MOL0     H17441   1.135   0.640   3.515  6.3721  2.2042 -4.8520
  890MOL0     H17442   1.067   1.000   3.709  0.3183 -0.8085 -0.9504
  890MOL0     H17443   1.058   1.093   3.954 -0.3361 -0.6582  0.3595
  890MOL0     H17444   1.172   1.360   4.203 -2.1331  1.7145  1.3500
  890MOL0     H17445   1.205   1.493   4.409  1.1572  1.1471 -0.1808
  890MOL0     H17446   1.345   1.561   4.596 -0.4237  0.3249  0.5980
  890MOL0     H17447   1.429   1.402   4.574  0.9081  0.8679 -0.0174
  890MOL0     H17448   1.477   1.392   4.816  0.6658  1.8247  3.4248
  890MOL0     H17449   1.340   1.493   4.857  0.5291 -1.6946  1.3572
  890MOL0     H17450   1.454   1.691   4.763  1.1446 -0.2696 -4.2819
  890MOL0     H17451   1.585   1.591   4.721  0.4027  1.0882  0.3769
  890MOL0     H17452   1.455   1.622   4.998 -0.8488  0.9414 -0.0107
  890MOL0     H17453   1.608   1.528   4.978  0.5281  1.9369  1.3500
  890MOL0     H17454   1.587   1.820   4.918 -2.8141 -1.1504 -2.3486
  890MOL0     H17455   1.723   1.706   4.920  1.7111 -2.8439  4.6922
  890MOL0     H17456   1.677   1.639   5.145 -2.6951  0.4518 -0.6414
  890MOL0     H17457   1.578   1.774   5.177 -2.2158 -1.4655 -1.9031
  890MOL0     H17458   1.863   1.810   5.059 -0.0926 -1.5765  0.4566
  890MOL0     H17459   1.734   1.926   5.085  1.5322  0.8500  0.3210
  890MOL0     H17460   1.928   1.918   5.271  1.2214 -0.7259 -0.1471
  890MOL0     H17461   1.905   1.749   5.274 -2.2427 -2.5130 -1.1372
  890MOL0     H17462   1.135   1.148   4.647  0.0093  0.6548  0.4460
  890MOL0     H17463   1.061   1.028   4.453 -0.3309  0.6209 -1.2501
  890MOL0     H17464   1.260   0.736   4.071 -1.8781 -1.3772 -0.4222
  890MOL0     H17465   1.287   0.674   3.855  1.5535  2.3862 -1.9955
  890MOL0     H17466   0.717   1.297   3.630  0.8402 -1.0818  0.4082
  890MOL0     H17467   0.793   1.464   3.798  0.8794 -0.9948  2.9249
  890MOL0     H17468   1.343   1.586   4.144  0.1275 -0.6717  2.5832
  890MOL0     H17469   1.355   1.759   4.285 -0.6098  0.1944  0.1658
  890MOL0     H17470   0.974   1.986   4.391  0.2912  1.2026  1.3563
  890MOL0     H17471   1.060   2.098   4.279 -1.1983 -1.0032 -1.5637
  890MOL0     H17472   1.129   2.061   4.581 -3.0535 -0.5538  1.0537
  890MOL0     H17473   1.181   2.176   4.468  0.3184 -0.7733  0.9031
  890MOL0     H17474   0.915   2.113   4.583  2.1681 -3.0760  0.1293
  890MOL0     H17475   0.917   2.237   4.458  1.8155  1.0745 -0.6586
  890MOL0     H17476   1.099   2.346   4.601  0.5524 -0.6009  0.4864
  890MOL0     H17477   0.935   2.371   4.663  0.4434  0.5511 -0.0197
  890MOL0     H17478   1.087   2.177   4.988 -2.5891 -2.2940  0.6312
  890MOL0     H17479   0.951   1.879   4.173 -0.7978 -0.6428 -2.6355
  890MOL0     H17480   0.921   1.700   4.057  0.8989 -1.2741  0.6353
  891MOL0     O17481   4.581  11.273   0.467 -0.4087  0.5256  0.1330
  891MOL0     C17482   4.660  11.349   0.509  0.1441 -0.0985 -0.0541
  891MOL0     O17483   4.792  11.354   0.490 -0.7052  0.0241 -0.0642
  891MOL0     C17484   4.849  11.255   0.420  0.0101  0.4373  0.1105
  891MOL0     C17485   4.831  11.223   0.284 -0.5060  0.6703  0.1572
  891MOL0     C17486   4.895  11.110   0.221  0.3614 -0.5368  0.4581
  891MOL0     C17487   4.976  11.033   0.288  0.2075 -0.0307  0.2046
  891MOL0     O17488   5.036  10.929   0.215  0.4012  0.4487 -0.1649
  891MOL0     C17489   5.175  10.894   0.258 -0.4458 -0.2484 -0.2442
  891MOL0     C17490   5.169  10.739   0.302 -0.2711  0.1428 -0.0174
  891MOL0     C17491   5.285  10.697   0.390 -0.5868 -0.4578 -0.8173
  891MOL0     C17492   5.415  10.688   0.320  0.0061  0.6038  0.6429
  891MOL0     C17493   5.528  10.636   0.419  0.2985 -0.7181  0.2872
  891MOL0     C17494   5.529  10.491   0.452  0.3975  0.0296 -0.7656
  891MOL0     C17495   5.637  10.457   0.559 -0.5809 -0.3595  0.6441
  891MOL0     C17496   5.776  10.525   0.543 -0.0395 -0.6166  1.2127
  891MOL0     N17497   5.875  10.436   0.473  0.4619 -0.6066 -0.7928
  891MOL0     C17498   5.984  10.369   0.532 -0.4566 -1.3917 -0.2363
  891MOL0     C17499   6.064  10.347   0.425 -0.1664 -0.6807 -0.2452
  891MOL0     C17500   6.205  10.284   0.416  0.0194 -0.6208  0.8438
  891MOL0     C17501   6.321  10.381   0.400  0.1965  0.5621  0.4075
  891MOL0     C17502   6.341  10.491   0.511 -0.3646 -0.2896 -0.1320
  891MOL0     C17503   6.415  10.609   0.451 -0.3071 -0.1622 -0.1295
  891MOL0     O17504   6.554  10.582   0.442 -0.3193 -0.0861 -0.6529
  891MOL0     C17505   6.636  10.673   0.373 -0.2036  0.3151 -0.4950
  891MOL0     C17506   6.760  10.698   0.424 -0.1319 -0.6048 -0.7183
  891MOL0     C17507   6.843  10.803   0.363  0.1947  0.7384 -0.6051
  891MOL0     C17508   6.799  10.878   0.257  0.3766 -0.2782  0.5174
  891MOL0     C17509   6.881  10.993   0.200 -0.2374  0.9020  0.0325
  891MOL0     O17510   6.992  11.029   0.258 -0.4106  0.6606  0.3668
  891MOL0     C17511   7.090  11.094   0.180  0.0259 -0.8426 -0.9264
  891MOL0     C17512   7.119  11.088   0.039 -1.1350  2.1083  0.5035
  891MOL0     C17513   7.227  11.159  -0.012 -1.0127 -0.0367 -0.7261
  891MOL0     C17514   7.304  11.239   0.075 -0.5295 -0.7844 -0.4800
  891MOL0     O17515   7.424  11.310   0.042  0.0936  0.9058 -0.1787
  891MOL0     C17516   7.465  11.292  -0.089  0.8404  0.2596 -0.4373
  891MOL0     C17517   7.604  11.358  -0.128  0.3675 -0.8618 -0.2597
  891MOL0     C17518   7.600  11.507  -0.083  0.0752  0.1755  0.5211
  891MOL0     C17519   7.725  11.584  -0.115  0.1191 -0.2538 -1.3650
  891MOL0     C17520   7.703  11.727  -0.062 -0.3240  0.2250 -0.0723
  891MOL0     C17521   7.842  11.794  -0.075  0.3363  0.0321  0.5890
  891MOL0     C17522   7.815  11.952  -0.066 -0.2008  0.8222 -0.0413
  891MOL0     C17523   7.946  12.031  -0.068  0.0453  0.2411  0.1055
  891MOL0    Cl17524   8.007  12.053  -0.233  0.2856  0.1261 -0.1982
  891MOL0     C17525   7.263  11.258   0.210 -0.2921 -0.0090 -0.6585
  891MOL0     C17526   7.161  11.180   0.259 -0.6106 -0.3212 -0.6023
  891MOL0     O17527   6.830  11.048   0.107 -0.2456  0.0212 -0.9749
  891MOL0     C17528   6.676  10.840   0.207  1.1321 -0.2692 -0.1208
  891MOL0     C17529   6.595  10.735   0.252 -0.2972 -0.5596 -0.8277
  891MOL0     N17530   6.015  10.412   0.313  0.0718 -0.2570  0.2375
  891MOL0     N17531   5.907  10.471   0.344 -0.1671  0.0361  0.2052
  891MOL0     C17532   4.985  11.054   0.426  0.0493  0.1338 -0.2383
  891MOL0     C17533   4.930  11.170   0.488  0.2892  0.3246 -0.5460
  891MOL0     C17534   4.605  11.463   0.593 -0.7843 -0.4105 -0.4211
  891MOL0     C17535   4.700  11.530   0.669  0.5917 -0.4495 -0.6913
  891MOL0     C17536   4.650  11.632   0.751  0.1327  0.2108 -0.7769
  891MOL0     C17537   4.516  11.680   0.740  0.4344  1.0767  0.7495
  891MOL0     O17538   4.491  11.790   0.822 -0.5944 -0.9804 -0.2419
  891MOL0     C17539   4.362  11.842   0.828  0.4367 -0.4245  0.3932
  891MOL0     C17540   4.340  11.955   0.932 -0.6746  0.4252  0.6651
  891MOL0     C17541   4.311  11.899   1.073 -0.4680  0.3111 -0.4740
  891MOL0     C17542   4.170  11.910   1.125  0.2500 -0.1039  0.2478
  891MOL0     C17543   4.130  12.054   1.132 -0.2022 -0.2676 -0.4145
  891MOL0     C17544   4.097  12.171   1.143 -0.3760 -0.1534  0.4638
  891MOL0     C17545   4.423  11.610   0.657 -0.6513 -0.0164  0.4980
  891MOL0     C17546   4.466  11.501   0.589 -0.7374  0.2392  0.2415
  891MOL0     H17547   4.770  11.299   0.236  5.1070  5.5802 -0.3680
  891MOL0     H17548   4.876  11.079   0.118 -2.5489 -3.5375  1.7328
  891MOL0     H17549   5.214  10.961   0.334  3.0120 -0.5319 -1.5890
  891MOL0     H17550   5.236  10.907   0.168 -2.4700 -0.4621 -1.7263
  891MOL0     H17551   5.158  10.678   0.212 -0.8457 -0.3022  0.3458
  891MOL0     H17552   5.071  10.725   0.348 -1.9464  0.9460 -3.0583
  891MOL0     H17553   5.272  10.602   0.444 -0.0324 -0.8416 -1.3585
  891MOL0     H17554   5.293  10.777   0.464  0.1882 -0.2280 -1.1485
  891MOL0     H17555   5.406  10.615   0.239  0.6442  1.8664 -0.5939
  891MOL0     H17556   5.440  10.784   0.275 -2.7896  1.4058  0.6400
  891MOL0     H17557   5.519  10.697   0.509  2.0854 -0.2438  0.1926
  891MOL0     H17558   5.619  10.662   0.364 -1.9311  0.9284 -2.9481
  891MOL0     H17559   5.561  10.440   0.360 -0.9475 -2.6401  0.1436
  891MOL0     H17560   5.436  10.442   0.482  0.6491 -2.4430 -3.5164
  891MOL0     H17561   5.601  10.472   0.661  2.2711 -2.6024  2.1268
  891MOL0     H17562   5.636  10.348   0.549  1.1506 -0.4688  1.3610
  891MOL0     H17563   5.814  10.543   0.644  1.9505  1.2910  0.1963
  891MOL0     H17564   5.773  10.624   0.499 -0.5075  0.0929  2.7601
  891MOL0     H17565   6.001  10.342   0.635 -2.1600  0.4085  0.5774
  891MOL0     H17566   6.218  10.232   0.321  3.3033  0.2158  0.7313
  891MOL0     H17567   6.231  10.229   0.507 -2.9694  0.8163  2.7202
  891MOL0     H17568   6.322  10.430   0.302  0.3506  2.4040  1.2901
  891MOL0     H17569   6.409  10.316   0.400  3.2104  4.2932  1.2597
  891MOL0     H17570   6.240  10.519   0.542 -0.2647  0.1646 -0.2071
  891MOL0     H17571   6.400  10.447   0.593 -1.6464  0.3464  1.1828
  891MOL0     H17572   6.402  10.694   0.520  1.5490 -0.4023  0.5511
  891MOL0     H17573   6.379  10.646   0.354  2.4303  0.9547 -0.8173
  891MOL0     H17574   6.788  10.651   0.518 -0.3723 -2.4086 -1.5034
  891MOL0     H17575   6.930  10.828   0.423 -0.0399 -3.1498  1.6672
  891MOL0     H17576   7.055  11.029  -0.025  0.1227  0.0067  1.1019
  891MOL0     H17577   7.240  11.161  -0.120  2.8554 -1.6503 -0.4397
  891MOL0     H17578   7.390  11.338  -0.155  0.3301 -1.1480 -0.8803
  891MOL0     H17579   7.458  11.189  -0.125 -1.9705  1.1159 -2.8351
  891MOL0     H17580   7.612  11.346  -0.236  0.0056  1.4020 -0.5853
  891MOL0     H17581   7.684  11.309  -0.072  2.5727  2.2776 -0.3939
  891MOL0     H17582   7.581  11.502   0.024 -1.7769 -0.1286  0.2040
  891MOL0     H17583   7.514  11.554  -0.133 -3.8102 -3.3584  3.2714
  891MOL0     H17584   7.812  11.545  -0.061  0.8483  1.0590 -1.5652
  891MOL0     H17585   7.741  11.577  -0.223 -0.3693 -2.0980 -1.3507
  891MOL0     H17586   7.676  11.727   0.044 -2.9802  1.8240 -0.6654
  891MOL0     H17587   7.621  11.773  -0.117 -0.5501 -0.2714 -0.1566
  891MOL0     H17588   7.887  11.778  -0.173 -0.5371  0.2971  0.1347
  891MOL0     H17589   7.913  11.749  -0.004  0.8234 -1.4597 -0.7920
  891MOL0     H17590   7.746  11.985  -0.144 -1.3415  0.8817  0.9742
  891MOL0     H17591   7.764  11.967   0.029 -1.7397 -3.5476  0.0907
  891MOL0     H17592   8.022  11.967  -0.021 -2.0902 -3.1924 -0.7956
  891MOL0     H17593   7.932  12.126  -0.016  1.9223  0.3062  0.5929
  891MOL0     H17594   7.305  11.336   0.272  2.0042  0.6809 -2.9234
  891MOL0     H17595   7.145  11.176   0.367 -1.8423  1.0045 -0.7176
  891MOL0     H17596   6.631  10.891   0.122  2.1144  0.6909 -0.0823
  891MOL0     H17597   6.492  10.728   0.219 -0.5430 -0.4325 -0.1085
  891MOL0     H17598   5.041  10.992   0.494  0.4931 -1.3754 -1.8897
  891MOL0     H17599   4.944  11.192   0.593  4.1799 -0.0652 -0.8178
  891MOL0     H17600   4.807  11.513   0.675  0.5021 -0.5954  0.9184
  891MOL0     H17601   4.706  11.686   0.827 -0.6277 -0.5406  0.3430
  891MOL0     H17602   4.294  11.756   0.840  0.9743 -0.7231  1.4032
  891MOL0     H17603   4.352  11.889   0.730  1.8680 -2.5859 -0.8828
  891MOL0     H17604   4.427  12.022   0.940 -0.0831  0.1144 -2.2302
  891MOL0     H17605   4.252  12.009   0.896 -2.7131 -0.2414  4.1509
  891MOL0     H17606   4.372  11.944   1.152 -1.5677  3.4114 -1.2517
  891MOL0     H17607   4.330  11.792   1.084 -1.7738 -0.0057 -1.0503
  891MOL0     H17608   4.102  11.845   1.070  0.2598 -1.1575  1.4440
  891MOL0     H17609   4.178  11.869   1.226  0.4625  2.0543  1.1715
  891MOL0     H17610   4.073  12.274   1.127  2.2546  0.0741 -3.3344
  891MOL0     H17611   4.320  11.642   0.644 -1.2762 -1.8732  0.5292
  891MOL0     H17612   4.402  11.440   0.526 -0.5157  0.2018  0.0510
  892MOL0     O17613   9.892   1.567   1.365  0.9601  0.2052  0.4701
  892MOL0     C17614   9.855   1.485   1.282 -0.2772 -0.1498  0.1076
  892MOL0     O17615   9.806   1.355   1.313 -0.1905  0.1310 -0.7192
  892MOL0     C17616   9.767   1.336   1.442 -0.9152  0.4504  0.8634
  892MOL0     C17617   9.671   1.413   1.503 -0.5243 -0.2895 -0.0341
  892MOL0     C17618   9.663   1.409   1.643  0.1267  0.5705  0.5911
  892MOL0     C17619   9.727   1.305   1.717  0.1407 -0.6233 -1.1900
  892MOL0     O17620   9.701   1.287   1.851  0.2689  0.0228 -0.1023
  892MOL0     C17621   9.571   1.236   1.861 -0.2045  0.6380 -0.2928
  892MOL0     C17622   9.532   1.230   2.010  0.7786  0.1962  0.7281
  892MOL0     C17623   9.481   1.368   2.069 -0.0386  0.2747  0.4912
  892MOL0     C17624   9.473   1.372   2.223 -0.5262 -0.5236 -0.6808
  892MOL0     C17625   9.451   1.514   2.276 -0.0911  0.0571 -0.0375
  892MOL0     C17626   9.564   1.623   2.286 -0.2018 -0.6502  0.0776
  892MOL0     C17627   9.508   1.759   2.322  1.0564 -0.8456 -0.1367
  892MOL0     C17628   9.610   1.876   2.324 -0.4474  0.4167  0.6438
  892MOL0     N17629   9.711   1.852   2.431  0.2245 -0.3930  0.3145
  892MOL0     C17630   9.834   1.790   2.412  0.2493 -0.1051 -0.1070
  892MOL0     C17631   9.898   1.815   2.529 -1.0001 -0.0757 -0.1438
  892MOL0     C17632  10.047   1.789   2.566  0.1690 -0.7105 -0.4740
  892MOL0     C17633  10.145   1.895   2.510  0.9397  0.5976 -0.3549
  892MOL0     C17634  10.096   2.042   2.503 -0.3470 -0.6231 -0.4310
  892MOL0     C17635  10.217   2.130   2.491 -0.0636 -0.5834 -0.5840
  892MOL0     O17636  10.267   2.148   2.628 -0.9451  0.7621 -0.3386
  892MOL0     C17637  10.388   2.213   2.636  0.7792 -0.5914 -0.4545
  892MOL0     C17638  10.454   2.215   2.759 -0.4347 -0.5345 -0.4661
  892MOL0     C17639  10.579   2.274   2.772  0.4439 -0.1034 -0.7594
  892MOL0     C17640  10.651   2.326   2.665  0.3009 -0.4516 -0.4532
  892MOL0     C17641  10.797   2.358   2.692 -0.1194 -0.2785 -0.6218
  892MOL0     O17642  10.860   2.350   2.815  0.1038  0.3239 -0.1791
  892MOL0     C17643  11.000   2.353   2.804  0.2697  0.0444  0.3277
  892MOL0     C17644  11.069   2.456   2.870 -1.2029  0.1825 -0.4830
  892MOL0     C17645  11.206   2.455   2.879 -0.0965 -0.0236 -0.2170
  892MOL0     C17646  11.277   2.349   2.826  0.0876  0.6547  0.7601
  892MOL0     O17647  11.414   2.341   2.816 -0.4117 -0.5305 -0.3844
  892MOL0     C17648  11.486   2.462   2.785  0.5157  0.0704 -1.6210
  892MOL0     C17649  11.634   2.443   2.776 -0.4647  0.0784 -0.0137
  892MOL0     C17650  11.687   2.419   2.923  0.3714 -0.1020  0.2420
  892MOL0     C17651  11.770   2.535   2.990  0.3841 -0.2130 -0.3319
  892MOL0     C17652  11.918   2.513   2.965 -0.1040  0.7760  0.8043
  892MOL0     C17653  11.996   2.492   3.083 -0.6726  1.1024  0.2296
  892MOL0     C17654  12.140   2.468   3.039  0.2009  0.2926 -0.0950
  892MOL0     C17655  12.227   2.410   3.150  0.3965 -0.8168 -0.9757
  892MOL0    Cl17656  12.185   2.224   3.166 -0.4110  0.1270 -0.0558
  892MOL0     C17657  11.207   2.236   2.768 -0.2099 -0.1088 -0.0953
  892MOL0     C17658  11.067   2.240   2.760  1.5696 -0.4978  0.0485
  892MOL0     O17659  10.856   2.386   2.586 -0.0429  0.3738 -0.1194
  892MOL0     C17660  10.577   2.342   2.545 -0.2353  0.0414 -0.0238
  892MOL0     C17661  10.450   2.282   2.530 -0.2714  1.0473 -0.0693
  892MOL0     N17662   9.816   1.887   2.612 -1.3097  0.9884 -0.1523
  892MOL0     N17663   9.702   1.905   2.548  0.6712 -1.2730  0.0397
  892MOL0     C17664   9.804   1.214   1.649  0.3250  0.3603  0.2648
  892MOL0     C17665   9.824   1.230   1.512 -0.6930  0.2706 -0.0163
  892MOL0     C17666   9.867   1.541   1.145  0.4566 -0.5911 -0.2106
  892MOL0     C17667   9.864   1.450   1.040  0.0992 -0.0422 -0.2440
  892MOL0     C17668   9.877   1.496   0.906  0.0922  1.2073 -0.4528
  892MOL0     C17669   9.886   1.634   0.874 -0.5164 -0.3658 -0.7958
  892MOL0     O17670   9.882   1.694   0.755 -0.0246 -0.2315  0.4034
  892MOL0     C17671   9.851   1.621   0.644  0.3057 -0.1699 -0.1356
  892MOL0     C17672   9.957   1.527   0.592 -0.6814 -0.2694 -0.2434
  892MOL0     C17673  10.071   1.626   0.570  0.3266  0.1409  0.6748
  892MOL0     C17674  10.162   1.575   0.462  0.7515  1.3139 -0.4966
  892MOL0     C17675  10.286   1.647   0.456  0.3847 -0.2281 -1.3802
  892MOL0     C17676  10.383   1.711   0.443  0.6365  0.4183 -0.8891
  892MOL0     C17677   9.883   1.730   0.987  0.5324 -0.2161  0.6554
  892MOL0     C17678   9.874   1.684   1.117  0.2510  1.5236 -0.1157
  892MOL0     H17679   9.610   1.479   1.443 -1.5342 -0.6608  0.5451
  892MOL0     H17680   9.592   1.469   1.699 -0.8962 -0.5055  0.4803
  892MOL0     H17681   9.563   1.138   1.813  0.3230  1.4226 -2.0684
  892MOL0     H17682   9.502   1.307   1.816  0.8229  0.2175 -2.7120
  892MOL0     H17683   9.623   1.187   2.052  2.4477  0.8698 -1.9564
  892MOL0     H17684   9.462   1.149   2.030  0.0195  0.5005 -0.5715
  892MOL0     H17685   9.380   1.385   2.031  0.2130 -1.2086 -0.9212
  892MOL0     H17686   9.545   1.451   2.036  1.4165 -1.3073 -0.8381
  892MOL0     H17687   9.399   1.302   2.262 -0.1790  1.5508  4.5081
  892MOL0     H17688   9.568   1.347   2.270  1.0750  2.3346 -2.1087
  892MOL0     H17689   9.410   1.514   2.378 -1.0618 -2.9015 -0.3249
  892MOL0     H17690   9.366   1.543   2.213 -0.3243 -0.6462 -0.0606
  892MOL0     H17691   9.609   1.642   2.188 -0.1123  2.6883  0.6519
  892MOL0     H17692   9.635   1.594   2.364 -2.5700  1.0618  3.0658
  892MOL0     H17693   9.433   1.794   2.251 -0.4528  1.1261  2.2717
  892MOL0     H17694   9.465   1.746   2.422  0.9415 -1.2018 -0.2294
  892MOL0     H17695   9.567   1.977   2.328  2.3241  1.7732 -1.1043
  892MOL0     H17696   9.671   1.888   2.234 -0.9866  2.3761  0.4956
  892MOL0     H17697   9.866   1.741   2.321  2.0764 -3.6837  2.1772
  892MOL0     H17698  10.073   1.693   2.522 -1.3026 -1.3330 -0.0542
  892MOL0     H17699  10.042   1.785   2.675 -1.9179 -0.9922 -0.5399
  892MOL0     H17700  10.161   1.860   2.408 -1.9221  1.4610 -1.2076
  892MOL0     H17701  10.239   1.876   2.562 -0.4709 -2.0064  1.4506
  892MOL0     H17702  10.035   2.066   2.416  1.0772 -0.7425 -1.4884
  892MOL0     H17703  10.039   2.086   2.586  0.2120  0.0397 -0.3908
  892MOL0     H17704  10.190   2.228   2.450 -0.9649 -0.2020  0.8606
  892MOL0     H17705  10.295   2.079   2.434  2.2559 -2.3322  3.7357
  892MOL0     H17706  10.416   2.151   2.838 -0.1187  0.0623  0.1782
  892MOL0     H17707  10.639   2.257   2.861  0.6890 -2.0350 -1.2518
  892MOL0     H17708  11.004   2.538   2.902  2.1400  2.2468  1.6822
  892MOL0     H17709  11.252   2.549   2.908 -0.6362  0.7216 -1.6647
  892MOL0     H17710  11.468   2.529   2.870  1.3164 -2.5837  0.8210
  892MOL0     H17711  11.449   2.519   2.700 -1.5104  0.4206 -0.5726
  892MOL0     H17712  11.690   2.530   2.740  2.3549 -1.8999 -0.8298
  892MOL0     H17713  11.659   2.357   2.713  1.4492  0.6760 -0.1484
  892MOL0     H17714  11.748   2.328   2.920  3.0226  1.5832 -0.3542
  892MOL0     H17715  11.607   2.410   2.997  1.2735  1.3351  1.4675
  892MOL0     H17716  11.720   2.619   2.942 -2.8093 -2.5501 -1.5077
  892MOL0     H17717  11.745   2.535   3.097  0.8395  0.2359 -0.2246
  892MOL0     H17718  11.958   2.604   2.920  2.1433 -0.5618 -0.0528
  892MOL0     H17719  11.923   2.428   2.895 -2.4319 -0.5799  2.1664
  892MOL0     H17720  11.958   2.401   3.131  0.6035  1.6445  2.4067
  892MOL0     H17721  11.999   2.581   3.146  0.0289 -0.5411  2.6728
  892MOL0     H17722  12.142   2.403   2.951 -2.4081 -0.9998  0.7284
  892MOL0     H17723  12.184   2.567   3.022  0.2765  0.1230 -0.9389
  892MOL0     H17724  12.211   2.455   3.249 -2.0727  1.4917 -2.2574
  892MOL0     H17725  12.333   2.420   3.128  0.3078  2.1649 -0.5050
  892MOL0     H17726  11.248   2.144   2.726 -1.2449 -0.4785 -0.3300
  892MOL0     H17727  11.004   2.157   2.728  0.8841  1.0785 -2.9962
  892MOL0     H17728  10.611   2.390   2.454 -0.8213  0.5984  0.0454
  892MOL0     H17729  10.403   2.303   2.435  0.3816  1.3417 -0.3296
  892MOL0     H17730   9.858   1.130   1.692 -1.9973 -2.2219 -1.4740
  892MOL0     H17731   9.888   1.169   1.450 -2.3950 -1.9925  0.3411
  892MOL0     H17732   9.842   1.344   1.054  0.6373 -0.1323 -0.0780
  892MOL0     H17733   9.873   1.418   0.830 -0.2659  1.5487 -0.7892
  892MOL0     H17734   9.811   1.677   0.558 -0.7770  0.2083  0.6034
  892MOL0     H17735   9.762   1.560   0.659 -0.2842 -0.2213 -3.1949
  892MOL0     H17736   9.993   1.454   0.665 -0.1046 -0.9524 -1.1989
  892MOL0     H17737   9.920   1.480   0.501 -1.4028  0.8184 -0.5400
  892MOL0     H17738  10.122   1.648   0.664  1.7266  0.4439 -0.1259
  892MOL0     H17739  10.036   1.720   0.527 -0.5740 -0.1152  0.8359
  892MOL0     H17740  10.198   1.475   0.488 -0.3340  0.0116 -3.4853
  892MOL0     H17741  10.107   1.574   0.367  1.1074  2.7444 -0.7350
  892MOL0     H17742  10.473   1.769   0.444 -0.7411  2.7143 -1.1925
  892MOL0     H17743   9.872   1.835   0.963 -2.1890  0.2252  3.2973
  892MOL0     H17744   9.845   1.760   1.189 -5.0624  0.5302 -0.8213
  893MOL0     O17745   3.599   7.337   8.269 -0.9574  0.5901  1.2127
  893MOL0     C17746   3.554   7.264   8.362 -0.3134 -0.7026 -0.1815
  893MOL0     O17747   3.509   7.324   8.477  0.9518  0.1094 -0.1420
  893MOL0     C17748   3.552   7.276   8.597  0.7261 -0.8757  0.6546
  893MOL0     C17749   3.461   7.253   8.707 -0.5375 -0.1021  0.8277
  893MOL0     C17750   3.511   7.207   8.830 -0.6306  0.3365  0.8384
  893MOL0     C17751   3.646   7.172   8.843  0.1154  0.7198  0.5063
  893MOL0     O17752   3.700   7.108   8.944 -0.1553  0.3009 -0.1993
  893MOL0     C17753   3.616   7.022   9.021  0.1035  0.2849  0.1085
  893MOL0     C17754   3.706   6.919   9.091  0.1799 -0.0562  0.1872
  893MOL0     C17755   3.624   6.828   9.168 -0.1730  0.2293 -0.4279
  893MOL0     C17756   3.663   6.683   9.171 -0.2009 -0.5482  0.5242
  893MOL0     C17757   3.812   6.665   9.197 -0.3856 -0.5845 -0.0447
  893MOL0     C17758   3.864   6.730   9.329  0.2316 -0.2177  0.1939
  893MOL0     C17759   4.015   6.712   9.342  1.6307  0.0946  0.1365
  893MOL0     C17760   4.060   6.750   9.487 -0.4149 -0.2730 -0.6004
  893MOL0     N17761   4.209   6.754   9.478  0.2148  1.4183 -0.1915
  893MOL0     C17762   4.300   6.648   9.499  0.0601  0.3625 -0.6750
  893MOL0     C17763   4.422   6.710   9.493 -0.0192  0.9645 -0.6079
  893MOL0     C17764   4.561   6.664   9.510  0.1087 -0.0227 -0.6534
  893MOL0     C17765   4.641   6.629   9.382  0.0556 -0.1285 -1.2525
  893MOL0     C17766   4.564   6.664   9.249  0.1992  0.0690 -0.7334
  893MOL0     C17767   4.642   6.655   9.124 -1.0117 -0.4726 -0.6772
  893MOL0     O17768   4.634   6.532   9.051 -0.3667  0.8664  0.0808
  893MOL0     C17769   4.684   6.512   8.923  0.1381 -0.1032 -0.3618
  893MOL0     C17770   4.614   6.428   8.827 -0.2867  1.1263  0.8502
  893MOL0     C17771   4.674   6.404   8.704  0.6896 -0.9526  0.3196
  893MOL0     C17772   4.786   6.483   8.653  0.5696  0.0929 -0.0714
  893MOL0     C17773   4.839   6.464   8.516 -0.9065  0.3176  0.4256
  893MOL0     O17774   4.935   6.551   8.481 -0.0108 -0.6723  0.1179
  893MOL0     C17775   4.959   6.553   8.348  0.5183 -0.1367  0.4739
  893MOL0     C17776   4.890   6.644   8.265 -0.6566  0.2188  0.0788
  893MOL0     C17777   4.912   6.640   8.127  0.6197 -0.5882 -0.6133
  893MOL0     C17778   4.991   6.538   8.060 -0.1629 -0.3184  0.5771
  893MOL0     O17779   4.982   6.541   7.925 -0.2256  0.3536 -0.0193
  893MOL0     C17780   5.052   6.438   7.855 -0.4479 -0.2668 -0.6593
  893MOL0     C17781   5.037   6.476   7.706  0.1081 -0.1846 -0.3529
  893MOL0     C17782   5.029   6.351   7.608  0.3147 -0.0316  0.2717
  893MOL0     C17783   4.896   6.343   7.534 -0.6870  0.5352  0.4112
  893MOL0     C17784   4.900   6.233   7.432  0.1173  0.9387 -0.4892
  893MOL0     C17785   4.766   6.202   7.375  0.3389  0.2126  0.5053
  893MOL0     C17786   4.780   6.097   7.263 -0.0497  1.2348  0.1204
  893MOL0     C17787   4.809   5.957   7.300  0.4550  0.4550  0.2219
  893MOL0    Cl17788   4.872   5.859   7.152 -0.0859  0.3851  0.0309
  893MOL0     C17789   5.050   6.445   8.145  0.2956 -0.1934  0.0529
  893MOL0     C17790   5.044   6.457   8.282  0.7675  1.0004  0.0574
  893MOL0     O17791   4.784   6.385   8.444  1.3864  0.2410 -0.0902
  893MOL0     C17792   4.845   6.569   8.749  0.1325 -0.7137 -0.3821
  893MOL0     C17793   4.797   6.583   8.877  0.2957 -0.5746  0.0194
  893MOL0     N17794   4.404   6.845   9.477  0.3034  0.5552  0.6701
  893MOL0     N17795   4.279   6.869   9.469 -0.0823 -0.5507  0.2576
  893MOL0     C17796   3.728   7.189   8.741 -0.5854 -0.8558  0.1887
  893MOL0     C17797   3.689   7.251   8.620 -0.0832 -1.3549 -0.1597
  893MOL0     C17798   3.578   7.118   8.342  0.5327  0.6781 -0.9183
  893MOL0     C17799   3.689   7.071   8.260  0.1749  0.6079 -0.4845
  893MOL0     C17800   3.702   6.928   8.240  0.0713  0.1964  0.0117
  893MOL0     C17801   3.614   6.836   8.291  0.4966 -0.5350  1.3783
  893MOL0     O17802   3.642   6.706   8.276 -0.6003 -0.5840 -0.7042
  893MOL0     C17803   3.728   6.654   8.373 -0.1143  0.2890 -1.0724
  893MOL0     C17804   3.861   6.588   8.315  0.4837  0.3341 -0.0850
  893MOL0     C17805   3.965   6.544   8.421 -0.1283 -0.0756  1.4136
  893MOL0     C17806   4.106   6.527   8.361  0.2849  0.7608  0.1324
  893MOL0     C17807   4.191   6.495   8.469  0.5003  0.2486 -0.6604
  893MOL0     C17808   4.268   6.457   8.554 -0.4764  0.0723  1.0800
  893MOL0     C17809   3.508   6.887   8.367 -0.0851  0.2027 -0.4100
  893MOL0     C17810   3.486   7.017   8.397 -0.5610  0.1529  0.7213
  893MOL0     H17811   3.359   7.285   8.692 -0.8831 -2.4945 -3.3687
  893MOL0     H17812   3.444   7.186   8.912  0.6962 -0.3281  1.7972
  893MOL0     H17813   3.540   6.970   8.962 -0.7776  2.3682 -0.6871
  893MOL0     H17814   3.563   7.089   9.090  3.2621  2.2492  0.8776
  893MOL0     H17815   3.789   6.966   9.145  3.4195 -2.3644 -2.3411
  893MOL0     H17816   3.759   6.870   9.009 -0.1449  1.4273 -0.9584
  893MOL0     H17817   3.519   6.835   9.138 -0.1658 -0.3639 -0.5943
  893MOL0     H17818   3.609   6.865   9.270 -1.1608  2.5667 -1.3364
  893MOL0     H17819   3.614   6.637   9.258 -1.7389 -0.9647 -0.5154
  893MOL0     H17820   3.633   6.633   9.078 -0.3380  2.8190 -1.4088
  893MOL0     H17821   3.860   6.704   9.107  2.1150 -0.5028  1.2481
  893MOL0     H17822   3.830   6.558   9.198  0.0445 -0.6012  3.8486
  893MOL0     H17823   3.810   6.689   9.415  1.9628 -1.2411  0.8354
  893MOL0     H17824   3.837   6.836   9.331 -1.4554 -0.6130  1.1195
  893MOL0     H17825   4.041   6.607   9.329  1.9826 -0.0208  1.5965
  893MOL0     H17826   4.062   6.783   9.273 -1.2691  2.3875  0.2924
  893MOL0     H17827   4.025   6.687   9.570 -0.0697  0.7280  0.3263
  893MOL0     H17828   4.033   6.855   9.498 -1.0755 -0.5069  0.1025
  893MOL0     H17829   4.288   6.544   9.527 -1.3965  0.4204 -1.0228
  893MOL0     H17830   4.564   6.580   9.581 -1.5976  3.2262  3.7772
  893MOL0     H17831   4.612   6.739   9.572 -0.2824 -1.4551  1.5377
  893MOL0     H17832   4.674   6.524   9.377  3.7512  0.7672  0.6088
  893MOL0     H17833   4.722   6.702   9.392 -1.5335  1.3410  3.5212
  893MOL0     H17834   4.467   6.614   9.244  0.2605 -0.4559  1.9898
  893MOL0     H17835   4.533   6.767   9.265 -0.2326  0.0184 -1.2198
  893MOL0     H17836   4.747   6.675   9.147 -1.7037  3.7069 -0.3865
  893MOL0     H17837   4.617   6.745   9.066  0.6206  0.8340  0.5370
  893MOL0     H17838   4.528   6.368   8.853  0.3351 -0.3926 -0.4114
  893MOL0     H17839   4.635   6.322   8.645  1.4361  0.2414 -1.9656
  893MOL0     H17840   4.825   6.715   8.315  0.8422  0.5551  1.6290
  893MOL0     H17841   4.848   6.703   8.067  1.9374 -1.9988 -3.7243
  893MOL0     H17842   5.005   6.341   7.877  3.7501 -2.3627  0.1808
  893MOL0     H17843   5.154   6.416   7.886 -1.2846 -0.8798  1.9052
  893MOL0     H17844   5.132   6.523   7.680  0.0256 -0.0894 -0.4771
  893MOL0     H17845   4.951   6.537   7.677  1.1068 -0.5409 -4.8145
  893MOL0     H17846   5.056   6.255   7.651  0.7574  0.9454  2.2734
  893MOL0     H17847   5.106   6.372   7.533  1.1864 -1.5674  0.6941
  893MOL0     H17848   4.819   6.314   7.606 -0.0662  0.7631  1.1697
  893MOL0     H17849   4.873   6.441   7.491 -1.1062 -0.0381 -0.7171
  893MOL0     H17850   4.939   6.145   7.483 -0.5386  1.7967  1.6486
  893MOL0     H17851   4.967   6.266   7.353  0.7408  0.8587 -0.0036
  893MOL0     H17852   4.724   6.297   7.341  1.1010  0.3761  0.0028
  893MOL0     H17853   4.699   6.161   7.451 -1.4874  2.1686  0.0532
  893MOL0     H17854   4.681   6.090   7.217 -1.2661 -1.5885  2.8133
  893MOL0     H17855   4.865   6.109   7.194 -0.1734  0.5957 -0.1538
  893MOL0     H17856   4.713   5.909   7.320 -0.7336  1.5343 -2.4857
  893MOL0     H17857   4.878   5.936   7.382 -3.2860 -1.1711  3.2662
  893MOL0     H17858   5.102   6.366   8.091 -0.3674 -0.0955 -0.7442
  893MOL0     H17859   5.090   6.393   8.357  1.0965  2.9643  1.6364
  893MOL0     H17860   4.932   6.621   8.710  0.4347 -0.6987  0.2999
  893MOL0     H17861   4.850   6.655   8.938 -0.9388 -0.0679  0.5181
  893MOL0     H17862   3.834   7.170   8.743 -0.0323  1.7636 -0.7501
  893MOL0     H17863   3.759   7.251   8.537  0.5747 -3.5467  0.3121
  893MOL0     H17864   3.756   7.137   8.205  1.3279 -0.2889 -0.2064
  893MOL0     H17865   3.794   6.903   8.188  0.3483  1.6082 -0.2061
  893MOL0     H17866   3.670   6.582   8.432  0.4201 -0.9229 -1.9639
  893MOL0     H17867   3.754   6.733   8.444  0.0560 -0.5270 -0.2033
  893MOL0     H17868   3.826   6.500   8.261 -1.4075  1.9229 -1.6291
  893MOL0     H17869   3.910   6.668   8.258  1.3911  0.3026  0.6279
  893MOL0     H17870   3.945   6.451   8.475 -3.9510  0.7006  1.6717
  893MOL0     H17871   3.972   6.624   8.496 -2.2823  2.2815 -0.6710
  893MOL0     H17872   4.103   6.439   8.297  3.0906  2.3971 -2.5115
  893MOL0     H17873   4.149   6.614   8.311  0.9255  0.1169 -0.4632
  893MOL0     H17874   4.335   6.416   8.627  1.1207  3.0616  1.4463
  893MOL0     H17875   3.448   6.821   8.428 -2.8065  4.0593  1.4684
  893MOL0     H17876   3.396   7.052   8.447 -0.8336  1.7029 -0.7799
  894MOL0     O17877   7.461   3.107   4.385  0.9498  0.5856  0.0662
  894MOL0     C17878   7.345   3.120   4.424 -0.7008  0.4486 -0.0424
  894MOL0     O17879   7.299   3.187   4.529 -0.1014 -0.2719  0.1307
  894MOL0     C17880   7.385   3.278   4.584  0.2122  0.7852 -0.7135
  894MOL0     C17881   7.375   3.407   4.557 -0.1317 -0.2250  0.9081
  894MOL0     C17882   7.465   3.509   4.597  0.1262  0.4212 -1.3248
  894MOL0     C17883   7.581   3.463   4.662 -0.4051  0.2907 -0.4158
  894MOL0     O17884   7.688   3.546   4.697  0.5722  0.1681  0.0741
  894MOL0     C17885   7.660   3.684   4.722 -0.7122  0.2656 -0.7289
  894MOL0     C17886   7.756   3.756   4.812 -0.6824 -0.6096  0.4434
  894MOL0     C17887   7.841   3.681   4.903  0.6416  0.4560 -0.3094
  894MOL0     C17888   7.960   3.757   4.945 -0.4324 -1.1751 -0.1945
  894MOL0     C17889   8.017   3.684   5.067 -0.4870 -0.0068 -0.5590
  894MOL0     C17890   7.938   3.727   5.199  0.3259  0.1646  0.3203
  894MOL0     C17891   7.964   3.620   5.305 -0.2025  0.4041 -0.2098
  894MOL0     C17892   8.116   3.605   5.341 -0.1620 -0.6452  0.3947
  894MOL0     N17893   8.122   3.506   5.453  0.9425 -0.2204 -0.2924
  894MOL0     C17894   8.135   3.545   5.589 -0.4902  0.4318 -0.0248
  894MOL0     C17895   8.144   3.432   5.656  0.3940  0.4990 -0.2338
  894MOL0     C17896   8.164   3.435   5.805  1.0516 -0.7403 -0.7762
  894MOL0     C17897   8.302   3.394   5.855  0.1213 -0.3625 -0.6834
  894MOL0     C17898   8.333   3.245   5.854 -0.0658  0.1105  0.4158
  894MOL0     C17899   8.439   3.203   5.946 -0.9289 -0.1242  0.1232
  894MOL0     O17900   8.372   3.187   6.076  0.4874 -0.1459 -0.1407
  894MOL0     C17901   8.436   3.234   6.189  0.0072  0.4981 -0.2932
  894MOL0     C17902   8.574   3.249   6.194  0.4062 -0.9868 -0.2297
  894MOL0     C17903   8.632   3.294   6.319 -0.4003  0.6329  1.4793
  894MOL0     C17904   8.557   3.311   6.438  0.6716  0.0423  0.2318
  894MOL0     C17905   8.618   3.353   6.570  0.0182 -0.8058  0.4509
  894MOL0     O17906   8.541   3.403   6.667 -0.2051 -0.2723  0.1152
  894MOL0     C17907   8.599   3.436   6.782  0.1574  0.0055  0.3070
  894MOL0     C17908   8.534   3.372   6.893 -0.6205 -0.3290  1.1897
  894MOL0     C17909   8.570   3.399   7.024  1.2671  0.1052  0.0466
  894MOL0     C17910   8.678   3.490   7.047  0.7715 -0.0452  0.4009
  894MOL0     O17911   8.717   3.508   7.176 -0.3657  0.2268  1.3216
  894MOL0     C17912   8.790   3.403   7.221 -0.4604  0.1192 -0.2480
  894MOL0     C17913   8.868   3.433   7.344  0.4319 -0.2021 -0.0521
  894MOL0     C17914   8.770   3.439   7.465 -0.2867 -0.0938 -0.0667
  894MOL0     C17915   8.855   3.443   7.602 -0.1412  0.2327  0.2867
  894MOL0     C17916   8.769   3.399   7.727  0.1669 -1.2293 -0.0416
  894MOL0     C17917   8.821   3.454   7.851  0.2411  0.1968  0.2633
  894MOL0     C17918   8.745   3.437   7.983 -0.2870  0.9031  0.1558
  894MOL0     C17919   8.824   3.507   8.105  1.3574 -0.4034  0.2747
  894MOL0    Cl17920   8.834   3.687   8.098  0.3354  0.1052  0.1176
  894MOL0     C17921   8.746   3.548   6.934  0.0967  0.2497 -0.1489
  894MOL0     C17922   8.708   3.515   6.804 -0.2560 -0.7720 -0.1694
  894MOL0     O17923   8.743   3.344   6.576 -0.4068 -0.1891  0.5267
  894MOL0     C17924   8.422   3.279   6.423  0.2075 -0.4908  0.1354
  894MOL0     C17925   8.366   3.253   6.301  0.1062  0.7493 -0.5431
  894MOL0     N17926   8.131   3.323   5.574  0.1074 -0.3939  0.7236
  894MOL0     N17927   8.110   3.373   5.447  0.3124 -0.3041 -0.6938
  894MOL0     C17928   7.610   3.329   4.669 -0.1018 -0.5561 -0.3044
  894MOL0     C17929   7.505   3.236   4.636 -0.3630  0.3024 -0.0749
  894MOL0     C17930   7.258   3.022   4.358 -0.1742 -0.2371 -0.1762
  894MOL0     C17931   7.124   3.028   4.376  0.1067  0.2780 -0.3013
  894MOL0     C17932   7.038   2.933   4.323  0.2225  0.3908  0.1335
  894MOL0     C17933   7.088   2.820   4.253 -0.0964 -1.0479 -0.5989
  894MOL0     O17934   6.996   2.725   4.219 -0.1539  0.5924  0.2355
  894MOL0     C17935   7.016   2.580   4.252 -0.3765  0.2328  0.4134
  894MOL0     C17936   6.933   2.539   4.372  0.2052  0.2173  0.8367
  894MOL0     C17937   6.973   2.392   4.410 -0.6480  0.4985 -0.5104
  894MOL0     C17938   7.049   2.374   4.543 -0.0864  0.3336  0.4184
  894MOL0     C17939   7.161   2.470   4.566  0.3429 -0.0141  0.1552
  894MOL0     C17940   7.251   2.548   4.588 -0.2299  0.4959 -0.2354
  894MOL0     C17941   7.226   2.823   4.223 -0.4425  0.3492 -0.1413
  894MOL0     C17942   7.312   2.920   4.271 -0.0589 -0.2041 -0.1961
  894MOL0     H17943   7.283   3.428   4.502 -0.6120 -0.5130  1.5907
  894MOL0     H17944   7.452   3.616   4.591 -1.9682  0.3997  0.9891
  894MOL0     H17945   7.569   3.689   4.783  1.0163 -2.3896  2.3410
  894MOL0     H17946   7.639   3.734   4.627 -2.4946 -2.4570 -1.9223
  894MOL0     H17947   7.697   3.834   4.861  1.5772  0.7753  1.1279
  894MOL0     H17948   7.830   3.811   4.753  1.0901 -4.0073 -0.7667
  894MOL0     H17949   7.884   3.592   4.857  2.5927  2.0510 -1.7873
  894MOL0     H17950   7.784   3.650   4.991 -0.8277  2.1727 -0.5779
  894MOL0     H17951   8.037   3.748   4.868 -1.4960  0.2280 -1.4835
  894MOL0     H17952   7.942   3.863   4.963 -1.5421 -1.1745 -1.2170
  894MOL0     H17953   8.122   3.714   5.071 -0.3859  0.5416 -4.1791
  894MOL0     H17954   8.007   3.577   5.044 -3.1994 -0.2672  1.3128
  894MOL0     H17955   7.830   3.740   5.194  0.0682 -0.5567  2.9116
  894MOL0     H17956   7.986   3.821   5.228 -1.1233  0.9690  0.2319
  894MOL0     H17957   7.921   3.653   5.400  0.0951 -0.2659  0.1646
  894MOL0     H17958   7.911   3.526   5.289 -1.4771  1.1357 -0.4195
  894MOL0     H17959   8.168   3.694   5.378  0.4734 -0.1385 -1.6121
  894MOL0     H17960   8.173   3.573   5.254  1.8206  1.1727  0.9470
  894MOL0     H17961   8.136   3.642   5.637  1.6139 -0.3285  1.6765
  894MOL0     H17962   8.100   3.365   5.859 -0.6876  0.4257 -1.2195
  894MOL0     H17963   8.147   3.537   5.843  4.8998 -1.0861  2.5372
  894MOL0     H17964   8.310   3.429   5.959 -2.0304 -1.9030  0.0784
  894MOL0     H17965   8.380   3.440   5.795  0.8816 -0.4569  0.2079
  894MOL0     H17966   8.239   3.190   5.864  0.3962 -0.8219 -0.2600
  894MOL0     H17967   8.378   3.218   5.759  2.8745 -0.5137  1.8564
  894MOL0     H17968   8.522   3.274   5.942  0.7544 -1.3528  5.2437
  894MOL0     H17969   8.480   3.109   5.906 -2.3734 -0.4718 -0.6119
  894MOL0     H17970   8.635   3.242   6.105  2.2831  1.5760  0.7390
  894MOL0     H17971   8.739   3.307   6.315 -0.5343  2.0356  1.8493
  894MOL0     H17972   8.441   3.320   6.870 -1.5173 -0.4870  4.5817
  894MOL0     H17973   8.511   3.362   7.108  1.4641  0.7967  0.5024
  894MOL0     H17974   8.856   3.373   7.139 -2.0109 -1.1922 -1.0815
  894MOL0     H17975   8.725   3.316   7.234  2.2093 -2.0930 -0.7970
  894MOL0     H17976   8.923   3.527   7.331 -0.3645  0.8150  3.0867
  894MOL0     H17977   8.943   3.355   7.361  0.7456  0.4226  1.6146
  894MOL0     H17978   8.708   3.350   7.451 -1.5236  0.7506 -0.1691
  894MOL0     H17979   8.706   3.528   7.461  0.1776  0.2200 -0.5809
  894MOL0     H17980   8.941   3.375   7.600 -0.0003  0.4204 -0.5221
  894MOL0     H17981   8.898   3.543   7.611 -2.1909  0.9375  4.4702
  894MOL0     H17982   8.774   3.291   7.744 -0.7125 -1.7182 -2.4747
  894MOL0     H17983   8.668   3.439   7.716 -0.2183 -2.0345  0.4810
  894MOL0     H17984   8.850   3.560   7.845 -2.5343  1.5446  5.0299
  894MOL0     H17985   8.907   3.387   7.862 -1.2494 -3.1377 -4.8017
  894MOL0     H17986   8.641   3.468   7.973 -1.1460 -1.2326  1.5789
  894MOL0     H17987   8.740   3.330   8.008 -1.6012  1.0039  0.3597
  894MOL0     H17988   8.925   3.466   8.111  1.7812  0.7194  1.2929
  894MOL0     H17989   8.788   3.467   8.200  0.6326  1.9048  1.0332
  894MOL0     H17990   8.823   3.623   6.951 -1.2466  1.2363  2.0639
  894MOL0     H17991   8.761   3.558   6.719  1.1648  0.7489  1.4196
  894MOL0     H17992   8.375   3.311   6.516  1.5113  4.8312 -0.6993
  894MOL0     H17993   8.260   3.241   6.282 -0.2219  0.6602  1.1888
  894MOL0     H17994   7.704   3.299   4.714  1.4696  0.8897 -2.4047
  894MOL0     H17995   7.535   3.131   4.640  0.1848  0.4897  1.1462
  894MOL0     H17996   7.079   3.104   4.439 -1.2995  0.9613 -2.0633
  894MOL0     H17997   6.933   2.940   4.351  0.4190 -2.3225  1.8430
  894MOL0     H17998   7.120   2.560   4.282 -0.4631  0.6867  1.0588
  894MOL0     H17999   6.985   2.522   4.165 -1.0029  3.5455 -1.7483
  894MOL0     H18000   6.947   2.612   4.452  0.0321 -0.5490  1.5857
  894MOL0     H18001   6.825   2.541   4.351  0.1980 -2.2622  0.3313
  894MOL0     H18002   7.043   2.345   4.340  0.3683  0.2603  0.6371
  894MOL0     H18003   6.885   2.330   4.425 -0.9118  1.0562  0.3250
  894MOL0     H18004   6.976   2.374   4.624  0.5229  1.5005  0.9899
  894MOL0     H18005   7.098   2.276   4.548 -2.0708 -0.9353 -2.2138
  894MOL0     H18006   7.336   2.606   4.619 -0.6111  0.8303  0.2014
  894MOL0     H18007   7.269   2.744   4.162  1.6980 -1.0078  2.9187
  894MOL0     H18008   7.419   2.910   4.255 -0.3628 -1.0939 -1.9708
  895MOL0     O18009   5.951   7.706   9.939 -0.5182  0.0916 -0.5045
  895MOL0     C18010   6.008   7.623   9.862 -0.0400  0.3986  0.6756
  895MOL0     O18011   6.133   7.638   9.807  0.7893 -0.9533  0.4450
  895MOL0     C18012   6.211   7.742   9.843  0.0026  0.1773  0.3867
  895MOL0     C18013   6.285   7.715   9.957 -0.1482  0.5595  0.7515
  895MOL0     C18014   6.374   7.817  10.004  0.3464  0.8441  0.1341
  895MOL0     C18015   6.358   7.953   9.963  1.1111 -0.1966  0.3178
  895MOL0     O18016   6.396   8.067  10.031 -0.6323 -0.4622  0.3268
  895MOL0     C18017   6.504   8.057  10.127  0.2609  0.3054 -0.5032
  895MOL0     C18018   6.554   8.193  10.153  0.6076  0.3949 -0.0292
  895MOL0     C18019   6.622   8.251  10.025  0.0531  0.0866 -0.6895
  895MOL0     C18020   6.693   8.380  10.051  0.0103 -0.1461 -0.2105
  895MOL0     C18021   6.732   8.441   9.918 -1.4605 -0.6996  0.1882
  895MOL0     C18022   6.844   8.356   9.858 -0.1758  0.4416 -0.3135
  895MOL0     C18023   6.865   8.387   9.712 -0.3146 -0.2787  0.2868
  895MOL0     C18024   6.917   8.268   9.626  0.4194 -0.5007  0.2252
  895MOL0     N18025   7.056   8.234   9.666  0.6288  0.0978 -0.7081
  895MOL0     C18026   7.169   8.265   9.603 -0.1544 -0.0554  0.4508
  895MOL0     C18027   7.263   8.176   9.637  0.5110 -0.5213 -0.3162
  895MOL0     C18028   7.386   8.162   9.573 -0.2028  0.2984 -0.4978
  895MOL0     C18029   7.499   8.253   9.641  0.9968 -0.1921 -0.3580
  895MOL0     C18030   7.473   8.398   9.614  0.2847 -0.1355  0.2327
  895MOL0     C18031   7.565   8.480   9.703 -0.6687  1.1397 -0.2884
  895MOL0     O18032   7.534   8.618   9.679 -0.6011  0.1236 -0.4963
  895MOL0     C18033   7.590   8.704   9.771 -0.3029  0.6499  0.7706
  895MOL0     C18034   7.506   8.796   9.825  0.3970 -1.1647 -0.4794
  895MOL0     C18035   7.566   8.890   9.911  0.1164 -0.7543  0.4397
  895MOL0     C18036   7.697   8.879   9.959  0.2157 -0.1259 -0.1834
  895MOL0     C18037   7.758   8.974  10.053  0.8808  0.3637 -0.4829
  895MOL0     O18038   7.892   9.014  10.046 -0.0772  0.5953  0.2669
  895MOL0     C18039   7.952   9.094  10.144  0.4921 -0.7796  0.1677
  895MOL0     C18040   7.973   9.043  10.271  0.6933 -0.5736 -1.0518
  895MOL0     C18041   8.028   9.123  10.374 -1.1047 -0.3594 -0.6337
  895MOL0     C18042   8.076   9.250  10.345  0.1657  0.2643  0.1106
  895MOL0     O18043   8.126   9.328  10.445  0.4675  0.4699 -1.0706
  895MOL0     C18044   8.267   9.313  10.446  0.0416  0.6350 -0.2707
  895MOL0     C18045   8.325   9.441  10.500  0.1455  0.9393 -0.5685
  895MOL0     C18046   8.471   9.433  10.501 -0.0956  0.2703  1.3356
  895MOL0     C18047   8.532   9.540  10.575  0.5515  1.3918 -0.0861
  895MOL0     C18048   8.502   9.548  10.726 -0.3197 -0.3961  0.8168
  895MOL0     C18049   8.608   9.625  10.812 -0.3449 -0.6353 -0.0937
  895MOL0     C18050   8.538   9.713  10.916  0.1494 -0.1155  0.3556
  895MOL0     C18051   8.634   9.773  11.011 -0.2147 -0.3319 -1.2215
  895MOL0    Cl18052   8.787   9.833  10.922  0.5198 -0.1554  0.5130
  895MOL0     C18053   8.056   9.298  10.219  0.5011 -0.3000  0.1868
  895MOL0     C18054   8.001   9.219  10.121 -0.6278  0.5822  0.9461
  895MOL0     O18055   7.680   9.020  10.140  0.4506  0.1837 -0.3413
  895MOL0     C18056   7.775   8.778   9.895 -0.2532 -0.2320 -1.0462
  895MOL0     C18057   7.726   8.692   9.793  0.3084  0.2618 -0.2160
  895MOL0     N18058   7.205   8.105   9.738 -0.6538 -0.1430 -0.7625
  895MOL0     N18059   7.086   8.143   9.761  0.1924 -0.3544 -0.1789
  895MOL0     C18060   6.271   7.980   9.858 -1.5900 -0.5485  0.7053
  895MOL0     C18061   6.202   7.871   9.797  0.6253 -0.0630 -0.0380
  895MOL0     C18062   5.926   7.499   9.830 -0.1838  0.1070 -0.8452
  895MOL0     C18063   5.977   7.407   9.735  1.2680 -0.4916 -0.5752
  895MOL0     C18064   5.910   7.280   9.728  0.2667  0.0779  0.1076
  895MOL0     C18065   5.787   7.249   9.796 -0.5077 -0.1369  0.4624
  895MOL0     O18066   5.735   7.131   9.750  0.6290 -0.8809 -1.0299
  895MOL0     C18067   5.601   7.111   9.795 -0.2182  0.0091  0.3665
  895MOL0     C18068   5.533   6.984   9.728  0.0150  0.8683  0.1231
  895MOL0     C18069   5.548   6.978   9.580  0.0646 -0.4269  0.2030
  895MOL0     C18070   5.529   7.105   9.496  0.3634 -0.0766  0.6190
  895MOL0     C18071   5.488   7.073   9.359  1.4633 -0.2873 -0.3103
  895MOL0     C18072   5.431   7.058   9.253 -0.5112 -0.0747  0.3237
  895MOL0     C18073   5.735   7.343   9.883 -0.7048 -0.2803 -0.2845
  895MOL0     C18074   5.803   7.468   9.899 -0.4831  0.5168 -0.2175
  895MOL0     H18075   6.289   7.614   9.995 -1.9755 -0.1131 -0.6924
  895MOL0     H18076   6.449   7.796  10.080 -0.7000 -1.7554  0.5608
  895MOL0     H18077   6.580   7.981  10.108 -1.5866 -1.5408 -0.8917
  895MOL0     H18078   6.455   8.017  10.216 -1.4372 -1.4317 -2.0940
  895MOL0     H18079   6.614   8.195  10.244 -1.6278  0.8269  1.5278
  895MOL0     H18080   6.468   8.250  10.189  0.7768 -0.7168  2.3190
  895MOL0     H18081   6.553   8.263   9.942 -2.1121 -0.9001  0.8756
  895MOL0     H18082   6.693   8.174   9.992 -0.6917 -0.1878 -1.6911
  895MOL0     H18083   6.635   8.452  10.110  2.3363  2.6758 -1.1077
  895MOL0     H18084   6.787   8.370  10.107  0.2019  2.1872  0.0025
  895MOL0     H18085   6.772   8.537   9.952 -0.6519 -1.3460  1.1487
  895MOL0     H18086   6.646   8.464   9.854 -1.9395 -2.1441  0.2703
  895MOL0     H18087   6.814   8.251   9.850 -1.2902  0.7168  0.0984
  895MOL0     H18088   6.935   8.361   9.918 -1.0422 -1.0954  1.2162
  895MOL0     H18089   6.772   8.413   9.660  0.8722 -0.9822 -2.3340
  895MOL0     H18090   6.936   8.468   9.693 -2.5168  1.6803 -0.0843
  895MOL0     H18091   6.924   8.299   9.521 -4.1345  0.7157  0.0539
  895MOL0     H18092   6.847   8.185   9.635 -0.3168 -0.0796 -1.3423
  895MOL0     H18093   7.167   8.342   9.527 -2.2412 -0.6485 -0.1463
  895MOL0     H18094   7.381   8.168   9.464  0.5185 -1.3084 -0.6596
  895MOL0     H18095   7.405   8.055   9.590 -2.6110 -0.0926  0.1285
  895MOL0     H18096   7.596   8.233   9.594  1.5288  2.9532 -0.7865
  895MOL0     H18097   7.505   8.221   9.746  2.5709 -0.1889 -0.4189
  895MOL0     H18098   7.487   8.417   9.507  3.9945 -1.4885  0.3234
  895MOL0     H18099   7.374   8.427   9.650  1.3300  1.3342  2.1266
  895MOL0     H18100   7.663   8.454   9.662  0.4935  1.4865  2.1153
  895MOL0     H18101   7.556   8.462   9.811 -0.6231  1.3156 -0.2558
  895MOL0     H18102   7.401   8.812   9.800  1.5190  0.4115 -5.2739
  895MOL0     H18103   7.503   8.966   9.957 -1.8876 -1.3463 -1.1509
  895MOL0     H18104   7.947   8.944  10.307  1.8443 -0.0736  1.3417
  895MOL0     H18105   8.043   9.095  10.477  3.0809 -0.9596 -1.2311
  895MOL0     H18106   8.310   9.291  10.348  2.0111 -1.3391  0.9278
  895MOL0     H18107   8.296   9.229  10.510  5.9627  1.6133 -1.0541
  895MOL0     H18108   8.282   9.468  10.597 -0.8858 -0.9207 -0.4681
  895MOL0     H18109   8.277   9.518  10.438 -6.1068 -0.6793  1.5722
  895MOL0     H18110   8.502   9.451  10.398 -2.3612  0.1169  0.5555
  895MOL0     H18111   8.524   9.344  10.538  3.0812  1.8544  0.9039
  895MOL0     H18112   8.640   9.526  10.563  0.5386 -1.8062  2.1864
  895MOL0     H18113   8.508   9.633  10.524 -2.1391  0.5466 -0.5273
  895MOL0     H18114   8.501   9.444  10.761 -1.6538 -0.5299  0.4390
  895MOL0     H18115   8.398   9.582  10.737 -1.0660 -1.6154 -1.6597
  895MOL0     H18116   8.653   9.691  10.738 -2.2182  4.0336  2.5079
  895MOL0     H18117   8.696   9.569  10.846 -0.5027 -1.9298 -1.7051
  895MOL0     H18118   8.486   9.787  10.855  1.4153  0.8319  0.3738
  895MOL0     H18119   8.466   9.662  10.980  0.5924 -1.7166 -0.3595
  895MOL0     H18120   8.654   9.704  11.093 -0.3575 -2.0684 -2.5852
  895MOL0     H18121   8.594   9.863  11.058 -0.6531 -1.0188 -0.2525
  895MOL0     H18122   8.098   9.394  10.191  0.1206  1.2088  4.1043
  895MOL0     H18123   7.994   9.266  10.024 -1.8134  2.9201  2.0830
  895MOL0     H18124   7.881   8.776   9.918  0.3042 -1.5707 -3.3875
  895MOL0     H18125   7.775   8.627   9.721 -1.9468  1.5678 -3.1424
  895MOL0     H18126   6.241   8.075   9.817 -0.2408 -0.9539 -1.3461
  895MOL0     H18127   6.124   7.892   9.725  0.9492  0.2029 -0.3107
  895MOL0     H18128   6.078   7.421   9.699  2.3368 -0.8143  2.1187
  895MOL0     H18129   5.966   7.207   9.671  2.9542  0.1753  2.3921
  895MOL0     H18130   5.546   7.196   9.753  2.2942  0.4904 -2.1875
  895MOL0     H18131   5.587   7.103   9.904  0.0755  2.1218  0.5988
  895MOL0     H18132   5.582   6.901   9.780  1.3590  1.7074  0.2509
  895MOL0     H18133   5.426   6.973   9.748 -0.0555  2.4586  0.7704
  895MOL0     H18134   5.490   6.900   9.530 -1.0591  0.3325  0.2581
  895MOL0     H18135   5.652   6.949   9.564  1.5985  2.8978  2.8145
  895MOL0     H18136   5.455   7.159   9.556 -1.4270 -2.2272  0.4582
  895MOL0     H18137   5.623   7.160   9.496 -0.5008  1.4844 -0.1017
  895MOL0     H18138   5.386   7.062   9.156 -0.0764  0.2258  0.1340
  895MOL0     H18139   5.644   7.318   9.938 -0.6451 -1.7156 -0.7990
  895MOL0     H18140   5.753   7.533   9.970 -2.4635 -0.7919 -0.3351
  896MOL0     O18141   7.652   4.193   3.856  0.2623  0.1942  0.1017
  896MOL0     C18142   7.540   4.160   3.884  0.7702 -0.2221  0.0072
  896MOL0     O18143   7.503   4.081   3.984 -0.9026 -0.2103  1.0230
  896MOL0     C18144   7.586   4.040   4.090 -0.5186 -0.3937  0.4278
  896MOL0     C18145   7.676   4.129   4.138 -0.9231  0.6164 -1.1502
  896MOL0     C18146   7.749   4.096   4.250 -0.1173  0.5468 -0.0717
  896MOL0     C18147   7.717   3.979   4.322  0.3165  0.2303 -0.4696
  896MOL0     O18148   7.784   3.933   4.432  0.6674  0.6479 -0.4625
  896MOL0     C18149   7.872   4.014   4.506 -1.3109 -1.0675 -0.7381
  896MOL0     C18150   7.788   4.111   4.594  0.5311  0.8640 -0.6158
  896MOL0     C18151   7.867   4.204   4.677 -0.1102 -1.2467 -0.1959
  896MOL0     C18152   7.955   4.135   4.786 -0.2464  0.7244  0.0321
  896MOL0     C18153   8.028   4.247   4.871  1.0543  0.1323  0.4646
  896MOL0     C18154   8.121   4.196   4.989  0.8570 -0.8438 -0.0261
  896MOL0     C18155   8.231   4.098   4.947 -0.5569 -0.5457  0.4288
  896MOL0     C18156   8.326   4.159   4.852 -0.1257 -0.0538  0.0377
  896MOL0     N18157   8.401   4.271   4.905  1.1665  0.5842 -0.0632
  896MOL0     C18158   8.494   4.254   5.002  0.1344 -0.1137  0.5368
  896MOL0     C18159   8.535   4.380   5.028 -0.3961  0.0528 -0.0514
  896MOL0     C18160   8.638   4.424   5.143  0.0805  0.1260  0.0199
  896MOL0     C18161   8.581   4.511   5.248  0.4875 -0.5486 -0.3014
  896MOL0     C18162   8.462   4.446   5.324 -0.1802  0.5593 -0.3666
  896MOL0     C18163   8.328   4.464   5.257  0.5587  0.3397 -0.1986
  896MOL0     O18164   8.222   4.468   5.356 -0.5280 -0.7624  0.9839
  896MOL0     C18165   8.181   4.348   5.411  0.1493  0.4981  0.1195
  896MOL0     C18166   8.082   4.348   5.511 -0.2264  0.5588  0.3193
  896MOL0     C18167   8.020   4.230   5.547  1.1195 -0.1438 -0.1368
  896MOL0     C18168   8.055   4.106   5.503  0.0776 -0.7864  0.6217
  896MOL0     C18169   7.990   3.982   5.558 -0.0580 -0.2192  0.3637
  896MOL0     O18170   7.870   4.002   5.632 -0.1284  0.5792  0.4036
  896MOL0     C18171   7.848   3.888   5.703  0.0999 -0.7823 -0.7210
  896MOL0     C18172   7.881   3.909   5.838  0.3461 -0.3085  0.1074
  896MOL0     C18173   7.856   3.806   5.927 -0.2953  0.8431  0.0709
  896MOL0     C18174   7.800   3.686   5.884  0.4848  0.7243  0.6344
  896MOL0     O18175   7.785   3.589   5.982 -0.6303 -0.0329 -0.4558
  896MOL0     C18176   7.781   3.448   5.962 -1.8244  0.5393 -0.3236
  896MOL0     C18177   7.865   3.388   6.081  0.2128  0.0704  0.0943
  896MOL0     C18178   7.882   3.242   6.048 -0.2613 -0.2480  0.2679
  896MOL0     C18179   7.975   3.171   6.142 -1.5074  0.4739  0.3321
  896MOL0     C18180   7.957   3.198   6.285 -0.3391 -0.2054 -0.3062
  896MOL0     C18181   7.837   3.119   6.346 -0.4249  1.1045 -0.1296
  896MOL0     C18182   7.821   3.147   6.498  1.1636  0.5877  0.9976
  896MOL0     C18183   7.869   3.027   6.571 -0.2950  0.3298  0.6442
  896MOL0    Cl18184   7.763   2.883   6.575  0.0898 -0.1482 -0.0085
  896MOL0     C18185   7.771   3.666   5.748 -0.8741 -0.2551  0.4462
  896MOL0     C18186   7.795   3.768   5.658 -0.2636 -0.1301  0.4619
  896MOL0     O18187   8.054   3.883   5.539  0.5157  0.3301  0.4876
  896MOL0     C18188   8.159   4.099   5.404 -0.3636 -0.4340  0.2860
  896MOL0     C18189   8.218   4.220   5.357  0.7189  0.1112  0.8172
  896MOL0     N18190   8.472   4.463   4.930 -0.2094 -0.2646 -0.3771
  896MOL0     N18191   8.395   4.395   4.854  0.1545 -1.0510 -0.5023
  896MOL0     C18192   7.622   3.885   4.267 -0.8770  0.2404 -0.5318
  896MOL0     C18193   7.563   3.914   4.140  0.8235 -0.1851  0.2903
  896MOL0     C18194   7.429   4.231   3.816  0.3309 -0.3805 -0.2343
  896MOL0     C18195   7.292   4.178   3.824 -0.9553  0.0821 -0.0071
  896MOL0     C18196   7.194   4.245   3.758 -0.0378 -0.4057  1.0309
  896MOL0     C18197   7.217   4.346   3.666  0.2327  0.6818  0.6951
  896MOL0     O18198   7.114   4.406   3.604  0.7146  0.4926 -0.7531
  896MOL0     C18199   7.088   4.340   3.478  0.2796 -0.3528  0.0016
  896MOL0     C18200   6.983   4.415   3.396 -0.7389  0.1109 -0.0310
  896MOL0     C18201   6.857   4.462   3.473  0.3131  0.4505  0.0325
  896MOL0     C18202   6.742   4.500   3.380  0.1548  0.3523  0.8962
  896MOL0     C18203   6.637   4.551   3.461 -0.4438 -0.4014 -0.9133
  896MOL0     C18204   6.547   4.602   3.536 -0.3858 -0.1973 -0.2270
  896MOL0     C18205   7.351   4.392   3.655  0.8214 -0.0597  0.1272
  896MOL0     C18206   7.452   4.343   3.728  0.3239  0.4120  0.9532
  896MOL0     H18207   7.694   4.227   4.094  1.0779 -0.1800 -2.2556
  896MOL0     H18208   7.818   4.171   4.288 -0.1855 -0.4435  2.1554
  896MOL0     H18209   7.930   4.079   4.440 -2.6226  1.1560  0.1813
  896MOL0     H18210   7.938   3.943   4.556 -0.5172  2.4964  3.9986
  896MOL0     H18211   7.725   4.054   4.664 -0.5926  0.0961 -2.1912
  896MOL0     H18212   7.711   4.165   4.538 -0.1972 -0.6551 -1.1578
  896MOL0     H18213   7.807   4.280   4.728  0.4114 -1.4214  0.6967
  896MOL0     H18214   7.930   4.267   4.613 -1.7546 -0.8601 -1.4910
  896MOL0     H18215   7.890   4.076   4.852  0.1947  1.6153  1.3048
  896MOL0     H18216   8.025   4.063   4.744 -0.6074 -0.5170  1.4827
  896MOL0     H18217   7.944   4.296   4.920 -1.9766 -0.4463 -3.6242
  896MOL0     H18218   8.089   4.307   4.804  0.0236 -0.2220 -0.8325
  896MOL0     H18219   8.050   4.142   5.052 -1.0998 -2.8223 -3.6365
  896MOL0     H18220   8.169   4.283   5.036 -1.5763  2.1023 -2.5185
  896MOL0     H18221   8.279   4.055   5.035  1.2132 -2.4177 -1.3488
  896MOL0     H18222   8.183   4.010   4.904 -4.3393  2.0734 -1.2862
  896MOL0     H18223   8.272   4.183   4.760  0.5187  1.5897  0.0676
  896MOL0     H18224   8.397   4.080   4.825 -1.9887 -1.2249 -1.7591
  896MOL0     H18225   8.526   4.162   5.050 -2.5721 -0.7263  1.3192
  896MOL0     H18226   8.723   4.469   5.091  0.6780 -1.8032 -0.7404
  896MOL0     H18227   8.664   4.330   5.193 -0.2828  0.1187  0.2013
  896MOL0     H18228   8.553   4.610   5.209  0.1082  0.1403  1.5867
  896MOL0     H18229   8.657   4.529   5.324  1.4080 -3.2955 -0.4917
  896MOL0     H18230   8.495   4.344   5.347  1.7043  0.2652 -3.7028
  896MOL0     H18231   8.455   4.489   5.424 -3.3234  1.7478 -1.0034
  896MOL0     H18232   8.315   4.381   5.186  0.7800 -0.6661  0.9046
  896MOL0     H18233   8.321   4.546   5.185 -1.7081  0.5328  0.1552
  896MOL0     H18234   8.045   4.445   5.542 -0.8846  1.0705 -1.8591
  896MOL0     H18235   7.947   4.227   5.628  2.9280  2.1154  1.7098
  896MOL0     H18236   7.922   4.008   5.859 -3.3197  2.1502 -3.0347
  896MOL0     H18237   7.880   3.802   6.033 -1.2627 -2.3574  0.2821
  896MOL0     H18238   7.838   3.417   5.873 -5.0035 -2.5345 -1.5329
  896MOL0     H18239   7.684   3.400   5.950 -1.0236 -0.5817 -3.2362
  896MOL0     H18240   7.813   3.380   6.177  3.7162 -1.1882  2.0416
  896MOL0     H18241   7.961   3.432   6.110 -1.7734  3.1809  2.6176
  896MOL0     H18242   7.920   3.237   5.946  0.1213 -2.1545  0.4712
  896MOL0     H18243   7.789   3.186   6.058  0.0337 -1.0001 -1.0361
  896MOL0     H18244   7.967   3.063   6.125 -0.4935  0.4056  0.1909
  896MOL0     H18245   8.077   3.194   6.107 -2.2408  1.9922 -0.9169
  896MOL0     H18246   7.953   3.306   6.302 -0.7846 -0.2480 -0.1155
  896MOL0     H18247   8.045   3.156   6.335 -0.0543  0.7815  0.0417
  896MOL0     H18248   7.837   3.009   6.341  0.2937  1.1010 -0.1866
  896MOL0     H18249   7.745   3.161   6.306  0.4669  2.1188 -1.1944
  896MOL0     H18250   7.855   3.248   6.519 -0.6270  2.1611 -2.6872
  896MOL0     H18251   7.717   3.173   6.521  1.1684  2.4096 -0.7670
  896MOL0     H18252   7.878   3.048   6.678  0.3221 -1.8172  1.0768
  896MOL0     H18253   7.968   3.000   6.532 -0.1677 -2.9306  2.8006
  896MOL0     H18254   7.729   3.571   5.717  2.3597 -1.8323  0.5402
  896MOL0     H18255   7.776   3.757   5.552  2.9390  0.7242 -0.3116
  896MOL0     H18256   8.214   4.010   5.375  2.6360  1.4426 -0.1845
  896MOL0     H18257   8.313   4.203   5.307  1.8672  0.1070  2.9005
  896MOL0     H18258   7.596   3.794   4.319 -1.8408  1.3148  0.9488
  896MOL0     H18259   7.514   3.837   4.082  0.1548 -0.0541  0.6764
  896MOL0     H18260   7.270   4.091   3.884  0.8107 -1.9894 -2.1473
  896MOL0     H18261   7.094   4.213   3.785 -0.4469  0.2794  0.3897
  896MOL0     H18262   7.047   4.241   3.500 -0.2797  0.0929  1.0576
  896MOL0     H18263   7.176   4.330   3.414  0.0506 -3.5987  0.0635
  896MOL0     H18264   7.038   4.502   3.358 -1.4157  1.7227  2.4736
  896MOL0     H18265   6.935   4.360   3.315  0.8098 -1.1487 -0.1446
  896MOL0     H18266   6.886   4.551   3.530  0.3327  1.9013 -2.1244
  896MOL0     H18267   6.825   4.383   3.541  2.2557 -1.5749 -1.2767
  896MOL0     H18268   6.769   4.575   3.305  0.3370 -0.4744  0.1050
  896MOL0     H18269   6.706   4.407   3.334  1.1012 -0.4225  1.6613
  896MOL0     H18270   6.464   4.637   3.593 -0.6962  0.0837 -0.8342
  896MOL0     H18271   7.354   4.472   3.582 -3.9775 -0.1096 -0.4188
  896MOL0     H18272   7.551   4.381   3.709  1.7629 -3.9148 -1.9759
  897MOL0     O18273   8.673   7.479   9.553  0.4184  0.3204 -0.1501
  897MOL0     C18274   8.701   7.586   9.601  0.1685 -0.2760 -0.8752
  897MOL0     O18275   8.624   7.693   9.615  0.4204  0.4147  0.8137
  897MOL0     C18276   8.499   7.680   9.561  0.0350 -1.5034 -1.3945
  897MOL0     C18277   8.470   7.631   9.437  0.6782 -0.1227  0.2418
  897MOL0     C18278   8.342   7.607   9.391 -0.3398 -0.1799  0.8035
  897MOL0     C18279   8.237   7.622   9.478  0.5108 -0.5279 -0.0300
  897MOL0     O18280   8.101   7.605   9.447 -0.6717  0.0223 -0.5876
  897MOL0     C18281   8.065   7.525   9.335  0.5840  0.0077 -0.7403
  897MOL0     C18282   7.914   7.480   9.308  0.7894 -0.1209 -0.0522
  897MOL0     C18283   7.891   7.481   9.158 -0.7604  0.7258  0.3350
  897MOL0     C18284   7.758   7.408   9.127  0.7037 -0.5010  0.1461
  897MOL0     C18285   7.725   7.418   8.977  0.9373  0.7592 -0.3788
  897MOL0     C18286   7.806   7.313   8.902 -0.3858 -0.3476  0.9620
  897MOL0     C18287   7.800   7.325   8.745 -0.6905 -0.0419 -0.1672
  897MOL0     C18288   7.829   7.192   8.685 -0.1523  0.2733 -0.4972
  897MOL0     N18289   7.841   7.206   8.544  1.2819  0.0574 -0.3053
  897MOL0     C18290   7.735   7.212   8.456  1.0383 -0.4811  0.2873
  897MOL0     C18291   7.800   7.228   8.334  0.5563  0.1544 -0.8258
  897MOL0     C18292   7.737   7.255   8.196  0.2159  0.2134  0.0272
  897MOL0     C18293   7.743   7.137   8.093  0.7052 -0.6246 -0.2154
  897MOL0     C18294   7.885   7.125   8.042 -0.5804 -0.9119 -0.6042
  897MOL0     C18295   7.914   7.017   7.930  0.6068  0.3528 -0.4993
  897MOL0     O18296   7.831   6.908   7.963  0.3232 -0.2013 -0.0846
  897MOL0     C18297   7.845   6.782   7.909  0.5935 -0.2195 -1.4351
  897MOL0     C18298   7.761   6.681   7.957  0.3511  0.5045  0.0583
  897MOL0     C18299   7.769   6.544   7.920 -0.3422  0.5944  0.5279
  897MOL0     C18300   7.862   6.495   7.813  0.3206 -0.6661  0.3596
  897MOL0     C18301   7.863   6.356   7.762  0.6462  0.5475 -1.0015
  897MOL0     O18302   7.956   6.310   7.674  0.6885  0.6916  0.2398
  897MOL0     C18303   7.919   6.207   7.590  0.3478  0.3818 -0.2414
  897MOL0     C18304   8.032   6.119   7.548  0.1318 -0.3980  0.9368
  897MOL0     C18305   8.010   6.005   7.466  0.2936  0.0996 -0.5483
  897MOL0     C18306   7.877   5.967   7.434  0.8974  0.4522  0.1311
  897MOL0     O18307   7.868   5.851   7.360 -0.6055 -0.8120  0.3879
  897MOL0     C18308   7.743   5.789   7.329 -0.0723 -0.4140  0.1437
  897MOL0     C18309   7.772   5.650   7.294 -0.4156 -0.0715  0.0062
  897MOL0     C18310   7.785   5.641   7.144 -0.2643 -0.9392  0.6516
  897MOL0     C18311   7.789   5.487   7.091 -0.6246  0.4875  0.1410
  897MOL0     C18312   7.663   5.437   7.034 -0.3310 -0.8320 -0.2032
  897MOL0     C18313   7.650   5.474   6.881  0.8992 -0.4163 -0.6988
  897MOL0     C18314   7.517   5.424   6.828 -0.6081  0.4086 -0.0922
  897MOL0     C18315   7.496   5.272   6.845  0.5882  1.3952  0.2667
  897MOL0    Cl18316   7.367   5.219   6.730  0.2667  0.6943 -0.0349
  897MOL0     C18317   7.771   6.043   7.476 -0.8062  0.2826 -0.1736
  897MOL0     C18318   7.787   6.159   7.557 -0.2160  0.7631  0.2487
  897MOL0     O18319   7.779   6.285   7.821 -0.2902  0.0194 -0.2982
  897MOL0     C18320   7.944   6.598   7.773 -0.2405 -0.0025  0.0328
  897MOL0     C18321   7.951   6.734   7.816  0.8873 -1.0346 -1.1875
  897MOL0     N18322   7.935   7.200   8.356 -0.3764 -0.5551  0.4242
  897MOL0     N18323   7.960   7.191   8.481  0.2225  0.7944  0.6395
  897MOL0     C18324   8.258   7.691   9.597  0.8524 -0.4489  0.2266
  897MOL0     C18325   8.387   7.711   9.639  0.2328  1.1972 -0.8743
  897MOL0     C18326   8.832   7.598   9.669 -0.0030 -1.0450 -0.7246
  897MOL0     C18327   8.867   7.710   9.741 -0.8870 -0.4657  0.4344
  897MOL0     C18328   8.999   7.726   9.792 -0.1706  0.2538  0.7282
  897MOL0     C18329   9.100   7.635   9.760  0.6777  0.3553 -0.8388
  897MOL0     O18330   9.217   7.625   9.815  0.2080 -0.3793  0.0898
  897MOL0     C18331   9.251   7.680   9.950  0.5420 -0.1580 -0.0204
  897MOL0     C18332   9.391   7.720   9.946 -1.1099 -0.3227  0.4837
  897MOL0     C18333   9.411   7.865   9.903 -0.1987 -0.4206  0.6743
  897MOL0     C18334   9.525   7.943   9.973  0.2162  0.0439  0.1864
  897MOL0     C18335   9.521   7.950  10.115 -0.4874 -1.0044 -0.1330
  897MOL0     C18336   9.509   7.947  10.231 -0.0100  0.3057  0.4817
  897MOL0     C18337   9.063   7.527   9.678 -0.1213  0.5053 -0.3687
  897MOL0     C18338   8.936   7.512   9.637 -0.0690  0.7262 -0.0428
  897MOL0     H18339   8.556   7.611   9.374 -0.0787 -1.1594 -0.4997
  897MOL0     H18340   8.310   7.570   9.294  0.1309  1.0508  0.1649
  897MOL0     H18341   8.134   7.440   9.345  0.1403 -0.0251  3.4216
  897MOL0     H18342   8.099   7.579   9.246  0.0185 -2.0700 -2.3111
  897MOL0     H18343   7.841   7.549   9.352 -0.9852 -3.3553  2.5657
  897MOL0     H18344   7.898   7.386   9.361  0.5076  1.0849  2.1270
  897MOL0     H18345   7.976   7.428   9.113 -1.4782 -0.2407  0.0949
  897MOL0     H18346   7.885   7.583   9.119  1.8461  0.1656 -1.8698
  897MOL0     H18347   7.767   7.304   9.161 -0.9107 -0.2279  1.5381
  897MOL0     H18348   7.676   7.464   9.173  0.0225 -1.6282  0.3408
  897MOL0     H18349   7.745   7.517   8.935  0.9737  0.5088 -0.9669
  897MOL0     H18350   7.619   7.392   8.964  1.5587 -1.2361 -2.0558
  897MOL0     H18351   7.777   7.212   8.931  1.6538 -1.0337  0.8202
  897MOL0     H18352   7.911   7.331   8.926 -1.0554  3.5354  1.5788
  897MOL0     H18353   7.702   7.358   8.710 -1.8331 -3.3108 -0.3934
  897MOL0     H18354   7.878   7.398   8.720 -0.8069 -1.0326 -4.1868
  897MOL0     H18355   7.754   7.115   8.707  0.0626  0.2441  0.1490
  897MOL0     H18356   7.922   7.160   8.733  0.0488  1.7104  0.1330
  897MOL0     H18357   7.629   7.210   8.479  0.6939 -0.6399 -1.2074
  897MOL0     H18358   7.791   7.338   8.149 -0.8910  1.8259  1.4782
  897MOL0     H18359   7.632   7.283   8.207 -1.2853 -4.8227  0.8410
  897MOL0     H18360   7.681   7.163   8.006  0.2920  4.3248  1.2810
  897MOL0     H18361   7.702   7.051   8.146 -0.0030 -0.6504 -0.7817
  897MOL0     H18362   7.916   7.215   7.988  2.2877 -1.3438  0.1499
  897MOL0     H18363   7.951   7.113   8.129 -2.1563 -0.8786  0.6350
  897MOL0     H18364   8.020   6.994   7.921  0.8770  2.1208 -2.9381
  897MOL0     H18365   7.885   7.054   7.831  1.6884  1.1083 -0.5565
  897MOL0     H18366   7.682   6.710   8.025  1.1032 -0.4674  1.3953
  897MOL0     H18367   7.703   6.474   7.969 -2.2149  1.3958 -0.7493
  897MOL0     H18368   8.135   6.142   7.571 -0.5568  3.1341  0.9903
  897MOL0     H18369   8.098   5.949   7.435  2.2157  0.2943  3.8306
  897MOL0     H18370   7.694   5.846   7.250 -1.1262 -1.9868 -0.3979
  897MOL0     H18371   7.674   5.790   7.414 -1.5070 -1.0137 -0.9588
  897MOL0     H18372   7.701   5.578   7.337  0.9690 -1.2849  0.3704
  897MOL0     H18373   7.868   5.619   7.336  0.8186  1.3451 -1.6407
  897MOL0     H18374   7.868   5.698   7.102 -0.0039 -1.3782  0.5606
  897MOL0     H18375   7.690   5.678   7.104  0.6405  0.9996  0.1611
  897MOL0     H18376   7.863   5.485   7.011 -3.2288  0.1884 -2.4149
  897MOL0     H18377   7.818   5.417   7.171 -3.9133 -0.4760  0.6764
  897MOL0     H18378   7.568   5.471   7.075 -0.2887  0.9450 -1.4928
  897MOL0     H18379   7.667   5.329   7.051  1.7341 -0.4737  2.1050
  897MOL0     H18380   7.729   5.412   6.838  0.4202 -1.8863  0.4532
  897MOL0     H18381   7.661   5.580   6.857 -1.2146  0.3773  1.4550
  897MOL0     H18382   7.438   5.484   6.874  0.9862  0.3511  2.9734
  897MOL0     H18383   7.521   5.441   6.720 -0.9478  0.1146 -0.1517
  897MOL0     H18384   7.469   5.248   6.948  2.5643  3.0240  1.2599
  897MOL0     H18385   7.594   5.224   6.834  0.7027  1.0544  2.3576
  897MOL0     H18386   7.670   6.016   7.447 -0.3594  0.3419 -1.8917
  897MOL0     H18387   7.695   6.206   7.590 -1.1387 -2.1974  2.3468
  897MOL0     H18388   8.008   6.571   7.689 -3.3788  0.7463 -2.8089
  897MOL0     H18389   8.015   6.808   7.769 -2.0399  1.6361 -1.2570
  897MOL0     H18390   8.175   7.724   9.659 -0.0596  1.4962 -1.8497
  897MOL0     H18391   8.407   7.742   9.741  0.6682 -0.5714 -0.3798
  897MOL0     H18392   8.793   7.789   9.750 -1.1420 -0.6836  0.2526
  897MOL0     H18393   9.017   7.809   9.860  0.0393  0.3788  0.5179
  897MOL0     H18394   9.239   7.605  10.028 -1.1845 -1.2318 -1.2556
  897MOL0     H18395   9.197   7.769   9.984  2.3533  0.0111  2.6911
  897MOL0     H18396   9.441   7.720  10.044  0.7366  2.2462 -0.3437
  897MOL0     H18397   9.448   7.661   9.873 -0.3828  0.1585  0.6453
  897MOL0     H18398   9.322   7.929   9.900  1.2490  1.7135 -2.3196
  897MOL0     H18399   9.447   7.877   9.800  0.2731  0.2437  0.9126
  897MOL0     H18400   9.615   7.888   9.943  0.6015  2.0808 -2.7997
  897MOL0     H18401   9.523   8.039   9.921 -2.6229 -0.6166 -1.1093
  897MOL0     H18402   9.499   7.945  10.338 -0.0498 -4.1893  0.5953
  897MOL0     H18403   9.135   7.449   9.654 -1.6048 -1.6502  1.7568
  897MOL0     H18404   8.908   7.419   9.588 -2.0660  1.0037  0.5229
  898MOL0     O18405   1.785  11.311  10.990 -0.4238  0.6544 -0.2113
  898MOL0     C18406   1.696  11.239  10.948  0.5685  0.8029  0.9005
  898MOL0     O18407   1.707  11.103  10.910 -0.7714  0.2842 -0.2000
  898MOL0     C18408   1.825  11.043  10.951  0.2645  0.5527  0.0790
  898MOL0     C18409   1.820  10.948  11.053 -0.1640 -0.9505  0.1759
  898MOL0     C18410   1.939  10.896  11.098  0.1453  0.1990 -0.1865
  898MOL0     C18411   2.056  10.898  11.022  0.2080 -0.9217 -0.0792
  898MOL0     O18412   2.166  10.803  11.047  0.3803  0.1059  0.2153
  898MOL0     C18413   2.214  10.786  11.186  0.1654 -0.4260  0.6164
  898MOL0     C18414   2.349  10.711  11.179  0.7108  0.1113 -0.3047
  898MOL0     C18415   2.347  10.569  11.124 -0.3967 -0.0320 -0.7027
  898MOL0     C18416   2.487  10.507  11.143  0.4981  0.3963 -0.3331
  898MOL0     C18417   2.471  10.377  11.075 -0.8238  0.2012  0.4083
  898MOL0     C18418   2.602  10.295  11.081 -0.0621  0.2672  0.5032
  898MOL0     C18419   2.699  10.330  10.960  0.6121  0.1032  0.3102
  898MOL0     C18420   2.663  10.261  10.829  0.3448 -0.3432 -0.7739
  898MOL0     N18421   2.728  10.320  10.709  0.1272 -0.7130 -0.3906
  898MOL0     C18422   2.684  10.432  10.638 -0.6214  0.8138  0.5277
  898MOL0     C18423   2.779  10.465  10.558  0.5959 -0.0384 -0.1516
  898MOL0     C18424   2.790  10.574  10.452 -0.3365 -0.3314  0.3924
  898MOL0     C18425   2.841  10.690  10.534 -0.2243  0.4841 -0.2299
  898MOL0     C18426   2.828  10.825  10.454  0.3433  0.6177  0.2147
  898MOL0     C18427   2.879  10.947  10.531  0.1459 -0.8126 -0.8882
  898MOL0     O18428   2.781  10.995  10.623  0.3793  0.9547  0.1767
  898MOL0     C18429   2.704  11.104  10.600 -0.1186  0.8820  0.0950
  898MOL0     C18430   2.677  11.155  10.466  1.2387  1.1713 -0.0445
  898MOL0     C18431   2.573  11.250  10.462  0.6720  0.2617 -0.3692
  898MOL0     C18432   2.522  11.318  10.571 -0.0019 -0.0953  0.6916
  898MOL0     C18433   2.438  11.440  10.555 -0.2993 -0.2102  1.0052
  898MOL0     O18434   2.451  11.503  10.442  0.3438 -0.2291  0.1600
  898MOL0     C18435   2.420  11.637  10.428 -0.4982 -0.1300 -0.3879
  898MOL0     C18436   2.290  11.667  10.398  1.1163 -0.2782 -0.5798
  898MOL0     C18437   2.251  11.800  10.360  0.5727 -0.0024  0.1525
  898MOL0     C18438   2.346  11.898  10.340 -0.6040 -0.0912  0.0710
  898MOL0     O18439   2.318  12.027  10.301 -0.6514  0.3172 -0.0754
  898MOL0     C18440   2.186  12.076  10.334 -0.0749 -0.0564  0.0230
  898MOL0     C18441   2.161  12.221  10.300  0.7250  0.1355  0.8203
  898MOL0     C18442   2.200  12.326  10.404  1.2648  0.9740 -0.0097
  898MOL0     C18443   2.347  12.321  10.437 -1.1145 -0.3780 -0.3992
  898MOL0     C18444   2.390  12.412  10.560 -0.5029 -0.9207  0.6167
  898MOL0     C18445   2.356  12.564  10.551  0.9851 -0.5512  0.3971
  898MOL0     C18446   2.456  12.652  10.619  0.2483 -0.3832 -0.0867
  898MOL0     C18447   2.407  12.791  10.635  0.1949 -0.5754  0.8698
  898MOL0    Cl18448   2.495  12.867  10.766 -0.5232 -0.0150  0.0578
  898MOL0     C18449   2.482  11.855  10.349  0.2389 -0.7553 -0.5503
  898MOL0     C18450   2.528  11.726  10.400 -1.0458  0.1088  0.6347
  898MOL0     O18451   2.356  11.476  10.640  0.7279 -0.8979  0.5756
  898MOL0     C18452   2.564  11.279  10.697  0.3806  0.1544 -0.2009
  898MOL0     C18453   2.650  11.163  10.707  0.4743 -0.5790  0.3649
  898MOL0     N18454   2.879  10.369  10.575  0.2275 -0.3890 -0.1226
  898MOL0     N18455   2.847  10.283  10.661  0.7049  0.4136  0.5535
  898MOL0     C18456   2.053  10.976  10.906 -0.0313  0.4149 -0.0614
  898MOL0     C18457   1.939  11.042  10.871  0.6415 -0.1785  0.4532
  898MOL0     C18458   1.570  11.316  10.902 -0.1923 -0.1249 -0.4150
  898MOL0     C18459   1.576  11.456  10.905  0.5838 -1.1551  0.3442
  898MOL0     C18460   1.459  11.523  10.875  0.6872 -1.1147 -0.9987
  898MOL0     C18461   1.335  11.460  10.839  0.9095  0.1862 -0.4535
  898MOL0     O18462   1.222  11.533  10.847  0.0752 -0.4797 -0.3092
  898MOL0     C18463   1.113  11.496  10.775 -0.2043  0.4162 -0.4043
  898MOL0     C18464   1.041  11.617  10.710  0.4981 -0.3300 -0.0162
  898MOL0     C18465   0.935  11.578  10.610  0.4861 -0.2030  0.2908
  898MOL0     C18466   0.915  11.705  10.525  0.2462  0.5931  0.1797
  898MOL0     C18467   1.024  11.705  10.432  0.0276 -1.0219 -0.3414
  898MOL0     C18468   1.119  11.714  10.364  0.3554 -0.0723  0.0034
  898MOL0     C18469   1.334  11.324  10.839  0.6287 -0.4925  0.1456
  898MOL0     C18470   1.453  11.249  10.872  0.0696  0.2696 -0.8234
  898MOL0     H18471   1.734  10.934  11.118 -0.4741 -1.0972 -0.2595
  898MOL0     H18472   1.934  10.851  11.197  0.4450  5.9104  2.8632
  898MOL0     H18473   2.137  10.742  11.249 -0.4580 -3.4225 -1.9644
  898MOL0     H18474   2.241  10.885  11.224  3.4067 -0.6589 -0.7144
  898MOL0     H18475   2.378  10.708  11.284 -4.6373  1.2966  1.5285
  898MOL0     H18476   2.402  10.778  11.110 -2.6833  0.5767 -2.7589
  898MOL0     H18477   2.318  10.564  11.019 -1.2206  1.5961 -0.5838
  898MOL0     H18478   2.271  10.512  11.178  1.8388 -1.1777  1.4589
  898MOL0     H18479   2.561  10.572  11.094 -2.1019  3.1454 -0.9447
  898MOL0     H18480   2.516  10.492  11.247 -2.1268  0.0582  0.4246
  898MOL0     H18481   2.444  10.383  10.969  0.5524  0.4794  0.0520
  898MOL0     H18482   2.391  10.323  11.127  1.1355 -3.3449  0.0929
  898MOL0     H18483   2.572  10.190  11.076 -0.7549  0.5063 -2.0586
  898MOL0     H18484   2.657  10.316  11.173 -1.5794  2.2134  1.0283
  898MOL0     H18485   2.698  10.438  10.945  1.4973 -0.1328 -1.7778
  898MOL0     H18486   2.799  10.297  10.989  0.9573  0.7008 -0.1800
  898MOL0     H18487   2.555  10.263  10.810  0.4377 -0.9449 -1.4119
  898MOL0     H18488   2.699  10.160  10.850 -0.2097 -0.2427  0.7652
  898MOL0     H18489   2.592  10.486  10.654  0.5577  2.4913  2.1809
  898MOL0     H18490   2.702  10.597  10.392  0.0224 -0.8568 -0.3548
  898MOL0     H18491   2.865  10.543  10.378  1.6801 -1.1603  2.6460
  898MOL0     H18492   2.944  10.671  10.565 -0.7442 -1.0712  0.6364
  898MOL0     H18493   2.780  10.697  10.626 -0.5581  1.2892 -0.5009
  898MOL0     H18494   2.869  10.816  10.353 -0.8930  2.8614 -0.5466
  898MOL0     H18495   2.722  10.846  10.437  0.7952  0.4453 -3.4900
  898MOL0     H18496   2.899  11.022  10.454  2.0776  0.4696  0.7639
  898MOL0     H18497   2.978  10.929  10.575 -0.6463  0.4457  1.5515
  898MOL0     H18498   2.709  11.112  10.372  2.0803 -1.9726  1.5302
  898MOL0     H18499   2.538  11.268  10.361 -1.2775 -1.0345  0.0271
  898MOL0     H18500   2.209  11.598  10.422 -0.3618  1.8106  0.8738
  898MOL0     H18501   2.145  11.823  10.354  0.3010 -1.5418 -2.1751
  898MOL0     H18502   2.168  12.042  10.436 -1.5462  1.7236  0.3935
  898MOL0     H18503   2.119  12.029  10.261 -1.0032  0.8870  0.2534
  898MOL0     H18504   2.054  12.216  10.277  0.4296 -0.0680  2.1247
  898MOL0     H18505   2.207  12.244  10.204  2.4613 -1.6857  1.1387
  898MOL0     H18506   2.145  12.300  10.495 -1.9650 -0.6206 -2.2279
  898MOL0     H18507   2.176  12.423  10.361  2.3291  0.7996 -1.0450
  898MOL0     H18508   2.368  12.214  10.452  1.9510  0.0578 -0.9363
  898MOL0     H18509   2.406  12.351  10.350  0.0556  1.6314  1.0184
  898MOL0     H18510   2.497  12.404  10.579 -0.6131 -3.0546  0.6245
  898MOL0     H18511   2.332  12.380  10.648 -0.0005  0.4728  1.4773
  898MOL0     H18512   2.258  12.591  10.591  0.7319 -0.2508 -0.4096
  898MOL0     H18513   2.360  12.594  10.446  1.2644  0.3568  0.6541
  898MOL0     H18514   2.477  12.600  10.713  1.7268 -2.3431 -1.3974
  898MOL0     H18515   2.554  12.659  10.571 -0.1317 -1.5098 -1.0823
  898MOL0     H18516   2.299  12.793  10.652 -0.0197  0.4126 -0.4441
  898MOL0     H18517   2.420  12.850  10.544  0.0694  2.0392  2.4347
  898MOL0     H18518   2.569  11.919  10.342  0.0874 -0.5832 -0.8888
  898MOL0     H18519   2.634  11.711  10.412 -1.2134 -1.4235  0.3738
  898MOL0     H18520   2.535  11.344  10.779 -1.5667  0.6670 -1.2283
  898MOL0     H18521   2.674  11.115  10.801 -0.4354 -3.6908 -0.8755
  898MOL0     H18522   2.141  10.965  10.844  1.8741 -2.0183  2.8099
  898MOL0     H18523   1.930  11.112  10.789 -0.3645  0.0574  0.7424
  898MOL0     H18524   1.658  11.510  10.953 -1.0715 -0.6480  2.7644
  898MOL0     H18525   1.463  11.630  10.895 -1.6301 -1.5411  2.6991
  898MOL0     H18526   1.041  11.437  10.833  1.0688 -3.2649 -2.2279
  898MOL0     H18527   1.147  11.427  10.697  1.2580  3.1873 -2.3896
  898MOL0     H18528   0.988  11.657  10.797 -0.8306 -1.9417 -0.0420
  898MOL0     H18529   1.129  11.671  10.671  1.1828 -1.4666 -0.0806
  898MOL0     H18530   0.843  11.550  10.662 -0.4401  0.6049 -0.8625
  898MOL0     H18531   0.964  11.494  10.547 -1.7691  0.5892 -1.9930
  898MOL0     H18532   0.822  11.700  10.468 -0.2003 -0.9573  0.9858
  898MOL0     H18533   0.920  11.796  10.585  1.7101  1.8744 -1.7942
  898MOL0     H18534   1.201  11.727  10.297  2.5000 -0.9631  2.2909
  898MOL0     H18535   1.241  11.271  10.822 -0.6709  1.5796  0.3413
  898MOL0     H18536   1.478  11.144  10.860  1.4065  0.8207 -3.3871
  899MOL0     O18537  10.528   0.269  10.590 -0.6569  0.1164  0.3993
  899MOL0     C18538  10.419   0.253  10.651 -0.2862  0.2041 -0.1100
  899MOL0     O18539  10.394   0.296  10.776 -0.1061 -0.3009 -0.0714
  899MOL0     C18540  10.499   0.372  10.839  0.8660 -0.1577  0.8418
  899MOL0     C18541  10.589   0.319  10.929  0.5698 -0.1193  0.4007
  899MOL0     C18542  10.677   0.397  11.000 -0.3290 -0.3558 -0.8707
  899MOL0     C18543  10.667   0.537  10.992 -0.5942 -0.0346 -0.6329
  899MOL0     O18544  10.752   0.608  11.079 -0.4433  0.0529  0.3432
  899MOL0     C18545  10.804   0.741  11.047 -1.2958 -0.7312  0.6694
  899MOL0     C18546  10.753   0.849  11.136 -0.1494 -0.4255  0.2010
  899MOL0     C18547  10.794   0.835  11.280  0.5926 -0.4170  0.0660
  899MOL0     C18548  10.683   0.890  11.369 -0.5498  0.1186 -0.0645
  899MOL0     C18549  10.699   0.825  11.508 -0.2955 -0.3586 -0.2109
  899MOL0     C18550  10.610   0.899  11.615 -0.8682 -0.3998  0.7749
  899MOL0     C18551  10.554   0.794  11.707 -0.0121  0.9117  0.1113
  899MOL0     C18552  10.488   0.862  11.826  0.7716 -1.1665 -0.5386
  899MOL0     N18553  10.355   0.926  11.806 -0.7529 -0.0089 -0.6835
  899MOL0     C18554  10.276   0.917  11.690 -0.4294  0.2130 -0.2468
  899MOL0     C18555  10.178   1.003  11.720  0.1488 -0.0928  0.1416
  899MOL0     C18556  10.064   1.049  11.614 -0.7346  0.3301 -0.7141
  899MOL0     C18557  10.002   1.186  11.654 -0.2503  0.1916 -0.5616
  899MOL0     C18558   9.926   1.266  11.547 -0.2454  0.2208  0.4089
  899MOL0     C18559   9.998   1.289  11.413 -0.8049 -0.1634 -0.5103
  899MOL0     O18560   9.930   1.398  11.343  1.0930  1.0029 -0.3503
  899MOL0     C18561   9.819   1.363  11.262 -1.1997  0.4312 -0.2551
  899MOL0     C18562   9.759   1.233  11.258  0.0532  0.3776 -0.3090
  899MOL0     C18563   9.646   1.211  11.179  0.0737  0.2083 -0.1584
  899MOL0     C18564   9.575   1.324  11.128  0.7631  0.2339  0.2037
  899MOL0     C18565   9.434   1.316  11.075 -0.7661 -0.2914 -0.5876
  899MOL0     O18566   9.362   1.195  11.081 -0.0351  0.1993 -0.2495
  899MOL0     C18567   9.234   1.196  11.057  0.1563 -0.6394 -0.1840
  899MOL0     C18568   9.135   1.263  11.132 -1.0162  0.9433  0.3852
  899MOL0     C18569   8.996   1.260  11.098 -0.6436  0.7850 -0.3663
  899MOL0     C18570   8.967   1.188  10.984  0.3215 -0.0898 -0.7660
  899MOL0     O18571   8.844   1.179  10.920  0.1943 -0.4474  0.2071
  899MOL0     C18572   8.729   1.242  10.983  0.5235  0.0066 -0.2824
  899MOL0     C18573   8.722   1.392  10.958 -0.5147 -1.3200  0.6835
  899MOL0     C18574   8.608   1.440  10.871 -0.2646 -0.0527 -0.3629
  899MOL0     C18575   8.469   1.458  10.935 -0.1815 -0.2010 -0.3247
  899MOL0     C18576   8.400   1.525  10.824  0.2490  0.1575  0.3705
  899MOL0     C18577   8.255   1.550  10.859  0.2304  0.0389  1.2916
  899MOL0     C18578   8.158   1.433  10.820 -0.3942 -0.0576  0.8049
  899MOL0     C18579   8.005   1.464  10.810 -0.6081 -0.3902 -0.9856
  899MOL0    Cl18580   7.935   1.325  10.719  0.1165  0.5931  0.0192
  899MOL0     C18581   9.064   1.122  10.913 -0.4096  0.9173  1.4194
  899MOL0     C18582   9.199   1.117  10.945  0.5313 -0.5017  0.3218
  899MOL0     O18583   9.390   1.419  11.022  1.1884 -0.3886 -0.3880
  899MOL0     C18584   9.643   1.446  11.131 -0.1709  0.4663 -0.8229
  899MOL0     C18585   9.761   1.466  11.200 -1.2288 -0.5792 -0.4039
  899MOL0     N18586  10.204   1.065  11.845 -0.1743 -0.7965  0.2505
  899MOL0     N18587  10.309   1.020  11.895  0.5974 -1.3280  0.6783
  899MOL0     C18588  10.581   0.598  10.893 -0.8785 -0.1107  0.1329
  899MOL0     C18589  10.502   0.512  10.812 -0.3999 -2.2013 -0.6643
  899MOL0     C18590  10.307   0.195  10.563 -0.8388 -0.1544 -0.1527
  899MOL0     C18591  10.174   0.198  10.612 -0.7383  0.2317 -0.1642
  899MOL0     C18592  10.081   0.131  10.541  0.0918 -0.2258  0.2489
  899MOL0     C18593  10.103   0.054  10.426 -0.1095 -1.0143 -0.3738
  899MOL0     O18594  10.018  -0.014  10.345 -0.3188 -0.2188  0.0661
  899MOL0     C18595   9.882  -0.047  10.384  0.3503 -0.7922 -1.0550
  899MOL0     C18596   9.797  -0.141  10.297  0.2524  0.9814  0.1176
  899MOL0     C18597   9.739  -0.263  10.372 -0.7599  0.5121  0.6303
  899MOL0     C18598   9.639  -0.216  10.475 -0.3974  0.0540 -0.3282
  899MOL0     C18599   9.592  -0.335  10.541  1.2390  0.3343 -0.0714
  899MOL0     C18600   9.552  -0.439  10.591 -0.2604  0.0685 -0.5898
  899MOL0     C18601  10.233   0.057  10.385  0.0528 -1.1940 -0.4201
  899MOL0     C18602  10.335   0.122  10.450  0.0878  0.6301  0.5503
  899MOL0     H18603  10.612   0.213  10.941  1.7348  0.0690  0.0279
  899MOL0     H18604  10.753   0.346  11.058 -2.7085  0.1829  3.1236
  899MOL0     H18605  10.763   0.775  10.952  0.6074  0.8651  0.3407
  899MOL0     H18606  10.913   0.739  11.060 -1.5076  1.4535  4.3206
  899MOL0     H18607  10.646   0.870  11.127 -0.1676  0.5833  2.2671
  899MOL0     H18608  10.799   0.940  11.097  0.5951 -1.0784 -0.4893
  899MOL0     H18609  10.884   0.894  11.299 -1.0515  2.3259 -0.1443
  899MOL0     H18610  10.807   0.729  11.303  2.2584  0.1133  1.8638
  899MOL0     H18611  10.676   0.999  11.378 -3.2262 -0.0594  0.9868
  899MOL0     H18612  10.578   0.879  11.339 -0.5349 -2.4982  0.5785
  899MOL0     H18613  10.804   0.831  11.536  0.0297  0.0941 -1.4332
  899MOL0     H18614  10.676   0.718  11.499 -1.1662 -0.2626  0.7375
  899MOL0     H18615  10.525   0.953  11.572 -0.0294  0.6143  0.3524
  899MOL0     H18616  10.676   0.974  11.658 -1.6158  0.3018  0.7285
  899MOL0     H18617  10.492   0.721  11.654  1.2035  0.2644 -0.4610
  899MOL0     H18618  10.638   0.744  11.755  0.7840  2.0235 -0.0870
  899MOL0     H18619  10.555   0.939  11.865 -1.1147  1.0254 -1.3717
  899MOL0     H18620  10.481   0.782  11.900  0.1703 -1.3672 -0.8033
  899MOL0     H18621  10.288   0.855  11.601  2.9604 -1.9128  1.4494
  899MOL0     H18622   9.986   0.972  11.612  0.0732 -0.5159 -0.5470
  899MOL0     H18623  10.104   1.049  11.512  1.8633 -1.7781  0.1628
  899MOL0     H18624  10.085   1.250  11.686  1.6153 -2.8496  1.0648
  899MOL0     H18625   9.942   1.176  11.744 -1.1630 -1.9103 -1.3576
  899MOL0     H18626   9.834   1.210  11.531 -0.5320  0.5121  1.0113
  899MOL0     H18627   9.897   1.366  11.581  0.6419  0.2391  1.1539
  899MOL0     H18628  10.012   1.204  11.346  1.7437 -0.2140  0.0063
  899MOL0     H18629  10.104   1.304  11.435 -0.8112 -2.6203  1.6362
  899MOL0     H18630   9.795   1.149  11.316  0.2884  1.4091  1.0834
  899MOL0     H18631   9.603   1.112  11.186 -1.0970  0.7272  0.3227
  899MOL0     H18632   9.177   1.321  11.213  0.1878  2.7303 -1.4156
  899MOL0     H18633   8.928   1.313  11.164 -1.1883 -1.2681  0.8091
  899MOL0     H18634   8.725   1.231  11.092  1.1772  0.8958 -0.1533
  899MOL0     H18635   8.640   1.192  10.945 -0.1495 -1.5679  3.0057
  899MOL0     H18636   8.821   1.426  10.924 -1.2626 -1.9891 -2.4635
  899MOL0     H18637   8.719   1.453  11.049  3.7106  2.6777 -1.4065
  899MOL0     H18638   8.588   1.374  10.787 -1.7056 -1.2001  0.8213
  899MOL0     H18639   8.628   1.540  10.832 -2.0740 -0.3866 -2.3102
  899MOL0     H18640   8.426   1.360  10.955  1.8252 -1.6487 -2.5535
  899MOL0     H18641   8.477   1.524  11.022  2.8509 -1.6307  0.6173
  899MOL0     H18642   8.407   1.475  10.727 -0.4007  0.5626  0.1098
  899MOL0     H18643   8.450   1.616  10.790  2.9266 -1.5320 -0.4984
  899MOL0     H18644   8.208   1.629  10.800  1.7063  0.0248  0.0458
  899MOL0     H18645   8.242   1.564  10.967  1.1090 -2.6804  1.8298
  899MOL0     H18646   8.201   1.408  10.722 -2.0025 -1.6739  0.4724
  899MOL0     H18647   8.164   1.355  10.896 -3.1832  0.9961  2.2144
  899MOL0     H18648   7.993   1.557  10.754  3.5936 -1.7962 -4.8608
  899MOL0     H18649   7.949   1.459  10.904  2.7183  1.1691  1.2983
  899MOL0     H18650   9.030   1.076  10.821  1.6665 -0.9349  1.5248
  899MOL0     H18651   9.268   1.072  10.875 -2.3280 -1.9765 -1.7420
  899MOL0     H18652   9.606   1.528  11.071 -2.2758 -1.2552 -2.0374
  899MOL0     H18653   9.806   1.561  11.229 -0.9759 -1.0838  0.9262
  899MOL0     H18654  10.564   0.705  10.892  0.6452  0.1610  0.3208
  899MOL0     H18655  10.443   0.551  10.730  2.1352 -1.5405 -2.2754
  899MOL0     H18656  10.143   0.241  10.707 -0.1285 -2.1530  1.1992
  899MOL0     H18657   9.976   0.127  10.570  0.0417  0.1461  0.1314
  899MOL0     H18658   9.819   0.042  10.398  2.0786  0.5736 -1.5349
  899MOL0     H18659   9.890  -0.085  10.486  2.5148 -0.5073 -1.0718
  899MOL0     H18660   9.720  -0.087  10.241  1.4360 -0.8552 -3.6075
  899MOL0     H18661   9.864  -0.182  10.221 -2.8897 -0.6179 -2.0380
  899MOL0     H18662   9.812  -0.338  10.405 -0.5928  0.7337  0.7706
  899MOL0     H18663   9.689  -0.335  10.306  0.7954 -0.6721  0.6773
  899MOL0     H18664   9.684  -0.146  10.546  1.4980  2.6416 -3.7909
  899MOL0     H18665   9.553  -0.165  10.430 -0.5647 -0.6439 -0.8214
  899MOL0     H18666   9.525  -0.528  10.644  0.5984  1.2924  2.1453
  899MOL0     H18667  10.242  -0.000  10.293  0.3473 -0.9786 -0.5242
  899MOL0     H18668  10.433   0.096  10.410 -0.6883 -1.9349  0.1515
  900MOL0     O18669   0.080   1.974  10.007  0.0033  0.0076  0.1760
  900MOL0     C18670   0.103   2.086  10.046  0.4259 -0.6093 -0.2407
  900MOL0     O18671   0.045   2.205  10.004  0.2987 -0.0896 -0.7520
  900MOL0     C18672  -0.064   2.204   9.921  0.7019 -0.7197  0.2066
  900MOL0     C18673  -0.153   2.096   9.886  0.0440  0.6769 -0.4996
  900MOL0     C18674  -0.260   2.111   9.795  0.3613 -0.7055 -1.0041
  900MOL0     C18675  -0.276   2.235   9.736  0.3906 -0.2106  0.3949
  900MOL0     O18676  -0.372   2.264   9.643  0.7074 -0.4490  0.6029
  900MOL0     C18677  -0.501   2.216   9.668  0.1109  0.2897 -1.3408
  900MOL0     C18678  -0.610   2.270   9.573 -1.0498  0.0302 -0.2374
  900MOL0     C18679  -0.731   2.322   9.655 -0.3210 -1.0726 -0.3785
  900MOL0     C18680  -0.841   2.362   9.554 -1.2861  0.0034  1.9250
  900MOL0     C18681  -0.950   2.257   9.520 -0.4054  0.3080  0.7223
  900MOL0     C18682  -1.091   2.330   9.480 -0.5646  0.2531 -0.0685
  900MOL0     C18683  -1.203   2.214   9.463  0.4819 -0.3922  0.8755
  900MOL0     C18684  -1.189   2.129   9.337 -0.7847 -1.2582  0.6884
  900MOL0     N18685  -1.294   2.016   9.347  0.2611  0.1348 -0.3378
  900MOL0     C18686  -1.429   2.020   9.343  0.5800  0.6307  0.7334
  900MOL0     C18687  -1.474   1.889   9.355 -0.5478 -0.1890  0.1372
  900MOL0     C18688  -1.614   1.831   9.346  0.4847  0.3780 -0.3001
  900MOL0     C18689  -1.673   1.833   9.194  0.1793  0.4471 -1.1936
  900MOL0     C18690  -1.821   1.828   9.186 -0.1929 -0.3088  0.2295
  900MOL0     C18691  -1.867   1.808   9.043  0.1387 -0.4143  0.5794
  900MOL0     O18692  -1.836   1.915   8.954 -0.1105 -0.0948  0.4722
  900MOL0     C18693  -1.886   2.044   8.968 -0.0786 -0.8099  0.4141
  900MOL0     C18694  -1.792   2.139   8.921 -0.5595  0.1583 -1.3428
  900MOL0     C18695  -1.820   2.280   8.933 -1.3361  0.6837 -0.5098
  900MOL0     C18696  -1.930   2.313   9.005  0.7043  0.5244  0.3607
  900MOL0     C18697  -1.965   2.460   9.012 -0.1401 -0.3896  0.6416
  900MOL0     O18698  -1.905   2.551   8.927  0.4562 -0.3369  0.1337
  900MOL0     C18699  -1.909   2.686   8.961  0.2512 -0.5955 -0.0119
  900MOL0     C18700  -1.897   2.723   9.099 -0.2897  0.5164  0.5155
  900MOL0     C18701  -1.918   2.862   9.128 -0.0881  0.0408  0.9009
  900MOL0     C18702  -1.943   2.958   9.027  0.0682  0.3409  0.7771
  900MOL0     O18703  -1.937   3.093   9.035 -0.3156 -0.2473 -0.7979
  900MOL0     C18704  -1.948   3.167   9.158 -0.4707  0.1856 -0.6943
  900MOL0     C18705  -2.042   3.283   9.121 -0.5468  0.1591 -0.3891
  900MOL0     C18706  -1.978   3.386   9.019  0.1851 -0.0430 -0.0192
  900MOL0     C18707  -2.055   3.518   9.009  1.0625  0.5881 -0.5011
  900MOL0     C18708  -2.062   3.592   8.878 -0.0057 -0.1122  0.3995
  900MOL0     C18709  -1.929   3.667   8.841  0.7480 -0.1199 -0.6217
  900MOL0     C18710  -1.820   3.581   8.765  0.2773 -0.1265 -0.5801
  900MOL0     C18711  -1.735   3.673   8.677 -0.2690 -0.5071 -0.1509
  900MOL0    Cl18712  -1.839   3.746   8.563  0.5909 -0.2816 -0.1171
  900MOL0     C18713  -1.947   2.917   8.896 -0.9444  0.0485  0.9656
  900MOL0     C18714  -1.940   2.786   8.866 -0.2304  0.5642  0.1946
  900MOL0     O18715  -2.066   2.482   9.077 -0.5974  0.3675  0.5916
  900MOL0     C18716  -2.015   2.217   9.059 -0.0197 -0.1804 -0.3496
  900MOL0     C18717  -2.003   2.077   9.035 -0.8369  0.2638 -0.8846
  900MOL0     N18718  -1.362   1.815   9.362  0.3858 -0.3113  0.4096
  900MOL0     N18719  -1.257   1.888   9.354  0.3717  0.1215  0.1052
  900MOL0     C18720  -0.210   2.345   9.775  0.2016  1.0329 -0.0289
  900MOL0     C18721  -0.104   2.329   9.866  0.9102 -0.9842  0.4745
  900MOL0     C18722   0.197   2.084  10.149  0.3330 -0.4449  0.1469
  900MOL0     C18723   0.273   1.966  10.183  0.2669  1.2141 -0.1046
  900MOL0     C18724   0.359   1.971  10.290  0.4802 -0.9386 -0.4806
  900MOL0     C18725   0.379   2.090  10.362 -1.4048  1.4818 -0.7152
  900MOL0     O18726   0.467   2.104  10.465 -0.0490 -0.8429 -0.1509
  900MOL0     C18727   0.592   2.041  10.447  1.0204 -0.6793 -1.4235
  900MOL0     C18728   0.696   2.103  10.541 -0.8239  0.8506  0.1343
  900MOL0     C18729   0.840   2.071  10.503  0.4069 -0.6750 -0.1513
  900MOL0     C18730   0.935   2.121  10.614  0.3443  0.4289 -0.7713
  900MOL0     C18731   1.074   2.079  10.583 -0.5579 -0.0171 -0.2573
  900MOL0     C18732   1.186   2.044  10.555  0.1403 -0.5608  0.7141
  900MOL0     C18733   0.304   2.195  10.336 -0.0650  0.8677  0.1555
  900MOL0     C18734   0.215   2.199  10.230 -0.5095 -1.0335  0.5962
  900MOL0     H18735  -0.122   1.998   9.919  3.8043  1.5615 -0.9147
  900MOL0     H18736  -0.320   2.026   9.765 -4.2469  1.4805  0.9629
  900MOL0     H18737  -0.523   2.212   9.775  1.7377 -2.1153 -1.0092
  900MOL0     H18738  -0.494   2.108   9.650  2.9609  0.2055 -0.1787
  900MOL0     H18739  -0.654   2.198   9.503  0.4165  1.1116 -2.3792
  900MOL0     H18740  -0.574   2.355   9.513  0.0818 -0.4503 -0.2490
  900MOL0     H18741  -0.703   2.405   9.720 -1.1944  0.2683 -1.6471
  900MOL0     H18742  -0.755   2.236   9.718 -1.0099 -0.6336 -0.0382
  900MOL0     H18743  -0.890   2.451   9.596 -1.2779  1.1463 -0.3386
  900MOL0     H18744  -0.797   2.396   9.460 -1.8577 -4.1662 -0.0841
  900MOL0     H18745  -0.954   2.180   9.597  0.0222  0.1127  0.5526
  900MOL0     H18746  -0.920   2.205   9.429  1.1261  1.8683  0.2842
  900MOL0     H18747  -1.089   2.409   9.404 -2.1432 -0.8006 -1.2675
  900MOL0     H18748  -1.128   2.386   9.566  2.8397  0.2089  1.5992
  900MOL0     H18749  -1.221   2.142   9.544  0.7764 -3.0945 -1.2833
  900MOL0     H18750  -1.297   2.267   9.448  0.7325 -0.5565 -1.8788
  900MOL0     H18751  -1.091   2.084   9.318  1.5014  3.5240 -0.3762
  900MOL0     H18752  -1.201   2.205   9.259 -0.1589  0.9713  2.6555
  900MOL0     H18753  -1.489   2.108   9.319  0.1698 -0.1356 -1.1944
  900MOL0     H18754  -1.681   1.888   9.410 -0.1951 -0.3925 -0.3043
  900MOL0     H18755  -1.606   1.728   9.382 -0.1584  0.0861 -0.9732
  900MOL0     H18756  -1.633   1.746   9.141  3.8008  1.7950 -0.9810
  900MOL0     H18757  -1.633   1.926   9.151 -1.0438  0.7909 -1.6318
  900MOL0     H18758  -1.851   1.742   9.247  1.8322 -0.7393  0.7045
  900MOL0     H18759  -1.864   1.923   9.218  1.4599 -0.5706  3.6564
  900MOL0     H18760  -1.976   1.797   9.041  0.1963 -1.1017 -1.5760
  900MOL0     H18761  -1.811   1.719   9.014  0.0702  0.0448 -1.0911
  900MOL0     H18762  -1.704   2.109   8.866 -0.6428  0.0772 -1.4328
  900MOL0     H18763  -1.760   2.352   8.879  1.3904  0.0765  1.4930
  900MOL0     H18764  -1.870   2.653   9.177 -2.2446 -0.4020  0.4136
  900MOL0     H18765  -1.898   2.890   9.231  0.0711  2.3986  0.2823
  900MOL0     H18766  -1.850   3.204   9.190  0.9725 -3.6516 -0.1054
  900MOL0     H18767  -1.975   3.103   9.243  0.5742  0.7602  0.0943
  900MOL0     H18768  -2.061   3.345   9.209  2.8349 -0.3026  0.8409
  900MOL0     H18769  -2.131   3.243   9.073 -2.6413  1.0768  2.4887
  900MOL0     H18770  -1.939   3.340   8.928  0.6823  0.1287  0.1024
  900MOL0     H18771  -1.886   3.434   9.055 -0.0053  0.5276 -0.2937
  900MOL0     H18772  -2.156   3.484   9.036  0.8094  1.9526  0.3541
  900MOL0     H18773  -2.028   3.582   9.094  2.0773  2.0709 -1.8991
  900MOL0     H18774  -2.131   3.676   8.890 -1.7115 -1.0603 -1.8511
  900MOL0     H18775  -2.086   3.526   8.794  1.3754  1.5139 -1.3811
  900MOL0     H18776  -1.885   3.697   8.936 -0.3614 -2.9240  0.8956
  900MOL0     H18777  -1.947   3.764   8.793 -1.3309  1.4243  2.8944
  900MOL0     H18778  -1.759   3.529   8.839 -1.0318  0.7383  1.2027
  900MOL0     H18779  -1.878   3.513   8.701 -1.3901  1.4591 -0.8447
  900MOL0     H18780  -1.657   3.612   8.630  2.0008 -1.1907  3.9722
  900MOL0     H18781  -1.685   3.749   8.738 -1.5026 -1.6075  2.3750
  900MOL0     H18782  -1.955   3.000   8.827  0.0906  0.9535  1.8961
  900MOL0     H18783  -1.944   2.753   8.763 -3.1344  0.0960  0.3762
  900MOL0     H18784  -2.104   2.240   9.116  0.7714 -3.0170  2.3318
  900MOL0     H18785  -2.060   2.001   9.087 -1.1628  1.6406  0.9029
  900MOL0     H18786  -0.248   2.433   9.724 -1.8412 -0.9249 -2.1176
  900MOL0     H18787  -0.038   2.414   9.882 -1.1119  1.7357 -3.7706
  900MOL0     H18788   0.280   1.870  10.134  3.1409  1.1969  0.1729
  900MOL0     H18789   0.414   1.880  10.313  2.3283 -0.0689 -1.2670
  900MOL0     H18790   0.628   2.044  10.344 -0.3684  3.4945 -1.9882
  900MOL0     H18791   0.572   1.935  10.459 -3.4900 -0.2491 -3.0501
  900MOL0     H18792   0.676   2.210  10.527 -3.4370  0.3916 -0.1663
  900MOL0     H18793   0.682   2.067  10.643  2.4699 -0.7566  0.1305
  900MOL0     H18794   0.858   2.109  10.402 -0.8353  0.7167  0.1251
  900MOL0     H18795   0.864   1.964  10.494  4.1627  0.0948 -1.1902
  900MOL0     H18796   0.920   2.227  10.639 -0.9807  0.4302 -1.4926
  900MOL0     H18797   0.922   2.059  10.703 -1.0638 -1.3306 -2.1249
  900MOL0     H18798   1.279   1.993  10.537 -0.7504 -1.9315 -0.1525
  900MOL0     H18799   0.321   2.286  10.393 -0.4518  0.0148  1.6749
  900MOL0     H18800   0.156   2.288  10.209 -1.5563 -2.3224 -2.6570
  901MOL0     O18801   9.030   3.272   3.429 -0.9496 -0.3496 -0.5206
  901MOL0     C18802   9.053   3.219   3.325 -0.2479  0.5025 -0.3201
  901MOL0     O18803   8.964   3.190   3.223 -0.9257 -0.3467  0.1707
  901MOL0     C18804   8.833   3.202   3.267 -0.1011  0.4210 -0.1474
  901MOL0     C18805   8.787   3.334   3.285  1.4033  0.7631 -0.3229
  901MOL0     C18806   8.655   3.359   3.331 -0.5230 -0.5795  1.0400
  901MOL0     C18807   8.570   3.252   3.357 -0.9852  0.0197  1.5561
  901MOL0     O18808   8.435   3.266   3.407 -0.8910 -0.0340  0.1339
  901MOL0     C18809   8.395   3.398   3.428  0.4121  0.8648  0.1817
  901MOL0     C18810   8.261   3.379   3.502  0.5321 -0.4650 -0.5829
  901MOL0     C18811   8.168   3.281   3.431  0.0599  0.0041 -0.0879
  901MOL0     C18812   8.040   3.275   3.500  0.5208  0.7039 -0.8285
  901MOL0     C18813   7.949   3.167   3.451 -0.1509  1.2087 -0.2357
  901MOL0     C18814   7.992   3.019   3.484  0.4894  0.1609 -0.7753
  901MOL0     C18815   7.873   2.930   3.445  0.0709  0.6864 -0.4310
  901MOL0     C18816   7.778   2.920   3.567 -0.4621 -0.4809  1.1304
  901MOL0     N18817   7.661   2.844   3.524 -1.7170 -0.1706  0.0940
  901MOL0     C18818   7.615   2.799   3.405 -0.3554 -0.7471  0.9485
  901MOL0     C18819   7.497   2.740   3.432  0.4467  0.6088 -0.2787
  901MOL0     C18820   7.409   2.678   3.330  1.4778  0.6747  0.9611
  901MOL0     C18821   7.387   2.522   3.356 -0.1429  0.3469  0.2379
  901MOL0     C18822   7.284   2.471   3.265  1.1390  0.4382  0.6622
  901MOL0     C18823   7.331   2.472   3.121  0.1466  0.5350 -0.1300
  901MOL0     O18824   7.226   2.433   3.029  0.3302  0.5035  0.4215
  901MOL0     C18825   7.252   2.417   2.898  0.3963 -0.8709 -0.6102
  901MOL0     C18826   7.171   2.345   2.822  0.0386  0.4223 -0.5037
  901MOL0     C18827   7.187   2.333   2.683 -0.2781 -0.6500  0.8019
  901MOL0     C18828   7.296   2.402   2.616  0.2421  1.1759 -0.4495
  901MOL0     C18829   7.317   2.387   2.475  0.4723  0.6892  0.3722
  901MOL0     O18830   7.337   2.501   2.407  0.3127 -0.0878 -1.2513
  901MOL0     C18831   7.343   2.495   2.269  0.4851  0.6117  0.1144
  901MOL0     C18832   7.243   2.565   2.191 -1.4147  1.3373 -0.9640
  901MOL0     C18833   7.230   2.544   2.051  0.8436  0.6433 -0.2950
  901MOL0     C18834   7.317   2.457   1.982 -0.1834 -0.3599 -0.0415
  901MOL0     O18835   7.286   2.440   1.848  0.6354 -0.1632 -0.3577
  901MOL0     C18836   7.349   2.325   1.785 -0.7316  0.3048  0.0842
  901MOL0     C18837   7.312   2.325   1.637 -0.1722  0.1961  0.3494
  901MOL0     C18838   7.346   2.182   1.579 -0.0804 -0.8893 -0.0403
  901MOL0     C18839   7.243   2.072   1.594  0.8186 -0.1465 -0.0673
  901MOL0     C18840   7.305   1.930   1.572  0.9622  0.3019  0.2088
  901MOL0     C18841   7.406   1.879   1.670  0.3397  0.2312 -0.3491
  901MOL0     C18842   7.474   1.748   1.615 -0.2271 -0.5131  0.2566
  901MOL0     C18843   7.623   1.771   1.573 -0.1997 -0.7459 -0.3261
  901MOL0    Cl18844   7.646   1.853   1.430  0.5117  0.3396  0.2703
  901MOL0     C18845   7.424   2.394   2.052 -0.6349 -0.1575  0.0783
  901MOL0     C18846   7.439   2.421   2.193 -0.0783 -0.1252  0.4472
  901MOL0     O18847   7.313   2.277   2.424  0.4002  0.1260 -0.4220
  901MOL0     C18848   7.381   2.469   2.697  0.2877  0.1146  0.1893
  901MOL0     C18849   7.368   2.472   2.840 -0.6721  0.6738 -0.0578
  901MOL0     N18850   7.471   2.761   3.560 -0.3897  0.8700 -0.0981
  901MOL0     N18851   7.568   2.817   3.613  0.0938 -0.6413 -0.4768
  901MOL0     C18852   8.622   3.120   3.349 -0.2415  1.2356 -0.1805
  901MOL0     C18853   8.756   3.101   3.320 -0.6215  0.2894  0.4516
  901MOL0     C18854   9.192   3.178   3.300  0.0929  0.3150  0.2319
  901MOL0     C18855   9.229   3.122   3.165  0.5918 -0.5611 -0.0238
  901MOL0     C18856   9.362   3.100   3.137  0.0015  0.0339  0.6987
  901MOL0     C18857   9.461   3.109   3.222  0.2812 -0.7992 -0.9688
  901MOL0     O18858   9.591   3.076   3.179  0.5743  0.4082 -0.3731
  901MOL0     C18859   9.696   3.072   3.283 -0.3991 -0.8628  0.0629
  901MOL0     C18860   9.773   3.207   3.305 -0.2294 -1.3858 -0.0640
  901MOL0     C18861   9.888   3.204   3.404  0.0172 -0.9308 -1.2286
  901MOL0     C18862   9.857   3.174   3.551 -0.2558 -0.7940 -0.7114
  901MOL0     C18863   9.849   3.028   3.576 -1.1997 -0.9693 -0.1856
  901MOL0     C18864   9.871   2.909   3.590  0.2663 -0.8907  0.6571
  901MOL0     C18865   9.430   3.176   3.353 -0.5857  0.4042 -0.5900
  901MOL0     C18866   9.297   3.203   3.392 -1.1354  0.3048 -0.2097
  901MOL0     H18867   8.850   3.419   3.263  0.6584  1.6073  0.7039
  901MOL0     H18868   8.617   3.460   3.333 -0.3481 -0.4761 -0.2563
  901MOL0     H18869   8.379   3.441   3.329 -1.8600 -1.9574 -0.7765
  901MOL0     H18870   8.465   3.454   3.492  1.1367  0.1541  0.0227
  901MOL0     H18871   8.216   3.478   3.511  1.8540  0.2666 -1.7298
  901MOL0     H18872   8.282   3.350   3.606  3.0728 -1.4171 -1.2843
  901MOL0     H18873   8.220   3.185   3.419 -0.0553  0.0720 -1.2063
  901MOL0     H18874   8.137   3.313   3.331  0.4784 -0.2867 -0.3156
  901MOL0     H18875   8.062   3.253   3.605  1.6691 -1.2735 -1.4387
  901MOL0     H18876   7.986   3.370   3.494  0.6020  0.7422 -0.9464
  901MOL0     H18877   7.946   3.175   3.342  3.4750 -1.0095 -0.6801
  901MOL0     H18878   7.853   3.192   3.496 -0.6887  2.1443 -1.8095
  901MOL0     H18879   8.017   2.996   3.588 -0.8919 -1.7259 -0.8130
  901MOL0     H18880   8.086   2.993   3.436 -1.6702  0.0479 -5.5220
  901MOL0     H18881   7.834   2.955   3.347 -2.4218  0.5001  0.4507
  901MOL0     H18882   7.917   2.830   3.435  1.3084  1.4321 -3.3773
  901MOL0     H18883   7.752   3.018   3.608  1.0378 -0.5419  2.3209
  901MOL0     H18884   7.832   2.878   3.652 -1.1099 -2.7478  0.4743
  901MOL0     H18885   7.673   2.789   3.314  1.0863 -0.8123  1.8502
  901MOL0     H18886   7.443   2.694   3.227  0.5343  0.2485  0.5771
  901MOL0     H18887   7.307   2.716   3.327  1.7925  1.6122 -2.8040
  901MOL0     H18888   7.346   2.503   3.455 -0.1676 -5.0917 -0.5252
  901MOL0     H18889   7.479   2.469   3.331 -0.0950 -0.3296  1.7695
  901MOL0     H18890   7.251   2.372   3.297 -3.0726  0.5846 -2.4360
  901MOL0     H18891   7.192   2.529   3.267  1.2585  0.6367  2.5801
  901MOL0     H18892   7.414   2.401   3.110  0.7445  0.9263  1.5926
  901MOL0     H18893   7.355   2.577   3.103 -0.8234  0.8828  0.4956
  901MOL0     H18894   7.098   2.286   2.877  1.7952 -1.1250  0.2727
  901MOL0     H18895   7.124   2.264   2.628 -2.2787 -0.8450  3.1602
  901MOL0     H18896   7.168   2.627   2.239 -2.5642 -1.3733  0.9821
  901MOL0     H18897   7.141   2.582   2.002  2.4574  1.1090 -3.0667
  901MOL0     H18898   7.305   2.239   1.838 -0.3504  0.6073  0.8980
  901MOL0     H18899   7.456   2.326   1.804 -0.8830  2.6762  1.1134
  901MOL0     H18900   7.384   2.393   1.591 -2.6702  5.3148  3.0497
  901MOL0     H18901   7.210   2.362   1.623 -0.5824  0.8881  3.9600
  901MOL0     H18902   7.434   2.147   1.634  2.2538  0.0822 -2.8789
  901MOL0     H18903   7.372   2.198   1.474  0.2817  2.5676  0.4373
  901MOL0     H18904   7.216   2.071   1.700 -0.4582 -1.6422 -0.3770
  901MOL0     H18905   7.160   2.075   1.522  0.8226  0.7458 -0.0442
  901MOL0     H18906   7.351   1.926   1.473 -2.1894 -0.4040 -1.3853
  901MOL0     H18907   7.216   1.866   1.564 -1.7745  4.0050 -3.5093
  901MOL0     H18908   7.366   1.857   1.769 -0.5021 -0.2253 -0.7790
  901MOL0     H18909   7.487   1.952   1.685  2.3694 -1.6550 -1.6009
  901MOL0     H18910   7.466   1.667   1.687  0.1251  0.8439  1.8797
  901MOL0     H18911   7.417   1.711   1.530 -0.4374 -1.2010  0.6931
  901MOL0     H18912   7.677   1.676   1.579 -1.6752 -1.7599 -2.1700
  901MOL0     H18913   7.669   1.840   1.645 -3.5196  3.9583 -2.1592
  901MOL0     H18914   7.497   2.329   2.007 -2.0048 -1.5566 -0.2280
  901MOL0     H18915   7.516   2.358   2.237  2.1460  1.6753 -0.6059
  901MOL0     H18916   7.464   2.528   2.659  0.4945 -1.6334 -2.3028
  901MOL0     H18917   7.440   2.532   2.893 -0.6675 -2.6556  4.2893
  901MOL0     H18918   8.565   3.034   3.382  0.0006  0.7602 -0.9879
  901MOL0     H18919   8.809   3.006   3.323 -1.2554 -0.1588 -1.2182
  901MOL0     H18920   9.157   3.104   3.085  1.0502  0.5355 -0.7048
  901MOL0     H18921   9.394   3.059   3.042  0.8170  0.2038  0.8989
  901MOL0     H18922   9.779   3.004   3.260 -1.3024 -2.5421  1.5167
  901MOL0     H18923   9.656   3.038   3.378  0.1693 -3.2054 -0.4787
  901MOL0     H18924   9.820   3.231   3.209 -0.2699 -0.7155  0.0788
  901MOL0     H18925   9.697   3.281   3.331 -1.8933 -2.4646 -1.5889
  901MOL0     H18926   9.927   3.304   3.425 -2.8415 -0.0137  0.2205
  901MOL0     H18927   9.968   3.135   3.375  2.4789  0.1189  2.2994
  901MOL0     H18928   9.939   3.212   3.612 -1.5030  1.0404 -0.0807
  901MOL0     H18929   9.763   3.225   3.573 -0.1728 -0.9863  0.0954
  901MOL0     H18930   9.891   2.806   3.611 -1.3789 -0.9426  2.3154
  901MOL0     H18931   9.504   3.195   3.430 -0.2741 -2.3879 -0.0849
  901MOL0     H18932   9.282   3.251   3.488 -2.5123  0.7220 -0.6029
  902MOL0     O18933   1.314   9.458  10.306  0.2507  0.1289  0.3031
  902MOL0     C18934   1.353   9.445  10.424  0.0034  0.0945 -1.1540
  902MOL0     O18935   1.348   9.327  10.495  0.0686  0.3491  0.2225
  902MOL0     C18936   1.336   9.226  10.413  0.3425  0.5710  0.4159
  902MOL0     C18937   1.450   9.143  10.374  0.2069  0.0488  0.0379
  902MOL0     C18938   1.425   9.043  10.287  0.0910  0.5641  0.5505
  902MOL0     C18939   1.299   9.020  10.224 -0.4708 -0.1330 -0.1796
  902MOL0     O18940   1.294   8.906  10.145 -0.2504 -0.3396  0.6288
  902MOL0     C18941   1.163   8.874  10.096  0.8861  0.5648 -0.5844
  902MOL0     C18942   1.096   8.941   9.979  1.1036  0.0692 -0.0849
  902MOL0     C18943   1.153   8.878   9.838 -0.1652 -0.4228  1.0665
  902MOL0     C18944   1.285   8.946   9.787 -0.1343 -0.4089 -0.2351
  902MOL0     C18945   1.267   9.007   9.648 -0.6251 -0.5104 -1.4893
  902MOL0     C18946   1.395   9.077   9.607  0.7769  0.2686  0.1243
  902MOL0     C18947   1.371   9.168   9.489 -0.3396 -0.9683 -1.3807
  902MOL0     C18948   1.413   9.110   9.360 -0.2643  0.2169  0.1351
  902MOL0     N18949   1.344   9.165   9.244  0.0855 -0.7600  0.1087
  902MOL0     C18950   1.336   9.298   9.214  0.8406 -0.6576  0.1362
  902MOL0     C18951   1.238   9.305   9.124 -0.5072  0.4534 -0.6396
  902MOL0     C18952   1.207   9.437   9.050  0.9771  0.9158 -0.6517
  902MOL0     C18953   1.114   9.534   9.120  0.0444  0.3047 -0.4705
  902MOL0     C18954   1.095   9.672   9.052 -0.9448  0.0512 -0.1268
  902MOL0     C18955   1.004   9.652   8.924 -0.4529  1.0165 -0.4041
  902MOL0     O18956   0.984   9.771   8.868 -0.5362 -0.2247  0.5159
  902MOL0     C18957   0.962   9.786   8.730 -0.7205 -0.7628  0.3157
  902MOL0     C18958   0.926   9.684   8.646  0.9575 -0.4777  0.4682
  902MOL0     C18959   0.932   9.707   8.505 -0.2872 -0.6869  0.0583
  902MOL0     C18960   0.938   9.839   8.445 -0.0667  1.1896 -0.2125
  902MOL0     C18961   0.937   9.854   8.296  0.2770  0.4818  0.2001
  902MOL0     O18962   1.019   9.944   8.240 -0.2212  0.2999  0.0447
  902MOL0     C18963   0.999   9.962   8.106 -0.0608  0.3154 -0.1975
  902MOL0     C18964   1.045   9.861   8.014 -0.7891 -0.0704  0.1392
  902MOL0     C18965   1.021   9.896   7.882 -0.6603  0.0812  0.5487
  902MOL0     C18966   0.969  10.017   7.836  0.5888 -0.0894 -0.7328
  902MOL0     O18967   0.961  10.036   7.706  0.1048  0.4602 -0.3704
  902MOL0     C18968   0.914  10.157   7.652 -0.6865  0.3859  0.4467
  902MOL0     C18969   0.950  10.162   7.499  0.8202 -0.1110 -0.4972
  902MOL0     C18970   1.105  10.164   7.478 -1.3965 -0.0354 -0.6748
  902MOL0     C18971   1.120  10.203   7.333 -0.4901 -0.2709 -0.1769
  902MOL0     C18972   1.268  10.204   7.294 -0.8021 -0.0930  2.0511
  902MOL0     C18973   1.339  10.321   7.340 -0.5451 -0.0606  0.4513
  902MOL0     C18974   1.489  10.328   7.301  0.4832  0.4492  0.7092
  902MOL0     C18975   1.544  10.459   7.331  0.5437 -0.2524 -0.6836
  902MOL0    Cl18976   1.431  10.608   7.299 -0.1429 -0.2384 -0.3000
  902MOL0     C18977   0.925  10.107   7.936  0.2909 -0.3242 -0.4617
  902MOL0     C18978   0.945  10.085   8.067  0.2365  0.7139  0.1901
  902MOL0     O18979   0.855   9.784   8.243  0.3208 -0.1515 -0.5640
  902MOL0     C18980   0.954   9.946   8.535 -0.3753 -0.4611  0.4978
  902MOL0     C18981   0.965   9.914   8.678  0.6104  0.0290 -0.1375
  902MOL0     N18982   1.175   9.190   9.112 -0.3011 -0.8087 -0.3297
  902MOL0     N18983   1.244   9.100   9.176 -0.9197  0.2590  0.0628
  902MOL0     C18984   1.193   9.110  10.254 -0.1624  0.3918  0.7533
  902MOL0     C18985   1.209   9.199  10.356 -1.0334 -0.7356  0.1148
  902MOL0     C18986   1.404   9.566  10.499  0.7740 -1.1918 -0.1190
  902MOL0     C18987   1.439   9.683  10.425  0.9302 -0.1802  0.6534
  902MOL0     C18988   1.508   9.791  10.481  1.0613 -0.1446 -0.0370
  902MOL0     C18989   1.524   9.801  10.621 -0.2396  0.3040 -0.0980
  902MOL0     O18990   1.597   9.905  10.673 -0.4493 -0.2819 -0.0054
  902MOL0     C18991   1.524   9.965  10.780 -0.7933  0.1039  0.2944
  902MOL0     C18992   1.622  10.023  10.884  0.8102 -0.3048 -0.0418
  902MOL0     C18993   1.540  10.101  11.002 -0.1005 -0.4209  0.1375
  902MOL0     C18994   1.611  10.108  11.137  0.3037 -0.0377 -0.1957
  902MOL0     C18995   1.635   9.972  11.184  0.0685 -0.1054 -0.1168
  902MOL0     C18996   1.676   9.866  11.227 -0.1516 -0.2237 -1.0044
  902MOL0     C18997   1.479   9.695  10.694  0.2302 -0.0493 -0.2868
  902MOL0     C18998   1.416   9.579  10.644  0.9977 -0.7593  0.6465
  902MOL0     H18999   1.547   9.165  10.417 -0.0080  0.4091  0.3451
  902MOL0     H19000   1.508   8.974  10.275 -0.9097 -1.0923  2.6583
  902MOL0     H19001   1.097   8.883  10.182 -0.7711 -0.9773 -1.6225
  902MOL0     H19002   1.164   8.767  10.073  1.5726  0.9917 -2.7495
  902MOL0     H19003   1.110   9.050   9.977  0.6536  0.3902  4.3980
  902MOL0     H19004   0.988   8.928   9.989  0.9665  1.8951  1.4144
  902MOL0     H19005   1.084   8.883   9.753  3.0557 -3.0297 -2.0315
  902MOL0     H19006   1.171   8.771   9.856  1.3626  0.0988  2.9205
  902MOL0     H19007   1.313   9.018   9.865 -2.2897  0.9018 -0.5693
  902MOL0     H19008   1.365   8.871   9.785 -0.3704 -0.7595  1.3759
  902MOL0     H19009   1.182   9.076   9.654  0.6182  0.9836  1.0288
  902MOL0     H19010   1.242   8.928   9.577 -0.5328 -3.4881  1.5153
  902MOL0     H19011   1.472   9.004   9.584 -0.8387 -2.0601  1.6379
  902MOL0     H19012   1.424   9.138   9.693  0.9735 -0.2746  0.4495
  902MOL0     H19013   1.266   9.198   9.487 -0.0454  0.3816  0.3530
  902MOL0     H19014   1.427   9.258   9.519 -0.8962 -0.4875 -1.7654
  902MOL0     H19015   1.395   9.002   9.354  0.3863  0.1663 -1.8887
  902MOL0     H19016   1.522   9.113   9.367 -0.3876  0.5420  2.9685
  902MOL0     H19017   1.407   9.365   9.259  0.0015 -0.4760  1.2216
  902MOL0     H19018   1.163   9.405   8.955  2.0027 -0.4991 -0.6862
  902MOL0     H19019   1.300   9.492   9.035 -0.1659  2.9301 -0.7631
  902MOL0     H19020   1.169   9.559   9.211  0.1365  1.6819 -0.8726
  902MOL0     H19021   1.025   9.486   9.161 -2.1220  3.1502 -1.4275
  902MOL0     H19022   1.047   9.730   9.131 -2.6534  1.2903 -1.9815
  902MOL0     H19023   1.193   9.712   9.026 -0.8209 -0.3614 -0.3070
  902MOL0     H19024   0.908   9.606   8.951 -0.1982 -0.2868 -1.6144
  902MOL0     H19025   1.047   9.577   8.857  0.2074 -0.2169  1.3192
  902MOL0     H19026   0.909   9.592   8.700 -0.1464 -1.0526 -0.8119
  902MOL0     H19027   0.931   9.626   8.434  3.3304 -1.0574  0.2382
  902MOL0     H19028   1.098   9.767   8.027  1.4339  0.4762 -3.4124
  902MOL0     H19029   1.038   9.825   7.802  0.1813  2.6087 -1.6917
  902MOL0     H19030   0.963  10.238   7.709  0.5851 -1.9596  2.9325
  902MOL0     H19031   0.805  10.162   7.650 -0.6272  1.5831 -1.3079
  902MOL0     H19032   0.903  10.251   7.456 -0.9307  0.0348  1.5855
  902MOL0     H19033   0.909  10.076   7.446  0.1752  0.7620 -1.4513
  902MOL0     H19034   1.148  10.065   7.497 -2.1954 -0.0204  1.5253
  902MOL0     H19035   1.147  10.250   7.531  1.9520  1.9506 -5.7591
  902MOL0     H19036   1.065  10.129   7.275 -0.8314 -1.8243  2.0211
  902MOL0     H19037   1.080  10.305   7.336  1.5153  0.5428  1.5321
  902MOL0     H19038   1.269  10.192   7.185 -2.4364 -0.3752  2.0436
  902MOL0     H19039   1.321  10.118   7.336  3.5992  1.5397  0.4237
  902MOL0     H19040   1.314  10.327   7.447 -1.9685  0.5820  0.1104
  902MOL0     H19041   1.288  10.412   7.305  0.1786 -0.9306 -3.2744
  902MOL0     H19042   1.550  10.243   7.332 -0.8363 -0.0536  2.0583
  902MOL0     H19043   1.490  10.319   7.192  0.0123  1.0043  0.6521
  902MOL0     H19044   1.637  10.463   7.273 -0.0013 -2.9499 -1.8894
  902MOL0     H19045   1.580  10.446   7.434 -2.0190  3.4366  0.9165
  902MOL0     H19046   0.871  10.196   7.902  2.1605  0.4968 -1.4157
  902MOL0     H19047   0.914  10.163   8.136 -1.2104  1.8386 -1.6493
  902MOL0     H19048   0.978  10.043   8.494  1.6624 -1.4884 -0.9193
  902MOL0     H19049   0.972   9.996   8.749  1.3214 -1.3840  1.4963
  902MOL0     H19050   1.099   9.096  10.201  0.0232  1.2139  0.1813
  902MOL0     H19051   1.128   9.265  10.386 -1.3654 -1.1976  0.2506
  902MOL0     H19052   1.419   9.673  10.319  0.6497  1.2085  0.5553
  902MOL0     H19053   1.540   9.877  10.423  1.8845 -0.6513 -0.3740
  902MOL0     H19054   1.470   9.897  10.845 -0.5968  1.4479  1.9490
  902MOL0     H19055   1.459  10.045  10.744  1.7090  1.3986 -1.6999
  902MOL0     H19056   1.680   9.944  10.932 -0.6583 -0.2399  1.9828
  902MOL0     H19057   1.687  10.086  10.824  1.4792 -3.8276 -3.4063
  902MOL0     H19058   1.440  10.055  11.003  0.0885 -0.8971  1.8946
  902MOL0     H19059   1.530  10.207  10.979 -0.7098 -0.0789  1.8363
  902MOL0     H19060   1.700  10.170  11.124 -1.3790  2.2570 -1.8109
  902MOL0     H19061   1.549  10.161  11.210 -0.1437  0.3771 -0.8555
  902MOL0     H19062   1.718   9.773  11.262  2.8133  0.9343 -1.1618
  902MOL0     H19063   1.511   9.681  10.797  2.8277  2.8264 -0.5801
  902MOL0     H19064   1.408   9.488  10.701  0.7697 -1.2170 -0.0991
  903MOL0     O19065   0.146   3.999   9.898 -0.4020  0.4950 -0.2073
  903MOL0     C19066   0.107   3.916   9.983 -0.0640  0.3769  0.1035
  903MOL0     O19067   0.050   3.950  10.105 -0.9358 -0.0098  0.4848
  903MOL0     C19068  -0.010   4.071  10.119  0.1138 -0.0615  0.8126
  903MOL0     C19069  -0.140   4.106  10.073 -0.5817  0.0513 -0.1644
  903MOL0     C19070  -0.190   4.243  10.090 -0.6818  1.0329  1.3186
  903MOL0     C19071  -0.111   4.336  10.165 -0.5983 -0.4391  0.7537
  903MOL0     O19072  -0.157   4.466  10.191 -0.0111  0.5925  0.1372
  903MOL0     C19073  -0.060   4.568  10.239 -0.0671 -0.1809  0.1303
  903MOL0     C19074   0.031   4.619  10.122 -0.2980 -0.8330  0.3781
  903MOL0     C19075   0.017   4.773  10.104 -0.9534 -0.4086 -0.0751
  903MOL0     C19076   0.134   4.836  10.026  1.1718  0.3217  0.4697
  903MOL0     C19077   0.262   4.853  10.107 -0.0320  0.0781  0.7870
  903MOL0     C19078   0.370   4.917  10.016  0.6694 -0.3126 -0.3527
  903MOL0     C19079   0.505   4.910  10.093  0.1429  0.2956  0.3548
  903MOL0     C19080   0.620   4.895  10.003  0.0368 -0.3520  0.3909
  903MOL0     N19081   0.743   4.853  10.073 -0.0450  1.0611  0.1756
  903MOL0     C19082   0.823   4.949  10.136  0.8326 -0.3914 -0.1586
  903MOL0     C19083   0.925   4.873  10.191 -0.0514  0.8918  0.2124
  903MOL0     C19084   1.048   4.925  10.260 -0.1653  0.6691  0.3975
  903MOL0     C19085   1.022   4.928  10.414  0.3695  0.8638 -0.3117
  903MOL0     C19086   1.065   5.056  10.484  0.1912 -0.7823 -0.0138
  903MOL0     C19087   1.208   5.074  10.490 -1.0902  0.0635 -0.5478
  903MOL0     O19088   1.222   5.199  10.560  0.5736  0.2023  0.1344
  903MOL0     C19089   1.300   5.208  10.662 -1.1469  0.5923 -0.4916
  903MOL0     C19090   1.237   5.230  10.783  0.0833  1.1019 -0.1572
  903MOL0     C19091   1.311   5.243  10.899  0.1661  0.0599 -1.0443
  903MOL0     C19092   1.459   5.236  10.885 -0.7778 -0.4639 -0.1412
  903MOL0     C19093   1.547   5.234  11.009  0.6662  1.0262  0.0325
  903MOL0     O19094   1.481   5.241  11.132  0.7415  0.0650  0.1049
  903MOL0     C19095   1.527   5.218  11.254  0.3094  0.4634  0.1237
  903MOL0     C19096   1.657   5.227  11.300 -0.4999 -0.4430 -0.6678
  903MOL0     C19097   1.682   5.229  11.444  0.2933 -0.5492  1.6189
  903MOL0     C19098   1.572   5.218  11.532 -0.6339  0.2833  0.7410
  903MOL0     O19099   1.583   5.237  11.669  0.3325 -0.4080  0.8702
  903MOL0     C19100   1.692   5.307  11.725  0.3796 -0.0525  0.5481
  903MOL0     C19101   1.673   5.327  11.873 -0.3491 -0.5049 -0.6899
  903MOL0     C19102   1.565   5.427  11.906 -0.6260 -0.2637 -0.4973
  903MOL0     C19103   1.554   5.452  12.060  1.0180  0.6097  0.5273
  903MOL0     C19104   1.437   5.548  12.112 -0.7955  0.4887 -1.2286
  903MOL0     C19105   1.442   5.556  12.268  0.1122  0.2930  0.4110
  903MOL0     C19106   1.523   5.668  12.335 -0.8347  0.4172 -0.4314
  903MOL0     C19107   1.593   5.626  12.464 -0.3118 -0.1498  0.8354
  903MOL0    Cl19108   1.476   5.567  12.584  0.4126 -0.4282 -0.0015
  903MOL0     C19109   1.442   5.211  11.484 -0.3484  0.2042  0.1643
  903MOL0     C19110   1.421   5.201  11.343  0.7701 -1.3099 -0.4126
  903MOL0     O19111   1.665   5.207  10.996  0.1855  0.0373  0.0147
  903MOL0     C19112   1.526   5.218  10.761 -0.1058  0.5491 -0.8059
  903MOL0     C19113   1.446   5.206  10.656  1.0193  0.3296  0.3703
  903MOL0     N19114   0.899   4.737  10.156 -0.7046  0.5632 -0.9484
  903MOL0     N19115   0.791   4.727  10.088 -0.1728  1.8096  0.1526
  903MOL0     C19116   0.017   4.293  10.204  0.1627 -0.0429  0.5045
  903MOL0     C19117   0.065   4.164  10.187 -0.1476 -0.5609 -0.1763
  903MOL0     C19118   0.119   3.775   9.946  0.9296  1.2207 -0.3744
  903MOL0     C19119   0.047   3.675  10.028 -0.0866  0.2485  0.5303
  903MOL0     C19120   0.058   3.544   9.982  0.2019  0.1457 -0.0519
  903MOL0     C19121   0.126   3.507   9.870 -0.3637  0.5159 -0.2755
  903MOL0     O19122   0.114   3.373   9.830 -1.1136 -0.0973  0.1875
  903MOL0     C19123   0.211   3.288   9.884  0.8702 -0.3273 -0.4445
  903MOL0     C19124   0.144   3.226  10.017 -1.4071  0.0031 -1.3289
  903MOL0     C19125   0.245   3.113  10.070 -0.4178  0.9372  0.4658
  903MOL0     C19126   0.199   3.041  10.197 -0.9565  0.3015 -0.2530
  903MOL0     C19127   0.321   2.999  10.274 -0.5423 -0.3269  0.7916
  903MOL0     C19128   0.411   2.964  10.346 -0.8277 -0.1127  0.2106
  903MOL0     C19129   0.200   3.609   9.799  0.2430  0.2762 -0.2258
  903MOL0     C19130   0.202   3.738   9.839 -0.5073 -0.2864 -0.1033
  903MOL0     H19131  -0.203   4.035  10.020  3.1300 -1.6033 -2.8096
  903MOL0     H19132  -0.293   4.259  10.058 -0.8747 -2.4186 -0.1526
  903MOL0     H19133  -0.004   4.523  10.321 -0.9002 -1.2884  0.1086
  903MOL0     H19134  -0.108   4.657  10.279  0.2877 -0.5716  1.4558
  903MOL0     H19135   0.026   4.565  10.027  3.0743  0.1692 -0.5321
  903MOL0     H19136   0.133   4.598  10.156  0.3692 -2.3532 -2.2764
  903MOL0     H19137   0.006   4.821  10.201  0.4685  0.7516 -0.4574
  903MOL0     H19138  -0.065   4.803  10.037  1.4765  0.6864 -2.7583
  903MOL0     H19139   0.154   4.767   9.944 -0.2795  0.6421 -0.1859
  903MOL0     H19140   0.104   4.938  10.000  1.3444  0.2340 -0.0896
  903MOL0     H19141   0.283   4.750  10.135 -1.9822 -0.4476  0.4474
  903MOL0     H19142   0.244   4.907  10.200  1.9922 -1.0691  1.9060
  903MOL0     H19143   0.332   5.015   9.985 -1.3278  0.2191  3.2869
  903MOL0     H19144   0.365   4.857   9.925 -1.6069 -0.0537 -0.4476
  903MOL0     H19145   0.515   4.990  10.167  0.5074 -1.0802  1.8700
  903MOL0     H19146   0.498   4.823  10.159 -2.6910  0.3611  0.2541
  903MOL0     H19147   0.640   4.992   9.956  1.9921  0.3967  2.5635
  903MOL0     H19148   0.605   4.813   9.933 -0.3394  0.0211  0.0293
  903MOL0     H19149   0.809   5.057  10.133 -1.9460 -0.6909 -0.8281
  903MOL0     H19150   1.079   5.022  10.221  0.4231  0.2765 -0.1347
  903MOL0     H19151   1.133   4.857  10.244 -1.5780 -1.5562  1.7140
  903MOL0     H19152   1.076   4.851  10.469  1.3953  0.9237 -1.2079
  903MOL0     H19153   0.916   4.906  10.430 -0.3997  2.9576 -1.9788
  903MOL0     H19154   0.993   5.135  10.458 -0.5943 -1.2751  0.6422
  903MOL0     H19155   1.031   5.034  10.585  0.9035  0.4131  0.5222
  903MOL0     H19156   1.260   5.063  10.394  0.3735 -0.5702  0.2863
  903MOL0     H19157   1.262   4.998  10.546 -1.0668 -0.3439 -1.1208
  903MOL0     H19158   1.129   5.221  10.795  0.3605 -1.2360  1.1442
  903MOL0     H19159   1.265   5.249  10.997 -0.9190  3.2621 -1.6193
  903MOL0     H19160   1.746   5.246  11.240 -1.9464  5.9929 -1.4083
  903MOL0     H19161   1.784   5.247  11.479  1.0301 -1.8863  0.3032
  903MOL0     H19162   1.707   5.408  11.685 -0.2220  0.7436  2.2322
  903MOL0     H19163   1.786   5.256  11.706  0.6402  0.5719  0.1443
  903MOL0     H19164   1.771   5.359  11.909  1.2472 -3.6721 -1.8594
  903MOL0     H19165   1.637   5.235  11.921 -0.8510 -1.2284 -2.3679
  903MOL0     H19166   1.469   5.394  11.868  0.1587 -0.4476 -2.4035
  903MOL0     H19167   1.595   5.521  11.860  2.6353 -0.3056  1.2172
  903MOL0     H19168   1.533   5.352  12.099 -1.7339  0.4824 -1.0092
  903MOL0     H19169   1.656   5.477  12.089  1.2651  1.1722 -0.7912
  903MOL0     H19170   1.337   5.507  12.093 -2.2316  1.7998  2.5513
  903MOL0     H19171   1.445   5.649  12.070  2.2274  1.1932  0.7544
  903MOL0     H19172   1.475   5.460  12.308 -0.1314 -0.9213 -2.0960
  903MOL0     H19173   1.341   5.572  12.305 -0.4944 -4.7461  1.6782
  903MOL0     H19174   1.596   5.717  12.270  0.1869 -0.2631  0.1647
  903MOL0     H19175   1.458   5.753  12.359 -1.4941 -0.7279  2.1622
  903MOL0     H19176   1.651   5.702  12.518 -2.0001  1.1390  0.9406
  903MOL0     H19177   1.652   5.539  12.434 -1.0725  0.5306 -3.1700
  903MOL0     H19178   1.354   5.197  11.545 -1.5999 -2.4948 -2.0558
  903MOL0     H19179   1.314   5.201  11.321 -0.1086 -1.2851  3.1835
  903MOL0     H19180   1.632   5.196  10.752 -0.5932 -1.6950 -1.8172
  903MOL0     H19181   1.484   5.194  10.555 -0.0227 -0.2197  0.0340
  903MOL0     H19182   0.076   4.375  10.245 -3.2415  1.4334  2.9326
  903MOL0     H19183   0.163   4.135  10.224  0.0967 -1.0276 -1.1602
  903MOL0     H19184   0.001   3.706  10.121 -1.5762 -1.6182  0.4760
  903MOL0     H19185  -0.003   3.469  10.031 -2.1880  1.0605 -1.4586
  903MOL0     H19186   0.302   3.345   9.903  1.9285 -1.3090 -2.3031
  903MOL0     H19187   0.228   3.199   9.822  1.2037 -0.5634 -0.0217
  903MOL0     H19188   0.127   3.301  10.095  0.5351  1.3026 -2.0751
  903MOL0     H19189   0.046   3.186   9.989 -2.5651  1.2047  0.7367
  903MOL0     H19190   0.346   3.148  10.090  0.8568 -1.3851 -1.3910
  903MOL0     H19191   0.254   3.042   9.987  2.3359  2.2239 -0.4412
  903MOL0     H19192   0.140   3.107  10.261 -1.9441 -0.4964 -0.3227
  903MOL0     H19193   0.137   2.954  10.172 -4.0055  2.2028  0.1900
  903MOL0     H19194   0.479   2.929  10.420  1.4542  1.5673 -0.9581
  903MOL0     H19195   0.257   3.590   9.708  1.7471  2.8638  0.0455
  903MOL0     H19196   0.261   3.811   9.784  0.4414  0.7573  2.1640
  904MOL0     O19197   8.931   6.214   7.267 -0.2441 -0.0519  0.3272
  904MOL0     C19198   8.839   6.210   7.347 -0.2542  0.9798  0.5573
  904MOL0     O19199   8.856   6.183   7.479  0.2833 -0.6982 -0.1885
  904MOL0     C19200   8.967   6.133   7.546 -0.3067  0.8251 -0.6882
  904MOL0     C19201   8.937   6.072   7.673  0.0217 -0.5354  1.1885
  904MOL0     C19202   9.039   6.009   7.736 -0.7286  0.3023 -0.7032
  904MOL0     C19203   9.178   6.012   7.694  0.5402  0.6634 -0.4767
  904MOL0     O19204   9.282   5.941   7.761  0.2725  0.3856  0.9042
  904MOL0     C19205   9.231   5.837   7.846  0.4740  0.2079  1.3600
  904MOL0     C19206   9.353   5.768   7.905  0.6496 -0.7953 -0.0310
  904MOL0     C19207   9.444   5.720   7.797 -0.2337  0.3053 -0.4101
  904MOL0     C19208   9.541   5.608   7.851  1.0783  0.0301  0.8325
  904MOL0     C19209   9.598   5.527   7.747 -1.1558 -0.0616  0.4163
  904MOL0     C19210   9.692   5.615   7.665  0.4704  0.0062 -0.2790
  904MOL0     C19211   9.795   5.526   7.589 -0.1617  1.1773 -0.8093
  904MOL0     C19212   9.899   5.600   7.520 -0.0420 -0.0567  0.1822
  904MOL0     N19213  10.007   5.507   7.472 -0.7859 -0.5211  0.8635
  904MOL0     C19214  10.142   5.534   7.498  0.7003  1.2911 -0.0185
  904MOL0     C19215  10.209   5.423   7.453  0.4359 -1.0435 -0.2425
  904MOL0     C19216  10.362   5.410   7.455 -0.1784 -0.3382 -0.2049
  904MOL0     C19217  10.416   5.382   7.600 -0.2457 -0.3818  0.4214
  904MOL0     C19218  10.342   5.271   7.678 -0.7225  0.3925  0.2764
  904MOL0     C19219  10.409   5.227   7.805 -1.0796 -0.7696 -0.1938
  904MOL0     O19220  10.536   5.165   7.778  0.4029  0.1365  0.0974
  904MOL0     C19221  10.540   5.039   7.813 -0.7274  0.2525 -0.1285
  904MOL0     C19222  10.605   4.997   7.928  0.2458  0.1255 -0.2172
  904MOL0     C19223  10.611   4.859   7.964  0.2082 -0.6152  0.3242
  904MOL0     C19224  10.574   4.754   7.876 -0.5965 -0.8339  0.2066
  904MOL0     C19225  10.571   4.618   7.935 -0.7035 -0.3742 -0.3925
  904MOL0     O19226  10.452   4.554   7.923 -1.9363 -0.6922  0.9765
  904MOL0     C19227  10.440   4.422   7.950  0.4709 -0.7476  0.1604
  904MOL0     C19228  10.317   4.367   7.926  0.3847  0.0405 -0.5776
  904MOL0     C19229  10.293   4.230   7.921  0.2335  0.1723 -0.2404
  904MOL0     C19230  10.392   4.141   7.951 -0.3039  0.2376 -0.0116
  904MOL0     O19231  10.358   4.005   7.953  0.5054 -0.6243  0.4128
  904MOL0     C19232  10.429   3.916   7.869  0.0639 -0.1730 -0.6812
  904MOL0     C19233  10.357   3.921   7.731  0.9281  0.0058  0.3145
  904MOL0     C19234  10.416   3.827   7.629  0.5854  0.0915  0.9758
  904MOL0     C19235  10.570   3.841   7.624  0.8156  0.1696  0.0500
  904MOL0     C19236  10.600   3.753   7.505 -0.2455 -0.9149  1.1564
  904MOL0     C19237  10.751   3.741   7.484 -0.1902  0.7838  0.3911
  904MOL0     C19238  10.778   3.632   7.380 -0.2827 -0.5786 -0.5173
  904MOL0     C19239  10.933   3.603   7.386  0.4261  0.0926 -0.2228
  904MOL0    Cl19240  11.027   3.725   7.281  0.0051 -0.0719  0.0554
  904MOL0     C19241  10.512   4.187   7.991 -0.0294 -0.0082  0.3413
  904MOL0     C19242  10.540   4.326   7.987  0.1895  0.1236  0.8191
  904MOL0     O19243  10.682   4.569   7.958 -0.7527 -0.7234 -0.1525
  904MOL0     C19244  10.515   4.793   7.757 -0.2599 -0.2420  0.5807
  904MOL0     C19245  10.497   4.932   7.730  0.6677  0.9831 -0.2742
  904MOL0     N19246  10.113   5.337   7.393 -0.2295  0.2259 -1.0771
  904MOL0     N19247   9.990   5.382   7.410 -0.1177 -0.0332 -0.4798
  904MOL0     C19248   9.210   6.075   7.573 -0.0762 -0.2052  0.1207
  904MOL0     C19249   9.098   6.128   7.499 -0.0729  0.2173 -0.4136
  904MOL0     C19250   8.706   6.233   7.301  0.4944 -0.1847 -1.0456
  904MOL0     C19251   8.593   6.235   7.378  0.2370 -0.0598 -0.0529
  904MOL0     C19252   8.460   6.270   7.331 -0.7179  0.0128 -0.1496
  904MOL0     C19253   8.437   6.311   7.198  0.5013  0.3059  0.1499
  904MOL0     O19254   8.309   6.337   7.156 -0.0401  0.2265 -0.4602
  904MOL0     C19255   8.281   6.396   7.019 -1.1750 -0.1676  0.1366
  904MOL0     C19256   8.127   6.401   7.000 -0.3938 -0.0612 -0.1880
  904MOL0     C19257   8.062   6.258   7.006 -0.8167  0.6021 -1.0501
  904MOL0     C19258   8.109   6.161   6.894  0.3416 -0.4116 -0.4681
  904MOL0     C19259   8.117   6.219   6.758  0.0728  0.5060  0.3268
  904MOL0     C19260   8.113   6.287   6.647  0.1800 -0.1501  0.0546
  904MOL0     C19261   8.551   6.302   7.115 -0.2573  0.5030 -0.8331
  904MOL0     C19262   8.677   6.276   7.168  0.4227 -0.5858 -0.6935
  904MOL0     H19263   8.838   6.065   7.717  0.4645  0.0432  2.3165
  904MOL0     H19264   9.011   5.951   7.824  3.8973 -0.4109  0.5329
  904MOL0     H19265   9.180   5.761   7.785  1.6000  0.8210 -0.4363
  904MOL0     H19266   9.173   5.884   7.926 -2.0796  2.2468 -1.4410
  904MOL0     H19267   9.327   5.674   7.955 -1.1688  0.7455  2.1530
  904MOL0     H19268   9.397   5.824   7.988  2.7545 -0.4967 -1.2903
  904MOL0     H19269   9.507   5.801   7.761  0.9881 -0.8604 -0.9842
  904MOL0     H19270   9.381   5.677   7.719 -2.1288  0.3153  1.0380
  904MOL0     H19271   9.612   5.649   7.924  1.2924  0.1622  0.5509
  904MOL0     H19272   9.477   5.534   7.900 -1.2875 -0.0805 -2.1189
  904MOL0     H19273   9.516   5.494   7.681 -0.0429  0.8893 -1.5394
  904MOL0     H19274   9.652   5.445   7.795 -0.3444  1.3167  1.9504
  904MOL0     H19275   9.756   5.675   7.729 -0.3971 -0.4270  1.0377
  904MOL0     H19276   9.645   5.687   7.596  2.7149 -1.1186 -3.1804
  904MOL0     H19277   9.852   5.459   7.654  0.2471  0.8603 -1.4870
  904MOL0     H19278   9.725   5.467   7.530 -1.3115  1.6398  0.0525
  904MOL0     H19279   9.933   5.673   7.593  3.3028  0.6148 -1.8205
  904MOL0     H19280   9.868   5.652   7.429  2.1405  1.4633  0.2412
  904MOL0     H19281  10.198   5.619   7.537  0.3742  2.0036 -1.0601
  904MOL0     H19282  10.410   5.500   7.416  0.4090 -0.3540  0.4583
  904MOL0     H19283  10.389   5.324   7.392  3.2673  1.3174 -1.2484
  904MOL0     H19284  10.411   5.474   7.659 -0.5297 -1.0121  1.4237
  904MOL0     H19285  10.521   5.350   7.591 -0.6930 -2.8983  2.6567
  904MOL0     H19286  10.240   5.300   7.702 -0.3079  1.4995  0.7999
  904MOL0     H19287  10.322   5.182   7.618 -2.7946 -0.1364  1.6519
  904MOL0     H19288  10.337   5.154   7.843  0.2138 -1.7729  0.3981
  904MOL0     H19289  10.424   5.309   7.876  2.2256 -0.7440 -0.8052
  904MOL0     H19290  10.648   5.060   8.005 -1.0071  1.1926 -0.3484
  904MOL0     H19291  10.654   4.825   8.058  0.5412  0.9354  0.7517
  904MOL0     H19292  10.239   4.436   7.897 -1.7759 -0.9809  2.3329
  904MOL0     H19293  10.194   4.198   7.890  0.4113 -2.1565  1.3058
  904MOL0     H19294  10.432   3.815   7.911 -1.6583  0.1169  0.2067
  904MOL0     H19295  10.533   3.951   7.859  0.8474 -2.4619 -1.2477
  904MOL0     H19296  10.359   4.022   7.689 -3.0099  0.2398  0.3139
  904MOL0     H19297  10.257   3.886   7.759  0.9569  0.1551  0.6129
  904MOL0     H19298  10.384   3.850   7.527 -1.1983 -0.8374  1.2821
  904MOL0     H19299  10.369   3.729   7.645 -3.0669  0.6931 -3.7402
  904MOL0     H19300  10.597   3.946   7.608  1.7256  0.3283  2.2005
  904MOL0     H19301  10.612   3.816   7.722 -1.5947  0.9656  1.4013
  904MOL0     H19302  10.566   3.789   7.408  0.8099  0.9889  1.4311
  904MOL0     H19303  10.570   3.654   7.540 -0.1474  0.2596  4.9917
  904MOL0     H19304  10.786   3.709   7.582 -0.3836 -0.5138  0.0514
  904MOL0     H19305  10.806   3.832   7.457  0.8604 -0.0287 -0.3433
  904MOL0     H19306  10.739   3.533   7.405  1.7207 -1.3194 -0.1393
  904MOL0     H19307  10.752   3.675   7.283 -1.3634  2.6160  1.0625
  904MOL0     H19308  10.951   3.499   7.358  1.8547 -0.3184  1.9478
  904MOL0     H19309  10.952   3.609   7.494 -3.2755  0.1894  0.5411
  904MOL0     H19310  10.583   4.113   8.026 -0.0307  0.5968  1.6866
  904MOL0     H19311  10.626   4.360   8.043  1.5472 -0.0579 -1.0648
  904MOL0     H19312  10.464   4.714   7.704 -2.3400 -1.7444  4.4209
  904MOL0     H19313  10.427   4.962   7.652  0.0278  1.6858  0.5541
  904MOL0     H19314   9.307   6.073   7.526 -0.1890 -2.1754 -0.1154
  904MOL0     H19315   9.126   6.189   7.413  0.3986 -1.3228 -1.3924
  904MOL0     H19316   8.602   6.214   7.484  0.9478  0.8596  0.0862
  904MOL0     H19317   8.381   6.274   7.405  1.8966  0.0184  2.8082
  904MOL0     H19318   8.339   6.346   6.941 -0.9402 -0.6916  0.6355
  904MOL0     H19319   8.315   6.500   7.011 -0.3987 -0.4465 -0.2927
  904MOL0     H19320   8.084   6.470   7.074 -0.3082  1.2963 -1.3732
  904MOL0     H19321   8.102   6.439   6.901  1.4687  1.1151 -0.2395
  904MOL0     H19322   7.957   6.271   6.981 -0.3712  1.0897 -2.7551
  904MOL0     H19323   8.072   6.215   7.107  0.3805  0.1615 -1.3363
  904MOL0     H19324   8.210   6.137   6.929  0.0847  0.9571  1.3959
  904MOL0     H19325   8.042   6.075   6.892 -1.4411  0.8865  0.7401
  904MOL0     H19326   8.113   6.356   6.565 -2.2142  2.7912  2.2881
  904MOL0     H19327   8.535   6.320   7.010 -3.6266 -0.4729 -0.5853
  904MOL0     H19328   8.765   6.293   7.107  0.4604  2.3629  0.0254
  905MOL0     O19329  10.590   6.890  11.160  1.4037 -0.2924  0.9532
  905MOL0     C19330  10.644   6.827  11.251 -0.1370 -0.2774  0.0260
  905MOL0     O19331  10.725   6.888  11.345 -0.3938 -0.4615 -0.4761
  905MOL0     C19332  10.669   6.992  11.417 -1.1034 -0.2245 -0.9504
  905MOL0     C19333  10.767   7.071  11.483  0.5351 -0.5514 -1.1092
  905MOL0     C19334  10.723   7.187  11.559  0.2042 -0.0168 -0.5526
  905MOL0     C19335  10.592   7.211  11.572  0.4902 -0.5231 -0.8118
  905MOL0     O19336  10.547   7.312  11.646  0.6856 -1.5631 -0.0466
  905MOL0     C19337  10.490   7.404  11.563 -0.3095  0.0926  0.6177
  905MOL0     C19338  10.454   7.531  11.645  0.8164 -0.0684  0.3597
  905MOL0     C19339  10.579   7.616  11.676 -0.4524 -0.6457 -0.2682
  905MOL0     C19340  10.537   7.752  11.741 -0.6427  0.6572 -0.5483
  905MOL0     C19341  10.647   7.812  11.804 -1.5538 -0.9028 -0.8342
  905MOL0     C19342  10.606   7.951  11.864 -0.0373  0.2512 -0.8149
  905MOL0     C19343  10.721   8.023  11.940  1.2675  0.5239 -0.2252
  905MOL0     C19344  10.674   8.139  12.044  0.4224 -0.4321  0.2653
  905MOL0     N19345  10.642   8.258  11.965 -0.5591 -0.6235  0.0139
  905MOL0     C19346  10.738   8.320  11.905 -0.5184  0.2533  0.0275
  905MOL0     C19347  10.681   8.430  11.853  0.1782 -0.3014  0.3434
  905MOL0     C19348  10.747   8.547  11.799  0.1400  0.7917  0.0803
  905MOL0     C19349  10.737   8.670  11.901 -0.3370  0.5822  0.3016
  905MOL0     C19350  10.841   8.677  12.011  1.0817 -0.0298  0.0948
  905MOL0     C19351  10.973   8.595  12.001  1.6581 -0.0027 -0.1369
  905MOL0     O19352  11.042   8.609  12.135 -0.1211  0.1895 -0.1821
  905MOL0     C19353  11.001   8.545  12.249 -0.4388 -0.0270 -0.4974
  905MOL0     C19354  10.908   8.441  12.252  0.2560  0.0931 -0.2725
  905MOL0     C19355  10.880   8.387  12.385  0.4758 -0.5645 -0.3979
  905MOL0     C19356  10.949   8.429  12.504  0.8808 -0.5807 -0.3028
  905MOL0     C19357  10.907   8.390  12.634  0.0810  0.6454 -0.3907
  905MOL0     O19358  10.787   8.318  12.639 -0.2438 -0.0774  0.2356
  905MOL0     C19359  10.740   8.256  12.756 -0.1970 -0.3833 -0.8877
  905MOL0     C19360  10.757   8.305  12.887 -0.3883 -0.1501 -0.5753
  905MOL0     C19361  10.706   8.239  13.002 -0.6501  0.5367  0.4022
  905MOL0     C19362  10.639   8.121  12.985  0.4810 -0.5306  0.1947
  905MOL0     O19363  10.603   8.062  13.101  1.0501 -0.5592 -0.5553
  905MOL0     C19364  10.571   7.926  13.107  0.1323 -0.4878  0.5415
  905MOL0     C19365  10.419   7.912  13.100  0.1150 -0.3359 -1.3789
  905MOL0     C19366  10.344   7.943  13.233 -0.6264 -0.3107 -0.4870
  905MOL0     C19367  10.190   7.924  13.197 -0.6022  0.2402  0.4426
  905MOL0     C19368  10.103   7.886  13.323 -0.1346 -0.4857  0.1625
  905MOL0     C19369   9.960   7.864  13.292  1.0304 -0.9172 -0.6934
  905MOL0     C19370   9.909   7.758  13.385  0.5916  0.9437  0.2564
  905MOL0     C19371   9.780   7.701  13.314  0.4643 -0.4447  0.6182
  905MOL0    Cl19372   9.738   7.560  13.405  0.6057 -0.2820 -0.0357
  905MOL0     C19373  10.619   8.076  12.861  0.3834  0.1375 -0.1094
  905MOL0     C19374  10.668   8.142  12.756 -0.5149  0.1954 -1.1275
  905MOL0     O19375  10.981   8.411  12.732  0.0802 -0.3548  1.0472
  905MOL0     C19376  11.045   8.530  12.488 -0.5066  0.4776 -0.7750
  905MOL0     C19377  11.066   8.586  12.361 -0.2415  0.2613 -0.1803
  905MOL0     N19378  10.547   8.432  11.885  0.4775 -0.0140 -0.1924
  905MOL0     N19379  10.530   8.328  11.960 -0.5273 -0.3658  0.1416
  905MOL0     C19380  10.496   7.125  11.512 -0.6584  0.8213 -0.1950
  905MOL0     C19381  10.537   7.023  11.424 -0.3336  0.7246 -0.2750
  905MOL0     C19382  10.654   6.675  11.250 -0.1468  0.0375  0.4794
  905MOL0     C19383  10.590   6.605  11.144  0.1554  0.5126 -0.5399
  905MOL0     C19384  10.604   6.468  11.130  0.2395  0.2738 -0.1389
  905MOL0     C19385  10.682   6.395  11.224  0.4216 -0.1955  0.1405
  905MOL0     O19386  10.692   6.258  11.219 -0.7321  0.0265  0.0725
  905MOL0     C19387  10.671   6.205  11.085  0.0389 -1.0775 -0.1933
  905MOL0     C19388  10.706   6.065  11.082 -0.2406  1.2023 -0.0643
  905MOL0     C19389  10.663   5.993  10.954 -0.4800  0.3410  0.5336
  905MOL0     C19390  10.779   5.992  10.858 -0.4706 -0.4209  0.5550
  905MOL0     C19391  10.729   5.944  10.728 -0.2155  0.3524  0.1911
  905MOL0     C19392  10.687   5.934  10.612 -0.5078 -0.0109 -0.2449
  905MOL0     C19393  10.750   6.471  11.329  0.2462  1.1065  0.2551
  905MOL0     C19394  10.737   6.606  11.340 -0.0866 -0.5339  0.4872
  905MOL0     H19395  10.872   7.048  11.468  0.3818 -0.4548 -2.5628
  905MOL0     H19396  10.805   7.253  11.589 -1.9304  3.0390 -1.0251
  905MOL0     H19397  10.398   7.377  11.512  0.7966 -0.1437 -1.3767
  905MOL0     H19398  10.554   7.427  11.477  0.0745 -0.7080  0.6837
  905MOL0     H19399  10.401   7.497  11.735  0.7903 -0.9576  0.0153
  905MOL0     H19400  10.394   7.590  11.576  3.1757  2.1831  0.0633
  905MOL0     H19401  10.654   7.634  11.598  1.7557  1.4404  2.1595
  905MOL0     H19402  10.633   7.562  11.754  1.6991  2.4635  0.5408
  905MOL0     H19403  10.496   7.817  11.664  0.1805  2.2511  0.3166
  905MOL0     H19404  10.462   7.745  11.821 -0.5474  0.9234 -0.4342
  905MOL0     H19405  10.740   7.817  11.746  0.0671  1.2340  1.7023
  905MOL0     H19406  10.687   7.748  11.883  0.8876  1.5432  0.1162
  905MOL0     H19407  10.536   7.932  11.947  2.4940  0.5835  1.5408
  905MOL0     H19408  10.558   8.010  11.785 -4.8699 -1.6475  0.3259
  905MOL0     H19409  10.770   7.946  12.000 -1.2548 -2.2888 -1.5094
  905MOL0     H19410  10.796   8.053  11.867  1.0560 -1.3098 -1.2701
  905MOL0     H19411  10.757   8.158  12.113 -0.0311  0.4536  0.5831
  905MOL0     H19412  10.591   8.122  12.113 -0.8198  1.0622 -0.7953
  905MOL0     H19413  10.842   8.291  11.897 -1.5199 -4.1886  0.7157
  905MOL0     H19414  10.689   8.584  11.713 -2.3806 -0.2870  1.1983
  905MOL0     H19415  10.850   8.533  11.766 -0.4370 -2.5760 -0.6669
  905MOL0     H19416  10.634   8.690  11.934 -0.2332  2.3399 -0.3451
  905MOL0     H19417  10.774   8.756  11.844  3.1771  0.6950  2.4730
  905MOL0     H19418  10.879   8.777  12.030  1.9914  0.0178 -1.7265
  905MOL0     H19419  10.775   8.642  12.091  2.4329 -5.2708 -0.7173
  905MOL0     H19420  11.040   8.631  11.923  2.7295  2.9814  1.9690
  905MOL0     H19421  10.953   8.490  11.978  3.2083  0.0541 -1.9030
  905MOL0     H19422  10.838   8.402  12.179 -1.9627  0.7918  1.3728
  905MOL0     H19423  10.804   8.311  12.395  0.2148 -0.9124 -3.9429
  905MOL0     H19424  10.815   8.396  12.898  0.6257 -1.0009  1.5907
  905MOL0     H19425  10.712   8.276  13.104 -2.7809  2.8887 -0.2251
  905MOL0     H19426  10.605   7.883  13.202  1.6432  1.6813  1.0648
  905MOL0     H19427  10.620   7.881  13.020  1.2862  2.9871 -0.7814
  905MOL0     H19428  10.420   7.808  13.067  2.6471 -1.1727  0.9304
  905MOL0     H19429  10.372   7.969  13.019 -0.6681 -0.1818 -0.8300
  905MOL0     H19430  10.359   8.050  13.254 -1.7831 -0.0559 -0.8961
  905MOL0     H19431  10.389   7.895  13.321 -1.3667  3.9456  2.5367
  905MOL0     H19432  10.146   8.018  13.162 -2.4477 -0.7053  0.1320
  905MOL0     H19433  10.175   7.863  13.108 -0.6520  3.4270 -1.9282
  905MOL0     H19434  10.117   7.966  13.396  0.2281  0.0437 -0.4788
  905MOL0     H19435  10.149   7.799  13.372 -0.3878  0.7516  2.7668
  905MOL0     H19436   9.944   7.834  13.188 -2.4248 -2.7906  0.2255
  905MOL0     H19437   9.897   7.953  13.299  2.0221 -0.3259  2.0789
  905MOL0     H19438   9.976   7.672  13.391  0.2340  0.7573  2.6398
  905MOL0     H19439   9.872   7.799  13.480 -0.6187  0.6381 -0.0765
  905MOL0     H19440   9.799   7.685  13.208  0.3877  3.0253 -0.0528
  905MOL0     H19441   9.697   7.772  13.319 -3.2319 -4.2343 -1.5292
  905MOL0     H19442  10.546   7.998  12.842  0.5017  0.5768 -2.7658
  905MOL0     H19443  10.641   8.095  12.662 -0.9387 -1.7253 -0.0929
  905MOL0     H19444  11.092   8.569  12.577 -3.0528  2.1934 -0.0911
  905MOL0     H19445  11.143   8.662  12.351  1.0849 -1.1148 -0.8220
  905MOL0     H19446  10.390   7.146  11.521 -0.6539  0.4673  0.8442
  905MOL0     H19447  10.461   6.957  11.384 -0.4658 -1.8062  3.6149
  905MOL0     H19448  10.523   6.664  11.083 -0.7529 -1.4070 -1.4589
  905MOL0     H19449  10.545   6.431  11.047 -0.3235  1.7598 -0.4209
  905MOL0     H19450  10.740   6.260  11.019 -0.7097  0.6256  0.3757
  905MOL0     H19451  10.574   6.223  11.039  1.0816 -0.5985 -2.3132
  905MOL0     H19452  10.814   6.048  11.091  0.0117  0.3399 -3.2939
  905MOL0     H19453  10.657   6.020  11.169  0.1811  0.0343 -0.4163
  905MOL0     H19454  10.567   6.024  10.912 -0.8405  0.3732  1.3677
  905MOL0     H19455  10.661   5.888  10.986  3.4821  0.4229  1.5828
  905MOL0     H19456  10.810   6.094  10.833 -0.4831 -1.3899 -4.5183
  905MOL0     H19457  10.865   5.932  10.889  0.7641  0.6202 -0.7059
  905MOL0     H19458  10.654   5.931  10.510 -1.2752 -1.7010  0.0175
  905MOL0     H19459  10.807   6.411  11.399  1.9559  0.7550 -1.3283
  905MOL0     H19460  10.794   6.656  11.418  3.4025 -0.3438 -1.9549
  906MOL0     O19461   7.680   7.169   5.297  0.8356  0.1978 -0.0616
  906MOL0     C19462   7.763   7.084   5.321  0.2069  0.0678  0.1346
  906MOL0     O19463   7.838   7.072   5.438 -0.4065 -0.4944 -0.5125
  906MOL0     C19464   7.793   7.121   5.559  0.1350  0.4907 -0.1586
  906MOL0     C19465   7.663   7.143   5.598 -0.4236  0.2903  0.5131
  906MOL0     C19466   7.626   7.199   5.723 -0.1825  1.0864 -0.5756
  906MOL0     C19467   7.740   7.229   5.807  0.3194  0.1973 -0.0456
  906MOL0     O19468   7.714   7.288   5.924  0.0312 -0.2357  0.4082
  906MOL0     C19469   7.680   7.428   5.925 -0.0267 -0.2091  0.0806
  906MOL0     C19470   7.637   7.459   6.070  0.6144 -0.3078 -0.0124
  906MOL0     C19471   7.502   7.423   6.111  1.2064 -0.6876  0.0938
  906MOL0     C19472   7.385   7.517   6.064  0.6044  0.2214  0.3783
  906MOL0     C19473   7.255   7.510   6.141  0.4180 -0.7541  0.0319
  906MOL0     C19474   7.195   7.373   6.137  0.0419  0.2246 -0.8859
  906MOL0     C19475   7.047   7.360   6.177  0.1940  0.4815  0.1150
  906MOL0     C19476   6.995   7.217   6.138  0.8707  0.3058  1.1824
  906MOL0     N19477   6.854   7.207   6.178 -0.3440 -0.1505 -1.0400
  906MOL0     C19478   6.778   7.299   6.249  0.0999  0.1061 -0.2927
  906MOL0     C19479   6.648   7.258   6.239 -0.5711  0.2729 -0.0674
  906MOL0     C19480   6.524   7.324   6.283  0.4724  0.5256 -0.4690
  906MOL0     C19481   6.451   7.241   6.392  0.7726  0.0259 -0.7560
  906MOL0     C19482   6.534   7.203   6.516  0.0973 -0.8034  0.0861
  906MOL0     C19483   6.460   7.152   6.642  0.1413 -0.9033  0.5103
  906MOL0     O19484   6.550   7.156   6.754 -1.1170 -0.1823  0.2499
  906MOL0     C19485   6.515   7.079   6.859 -0.3175  0.1936 -0.1325
  906MOL0     C19486   6.611   6.994   6.906 -0.1134 -0.7205 -0.4381
  906MOL0     C19487   6.594   6.919   7.018 -0.0014 -0.1985 -0.4726
  906MOL0     C19488   6.481   6.938   7.091 -0.1653  0.4833  0.0245
  906MOL0     C19489   6.462   6.881   7.220  0.2390 -1.8302 -0.7140
  906MOL0     O19490   6.492   6.744   7.227  0.6922  0.9970 -1.2065
  906MOL0     C19491   6.502   6.704   7.367 -0.0184  0.2679  0.7960
  906MOL0     C19492   6.598   6.749   7.452 -0.2741  0.2392 -0.4754
  906MOL0     C19493   6.589   6.705   7.589  0.3771  0.3434  0.3628
  906MOL0     C19494   6.482   6.616   7.628 -0.0067 -1.0653  0.0189
  906MOL0     O19495   6.449   6.575   7.759 -0.5138 -0.8487  0.0272
  906MOL0     C19496   6.534   6.619   7.863 -0.5748 -0.1647  0.4232
  906MOL0     C19497   6.635   6.516   7.908  0.4921  0.5585 -0.7773
  906MOL0     C19498   6.719   6.461   7.798 -0.2584  0.3392  1.2378
  906MOL0     C19499   6.832   6.375   7.843  0.3325 -0.4273 -0.0007
  906MOL0     C19500   6.942   6.327   7.747 -1.0468  0.1035 -0.5769
  906MOL0     C19501   6.911   6.191   7.678  0.6246 -0.8504 -1.0805
  906MOL0     C19502   7.031   6.146   7.599 -0.1895  0.2878 -0.2273
  906MOL0     C19503   6.994   6.034   7.506  0.5414 -0.2711 -0.6434
  906MOL0    Cl19504   6.981   5.876   7.596 -0.1775 -0.2613  0.4876
  906MOL0     C19505   6.395   6.564   7.531  0.1761  0.4413  0.2421
  906MOL0     C19506   6.412   6.609   7.399 -1.1759  0.3472  0.9653
  906MOL0     O19507   6.435   6.965   7.315  0.0917  0.9417 -0.5578
  906MOL0     C19508   6.373   7.017   7.050  0.1067  0.7707 -0.8307
  906MOL0     C19509   6.399   7.082   6.931  0.3696  0.1232 -0.8001
  906MOL0     N19510   6.646   7.146   6.156  0.0354 -0.4905  0.1795
  906MOL0     N19511   6.772   7.119   6.121  0.0437 -0.2275 -1.1701
  906MOL0     C19512   7.877   7.193   5.776 -0.3604  0.0446  1.1547
  906MOL0     C19513   7.897   7.133   5.652 -0.4192 -0.0220  0.4112
  906MOL0     C19514   7.787   6.993   5.215  0.2140 -0.3592 -0.2281
  906MOL0     C19515   7.851   6.869   5.235  0.1554  0.0597  0.2123
  906MOL0     C19516   7.876   6.782   5.131  0.5851 -0.2011 -0.5166
  906MOL0     C19517   7.846   6.822   5.004  0.1921  0.4270 -0.0001
  906MOL0     O19518   7.874   6.733   4.907  0.1053  0.1383 -0.9977
  906MOL0     C19519   8.002   6.754   4.855  0.5780 -0.4496  0.6911
  906MOL0     C19520   8.115   6.689   4.934  0.4469  0.2050 -0.0077
  906MOL0     C19521   8.084   6.537   4.949  0.1689 -0.2369  0.2714
  906MOL0     C19522   8.176   6.442   5.013 -0.9425 -0.0714 -0.4400
  906MOL0     C19523   8.184   6.454   5.160 -0.2094  0.9451  0.4725
  906MOL0     C19524   8.230   6.453   5.276  0.3522 -0.7292 -0.1309
  906MOL0     C19525   7.763   6.934   4.975  0.0027 -1.1518  0.2727
  906MOL0     C19526   7.726   7.014   5.083 -0.7294 -0.5658 -0.6317
  906MOL0     H19527   7.586   7.119   5.525 -0.0007 -1.3611  0.5608
  906MOL0     H19528   7.520   7.213   5.746 -0.9871 -1.5519 -2.1499
  906MOL0     H19529   7.604   7.452   5.850  0.1411  0.4255  0.1053
  906MOL0     H19530   7.762   7.495   5.900 -1.5839  2.0380  0.6564
  906MOL0     H19531   7.662   7.565   6.080  2.3260 -0.6933  0.0541
  906MOL0     H19532   7.721   7.414   6.125  3.4481  0.2637 -3.5311
  906MOL0     H19533   7.507   7.416   6.220  0.5871 -0.2937  0.1521
  906MOL0     H19534   7.473   7.322   6.079  0.6716 -0.8821  1.1244
  906MOL0     H19535   7.425   7.617   6.080  0.2391 -0.0501  3.7780
  906MOL0     H19536   7.367   7.498   5.958  1.2379 -1.0076  0.4643
  906MOL0     H19537   7.187   7.588   6.105 -2.1437 -3.6231 -1.9021
  906MOL0     H19538   7.272   7.546   6.243 -2.1126  2.8169 -0.6107
  906MOL0     H19539   7.253   7.307   6.203  1.2310  0.9518 -1.1650
  906MOL0     H19540   7.221   7.329   6.040 -1.5797 -1.9256 -0.4285
  906MOL0     H19541   7.048   7.385   6.283  3.6423  2.0417 -0.1586
  906MOL0     H19542   6.988   7.433   6.121  0.5323 -0.6810 -1.8460
  906MOL0     H19543   7.057   7.136   6.176 -0.7137 -1.0367  1.0309
  906MOL0     H19544   6.993   7.217   6.029 -1.1087 -0.2960  1.1677
  906MOL0     H19545   6.808   7.384   6.309  0.4760 -0.9055  0.9750
  906MOL0     H19546   6.454   7.356   6.205 -2.8983 -0.1724  2.0531
  906MOL0     H19547   6.555   7.421   6.324 -0.2112  0.7737 -0.5185
  906MOL0     H19548   6.406   7.152   6.347 -4.3645  1.4365  0.8194
  906MOL0     H19549   6.362   7.298   6.420  0.2483 -1.7900  1.6889
  906MOL0     H19550   6.612   7.135   6.482  0.0462 -1.8534  1.9097
  906MOL0     H19551   6.590   7.290   6.550  0.5557 -0.8164 -0.6106
  906MOL0     H19552   6.424   7.051   6.621  0.5205 -1.1414  0.9737
  906MOL0     H19553   6.364   7.199   6.663 -0.0204 -0.9798 -0.0401
  906MOL0     H19554   6.699   6.986   6.843 -0.3020  3.8150 -1.6012
  906MOL0     H19555   6.671   6.855   7.060 -0.9397  0.9850  3.5184
  906MOL0     H19556   6.687   6.807   7.429 -0.1810 -0.7110 -2.7537
  906MOL0     H19557   6.663   6.740   7.661  1.1592  2.1388 -1.2307
  906MOL0     H19558   6.460   6.633   7.943  0.2574 -3.1651  1.8475
  906MOL0     H19559   6.579   6.717   7.846 -0.1504 -0.2197  1.1781
  906MOL0     H19560   6.576   6.433   7.948  1.8838 -0.1764 -0.1972
  906MOL0     H19561   6.681   6.574   7.989 -0.9588  0.6370  0.0340
  906MOL0     H19562   6.773   6.531   7.734 -0.2306 -1.0928 -0.3880
  906MOL0     H19563   6.661   6.404   7.724  0.5711  3.1229 -1.8079
  906MOL0     H19564   6.879   6.433   7.924 -1.5555  4.1878 -1.8385
  906MOL0     H19565   6.781   6.293   7.893 -3.0336 -0.2197 -2.7643
  906MOL0     H19566   7.032   6.313   7.808 -1.2972  1.0451  0.0341
  906MOL0     H19567   6.968   6.408   7.679 -1.0745 -0.6238 -1.4740
  906MOL0     H19568   6.824   6.193   7.611 -1.0141 -1.1219  0.9319
  906MOL0     H19569   6.891   6.118   7.756  2.7077  1.2270  1.5994
  906MOL0     H19570   7.070   6.229   7.539  0.8049  0.9110  1.2157
  906MOL0     H19571   7.109   6.115   7.669 -1.5320 -0.7869  0.8489
  906MOL0     H19572   7.049   6.015   7.414 -1.9517 -0.1244 -2.2545
  906MOL0     H19573   6.893   6.045   7.465  0.9731  1.8376 -1.2529
  906MOL0     H19574   6.311   6.501   7.557 -1.1825  1.1632 -2.1006
  906MOL0     H19575   6.353   6.569   7.317  0.4837  0.5863 -0.3972
  906MOL0     H19576   6.283   7.038   7.107  3.0022  2.5205  3.6446
  906MOL0     H19577   6.322   7.146   6.889  0.9419  2.3077  1.2338
  906MOL0     H19578   7.953   7.223   5.847 -2.3303 -1.2797  4.0215
  906MOL0     H19579   7.994   7.099   5.618 -0.4710 -1.2618  1.4237
  906MOL0     H19580   7.880   6.838   5.335 -0.8151 -0.0969  0.4561
  906MOL0     H19581   7.919   6.684   5.146 -2.4544 -1.7306 -0.9699
  906MOL0     H19582   8.021   6.862   4.849 -1.5969 -0.0262  0.8699
  906MOL0     H19583   7.995   6.717   4.752 -3.5161  3.2746 -0.6764
  906MOL0     H19584   8.211   6.695   4.881  0.1373  0.0597 -0.5947
  906MOL0     H19585   8.134   6.740   5.028  2.5477 -1.6453  0.6748
  906MOL0     H19586   8.073   6.499   4.847  2.4150  0.9857 -0.5074
  906MOL0     H19587   7.992   6.523   5.005 -0.5368  2.5135 -0.0431
  906MOL0     H19588   8.159   6.336   4.993 -0.0676 -0.7771  2.1811
  906MOL0     H19589   8.280   6.466   4.989  0.3015 -2.2363  2.1926
  906MOL0     H19590   8.289   6.466   5.364  0.5737  1.8963 -0.5652
  906MOL0     H19591   7.732   6.953   4.872 -0.4831  2.9003  1.0147
  906MOL0     H19592   7.665   7.103   5.069 -0.6533 -0.2846  0.6637
  907MOL0     O19593   4.352   4.906   4.650  0.3420  0.1335 -0.2951
  907MOL0     C19594   4.390   4.802   4.694 -0.4226  0.3030 -0.0945
  907MOL0     O19595   4.504   4.728   4.655  0.7681 -0.3904 -0.0846
  907MOL0     C19596   4.536   4.740   4.520  0.7753  0.6443  0.0649
  907MOL0     C19597   4.667   4.705   4.485  0.8053 -1.2509  0.4778
  907MOL0     C19598   4.720   4.737   4.356  0.7689 -1.1999  0.1546
  907MOL0     C19599   4.630   4.761   4.256  0.5672  0.6085  0.6642
  907MOL0     O19600   4.686   4.761   4.123 -0.3980  1.0025 -0.6814
  907MOL0     C19601   4.631   4.847   4.031 -1.1165 -0.6757  0.9089
  907MOL0     C19602   4.733   4.961   3.992 -0.3523 -0.6793 -0.6111
  907MOL0     C19603   4.843   4.929   3.891 -0.0393 -0.1531 -0.3602
  907MOL0     C19604   4.896   4.784   3.889  0.3304  0.8240  0.0063
  907MOL0     C19605   4.999   4.765   3.781 -0.5925  0.3482  0.3954
  907MOL0     C19606   5.138   4.803   3.837  0.7852  0.1513  0.7120
  907MOL0     C19607   5.228   4.828   3.715  0.1149  0.3048 -0.4589
  907MOL0     C19608   5.368   4.754   3.746  0.0304  0.5068 -1.0066
  907MOL0     N19609   5.378   4.632   3.666 -0.4655  0.7895 -0.6015
  907MOL0     C19610   5.422   4.635   3.537 -0.7760  0.8219 -0.8576
  907MOL0     C19611   5.431   4.506   3.511 -0.1094 -0.2345  0.4114
  907MOL0     C19612   5.492   4.457   3.385  0.1243 -0.0456  0.8116
  907MOL0     C19613   5.642   4.469   3.383 -0.7864 -0.7411  1.0677
  907MOL0     C19614   5.712   4.372   3.471  0.0092 -0.3492  0.0914
  907MOL0     C19615   5.814   4.431   3.558  0.5173  0.4839 -1.6246
  907MOL0     O19616   5.932   4.446   3.491 -0.2576  0.5333  1.2904
  907MOL0     C19617   6.000   4.564   3.513 -0.5575  0.5554  0.2979
  907MOL0     C19618   6.032   4.604   3.639  0.1919  0.5572 -0.5608
  907MOL0     C19619   6.121   4.709   3.666  0.4717  1.3257 -0.0432
  907MOL0     C19620   6.176   4.779   3.564 -0.3221 -0.5730 -0.7997
  907MOL0     C19621   6.248   4.909   3.596  0.1681  0.7107  0.6852
  907MOL0     O19622   6.223   4.967   3.716  0.3028 -0.3982  1.2020
  907MOL0     C19623   6.279   5.086   3.754  0.6750 -0.4447 -0.2185
  907MOL0     C19624   6.299   5.099   3.890  0.4873 -0.3518  0.3014
  907MOL0     C19625   6.347   5.221   3.941  0.5016  0.4021 -0.3726
  907MOL0     C19626   6.365   5.334   3.871 -0.0625 -0.3544  0.8913
  907MOL0     O19627   6.407   5.457   3.926 -0.5558  0.5646 -0.3113
  907MOL0     C19628   6.335   5.498   4.043  1.0603  0.2961  0.3508
  907MOL0     C19629   6.355   5.649   4.033  0.9171 -0.0261 -0.5734
  907MOL0     C19630   6.261   5.732   4.127  0.1551 -0.7423  0.0253
  907MOL0     C19631   6.303   5.880   4.125  0.8900  0.2312 -0.2089
  907MOL0     C19632   6.216   5.962   4.219  0.3978 -0.1227 -0.9079
  907MOL0     C19633   6.065   5.952   4.180  0.0371  0.6191 -0.0451
  907MOL0     C19634   6.039   5.974   4.032  0.4179 -0.2204  0.6225
  907MOL0     C19635   5.900   5.959   3.983 -0.6909 -0.9622  0.1948
  907MOL0    Cl19636   5.858   5.792   4.010  0.0331  0.1140  0.1286
  907MOL0     C19637   6.349   5.318   3.726  0.0670 -0.4472 -0.1026
  907MOL0     C19638   6.306   5.196   3.669  0.5368  0.7951  0.1233
  907MOL0     O19639   6.318   4.960   3.504  0.7221  0.8072 -0.4014
  907MOL0     C19640   6.158   4.739   3.435  0.3816  0.4545 -0.0738
  907MOL0     C19641   6.073   4.630   3.413  0.5721 -0.4815  0.6808
  907MOL0     N19642   5.389   4.432   3.623 -0.1373  0.0668 -0.1729
  907MOL0     N19643   5.359   4.507   3.714  0.4416 -0.1567  0.7935
  907MOL0     C19644   4.489   4.763   4.280  0.4405 -0.3870  0.1275
  907MOL0     C19645   4.448   4.758   4.411  1.1787 -0.2234 -0.9468
  907MOL0     C19646   4.324   4.769   4.824  0.1148  0.2269 -0.3260
  907MOL0     C19647   4.246   4.861   4.898  0.2211  0.6265 -0.1230
  907MOL0     C19648   4.189   4.820   5.020  0.7034 -0.1646 -0.0510
  907MOL0     C19649   4.212   4.688   5.085 -0.0103  0.6818 -0.0548
  907MOL0     O19650   4.162   4.628   5.205 -0.5582  0.2633 -0.3061
  907MOL0     C19651   4.085   4.712   5.295 -0.1125 -0.7166  0.2778
  907MOL0     C19652   3.944   4.712   5.242 -0.2063  0.0603  0.6908
  907MOL0     C19653   3.835   4.797   5.303 -0.0938  0.1495  0.7526
  907MOL0     C19654   3.792   4.753   5.442 -0.3545 -0.1109 -0.4173
  907MOL0     C19655   3.731   4.618   5.451 -0.0986  0.3434 -0.0831
  907MOL0     C19656   3.680   4.514   5.435  0.4562  0.4691  0.2537
  907MOL0     C19657   4.295   4.611   5.013 -0.6391  0.2058 -1.1829
  907MOL0     C19658   4.343   4.642   4.889 -0.5485 -0.1516  0.0811
  907MOL0     H19659   4.732   4.671   4.565 -1.2713 -2.7155  1.6338
  907MOL0     H19660   4.826   4.735   4.335  0.8153  2.9833 -0.8369
  907MOL0     H19661   4.539   4.903   4.050 -1.0194  1.3161 -3.4120
  907MOL0     H19662   4.618   4.788   3.940  3.6337 -1.5732  0.5414
  907MOL0     H19663   4.780   5.015   4.074 -0.1274 -1.4314 -0.2377
  907MOL0     H19664   4.669   5.040   3.952  0.2246 -0.0648 -0.3434
  907MOL0     H19665   4.921   5.004   3.904 -3.1937  2.9899  2.4561
  907MOL0     H19666   4.803   4.948   3.791  2.3205 -0.8285 -1.5008
  907MOL0     H19667   4.946   4.753   3.981 -0.2026 -0.1901 -0.0399
  907MOL0     H19668   4.810   4.718   3.883 -0.1839  1.1980  2.3974
  907MOL0     H19669   4.976   4.834   3.699  0.6756 -0.8368 -1.0256
  907MOL0     H19670   5.010   4.665   3.738 -0.5693  1.4365 -2.3907
  907MOL0     H19671   5.171   4.724   3.905  0.4808 -0.5998  0.0120
  907MOL0     H19672   5.143   4.902   3.882  0.9214  1.9217 -2.8608
  907MOL0     H19673   5.180   4.784   3.627  0.2897 -0.3762 -0.2172
  907MOL0     H19674   5.244   4.936   3.710 -1.0726  1.0444  4.8585
  907MOL0     H19675   5.380   4.736   3.853 -2.1403 -0.2000 -0.8150
  907MOL0     H19676   5.445   4.817   3.701 -0.5342  0.4424 -2.1060
  907MOL0     H19677   5.453   4.723   3.481  2.1120  0.3714 -0.1332
  907MOL0     H19678   5.456   4.509   3.295 -0.7061 -0.0944  1.1136
  907MOL0     H19679   5.466   4.353   3.364 -0.0046  0.4261 -1.7358
  907MOL0     H19680   5.662   4.574   3.403 -0.9555 -0.7775  1.4377
  907MOL0     H19681   5.682   4.451   3.283 -0.2488  1.6329  0.8190
  907MOL0     H19682   5.632   4.324   3.527 -4.1161  2.1451 -3.0176
  907MOL0     H19683   5.761   4.296   3.409  1.4830  1.2574 -0.8099
  907MOL0     H19684   5.834   4.365   3.642  1.7213  5.0001  2.0722
  907MOL0     H19685   5.779   4.529   3.591  3.3129  0.6190  1.3267
  907MOL0     H19686   5.988   4.553   3.725  2.0980  1.3573  0.9651
  907MOL0     H19687   6.140   4.736   3.769 -1.7343 -0.6319  0.9543
  907MOL0     H19688   6.279   5.010   3.947  2.3516 -2.3970 -2.0159
  907MOL0     H19689   6.364   5.229   4.048 -1.1901 -0.3932 -0.0207
  907MOL0     H19690   6.371   5.440   4.129 -3.5205 -3.3214  0.2490
  907MOL0     H19691   6.231   5.465   4.034  1.7970 -1.6364 -2.3739
  907MOL0     H19692   6.339   5.692   3.934 -2.6814  0.9032  0.2362
  907MOL0     H19693   6.460   5.669   4.054  0.6049 -0.5229  1.6959
  907MOL0     H19694   6.267   5.688   4.227 -1.5390  1.2726  1.0941
  907MOL0     H19695   6.164   5.725   4.077  0.3101  2.2394 -0.9211
  907MOL0     H19696   6.405   5.880   4.164  1.4157 -1.7785 -1.4125
  907MOL0     H19697   6.298   5.920   4.024 -0.3605 -0.6773 -0.5345
  907MOL0     H19698   6.259   6.062   4.225  0.8130 -0.3588  0.4958
  907MOL0     H19699   6.219   5.920   4.320  0.1573  1.4795 -0.2036
  907MOL0     H19700   6.007   6.020   4.243 -2.3628  0.0545 -1.4923
  907MOL0     H19701   6.028   5.853   4.210 -0.4143  0.2976 -1.5898
  907MOL0     H19702   6.076   6.068   3.990 -1.1384  0.2476  0.2434
  907MOL0     H19703   6.103   5.906   3.975  1.7940  1.3550  0.1721
  907MOL0     H19704   5.899   5.988   3.878 -2.5248  3.7973  1.2432
  907MOL0     H19705   5.842   6.034   4.039 -2.4372 -3.2676  1.6761
  907MOL0     H19706   6.360   5.406   3.664 -3.1764  1.3967  1.7088
  907MOL0     H19707   6.295   5.181   3.562  0.7661  0.7667  0.1018
  907MOL0     H19708   6.182   4.804   3.352 -1.5027  2.6126  0.9695
  907MOL0     H19709   6.059   4.609   3.307  1.3313  0.7352  0.3194
  907MOL0     H19710   4.418   4.747   4.201 -0.4569 -2.3386  1.2582
  907MOL0     H19711   4.339   4.764   4.413  1.2099  0.2376  0.3073
  907MOL0     H19712   4.229   4.964   4.867  1.4093  1.1153  0.7605
  907MOL0     H19713   4.118   4.884   5.071  0.5690  0.8374 -1.4606
  907MOL0     H19714   4.128   4.813   5.287 -0.8383 -0.4924 -1.2992
  907MOL0     H19715   4.105   4.685   5.399  3.2444  1.1132  0.2495
  907MOL0     H19716   3.953   4.760   5.144  1.6045 -3.5724 -1.1481
  907MOL0     H19717   3.911   4.608   5.239  2.9463 -1.0291 -0.3009
  907MOL0     H19718   3.741   4.803   5.247 -1.3622  3.0989  2.9088
  907MOL0     H19719   3.872   4.900   5.308 -0.6251  0.3388  0.8486
  907MOL0     H19720   3.877   4.761   5.510 -0.5851  0.9979 -0.2337
  907MOL0     H19721   3.713   4.817   5.484 -0.8186 -1.3782  0.7045
  907MOL0     H19722   3.665   4.411   5.413 -0.2548  0.7053 -0.4139
  907MOL0     H19723   4.334   4.525   5.067 -0.3911  0.8124 -0.3781
  907MOL0     H19724   4.420   4.585   4.839 -1.2366 -1.8291  0.8863
  908MOL0     O19725  10.434  11.433   4.814 -0.1280  0.0716 -0.9185
  908MOL0     C19726  10.434  11.313   4.776  0.1015  0.9665 -0.9767
  908MOL0     O19727  10.369  11.211   4.839 -0.2776 -0.4254  0.3612
  908MOL0     C19728  10.294  11.234   4.953  0.3593 -0.3830 -0.1829
  908MOL0     C19729  10.330  11.326   5.058  0.0711  0.3932  0.0932
  908MOL0     C19730  10.249  11.357   5.172  0.5275  0.9441  0.5100
  908MOL0     C19731  10.131  11.287   5.194  0.2582  0.1364 -0.3820
  908MOL0     O19732  10.046  11.297   5.303 -0.1835 -0.4183  0.5794
  908MOL0     C19733  10.060  11.420   5.365 -0.9529 -0.9783 -0.8466
  908MOL0     C19734  10.006  11.536   5.275  0.8528  0.4278 -0.3450
  908MOL0     C19735   9.859  11.528   5.226 -0.4168 -0.2201  0.3621
  908MOL0     C19736   9.793  11.668   5.222  0.5885 -0.0506  0.4401
  908MOL0     C19737   9.635  11.647   5.210 -1.4138 -0.2940  0.7202
  908MOL0     C19738   9.580  11.761   5.132  0.9042  0.7676 -0.0640
  908MOL0     C19739   9.428  11.744   5.128  0.0389  0.6622  0.1130
  908MOL0     C19740   9.380  11.657   5.010 -0.2491  0.6064  0.3464
  908MOL0     N19741   9.343  11.522   5.059  1.3633 -0.0766  0.1371
  908MOL0     C19742   9.241  11.485   5.140 -0.3777 -0.5573  0.1739
  908MOL0     C19743   9.243  11.353   5.131 -0.3643 -0.1926 -0.6960
  908MOL0     C19744   9.148  11.262   5.211  0.6538 -0.9154 -0.5036
  908MOL0     C19745   9.194  11.189   5.343  0.7790  0.2192 -0.2429
  908MOL0     C19746   9.185  11.293   5.458  0.2239  0.2869 -0.3578
  908MOL0     C19747   9.330  11.331   5.481  1.5158  0.7129 -0.0198
  908MOL0     O19748   9.332  11.409   5.599  0.9464  0.6363 -0.8821
  908MOL0     C19749   9.464  11.425   5.645 -0.4884 -0.6607  0.9720
  908MOL0     C19750   9.477  11.438   5.781  0.3433 -0.5578 -0.0573
  908MOL0     C19751   9.603  11.469   5.827 -0.3602  0.2834  0.7383
  908MOL0     C19752   9.720  11.471   5.749 -0.6182  0.1888 -0.3169
  908MOL0     C19753   9.853  11.483   5.817 -0.8373  0.7741 -0.6207
  908MOL0     O19754   9.855  11.544   5.941  0.5998 -0.5149 -0.0447
  908MOL0     C19755   9.973  11.574   6.004 -0.4852 -0.3072  0.9004
  908MOL0     C19756  10.054  11.675   5.945  0.2127 -0.7180  0.0071
  908MOL0     C19757  10.187  11.690   5.979  0.0909 -0.4012 -0.0047
  908MOL0     C19758  10.246  11.623   6.084 -0.5550 -0.2879  0.4779
  908MOL0     O19759  10.379  11.639   6.122 -0.1496 -0.2340  0.3419
  908MOL0     C19760  10.472  11.719   6.054  0.2433  0.6750  1.0513
  908MOL0     C19761  10.584  11.730   6.156  0.7013  0.2939  0.2853
  908MOL0     C19762  10.694  11.611   6.137  0.6763 -0.0512  0.3759
  908MOL0     C19763  10.811  11.641   6.231 -0.2931 -0.4561 -0.6221
  908MOL0     C19764  10.770  11.607   6.375  0.9339 -0.1894  0.0602
  908MOL0     C19765  10.890  11.588   6.455 -0.5468  0.6243  0.2145
  908MOL0     C19766  10.870  11.587   6.603  0.2529  0.7821  0.1217
  908MOL0     C19767  11.003  11.535   6.669 -0.2477 -0.2752 -0.9344
  908MOL0    Cl19768  11.006  11.372   6.636  0.0026  0.1385  0.2552
  908MOL0     C19769  10.170  11.537   6.158  0.4388 -1.2244 -0.0318
  908MOL0     C19770  10.031  11.508   6.119 -0.7628  0.4615  0.6131
  908MOL0     O19771   9.954  11.447   5.752 -0.2060  0.0499  0.4990
  908MOL0     C19772   9.705  11.465   5.607 -0.5465 -0.3237 -0.6894
  908MOL0     C19773   9.579  11.437   5.561 -0.5432 -0.4642  0.6219
  908MOL0     N19774   9.350  11.306   5.054 -0.0943 -0.3704 -1.1699
  908MOL0     N19775   9.409  11.414   5.017 -0.3025  0.3471 -0.2754
  908MOL0     C19776  10.092  11.195   5.095 -0.7750 -0.1169 -0.1812
  908MOL0     C19777  10.171  11.166   4.988  0.1457  0.3295  1.2632
  908MOL0     C19778  10.505  11.265   4.662 -0.3454  0.1022 -0.3067
  908MOL0     C19779  10.473  11.136   4.602 -0.9341  0.0767 -0.7511
  908MOL0     C19780  10.563  11.085   4.511 -0.9182  0.4134  0.1429
  908MOL0     C19781  10.667  11.160   4.457 -0.3720 -0.2787 -0.8252
  908MOL0     O19782  10.763  11.114   4.363 -0.1286 -0.1693 -0.5535
  908MOL0     C19783  10.764  10.971   4.314  0.1424  0.1999  1.0256
  908MOL0     C19784  10.881  10.940   4.217 -0.1811  0.0362 -0.3978
  908MOL0     C19785  11.012  10.994   4.261  0.2330 -0.3406  0.0780
  908MOL0     C19786  11.132  10.939   4.190 -0.1882  0.0536 -0.4898
  908MOL0     C19787  11.143  10.798   4.228 -0.3365  0.4878  0.0645
  908MOL0     C19788  11.134  10.675   4.232 -0.0865 -0.6633 -0.2121
  908MOL0     C19789  10.683  11.291   4.500  0.1899  0.2170  0.2656
  908MOL0     C19790  10.597  11.354   4.597  0.0548  0.6844 -1.5575
  908MOL0     H19791  10.422  11.380   5.038  3.0809 -3.7386  1.2731
  908MOL0     H19792  10.275  11.446   5.229  3.2607  1.3643 -1.2189
  908MOL0     H19793  10.161  11.436   5.406 -1.8720 -0.3394  1.3370
  908MOL0     H19794  10.003  11.401   5.456 -0.9241 -1.1175 -0.8587
  908MOL0     H19795  10.065  11.533   5.184  0.2953  0.3580 -0.7119
  908MOL0     H19796  10.013  11.625   5.339 -0.9662 -1.3112  2.5496
  908MOL0     H19797   9.793  11.490   5.305 -0.8870  1.5610  0.8863
  908MOL0     H19798   9.865  11.471   5.134 -0.1208  1.5217 -0.7513
  908MOL0     H19799   9.807  11.738   5.306  4.2284  0.3291 -0.3501
  908MOL0     H19800   9.837  11.727   5.141  1.1862 -1.3148 -0.1714
  908MOL0     H19801   9.599  11.646   5.313  0.8619 -1.5697  1.5727
  908MOL0     H19802   9.606  11.559   5.153 -3.9243 -0.3534  1.9772
  908MOL0     H19803   9.616  11.755   5.029 -1.7908  1.3571 -1.1128
  908MOL0     H19804   9.616  11.857   5.171  2.3562  0.6717 -1.0866
  908MOL0     H19805   9.394  11.694   5.219  2.8881 -0.2381  0.7909
  908MOL0     H19806   9.385  11.844   5.127 -1.2013  0.2524  2.9868
  908MOL0     H19807   9.454  11.637   4.932 -0.9194  0.0552 -0.1727
  908MOL0     H19808   9.293  11.702   4.961 -1.7606 -0.4144  1.9736
  908MOL0     H19809   9.167  11.538   5.199 -0.7388 -0.4322 -0.3828
  908MOL0     H19810   9.110  11.182   5.147 -3.0078 -0.2619  0.6331
  908MOL0     H19811   9.052  11.308   5.235  1.2512 -0.2699  0.7318
  908MOL0     H19812   9.288  11.135   5.328  2.6982  3.3812 -0.6425
  908MOL0     H19813   9.115  11.114   5.347  0.5997  0.3535 -1.1067
  908MOL0     H19814   9.126  11.385   5.445 -0.7179  0.4401  3.7110
  908MOL0     H19815   9.139  11.246   5.545 -2.2940  1.7434 -0.7994
  908MOL0     H19816   9.378  11.371   5.392  0.1649  0.4470 -0.8846
  908MOL0     H19817   9.388  11.240   5.501 -0.3393 -0.1903  1.5609
  908MOL0     H19818   9.390  11.439   5.845  0.4918  3.0997  0.2916
  908MOL0     H19819   9.616  11.493   5.932 -0.2493 -1.4880  1.1679
  908MOL0     H19820  10.004  11.736   5.870  0.0121 -2.0822 -1.0218
  908MOL0     H19821  10.232  11.771   5.923  0.7274 -0.7327  0.0142
  908MOL0     H19822  10.424  11.817   6.042 -3.2979 -0.7685  2.1038
  908MOL0     H19823  10.503  11.684   5.955 -0.3275  1.0511  0.7388
  908MOL0     H19824  10.545  11.721   6.257  4.2336  0.2529  1.7868
  908MOL0     H19825  10.631  11.827   6.134  0.6023  0.0463 -1.1172
  908MOL0     H19826  10.738  11.610   6.037 -1.9289  0.8514 -0.8758
  908MOL0     H19827  10.650  11.510   6.143  0.4322  0.0791  0.8445
  908MOL0     H19828  10.903  11.590   6.200 -0.0606  1.2301 -2.9988
  908MOL0     H19829  10.845  11.744   6.222 -0.5453 -0.4538 -1.6885
  908MOL0     H19830  10.709  11.517   6.368  3.3599 -1.8734 -0.7625
  908MOL0     H19831  10.713  11.693   6.413  2.7994  2.2207 -2.1551
  908MOL0     H19832  10.957  11.670   6.426 -0.8856  0.9609  0.3791
  908MOL0     H19833  10.941  11.497   6.422 -2.1606 -0.7471  1.3475
  908MOL0     H19834  10.859  11.686   6.647  1.2243  1.1332 -0.4028
  908MOL0     H19835  10.780  11.533   6.632 -0.4664  2.1783  0.5670
  908MOL0     H19836  11.010  11.561   6.775  1.8490 -0.8823 -0.8789
  908MOL0     H19837  11.091  11.579   6.621 -0.7486  2.0090  0.1270
  908MOL0     H19838  10.227  11.484   6.234 -1.9543  0.5211  3.2698
  908MOL0     H19839   9.985  11.429   6.178 -1.7173  0.3104 -0.3007
  908MOL0     H19840   9.796  11.481   5.550 -0.5074  1.7695 -0.1279
  908MOL0     H19841   9.573  11.427   5.453 -0.5845  1.7323  0.3757
  908MOL0     H19842  10.003  11.134   5.107 -2.3268  2.1729  0.6358
  908MOL0     H19843  10.121  11.109   4.910  1.1648  3.0023 -1.5344
  908MOL0     H19844  10.402  11.066   4.645 -2.3095  3.4377  3.1491
  908MOL0     H19845  10.557  10.982   4.476  1.3543 -0.7728  2.8785
  908MOL0     H19846  10.676  10.937   4.258  0.0937  1.6303  0.2013
  908MOL0     H19847  10.783  10.899   4.395 -1.1254 -0.9816  0.3240
  908MOL0     H19848  10.883  10.835   4.188  2.7967  0.4173 -1.9434
  908MOL0     H19849  10.865  10.998   4.125  0.3519  0.0013 -0.5167
  908MOL0     H19850  11.024  10.985   4.369 -1.3258  3.9139  0.8299
  908MOL0     H19851  11.019  11.103   4.251 -0.4372 -0.0735  2.1094
  908MOL0     H19852  11.122  10.948   4.082  0.3677  0.9135 -0.4835
  908MOL0     H19853  11.219  10.998   4.221 -2.9882  2.4192  3.8318
  908MOL0     H19854  11.139  10.568   4.230 -1.5482 -0.7575 -0.0366
  908MOL0     H19855  10.767  11.353   4.472 -2.4901  3.4125 -1.2935
  908MOL0     H19856  10.608  11.457   4.628  0.4690 -0.0353  0.8430
  909MOL0     O19857   1.204  10.035  10.666 -0.2119  0.0842 -0.3426
  909MOL0     C19858   1.196   9.986  10.559  0.5385 -0.2658  0.6804
  909MOL0     O19859   1.229  10.051  10.443  0.0049  0.6684  0.3090
  909MOL0     C19860   1.244  10.185  10.444 -0.3673 -0.3335 -0.9729
  909MOL0     C19861   1.356  10.248  10.507  0.8065  0.0976 -0.3892
  909MOL0     C19862   1.371  10.385  10.501 -0.0409 -0.7324  0.2108
  909MOL0     C19863   1.276  10.461  10.436 -0.1944 -0.9100 -1.0657
  909MOL0     O19864   1.267  10.592  10.435  0.5336 -0.1136  1.0716
  909MOL0     C19865   1.337  10.671  10.534  0.3255  0.6368  0.0463
  909MOL0     C19866   1.288  10.812  10.523  0.6110  0.9281  0.2354
  909MOL0     C19867   1.145  10.833  10.598  0.5293  0.3938 -0.4886
  909MOL0     C19868   1.091  10.979  10.593 -0.2857 -0.3718 -0.6959
  909MOL0     C19869   0.947  10.999  10.632 -0.5334 -0.4290 -0.3629
  909MOL0     C19870   0.903  11.152  10.619 -0.1153 -0.2073 -0.2117
  909MOL0     C19871   0.801  11.204  10.720 -0.0229 -0.9256  0.4290
  909MOL0     C19872   0.676  11.107  10.732  0.4644 -0.5504 -0.4344
  909MOL0     N19873   0.573  11.163  10.827  0.3539 -0.2149 -0.4396
  909MOL0     C19874   0.464  11.232  10.775  0.9035  0.4740 -0.7617
  909MOL0     C19875   0.364  11.219  10.870 -0.4438 -0.0351 -0.9087
  909MOL0     C19876   0.231  11.289  10.869  0.2570 -1.6457  0.0809
  909MOL0     C19877   0.179  11.348  10.998  0.4864 -0.1355  0.0797
  909MOL0     C19878   0.250  11.471  11.049 -0.7779  0.2231 -0.0089
  909MOL0     C19879   0.215  11.593  10.973  0.4532 -0.4510  0.6508
  909MOL0     O19880   0.286  11.705  11.012  0.4349  0.1227 -0.0225
  909MOL0     C19881   0.221  11.781  11.102  0.0295  0.7625  1.5435
  909MOL0     C19882   0.252  11.767  11.234 -0.7030 -0.2201  0.2489
  909MOL0     C19883   0.183  11.848  11.331 -0.6066  0.7309 -0.0122
  909MOL0     C19884   0.089  11.937  11.291 -0.2188 -0.1209  0.3166
  909MOL0     C19885   0.001  12.021  11.380  0.2531 -0.7225 -0.4261
  909MOL0     O19886  -0.042  11.984  11.507 -0.2901  0.6368 -0.6060
  909MOL0     C19887  -0.076  11.846  11.532 -0.5274 -0.1053 -0.2398
  909MOL0     C19888  -0.128  11.754  11.442 -0.2546  0.4761  0.8475
  909MOL0     C19889  -0.169  11.627  11.481 -0.5717  0.5755 -0.1444
  909MOL0     C19890  -0.158  11.591  11.615 -0.2949 -0.4444  0.5092
  909MOL0     O19891  -0.186  11.464  11.650  0.8475 -0.4336 -0.5128
  909MOL0     C19892  -0.226  11.432  11.781  0.0676  0.2289 -0.0883
  909MOL0     C19893  -0.336  11.318  11.794 -0.6463 -0.6632  0.2616
  909MOL0     C19894  -0.354  11.270  11.931 -1.4171 -0.4406 -0.5373
  909MOL0     C19895  -0.451  11.158  11.938 -0.2653 -0.3132 -0.0278
  909MOL0     C19896  -0.588  11.190  11.981 -0.2414 -0.1136  0.8867
  909MOL0     C19897  -0.580  11.223  12.122  1.3072 -0.7688  0.2559
  909MOL0     C19898  -0.718  11.240  12.192  1.2492  0.0951  0.0529
  909MOL0     C19899  -0.790  11.373  12.153  0.1425  0.6788 -0.0206
  909MOL0    Cl19900  -0.690  11.506  12.221  0.3639 -0.2682  0.5574
  909MOL0     C19901  -0.113  11.692  11.702  0.1101  0.7566 -0.0408
  909MOL0     C19902  -0.068  11.815  11.662  0.1138 -0.0733 -0.4281
  909MOL0     O19903  -0.001  12.134  11.341  0.3332 -0.0257 -0.1203
  909MOL0     C19904   0.047  11.941  11.159 -0.3248 -0.3099 -0.1494
  909MOL0     C19905   0.118  11.866  11.061 -0.3554 -0.3291 -0.1616
  909MOL0     N19906   0.421  11.150  10.978 -0.0733 -0.0140  1.2006
  909MOL0     N19907   0.543  11.118  10.952  0.4050 -0.3257 -0.3777
  909MOL0     C19908   1.159  10.403  10.386 -0.2310 -0.1951  0.3609
  909MOL0     C19909   1.154  10.263  10.375  1.1375  0.1919  0.3937
  909MOL0     C19910   1.131   9.852  10.544 -0.4825 -0.1807  0.2015
  909MOL0     C19911   1.082   9.781  10.664  0.2477 -0.1044 -0.5243
  909MOL0     C19912   1.033   9.651  10.652 -0.5280  0.8140 -0.3408
  909MOL0     C19913   1.035   9.585  10.533 -0.1628 -0.8348  0.1716
  909MOL0     O19914   0.991   9.457  10.516  0.0218 -0.3076  0.4737
  909MOL0     C19915   0.915   9.426  10.402 -0.1212  0.6900 -0.3447
  909MOL0     C19916   0.781   9.493  10.392 -0.8320 -0.7466 -0.1915
  909MOL0     C19917   0.678   9.418  10.490  0.1047 -0.3516 -0.9759
  909MOL0     C19918   0.531   9.425  10.448  0.1437 -0.1173  0.0457
  909MOL0     C19919   0.501   9.564  10.414 -0.2903  1.0745  0.4450
  909MOL0     C19920   0.477   9.672  10.382  0.2251 -1.5210 -0.3246
  909MOL0     C19921   1.086   9.657  10.423  0.0870  0.4700  0.3202
  909MOL0     C19922   1.127   9.790  10.421 -0.0824  0.7427  0.1328
  909MOL0     H19923   1.426  10.180  10.555 -0.5915 -0.8387  0.3846
  909MOL0     H19924   1.451  10.423  10.564 -1.4529  0.2709  1.5011
  909MOL0     H19925   1.446  10.675  10.538  0.2711  1.4508  2.3665
  909MOL0     H19926   1.298  10.627  10.626 -2.5234  0.9063 -0.9370
  909MOL0     H19927   1.287  10.851  10.421  1.9408  1.4134  0.3823
  909MOL0     H19928   1.364  10.876  10.569  1.3492 -1.2473  2.2362
  909MOL0     H19929   1.145  10.801  10.703  2.1647 -2.0641 -1.1441
  909MOL0     H19930   1.068  10.766  10.558 -0.1809 -0.5362  2.1844
  909MOL0     H19931   1.142  11.047  10.663 -2.8502 -0.8202  1.8207
  909MOL0     H19932   1.100  11.012  10.489 -2.4541 -1.3537 -1.2542
  909MOL0     H19933   0.941  10.962  10.735  1.3793 -0.2543 -0.1478
  909MOL0     H19934   0.881  10.942  10.566  0.0967  0.4167 -1.7677
  909MOL0     H19935   0.871  11.179  10.518  3.5225 -0.5983 -1.6230
  909MOL0     H19936   0.988  11.216  10.640 -0.5412  1.2144 -2.4423
  909MOL0     H19937   0.862  11.217  10.810  0.6938  1.8978 -0.3592
  909MOL0     H19938   0.762  11.305  10.706  0.5753 -0.8286 -0.5878
  909MOL0     H19939   0.700  11.011  10.777 -3.1222 -0.1110  2.8992
  909MOL0     H19940   0.624  11.085  10.638 -0.2049  3.2189 -1.1223
  909MOL0     H19941   0.474  11.292  10.685  2.2671  0.4784 -0.6303
  909MOL0     H19942   0.159  11.212  10.838 -0.2362 -1.5236  0.8828
  909MOL0     H19943   0.225  11.371  10.798 -1.7913  0.0012  1.9979
  909MOL0     H19944   0.193  11.277  11.080  0.9329  1.4203  1.4294
  909MOL0     H19945   0.072  11.367  10.993  0.6637  0.9009 -0.1206
  909MOL0     H19946   0.232  11.488  11.156 -0.3479  3.3837 -0.3583
  909MOL0     H19947   0.359  11.470  11.044 -0.6324  2.5259  1.2321
  909MOL0     H19948   0.106  11.604  10.964  0.5924  2.3789  1.3912
  909MOL0     H19949   0.249  11.584  10.870  0.3687  1.6533  0.3912
  909MOL0     H19950   0.327  11.694  11.262 -0.6965 -0.8720 -1.3369
  909MOL0     H19951   0.208  11.853  11.436  0.1118  4.4009 -0.2295
  909MOL0     H19952  -0.134  11.782  11.337 -0.2154  3.4120  1.5497
  909MOL0     H19953  -0.223  11.570  11.406  1.5429  3.3937 -4.1692
  909MOL0     H19954  -0.273  11.525  11.813 -0.7752  0.4812 -1.8936
  909MOL0     H19955  -0.142  11.401  11.845  0.3715  4.0373  1.5995
  909MOL0     H19956  -0.310  11.232  11.731 -1.7219 -2.1913  1.7873
  909MOL0     H19957  -0.433  11.351  11.754  0.8736  2.7658 -0.9385
  909MOL0     H19958  -0.366  11.353  12.000 -0.0458 -2.1981  2.0057
  909MOL0     H19959  -0.260  11.229  11.969 -1.1735 -0.8716 -1.5485
  909MOL0     H19960  -0.464  11.108  11.841  0.3635 -2.9723  1.1713
  909MOL0     H19961  -0.401  11.089  12.006 -0.0558 -0.1932 -0.0594
  909MOL0     H19962  -0.656  11.105  11.969 -2.4529  1.8023 -0.9660
  909MOL0     H19963  -0.622  11.280  11.931 -1.0900  0.9174  3.1532
  909MOL0     H19964  -0.538  11.323  12.130 -1.2733  0.4623 -0.4825
  909MOL0     H19965  -0.526  11.149  12.183 -0.8733 -3.1836 -0.5554
  909MOL0     H19966  -0.798  11.170  12.167  0.7895  0.7893 -0.4735
  909MOL0     H19967  -0.707  11.239  12.301  1.9934 -0.0633 -0.0204
  909MOL0     H19968  -0.895  11.379  12.184  0.7292  2.3301  1.9001
  909MOL0     H19969  -0.800  11.380  12.044  3.1873 -0.9959 -0.5223
  909MOL0     H19970  -0.090  11.677  11.807  4.1658  3.3737 -0.3010
  909MOL0     H19971  -0.027  11.878  11.740 -0.4777  1.9141 -1.6444
  909MOL0     H19972  -0.037  12.004  11.131  0.4401  0.2713 -1.1928
  909MOL0     H19973   0.104  11.877  10.954  0.9416  3.2238 -0.1071
  909MOL0     H19974   1.093  10.473  10.336  0.3397  0.8948  1.0928
  909MOL0     H19975   1.082  10.208  10.316  0.6221 -1.9954  2.8823
  909MOL0     H19976   1.074   9.832  10.760 -3.6955  1.6369 -1.5929
  909MOL0     H19977   1.003   9.578  10.726 -2.1400 -0.0655 -1.7997
  909MOL0     H19978   0.895   9.319  10.400  0.5237  0.5626 -2.7284
  909MOL0     H19979   0.964   9.442  10.305 -3.7007  1.8200 -2.1473
  909MOL0     H19980   0.788   9.591  10.440 -2.1428 -1.8519  2.4597
  909MOL0     H19981   0.748   9.500  10.288 -1.0072 -1.6589 -0.2032
  909MOL0     H19982   0.683   9.465  10.589 -1.2491  0.1706 -1.1289
  909MOL0     H19983   0.700   9.312  10.503  3.0703 -0.0423 -2.5819
  909MOL0     H19984   0.520   9.367  10.356  2.5752  0.2102 -0.5302
  909MOL0     H19985   0.449   9.401  10.516 -3.4291  0.2933 -3.7028
  909MOL0     H19986   0.462   9.772  10.348 -3.0067 -1.0019  2.1440
  909MOL0     H19987   1.081   9.608  10.327  0.0916  0.3635  0.3737
  909MOL0     H19988   1.160   9.837  10.329 -2.4350 -1.8793 -2.2162
  910MOL0     O19989   9.120   5.466   7.782 -0.0132  0.2204 -0.2212
  910MOL0     C19990   9.074   5.401   7.880 -0.3420  0.7740 -0.3295
  910MOL0     O19991   8.971   5.445   7.948  0.6309  0.5612 -0.0552
  910MOL0     C19992   8.910   5.564   7.920  0.4568  0.2993  1.1642
  910MOL0     C19993   8.922   5.677   8.005 -0.0514 -0.1540  0.3255
  910MOL0     C19994   8.842   5.786   7.988  0.4899 -0.5245 -0.1167
  910MOL0     C19995   8.741   5.780   7.888 -0.1429 -0.3710 -0.3589
  910MOL0     O19996   8.658   5.886   7.857 -0.6158  0.2621 -0.5593
  910MOL0     C19997   8.633   5.995   7.948 -0.1193  1.0392 -0.7891
  910MOL0     C19998   8.480   6.000   7.997 -0.4009 -0.0624 -0.4498
  910MOL0     C19999   8.402   6.001   7.863 -0.3669  0.6163 -0.0404
  910MOL0     C20000   8.248   6.018   7.868  0.4225  0.0586  0.0701
  910MOL0     C20001   8.178   5.885   7.932  0.0127 -0.6653  0.6356
  910MOL0     C20002   8.033   5.903   7.921  0.0430 -0.6123 -0.0529
  910MOL0     C20003   7.965   5.772   7.978  0.0064  0.3622 -0.1570
  910MOL0     C20004   7.810   5.777   7.981 -0.6452  0.7628  0.0397
  910MOL0     N20005   7.744   5.889   8.053 -0.6445  0.6470  0.8241
  910MOL0     C20006   7.712   6.005   7.988 -0.2290 -0.1751 -0.2897
  910MOL0     C20007   7.615   6.054   8.068 -0.1795 -0.6535  0.0369
  910MOL0     C20008   7.549   6.193   8.059 -0.0320  0.9541 -1.2206
  910MOL0     C20009   7.395   6.209   8.096 -0.1763 -0.6336  0.7848
  910MOL0     C20010   7.302   6.186   7.970 -0.7581 -0.6852 -0.4536
  910MOL0     C20011   7.329   6.272   7.846 -0.9974  0.0898 -0.1309
  910MOL0     O20012   7.302   6.411   7.874  0.5889 -0.4294  0.4109
  910MOL0     C20013   7.344   6.523   7.802  0.3498 -0.0540  0.7784
  910MOL0     C20014   7.320   6.654   7.850  0.0632 -0.0625 -0.5044
  910MOL0     C20015   7.390   6.763   7.796 -0.1656 -0.6138  0.1916
  910MOL0     C20016   7.468   6.748   7.672  0.5525  0.7423 -0.0657
  910MOL0     C20017   7.547   6.853   7.610  0.1440  0.8070  0.2609
  910MOL0     O20018   7.605   6.947   7.690 -0.4285  0.4380 -0.4427
  910MOL0     C20019   7.672   7.047   7.631 -0.3649  0.1157  0.1071
  910MOL0     C20020   7.623   7.173   7.629  0.6406  0.0401 -0.0978
  910MOL0     C20021   7.697   7.275   7.573  0.0000  0.0131  1.1626
  910MOL0     C20022   7.831   7.260   7.536  1.0149 -0.1109  0.1920
  910MOL0     O20023   7.913   7.359   7.479 -0.2494  0.2792 -0.0046
  910MOL0     C20024   7.896   7.495   7.503  0.3429 -0.3369 -0.5928
  910MOL0     C20025   8.015   7.573   7.433 -0.4661  0.0311 -0.9310
  910MOL0     C20026   7.988   7.725   7.391 -0.6932 -0.4261 -0.4527
  910MOL0     C20027   8.098   7.775   7.300 -0.0687  0.2478  0.2499
  910MOL0     C20028   8.079   7.909   7.224  0.7323  0.2418 -0.1422
  910MOL0     C20029   8.208   7.959   7.156  0.2279 -0.5915  0.2671
  910MOL0     C20030   8.218   8.115   7.163 -0.6653  0.6663  0.3062
  910MOL0     C20031   8.365   8.149   7.210 -0.3169  0.1429 -0.7949
  910MOL0    Cl20032   8.418   8.086   7.363  0.1642  0.2076 -0.3571
  910MOL0     C20033   7.876   7.133   7.547 -0.0141 -0.0025 -0.2536
  910MOL0     C20034   7.804   7.027   7.596  0.9452 -0.3979 -0.8748
  910MOL0     O20035   7.557   6.857   7.489  0.8330 -0.4763 -0.6710
  910MOL0     C20036   7.502   6.614   7.631  1.0037 -0.0259 -0.0824
  910MOL0     C20037   7.437   6.503   7.694  0.2998  0.1861 -0.9275
  910MOL0     N20038   7.588   5.969   8.171  0.2808 -0.5611 -0.4587
  910MOL0     N20039   7.664   5.863   8.159 -0.1591  0.7035  0.2658
  910MOL0     C20040   8.727   5.670   7.802  0.0833  0.6939 -0.4842
  910MOL0     C20041   8.820   5.568   7.813  0.1051 -1.1761 -0.0330
  910MOL0     C20042   9.132   5.271   7.914 -0.2991 -1.0536 -0.0841
  910MOL0     C20043   9.137   5.229   8.050 -0.7089  0.1250 -0.4276
  910MOL0     C20044   9.200   5.114   8.094 -0.3094 -0.9245  0.2802
  910MOL0     C20045   9.257   5.034   7.991 -0.4463  0.3822  0.4783
  910MOL0     O20046   9.329   4.924   8.022  0.2200 -1.0270 -0.0777
  910MOL0     C20047   9.334   4.890   8.159 -0.2523 -0.3481  0.4407
  910MOL0     C20048   9.438   4.783   8.181 -1.5068 -0.3849  0.5930
  910MOL0     C20049   9.584   4.838   8.161 -1.0284  0.6327 -0.2341
  910MOL0     C20050   9.632   4.952   8.244  0.6570 -0.0302  0.1038
  910MOL0     C20051   9.632   4.928   8.389 -0.3542 -0.3756 -1.0303
  910MOL0     C20052   9.614   4.909   8.508  0.0411  0.0448 -0.3708
  910MOL0     C20053   9.264   5.079   7.855  0.3696 -0.1768 -0.4746
  910MOL0     C20054   9.213   5.203   7.822  0.6402 -0.4827  0.6190
  910MOL0     H20055   9.004   5.677   8.077  0.8061 -1.6868 -0.5847
  910MOL0     H20056   8.871   5.870   8.050 -0.7109  0.9423 -1.4304
  910MOL0     H20057   8.651   6.092   7.899  0.0825  2.6002  2.1322
  910MOL0     H20058   8.692   5.991   8.040 -0.9333 -1.6422 -0.3031
  910MOL0     H20059   8.439   6.082   8.057  0.2196 -0.5554  0.6776
  910MOL0     H20060   8.476   5.903   8.048  1.1670  0.7739  1.3530
  910MOL0     H20061   8.424   5.914   7.801  3.3264  0.6844  0.9149
  910MOL0     H20062   8.443   6.084   7.804 -2.1918  0.0791 -2.2015
  910MOL0     H20063   8.211   6.107   7.920  0.3878 -0.9046  1.7458
  910MOL0     H20064   8.214   6.022   7.764  1.4039 -2.2791 -0.3936
  910MOL0     H20065   8.200   5.876   8.038  1.2362 -2.6131  0.2542
  910MOL0     H20066   8.214   5.792   7.887  0.3920 -0.1722 -0.1227
  910MOL0     H20067   8.013   5.919   7.814  1.7452 -0.0100 -0.3189
  910MOL0     H20068   8.017   5.998   7.973  1.3222 -0.7436  0.6190
  910MOL0     H20069   7.994   5.688   7.914  0.5022 -1.2975  2.1593
  910MOL0     H20070   7.998   5.761   8.081  1.7515  2.9664 -0.3283
  910MOL0     H20071   7.771   5.684   8.022  0.7115  1.0792  2.2422
  910MOL0     H20072   7.762   5.767   7.884 -1.8348 -0.2468  0.7162
  910MOL0     H20073   7.773   6.061   7.917 -1.5172  2.3358  0.4512
  910MOL0     H20074   7.562   6.234   7.958 -0.8351  0.5814 -1.4856
  910MOL0     H20075   7.604   6.253   8.132  0.1314 -0.6435  0.0187
  910MOL0     H20076   7.386   6.314   8.127  3.9854  0.1582 -0.0401
  910MOL0     H20077   7.356   6.134   8.164  0.1367 -1.6428 -0.1208
  910MOL0     H20078   7.323   6.084   7.937  0.2514  0.0369 -2.1988
  910MOL0     H20079   7.198   6.199   8.001 -1.1769  0.1849 -2.1110
  910MOL0     H20080   7.261   6.238   7.768 -0.0445 -1.9236 -0.1526
  910MOL0     H20081   7.431   6.266   7.806 -0.7887  1.6781  0.0892
  910MOL0     H20082   7.272   6.678   7.944  2.9620 -0.5993  1.2415
  910MOL0     H20083   7.377   6.859   7.846  0.6211  0.1710 -1.0699
  910MOL0     H20084   7.518   7.196   7.645  0.8438  1.5151 -0.7483
  910MOL0     H20085   7.664   7.378   7.563  1.4060  0.7251  3.2374
  910MOL0     H20086   7.913   7.527   7.607  1.2139  2.5546 -1.5457
  910MOL0     H20087   7.799   7.531   7.468  0.7089 -0.5274 -1.8189
  910MOL0     H20088   8.046   7.515   7.346  6.5524 -1.8503  2.0863
  910MOL0     H20089   8.100   7.549   7.498  0.1784 -3.2746 -2.7605
  910MOL0     H20090   7.995   7.789   7.480  0.2552 -0.0943 -0.7545
  910MOL0     H20091   7.890   7.731   7.344  0.5064  0.3392 -2.9869
  910MOL0     H20092   8.182   7.792   7.368 -1.6671  2.0080  1.9260
  910MOL0     H20093   8.116   7.690   7.233 -0.3374 -0.8292  1.5121
  910MOL0     H20094   8.052   7.984   7.299 -1.8978 -0.7102 -0.0306
  910MOL0     H20095   7.986   7.894   7.168  0.7115 -1.2910  0.2551
  910MOL0     H20096   8.209   7.928   7.051 -1.1334 -1.9083  0.6082
  910MOL0     H20097   8.298   7.912   7.198 -0.1712 -2.9253 -1.2774
  910MOL0     H20098   8.208   8.155   7.062 -2.4414 -2.9361 -1.1284
  910MOL0     H20099   8.151   8.163   7.234 -0.6215 -0.5372  1.1872
  910MOL0     H20100   8.354   8.256   7.228 -0.5686  0.0924 -0.6522
  910MOL0     H20101   8.447   8.146   7.137  2.1355 -0.7778  1.8098
  910MOL0     H20102   7.973   7.100   7.510  0.3318  0.2941  0.3759
  910MOL0     H20103   7.832   6.923   7.586 -0.1713 -0.6718 -1.3668
  910MOL0     H20104   7.581   6.592   7.560  2.1475 -1.0387  1.4453
  910MOL0     H20105   7.459   6.401   7.663 -2.9661 -0.2943 -2.0517
  910MOL0     H20106   8.652   5.680   7.725 -3.8373 -0.7912  2.7438
  910MOL0     H20107   8.831   5.488   7.740  1.7250 -2.1876  1.2387
  910MOL0     H20108   9.096   5.283   8.135 -0.0482 -0.9689  0.6154
  910MOL0     H20109   9.189   5.087   8.198  0.3553 -0.3624  0.5099
  910MOL0     H20110   9.238   4.853   8.199 -1.7336  0.4707 -2.1410
  910MOL0     H20111   9.353   4.974   8.227  1.4677 -1.5604  1.5372
  910MOL0     H20112   9.448   4.727   8.275 -1.4130  1.2111  1.5723
  910MOL0     H20113   9.419   4.700   8.112 -2.4635 -1.4632  2.0745
  910MOL0     H20114   9.595   4.867   8.056  2.2902  2.2929  0.4338
  910MOL0     H20115   9.653   4.755   8.177  1.0569  2.3616  0.2723
  910MOL0     H20116   9.733   4.971   8.209  0.9406 -0.5470  0.6118
  910MOL0     H20117   9.575   5.041   8.217  0.7278 -0.3422 -1.1125
  910MOL0     H20118   9.590   4.902   8.612  0.9138  0.4681 -0.1285
  910MOL0     H20119   9.321   5.022   7.782 -0.5683  1.4356 -2.5869
  910MOL0     H20120   9.221   5.237   7.719  6.4549  0.8695  1.1503
  911MOL0     O20121   7.697   5.302   1.602 -1.0857 -0.7230 -0.9413
  911MOL0     C20122   7.747   5.229   1.518 -0.7295  1.3327 -0.7319
  911MOL0     O20123   7.883   5.226   1.487  0.0089 -0.0331  0.7914
  911MOL0     C20124   7.971   5.313   1.538 -0.3785 -0.4166 -0.0802
  911MOL0     C20125   8.019   5.298   1.674  0.4694 -0.8740  0.1325
  911MOL0     C20126   8.126   5.375   1.724  0.2140 -0.1573  0.1311
  911MOL0     C20127   8.169   5.489   1.650  0.4531  0.0047  0.6474
  911MOL0     O20128   8.254   5.584   1.688 -0.7142  0.4801 -0.4650
  911MOL0     C20129   8.272   5.596   1.833  0.3551 -0.8267  0.4425
  911MOL0     C20130   8.387   5.677   1.890 -0.5283 -0.2961 -0.4646
  911MOL0     C20131   8.385   5.640   2.047 -0.6241  0.8773  0.3123
  911MOL0     C20132   8.272   5.721   2.105 -0.2800 -0.8366 -0.0073
  911MOL0     C20133   8.257   5.703   2.256 -0.7146  0.2802  1.2743
  911MOL0     C20134   8.129   5.749   2.317  0.3882 -0.6260 -0.6925
  911MOL0     C20135   8.128   5.728   2.473 -1.2356  0.6300  0.5268
  911MOL0     C20136   7.995   5.747   2.528  0.4570 -0.2844  0.3718
  911MOL0     N20137   7.898   5.642   2.504 -0.4480 -0.2276 -0.1818
  911MOL0     C20138   7.860   5.555   2.595 -0.8837  0.0352 -0.1787
  911MOL0     C20139   7.767   5.478   2.533  0.2914 -0.2594 -0.1776
  911MOL0     C20140   7.700   5.358   2.587 -0.7338  0.0693  0.2924
  911MOL0     C20141   7.744   5.228   2.529 -0.4302  0.3498  0.4252
  911MOL0     C20142   7.879   5.186   2.588 -0.4839  0.7302  0.2898
  911MOL0     C20143   7.912   5.038   2.566  0.0101  0.4043 -0.3713
  911MOL0     O20144   7.805   4.959   2.626  0.0457  0.2568 -0.4784
  911MOL0     C20145   7.816   4.821   2.627 -0.0031  0.2092 -0.9267
  911MOL0     C20146   7.705   4.747   2.669 -0.7493  0.4390 -0.5011
  911MOL0     C20147   7.708   4.606   2.666 -0.0415 -0.1760  0.9718
  911MOL0     C20148   7.822   4.536   2.623 -0.0756  1.0119 -0.0521
  911MOL0     C20149   7.848   4.384   2.627 -0.3325  0.5647 -0.7521
  911MOL0     O20150   7.746   4.310   2.677 -0.6686  0.7714  0.5193
  911MOL0     C20151   7.735   4.179   2.626  0.1057  0.2087 -0.1797
  911MOL0     C20152   7.621   4.131   2.560 -0.3484 -0.7843  0.4196
  911MOL0     C20153   7.609   3.993   2.522 -0.3774 -0.8637  1.2120
  911MOL0     C20154   7.712   3.906   2.534 -0.3285  0.3778 -0.0465
  911MOL0     O20155   7.693   3.776   2.483  0.6430 -0.2027 -0.4657
  911MOL0     C20156   7.797   3.680   2.494  0.1332 -0.0988  0.0005
  911MOL0     C20157   7.745   3.531   2.494  0.4949  0.4396  0.3613
  911MOL0     C20158   7.855   3.419   2.503 -0.0932 -0.5937  0.1030
  911MOL0     C20159   7.797   3.282   2.559 -1.6137 -0.5773 -0.2852
  911MOL0     C20160   7.907   3.182   2.604  0.6334 -0.5457 -0.0127
  911MOL0     C20161   7.997   3.227   2.725  0.2928 -0.5546  0.5248
  911MOL0     C20162   7.944   3.331   2.834  0.3899 -0.0189  0.4839
  911MOL0     C20163   7.880   3.247   2.952  0.3817 -0.1900  0.7651
  911MOL0    Cl20164   7.711   3.277   2.969 -0.3153 -0.1645 -0.4336
  911MOL0     C20165   7.825   3.953   2.598  0.0086 -0.5538 -1.0982
  911MOL0     C20166   7.836   4.089   2.646 -0.6366  0.2209  0.7760
  911MOL0     O20167   7.953   4.344   2.570 -0.7506  0.0922 -0.4719
  911MOL0     C20168   7.927   4.615   2.586 -0.5848  0.5185  0.0322
  911MOL0     C20169   7.929   4.754   2.596 -0.4788  0.2170 -0.9378
  911MOL0     N20170   7.747   5.516   2.400 -0.0049 -0.1129  0.9145
  911MOL0     N20171   7.833   5.616   2.390  0.3144 -0.4758 -0.5341
  911MOL0     C20172   8.124   5.496   1.513 -0.2380  1.1640 -1.1952
  911MOL0     C20173   8.026   5.415   1.458 -0.9402 -0.9453  0.4595
  911MOL0     C20174   7.654   5.134   1.446 -0.5871  0.7082  0.4921
  911MOL0     C20175   7.533   5.102   1.506 -1.0029  1.1078 -0.0269
  911MOL0     C20176   7.454   4.993   1.460  0.1813 -0.0751  0.8010
  911MOL0     C20177   7.492   4.922   1.347 -0.7017  0.8869 -0.4701
  911MOL0     O20178   7.420   4.807   1.325  0.6199  0.0257 -0.0213
  911MOL0     C20179   7.326   4.794   1.217 -0.1691  0.1406 -0.8951
  911MOL0     C20180   7.287   4.645   1.202  0.8824  0.7342 -0.3357
  911MOL0     C20181   7.245   4.576   1.334  0.2730 -0.2153  0.5752
  911MOL0     C20182   7.194   4.436   1.319  0.8214  0.2457  0.2821
  911MOL0     C20183   7.298   4.326   1.314  0.3999 -0.5232 -0.3543
  911MOL0     C20184   7.375   4.236   1.289 -0.1159  0.4805  0.0449
  911MOL0     C20185   7.600   4.976   1.269 -0.8746 -0.6498  0.3174
  911MOL0     C20186   7.688   5.073   1.322  0.2836 -0.5985  0.5185
  911MOL0     H20187   7.996   5.213   1.738 -0.4449 -0.4494  0.3877
  911MOL0     H20188   8.150   5.355   1.828  0.1619 -0.5326  0.0714
  911MOL0     H20189   8.277   5.495   1.875  1.9285 -0.2178  1.8684
  911MOL0     H20190   8.178   5.641   1.866 -0.9381  0.1367 -3.9305
  911MOL0     H20191   8.372   5.784   1.873 -2.1747 -0.7315 -2.1554
  911MOL0     H20192   8.477   5.638   1.841 -0.3824 -2.0256  1.0706
  911MOL0     H20193   8.483   5.660   2.089 -0.9138  1.2460  0.8159
  911MOL0     H20194   8.366   5.533   2.060 -1.6239  0.8400 -1.1780
  911MOL0     H20195   8.302   5.826   2.096  4.2235 -2.0843 -2.5723
  911MOL0     H20196   8.173   5.718   2.058  1.2362 -1.3137 -3.4271
  911MOL0     H20197   8.346   5.746   2.301 -1.0307  0.8226  1.3890
  911MOL0     H20198   8.268   5.594   2.267  1.1986  0.2524 -0.3757
  911MOL0     H20199   8.045   5.697   2.270  1.3147 -3.4837  0.6037
  911MOL0     H20200   8.113   5.855   2.292  1.5035 -0.9767 -3.2641
  911MOL0     H20201   8.152   5.622   2.487 -0.9114  0.6905  0.4290
  911MOL0     H20202   8.208   5.790   2.514  0.4572 -1.3905  0.4717
  911MOL0     H20203   7.962   5.848   2.501  1.4680 -0.0897 -0.1998
  911MOL0     H20204   7.997   5.756   2.637  0.5510 -1.5327  0.4823
  911MOL0     H20205   7.900   5.539   2.695 -0.0816 -1.6718 -0.7345
  911MOL0     H20206   7.590   5.364   2.586 -0.7502 -0.2352 -0.5509
  911MOL0     H20207   7.729   5.351   2.692 -0.0749  2.0323  0.2638
  911MOL0     H20208   7.738   5.235   2.420  0.5506  0.7687  0.3902
  911MOL0     H20209   7.669   5.150   2.549  2.1077 -3.5735 -3.3738
  911MOL0     H20210   7.962   5.237   2.539  0.4089 -1.3571 -0.4480
  911MOL0     H20211   7.882   5.192   2.697 -0.0522 -3.3666  0.6465
  911MOL0     H20212   8.012   5.026   2.608 -0.0453  1.8141  0.2298
  911MOL0     H20213   7.911   5.014   2.459 -0.4323  2.3826 -0.8575
  911MOL0     H20214   7.619   4.803   2.706 -0.7813 -0.9001  1.6078
  911MOL0     H20215   7.618   4.559   2.706 -1.1442  0.1277 -1.0507
  911MOL0     H20216   7.548   4.207   2.536  0.2928 -0.8714 -2.0989
  911MOL0     H20217   7.519   3.962   2.470 -0.7807  0.4750  1.0727
  911MOL0     H20218   7.848   3.686   2.590  0.5095  0.4827 -0.2329
  911MOL0     H20219   7.862   3.694   2.407  0.8251 -0.2313  0.4901
  911MOL0     H20220   7.681   3.513   2.407  1.1430  3.5631 -0.9030
  911MOL0     H20221   7.687   3.524   2.586 -1.0676  2.4938 -0.3775
  911MOL0     H20222   7.935   3.450   2.571 -0.4002  3.9016 -1.2580
  911MOL0     H20223   7.914   3.411   2.411 -0.2772  4.1105 -0.7060
  911MOL0     H20224   7.726   3.299   2.641 -2.7626  3.9256 -1.9354
  911MOL0     H20225   7.752   3.226   2.476  1.1837 -0.0331 -2.3185
  911MOL0     H20226   7.967   3.176   2.513 -0.3712 -2.6141 -0.5933
  911MOL0     H20227   7.857   3.093   2.643 -3.6349  0.9676 -1.4325
  911MOL0     H20228   8.078   3.288   2.684 -1.0732 -0.1243 -1.7015
  911MOL0     H20229   8.037   3.143   2.781 -0.9152  0.0565  2.4266
  911MOL0     H20230   8.028   3.385   2.878  1.0042  1.2871 -2.0757
  911MOL0     H20231   7.881   3.415   2.806  0.9464  0.2900  0.1388
  911MOL0     H20232   7.930   3.273   3.046 -0.1649  0.8204  0.7865
  911MOL0     H20233   7.881   3.139   2.932  0.8723  0.0138 -0.3982
  911MOL0     H20234   7.899   3.874   2.608  1.8328  0.5621 -4.2616
  911MOL0     H20235   7.918   4.114   2.713 -0.9177  1.1326  0.7977
  911MOL0     H20236   8.019   4.563   2.561 -0.0434  2.4193 -2.2311
  911MOL0     H20237   8.020   4.805   2.565 -0.5457 -1.1771 -3.7317
  911MOL0     H20238   8.149   5.587   1.459 -0.0012  1.5533 -0.4320
  911MOL0     H20239   7.999   5.415   1.353 -0.8293 -0.8745  0.4321
  911MOL0     H20240   7.495   5.156   1.592  3.1535  1.0977  2.0851
  911MOL0     H20241   7.369   4.971   1.524  0.5177 -0.5655  1.0781
  911MOL0     H20242   7.374   4.839   1.129  1.8314  2.1051  1.0837
  911MOL0     H20243   7.241   4.850   1.254 -0.2635 -0.3097 -0.4203
  911MOL0     H20244   7.198   4.641   1.139  2.0671 -0.8224 -2.0245
  911MOL0     H20245   7.371   4.590   1.158  0.3339 -0.8418  0.4872
  911MOL0     H20246   7.169   4.642   1.376  0.1167  0.2623 -0.4310
  911MOL0     H20247   7.328   4.579   1.406  1.6578  2.0860 -0.9581
  911MOL0     H20248   7.141   4.409   1.411  0.4284  0.3843  0.1028
  911MOL0     H20249   7.125   4.427   1.235  4.5732 -1.9133 -2.8805
  911MOL0     H20250   7.447   4.162   1.262  0.0887 -0.4341  2.7898
  911MOL0     H20251   7.617   4.927   1.174 -0.0527 -2.0202  1.1300
  911MOL0     H20252   7.781   5.100   1.273  0.5955 -1.8719  0.3877
  912MOL0     O20253   9.766   4.678   4.757  0.4175  0.9178 -0.5532
  912MOL0     C20254   9.846   4.767   4.765 -0.9405  0.7467  0.7979
  912MOL0     O20255   9.858   4.859   4.669 -0.2861  0.7588  0.3603
  912MOL0     C20256   9.768   4.881   4.565 -0.5792  0.0471 -0.0933
  912MOL0     C20257   9.725   4.800   4.473  0.1275 -0.5496 -0.2395
  912MOL0     C20258   9.632   4.832   4.372  0.0945  0.4812 -0.7322
  912MOL0     C20259   9.596   4.964   4.360  0.1886  0.2125  0.0185
  912MOL0     O20260   9.520   5.012   4.255 -0.3929 -0.3900  0.1706
  912MOL0     C20261   9.457   4.935   4.145  0.1973 -0.6158  0.1636
  912MOL0     C20262   9.462   5.031   4.021  0.5870 -0.4573 -0.7534
  912MOL0     C20263   9.382   4.984   3.894  0.3998 -0.7911 -0.1076
  912MOL0     C20264   9.395   5.095   3.792 -1.2342  0.5104 -0.0066
  912MOL0     C20265   9.315   5.072   3.665  0.5289 -0.2921 -0.6018
  912MOL0     C20266   9.354   5.165   3.551  0.5085  0.0395 -0.7700
  912MOL0     C20267   9.461   5.110   3.455 -0.4891 -0.1102  0.7993
  912MOL0     C20268   9.505   5.222   3.363  0.8409  0.3061 -0.0871
  912MOL0     N20269   9.588   5.170   3.256 -0.0855 -0.8009  0.4162
  912MOL0     C20270   9.552   5.109   3.139  0.3338 -0.1310  0.6868
  912MOL0     C20271   9.659   5.108   3.060  0.2573 -0.2846 -0.1600
  912MOL0     C20272   9.647   5.059   2.914  0.3081  0.0975 -0.1505
  912MOL0     C20273   9.593   5.158   2.814  0.7567 -0.2101 -0.5101
  912MOL0     C20274   9.461   5.232   2.834 -0.6702 -0.3461 -0.8781
  912MOL0     C20275   9.338   5.133   2.840 -0.2595  0.5843  0.4876
  912MOL0     O20276   9.275   5.125   2.964 -0.4197 -0.3657 -0.6905
  912MOL0     C20277   9.150   5.074   2.980  0.2023 -0.4451 -0.3735
  912MOL0     C20278   9.114   5.076   3.108  0.1733 -0.8541 -0.0153
  912MOL0     C20279   9.002   5.000   3.150 -0.0178 -0.2620  0.0843
  912MOL0     C20280   8.907   4.949   3.057  0.2744 -0.6022  0.0553
  912MOL0     C20281   8.788   4.872   3.108 -0.5150 -0.6147  0.7887
  912MOL0     O20282   8.771   4.854   3.240  0.6121  0.6303 -0.1880
  912MOL0     C20283   8.645   4.805   3.282 -0.0295  0.8244  0.0395
  912MOL0     C20284   8.654   4.696   3.375  1.2864  0.5707  0.4232
  912MOL0     C20285   8.536   4.636   3.430 -0.7689 -0.0358 -0.6097
  912MOL0     C20286   8.416   4.683   3.384 -1.0317  0.2435  0.2846
  912MOL0     O20287   8.298   4.636   3.440 -0.0488 -0.6007 -0.0049
  912MOL0     C20288   8.260   4.499   3.419  0.4312 -0.5069 -0.0217
  912MOL0     C20289   8.171   4.447   3.537  0.3505  0.2062 -0.4667
  912MOL0     C20290   8.145   4.302   3.522  0.2388  0.9865  0.0395
  912MOL0     C20291   8.100   4.226   3.648 -0.7825 -0.7193  0.7268
  912MOL0     C20292   7.967   4.274   3.695 -0.1967 -0.4379 -0.1027
  912MOL0     C20293   7.964   4.388   3.788  0.5562  0.6530 -0.2757
  912MOL0     C20294   8.023   4.342   3.932  0.1400 -0.3123  0.9756
  912MOL0     C20295   7.976   4.428   4.047  0.5100 -0.6458  1.1077
  912MOL0    Cl20296   8.027   4.334   4.188 -0.0537 -0.1688 -0.1060
  912MOL0     C20297   8.409   4.786   3.290 -0.3841 -0.2406 -0.3090
  912MOL0     C20298   8.519   4.844   3.230  0.7629 -0.3910  0.7124
  912MOL0     O20299   8.705   4.844   3.019  0.7427  0.6229  0.4650
  912MOL0     C20300   8.942   4.965   2.921  0.4260 -1.2596 -0.6411
  912MOL0     C20301   9.066   5.020   2.885  0.2196  0.0215  0.1211
  912MOL0     N20302   9.764   5.167   3.136 -0.2473 -0.6856 -0.3362
  912MOL0     N20303   9.714   5.220   3.240 -0.1218 -0.0344 -0.8311
  912MOL0     C20304   9.636   5.056   4.451  0.2198  0.1296  0.5139
  912MOL0     C20305   9.736   5.015   4.545  0.2934 -0.2315 -0.1742
  912MOL0     C20306   9.917   4.773   4.889  0.1024  0.7977 -0.6732
  912MOL0     C20307   9.973   4.898   4.933 -0.6900  0.0111 -0.8412
  912MOL0     C20308  10.046   4.899   5.053 -0.7480  0.1949 -0.4086
  912MOL0     C20309  10.052   4.793   5.141  1.2538 -0.5025  0.3381
  912MOL0     O20310  10.108   4.796   5.268 -0.0649 -0.0011 -0.2646
  912MOL0     C20311  10.177   4.906   5.307 -0.1865 -0.5151 -0.4677
  912MOL0     C20312  10.196   4.897   5.460 -0.9821 -0.3659  0.3211
  912MOL0     C20313  10.265   4.774   5.519 -0.0941  0.0126 -0.2906
  912MOL0     C20314  10.262   4.758   5.674 -0.4709  0.9657  0.0152
  912MOL0     C20315  10.223   4.622   5.699  0.2906  0.5999 -0.3885
  912MOL0     C20316  10.189   4.505   5.729  0.1207  0.1176  0.9993
  912MOL0     C20317   9.981   4.673   5.103  0.1457  0.5534  0.0930
  912MOL0     C20318   9.931   4.661   4.976 -0.1012  1.3072  0.1685
  912MOL0     H20319   9.755   4.696   4.485 -0.5668 -0.5584  1.6426
  912MOL0     H20320   9.605   4.751   4.305  0.6812 -0.2866 -0.0839
  912MOL0     H20321   9.356   4.925   4.187  0.3086 -3.5819 -0.0640
  912MOL0     H20322   9.503   4.836   4.132 -1.3221 -1.0523 -2.5615
  912MOL0     H20323   9.568   5.049   4.000  0.1098  2.9548 -0.8634
  912MOL0     H20324   9.417   5.124   4.057  0.6645 -0.9387  0.6486
  912MOL0     H20325   9.277   4.960   3.916 -0.0581  0.0387 -1.2532
  912MOL0     H20326   9.420   4.890   3.854  0.1797 -0.6237 -0.7318
  912MOL0     H20327   9.366   5.188   3.842 -0.1045  0.6806  0.3678
  912MOL0     H20328   9.502   5.100   3.773 -1.2068  1.8273  0.4076
  912MOL0     H20329   9.213   5.075   3.704  1.2316 -3.0081  1.7868
  912MOL0     H20330   9.330   4.970   3.629  2.1462 -0.5753  0.7471
  912MOL0     H20331   9.386   5.255   3.604  3.9233 -1.5650  0.1569
  912MOL0     H20332   9.262   5.200   3.504 -1.6784 -2.1889  1.5909
  912MOL0     H20333   9.544   5.071   3.514  0.9552  5.3234  3.0219
  912MOL0     H20334   9.406   5.032   3.402 -0.6996  0.0899  0.7182
  912MOL0     H20335   9.564   5.289   3.427 -1.7327  3.0212 -0.3482
  912MOL0     H20336   9.426   5.280   3.315 -1.5510 -1.7644  1.1523
  912MOL0     H20337   9.455   5.065   3.117 -1.8980  4.6120 -0.1756
  912MOL0     H20338   9.587   4.968   2.912 -1.9401  1.4962 -2.6455
  912MOL0     H20339   9.744   5.022   2.879  0.2586  0.7385 -1.0107
  912MOL0     H20340   9.561   5.110   2.721 -0.7475  2.3619 -1.4080
  912MOL0     H20341   9.680   5.217   2.784  3.3769 -2.6113  1.6650
  912MOL0     H20342   9.468   5.282   2.931  2.2255 -3.1918  0.5679
  912MOL0     H20343   9.448   5.300   2.749 -1.1658  0.0626 -0.4856
  912MOL0     H20344   9.364   5.028   2.821  0.1988  0.8420 -0.3728
  912MOL0     H20345   9.265   5.161   2.763  0.0818 -2.6352 -1.1930
  912MOL0     H20346   9.180   5.115   3.185  1.3864 -3.6351  0.4714
  912MOL0     H20347   8.978   4.980   3.255  0.8628 -0.9369  0.1687
  912MOL0     H20348   8.748   4.664   3.419  0.5215 -1.9339  0.3864
  912MOL0     H20349   8.540   4.555   3.502  0.2609  0.8831  0.4073
  912MOL0     H20350   8.353   4.442   3.413 -0.1566 -1.8254  2.3301
  912MOL0     H20351   8.206   4.483   3.325 -0.7567 -2.5171  0.9401
  912MOL0     H20352   8.072   4.494   3.542 -1.9309 -4.2214  0.8670
  912MOL0     H20353   8.225   4.459   3.631  0.4491 -0.4781 -0.4341
  912MOL0     H20354   8.236   4.248   3.494 -0.4234 -0.5722  0.8162
  912MOL0     H20355   8.076   4.270   3.443  1.5397 -0.0495 -0.7035
  912MOL0     H20356   8.097   4.117   3.637  3.7131 -1.2582  2.5399
  912MOL0     H20357   8.172   4.243   3.728  1.3963 -0.2824 -1.2138
  912MOL0     H20358   7.909   4.192   3.740 -1.9871  0.6595 -0.2990
  912MOL0     H20359   7.900   4.298   3.612 -2.0036  0.1079  1.4303
  912MOL0     H20360   7.857   4.407   3.803  0.3354  0.4497 -1.4321
  912MOL0     H20361   8.002   4.481   3.747 -2.8664  0.5676 -4.3690
  912MOL0     H20362   7.976   4.247   3.956  0.5917 -0.8092 -0.0430
  912MOL0     H20363   8.132   4.329   3.927  0.2482  0.7398  0.2265
  912MOL0     H20364   7.869   4.451   4.047  0.9763  1.8594  0.0245
  912MOL0     H20365   8.036   4.520   4.044  1.7772 -1.4697 -0.8174
  912MOL0     H20366   8.306   4.812   3.265 -0.2754 -1.0925 -1.7022
  912MOL0     H20367   8.504   4.937   3.177  0.1037 -0.7607  0.2479
  912MOL0     H20368   8.892   4.909   2.843 -2.8801  0.3194  0.1707
  912MOL0     H20369   9.105   4.987   2.789  1.0786 -2.4193  1.2307
  912MOL0     H20370   9.601   5.158   4.437  1.2083  0.2848 -0.9988
  912MOL0     H20371   9.780   5.094   4.604 -1.5134  0.4691  0.2751
  912MOL0     H20372   9.962   4.990   4.878  0.1848  1.3935  1.1591
  912MOL0     H20373  10.100   4.989   5.080 -1.2852 -0.0458  1.6365
  912MOL0     H20374  10.124   5.001   5.292 -0.9525 -0.1849  3.3617
  912MOL0     H20375  10.278   4.916   5.265 -0.8611  0.6079 -1.9146
  912MOL0     H20376  10.260   4.983   5.484  1.5453 -1.4760 -1.9141
  912MOL0     H20377  10.094   4.905   5.498 -0.2510  2.2744  2.0251
  912MOL0     H20378  10.366   4.765   5.478 -1.3764 -3.3084 -3.3144
  912MOL0     H20379  10.216   4.688   5.472 -1.8670 -0.4123  2.1112
  912MOL0     H20380  10.363   4.786   5.707  0.0422  1.3390 -1.7948
  912MOL0     H20381  10.188   4.824   5.718 -1.6148  0.4851 -1.1410
  912MOL0     H20382  10.143   4.408   5.739  1.7558 -0.5582  2.3198
  912MOL0     H20383   9.972   4.587   5.168 -1.4264  1.0051  0.5272
  912MOL0     H20384   9.880   4.572   4.942  1.8723 -0.1739  0.8769
  913MOL0     O20385   5.581   1.549   2.491 -0.0433 -0.3810  0.3051
  913MOL0     C20386   5.501   1.515   2.406  0.4144  1.3749 -0.6624
  913MOL0     O20387   5.523   1.510   2.277  0.2455 -0.0649  0.0060
  913MOL0     C20388   5.622   1.571   2.208 -0.2871  0.1228 -0.1441
  913MOL0     C20389   5.596   1.578   2.075 -0.2223 -0.7105 -0.9050
  913MOL0     C20390   5.677   1.652   1.988 -0.2359 -1.2817  0.7145
  913MOL0     C20391   5.794   1.717   2.034 -0.2425 -0.5414 -0.7676
  913MOL0     O20392   5.867   1.783   1.934  0.0207 -0.4787 -0.2760
  913MOL0     C20393   6.003   1.839   1.961  0.0288  0.4134 -0.0726
  913MOL0     C20394   6.066   1.885   1.831  0.0844  0.8809  0.6394
  913MOL0     C20395   6.217   1.906   1.848 -0.9088 -0.0144 -0.2835
  913MOL0     C20396   6.260   2.057   1.822  0.3582  0.8126 -0.8867
  913MOL0     C20397   6.230   2.168   1.930 -0.3829  0.5839  0.1776
  913MOL0     C20398   6.096   2.237   1.932  0.0763  0.3473 -0.4065
  913MOL0     C20399   6.048   2.281   2.072 -0.5908 -0.0000  0.1031
  913MOL0     C20400   6.141   2.383   2.128  0.2596 -0.4996 -0.0164
  913MOL0     N20401   6.129   2.403   2.277  0.2261 -0.9122 -0.4203
  913MOL0     C20402   6.242   2.432   2.361 -1.1558 -1.1653 -0.2336
  913MOL0     C20403   6.192   2.483   2.472  0.1221 -0.0245 -0.4028
  913MOL0     C20404   6.280   2.526   2.585  0.1530 -0.5086  0.3463
  913MOL0     C20405   6.250   2.676   2.612  0.0547  1.6279  0.2946
  913MOL0     C20406   6.261   2.719   2.757  0.0018 -0.4087  0.4819
  913MOL0     C20407   6.398   2.740   2.792 -0.5550  0.1381  0.7123
  913MOL0     O20408   6.417   2.795   2.921  0.8675 -0.0822 -0.5997
  913MOL0     C20409   6.423   2.721   3.039  0.4671  0.6303  0.0151
  913MOL0     C20410   6.521   2.625   3.056  0.0868 -0.4027  0.2534
  913MOL0     C20411   6.535   2.547   3.178  0.1965  0.0893  0.2803
  913MOL0     C20412   6.463   2.580   3.289  0.3550  0.6839  0.3387
  913MOL0     C20413   6.467   2.497   3.422 -0.8522 -0.2599  1.0380
  913MOL0     O20414   6.351   2.504   3.493 -0.8984  0.4009 -0.1897
  913MOL0     C20415   6.325   2.425   3.606  0.6820 -0.6929  0.0237
  913MOL0     C20416   6.191   2.412   3.635  1.3363 -0.2791  0.6140
  913MOL0     C20417   6.146   2.355   3.760  0.2534  0.5396  0.6504
  913MOL0     C20418   6.231   2.306   3.849 -0.4002 -0.3450 -0.5317
  913MOL0     O20419   6.205   2.248   3.971  0.1096  0.4391  1.1002
  913MOL0     C20420   6.163   2.326   4.082 -0.2903  0.4648  0.7613
  913MOL0     C20421   6.221   2.260   4.208  0.3321  0.3895  0.6914
  913MOL0     C20422   6.218   2.101   4.203 -0.0456 -0.5297  0.3010
  913MOL0     C20423   6.276   2.034   4.332 -0.3735 -0.7737  0.3526
  913MOL0     C20424   6.232   1.884   4.362 -0.4988  0.1709  0.3044
  913MOL0     C20425   6.186   1.801   4.242 -0.1535  0.1343 -0.4690
  913MOL0     C20426   6.179   1.655   4.303 -0.3217 -0.3641  0.4487
  913MOL0     C20427   6.284   1.558   4.249  0.1580 -0.4946  0.8897
  913MOL0    Cl20428   6.444   1.609   4.289 -0.3673  0.5964 -0.9499
  913MOL0     C20429   6.367   2.300   3.804 -0.0406 -0.6168 -1.4997
  913MOL0     C20430   6.416   2.365   3.687  0.1557 -0.3899  0.4117
  913MOL0     O20431   6.579   2.450   3.453 -0.1710  0.5077 -0.8434
  913MOL0     C20432   6.362   2.675   3.268  0.5984 -1.4078 -0.2902
  913MOL0     C20433   6.341   2.746   3.149  0.1851 -0.2277 -0.4892
  913MOL0     N20434   6.055   2.493   2.458 -0.6168 -0.9930 -0.2923
  913MOL0     N20435   6.019   2.440   2.342  0.1687  0.4861 -0.9444
  913MOL0     C20436   5.826   1.707   2.170  0.5690  0.3423 -0.9349
  913MOL0     C20437   5.743   1.638   2.260  0.5654  0.2689  0.3160
  913MOL0     C20438   5.369   1.463   2.453 -0.4938 -0.1818  0.6150
  913MOL0     C20439   5.256   1.451   2.370 -0.3639 -0.7926 -0.3735
  913MOL0     C20440   5.129   1.399   2.418 -0.4960 -0.5003 -0.0922
  913MOL0     C20441   5.119   1.379   2.556  1.0637 -0.7037  0.1598
  913MOL0     O20442   4.990   1.347   2.592  0.2854 -0.4396  0.0349
  913MOL0     C20443   4.966   1.305   2.727 -1.1397 -0.1886  0.5702
  913MOL0     C20444   4.872   1.409   2.792 -1.2778 -0.0164 -0.4271
  913MOL0     C20445   4.819   1.376   2.935  0.0439 -0.9298  0.5223
  913MOL0     C20446   4.812   1.223   2.965  1.2676  0.4887  0.6660
  913MOL0     C20447   4.711   1.155   2.883 -0.6013 -0.9100  0.1755
  913MOL0     C20448   4.626   1.082   2.824 -0.3372 -0.4142  0.0594
  913MOL0     C20449   5.235   1.389   2.644  1.1370  1.0253  0.3833
  913MOL0     C20450   5.351   1.424   2.584 -0.4821 -0.3174  0.9926
  913MOL0     H20451   5.501   1.533   2.049 -0.8182 -0.5652  0.9176
  913MOL0     H20452   5.641   1.682   1.890 -0.1443  0.5624  1.2199
  913MOL0     H20453   6.065   1.765   2.013 -1.2600 -0.4932  0.2094
  913MOL0     H20454   6.000   1.926   2.027 -3.7131 -0.4336  1.0912
  913MOL0     H20455   6.015   1.969   1.783  1.2044  0.9678 -0.4382
  913MOL0     H20456   6.055   1.794   1.771  1.1975 -0.3723  2.2242
  913MOL0     H20457   6.262   1.856   1.762  1.5454 -1.7203  1.8344
  913MOL0     H20458   6.251   1.871   1.946 -0.9057  1.6661  0.3455
  913MOL0     H20459   6.367   2.040   1.816 -0.3368 -4.9813 -3.5053
  913MOL0     H20460   6.235   2.084   1.719  1.6439  1.0286 -1.1602
  913MOL0     H20461   6.306   2.246   1.923  2.0795 -1.6241  0.5593
  913MOL0     H20462   6.238   2.122   2.029  3.3929  1.1007  0.2719
  913MOL0     H20463   6.023   2.170   1.886  0.6519 -1.7182  1.5443
  913MOL0     H20464   6.107   2.328   1.872 -0.0103 -0.6481 -1.9940
  913MOL0     H20465   5.946   2.321   2.077 -0.6315 -0.2156  2.3127
  913MOL0     H20466   6.025   2.199   2.140 -2.6963  0.7437  0.3769
  913MOL0     H20467   6.131   2.478   2.075  0.8346 -0.5761 -0.2690
  913MOL0     H20468   6.238   2.335   2.115 -0.4738 -2.1190  0.1721
  913MOL0     H20469   6.348   2.412   2.346 -0.3854  0.3941  2.4928
  913MOL0     H20470   6.386   2.518   2.559  0.1291  0.9690 -0.3545
  913MOL0     H20471   6.261   2.466   2.674  2.3501 -1.4523  0.2612
  913MOL0     H20472   6.156   2.705   2.564  0.0411  3.0860  1.1695
  913MOL0     H20473   6.313   2.747   2.558 -4.1099  3.9692 -1.9751
  913MOL0     H20474   6.195   2.806   2.759  1.0844  0.5574 -1.8390
  913MOL0     H20475   6.234   2.640   2.827  1.7627 -3.1023 -1.6554
  913MOL0     H20476   6.454   2.797   2.717 -4.9388  3.4688 -0.4545
  913MOL0     H20477   6.445   2.642   2.801 -1.4101 -0.4747 -1.0680
  913MOL0     H20478   6.581   2.596   2.970  0.7753 -0.5339  0.7624
  913MOL0     H20479   6.606   2.465   3.188 -1.1374 -0.8681  2.4726
  913MOL0     H20480   6.123   2.465   3.568  0.7765 -0.0113  1.3806
  913MOL0     H20481   6.040   2.367   3.780 -0.0652 -0.3110 -0.4401
  913MOL0     H20482   6.054   2.326   4.086 -0.4403  2.4442 -1.4267
  913MOL0     H20483   6.197   2.429   4.073 -0.1425  0.3190 -0.3909
  913MOL0     H20484   6.161   2.287   4.295 -2.1541 -1.7779 -0.2369
  913MOL0     H20485   6.321   2.298   4.232  0.8533 -1.4756  1.6479
  913MOL0     H20486   6.282   2.062   4.123  0.0214 -1.7360  0.9147
  913MOL0     H20487   6.115   2.068   4.186 -0.3092  0.4281 -0.0585
  913MOL0     H20488   6.385   2.041   4.319 -0.6145  4.6008 -1.2947
  913MOL0     H20489   6.253   2.104   4.413  2.6906 -2.2778  2.7554
  913MOL0     H20490   6.150   1.884   4.435 -1.9608  1.4322 -1.2499
  913MOL0     H20491   6.308   1.839   4.426 -0.4867  1.8413  1.5369
  913MOL0     H20492   6.256   1.804   4.159 -1.0156  1.0889 -1.1875
  913MOL0     H20493   6.086   1.826   4.206  0.7260  0.2160 -3.0220
  913MOL0     H20494   6.200   1.655   4.410  0.9909  4.1749  0.4236
  913MOL0     H20495   6.085   1.609   4.272 -1.6426  2.7963 -0.6484
  913MOL0     H20496   6.284   1.554   4.140 -0.4970 -0.8377  0.8948
  913MOL0     H20497   6.258   1.458   4.284  0.0877 -1.9485 -2.9011
  913MOL0     H20498   6.437   2.265   3.879 -0.5694  1.0012 -0.1759
  913MOL0     H20499   6.524   2.372   3.687  0.8885 -6.5894  0.6496
  913MOL0     H20500   6.297   2.686   3.354 -1.2042 -1.0212 -1.6526
  913MOL0     H20501   6.270   2.828   3.141 -0.5153 -0.8987 -1.3074
  913MOL0     H20502   5.922   1.744   2.204  0.7767 -0.6666 -0.3968
  913MOL0     H20503   5.759   1.639   2.367 -4.3314 -0.6293  1.2717
  913MOL0     H20504   5.261   1.486   2.267  0.6043  4.2370  1.1060
  913MOL0     H20505   5.040   1.385   2.357 -1.1334  0.3924  0.6048
  913MOL0     H20506   5.053   1.310   2.793  0.0246 -1.1596 -0.8312
  913MOL0     H20507   4.913   1.210   2.729 -1.2946 -0.0841  2.0801
  913MOL0     H20508   4.927   1.504   2.797  0.2861 -0.9652  1.2183
  913MOL0     H20509   4.796   1.423   2.714 -0.6367  0.4176 -0.9975
  913MOL0     H20510   4.725   1.429   2.952 -0.6562 -0.8050 -3.0847
  913MOL0     H20511   4.894   1.418   3.003 -0.3458 -1.5448  1.3447
  913MOL0     H20512   4.911   1.176   2.958  1.2190  0.6604 -1.7112
  913MOL0     H20513   4.780   1.203   3.068 -2.0424  2.9393  0.2475
  913MOL0     H20514   4.545   1.037   2.770 -1.2422  0.2223  0.8612
  913MOL0     H20515   5.229   1.385   2.752 -1.7502  0.5485  0.2880
  913MOL0     H20516   5.434   1.414   2.654 -1.5712  1.4137  2.6467
  914MOL0     O20517   9.731   1.303   7.947 -0.6768 -1.2422  0.1643
  914MOL0     C20518   9.849   1.270   7.924 -1.1487 -0.0164 -0.6023
  914MOL0     O20519   9.906   1.144   7.952 -0.4078  0.4305  0.0146
  914MOL0     C20520   9.819   1.058   8.013  0.9804 -0.0485 -0.9049
  914MOL0     C20521   9.726   0.977   7.947  0.3360 -0.2918  1.0106
  914MOL0     C20522   9.632   0.893   8.011  0.7720  0.5648  0.3424
  914MOL0     C20523   9.639   0.880   8.153 -0.2184  0.4217 -0.4954
  914MOL0     O20524   9.549   0.815   8.221  0.2896 -0.0088 -0.2231
  914MOL0     C20525   9.599   0.709   8.305 -0.7671  0.2809  0.0876
  914MOL0     C20526   9.558   0.577   8.236  0.2847 -0.4987 -0.0030
  914MOL0     C20527   9.417   0.532   8.271  0.0535 -0.1873 -0.1397
  914MOL0     C20528   9.394   0.477   8.417  0.3117 -0.1447  0.0167
  914MOL0     C20529   9.244   0.457   8.452  0.4027  0.0769  0.0037
  914MOL0     C20530   9.219   0.394   8.589 -0.6806  0.4063 -0.2430
  914MOL0     C20531   9.076   0.400   8.634 -0.0774  0.1439 -0.1079
  914MOL0     C20532   8.999   0.280   8.574  0.2248 -0.6171 -0.1766
  914MOL0     N20533   8.859   0.298   8.612 -0.7614 -0.1590 -0.0332
  914MOL0     C20534   8.804   0.271   8.734  0.2072 -0.7990 -0.6578
  914MOL0     C20535   8.669   0.293   8.722 -0.2762 -0.0389  0.4437
  914MOL0     C20536   8.568   0.289   8.827 -0.1168  0.4737  0.3661
  914MOL0     C20537   8.460   0.193   8.784 -0.3513 -0.1267 -0.4383
  914MOL0     C20538   8.477   0.047   8.773  1.0376  0.2009 -0.5358
  914MOL0     C20539   8.488  -0.025   8.912 -0.7312 -0.3430 -0.6985
  914MOL0     O20540   8.455  -0.155   8.873  0.8300  0.5033 -0.1654
  914MOL0     C20541   8.437  -0.254   8.969  0.1506 -0.0647 -0.6070
  914MOL0     C20542   8.387  -0.376   8.936 -0.2156  1.4288  1.0916
  914MOL0     C20543   8.352  -0.477   9.030  0.2231 -0.5781  0.9554
  914MOL0     C20544   8.370  -0.456   9.165  0.6725 -1.1005 -0.4945
  914MOL0     C20545   8.336  -0.565   9.257 -0.3696  1.0680 -0.2533
  914MOL0     O20546   8.251  -0.664   9.212  0.6405 -0.0958  0.7648
  914MOL0     C20547   8.215  -0.771   9.299  0.3656 -0.5520  0.3035
  914MOL0     C20548   8.202  -0.893   9.237  0.3898  1.2644 -0.8610
  914MOL0     C20549   8.200  -1.007   9.319 -1.2138  0.3294 -0.8345
  914MOL0     C20550   8.187  -0.994   9.459  0.7293 -0.1083  1.0097
  914MOL0     O20551   8.194  -1.099   9.542  0.1799  0.0881 -0.1267
  914MOL0     C20552   8.226  -1.232   9.512 -0.3051 -0.5656  0.2561
  914MOL0     C20553   8.103  -1.300   9.454  0.2662 -0.6543  0.2533
  914MOL0     C20554   8.139  -1.446   9.438 -0.2276  0.1217  0.4737
  914MOL0     C20555   8.015  -1.532   9.411 -0.9208  0.1871 -0.6231
  914MOL0     C20556   8.029  -1.650   9.327  0.5901  0.8406 -0.2101
  914MOL0     C20557   8.071  -1.626   9.182  0.5455 -0.1474 -0.1902
  914MOL0     C20558   7.959  -1.670   9.080  0.3326 -0.6674 -0.5061
  914MOL0     C20559   7.994  -1.699   8.938 -1.2712  0.6483 -0.0679
  914MOL0    Cl20560   8.070  -1.543   8.864 -0.1319  0.6735 -0.0379
  914MOL0     C20561   8.185  -0.869   9.512  0.2927 -0.1866  0.6048
  914MOL0     C20562   8.200  -0.757   9.436 -0.0740 -0.1306  0.4779
  914MOL0     O20563   8.388  -0.554   9.369  0.2285  0.4257  0.0206
  914MOL0     C20564   8.427  -0.336   9.204 -0.1751 -0.4918  0.4992
  914MOL0     C20565   8.455  -0.231   9.109  1.2337  0.3486  0.5953
  914MOL0     N20566   8.650   0.329   8.590  0.0877  0.6246  0.3604
  914MOL0     N20567   8.760   0.333   8.525 -0.6276 -0.1696  0.0680
  914MOL0     C20568   9.731   0.960   8.221  0.0098 -0.2071 -0.4854
  914MOL0     C20569   9.818   1.049   8.159  0.0287 -0.6583  0.3485
  914MOL0     C20570   9.937   1.371   7.855 -0.5097 -0.9185 -0.4399
  914MOL0     C20571   9.896   1.506   7.829  0.4048  0.8817  0.0837
  914MOL0     C20572   9.968   1.597   7.739 -0.1618  0.6869 -1.6801
  914MOL0     C20573  10.094   1.554   7.684  1.5537 -0.2625 -0.4578
  914MOL0     O20574  10.163   1.640   7.600 -0.1012 -0.6852 -0.6518
  914MOL0     C20575  10.309   1.616   7.609 -0.0914 -0.9167 -0.1288
  914MOL0     C20576  10.387   1.752   7.597  0.6106 -0.2644 -0.2510
  914MOL0     C20577  10.376   1.832   7.729  0.2567 -0.7643  0.8252
  914MOL0     C20578  10.495   1.807   7.820 -0.8411  0.3423  0.7809
  914MOL0     C20579  10.467   1.867   7.947 -0.0611 -0.2456 -1.0195
  914MOL0     C20580  10.442   1.902   8.064 -0.0169 -0.2494  0.1034
  914MOL0     C20581  10.139   1.419   7.721  0.3337 -0.4075 -0.2444
  914MOL0     C20582  10.060   1.339   7.807  0.2574 -1.9131  0.1250
  914MOL0     H20583   9.726   0.970   7.839 -2.9256  0.9724  0.8104
  914MOL0     H20584   9.553   0.849   7.951 -1.8567  3.1294  1.6731
  914MOL0     H20585   9.567   0.729   8.408 -1.0171  1.5221 -0.2152
  914MOL0     H20586   9.706   0.707   8.325 -0.9864  0.5903  1.3944
  914MOL0     H20587   9.624   0.496   8.269  0.2024 -0.5069  0.1435
  914MOL0     H20588   9.568   0.581   8.127  0.9887  1.7129  0.0929
  914MOL0     H20589   9.395   0.447   8.206 -0.5886  0.2513 -0.5033
  914MOL0     H20590   9.337   0.602   8.248 -1.7675 -2.7389 -2.1308
  914MOL0     H20591   9.460   0.390   8.430 -0.1192 -0.5320 -0.3468
  914MOL0     H20592   9.434   0.549   8.488  2.2633 -1.0651 -0.0822
  914MOL0     H20593   9.210   0.388   8.374 -1.0086 -1.2531  1.7407
  914MOL0     H20594   9.192   0.554   8.454 -1.1598 -0.6245 -2.2466
  914MOL0     H20595   9.263   0.459   8.666  2.9162 -1.1862 -0.7371
  914MOL0     H20596   9.265   0.295   8.592 -1.9351 -0.1658  0.3424
  914MOL0     H20597   9.084   0.401   8.743  1.2708  1.4136 -0.1959
  914MOL0     H20598   9.025   0.490   8.599  0.8243  0.3282 -0.9766
  914MOL0     H20599   9.027   0.180   8.609 -0.9894 -0.3641  1.6996
  914MOL0     H20600   9.002   0.276   8.465 -3.1333 -0.3368 -0.3978
  914MOL0     H20601   8.852   0.235   8.824  2.9996  3.1610 -0.3433
  914MOL0     H20602   8.519   0.386   8.837 -0.2844  0.7430 -2.4381
  914MOL0     H20603   8.599   0.250   8.925 -0.6100  0.4440  0.5156
  914MOL0     H20604   8.415   0.230   8.691  0.7735 -0.4599 -1.1375
  914MOL0     H20605   8.383   0.217   8.858 -0.4892  0.6569 -0.8205
  914MOL0     H20606   8.383   0.006   8.736  0.2141  1.5460 -0.0434
  914MOL0     H20607   8.555   0.024   8.701 -0.4307  2.4632 -3.0213
  914MOL0     H20608   8.417   0.019   8.982 -1.1580  0.6865 -1.7300
  914MOL0     H20609   8.591  -0.030   8.949 -0.7234  0.6324 -0.5571
  914MOL0     H20610   8.351  -0.399   8.836  0.6241 -0.8589  1.2444
  914MOL0     H20611   8.309  -0.572   8.999  0.7587 -0.5079 -0.0344
  914MOL0     H20612   8.210  -0.907   9.129 -2.2326  2.1009 -1.2492
  914MOL0     H20613   8.205  -1.103   9.270 -0.9346  1.6426 -3.5518
  914MOL0     H20614   8.264  -1.268   9.608 -3.8837  0.2025  2.1307
  914MOL0     H20615   8.309  -1.237   9.441 -1.0425 -1.7203 -0.5543
  914MOL0     H20616   8.086  -1.268   9.351  1.0640 -3.8976 -0.9910
  914MOL0     H20617   8.012  -1.282   9.512 -1.3848 -1.6078 -1.9393
  914MOL0     H20618   8.185  -1.487   9.528 -0.8552  0.2254  0.8450
  914MOL0     H20619   8.219  -1.444   9.363 -0.5195  2.2720  0.1759
  914MOL0     H20620   7.971  -1.569   9.504 -2.9610 -0.9702 -1.9623
  914MOL0     H20621   7.933  -1.475   9.367 -0.4697  1.8111  0.5493
  914MOL0     H20622   7.930  -1.696   9.333  2.0054 -2.2893  1.3880
  914MOL0     H20623   8.107  -1.711   9.374 -0.7701  1.0283  2.4948
  914MOL0     H20624   8.165  -1.675   9.158 -0.0177 -1.9458  0.9983
  914MOL0     H20625   8.082  -1.519   9.166 -2.8971 -0.1502 -4.2351
  914MOL0     H20626   7.909  -1.760   9.117  1.5809 -1.5347 -0.8462
  914MOL0     H20627   7.894  -1.583   9.079  0.9560 -0.2051 -1.0283
  914MOL0     H20628   7.907  -1.731   8.879  1.2550  0.4150 -4.0805
  914MOL0     H20629   8.050  -1.793   8.928 -1.7926  0.4827 -1.8428
  914MOL0     H20630   8.175  -0.855   9.619  1.4916  1.2267  0.5699
  914MOL0     H20631   8.188  -0.660   9.484  0.9402  0.3101 -0.1206
  914MOL0     H20632   8.451  -0.305   9.305 -0.9995  2.0138  0.0075
  914MOL0     H20633   8.485  -0.134   9.149  0.1158  1.6108 -1.4553
  914MOL0     H20634   9.739   0.958   8.329  1.8492  2.3253 -0.4833
  914MOL0     H20635   9.886   1.120   8.206 -1.8907  3.7223 -2.7834
  914MOL0     H20636   9.795   1.522   7.866  0.9606  0.2960  1.9412
  914MOL0     H20637   9.927   1.689   7.699 -0.1263  0.3258 -2.5638
  914MOL0     H20638  10.339   1.566   7.517  2.8209  1.9960 -0.9649
  914MOL0     H20639  10.345   1.570   7.701 -0.7740 -0.0765  0.5751
  914MOL0     H20640  10.489   1.725   7.569  1.3947  1.1833  1.0850
  914MOL0     H20641  10.349   1.810   7.513  3.5721  1.4606 -0.5165
  914MOL0     H20642  10.279   1.814   7.777 -0.0492  0.6262  0.7603
  914MOL0     H20643  10.377   1.935   7.692  1.0946 -0.8706  0.5264
  914MOL0     H20644  10.516   1.700   7.833 -0.3657  0.3052 -0.1799
  914MOL0     H20645  10.583   1.862   7.785 -1.9110  1.6407  0.0856
  914MOL0     H20646  10.438   1.923   8.169 -1.6217  0.3269 -0.0463
  914MOL0     H20647  10.230   1.365   7.698  0.1530  0.9211 -5.0229
  914MOL0     H20648  10.104   1.241   7.823  0.4347 -2.0840 -1.2384
  915MOL0     O20649   9.651   5.879  10.608 -0.0603 -0.2359 -0.5174
  915MOL0     C20650   9.604   5.789  10.687  1.3979 -0.6778  0.5231
  915MOL0     O20651   9.676   5.684  10.732 -0.1450  1.0958 -0.8477
  915MOL0     C20652   9.808   5.667  10.734  0.4031 -0.2184 -0.1211
  915MOL0     C20653   9.905   5.759  10.690  0.6614 -0.4268  0.2212
  915MOL0     C20654  10.041   5.721  10.696  0.3921 -1.9077 -1.2302
  915MOL0     C20655  10.088   5.608  10.759  0.3156  0.6104 -1.3369
  915MOL0     O20656  10.221   5.556  10.764  0.2928 -0.7381 -0.2537
  915MOL0     C20657  10.317   5.625  10.683 -0.2817 -0.3258 -0.4819
  915MOL0     C20658  10.449   5.558  10.703 -0.9874  0.0233 -0.3736
  915MOL0     C20659  10.525   5.612  10.831 -0.0030 -0.3875  0.0319
  915MOL0     C20660  10.641   5.521  10.877 -0.0667  0.0423 -0.1367
  915MOL0     C20661  10.741   5.605  10.960 -0.9098  0.1565 -0.1749
  915MOL0     C20662  10.867   5.536  11.019  0.1226 -0.5823 -0.9541
  915MOL0     C20663  10.914   5.630  11.130 -0.4789  0.4505 -0.2330
  915MOL0     C20664  11.020   5.562  11.213  0.2323  0.4303 -0.8645
  915MOL0     N20665  11.115   5.489  11.127  0.3192  0.4924  0.5360
  915MOL0     C20666  11.244   5.537  11.091 -0.2149 -0.7802 -0.2014
  915MOL0     C20667  11.305   5.434  11.032 -0.6460 -0.2903  0.8279
  915MOL0     C20668  11.444   5.434  10.954  0.2225  0.0833 -1.0794
  915MOL0     C20669  11.426   5.460  10.813  0.2626 -0.3409 -0.3225
  915MOL0     C20670  11.552   5.425  10.737  0.8631  0.2846  0.0923
  915MOL0     C20671  11.679   5.504  10.777  0.1180  0.4783  0.5083
  915MOL0     O20672  11.674   5.635  10.725 -0.1928 -0.1366 -0.0990
  915MOL0     C20673  11.690   5.651  10.593 -0.0137  0.8802 -0.1605
  915MOL0     C20674  11.591   5.648  10.498  0.5226  0.1075 -0.4637
  915MOL0     C20675  11.611   5.651  10.365  0.2794 -0.0982  0.0506
  915MOL0     C20676  11.746   5.650  10.319  0.4301  0.3370  0.6439
  915MOL0     C20677  11.771   5.627  10.179 -0.7083  1.1955  0.1403
  915MOL0     O20678  11.905   5.654  10.132  0.0814 -0.4228  0.2990
  915MOL0     C20679  11.932   5.649   9.998 -0.2424  0.5505 -0.1723
  915MOL0     C20680  12.077   5.640   9.966  0.9200 -0.8627 -0.6808
  915MOL0     C20681  12.132   5.633   9.841 -0.6001 -0.2278 -0.4382
  915MOL0     C20682  12.049   5.620   9.729  0.5678  1.4868  0.8473
  915MOL0     O20683  12.092   5.632   9.593 -0.2395 -0.0144 -1.0155
  915MOL0     C20684  12.182   5.523   9.565  0.2997  0.7513 -0.1703
  915MOL0     C20685  12.115   5.386   9.535  1.0518  0.1146 -0.0912
  915MOL0     C20686  12.033   5.374   9.413 -1.0211 -0.4155 -0.7573
  915MOL0     C20687  11.952   5.238   9.402 -0.5486 -0.4233 -0.4325
  915MOL0     C20688  11.868   5.210   9.526  0.2198  0.0032 -0.8313
  915MOL0     C20689  11.769   5.315   9.574 -0.7573  0.1579 -0.5687
  915MOL0     C20690  11.675   5.368   9.476  0.5873  0.3428  0.2952
  915MOL0     C20691  11.609   5.501   9.532  0.1809  0.2051 -0.7517
  915MOL0    Cl20692  11.494   5.556   9.411  0.5147 -0.1333  0.2939
  915MOL0     C20693  11.909   5.616   9.755 -0.0523  1.2947 -0.5709
  915MOL0     C20694  11.853   5.638   9.889  0.5898 -0.3036 -0.2994
  915MOL0     O20695  11.680   5.589  10.107 -0.3869 -1.1022  0.8631
  915MOL0     C20696  11.850   5.657  10.407  0.3842 -0.6007 -0.5852
  915MOL0     C20697  11.822   5.656  10.548  0.3710  0.1118 -0.4828
  915MOL0     N20698  11.210   5.330  11.034  0.2237  0.6284 -0.4581
  915MOL0     N20699  11.109   5.361  11.096  0.8855  0.1068  0.4719
  915MOL0     C20700   9.993   5.516  10.794 -0.5199  0.6385  0.2531
  915MOL0     C20701   9.853   5.547  10.791  0.2526  0.0761 -0.3993
  915MOL0     C20702   9.457   5.798  10.721 -0.2418  0.3808  0.2008
  915MOL0     C20703   9.413   5.696  10.803  1.5743 -1.0734 -1.0364
  915MOL0     C20704   9.272   5.699  10.833  0.8231  0.1733  0.1229
  915MOL0     C20705   9.181   5.792  10.774  0.1131  0.5784 -0.2320
  915MOL0     O20706   9.042   5.766  10.788  0.3021 -0.3927  0.4105
  915MOL0     C20707   8.963   5.838  10.695  0.2317 -0.2242  0.1076
  915MOL0     C20708   8.818   5.841  10.743  0.0284 -0.5666  0.3884
  915MOL0     C20709   8.812   5.905  10.890 -1.0066 -0.0653  0.5534
  915MOL0     C20710   8.821   5.799  10.996  0.8273 -0.3641 -0.1021
  915MOL0     C20711   8.933   5.824  11.082 -0.4668  0.1384  0.1854
  915MOL0     C20712   9.034   5.830  11.140  0.5018 -0.4135  0.2693
  915MOL0     C20713   9.239   5.894  10.711 -0.5216 -0.5340  0.4854
  915MOL0     C20714   9.375   5.895  10.674  0.1205  0.0106 -0.6846
  915MOL0     H20715   9.884   5.857  10.647  0.3366  0.1783  1.7013
  915MOL0     H20716  10.107   5.798  10.659  0.8116 -1.2673  0.7033
  915MOL0     H20717  10.322   5.729  10.718 -2.1004 -0.0204 -0.9858
  915MOL0     H20718  10.284   5.622  10.579 -1.5187  0.0684 -0.1287
  915MOL0     H20719  10.520   5.584  10.624 -1.3135  4.2445  0.4513
  915MOL0     H20720  10.438   5.450  10.713 -0.6776  0.2171  3.6593
  915MOL0     H20721  10.467   5.646  10.918 -0.1697  1.1483 -0.6592
  915MOL0     H20722  10.576   5.695  10.782  0.0551  0.3028  1.2143
  915MOL0     H20723  10.612   5.427  10.926 -0.0574  0.6108  0.9883
  915MOL0     H20724  10.707   5.504  10.791  1.6055 -2.7266  1.5465
  915MOL0     H20725  10.689   5.655  11.041  1.8163  5.2310 -1.1515
  915MOL0     H20726  10.782   5.691  10.905 -2.3609  3.4289  3.4547
  915MOL0     H20727  10.945   5.505  10.950 -0.7076 -4.6321 -0.3244
  915MOL0     H20728  10.828   5.447  11.069 -2.0619  2.5072  3.6072
  915MOL0     H20729  10.955   5.720  11.082 -3.9590  2.2309 -0.2103
  915MOL0     H20730  10.831   5.661  11.195 -2.0414  0.2882 -2.0536
  915MOL0     H20731  10.967   5.480  11.262  1.2670 -0.0946 -0.5964
  915MOL0     H20732  11.083   5.620  11.281  0.4986  0.9803 -1.5694
  915MOL0     H20733  11.281   5.636  11.114  0.1161 -1.6526  3.5523
  915MOL0     H20734  11.492   5.341  10.983 -3.5941 -2.1161 -1.0607
  915MOL0     H20735  11.488   5.520  11.006  1.6308 -2.3032  1.9481
  915MOL0     H20736  11.411   5.567  10.796 -0.3562 -0.2394  0.7766
  915MOL0     H20737  11.339   5.413  10.767  2.3792 -1.8393 -3.1500
  915MOL0     H20738  11.579   5.323  10.764  0.2970  0.5734  1.8853
  915MOL0     H20739  11.530   5.418  10.630 -1.7507 -0.8977  0.6222
  915MOL0     H20740  11.766   5.454  10.734 -1.4358 -1.3905 -0.6784
  915MOL0     H20741  11.687   5.508  10.885 -1.8575  1.1456  0.6794
  915MOL0     H20742  11.486   5.644  10.525  0.5273 -3.5840 -0.5427
  915MOL0     H20743  11.523   5.628  10.305 -0.2719 -2.2110  1.5802
  915MOL0     H20744  12.140   5.639  10.054 -1.5884 -0.4299  1.2403
  915MOL0     H20745  12.238   5.649   9.825 -0.7277  1.4853  0.1904
  915MOL0     H20746  12.252   5.510   9.648 -2.3185  0.3850  2.1342
  915MOL0     H20747  12.239   5.535   9.472 -2.4690 -2.3502 -2.5334
  915MOL0     H20748  12.052   5.354   9.619 -0.1470 -2.4770 -1.8365
  915MOL0     H20749  12.191   5.311   9.513  1.9113  1.0527 -0.3667
  915MOL0     H20750  12.090   5.373   9.319  0.8385 -1.5417  0.3425
  915MOL0     H20751  11.957   5.453   9.412 -1.7596 -1.0960  0.2709
  915MOL0     H20752  11.892   5.234   9.311 -2.5807  1.2565  0.7393
  915MOL0     H20753  12.028   5.159   9.395 -1.2103 -0.9218 -3.0941
  915MOL0     H20754  11.939   5.199   9.608  1.4238  3.2360 -1.2999
  915MOL0     H20755  11.803   5.123   9.513  1.4625 -0.9020 -1.2397
  915MOL0     H20756  11.817   5.405   9.616 -1.2463 -0.2578  0.9555
  915MOL0     H20757  11.713   5.270   9.656 -1.0175 -1.6422 -1.6990
  915MOL0     H20758  11.719   5.400   9.381 -1.1252 -0.4480 -0.8362
  915MOL0     H20759  11.605   5.289   9.447  4.3303 -2.7938 -0.9268
  915MOL0     H20760  11.686   5.574   9.560 -1.1569  2.3526 -2.3102
  915MOL0     H20761  11.552   5.491   9.625  0.4935  2.5314 -0.2500
  915MOL0     H20762  11.846   5.617   9.667 -1.0123  1.5095  0.0956
  915MOL0     H20763  11.745   5.629   9.890  0.7137 -1.9999  0.6952
  915MOL0     H20764  11.950   5.666  10.367  0.3373 -1.5454 -0.9466
  915MOL0     H20765  11.897   5.661  10.626  1.2366 -3.4773 -0.9154
  915MOL0     H20766  10.020   5.415  10.822 -0.0188  0.8239  0.4426
  915MOL0     H20767   9.777   5.481  10.830 -0.1546 -0.9564 -2.7713
  915MOL0     H20768   9.475   5.631  10.864  2.8390  0.9012 -0.1184
  915MOL0     H20769   9.236   5.616  10.894  1.9411  1.7854  3.2284
  915MOL0     H20770   8.970   5.794  10.595  0.7703  2.3629 -1.0993
  915MOL0     H20771   8.984   5.945  10.687 -4.3482  0.8843  0.0971
  915MOL0     H20772   8.756   5.899  10.674 -0.2546  1.0216  1.9267
  915MOL0     H20773   8.778   5.739  10.735 -0.7876 -0.1848 -0.6920
  915MOL0     H20774   8.717   5.953  10.913 -0.8313 -0.1264  1.4678
  915MOL0     H20775   8.889   5.980  10.916 -2.2192  0.7473  1.9733
  915MOL0     H20776   8.729   5.803  11.054  0.7315  0.4521 -0.3000
  915MOL0     H20777   8.836   5.702  10.947 -2.0195 -1.2092  0.5261
  915MOL0     H20778   9.102   5.838  11.223 -2.1054  0.9425  2.4381
  915MOL0     H20779   9.191   5.981  10.667  1.3934 -0.6271 -1.9986
  915MOL0     H20780   9.415   5.983  10.624  1.9344  0.0490  0.6905
  916MOL0     O20781   0.576   6.518   6.484 -0.3273  0.0691  0.0354
  916MOL0     C20782   0.579   6.407   6.518  0.1436 -0.9620 -0.1036
  916MOL0     O20783   0.693   6.340   6.568  0.6176  0.1053  0.8342
  916MOL0     C20784   0.811   6.405   6.551 -0.9571 -0.4905 -1.6580
  916MOL0     C20785   0.879   6.482   6.641  0.4169 -0.5381  0.1551
  916MOL0     C20786   0.995   6.544   6.599 -0.2220  0.8302 -0.1927
  916MOL0     C20787   1.068   6.519   6.477  0.3704  0.8569  0.2744
  916MOL0     O20788   1.195   6.559   6.459  0.1024 -0.2185  0.7968
  916MOL0     C20789   1.210   6.673   6.361 -1.7949  0.9309  0.3792
  916MOL0     C20790   1.358   6.692   6.316  0.5458 -1.0683  0.5358
  916MOL0     C20791   1.432   6.568   6.266  0.6714 -0.3300 -0.0346
  916MOL0     C20792   1.562   6.616   6.210 -0.4634 -0.6019 -0.5098
  916MOL0     C20793   1.637   6.510   6.131 -0.3076  0.0452  0.0231
  916MOL0     C20794   1.594   6.497   5.989 -0.8962  0.2229  0.2335
  916MOL0     C20795   1.693   6.426   5.903  0.2892  0.0033 -0.4574
  916MOL0     C20796   1.733   6.286   5.952  0.0570  0.0510 -0.6143
  916MOL0     N20797   1.884   6.273   5.951  1.5345 -0.3531 -0.4781
  916MOL0     C20798   1.970   6.245   5.856 -0.1104  0.0517  0.6785
  916MOL0     C20799   2.093   6.249   5.916 -0.3735  0.4324  0.0867
  916MOL0     C20800   2.226   6.237   5.839 -0.8082 -0.3672 -0.7468
  916MOL0     C20801   2.315   6.116   5.901 -0.4738  0.1289  0.5520
  916MOL0     C20802   2.230   5.990   5.893 -0.0288  0.4052  0.6562
  916MOL0     C20803   2.294   5.872   5.967 -0.3406 -0.6110 -0.6708
  916MOL0     O20804   2.422   5.832   5.898 -0.3808 -0.5466 -0.1023
  916MOL0     C20805   2.467   5.726   5.970 -0.5824  0.8551  0.2060
  916MOL0     C20806   2.445   5.600   5.912  0.2271 -0.0494  0.3956
  916MOL0     C20807   2.481   5.479   5.978 -0.3064  0.1396 -0.9562
  916MOL0     C20808   2.554   5.480   6.092 -0.5165 -0.1607  0.2526
  916MOL0     C20809   2.602   5.361   6.164  0.7786  0.3926  0.5495
  916MOL0     O20810   2.603   5.367   6.296  0.0854  0.2604  0.6078
  916MOL0     C20811   2.615   5.269   6.389 -0.2685 -0.5529  0.0181
  916MOL0     C20812   2.708   5.286   6.494  1.2308  0.2979  0.4591
  916MOL0     C20813   2.710   5.200   6.605  0.1812  0.2380  0.2102
  916MOL0     C20814   2.626   5.091   6.617  0.2108 -1.3398  0.2274
  916MOL0     O20815   2.633   5.011   6.729  0.1050  1.0450 -0.0362
  916MOL0     C20816   2.522   4.995   6.816 -0.0012  0.2570 -0.5948
  916MOL0     C20817   2.549   5.090   6.937  0.5976  0.2231  0.5181
  916MOL0     C20818   2.425   5.112   7.017  0.7052  0.1814  0.8384
  916MOL0     C20819   2.449   5.182   7.149 -0.2009 -0.2189  0.6667
  916MOL0     C20820   2.321   5.194   7.238 -0.5695  0.5868  0.3302
  916MOL0     C20821   2.344   5.276   7.366  0.4788  0.6215  0.0852
  916MOL0     C20822   2.247   5.402   7.376 -0.5246 -0.9619 -0.8631
  916MOL0     C20823   2.258   5.473   7.509 -0.5920 -0.0064 -0.0741
  916MOL0    Cl20824   2.141   5.613   7.524 -0.5635  0.4441 -0.2946
  916MOL0     C20825   2.535   5.065   6.509  0.9020  0.5641  0.4952
  916MOL0     C20826   2.532   5.154   6.399  1.2953  0.1113  0.2961
  916MOL0     O20827   2.612   5.259   6.096 -0.7519 -0.0121 -0.3628
  916MOL0     C20828   2.571   5.611   6.147 -0.2713  0.1483  0.1166
  916MOL0     C20829   2.527   5.730   6.095  0.1107  1.0345  0.3626
  916MOL0     N20830   2.075   6.277   6.050  0.5458 -0.0814  1.0509
  916MOL0     N20831   1.950   6.286   6.067  0.0050 -0.0937 -0.5918
  916MOL0     C20832   1.006   6.429   6.392 -0.6121  0.2279  0.0828
  916MOL0     C20833   0.880   6.371   6.427 -0.8016 -0.2002  0.4747
  916MOL0     C20834   0.446   6.352   6.509  0.4380 -0.0186 -0.1475
  916MOL0     C20835   0.324   6.424   6.476 -0.8203 -0.3066 -0.1269
  916MOL0     C20836   0.202   6.357   6.454 -0.2643 -1.5051 -0.2893
  916MOL0     C20837   0.201   6.223   6.473 -0.0389 -0.1719 -0.6069
  916MOL0     O20838   0.094   6.147   6.457 -0.2406 -0.7381 -0.1456
  916MOL0     C20839  -0.027   6.187   6.410  0.2423  0.1873  0.5166
  916MOL0     C20840  -0.011   6.200   6.252  0.0601  0.9355 -1.0229
  916MOL0     C20841  -0.086   6.311   6.188 -0.5667  1.0164 -0.3115
  916MOL0     C20842  -0.239   6.317   6.239 -0.8640 -0.9155  0.1791
  916MOL0     C20843  -0.307   6.195   6.213  0.4780 -0.1487 -0.9040
  916MOL0     C20844  -0.361   6.089   6.205 -0.5018  0.6836  0.8392
  916MOL0     C20845   0.311   6.144   6.509 -1.0181 -0.0205 -0.1900
  916MOL0     C20846   0.435   6.214   6.518 -0.0167 -0.1281  0.1785
  916MOL0     H20847   0.839   6.508   6.738 -1.6908 -3.5991  0.2666
  916MOL0     H20848   1.050   6.610   6.665  2.3124 -0.5621 -0.7596
  916MOL0     H20849   1.175   6.760   6.416 -0.7481  2.1310 -0.7805
  916MOL0     H20850   1.148   6.658   6.272 -0.4007  0.9016 -0.6227
  916MOL0     H20851   1.423   6.752   6.380  3.0628 -2.0637 -0.9469
  916MOL0     H20852   1.342   6.746   6.222 -1.8206 -2.9277 -0.2604
  916MOL0     H20853   1.379   6.523   6.181 -1.1099  0.6062  0.5121
  916MOL0     H20854   1.439   6.502   6.353 -0.9021 -0.9155 -0.3142
  916MOL0     H20855   1.548   6.699   6.140 -0.5829 -2.2811 -2.5896
  916MOL0     H20856   1.630   6.650   6.289 -0.5064 -0.1751 -0.6520
  916MOL0     H20857   1.634   6.418   6.191 -0.7281  1.2312  1.8793
  916MOL0     H20858   1.741   6.542   6.123  0.7598 -2.1735  2.9792
  916MOL0     H20859   1.574   6.596   5.946  1.2854 -0.0402 -1.5996
  916MOL0     H20860   1.490   6.464   5.986 -1.2052  1.1533  0.2903
  916MOL0     H20861   1.649   6.407   5.804 -4.0624  0.7715  1.1002
  916MOL0     H20862   1.785   6.480   5.880 -0.0163  0.4832 -0.5595
  916MOL0     H20863   1.699   6.213   5.878  1.1500  0.1256 -1.2267
  916MOL0     H20864   1.686   6.262   6.047  0.6450 -1.3726 -0.6562
  916MOL0     H20865   1.940   6.213   5.756 -1.1766 -0.1238  1.0368
  916MOL0     H20866   2.284   6.329   5.852 -1.5311  0.3702 -2.4185
  916MOL0     H20867   2.214   6.231   5.730  1.4049  1.9940 -1.2293
  916MOL0     H20868   2.344   6.139   6.004 -2.8725 -1.2537  1.6021
  916MOL0     H20869   2.406   6.116   5.840 -0.0991  1.5947  1.0610
  916MOL0     H20870   2.146   6.017   5.958  2.3585  1.5438  3.4970
  916MOL0     H20871   2.206   5.961   5.790 -1.8991  1.5647  0.7194
  916MOL0     H20872   2.210   5.802   5.965 -3.0762  2.2672  1.5206
  916MOL0     H20873   2.315   5.888   6.073  1.7370 -3.2276 -0.5973
  916MOL0     H20874   2.411   5.595   5.809 -0.0509 -0.6257  0.5148
  916MOL0     H20875   2.460   5.385   5.928 -1.9472  0.8309 -1.6433
  916MOL0     H20876   2.776   5.369   6.476 -2.2769  2.9405 -2.0231
  916MOL0     H20877   2.769   5.229   6.691 -0.1081  0.3377  0.3763
  916MOL0     H20878   2.516   4.895   6.860  3.9790  0.6611  1.3361
  916MOL0     H20879   2.423   5.018   6.774  0.1502  0.0162 -1.0818
  916MOL0     H20880   2.590   5.180   6.891  1.5641 -1.0055 -1.1438
  916MOL0     H20881   2.619   5.035   7.000  1.5720  0.3514 -0.4294
  916MOL0     H20882   2.375   5.016   7.034 -0.4375 -0.0133 -2.7953
  916MOL0     H20883   2.355   5.171   6.957  2.5321 -0.9127 -2.6470
  916MOL0     H20884   2.524   5.121   7.201  0.9932 -2.0648 -2.8375
  916MOL0     H20885   2.486   5.283   7.133  1.3583 -1.1690 -2.5492
  916MOL0     H20886   2.296   5.093   7.274  0.6833  1.3153  3.5774
  916MOL0     H20887   2.237   5.232   7.180  2.0813  2.0949 -2.8564
  916MOL0     H20888   2.448   5.307   7.382  0.4176  3.3835 -3.5137
  916MOL0     H20889   2.318   5.199   7.438  0.0372 -0.2505 -0.9771
  916MOL0     H20890   2.248   5.479   7.298 -3.3594 -0.6042 -0.6340
  916MOL0     H20891   2.146   5.360   7.376 -1.1925  0.3500  2.2850
  916MOL0     H20892   2.364   5.492   7.529  1.1010 -6.6788 -0.5473
  916MOL0     H20893   2.228   5.402   7.586  0.3095  0.2108  0.5067
  916MOL0     H20894   2.460   4.987   6.514  1.6312 -0.3193 -1.4443
  916MOL0     H20895   2.451   5.147   6.327  2.2228 -0.2211 -0.7446
  916MOL0     H20896   2.615   5.609   6.246 -0.6433 -2.5942  0.2998
  916MOL0     H20897   2.551   5.822   6.147  2.3588 -1.0531  3.3540
  916MOL0     H20898   1.062   6.400   6.304  1.2957 -1.8234  1.8329
  916MOL0     H20899   0.832   6.303   6.357 -1.3356 -0.9883  1.5681
  916MOL0     H20900   0.325   6.533   6.470  1.7050 -0.3454 -1.6715
  916MOL0     H20901   0.114   6.415   6.428  1.4137 -0.0987 -3.2766
  916MOL0     H20902  -0.054   6.285   6.451  0.5090 -0.1514  1.5391
  916MOL0     H20903  -0.113   6.123   6.433  0.0186  0.6050  0.8654
  916MOL0     H20904   0.094   6.202   6.225  0.0330 -0.8154 -1.3649
  916MOL0     H20905  -0.055   6.109   6.210 -2.3691  1.9114 -0.7593
  916MOL0     H20906  -0.080   6.290   6.081 -1.7095  3.0538 -0.8417
  916MOL0     H20907  -0.022   6.396   6.213  2.8735 -0.5242 -2.9750
  916MOL0     H20908  -0.235   6.334   6.347  1.1636 -0.8114  0.1236
  916MOL0     H20909  -0.282   6.410   6.200  3.3483  1.9444  1.5575
  916MOL0     H20910  -0.396   5.995   6.169  2.7420  0.3888 -2.1332
  916MOL0     H20911   0.303   6.037   6.493 -1.1850  0.0436 -0.5570
  916MOL0     H20912   0.518   6.155   6.554  0.4227  2.5637  4.3258
  917MOL0     O20913   3.172   8.948  10.151 -0.8797 -0.2097 -0.4345
  917MOL0     C20914   3.067   8.962  10.219  0.4912 -1.2290  0.1025
  917MOL0     O20915   2.977   8.874  10.249  0.0271  0.1492  1.0481
  917MOL0     C20916   2.995   8.752  10.193  1.0847  0.5140  0.3135
  917MOL0     C20917   2.929   8.714  10.074  0.8836  0.1063  0.5921
  917MOL0     C20918   2.952   8.603  10.003 -0.2113  0.3513 -0.2106
  917MOL0     C20919   3.056   8.516  10.054 -0.3824 -0.0077 -0.2026
  917MOL0     O20920   3.081   8.405   9.982  0.1054  0.5558  0.3045
  917MOL0     C20921   3.196   8.327  10.017  0.5069 -0.3615  0.1652
  917MOL0     C20922   3.233   8.237   9.894 -0.3759 -0.1765 -0.2223
  917MOL0     C20923   3.349   8.146   9.919 -0.1326 -0.4686  0.2241
  917MOL0     C20924   3.488   8.213   9.931  0.0419  0.8404 -0.1274
  917MOL0     C20925   3.601   8.119   9.984  0.3814 -0.0865 -0.6930
  917MOL0     C20926   3.731   8.187  10.025  0.4366  0.5649 -0.0210
  917MOL0     C20927   3.812   8.229   9.899 -0.1878  0.3599 -0.1577
  917MOL0     C20928   3.895   8.347   9.939 -0.4631  0.6607  0.3056
  917MOL0     N20929   3.985   8.319  10.047 -0.5600 -0.0841  0.1688
  917MOL0     C20930   4.112   8.267  10.030 -0.0232 -0.2648  0.3741
  917MOL0     C20931   4.182   8.312  10.134 -0.3406  0.6063  0.1946
  917MOL0     C20932   4.327   8.281  10.157 -0.0462 -0.1308 -0.3137
  917MOL0     C20933   4.405   8.420  10.168  0.7148  0.3977 -0.4728
  917MOL0     C20934   4.413   8.476  10.311 -0.4232  0.4463 -0.0768
  917MOL0     C20935   4.479   8.614  10.304 -0.1785  1.0224 -0.0611
  917MOL0     O20936   4.620   8.599  10.265  0.0034 -0.7946  0.3087
  917MOL0     C20937   4.665   8.701  10.190  0.4586 -0.3377 -0.7748
  917MOL0     C20938   4.756   8.675  10.077 -0.2008  0.1646  0.4072
  917MOL0     C20939   4.795   8.784   9.994  0.4668  0.5636  0.5204
  917MOL0     C20940   4.782   8.919  10.047 -0.3360  0.2514  0.4743
  917MOL0     C20941   4.831   9.031   9.975  0.2369 -0.0539 -0.3091
  917MOL0     O20942   4.795   9.163  10.013 -0.3642  0.3548 -0.4773
  917MOL0     C20943   4.830   9.258   9.920 -0.0544 -0.1813  0.4090
  917MOL0     C20944   4.954   9.308   9.908 -0.4837  0.2460 -0.6121
  917MOL0     C20945   4.996   9.395   9.804  0.0718 -0.2307 -0.9975
  917MOL0     C20946   4.903   9.449   9.711  0.6346  0.4093 -0.1919
  917MOL0     O20947   4.929   9.549   9.621  0.3306  0.0258 -0.5607
  917MOL0     C20948   5.032   9.647   9.653  0.0359 -1.4500 -0.1440
  917MOL0     C20949   4.984   9.770   9.729 -0.4899 -0.2300 -0.3136
  917MOL0     C20950   5.080   9.889   9.707 -1.5050  0.6705  0.1174
  917MOL0     C20951   5.219   9.866   9.759  0.4763  0.2045 -0.0800
  917MOL0     C20952   5.325   9.975   9.751  0.5373  0.2968  0.7609
  917MOL0     C20953   5.391   9.993   9.619 -0.2853 -0.3611  0.0241
  917MOL0     C20954   5.482   9.877   9.576 -0.0731 -0.0960 -0.0743
  917MOL0     C20955   5.587   9.825   9.678 -0.5179  0.0732  0.3676
  917MOL0    Cl20956   5.719   9.732   9.609 -0.4209 -0.3244  0.2191
  917MOL0     C20957   4.772   9.390   9.716  0.6431  1.0451  0.0224
  917MOL0     C20958   4.740   9.296   9.820 -0.3201  0.1824  0.7700
  917MOL0     O20959   4.910   9.002   9.886 -0.1546 -0.0224  0.7113
  917MOL0     C20960   4.701   8.941  10.163  1.1367 -0.2488 -0.6311
  917MOL0     C20961   4.646   8.829  10.232  0.1302  0.0484 -0.1033
  917MOL0     N20962   4.104   8.388  10.211  0.1586  0.0236 -0.1371
  917MOL0     N20963   3.986   8.402  10.154 -0.3443  0.0378  0.6933
  917MOL0     C20964   3.125   8.550  10.173 -0.1387  0.0022 -0.4676
  917MOL0     C20965   3.077   8.658  10.247 -0.3345  0.6630  0.3992
  917MOL0     C20966   3.024   9.093  10.277  0.9136  0.4489 -0.2703
  917MOL0     C20967   3.061   9.212  10.212 -0.5167  0.5204 -0.0110
  917MOL0     C20968   3.039   9.332  10.273  0.6251  0.1705 -0.5586
  917MOL0     C20969   2.962   9.347  10.396  0.7677  0.5131  0.6510
  917MOL0     O20970   2.905   9.462  10.447 -0.0555  0.1441 -0.1866
  917MOL0     C20971   2.960   9.586  10.402 -0.8210  0.1033 -0.5496
  917MOL0     C20972   2.864   9.703  10.434  0.7446  0.3747 -0.6037
  917MOL0     C20973   2.725   9.719  10.364  0.7437  0.5278  0.3152
  917MOL0     C20974   2.666   9.860  10.387  0.1506 -0.3586  0.0021
  917MOL0     C20975   2.526   9.855  10.339  0.3980  0.5964  0.9678
  917MOL0     C20976   2.411   9.859  10.310 -0.9413 -0.7178  0.3597
  917MOL0     C20977   2.921   9.228  10.453 -0.4751 -0.1549  0.1883
  917MOL0     C20978   2.947   9.104  10.400 -0.5135  0.1592 -0.4729
  917MOL0     H20979   2.858   8.782  10.027 -0.2571 -0.3245  1.6434
  917MOL0     H20980   2.911   8.583   9.905 -0.9373  0.3947  0.0816
  917MOL0     H20981   3.170   8.262  10.101  1.9559  2.4841  3.0191
  917MOL0     H20982   3.278   8.392  10.049 -0.3273  0.4283  0.7535
  917MOL0     H20983   3.248   8.292   9.801  0.2368 -2.1121 -1.3412
  917MOL0     H20984   3.151   8.165   9.886 -0.0878 -0.6949  1.1285
  917MOL0     H20985   3.343   8.065   9.847  0.1930  1.1118 -1.6607
  917MOL0     H20986   3.326   8.109  10.020 -1.1599  0.8160  0.4946
  917MOL0     H20987   3.507   8.241   9.827 -3.4914 -0.2318 -1.2010
  917MOL0     H20988   3.488   8.304   9.993  2.4018  1.6360 -1.1590
  917MOL0     H20989   3.628   8.037   9.917 -0.8722 -0.7359 -0.4282
  917MOL0     H20990   3.544   8.075  10.066 -2.4209  0.5176 -2.2001
  917MOL0     H20991   3.797   8.134  10.094 -1.4926 -1.1343  0.6114
  917MOL0     H20992   3.689   8.270  10.082 -0.7025  1.0399 -1.4691
  917MOL0     H20993   3.872   8.143   9.869  0.3322  0.7815 -0.3449
  917MOL0     H20994   3.743   8.252   9.817  0.0620 -1.8994 -1.0783
  917MOL0     H20995   3.840   8.438   9.965 -1.5560  1.0483 -2.9823
  917MOL0     H20996   3.952   8.365   9.848  1.4802 -1.0546  1.1035
  917MOL0     H20997   4.147   8.197   9.955  2.7998  2.1618 -0.7962
  917MOL0     H20998   4.359   8.223  10.069  1.3240 -1.4006  0.9626
  917MOL0     H20999   4.350   8.221  10.245  0.2396 -1.6227 -1.3592
  917MOL0     H21000   4.344   8.491  10.111 -0.9317  0.2259  0.9825
  917MOL0     H21001   4.507   8.418  10.128  2.7140  0.9442  3.9514
  917MOL0     H21002   4.312   8.495  10.349 -0.5212 -0.7369  0.2684
  917MOL0     H21003   4.458   8.411  10.387 -1.9242 -1.7430 -0.9580
  917MOL0     H21004   4.482   8.658  10.404 -1.4423  0.5821  0.1888
  917MOL0     H21005   4.431   8.674  10.226  1.9194 -0.2381 -2.4812
  917MOL0     H21006   4.777   8.571  10.055  2.7044  0.5945  0.8147
  917MOL0     H21007   4.840   8.760   9.899 -1.2074  0.0082 -0.1623
  917MOL0     H21008   5.028   9.274   9.980  2.9821  2.5582 -2.7968
  917MOL0     H21009   5.095   9.439   9.807  0.3912 -0.7350 -2.8298
  917MOL0     H21010   5.066   9.685   9.557  0.5080 -1.0740  0.1659
  917MOL0     H21011   5.115   9.605   9.711 -0.1218 -1.5222  0.0287
  917MOL0     H21012   4.963   9.739   9.832  0.5392 -1.6483 -0.5012
  917MOL0     H21013   4.887   9.799   9.688  0.2563 -0.7293 -2.5602
  917MOL0     H21014   5.036   9.975   9.760 -0.8847  0.3423  1.2041
  917MOL0     H21015   5.084   9.922   9.603  1.0133 -0.8582 -0.3381
  917MOL0     H21016   5.197   9.853   9.866  0.4101  1.2563  0.0427
  917MOL0     H21017   5.267   9.773   9.726  1.1324  1.5587 -3.2416
  917MOL0     H21018   5.403   9.947   9.823  0.0953 -1.3627  0.6423
  917MOL0     H21019   5.265  10.062   9.779  1.7591  1.0256  1.1739
  917MOL0     H21020   5.437  10.091   9.607  1.6577 -1.1624  0.4567
  917MOL0     H21021   5.317   9.999   9.539 -2.7328 -2.0521  1.9939
  917MOL0     H21022   5.418   9.790   9.558  1.8076 -2.6328  4.0321
  917MOL0     H21023   5.551   9.898   9.494  0.6017  1.4704  0.8572
  917MOL0     H21024   5.529   9.763   9.747 -0.5380 -0.6064 -0.2411
  917MOL0     H21025   5.632   9.914   9.723  2.4405  0.0998 -2.2616
  917MOL0     H21026   4.693   9.436   9.658  1.0431  1.2175 -0.3946
  917MOL0     H21027   4.640   9.255   9.815 -1.0541  1.2354  4.0395
  917MOL0     H21028   4.685   9.040  10.205  0.9762 -0.0418 -1.1736
  917MOL0     H21029   4.598   8.836  10.329  1.3190 -1.1636  0.6061
  917MOL0     H21030   3.199   8.488  10.223 -0.9335 -0.0818  0.6559
  917MOL0     H21031   3.125   8.683  10.342  0.3574  2.2572 -0.3222
  917MOL0     H21032   3.117   9.204  10.119  0.1009 -1.5958  0.4864
  917MOL0     H21033   3.099   9.408  10.224 -0.2722 -0.1168 -2.1714
  917MOL0     H21034   2.973   9.586  10.293  0.1361 -1.6904 -0.4829
  917MOL0     H21035   3.057   9.614  10.444  0.3055  0.5788 -3.2780
  917MOL0     H21036   2.837   9.704  10.540 -2.3397  3.4064 -1.2170
  917MOL0     H21037   2.920   9.793  10.409  1.8319  0.7445  2.6383
  917MOL0     H21038   2.667   9.634  10.401 -0.2588  1.5462  1.1559
  917MOL0     H21039   2.733   9.696  10.257 -0.6448 -1.3794  0.5575
  917MOL0     H21040   2.662   9.888  10.493 -1.5857 -1.4571  0.2696
  917MOL0     H21041   2.730   9.941  10.352  1.4362 -1.0385  0.6838
  917MOL0     H21042   2.310   9.872  10.275 -0.8754  1.2122  0.7911
  917MOL0     H21043   2.862   9.236  10.544  1.0712 -0.5115  1.2799
  917MOL0     H21044   2.914   9.015  10.452 -1.8682  0.8756 -0.0693
  918MOL0     O21045   9.784   5.252   5.045 -0.1383 -1.0222  0.3544
  918MOL0     C21046   9.700   5.289   4.968 -0.6509 -0.3457 -0.0440
  918MOL0     O21047   9.656   5.416   4.963  0.3451  0.6028 -0.1450
  918MOL0     C21048   9.724   5.513   5.023 -0.7853  0.4117  0.2131
  918MOL0     C21049   9.646   5.568   5.135  0.0089  1.3873  0.4306
  918MOL0     C21050   9.702   5.680   5.192 -0.3748  0.7223  1.2210
  918MOL0     C21051   9.820   5.741   5.148 -0.5212 -0.4791  0.1615
  918MOL0     O21052   9.859   5.850   5.212  0.5397 -0.6974 -0.6344
  918MOL0     C21053   9.854   5.863   5.354  0.1077  0.1165 -0.2724
  918MOL0     C21054   9.992   5.921   5.387 -0.0661  0.4578  0.6345
  918MOL0     C21055  10.028   5.922   5.536  0.5690 -0.2820 -0.1772
  918MOL0     C21056   9.925   5.987   5.629  0.0532  0.8541  0.4124
  918MOL0     C21057   9.982   6.020   5.773  0.0303 -0.5112 -0.4299
  918MOL0     C21058   9.860   6.043   5.876 -0.0726  0.0677  0.6718
  918MOL0     C21059   9.909   6.007   6.025  0.7694 -0.0191  0.2499
  918MOL0     C21060   9.783   6.013   6.108 -0.6156 -0.0071 -0.2530
  918MOL0     N21061   9.813   6.004   6.248 -0.1472  0.3867 -0.3517
  918MOL0     C21062   9.813   5.890   6.322  0.2151 -0.4911 -1.8394
  918MOL0     C21063   9.853   5.923   6.445 -0.6105  0.0516 -0.7452
  918MOL0     C21064   9.849   5.829   6.559 -1.0605  0.6004 -0.6941
  918MOL0     C21065   9.763   5.876   6.675  0.0572 -0.3132 -1.0853
  918MOL0     C21066   9.755   5.759   6.784 -0.1719 -0.9226 -0.0395
  918MOL0     C21067   9.879   5.743   6.874 -1.2973  0.8367 -0.4643
  918MOL0     O21068   9.836   5.778   7.010 -0.0878 -0.8983 -0.6689
  918MOL0     C21069   9.949   5.777   7.092  0.0758  0.8348 -1.1523
  918MOL0     C21070  10.083   5.717   7.061 -0.3172 -0.3225 -0.5778
  918MOL0     C21071  10.186   5.734   7.154 -1.0584 -0.1940  0.2405
  918MOL0     C21072  10.168   5.786   7.287  0.5784  0.4848  0.1303
  918MOL0     C21073  10.288   5.809   7.367  0.0245 -1.2680 -0.6198
  918MOL0     O21074  10.402   5.756   7.332  0.0757 -0.8978  0.1369
  918MOL0     C21075  10.504   5.769   7.421 -0.2442 -0.6866 -0.3131
  918MOL0     C21076  10.498   5.772   7.565  0.4152 -0.5305  1.0949
  918MOL0     C21077  10.618   5.796   7.634 -0.8000  0.3662  0.0516
  918MOL0     C21078  10.739   5.813   7.562  0.2739  0.9502 -0.6794
  918MOL0     O21079  10.849   5.844   7.627 -0.1765  0.1647 -0.4571
  918MOL0     C21080  10.949   5.737   7.638 -0.4556  0.6687 -0.3958
  918MOL0     C21081  11.052   5.739   7.529 -0.4324  0.5538  1.8042
  918MOL0     C21082  11.120   5.613   7.512 -0.9548  0.8192  0.2165
  918MOL0     C21083  11.243   5.624   7.421  0.7992  0.5956  0.0033
  918MOL0     C21084  11.299   5.486   7.386  0.4295 -0.0168  0.0303
  918MOL0     C21085  11.209   5.400   7.290  0.6246 -0.8701 -0.0994
  918MOL0     C21086  11.279   5.285   7.235  0.2512  1.1744 -0.3272
  918MOL0     C21087  11.188   5.185   7.158 -0.2544 -0.6493  0.2542
  918MOL0    Cl21088  11.257   5.027   7.149 -0.0510  0.1732  0.3924
  918MOL0     C21089  10.739   5.807   7.427  0.1938 -1.1531 -0.5124
  918MOL0     C21090  10.625   5.794   7.358  0.2183 -0.5795  0.7283
  918MOL0     O21091  10.263   5.882   7.468  0.0094 -0.6720 -0.3090
  918MOL0     C21092  10.039   5.823   7.316  0.9905  0.3440 -0.0173
  918MOL0     C21093   9.936   5.817   7.224 -0.7004 -0.9045 -0.2298
  918MOL0     N21094   9.889   6.052   6.443 -0.3539 -0.4126  0.1262
  918MOL0     N21095   9.857   6.104   6.329  0.4415  0.4200  0.1057
  918MOL0     C21096   9.895   5.678   5.042 -0.0205 -0.7228  0.3909
  918MOL0     C21097   9.843   5.568   4.978 -0.5887  0.1150  0.8751
  918MOL0     C21098   9.616   5.191   4.890 -0.5077  0.2221 -1.1938
  918MOL0     C21099   9.630   5.052   4.891  1.3275 -0.3437  0.3873
  918MOL0     C21100   9.544   4.969   4.811  0.0161  0.2854  0.1759
  918MOL0     C21101   9.422   5.030   4.762  0.5751 -0.5548 -0.9559
  918MOL0     O21102   9.317   4.966   4.704  0.3658  0.5361  0.3065
  918MOL0     C21103   9.312   4.818   4.717 -0.0490 -0.4486  0.2130
  918MOL0     C21104   9.385   4.761   4.593  0.6189  0.2347 -0.6869
  918MOL0     C21105   9.372   4.605   4.591  0.7720 -1.0140  0.0072
  918MOL0     C21106   9.448   4.519   4.498 -0.5139 -0.4567 -0.2005
  918MOL0     C21107   9.410   4.557   4.365 -0.4921 -0.5954  0.4845
  918MOL0     C21108   9.380   4.593   4.249 -1.1013  0.6824  0.0475
  918MOL0     C21109   9.422   5.164   4.762  1.0211  0.1348 -0.6253
  918MOL0     C21110   9.520   5.252   4.804  0.6796  0.6359 -0.3613
  918MOL0     H21111   9.563   5.514   5.178  0.6011 -0.8523 -1.0235
  918MOL0     H21112   9.649   5.723   5.277  1.0275  0.1017  2.4661
  918MOL0     H21113   9.834   5.766   5.401 -3.5320 -0.0387 -1.8634
  918MOL0     H21114   9.777   5.937   5.376 -0.8966 -0.8964 -0.2633
  918MOL0     H21115   9.984   6.024   5.353 -1.4063  0.4064  0.7313
  918MOL0     H21116  10.068   5.865   5.332 -1.6090 -0.7320 -0.3728
  918MOL0     H21117  10.125   5.972   5.544  1.0846 -1.0339 -1.4180
  918MOL0     H21118  10.045   5.818   5.567 -4.3490 -1.2599 -0.0399
  918MOL0     H21119   9.881   6.065   5.566 -1.7370 -1.7082 -1.7598
  918MOL0     H21120   9.848   5.912   5.645 -1.7107  1.8120 -2.7322
  918MOL0     H21121  10.033   6.116   5.781 -4.1860  1.9361 -0.2167
  918MOL0     H21122  10.044   5.934   5.802  1.7202 -0.2131 -2.8375
  918MOL0     H21123   9.768   5.991   5.849  1.7799 -1.9866 -2.3497
  918MOL0     H21124   9.830   6.147   5.860 -1.9642 -0.6765 -1.0452
  918MOL0     H21125   9.976   5.921   6.017  1.4590  0.6390 -1.9159
  918MOL0     H21126   9.971   6.093   6.052 -0.3228  1.2569 -1.1178
  918MOL0     H21127   9.723   5.927   6.076  1.5636 -1.4395 -0.7312
  918MOL0     H21128   9.726   6.102   6.082  0.6594  1.1972  0.9150
  918MOL0     H21129   9.779   5.792   6.290 -2.7340  1.0163 -3.7297
  918MOL0     H21130   9.949   5.794   6.586 -1.2379  0.5043 -0.1521
  918MOL0     H21131   9.794   5.738   6.530 -0.6913  0.5436 -1.2227
  918MOL0     H21132   9.663   5.895   6.634 -1.1169  3.4132  2.7749
  918MOL0     H21133   9.806   5.966   6.720 -3.4882  1.3380 -0.6978
  918MOL0     H21134   9.669   5.767   6.852  1.1149 -0.6175  1.6357
  918MOL0     H21135   9.748   5.673   6.718  0.2894  0.2602 -1.6853
  918MOL0     H21136   9.957   5.813   6.843 -1.1025  0.2707 -1.2931
  918MOL0     H21137   9.922   5.643   6.863  4.4285  3.0167 -1.0184
  918MOL0     H21138  10.105   5.658   6.973  1.4387 -0.5958  0.0189
  918MOL0     H21139  10.284   5.699   7.125 -0.2498  0.7494  1.6622
  918MOL0     H21140  10.406   5.745   7.617 -1.0416 -0.4331 -1.2784
  918MOL0     H21141  10.615   5.800   7.743  1.0099  1.1458  0.1026
  918MOL0     H21142  10.899   5.639   7.639  2.4820 -1.0145 -2.1115
  918MOL0     H21143  11.000   5.747   7.734 -3.2244 -2.7993  1.7072
  918MOL0     H21144  11.123   5.807   7.577  1.9768 -0.1691 -0.4768
  918MOL0     H21145  11.022   5.782   7.433  0.3465 -1.2280  0.6991
  918MOL0     H21146  11.051   5.547   7.458 -1.0883  0.2754  1.0257
  918MOL0     H21147  11.151   5.560   7.603  0.6201  0.2692 -0.6122
  918MOL0     H21148  11.212   5.679   7.332 -0.9164  1.6228  1.1836
  918MOL0     H21149  11.317   5.681   7.477 -0.1913  0.2742  1.7051
  918MOL0     H21150  11.307   5.420   7.473 -3.1508 -0.0978  0.4219
  918MOL0     H21151  11.397   5.512   7.344 -0.6041  2.6567 -0.9438
  918MOL0     H21152  11.193   5.470   7.206 -1.5649  0.9822  1.7114
  918MOL0     H21153  11.110   5.384   7.334 -0.5251  1.8044 -1.4410
  918MOL0     H21154  11.370   5.307   7.178  1.3076  2.0029  1.5830
  918MOL0     H21155  11.315   5.227   7.321  0.2041 -0.4462 -1.3403
  918MOL0     H21156  11.170   5.223   7.057  2.8280 -0.7659 -0.4674
  918MOL0     H21157  11.090   5.170   7.202 -0.7911 -1.6840 -1.1965
  918MOL0     H21158  10.829   5.816   7.368  0.4202 -1.8238 -0.2820
  918MOL0     H21159  10.621   5.779   7.250 -0.2695 -2.4403  0.9702
  918MOL0     H21160  10.020   5.866   7.414 -0.2142 -1.6628  0.6933
  918MOL0     H21161   9.848   5.873   7.256 -1.3811  0.3950 -3.8020
  918MOL0     H21162   9.990   5.720   5.009  0.4399 -0.6528  1.7587
  918MOL0     H21163   9.894   5.533   4.889  0.7949  0.2666  1.5854
  918MOL0     H21164   9.720   5.010   4.937  1.5517  2.5732  2.9239
  918MOL0     H21165   9.568   4.863   4.806  1.5213  0.6690 -2.3962
  918MOL0     H21166   9.211   4.774   4.717 -0.4702  0.3931  2.1638
  918MOL0     H21167   9.366   4.785   4.806 -2.3328  1.9029  2.6552
  918MOL0     H21168   9.347   4.812   4.504 -2.9229  1.6106  1.4262
  918MOL0     H21169   9.494   4.777   4.596  0.9568 -1.6785 -1.3883
  918MOL0     H21170   9.266   4.578   4.589  0.5777 -0.5130  1.6228
  918MOL0     H21171   9.413   4.565   4.685  0.9993 -4.0499 -1.2538
  918MOL0     H21172   9.557   4.525   4.498 -0.5837  3.3895 -0.7011
  918MOL0     H21173   9.414   4.415   4.507 -0.6669 -0.3855  0.0448
  918MOL0     H21174   9.343   4.618   4.152  3.3883  0.7531 -1.8785
  918MOL0     H21175   9.338   5.215   4.715 -0.7442  0.5241  2.6457
  918MOL0     H21176   9.510   5.359   4.790 -1.0132  0.4154 -1.1377
  919MOL0     O21177   3.183   7.368   9.691 -0.8218 -1.1852 -0.5221
  919MOL0     C21178   3.110   7.275   9.662 -0.1517  0.5229 -0.6774
  919MOL0     O21179   3.138   7.173   9.580 -0.2219 -0.3536 -0.7319
  919MOL0     C21180   3.266   7.147   9.539 -0.3399  0.4189 -0.7223
  919MOL0     C21181   3.303   7.195   9.416  0.5111 -0.2922 -0.0583
  919MOL0     C21182   3.429   7.180   9.365 -0.1730 -0.4754 -0.9103
  919MOL0     C21183   3.531   7.126   9.439 -0.8231  0.2347 -0.7174
  919MOL0     O21184   3.667   7.132   9.385  0.5802 -1.1252  0.6254
  919MOL0     C21185   3.771   7.115   9.479  0.0661  0.9293 -0.5799
  919MOL0     C21186   3.895   7.189   9.428  0.0013 -0.2818 -0.6814
  919MOL0     C21187   3.949   7.135   9.292 -1.0021 -0.0873  0.4487
  919MOL0     C21188   4.072   7.208   9.247  0.3252  0.5652 -0.4476
  919MOL0     C21189   4.149   7.115   9.155  0.5968  0.1509 -0.1889
  919MOL0     C21190   4.248   7.185   9.077  0.1244 -0.7547 -0.3864
  919MOL0     C21191   4.197   7.291   8.988  0.3886  0.8797 -1.0226
  919MOL0     C21192   4.310   7.327   8.883 -0.1673 -0.1416  0.7498
  919MOL0     N21193   4.431   7.392   8.942  0.3061 -0.3232 -0.2560
  919MOL0     C21194   4.547   7.350   9.015 -0.3935  1.0594 -0.0588
  919MOL0     C21195   4.605   7.452   9.059 -0.2021 -0.1594 -0.5891
  919MOL0     C21196   4.726   7.456   9.150 -0.5799  0.0704  0.1820
  919MOL0     C21197   4.696   7.519   9.277 -0.1792 -0.0621 -0.3994
  919MOL0     C21198   4.815   7.518   9.383  0.2322  1.5496  0.5539
  919MOL0     C21199   4.760   7.578   9.516  0.1475 -0.6702  0.3076
  919MOL0     O21200   4.856   7.560   9.622 -0.8368 -0.4023 -0.0295
  919MOL0     C21201   4.841   7.595   9.750 -0.2180  0.4518 -0.7862
  919MOL0     C21202   4.710   7.596   9.806  0.2994 -0.0082 -0.6145
  919MOL0     C21203   4.696   7.641   9.938  0.0781 -0.0976  1.2952
  919MOL0     C21204   4.799   7.703  10.011  1.0214  1.5137 -0.1656
  919MOL0     C21205   4.783   7.747  10.156 -1.0417 -0.0359 -1.3816
  919MOL0     O21206   4.887   7.809  10.217  0.2103  0.6333  0.2269
  919MOL0     C21207   4.863   7.865  10.337  0.2428 -0.9504 -0.6341
  919MOL0     C21208   4.940   7.818  10.445  0.7831 -0.6382  0.1336
  919MOL0     C21209   4.932   7.868  10.579  1.3504 -0.0859  0.3357
  919MOL0     C21210   4.828   7.964  10.609  0.7339  0.9212  0.3209
  919MOL0     O21211   4.826   8.012  10.739  0.7455 -0.2955 -0.7725
  919MOL0     C21212   4.750   8.126  10.781  0.4232  0.2761 -0.0530
  919MOL0     C21213   4.770   8.165  10.926  0.7776  0.2774 -0.2120
  919MOL0     C21214   4.662   8.261  10.963  0.7289  0.6700 -0.0916
  919MOL0     C21215   4.688   8.330  11.106 -0.3270 -0.6158  0.2082
  919MOL0     C21216   4.558   8.374  11.187 -0.3183  0.4362  1.0739
  919MOL0     C21217   4.478   8.240  11.217  0.3588 -0.0961  0.5774
  919MOL0     C21218   4.373   8.259  11.327 -0.2592 -0.0534 -0.5178
  919MOL0     C21219   4.283   8.136  11.352  0.6728 -0.7974 -0.4304
  919MOL0    Cl21220   4.194   8.098  11.216  0.2797 -0.0368  0.1933
  919MOL0     C21221   4.740   7.989  10.505 -0.3778  0.1849  0.3690
  919MOL0     C21222   4.753   7.936  10.375  0.1264  1.0338 -0.0617
  919MOL0     O21223   4.691   7.700  10.220  0.4595 -0.0489  0.0080
  919MOL0     C21224   4.928   7.715   9.952 -0.0450  0.4971  0.3494
  919MOL0     C21225   4.956   7.650   9.819  0.8839 -0.1126 -0.1503
  919MOL0     N21226   4.535   7.564   9.007 -0.1413  0.2388 -0.4845
  919MOL0     N21227   4.437   7.531   8.930  0.3892  0.3983 -0.6009
  919MOL0     C21228   3.494   7.081   9.568 -0.2986  0.4345 -0.0021
  919MOL0     C21229   3.365   7.088   9.620  0.0134  0.4745  0.2748
  919MOL0     C21230   2.970   7.271   9.713 -0.1367  0.1481  0.1983
  919MOL0     C21231   2.937   7.377   9.795  0.6396 -0.9536  0.1281
  919MOL0     C21232   2.812   7.370   9.860 -0.4237  0.3635  0.2867
  919MOL0     C21233   2.721   7.272   9.823 -0.5377 -1.3038 -0.0502
  919MOL0     O21234   2.590   7.283   9.863  0.9080 -0.5253 -0.4191
  919MOL0     C21235   2.527   7.157   9.897  0.0062 -0.3838 -0.2825
  919MOL0     C21236   2.410   7.127   9.815  0.1613  0.1027  0.6737
  919MOL0     C21237   2.372   6.977   9.811 -0.2642 -0.6345  0.5688
  919MOL0     C21238   2.252   6.942   9.717  0.7416 -1.2486 -0.4041
  919MOL0     C21239   2.291   6.968   9.577 -0.0229 -0.8526  0.3810
  919MOL0     C21240   2.308   7.014   9.468 -0.3693 -0.2236 -0.4501
  919MOL0     C21241   2.759   7.174   9.733 -0.5508 -0.4898  0.2822
  919MOL0     C21242   2.889   7.174   9.683  0.1695 -0.0668 -0.2160
  919MOL0     H21243   3.220   7.242   9.365 -0.6804 -0.4793  1.6337
  919MOL0     H21244   3.466   7.204   9.265 -3.7945 -0.8514 -2.4981
  919MOL0     H21245   3.798   7.009   9.473  1.0927  1.1521 -0.0397
  919MOL0     H21246   3.737   7.144   9.579 -2.0080  0.6753 -1.1530
  919MOL0     H21247   3.972   7.174   9.504  1.2205  0.6725 -1.6836
  919MOL0     H21248   3.870   7.296   9.426  3.2391  0.8692  4.1033
  919MOL0     H21249   3.869   7.150   9.218 -1.3508  0.8949  1.0020
  919MOL0     H21250   3.976   7.031   9.315 -4.3358 -0.7341  2.1695
  919MOL0     H21251   4.049   7.305   9.203  0.7037  0.6691 -0.4206
  919MOL0     H21252   4.135   7.244   9.329 -1.1767  5.7884 -1.2045
  919MOL0     H21253   4.076   7.061   9.093  0.1971 -1.2063  1.4036
  919MOL0     H21254   4.204   7.048   9.222  1.5506  3.2387  2.3601
  919MOL0     H21255   4.294   7.104   9.020  0.8664 -1.2583  0.8811
  919MOL0     H21256   4.323   7.225   9.145 -1.6035 -2.0822  2.4968
  919MOL0     H21257   4.103   7.259   8.941 -1.0308  3.3235 -0.0541
  919MOL0     H21258   4.173   7.380   9.048 -0.8319  0.8137 -1.3774
  919MOL0     H21259   4.268   7.394   8.808  0.2092 -1.4539 -0.6810
  919MOL0     H21260   4.337   7.236   8.829  1.4139  0.5480  0.3200
  919MOL0     H21261   4.572   7.245   9.024 -0.4346  0.8245 -2.1170
  919MOL0     H21262   4.811   7.513   9.112 -0.3510  0.0767  0.6949
  919MOL0     H21263   4.749   7.350   9.158  2.8534  0.8226  2.1761
  919MOL0     H21264   4.608   7.470   9.318  0.8641  0.9031  3.4526
  919MOL0     H21265   4.668   7.621   9.248 -0.7426 -0.2889 -0.6540
  919MOL0     H21266   4.837   7.412   9.398  2.3479  1.4549 -2.2293
  919MOL0     H21267   4.906   7.575   9.359  1.3682  1.1076  3.4795
  919MOL0     H21268   4.660   7.543   9.546 -0.9598  3.3923  2.0038
  919MOL0     H21269   4.762   7.683   9.487  0.4516 -1.0874 -1.2841
  919MOL0     H21270   4.628   7.551   9.751  0.4218 -2.3491  0.9673
  919MOL0     H21271   4.593   7.631   9.973  0.1911  0.6946  1.8892
  919MOL0     H21272   5.015   7.745  10.417  0.2052 -0.0284 -3.4491
  919MOL0     H21273   4.994   7.818  10.652 -0.5864 -2.3492  0.5532
  919MOL0     H21274   4.646   8.111  10.752 -0.4853  1.9569  2.0782
  919MOL0     H21275   4.770   8.213  10.719 -0.4077 -0.6044 -1.6096
  919MOL0     H21276   4.863   8.219  10.945  0.6913 -0.2343  1.9672
  919MOL0     H21277   4.759   8.074  10.986 -3.9637 -0.0427 -1.1634
  919MOL0     H21278   4.569   8.204  10.959  1.2827 -0.3526  1.0059
  919MOL0     H21279   4.630   8.329  10.884 -3.6455 -1.2996 -0.2945
  919MOL0     H21280   4.754   8.266  11.165  0.0050  1.2200  1.9175
  919MOL0     H21281   4.739   8.424  11.084 -1.2086  0.4492  2.4211
  919MOL0     H21282   4.490   8.429  11.121  1.5534 -0.1583 -1.5051
  919MOL0     H21283   4.589   8.437  11.271 -0.3886 -0.0673  1.4781
  919MOL0     H21284   4.546   8.160  11.246 -0.5342  0.2810  4.1380
  919MOL0     H21285   4.422   8.213  11.126 -0.7943 -2.3214  1.8613
  919MOL0     H21286   4.433   8.284  11.416 -0.4706 -2.1746  0.2805
  919MOL0     H21287   4.299   8.338  11.311  1.2304  1.4392 -0.3225
  919MOL0     H21288   4.215   8.158  11.435  2.2030  2.0234  0.2252
  919MOL0     H21289   4.342   8.054  11.395 -0.1383 -1.1079  0.1181
  919MOL0     H21290   4.666   8.067  10.524  0.3078  0.5809  1.5609
  919MOL0     H21291   4.688   7.971  10.297 -0.2921  0.0080 -0.1951
  919MOL0     H21292   4.991   7.790   9.998 -0.1603  0.4960  0.5087
  919MOL0     H21293   5.055   7.667   9.777  0.6435 -2.3952 -1.8153
  919MOL0     H21294   3.571   7.024   9.620  1.1230  0.9360 -1.4633
  919MOL0     H21295   3.355   7.047   9.720 -0.7544 -0.3888 -0.1395
  919MOL0     H21296   3.005   7.447   9.842 -1.8848  2.6056 -1.1261
  919MOL0     H21297   2.794   7.449   9.932  1.4684  0.2202  0.9882
  919MOL0     H21298   2.504   7.148  10.004 -1.7258 -2.4798 -0.7602
  919MOL0     H21299   2.584   7.065   9.884 -2.0785 -2.1214  1.7628
  919MOL0     H21300   2.319   7.175   9.852 -0.6512 -0.6780 -0.2316
  919MOL0     H21301   2.442   7.172   9.721  1.4013 -1.9148  0.0582
  919MOL0     H21302   2.352   6.954   9.916 -2.3354 -1.3053  0.0608
  919MOL0     H21303   2.460   6.914   9.792 -0.6286 -0.6794 -1.1047
  919MOL0     H21304   2.215   6.843   9.745  0.0448 -1.0650 -0.6553
  919MOL0     H21305   2.171   7.015   9.725  1.9399  0.3604 -1.9385
  919MOL0     H21306   2.317   7.062   9.372 -0.5127  0.9053  0.0842
  919MOL0     H21307   2.694   7.094   9.698 -1.8683  0.3117  0.8228
  919MOL0     H21308   2.905   7.099   9.606  0.1420 -1.9755  1.5499
  920MOL0     O21309   6.015   5.634  10.233  0.4452 -0.8245  0.4633
  920MOL0     C21310   6.038   5.747  10.279 -0.1979 -0.3363 -0.5281
  920MOL0     O21311   6.035   5.784  10.412 -0.0055 -0.4633  0.3717
  920MOL0     C21312   6.058   5.699  10.515  0.1098 -0.1275  0.7938
  920MOL0     C21313   6.060   5.552  10.512 -0.8173 -0.2478 -0.2653
  920MOL0     C21314   6.085   5.484  10.633 -0.1963 -0.1379  0.6018
  920MOL0     C21315   6.119   5.551  10.746 -0.5281 -0.1181  0.2171
  920MOL0     O21316   6.168   5.496  10.854 -0.5161  0.1699  0.7143
  920MOL0     C21317   6.087   5.395  10.926  0.5214  0.2390  0.5164
  920MOL0     C21318   6.111   5.392  11.076  0.3316 -0.6005  0.6831
  920MOL0     C21319   6.044   5.271  11.143 -0.4068 -0.5204 -0.5707
  920MOL0     C21320   6.132   5.149  11.130 -0.0868  0.3305 -0.2509
  920MOL0     C21321   6.083   5.017  11.206  0.0855 -0.0302 -0.9365
  920MOL0     C21322   6.075   5.030  11.355  0.8915 -0.6870 -0.1894
  920MOL0     C21323   6.026   4.902  11.421 -1.2258  0.8365 -1.1207
  920MOL0     C21324   5.891   4.840  11.369  0.2919  1.2869 -0.9506
  920MOL0     N21325   5.828   4.758  11.486 -0.3818  0.1913  0.3173
  920MOL0     C21326   5.873   4.635  11.518 -0.0457 -1.0512 -0.4310
  920MOL0     C21327   5.799   4.614  11.638 -0.3899  1.1481  0.5398
  920MOL0     C21328   5.816   4.507  11.737  0.7945 -0.2716 -0.2084
  920MOL0     C21329   5.797   4.548  11.879 -0.0550  0.6644 -0.0698
  920MOL0     C21330   5.916   4.646  11.916  0.7736 -0.9323  0.3190
  920MOL0     C21331   5.947   4.643  12.055  0.2872 -0.0230  1.1722
  920MOL0     O21332   5.828   4.655  12.139 -0.6132 -1.0579  0.7551
  920MOL0     C21333   5.834   4.570  12.243 -1.2460 -0.0804  0.1296
  920MOL0     C21334   5.953   4.530  12.302  1.3010  0.8148  0.7974
  920MOL0     C21335   5.947   4.471  12.424 -1.0290 -0.4741 -1.0778
  920MOL0     C21336   5.834   4.468  12.508  0.2216 -0.4724  0.1735
  920MOL0     C21337   5.840   4.401  12.646 -0.3788  1.1604  0.4128
  920MOL0     O21338   5.729   4.366  12.709 -0.5566  0.9342 -0.5330
  920MOL0     C21339   5.719   4.320  12.844  0.5899 -0.0316 -0.0233
  920MOL0     C21340   5.648   4.206  12.872 -0.2177 -0.2020 -0.1004
  920MOL0     C21341   5.638   4.153  13.006  0.3196  0.3619  0.3047
  920MOL0     C21342   5.712   4.198  13.114 -0.8510 -0.3256 -0.1924
  920MOL0     O21343   5.729   4.148  13.233  0.1257  0.4379 -1.1215
  920MOL0     C21344   5.739   4.008  13.274 -0.1876 -0.1116  0.6224
  920MOL0     C21345   5.851   3.930  13.197 -0.2225  0.4284  0.4319
  920MOL0     C21346   5.986   3.985  13.208 -0.4713 -0.6897 -0.5965
  920MOL0     C21347   6.094   3.913  13.126  0.1255  0.1632  0.1917
  920MOL0     C21348   6.189   4.017  13.065  0.8338  0.4909 -0.1324
  920MOL0     C21349   6.320   3.945  13.033 -0.6474  1.2453 -0.4164
  920MOL0     C21350   6.433   4.042  12.982  0.0594 -0.2447 -0.3514
  920MOL0     C21351   6.572   3.993  12.963 -1.1730 -0.5920  0.0941
  920MOL0    Cl21352   6.693   4.131  12.910 -0.5096  0.0336  0.2353
  920MOL0     C21353   5.773   4.318  13.089 -0.5644  0.0300 -0.5866
  920MOL0     C21354   5.787   4.376  12.956  0.5616  0.1512  0.4247
  920MOL0     O21355   5.959   4.393  12.695 -0.1749  0.8858 -0.7075
  920MOL0     C21356   5.713   4.505  12.448  0.5130 -0.6794  0.0940
  920MOL0     C21357   5.715   4.554  12.316  0.2622 -0.2358  0.0784
  920MOL0     N21358   5.702   4.707  11.645  0.3771 -0.2064  0.1526
  920MOL0     N21359   5.733   4.806  11.569  0.0163  0.2060 -1.1648
  920MOL0     C21360   6.125   5.693  10.744  0.0094  0.3733 -0.5134
  920MOL0     C21361   6.083   5.765  10.631 -0.2014 -0.6853  0.5476
  920MOL0     C21362   6.075   5.847  10.180 -0.7643 -0.1896  0.6375
  920MOL0     C21363   6.100   5.819  10.045  0.0119  0.7773 -0.2164
  920MOL0     C21364   6.150   5.916   9.958 -0.3185  0.0131 -0.3454
  920MOL0     C21365   6.166   6.046  10.000 -0.1147  0.3610 -0.1154
  920MOL0     O21366   6.224   6.119   9.901  1.0729  0.1885  0.5867
  920MOL0     C21367   6.187   6.258   9.873 -0.6391 -0.5573  0.6735
  920MOL0     C21368   6.262   6.351   9.959 -0.1193 -1.0429 -0.3632
  920MOL0     C21369   6.412   6.357   9.927  0.1184 -0.3732 -0.3977
  920MOL0     C21370   6.486   6.460  10.013  0.5678  0.2215 -0.7851
  920MOL0     C21371   6.622   6.484   9.968 -0.8653  1.1446 -0.2548
  920MOL0     C21372   6.734   6.515   9.934  0.0464 -0.1636 -1.0768
  920MOL0     C21373   6.126   6.087  10.130  0.8282  0.1480 -0.6077
  920MOL0     C21374   6.077   5.984  10.215  0.2645  0.5922 -0.4508
  920MOL0     H21375   6.035   5.503  10.418 -0.0948  1.4278 -1.3839
  920MOL0     H21376   6.084   5.375  10.638  1.0165 -0.1627  0.5706
  920MOL0     H21377   6.115   5.295  10.894 -3.9029 -0.7049 -1.1176
  920MOL0     H21378   5.980   5.417  10.916  0.1189 -1.3532  1.0595
  920MOL0     H21379   6.063   5.484  11.111  2.1964 -0.1674  2.2496
  920MOL0     H21380   6.213   5.393  11.116  0.6783 -2.2719 -0.0640
  920MOL0     H21381   5.944   5.246  11.107 -2.4383  1.4545  3.1314
  920MOL0     H21382   6.035   5.287  11.251  2.5403  0.3461 -0.3623
  920MOL0     H21383   6.153   5.120  11.026 -0.4427 -0.6711 -0.0550
  920MOL0     H21384   6.226   5.165  11.184 -0.1972 -0.8421  0.3043
  920MOL0     H21385   6.159   4.941  11.184 -0.7475 -2.4250  3.3965
  920MOL0     H21386   5.991   4.984  11.157  0.1398 -0.4722 -0.7429
  920MOL0     H21387   6.016   5.120  11.374  0.6418 -0.9907  0.5307
  920MOL0     H21388   6.177   5.042  11.395  0.2451  1.0153  1.0661
  920MOL0     H21389   6.100   4.822  11.417 -1.4400  0.3577  2.2473
  920MOL0     H21390   5.999   4.920  11.525  1.4283 -0.0063 -0.2159
  920MOL0     H21391   5.907   4.773  11.284  1.8863 -0.0399  0.3139
  920MOL0     H21392   5.829   4.929  11.355  0.8683  2.0731  1.1521
  920MOL0     H21393   5.966   4.585  11.491  1.2379  0.1497  1.5333
  920MOL0     H21394   5.917   4.468  11.722  2.3171  1.6646  3.4517
  920MOL0     H21395   5.741   4.434  11.708 -0.3490  1.3943 -1.6659
  920MOL0     H21396   5.792   4.458  11.940  1.7032 -1.7781 -3.2035
  920MOL0     H21397   5.702   4.597  11.902 -0.0736  0.7074 -0.2290
  920MOL0     H21398   6.009   4.632  11.861  1.2270 -2.1120  1.3220
  920MOL0     H21399   5.883   4.747  11.889  0.1803 -0.6977  1.7947
  920MOL0     H21400   6.019   4.724  12.073 -0.0869  0.4716  0.4856
  920MOL0     H21401   6.015   4.560  12.072  3.7419  3.0569  3.9785
  920MOL0     H21402   6.049   4.563  12.263  1.4308  2.2140  2.1848
  920MOL0     H21403   6.037   4.437  12.474 -0.4531  2.4614  0.0991
  920MOL0     H21404   5.600   4.161  12.786  0.3415  2.4917 -1.9625
  920MOL0     H21405   5.590   4.056  13.018  3.4686 -1.5463 -0.9617
  920MOL0     H21406   5.641   3.967  13.247 -0.6155  1.3927 -0.2550
  920MOL0     H21407   5.754   4.002  13.382  0.8090  0.5994  0.5398
  920MOL0     H21408   5.820   3.929  13.092 -2.8822  1.8772  1.1130
  920MOL0     H21409   5.855   3.824  13.224  4.3985  1.0436  3.2355
  920MOL0     H21410   6.013   3.970  13.313  0.5390  4.0506  0.0514
  920MOL0     H21411   5.992   4.094  13.196  2.1494 -0.6330  0.4816
  920MOL0     H21412   6.149   3.838  13.183  0.5205 -1.6932 -2.4413
  920MOL0     H21413   6.045   3.850  13.051 -3.2486  0.0384  2.2670
  920MOL0     H21414   6.199   4.098  13.138 -0.1533 -0.3355  0.9344
  920MOL0     H21415   6.146   4.066  12.977  2.2492 -0.4660 -1.4144
  920MOL0     H21416   6.308   3.889  12.940  0.5934 -1.4121  0.9006
  920MOL0     H21417   6.363   3.882  13.112  1.3488 -0.9865 -3.0588
  920MOL0     H21418   6.415   4.083  12.883  0.2983  1.4101  0.2585
  920MOL0     H21419   6.439   4.125  13.053  0.5736  0.5939 -1.3580
  920MOL0     H21420   6.585   3.914  12.888 -0.7912 -0.8526  0.4277
  920MOL0     H21421   6.609   3.948  13.056  3.8398  1.1414 -0.7248
  920MOL0     H21422   5.825   4.369  13.169 -3.0590  3.1385 -0.7645
  920MOL0     H21423   5.850   4.462  12.935  0.6341 -0.2348 -1.1144
  920MOL0     H21424   5.616   4.481  12.490 -0.5765  0.4965 -1.5954
  920MOL0     H21425   5.625   4.591  12.268  2.1193 -1.5186 -5.0352
  920MOL0     H21426   6.138   5.754  10.834 -3.1602 -1.3562  1.3001
  920MOL0     H21427   6.082   5.873  10.621  2.4843 -0.7345 -1.2338
  920MOL0     H21428   6.064   5.722  10.013 -2.7079  0.9388  2.0359
  920MOL0     H21429   6.165   5.894   9.853 -3.2380  0.8845 -1.0380
  920MOL0     H21430   6.088   6.267   9.917 -0.8128  4.1844 -0.2512
  920MOL0     H21431   6.179   6.280   9.766 -1.3045  0.1712  0.8678
  920MOL0     H21432   6.215   6.449   9.942  5.0650  2.1139  1.2715
  920MOL0     H21433   6.272   6.310  10.060  0.0090  2.7070  1.3241
  920MOL0     H21434   6.425   6.379   9.820 -1.2411 -1.6613 -0.8675
  920MOL0     H21435   6.455   6.262   9.957 -0.3831  0.3131  2.8116
  920MOL0     H21436   6.431   6.554  10.019 -0.3659 -0.3863  1.0409
  920MOL0     H21437   6.499   6.419  10.114  0.9103  0.8506 -0.5687
  920MOL0     H21438   6.833   6.552   9.915  0.1609 -0.6695 -1.4686
  920MOL0     H21439   6.130   6.194  10.144  0.0523  0.1683 -0.5048
  920MOL0     H21440   6.051   6.021  10.313  4.7483  0.9373  0.8370
  921MOL0     O21441   7.797   6.267  10.042 -0.0550  0.1270  0.5856
  921MOL0     C21442   7.766   6.194   9.952 -0.0321 -0.6924  0.0409
  921MOL0     O21443   7.769   6.216   9.818 -0.1859  0.1488 -0.1100
  921MOL0     C21444   7.841   6.315   9.772  0.0313 -0.2680 -0.2955
  921MOL0     C21445   7.938   6.288   9.676 -0.1525 -0.1061 -0.2450
  921MOL0     C21446   8.004   6.394   9.612  0.0317 -0.7778 -0.1670
  921MOL0     C21447   7.973   6.529   9.648 -0.6087  0.6879 -0.5055
  921MOL0     O21448   8.051   6.617   9.572 -0.7723  0.4722 -0.9100
  921MOL0     C21449   7.994   6.757   9.568 -0.0509  0.3880 -0.0693
  921MOL0     C21450   8.064   6.853   9.658 -0.5060  0.6664 -0.0653
  921MOL0     C21451   8.105   6.815   9.801  0.8151 -0.9321  0.0266
  921MOL0     C21452   7.996   6.876   9.900 -0.2980  1.3500  0.6040
  921MOL0     C21453   8.011   6.831  10.042  1.1797  1.1240  0.9919
  921MOL0     C21454   7.993   6.676  10.058 -0.3460 -0.1917  1.4219
  921MOL0     C21455   8.029   6.627  10.207 -0.2043 -0.1226 -0.6151
  921MOL0     C21456   8.176   6.680  10.248 -0.4551 -0.0390 -0.3256
  921MOL0     N21457   8.213   6.617  10.372  0.1452  0.1214 -0.4500
  921MOL0     C21458   8.302   6.519  10.380  0.0629  1.0337  0.0247
  921MOL0     C21459   8.321   6.480  10.507  0.1056 -0.6536 -0.1920
  921MOL0     C21460   8.416   6.377  10.565  0.0422  0.5578 -0.5703
  921MOL0     C21461   8.382   6.329  10.705 -0.3550  0.0211  0.0514
  921MOL0     C21462   8.471   6.206  10.748  0.0664 -0.1787  0.6267
  921MOL0     C21463   8.441   6.081  10.655  0.8368 -0.1831  0.0650
  921MOL0     O21464   8.485   5.974  10.734 -0.3079 -0.4893  0.5159
  921MOL0     C21465   8.450   5.844  10.692 -0.3636  0.4291 -0.5179
  921MOL0     C21466   8.381   5.818  10.572  0.5939  0.0800 -0.3759
  921MOL0     C21467   8.337   5.684  10.550  0.7858 -1.5200  0.3296
  921MOL0     C21468   8.362   5.579  10.625 -0.3331  0.2367 -0.0619
  921MOL0     C21469   8.330   5.440  10.579 -1.2992  0.0077 -0.2312
  921MOL0     O21470   8.280   5.428  10.454  0.2973 -0.6513 -0.6879
  921MOL0     C21471   8.221   5.308  10.434 -0.7546 -0.0277  1.0750
  921MOL0     C21472   8.280   5.235  10.332  0.0682 -0.1764  0.4684
  921MOL0     C21473   8.234   5.101  10.310  0.3133 -0.7197 -0.1910
  921MOL0     C21474   8.122   5.055  10.366  0.4970  0.0549  0.4496
  921MOL0     O21475   8.082   4.937  10.316  0.5783  0.5387 -0.2693
  921MOL0     C21476   7.978   4.857  10.383  0.2151 -0.3006 -0.2818
  921MOL0     C21477   7.978   4.720  10.314 -1.4338  0.5896  0.3874
  921MOL0     C21478   7.925   4.720  10.167  0.1752 -0.3955  1.0647
  921MOL0     C21479   7.915   4.594  10.086  0.4746  0.1472  0.7586
  921MOL0     C21480   7.863   4.612   9.934  0.6733  0.5321  0.3469
  921MOL0     C21481   7.893   4.491   9.839  0.3342 -0.4143  0.0281
  921MOL0     C21482   8.045   4.480   9.804  0.0564 -0.4922  0.1283
  921MOL0     C21483   8.083   4.343   9.739 -0.4158 -0.6332  0.2464
  921MOL0    Cl21484   8.005   4.308   9.578  0.1772 -0.2724 -0.2667
  921MOL0     C21485   8.061   5.131  10.470 -0.5041  1.1950 -0.6661
  921MOL0     C21486   8.117   5.252  10.510 -0.5176  0.4756  0.0180
  921MOL0     O21487   8.367   5.351  10.653  0.3424  0.6931 -0.5473
  921MOL0     C21488   8.429   5.606  10.749  0.2248 -0.1727 -0.5711
  921MOL0     C21489   8.473   5.733  10.781  1.0008 -0.2479  0.0888
  921MOL0     N21490   8.242   6.579  10.576  0.0759  0.2912 -0.1337
  921MOL0     N21491   8.164   6.643  10.497 -0.0618 -1.0910 -0.3519
  921MOL0     C21492   7.883   6.548   9.751 -0.0814 -0.1499  0.8326
  921MOL0     C21493   7.823   6.442   9.817 -0.2394 -0.5514  0.5447
  921MOL0     C21494   7.706   6.056   9.987 -0.3625  0.1077 -0.3809
  921MOL0     C21495   7.656   6.045  10.116 -0.3779  0.2673  0.7285
  921MOL0     C21496   7.588   5.931  10.147  0.2960  0.2710 -0.0716
  921MOL0     C21497   7.577   5.821  10.059  0.3032 -1.0042  0.6856
  921MOL0     O21498   7.538   5.689  10.087  0.5072  0.9399 -0.1149
  921MOL0     C21499   7.454   5.670  10.207  0.6644 -0.0975  0.4133
  921MOL0     C21500   7.311   5.722  10.162 -0.9001  0.3236  0.6955
  921MOL0     C21501   7.221   5.687  10.280  0.1025  0.9123 -0.5614
  921MOL0     C21502   7.114   5.796  10.308 -0.3875 -0.0880 -0.2904
  921MOL0     C21503   6.997   5.740  10.376 -0.6104 -0.2208  1.0351
  921MOL0     C21504   6.916   5.669  10.422 -0.4114  1.1418  0.1116
  921MOL0     C21505   7.626   5.835   9.930 -0.1065 -0.7557  0.8661
  921MOL0     C21506   7.690   5.954   9.890  0.2383  0.8874 -0.0590
  921MOL0     H21507   7.958   6.187   9.641  1.5427 -0.2030  0.9180
  921MOL0     H21508   8.079   6.376   9.536  2.9168  0.7433  2.1148
  921MOL0     H21509   7.885   6.768   9.574  0.0236  0.4158  2.6519
  921MOL0     H21510   8.020   6.789   9.466 -0.1357 -0.7989 -0.4742
  921MOL0     H21511   7.991   6.935   9.662 -3.6956 -1.8918 -1.8819
  921MOL0     H21512   8.154   6.892   9.610  0.3678  1.5295  2.0969
  921MOL0     H21513   8.199   6.866   9.823 -0.1517  0.6436  0.6263
  921MOL0     H21514   8.121   6.707   9.811  0.4130 -1.0519 -0.5186
  921MOL0     H21515   8.006   6.985   9.905  2.5135  1.1542  0.8803
  921MOL0     H21516   7.897   6.851   9.861 -0.2567  1.6284  0.3120
  921MOL0     H21517   7.939   6.894  10.096 -1.3107  0.3855 -1.2258
  921MOL0     H21518   8.116   6.855  10.062  2.2545 -0.9353 -1.6733
  921MOL0     H21519   8.063   6.630   9.987  0.7918  0.0512  2.3765
  921MOL0     H21520   7.888   6.651  10.042 -0.8321  0.7084  3.0095
  921MOL0     H21521   7.965   6.663  10.288  0.8527 -1.4388  0.8862
  921MOL0     H21522   8.035   6.518  10.204  0.4633 -0.0909 -0.6939
  921MOL0     H21523   8.173   6.789  10.259  2.5286  0.0045  1.1675
  921MOL0     H21524   8.261   6.662  10.182  0.5621  1.5362  0.4721
  921MOL0     H21525   8.360   6.484  10.294  0.3570  0.6759  0.3655
  921MOL0     H21526   8.519   6.413  10.556 -0.0046  1.8369  2.7338
  921MOL0     H21527   8.403   6.288  10.501  0.3597 -0.2135  0.4073
  921MOL0     H21528   8.275   6.308  10.710 -0.0419 -1.6826  0.6504
  921MOL0     H21529   8.411   6.399  10.784  3.1338 -1.1209 -0.0438
  921MOL0     H21530   8.574   6.231  10.719 -1.5224  3.5707 -2.5882
  921MOL0     H21531   8.454   6.174  10.852  1.5428 -0.7860  0.7151
  921MOL0     H21532   8.493   6.094  10.559  1.2930 -1.1256  0.1742
  921MOL0     H21533   8.335   6.064  10.633  1.0186  0.2534 -1.2775
  921MOL0     H21534   8.351   5.905  10.515  1.0910 -0.7409 -1.9462
  921MOL0     H21535   8.279   5.670  10.460  1.6585 -3.0169 -0.0346
  921MOL0     H21536   8.368   5.279  10.285  1.0825 -1.9676  0.5857
  921MOL0     H21537   8.258   5.056  10.214 -0.6695  2.5109 -2.1155
  921MOL0     H21538   7.889   4.916  10.357  1.4071  1.3113 -0.8301
  921MOL0     H21539   7.981   4.844  10.492  1.2912 -3.9760 -0.5993
  921MOL0     H21540   7.922   4.644  10.370  2.6834 -1.9709  1.4156
  921MOL0     H21541   8.084   4.698  10.307 -1.2014  1.5757  0.6581
  921MOL0     H21542   7.999   4.766  10.101  0.9397 -0.3218  1.9495
  921MOL0     H21543   7.829   4.772  10.165  0.3002 -0.1823  0.5994
  921MOL0     H21544   8.014   4.548  10.081  1.5925  2.5764 -1.0491
  921MOL0     H21545   7.850   4.519  10.133  2.9293 -1.1923  2.2369
  921MOL0     H21546   7.899   4.704   9.889  0.6760 -0.2086 -1.2327
  921MOL0     H21547   7.754   4.623   9.937  0.7712  1.7272  0.0784
  921MOL0     H21548   7.840   4.504   9.744  1.4092 -3.2733 -1.0725
  921MOL0     H21549   7.867   4.393   9.878 -1.1184  0.2403  0.7680
  921MOL0     H21550   8.075   4.561   9.737 -0.0613 -0.6266 -0.0894
  921MOL0     H21551   8.103   4.501   9.894 -0.5026  0.6020  0.2528
  921MOL0     H21552   8.062   4.267   9.816  0.2739 -3.0031 -1.7567
  921MOL0     H21553   8.190   4.345   9.717 -0.8841  0.7037 -2.2826
  921MOL0     H21554   7.975   5.097  10.527 -0.4094  2.2706  0.1540
  921MOL0     H21555   8.080   5.315  10.590  0.7438  2.5694 -0.9572
  921MOL0     H21556   8.440   5.527  10.823 -0.7713  0.8227  0.6738
  921MOL0     H21557   8.528   5.756  10.872  1.0742  0.1440 -0.0547
  921MOL0     H21558   7.870   6.649   9.786  0.8815 -1.2254  4.7586
  921MOL0     H21559   7.746   6.470   9.888  0.5728  2.1405  0.4818
  921MOL0     H21560   7.661   6.132  10.181  0.8612  2.6257 -2.2518
  921MOL0     H21561   7.539   5.930  10.245  2.5222  1.0102  1.1067
  921MOL0     H21562   7.487   5.735  10.288 -2.9910  1.0846  1.1339
  921MOL0     H21563   7.458   5.564  10.233 -0.3493 -0.7861 -1.9349
  921MOL0     H21564   7.321   5.829  10.141 -2.6242  0.4703  0.5181
  921MOL0     H21565   7.282   5.681  10.065  4.3202 -0.2323 -0.9403
  921MOL0     H21566   7.278   5.683  10.373 -0.7436  0.3344 -0.0659
  921MOL0     H21567   7.172   5.591  10.261  0.8737  0.2826  0.4962
  921MOL0     H21568   7.155   5.875  10.372  0.1158 -2.1192  2.0313
  921MOL0     H21569   7.070   5.835  10.216  0.4440  0.7242 -0.3596
  921MOL0     H21570   6.845   5.592  10.444 -0.2227  1.1190  0.6570
  921MOL0     H21571   7.626   5.749   9.864 -1.5733  0.6174 -1.0692
  921MOL0     H21572   7.731   5.965   9.791 -1.7141 -1.1888 -1.1946
  922MOL0     O21573  10.571   7.868   2.209  0.2111 -0.3088 -0.1224
  922MOL0     C21574  10.647   7.918   2.134  0.0450  0.0124  0.1050
  922MOL0     O21575  10.613   8.020   2.056 -0.2688  0.8257  0.3259
  922MOL0     C21576  10.501   8.106   2.055 -0.8331 -0.1285 -0.4738
  922MOL0     C21577  10.385   8.082   2.134 -0.2540 -0.1522  0.0817
  922MOL0     C21578  10.272   8.176   2.142 -0.8187 -0.3065 -0.2334
  922MOL0     C21579  10.274   8.284   2.055  0.6180 -0.3156 -1.2398
  922MOL0     O21580  10.164   8.365   2.054  0.1662 -0.3972 -0.0636
  922MOL0     C21581  10.166   8.485   1.973  0.5879  0.0083  0.2762
  922MOL0     C21582  10.146   8.458   1.816  0.9174 -0.1780 -0.9152
  922MOL0     C21583  10.006   8.428   1.768  0.6812  0.0456 -0.9140
  922MOL0     C21584   9.921   8.330   1.852  0.0359  0.5409 -0.5747
  922MOL0     C21585   9.791   8.301   1.784  1.1323  0.4861 -1.0617
  922MOL0     C21586   9.697   8.255   1.896  0.9605 -0.3883  0.1421
  922MOL0     C21587   9.565   8.203   1.817  0.2436 -0.2268 -0.2380
  922MOL0     C21588   9.461   8.136   1.901 -0.6299 -0.1856  0.3982
  922MOL0     N21589   9.338   8.101   1.837  0.4290  0.2173  1.0274
  922MOL0     C21590   9.329   8.035   1.717 -0.8309  0.1072 -0.7963
  922MOL0     C21591   9.199   8.046   1.683  0.4441 -0.3833  0.7823
  922MOL0     C21592   9.122   7.978   1.566 -0.6917  0.4423  0.0932
  922MOL0     C21593   9.044   7.860   1.615  0.6111 -0.6553 -0.1775
  922MOL0     C21594   8.932   7.815   1.527  0.0021 -0.1063  0.6372
  922MOL0     C21595   8.846   7.700   1.587 -0.5476 -0.4773 -0.5632
  922MOL0     O21596   8.926   7.586   1.602 -0.3997 -0.6760  0.2624
  922MOL0     C21597   8.851   7.468   1.628  0.2822 -0.0624 -0.4728
  922MOL0     C21598   8.724   7.474   1.690  0.0629 -0.1878  0.7895
  922MOL0     C21599   8.661   7.364   1.727  0.8451 -0.5934  0.4190
  922MOL0     C21600   8.708   7.235   1.695 -0.7371  0.2384  0.4382
  922MOL0     C21601   8.628   7.116   1.720 -0.2314  0.3147  0.4802
  922MOL0     O21602   8.528   7.132   1.815 -0.0029 -0.6711  0.4267
  922MOL0     C21603   8.452   7.023   1.842  0.1088 -0.8387  0.6356
  922MOL0     C21604   8.502   6.908   1.912 -0.4147  0.3711  0.7431
  922MOL0     C21605   8.433   6.783   1.923 -0.5317 -0.4492 -0.1815
  922MOL0     C21606   8.308   6.774   1.871  0.0080  0.3826  0.8416
  922MOL0     O21607   8.238   6.653   1.881  0.7949  0.3683  0.0979
  922MOL0     C21608   8.099   6.658   1.876  0.7210  1.2362  0.2563
  922MOL0     C21609   8.051   6.531   1.959  1.2865  0.8834 -0.7284
  922MOL0     C21610   8.082   6.395   1.903  0.0585 -0.1178 -0.6514
  922MOL0     C21611   8.033   6.361   1.763  0.0511  0.6476 -0.0855
  922MOL0     C21612   7.879   6.349   1.762  0.6271  0.5488 -0.0579
  922MOL0     C21613   7.806   6.292   1.638  0.4559  0.3182 -0.0083
  922MOL0     C21614   7.656   6.296   1.679 -0.5795 -0.0968 -0.0149
  922MOL0     C21615   7.585   6.255   1.553 -0.1376 -0.9779 -0.1136
  922MOL0    Cl21616   7.413   6.206   1.565 -0.0511  0.0552 -0.0409
  922MOL0     C21617   8.258   6.881   1.801 -0.7627  0.2231  0.4112
  922MOL0     C21618   8.325   7.002   1.782  0.0837 -0.9560 -0.1612
  922MOL0     O21619   8.659   7.011   1.660 -0.1364 -0.2545 -0.3608
  922MOL0     C21620   8.832   7.222   1.631  0.2140  0.3203 -1.8006
  922MOL0     C21621   8.906   7.342   1.602  0.3137 -0.7467 -0.4177
  922MOL0     N21622   9.133   8.122   1.772 -0.4185 -0.2909 -1.0124
  922MOL0     N21623   9.214   8.155   1.865  0.0437  0.2242  0.6114
  922MOL0     C21624  10.390   8.303   1.983 -0.7056  0.5304 -1.1322
  922MOL0     C21625  10.500   8.218   1.982  0.1551 -0.2960 -0.4348
  922MOL0     C21626  10.778   7.857   2.123  1.3420  0.6075 -0.1583
  922MOL0     C21627  10.799   7.723   2.153 -0.2722 -0.0590 -0.0890
  922MOL0     C21628  10.910   7.661   2.103 -0.0831 -0.1070 -0.1391
  922MOL0     C21629  11.010   7.711   2.029  0.7680 -0.4948  0.6751
  922MOL0     O21630  11.116   7.632   1.999 -0.4924 -0.2150  0.8869
  922MOL0     C21631  11.135   7.593   1.862 -0.7889  0.2162  0.0266
  922MOL0     C21632  11.164   7.699   1.756 -0.2585  0.0836  0.0270
  922MOL0     C21633  11.229   7.636   1.629  0.0114  0.9776  0.3079
  922MOL0     C21634  11.257   7.739   1.513 -0.1179  0.0509 -0.2206
  922MOL0     C21635  11.377   7.816   1.522 -0.0945 -0.1277 -0.5809
  922MOL0     C21636  11.478   7.882   1.508 -0.1394 -0.9107  0.6221
  922MOL0     C21637  10.998   7.848   2.002  0.0600  0.8358 -0.2198
  922MOL0     C21638  10.881   7.916   2.034  0.2015 -0.3752  0.4949
  922MOL0     H21639  10.382   7.995   2.198  0.8418 -0.0397  0.3020
  922MOL0     H21640  10.184   8.167   2.204  0.1082  1.0750  1.3572
  922MOL0     H21641  10.264   8.531   1.991  0.9702 -1.3386  1.8915
  922MOL0     H21642  10.085   8.547   2.011 -1.8186 -0.9739 -2.8087
  922MOL0     H21643  10.204   8.366   1.805  0.7259 -1.6436  5.9532
  922MOL0     H21644  10.188   8.539   1.755  3.4893 -0.2274  0.6309
  922MOL0     H21645  10.014   8.402   1.662 -0.2056  1.3966 -1.3431
  922MOL0     H21646   9.950   8.521   1.758  0.2249 -0.4354 -3.6566
  922MOL0     H21647   9.975   8.239   1.880  1.8726  1.4999 -0.8597
  922MOL0     H21648   9.899   8.372   1.951 -0.1371 -2.5358  0.8377
  922MOL0     H21649   9.813   8.222   1.712 -0.7137  0.2210 -1.3942
  922MOL0     H21650   9.745   8.397   1.756 -3.8660 -0.5121  2.3616
  922MOL0     H21651   9.666   8.340   1.958 -3.1096  0.0712 -2.1216
  922MOL0     H21652   9.754   8.177   1.947  2.7847 -0.1829 -1.4649
  922MOL0     H21653   9.513   8.290   1.775 -1.7333 -1.8164 -1.2145
  922MOL0     H21654   9.594   8.128   1.744  0.1489  1.2308 -1.8562
  922MOL0     H21655   9.431   8.199   1.985  1.1362  0.3273  0.6944
  922MOL0     H21656   9.507   8.044   1.938 -0.4565 -0.5135 -0.6087
  922MOL0     H21657   9.403   7.981   1.660 -1.5435 -1.7446 -0.0488
  922MOL0     H21658   9.194   7.946   1.490 -2.4355  0.2697 -1.5655
  922MOL0     H21659   9.050   8.039   1.511  0.4616  0.5618 -1.3527
  922MOL0     H21660   8.995   7.875   1.711 -1.7588  1.9973 -1.6392
  922MOL0     H21661   9.114   7.777   1.630  2.7600  1.1903  0.6086
  922MOL0     H21662   8.860   7.894   1.508 -0.5016 -1.1154 -2.0470
  922MOL0     H21663   8.976   7.774   1.436  1.4246 -1.0450  1.6853
  922MOL0     H21664   8.767   7.672   1.517 -0.0514 -1.1771 -0.8669
  922MOL0     H21665   8.812   7.735   1.685  0.0572 -1.8834  0.1778
  922MOL0     H21666   8.687   7.569   1.728 -0.0934  0.8690 -1.7951
  922MOL0     H21667   8.563   7.373   1.773 -0.3188 -0.3182 -1.9307
  922MOL0     H21668   8.598   6.923   1.961 -0.6133  1.0050  0.9482
  922MOL0     H21669   8.489   6.716   1.988  2.5326  0.6535 -1.5353
  922MOL0     H21670   8.065   6.667   1.772 -1.5399  3.5151  1.0714
  922MOL0     H21671   8.064   6.751   1.921 -0.5627  1.2950 -0.7878
  922MOL0     H21672   7.943   6.537   1.978  1.6049 -0.9104  2.1206
  922MOL0     H21673   8.106   6.528   2.053  2.6448  1.6953 -1.4530
  922MOL0     H21674   8.047   6.316   1.970 -1.5717  2.9690  2.4366
  922MOL0     H21675   8.189   6.376   1.906 -0.0771 -1.4991 -2.6466
  922MOL0     H21676   8.065   6.436   1.690  0.5587  2.1622  1.6218
  922MOL0     H21677   8.076   6.262   1.747 -1.1337  0.3493 -1.7995
  922MOL0     H21678   7.844   6.451   1.778 -0.2558  0.4112 -1.0841
  922MOL0     H21679   7.848   6.289   1.849  1.1151  1.1936  0.5788
  922MOL0     H21680   7.836   6.192   1.606  2.0519  0.6766  0.2543
  922MOL0     H21681   7.839   6.361   1.560 -1.5170  0.3189 -0.8988
  922MOL0     H21682   7.652   6.207   1.743  2.7873 -1.7553 -1.7737
  922MOL0     H21683   7.616   6.383   1.729 -1.5124 -0.8925  0.6547
  922MOL0     H21684   7.641   6.172   1.511  0.9047 -0.0753 -0.5484
  922MOL0     H21685   7.589   6.342   1.487 -3.5358 -1.2178 -0.8441
  922MOL0     H21686   8.161   6.876   1.751 -0.4368 -1.1958 -0.1240
  922MOL0     H21687   8.277   7.079   1.722  1.9881  1.0323  0.7675
  922MOL0     H21688   8.874   7.129   1.594 -0.6887 -0.7762 -0.1755
  922MOL0     H21689   9.006   7.336   1.560 -0.8087 -1.0198 -3.2800
  922MOL0     H21690  10.400   8.390   1.918 -0.7028  0.2149 -1.5592
  922MOL0     H21691  10.582   8.232   1.913 -1.1450  1.1529 -1.7609
  922MOL0     H21692  10.739   7.654   2.212 -0.2031  1.6883  2.1554
  922MOL0     H21693  10.915   7.560   2.142 -0.8749  0.1458  0.6404
  922MOL0     H21694  11.052   7.524   1.842  0.3790 -1.9915  2.2098
  922MOL0     H21695  11.219   7.522   1.863 -2.2640 -1.5929  0.3630
  922MOL0     H21696  11.069   7.746   1.725 -1.7329 -3.8266 -2.1163
  922MOL0     H21697  11.234   7.778   1.785  0.7968 -1.5094  1.9634
  922MOL0     H21698  11.153   7.565   1.594  0.4501 -0.9881  3.0622
  922MOL0     H21699  11.323   7.585   1.652 -1.0508 -1.3568 -0.2494
  922MOL0     H21700  11.256   7.688   1.417 -1.1759  0.5876 -0.5119
  922MOL0     H21701  11.178   7.814   1.502  2.0987  2.4408 -0.8612
  922MOL0     H21702  11.570   7.932   1.486 -2.4839  2.9354 -1.3376
  922MOL0     H21703  11.065   7.883   1.924 -0.9100 -0.3788 -1.6637
  922MOL0     H21704  10.868   8.017   1.998 -1.4683 -1.0535 -0.9448
  923MOL0     O21705   2.787   8.412  10.422 -0.3732 -0.0309 -0.4719
  923MOL0     C21706   2.769   8.541  10.416 -1.1772 -0.2355  0.1064
  923MOL0     O21707   2.850   8.644  10.463  0.0678 -0.0848 -0.6021
  923MOL0     C21708   2.962   8.623  10.535 -0.1388 -0.6629  0.1449
  923MOL0     C21709   3.042   8.509  10.510  0.3508 -0.8277 -0.4760
  923MOL0     C21710   3.136   8.467  10.606 -0.1894  0.0651  1.5506
  923MOL0     C21711   3.168   8.543  10.716 -0.3618 -0.8870 -0.5659
  923MOL0     O21712   3.266   8.499  10.798 -0.4299 -1.1413 -0.2085
  923MOL0     C21713   3.350   8.593  10.865 -0.7335 -0.8455  0.9380
  923MOL0     C21714   3.492   8.533  10.906  0.8078 -0.6782 -0.3896
  923MOL0     C21715   3.503   8.396  10.964  0.6117  0.7068 -1.3331
  923MOL0     C21716   3.644   8.370  10.996 -0.2294  0.1498 -0.0522
  923MOL0     C21717   3.658   8.271  11.116  0.1929 -0.2943 -0.5396
  923MOL0     C21718   3.798   8.265  11.168  0.5796 -0.0312  0.3793
  923MOL0     C21719   3.907   8.253  11.054  0.2684 -0.4318  0.0977
  923MOL0     C21720   3.888   8.128  10.964  0.0921 -0.0925 -0.3651
  923MOL0     N21721   3.897   7.996  11.033 -0.0559  0.1011 -0.0011
  923MOL0     C21722   3.997   7.912  11.060 -0.5553 -0.6226  0.3006
  923MOL0     C21723   3.933   7.800  11.104  0.4798  0.9419 -1.9278
  923MOL0     C21724   3.976   7.663  11.146 -1.1034  0.7399  0.1364
  923MOL0     C21725   4.004   7.649  11.290  0.8704 -0.2712 -0.8654
  923MOL0     C21726   4.062   7.504  11.322  0.1312  0.2603  0.5441
  923MOL0     C21727   3.970   7.426  11.419 -0.4186 -0.3001  0.2074
  923MOL0     O21728   3.841   7.422  11.351  0.4605 -0.0475 -0.3618
  923MOL0     C21729   3.729   7.437  11.423 -0.1403  0.5765 -0.0104
  923MOL0     C21730   3.638   7.534  11.388  0.1239 -1.5870  0.8712
  923MOL0     C21731   3.512   7.547  11.440 -1.6712 -0.9534  0.0848
  923MOL0     C21732   3.486   7.464  11.556  0.3799  0.7170 -0.2670
  923MOL0     C21733   3.360   7.490  11.626  0.4488  0.0146  0.3000
  923MOL0     O21734   3.305   7.605  11.590  0.5864  0.4393 -0.2119
  923MOL0     C21735   3.174   7.640  11.614  0.4824 -0.1201 -0.6206
  923MOL0     C21736   3.069   7.548  11.633  0.1200  0.2579 -0.5681
  923MOL0     C21737   2.939   7.606  11.671 -0.0860  0.5044 -0.4167
  923MOL0     C21738   2.921   7.737  11.688 -0.3105 -1.0342 -0.0199
  923MOL0     O21739   2.812   7.802  11.741 -0.0927  0.9607 -0.1789
  923MOL0     C21740   2.713   7.823  11.643  0.7325  0.1252  0.8121
  923MOL0     C21741   2.580   7.873  11.709  1.0497 -0.0612 -0.3155
  923MOL0     C21742   2.599   7.990  11.812  0.0278  0.5760  0.0159
  923MOL0     C21743   2.466   8.068  11.828 -0.0156 -0.1011 -0.5910
  923MOL0     C21744   2.478   8.166  11.944 -0.3499 -0.7861  0.2536
  923MOL0     C21745   2.366   8.271  11.954  0.0906  0.0409 -0.3159
  923MOL0     C21746   2.389   8.360  12.075 -0.6816 -0.3489  0.4567
  923MOL0     C21747   2.517   8.440  12.061 -0.1683 -0.1416 -0.6321
  923MOL0    Cl21748   2.535   8.534  11.915 -0.6197 -0.4037 -0.6257
  923MOL0     C21749   3.024   7.824  11.647 -0.1624  0.2788  0.2653
  923MOL0     C21750   3.142   7.774  11.602 -0.1130  0.4156 -0.3479
  923MOL0     O21751   3.322   7.414  11.710  0.8561 -0.0293 -0.1270
  923MOL0     C21752   3.589   7.383  11.610  1.2930 -0.0829  0.0277
  923MOL0     C21753   3.702   7.355  11.533 -0.1751 -0.4147  0.1889
  923MOL0     N21754   3.799   7.819  11.116 -0.2754  0.2434 -1.4214
  923MOL0     N21755   3.773   7.938  11.080 -0.2778 -0.4549 -0.6059
  923MOL0     C21756   3.103   8.665  10.726  0.4318 -0.2663 -0.8832
  923MOL0     C21757   2.999   8.707  10.646  0.7339  0.0326  0.6969
  923MOL0     C21758   2.648   8.584  10.341 -0.7653  1.0068  1.4459
  923MOL0     C21759   2.639   8.718  10.297  0.4056 -1.2331  0.5831
  923MOL0     C21760   2.525   8.763  10.224 -0.6405 -0.7129 -0.8404
  923MOL0     C21761   2.416   8.679  10.178 -0.7983  0.4143  0.5146
  923MOL0     O21762   2.313   8.726  10.100  0.1523 -0.2032  0.2832
  923MOL0     C21763   2.173   8.680  10.138 -0.5324  0.0908  0.0865
  923MOL0     C21764   2.140   8.752  10.278  0.2236  0.7016  0.7908
  923MOL0     C21765   2.011   8.714  10.350 -0.2985  1.1287  0.1141
  923MOL0     C21766   1.889   8.795  10.305  0.6945 -0.6972  0.4057
  923MOL0     C21767   1.842   8.749  10.171 -0.1891 -0.4108 -1.0602
  923MOL0     C21768   1.822   8.703  10.058  0.7519 -0.4576  0.3255
  923MOL0     C21769   2.441   8.546  10.216  0.4126 -0.3835 -0.9096
  923MOL0     C21770   2.548   8.494  10.300  0.1667 -0.2690  0.4275
  923MOL0     H21771   3.036   8.442  10.425 -0.0718 -0.0070 -1.1040
  923MOL0     H21772   3.197   8.379  10.584 -2.4452 -0.9601 -1.1215
  923MOL0     H21773   3.306   8.628  10.959 -0.2762  2.8054 -0.0913
  923MOL0     H21774   3.375   8.672  10.794  1.4929 -3.7462 -1.7827
  923MOL0     H21775   3.531   8.610  10.974 -0.6447  3.0507 -3.4177
  923MOL0     H21776   3.552   8.520  10.815 -0.1547 -1.8267 -0.8890
  923MOL0     H21777   3.457   8.327  10.892 -2.8518  1.4974 -0.1061
  923MOL0     H21778   3.448   8.389  11.058  2.7831 -2.2203 -0.1510
  923MOL0     H21779   3.696   8.338  10.905  0.9089 -1.5274  1.1375
  923MOL0     H21780   3.696   8.464  11.016 -0.1382 -0.4339  2.8059
  923MOL0     H21781   3.625   8.176  11.072 -1.7467  0.9095 -1.8623
  923MOL0     H21782   3.596   8.294  11.203 -1.5328 -0.5277 -1.6527
  923MOL0     H21783   3.799   8.177  11.233 -0.0393 -0.1826  0.1938
  923MOL0     H21784   3.812   8.350  11.234  0.9480 -0.2978  0.6490
  923MOL0     H21785   3.908   8.342  10.990  0.5919 -1.8181 -1.9039
  923MOL0     H21786   4.005   8.268  11.100 -0.7638 -0.8181  2.5948
  923MOL0     H21787   3.961   8.122  10.883 -0.5026 -0.3326 -0.8925
  923MOL0     H21788   3.792   8.123  10.913 -0.5369  1.3312  0.6129
  923MOL0     H21789   4.105   7.926  11.056 -0.2505 -2.0149  2.0998
  923MOL0     H21790   4.070   7.636  11.096 -0.2474  0.3214  1.9075
  923MOL0     H21791   3.905   7.584  11.117 -0.2648  0.2509 -0.6360
  923MOL0     H21792   3.917   7.679  11.349  3.7156  0.4610  3.3686
  923MOL0     H21793   4.083   7.717  11.323  0.5545 -1.1995  2.0893
  923MOL0     H21794   4.082   7.443  11.233  1.1995  0.7230  0.4515
  923MOL0     H21795   4.162   7.517  11.364 -0.6978  2.7843  1.9568
  923MOL0     H21796   3.975   7.467  11.520  0.6434 -2.0579  0.9207
  923MOL0     H21797   4.020   7.329  11.424 -0.2371 -0.5432 -3.3843
  923MOL0     H21798   3.663   7.603  11.308 -0.7754 -2.1373  0.0858
  923MOL0     H21799   3.434   7.613  11.402  2.1079  2.6678 -2.1596
  923MOL0     H21800   3.087   7.442  11.624  3.8110  0.7909 -0.8031
  923MOL0     H21801   2.859   7.539  11.700  1.6100 -1.0614  1.0049
  923MOL0     H21802   2.677   7.731  11.595  0.8753  0.6002 -0.2270
  923MOL0     H21803   2.759   7.891  11.570  0.2162  2.0403  2.1917
  923MOL0     H21804   2.533   7.790  11.761  1.6800  0.6172  1.4269
  923MOL0     H21805   2.528   7.902  11.618  1.9093 -1.7595 -1.3864
  923MOL0     H21806   2.679   8.051  11.768 -0.7869  3.0294  1.7313
  923MOL0     H21807   2.641   7.946  11.903 -1.1572  1.1177  0.8357
  923MOL0     H21808   2.459   8.114  11.729  1.0804 -1.1264 -1.1695
  923MOL0     H21809   2.382   7.999  11.842  2.0000 -2.4928  0.3550
  923MOL0     H21810   2.567   8.227  11.931 -1.4223  1.8668  3.6702
  923MOL0     H21811   2.471   8.106  12.035  0.2626  1.5532  1.9419
  923MOL0     H21812   2.265   8.230  11.958 -0.8714  1.6942 -4.0900
  923MOL0     H21813   2.368   8.335  11.866 -0.1249 -0.5356 -0.7436
  923MOL0     H21814   2.308   8.432  12.090 -0.3537  0.5373 -1.6044
  923MOL0     H21815   2.398   8.315  12.174  0.0027  1.8863  1.4755
  923MOL0     H21816   2.604   8.374  12.066 -0.9315 -1.1329  0.0558
  923MOL0     H21817   2.535   8.511  12.142 -1.8734  1.1303 -1.3035
  923MOL0     H21818   3.014   7.931  11.665 -1.7953 -0.0194  1.4086
  923MOL0     H21819   3.227   7.841  11.596  0.5446 -0.1339  1.8247
  923MOL0     H21820   3.569   7.330  11.703 -0.0937 -0.5756 -0.5275
  923MOL0     H21821   3.773   7.275  11.555 -0.4406 -0.7936 -0.3266
  923MOL0     H21822   3.119   8.727  10.814 -0.0729 -1.6380  0.1976
  923MOL0     H21823   2.952   8.803  10.668  0.3550 -0.3705  1.7023
  923MOL0     H21824   2.711   8.796  10.318  0.0011 -0.3504 -1.0940
  923MOL0     H21825   2.515   8.870  10.208 -1.1682 -0.8283 -1.3147
  923MOL0     H21826   2.180   8.575  10.166  3.2289  0.1099 -0.1800
  923MOL0     H21827   2.113   8.711  10.052 -0.8273 -4.1536 -1.4696
  923MOL0     H21828   2.221   8.722  10.346  1.3014  2.1777  0.2241
  923MOL0     H21829   2.145   8.861  10.267  1.7257  0.6482  0.6785
  923MOL0     H21830   2.020   8.742  10.456  2.6494  2.6457 -0.4280
  923MOL0     H21831   1.987   8.608  10.347  1.4632  0.6919  0.2153
  923MOL0     H21832   1.800   8.770  10.365 -0.3464 -2.8228 -1.8358
  923MOL0     H21833   1.902   8.903  10.315 -1.2241 -0.1592 -1.9904
  923MOL0     H21834   1.799   8.675   9.957 -4.5841 -2.7053  1.8514
  923MOL0     H21835   2.373   8.477  10.169  3.2843 -3.8877 -0.3415
  923MOL0     H21836   2.525   8.388  10.309 -1.8012  0.0918  0.2060
  924MOL0     O21837   7.806   2.517   0.086  0.2396  0.4221  0.3484
  924MOL0     C21838   7.889   2.489  -0.001 -0.2604  0.1883  0.6019
  924MOL0     O21839   7.991   2.574  -0.038  0.3928 -0.2638 -0.3431
  924MOL0     C21840   8.007   2.708   0.003  0.5612 -1.0674 -0.3386
  924MOL0     C21841   7.962   2.770   0.114  0.1911 -0.3997 -0.2220
  924MOL0     C21842   7.976   2.910   0.127 -0.8359 -1.1203  0.2076
  924MOL0     C21843   8.055   2.988   0.040 -0.6249 -0.8966 -0.5083
  924MOL0     O21844   8.056   3.124   0.051  0.0255 -0.4700  0.7622
  924MOL0     C21845   8.179   3.181   0.079 -0.2284  0.6740  0.7424
  924MOL0     C21846   8.169   3.313   0.151  0.7824 -0.9657 -0.2722
  924MOL0     C21847   8.289   3.347   0.235 -1.1474 -0.9070 -0.5347
  924MOL0     C21848   8.266   3.455   0.348 -0.4153 -0.3501 -0.2304
  924MOL0     C21849   8.221   3.592   0.297  0.4324  0.5144  1.1217
  924MOL0     C21850   8.347   3.671   0.242 -0.2504  0.7744 -0.0554
  924MOL0     C21851   8.293   3.811   0.217  0.8608  0.3921 -0.3852
  924MOL0     C21852   8.401   3.908   0.206 -0.4616 -0.4112 -0.2270
  924MOL0     N21853   8.435   3.944   0.346 -0.6281 -0.1655 -0.2743
  924MOL0     C21854   8.554   3.907   0.404  0.5755 -0.1381  0.5794
  924MOL0     C21855   8.576   3.993   0.503  0.9676 -0.5692  0.2115
  924MOL0     C21856   8.693   3.993   0.587  0.1968  0.5334  0.2219
  924MOL0     C21857   8.738   4.133   0.642  0.6914  0.0133 -0.3085
  924MOL0     C21858   8.853   4.117   0.736  0.1580 -0.1488  0.0775
  924MOL0     C21859   8.894   4.250   0.794 -1.0667  0.5299  0.0917
  924MOL0     O21860   8.992   4.320   0.707  0.4295  0.4085 -0.7312
  924MOL0     C21861   9.115   4.305   0.770 -0.4247 -0.0409 -0.8531
  924MOL0     C21862   9.175   4.184   0.792 -0.7184  1.4560  0.8797
  924MOL0     C21863   9.321   4.181   0.809  1.2180 -0.9181  0.0201
  924MOL0     C21864   9.397   4.301   0.837  0.6341  0.0314 -1.1062
  924MOL0     C21865   9.534   4.297   0.877  0.3124 -0.0512  0.3514
  924MOL0     O21866   9.591   4.409   0.898 -0.3612 -0.4590 -0.4774
  924MOL0     C21867   9.722   4.428   0.933  0.4291  0.5860  0.6082
  924MOL0     C21868   9.751   4.563   0.936  0.3509 -0.6291 -1.5504
  924MOL0     C21869   9.871   4.611   0.979  0.2514  0.0038 -0.9396
  924MOL0     C21870   9.972   4.525   1.014 -0.6214  0.0433 -0.0413
  924MOL0     O21871  10.084   4.581   1.068 -0.1958  0.4467  0.8568
  924MOL0     C21872  10.219   4.523   1.041 -0.3198  0.0017 -0.3722
  924MOL0     C21873  10.328   4.605   1.119  0.0709 -0.0897  0.8319
  924MOL0     C21874  10.469   4.543   1.125  0.4259 -0.8742 -0.2511
  924MOL0     C21875  10.529   4.531   0.982  0.0177 -0.8289  0.4857
  924MOL0     C21876  10.657   4.438   0.991  0.0079 -0.2826  0.6337
  924MOL0     C21877  10.712   4.377   0.852  0.3445 -0.6891  0.9581
  924MOL0     C21878  10.803   4.481   0.779  0.2669  0.2178 -0.8989
  924MOL0     C21879  10.947   4.458   0.844 -0.0456  0.0789  0.0911
  924MOL0    Cl21880  11.032   4.329   0.750 -0.3660 -0.0944  0.4359
  924MOL0     C21881   9.958   4.390   1.018  0.7666 -0.6852  0.2864
  924MOL0     C21882   9.829   4.338   0.965  0.6908 -0.2637 -0.6379
  924MOL0     O21883   9.594   4.196   0.844  0.0728 -0.0923  0.3915
  924MOL0     C21884   9.325   4.423   0.832  0.2105  0.4590 -0.9305
  924MOL0     C21885   9.190   4.417   0.789  0.1410 -0.8498  0.9488
  924MOL0     N21886   8.466   4.081   0.514 -0.3964 -0.3614 -0.2347
  924MOL0     N21887   8.383   4.047   0.415 -0.4886 -0.5231 -0.3635
  924MOL0     C21888   8.123   2.921  -0.057  0.4950 -0.1133  1.0953
  924MOL0     C21889   8.093   2.784  -0.078  0.5562  0.2011  0.0380
  924MOL0     C21890   7.866   2.358  -0.073 -0.2149 -0.5250 -0.2883
  924MOL0     C21891   7.951   2.324  -0.175 -0.6994  0.2098  0.5098
  924MOL0     C21892   7.922   2.204  -0.241 -0.3015  0.3531  0.5971
  924MOL0     C21893   7.811   2.124  -0.234  1.1698  0.4907  0.0570
  924MOL0     O21894   7.801   2.026  -0.329 -0.2610 -0.0355 -0.2554
  924MOL0     C21895   7.670   1.957  -0.347  0.6134  0.3891 -0.2300
  924MOL0     C21896   7.664   1.820  -0.264  0.8516 -0.9132  0.1499
  924MOL0     C21897   7.526   1.756  -0.267  0.2243  0.3875 -0.4099
  924MOL0     C21898   7.496   1.692  -0.407 -0.2085 -0.5062 -0.2518
  924MOL0     C21899   7.440   1.800  -0.495  0.2707 -0.2719 -0.4874
  924MOL0     C21900   7.363   1.878  -0.552  0.0156 -0.3463 -0.2290
  924MOL0     C21901   7.726   2.169  -0.126 -0.0123 -0.7259  0.6312
  924MOL0     C21902   7.756   2.281  -0.053  0.2729  0.5034 -0.1814
  924MOL0     H21903   7.901   2.711   0.182  1.1857  0.4112  1.4390
  924MOL0     H21904   7.925   2.968   0.204  0.5227  0.1178  0.2156
  924MOL0     H21905   8.223   3.190  -0.021 -2.3133  3.0139 -0.0750
  924MOL0     H21906   8.242   3.109   0.132 -2.3663 -2.2681 -0.4120
  924MOL0     H21907   8.078   3.299   0.210 -1.1949 -1.7303 -3.2844
  924MOL0     H21908   8.152   3.398   0.084  2.1615 -0.3854  0.0787
  924MOL0     H21909   8.363   3.397   0.172 -1.5917  3.6708  2.1197
  924MOL0     H21910   8.345   3.263   0.277 -0.4154  0.4030  1.1818
  924MOL0     H21911   8.191   3.417   0.418 -0.7782  2.5949  1.1308
  924MOL0     H21912   8.358   3.472   0.406  0.2246 -0.4916 -1.1764
  924MOL0     H21913   8.169   3.646   0.376  0.8952  2.0395  0.4155
  924MOL0     H21914   8.133   3.585   0.232  1.0689 -0.9442  0.3630
  924MOL0     H21915   8.383   3.624   0.150 -0.2980 -0.8624  0.7293
  924MOL0     H21916   8.429   3.667   0.314 -3.4373 -1.7902  3.8789
  924MOL0     H21917   8.240   3.809   0.122  0.9392  1.8592 -0.4786
  924MOL0     H21918   8.218   3.847   0.289 -0.4360 -3.4713  0.5055
  924MOL0     H21919   8.353   3.995   0.161 -1.9337  1.1336  3.9310
  924MOL0     H21920   8.495   3.875   0.159 -0.3822 -1.0958  0.3835
  924MOL0     H21921   8.620   3.825   0.377 -0.9759 -0.6466 -2.0580
  924MOL0     H21922   8.773   3.960   0.521 -2.3370  1.6895 -3.8067
  924MOL0     H21923   8.675   3.919   0.665 -0.2874 -1.0661 -1.3374
  924MOL0     H21924   8.658   4.184   0.696  3.3711  3.7008  0.5480
  924MOL0     H21925   8.782   4.203   0.570 -0.9173  2.7674  1.2246
  924MOL0     H21926   8.835   4.046   0.817  1.3166 -0.9043 -0.3106
  924MOL0     H21927   8.938   4.085   0.675 -0.9664 -1.3747 -0.8940
  924MOL0     H21928   8.919   4.224   0.898 -0.4255 -1.8963 -0.6106
  924MOL0     H21929   8.812   4.321   0.811  0.4432  2.4773 -0.5182
  924MOL0     H21930   9.126   4.087   0.791  0.4124  0.8780 -0.8184
  924MOL0     H21931   9.372   4.085   0.819  1.4626 -0.7699  0.1949
  924MOL0     H21932   9.675   4.641   0.937 -1.0385 -1.9099 -2.4674
  924MOL0     H21933   9.888   4.718   0.971 -1.6603  0.2606 -2.1960
  924MOL0     H21934  10.247   4.524   0.936  0.0762  0.8010 -0.2611
  924MOL0     H21935  10.221   4.416   1.063  0.1453  0.1676  0.4440
  924MOL0     H21936  10.294   4.622   1.221  0.1684 -0.0663  0.8609
  924MOL0     H21937  10.328   4.708   1.082 -0.1303  0.5702  2.5765
  924MOL0     H21938  10.448   4.447   1.172 -1.9021  0.3149  1.3746
  924MOL0     H21939  10.532   4.602   1.192  0.4261  1.5629 -2.2250
  924MOL0     H21940  10.457   4.504   0.904 -0.6028  2.9809 -0.4788
  924MOL0     H21941  10.558   4.633   0.953 -2.0059  0.2801  2.0649
  924MOL0     H21942  10.612   4.355   1.047  0.7220  0.0262  1.6890
  924MOL0     H21943  10.739   4.483   1.047  1.1210  0.4307 -1.4479
  924MOL0     H21944  10.628   4.355   0.785 -2.8474  5.8204  2.0773
  924MOL0     H21945  10.765   4.287   0.884  1.3486 -1.0133 -1.4022
  924MOL0     H21946  10.806   4.462   0.672  4.4459 -1.2359 -0.6912
  924MOL0     H21947  10.769   4.585   0.790  0.1873  0.2022 -0.9950
  924MOL0     H21948  10.953   4.430   0.950  0.5924  0.4695  0.1639
  924MOL0     H21949  11.003   4.552   0.846 -1.1873  0.7512  0.9105
  924MOL0     H21950  10.038   4.323   1.047  1.6018 -0.6756 -1.8207
  924MOL0     H21951   9.823   4.230   0.978  2.6457 -0.3973 -0.4270
  924MOL0     H21952   9.378   4.516   0.847 -0.2135  1.3323 -4.1854
  924MOL0     H21953   9.123   4.502   0.781 -0.7910 -1.7340 -2.3137
  924MOL0     H21954   8.176   2.974  -0.136 -0.7802  1.8184  1.4676
  924MOL0     H21955   8.146   2.731  -0.157 -1.1936  1.2692 -1.9304
  924MOL0     H21956   8.045   2.377  -0.190 -1.2426  1.0272 -0.0945
  924MOL0     H21957   7.999   2.171  -0.310  0.9089  3.3853  0.3543
  924MOL0     H21958   7.651   1.945  -0.454  0.6982  1.5988 -0.3941
  924MOL0     H21959   7.604   2.031  -0.303  1.6876  0.5919  1.1240
  924MOL0     H21960   7.736   1.757  -0.317 -0.1663 -0.4172 -1.8932
  924MOL0     H21961   7.699   1.828  -0.160 -1.3066  0.1387  0.8566
  924MOL0     H21962   7.441   1.817  -0.236 -0.2715  0.3591 -1.6411
  924MOL0     H21963   7.529   1.679  -0.189 -3.8536 -0.1009 -0.5388
  924MOL0     H21964   7.583   1.648  -0.456 -2.6590 -3.1674 -2.5995
  924MOL0     H21965   7.430   1.605  -0.412  0.8989 -1.3908  0.1653
  924MOL0     H21966   7.294   1.954  -0.582 -0.3510  0.2159  1.8516
  924MOL0     H21967   7.634   2.113  -0.112  1.0896 -2.6354  0.6115
  924MOL0     H21968   7.687   2.317   0.023 -0.2918  4.9498 -2.4800
  925MOL0     O21969   8.600   6.811   8.459  0.3501 -0.6060 -0.6013
  925MOL0     C21970   8.531   6.897   8.513 -0.0269 -0.0367  0.1268
  925MOL0     O21971   8.565   7.024   8.515 -0.6293  0.2315 -0.6473
  925MOL0     C21972   8.691   7.059   8.473 -0.0648 -0.6248 -0.8554
  925MOL0     C21973   8.712   7.133   8.366  0.7810 -0.9668  0.3268
  925MOL0     C21974   8.837   7.182   8.330 -0.0528  0.5837  0.0777
  925MOL0     C21975   8.952   7.147   8.396  0.6975 -1.0208  0.2923
  925MOL0     O21976   9.081   7.171   8.357  0.0565 -0.1444  0.4643
  925MOL0     C21977   9.115   7.224   8.229 -0.8232  0.2475 -0.1430
  925MOL0     C21978   9.270   7.252   8.208 -0.0245 -0.0152 -0.7794
  925MOL0     C21979   9.367   7.136   8.236 -0.0786  0.5898 -0.0883
  925MOL0     C21980   9.345   7.021   8.143 -0.3878 -0.1216  0.0920
  925MOL0     C21981   9.458   6.921   8.132  0.0485 -0.0500  1.2946
  925MOL0     C21982   9.563   6.964   8.029  1.3239 -0.5800 -1.1889
  925MOL0     C21983   9.679   6.871   8.045  0.5365 -0.3110 -0.4445
  925MOL0     C21984   9.805   6.919   7.962  0.0985 -0.2134 -0.6559
  925MOL0     N21985   9.927   6.846   7.995 -0.1712  0.0917 -0.0816
  925MOL0     C21986   9.951   6.793   8.121 -0.0032 -0.4524  0.3114
  925MOL0     C21987  10.073   6.725   8.102  0.5877  0.4777  0.5358
  925MOL0     C21988  10.122   6.643   8.212  0.1775 -0.5689 -0.6122
  925MOL0     C21989  10.280   6.649   8.206  0.7179 -0.3541 -0.2241
  925MOL0     C21990  10.360   6.559   8.305 -0.1253  0.9525  0.1863
  925MOL0     C21991  10.315   6.594   8.446 -1.1404 -0.1347 -0.2449
  925MOL0     O21992  10.418   6.541   8.533 -0.3884  0.2816  0.2714
  925MOL0     C21993  10.548   6.577   8.515  0.1817  0.1688  0.5098
  925MOL0     C21994  10.651   6.494   8.558  0.0397  0.0713  1.5192
  925MOL0     C21995  10.789   6.523   8.536  0.3043 -0.0169  0.2266
  925MOL0     C21996  10.818   6.641   8.474 -0.0386  0.3275 -0.4627
  925MOL0     C21997  10.959   6.683   8.462 -1.5387  0.9735 -0.1568
  925MOL0     O21998  10.989   6.797   8.404  0.5438  0.1543  0.7838
  925MOL0     C21999  11.116   6.851   8.394 -0.1451  0.0151  0.5674
  925MOL0     C22000  11.164   6.885   8.269 -0.3971 -0.2535  0.5694
  925MOL0     C22001  11.295   6.916   8.246  0.7869  0.4052 -0.0596
  925MOL0     C22002  11.378   6.929   8.359  0.7245  0.0192 -0.0861
  925MOL0     O22003  11.511   6.966   8.359  0.5428  0.5737  0.3074
  925MOL0     C22004  11.563   7.034   8.241  0.2811 -0.1609  0.6376
  925MOL0     C22005  11.714   7.089   8.256 -0.6757 -0.2147  0.0761
  925MOL0     C22006  11.752   7.131   8.396  0.1631 -0.2308  0.7479
  925MOL0     C22007  11.682   7.259   8.453  0.1877  0.0816  0.4059
  925MOL0     C22008  11.719   7.377   8.358 -0.2500  0.2350 -0.5921
  925MOL0     C22009  11.696   7.514   8.422 -0.1674 -0.5573  0.6508
  925MOL0     C22010  11.682   7.623   8.324 -0.3137  0.2139 -0.3101
  925MOL0     C22011  11.812   7.669   8.256 -0.1206 -0.0698  0.0696
  925MOL0    Cl22012  11.918   7.757   8.375 -0.5003 -0.3517  0.1433
  925MOL0     C22013  11.325   6.899   8.493 -0.5234 -0.8274 -0.4901
  925MOL0     C22014  11.197   6.868   8.506  0.4078  0.3097  0.6907
  925MOL0     O22015  11.048   6.600   8.499  0.3984  0.6839 -0.1301
  925MOL0     C22016  10.720   6.726   8.435  1.3776 -0.2729  0.3876
  925MOL0     C22017  10.587   6.701   8.451  0.3458 -0.1771 -0.0621
  925MOL0     N22018  10.121   6.744   7.973  0.4001 -0.4836  0.2688
  925MOL0     N22019  10.033   6.809   7.908  0.7287  0.2927  0.1887
  925MOL0     C22020   8.931   7.075   8.515  0.5135  0.1540  0.4732
  925MOL0     C22021   8.805   7.031   8.553  0.2338  0.0976  0.9428
  925MOL0     C22022   8.397   6.849   8.562 -0.4098  1.1349  0.6307
  925MOL0     C22023   8.302   6.932   8.627  0.3950  0.2063  0.9177
  925MOL0     C22024   8.196   6.868   8.707 -0.1444 -0.0187  1.0520
  925MOL0     C22025   8.187   6.733   8.725  0.3167  0.3033 -0.5221
  925MOL0     O22026   8.095   6.678   8.813  0.2722 -0.5871 -0.5680
  925MOL0     C22027   8.139   6.671   8.951  0.1132 -0.2312  0.5662
  925MOL0     C22028   8.022   6.732   9.042  0.1794  0.1737  0.1760
  925MOL0     C22029   7.969   6.865   8.989  0.0595  0.8434  0.6859
  925MOL0     C22030   7.852   6.926   9.069 -1.3675  0.2498  0.2509
  925MOL0     C22031   7.883   6.954   9.204  0.4712  0.1813  0.2902
  925MOL0     C22032   7.904   6.987   9.321 -0.1967  0.6875 -0.4701
  925MOL0     C22033   8.276   6.658   8.662 -1.1888  0.4935  2.0358
  925MOL0     C22034   8.387   6.710   8.581  0.6652 -0.6840 -0.3092
  925MOL0     H22035   8.628   7.159   8.303  1.7453  0.6051 -0.3785
  925MOL0     H22036   8.841   7.246   8.242  1.2919  2.1793  1.2149
  925MOL0     H22037   9.055   7.314   8.212 -0.8562 -0.0246 -1.5492
  925MOL0     H22038   9.080   7.158   8.150 -0.3449 -0.8237  0.5180
  925MOL0     H22039   9.299   7.322   8.287 -3.5161  0.4131  0.3123
  925MOL0     H22040   9.282   7.308   8.115  1.2863  2.7670  0.9498
  925MOL0     H22041   9.355   7.095   8.337 -0.7758  1.9284  0.4017
  925MOL0     H22042   9.468   7.178   8.233  0.3242 -0.3017  0.4429
  925MOL0     H22043   9.244   6.980   8.154  0.0724 -1.3167  0.0089
  925MOL0     H22044   9.330   7.070   8.046 -2.0453 -0.5003  0.1260
  925MOL0     H22045   9.423   6.825   8.092 -0.3727 -0.4771  2.6138
  925MOL0     H22046   9.499   6.900   8.232 -1.7846  0.5280  2.2125
  925MOL0     H22047   9.593   7.066   8.055 -2.3039  0.3022  0.2952
  925MOL0     H22048   9.525   6.965   7.926 -0.5390  1.3961 -0.5648
  925MOL0     H22049   9.704   6.868   8.151 -0.4682  0.6954 -0.1486
  925MOL0     H22050   9.657   6.769   8.011  0.1738 -1.2227  2.2868
  925MOL0     H22051   9.817   7.025   7.989  3.2571 -0.6729  0.0670
  925MOL0     H22052   9.777   6.921   7.856  1.4033  3.0239 -1.0506
  925MOL0     H22053   9.897   6.804   8.214 -0.9015 -0.1232 -0.2372
  925MOL0     H22054  10.081   6.542   8.206  0.4379 -0.7278  0.2290
  925MOL0     H22055  10.089   6.692   8.304  1.2678  1.0722 -1.0506
  925MOL0     H22056  10.313   6.753   8.214  1.7675 -0.6904  0.0463
  925MOL0     H22057  10.300   6.619   8.103 -3.0329  0.7074 -1.4449
  925MOL0     H22058  10.320   6.458   8.295 -1.0450  1.2625  0.6422
  925MOL0     H22059  10.464   6.567   8.273  0.4082  2.3342  2.0949
  925MOL0     H22060  10.220   6.557   8.485  0.7840 -1.9028  3.2417
  925MOL0     H22061  10.313   6.703   8.445  3.0151  0.1114  0.4151
  925MOL0     H22062  10.631   6.399   8.607  1.0919 -1.5779 -1.0261
  925MOL0     H22063  10.868   6.452   8.561  0.1336 -1.5364 -3.0245
  925MOL0     H22064  11.098   6.875   8.184  1.1019 -0.3479 -0.6271
  925MOL0     H22065  11.320   6.956   8.148  1.2248 -2.7678 -1.3418
  925MOL0     H22066  11.505   7.126   8.226 -0.7326 -1.1495 -2.1060
  925MOL0     H22067  11.551   6.974   8.150 -0.3594 -0.4041  0.8754
  925MOL0     H22068  11.728   7.173   8.187  5.8014 -0.0506  0.9740
  925MOL0     H22069  11.777   7.003   8.232  1.4414  1.1686  0.4664
  925MOL0     H22070  11.860   7.147   8.388 -0.2556  2.3348 -0.7586
  925MOL0     H22071  11.728   7.048   8.463  0.2944  0.3808  1.5579
  925MOL0     H22072  11.573   7.253   8.453  0.2405 -3.9470 -1.3992
  925MOL0     H22073  11.716   7.262   8.557  1.7430 -1.5182 -0.0111
  925MOL0     H22074  11.660   7.367   8.266  1.4629 -0.2133 -1.6961
  925MOL0     H22075  11.820   7.367   8.317 -0.3910  0.6884 -1.0522
  925MOL0     H22076  11.786   7.538   8.480 -0.2296  0.4910  0.3326
  925MOL0     H22077  11.609   7.512   8.488 -0.6440 -0.0484  0.0521
  925MOL0     H22078  11.605   7.604   8.248 -2.7094  0.8348  1.8026
  925MOL0     H22079  11.634   7.707   8.376 -0.0547  0.6999 -0.8491
  925MOL0     H22080  11.791   7.738   8.174  1.9251  1.0756  0.4463
  925MOL0     H22081  11.858   7.582   8.208  0.5476  0.1225  0.3509
  925MOL0     H22082  11.388   6.913   8.579  1.0399 -2.4086 -1.3341
  925MOL0     H22083  11.160   6.863   8.607  2.8761  0.0007  1.6516
  925MOL0     H22084  10.740   6.818   8.382  2.1091 -0.0021  1.1061
  925MOL0     H22085  10.503   6.766   8.426 -2.1019 -1.0232  4.7218
  925MOL0     H22086   9.017   7.046   8.575 -0.4423 -2.1505  0.8311
  925MOL0     H22087   8.807   6.989   8.653 -3.3834  0.6652  1.4111
  925MOL0     H22088   8.311   7.040   8.631  1.0118  0.2945 -1.3587
  925MOL0     H22089   8.124   6.929   8.761  0.3855  0.9382  0.7014
  925MOL0     H22090   8.229   6.729   8.969  0.4215 -1.3114  2.8359
  925MOL0     H22091   8.173   6.569   8.969 -1.3985 -0.6822  1.0821
  925MOL0     H22092   7.950   6.650   9.037  1.7300 -1.1521 -3.4376
  925MOL0     H22093   8.046   6.733   9.149  0.6592  0.1625  0.0708
  925MOL0     H22094   7.924   6.836   8.894  4.0645  1.9193 -1.7789
  925MOL0     H22095   8.050   6.938   8.985 -0.1838  1.3584  3.3151
  925MOL0     H22096   7.836   7.020   9.016  2.1855 -0.1295 -1.8683
  925MOL0     H22097   7.765   6.861   9.054  0.3147 -2.6211  1.8882
  925MOL0     H22098   7.920   7.009   9.424 -2.5395 -1.5580  0.4745
  925MOL0     H22099   8.264   6.550   8.662 -3.2227  0.5778 -1.4353
  925MOL0     H22100   8.452   6.639   8.530 -0.6542 -0.5792 -2.2706
  926MOL0     O22101   0.133   2.323   3.278  0.1313 -0.1369  0.4312
  926MOL0     C22102   0.170   2.259   3.381 -0.1644 -0.1028  1.8668
  926MOL0     O22103   0.121   2.282   3.506 -0.2839  0.1786 -0.8423
  926MOL0     C22104   0.029   2.377   3.541 -0.0631 -0.1016  0.8945
  926MOL0     C22105  -0.079   2.416   3.456 -0.0966 -0.0515 -0.8568
  926MOL0     C22106  -0.171   2.517   3.494  0.5752 -0.6351  0.8511
  926MOL0     C22107  -0.164   2.562   3.624 -0.6250 -0.1109 -0.0229
  926MOL0     O22108  -0.256   2.649   3.673 -0.3159 -0.1973  0.3999
  926MOL0     C22109  -0.216   2.756   3.761  0.6770 -0.3666 -0.0511
  926MOL0     C22110  -0.304   2.868   3.717  0.4415  0.3176  0.1716
  926MOL0     C22111  -0.265   2.935   3.571  0.4684  0.6655 -0.8504
  926MOL0     C22112  -0.159   3.050   3.583 -1.1235 -0.4975 -0.6062
  926MOL0     C22113  -0.113   3.095   3.442 -0.1254  1.2431 -0.4910
  926MOL0     C22114   0.004   3.208   3.447  0.2338  0.2245  0.3348
  926MOL0     C22115   0.036   3.283   3.326 -0.1395  0.6391  0.4570
  926MOL0     C22116   0.119   3.200   3.232  0.3279 -0.3405 -0.2641
  926MOL0     N22117   0.152   3.275   3.109 -0.0921  0.3752  0.4581
  926MOL0     C22118   0.258   3.353   3.089  0.5885  0.2505 -0.9206
  926MOL0     C22119   0.239   3.405   2.964 -0.8599  1.7160  0.1560
  926MOL0     C22120   0.325   3.511   2.901 -0.0066 -0.3627 -0.3252
  926MOL0     C22121   0.294   3.519   2.748 -0.1481 -0.0825 -0.5785
  926MOL0     C22122   0.347   3.414   2.652  0.0448 -0.0472 -0.5118
  926MOL0     C22123   0.330   3.445   2.505 -0.7865 -1.2315  0.8014
  926MOL0     O22124   0.441   3.517   2.449  0.7474  0.0177  0.1417
  926MOL0     C22125   0.417   3.648   2.405  0.5859  1.0421  0.1270
  926MOL0     C22126   0.303   3.729   2.426 -1.3424  1.0964 -0.4993
  926MOL0     C22127   0.287   3.861   2.383 -0.3346 -0.1460 -0.0326
  926MOL0     C22128   0.389   3.912   2.306 -0.6491 -1.1164 -0.3772
  926MOL0     C22129   0.395   4.055   2.262 -0.2862  0.2080 -1.2044
  926MOL0     O22130   0.486   4.093   2.178 -0.2761 -0.2587  0.4177
  926MOL0     C22131   0.500   4.221   2.141  0.1756 -0.6290 -0.5400
  926MOL0     C22132   0.477   4.336   2.218  0.7506 -0.1878  0.0351
  926MOL0     C22133   0.495   4.471   2.165 -0.2590  0.2974 -0.2315
  926MOL0     C22134   0.542   4.486   2.029  0.2211 -0.4490  0.1911
  926MOL0     O22135   0.547   4.613   1.981  0.0240  0.1081  0.3552
  926MOL0     C22136   0.610   4.659   1.861  0.0974  0.3630  0.1704
  926MOL0     C22137   0.756   4.649   1.870 -0.2076  0.4782  0.8661
  926MOL0     C22138   0.845   4.734   1.777  0.4288 -0.6720 -0.0698
  926MOL0     C22139   0.890   4.642   1.662  0.8815 -0.5427 -0.0105
  926MOL0     C22140   0.991   4.709   1.561 -0.2713 -0.5270 -0.2663
  926MOL0     C22141   0.931   4.828   1.474  0.0287  0.8307  0.8335
  926MOL0     C22142   0.789   4.798   1.423  0.0044  2.2447  1.0236
  926MOL0     C22143   0.748   4.896   1.310 -0.4262  0.2532  0.5284
  926MOL0    Cl22144   0.612   4.825   1.207 -0.2322  0.2064 -0.0984
  926MOL0     C22145   0.571   4.372   1.960 -0.3812 -0.9732 -0.5431
  926MOL0     C22146   0.553   4.244   2.011  0.4064  0.4815 -0.8546
  926MOL0     O22147   0.300   4.127   2.299 -1.0073  0.0922 -0.5824
  926MOL0     C22148   0.496   3.827   2.268 -0.6277  1.4028 -0.4784
  926MOL0     C22149   0.514   3.694   2.312  0.5866 -0.3931  0.5597
  926MOL0     N22150   0.126   3.347   2.907 -0.7940  0.2337 -0.3372
  926MOL0     N22151   0.066   3.284   3.002  0.0455  0.7696 -0.0074
  926MOL0     C22152  -0.055   2.517   3.714  0.5839 -0.5543 -0.2305
  926MOL0     C22153   0.043   2.432   3.665 -0.5329 -0.0378 -0.0417
  926MOL0     C22154   0.275   2.160   3.366  0.4707  1.0057 -0.2448
  926MOL0     C22155   0.326   2.088   3.480 -0.8946  0.2265  0.3230
  926MOL0     C22156   0.433   1.998   3.461 -0.9325  0.3571 -0.3022
  926MOL0     C22157   0.486   1.958   3.328  0.1257  0.1251  1.0080
  926MOL0     O22158   0.586   1.867   3.293 -0.1746  0.2421 -0.0755
  926MOL0     C22159   0.666   1.819   3.403  0.0305 -0.4881  0.4277
  926MOL0     C22160   0.791   1.737   3.359  0.0055  0.0263  0.5183
  926MOL0     C22161   0.751   1.589   3.340 -0.4999  0.4577 -0.1215
  926MOL0     C22162   0.713   1.547   3.199  1.2309 -0.3848 -0.1065
  926MOL0     C22163   0.694   1.397   3.203 -0.3966  0.9988  0.8150
  926MOL0     C22164   0.691   1.274   3.213 -0.8482  0.1257 -0.4391
  926MOL0     C22165   0.443   2.040   3.224  0.3154  0.5445 -0.4285
  926MOL0     C22166   0.326   2.130   3.246 -0.3816 -0.2225 -0.7374
  926MOL0     H22167  -0.085   2.382   3.353 -0.4187  1.9888 -1.5483
  926MOL0     H22168  -0.249   2.556   3.430  0.5317 -1.9175  0.0976
  926MOL0     H22169  -0.114   2.793   3.754  1.4711 -0.9433  4.8242
  926MOL0     H22170  -0.242   2.737   3.865 -2.9691  1.9280 -0.3669
  926MOL0     H22171  -0.295   2.945   3.794  3.2505 -0.6563  0.9218
  926MOL0     H22172  -0.408   2.835   3.715  1.4447 -3.2514  0.7536
  926MOL0     H22173  -0.362   2.977   3.545 -0.4193  3.1959  4.8954
  926MOL0     H22174  -0.237   2.859   3.498  1.2302  1.0520 -0.9775
  926MOL0     H22175  -0.197   3.135   3.640 -0.2751 -0.7541  0.3768
  926MOL0     H22176  -0.081   3.004   3.644 -0.1193 -0.7922 -2.0479
  926MOL0     H22177  -0.201   3.133   3.388 -2.6551 -0.5454  2.0382
  926MOL0     H22178  -0.081   3.002   3.395 -1.7930 -0.4794  1.5676
  926MOL0     H22179   0.096   3.170   3.492 -0.6336 -0.1853  1.8263
  926MOL0     H22180  -0.034   3.289   3.510 -0.0963  1.9734 -1.9568
  926MOL0     H22181  -0.053   3.308   3.268  1.0783 -0.1807 -1.9101
  926MOL0     H22182   0.078   3.381   3.348 -0.9572  1.1226 -0.0546
  926MOL0     H22183   0.056   3.116   3.199  1.9843 -1.1258 -1.6038
  926MOL0     H22184   0.206   3.156   3.280 -0.0194  0.0402  0.7252
  926MOL0     H22185   0.348   3.350   3.149 -0.0729 -0.7265  0.0741
  926MOL0     H22186   0.428   3.475   2.914 -0.0470 -0.0274  0.9834
  926MOL0     H22187   0.304   3.607   2.948  1.4549  0.0125 -0.3840
  926MOL0     H22188   0.336   3.613   2.709  1.4282 -1.4038 -2.2242
  926MOL0     H22189   0.187   3.534   2.730 -0.1484 -1.6213 -2.0944
  926MOL0     H22190   0.454   3.391   2.662  0.3624  1.5760  0.3254
  926MOL0     H22191   0.290   3.328   2.688  1.3816 -0.1943  1.4473
  926MOL0     H22192   0.230   3.486   2.495 -0.4016 -0.3981  0.2337
  926MOL0     H22193   0.323   3.357   2.439  1.6083 -2.9664  2.6589
  926MOL0     H22194   0.223   3.700   2.493  0.3584 -0.2966  1.0555
  926MOL0     H22195   0.205   3.918   2.425 -0.7044  0.0389 -0.9937
  926MOL0     H22196   0.432   4.328   2.317 -2.9211  2.3133 -1.2437
  926MOL0     H22197   0.477   4.567   2.214  0.5669  1.5203 -2.2030
  926MOL0     H22198   0.592   4.767   1.856  0.6764  0.5149  1.1972
  926MOL0     H22199   0.563   4.605   1.778  2.0160  0.2304 -0.8957
  926MOL0     H22200   0.792   4.546   1.881  0.2904  0.7255  1.6745
  926MOL0     H22201   0.778   4.677   1.974  0.8044 -1.0173  1.0801
  926MOL0     H22202   0.937   4.762   1.828  1.5873 -0.1035 -2.3353
  926MOL0     H22203   0.788   4.821   1.741  2.2606  1.3309  1.6124
  926MOL0     H22204   0.936   4.552   1.705  1.3915 -0.6164 -0.6961
  926MOL0     H22205   0.805   4.614   1.599  1.6716  0.1579 -1.4399
  926MOL0     H22206   1.040   4.633   1.500  1.6591  0.6123 -0.2119
  926MOL0     H22207   1.065   4.763   1.620  0.3014 -2.3865  0.7989
  926MOL0     H22208   0.994   4.832   1.385  1.0181 -0.7820  1.4236
  926MOL0     H22209   0.936   4.925   1.525 -1.6442  2.5193 -1.9683
  926MOL0     H22210   0.791   4.694   1.390 -1.5451  2.3111  0.6162
  926MOL0     H22211   0.706   4.807   1.493 -1.3789 -2.0546  0.2373
  926MOL0     H22212   0.830   4.931   1.247 -1.0371  0.1345 -0.3561
  926MOL0     H22213   0.701   4.982   1.360 -1.4203  0.8095 -1.2594
  926MOL0     H22214   0.620   4.383   1.864  1.4064  0.2837  0.4548
  926MOL0     H22215   0.583   4.161   1.948  0.6473 -0.8192  0.8996
  926MOL0     H22216   0.580   3.864   2.210 -0.7560  0.8685 -1.0174
  926MOL0     H22217   0.598   3.636   2.275  0.6554  1.4777 -2.6150
  926MOL0     H22218  -0.048   2.539   3.820  0.0456 -2.0105  0.1392
  926MOL0     H22219   0.116   2.408   3.742 -0.7996  1.5536  0.7470
  926MOL0     H22220   0.292   2.107   3.581  1.6990 -1.9182  1.7101
  926MOL0     H22221   0.479   1.953   3.548 -0.6627  0.4157 -0.4133
  926MOL0     H22222   0.613   1.758   3.476  3.0227 -2.7627  0.8872
  926MOL0     H22223   0.702   1.911   3.451  2.7929  2.5087 -6.0090
  926MOL0     H22224   0.843   1.771   3.268  2.1658  0.5817  1.8983
  926MOL0     H22225   0.869   1.752   3.433  1.9304 -1.0339 -1.1941
  926MOL0     H22226   0.661   1.566   3.399 -0.2681  1.7073  0.7798
  926MOL0     H22227   0.826   1.518   3.375 -2.7982 -0.9837  2.3401
  926MOL0     H22228   0.617   1.594   3.177  2.6357  1.3292 -3.3298
  926MOL0     H22229   0.797   1.566   3.131  3.6814 -2.6209  2.0481
  926MOL0     H22230   0.685   1.169   3.235  2.2837 -0.2665 -1.0036
  926MOL0     H22231   0.488   2.030   3.126 -2.5237  0.2862 -1.8114
  926MOL0     H22232   0.282   2.183   3.162 -2.8038  2.1759  1.8120
  927MOL0     O22233   6.385   7.385   8.299  0.3099 -0.7328 -0.0960
  927MOL0     C22234   6.321   7.492   8.271  0.2310  0.9835  0.3017
  927MOL0     O22235   6.345   7.606   8.325 -0.1385 -0.3594 -0.1236
  927MOL0     C22236   6.406   7.615   8.451  0.2435 -0.5389  0.7391
  927MOL0     C22237   6.531   7.555   8.466 -0.1398  0.1009 -0.9350
  927MOL0     C22238   6.597   7.562   8.585  0.7937 -0.5354  0.4368
  927MOL0     C22239   6.537   7.626   8.702  0.2816  0.2452  0.8166
  927MOL0     O22240   6.591   7.627   8.834 -0.8082 -0.4616  0.7928
  927MOL0     C22241   6.647   7.505   8.886  0.0233  1.1505 -0.4527
  927MOL0     C22242   6.680   7.520   9.037  0.1868 -0.2027  0.2780
  927MOL0     C22243   6.724   7.392   9.086  0.0793  0.0596 -0.0829
  927MOL0     C22244   6.785   7.413   9.225 -0.3188 -0.6844 -0.6442
  927MOL0     C22245   6.853   7.288   9.264  0.1710 -0.0332 -0.0005
  927MOL0     C22246   6.865   7.270   9.410  0.3556 -0.8445 -0.3856
  927MOL0     C22247   6.907   7.124   9.453 -0.5531 -0.4723  0.1869
  927MOL0     C22248   6.882   7.110   9.598 -0.0226 -0.1061 -0.6705
  927MOL0     N22249   6.905   6.973   9.640  0.1709 -0.1374  0.1281
  927MOL0     C22250   7.020   6.915   9.692  0.1863  0.1119  0.1123
  927MOL0     C22251   7.002   6.784   9.703 -0.4478  0.1257  0.4900
  927MOL0     C22252   7.097   6.679   9.753 -0.0502 -0.2344  0.1104
  927MOL0     C22253   7.196   6.634   9.649 -0.7693  0.4048  0.6344
  927MOL0     C22254   7.276   6.512   9.686  0.3397 -0.3414 -0.3455
  927MOL0     C22255   7.361   6.526   9.819  0.5281  0.2822 -0.2287
  927MOL0     O22256   7.438   6.644   9.805 -0.0553 -0.0876 -0.1319
  927MOL0     C22257   7.481   6.707   9.919 -1.0962  0.1446  0.2499
  927MOL0     C22258   7.521   6.631  10.030 -0.7174 -0.9389 -0.0003
  927MOL0     C22259   7.575   6.700  10.140 -0.0981  0.2004 -0.4290
  927MOL0     C22260   7.601   6.831  10.141  0.0174 -0.8667 -0.0206
  927MOL0     C22261   7.660   6.889  10.264 -0.3415 -0.2395 -0.2296
  927MOL0     O22262   7.636   6.832  10.385  0.8942  0.4693 -0.7954
  927MOL0     C22263   7.681   6.901  10.501  0.3621  0.2113 -0.0232
  927MOL0     C22264   7.600   6.969  10.591  0.2898  1.0093  0.0508
  927MOL0     C22265   7.649   7.023  10.714  0.4272 -0.1877 -0.2418
  927MOL0     C22266   7.789   7.029  10.740 -0.5988  1.3511 -0.2696
  927MOL0     O22267   7.851   7.095  10.847 -0.9167  0.6102  0.2930
  927MOL0     C22268   7.783   7.173  10.951 -0.0261  0.6789  0.4753
  927MOL0     C22269   7.883   7.265  11.015 -0.1057 -0.2517  0.8469
  927MOL0     C22270   7.981   7.335  10.916 -0.3234  0.3476 -0.7330
  927MOL0     C22271   8.057   7.427  11.015  0.2732  0.1256 -0.0863
  927MOL0     C22272   8.186   7.488  10.960  0.9826  0.7022  0.2667
  927MOL0     C22273   8.229   7.618  11.036 -0.0431 -0.4729  0.1079
  927MOL0     C22274   8.290   7.601  11.184  0.7781  0.0351 -0.0518
  927MOL0     C22275   8.295   7.725  11.273 -0.3561 -1.1544 -0.5217
  927MOL0    Cl22276   8.370   7.871  11.188 -0.3962  0.0154  0.0322
  927MOL0     C22277   7.880   6.963  10.642 -0.0756 -1.0836 -0.3461
  927MOL0     C22278   7.823   6.899  10.529 -0.3697 -0.4493  0.2218
  927MOL0     O22279   7.737   6.984  10.243 -0.3831  0.5590  1.1130
  927MOL0     C22280   7.580   6.910  10.022 -0.4350  0.8404 -0.4311
  927MOL0     C22281   7.517   6.842   9.911 -0.1554 -0.4162 -0.9649
  927MOL0     N22282   6.880   6.758   9.640 -1.1858 -0.5561  0.5126
  927MOL0     N22283   6.819   6.870   9.623  0.4044  0.1232 -0.4534
  927MOL0     C22284   6.428   7.698   8.674 -0.3909 -0.2072 -0.2451
  927MOL0     C22285   6.361   7.697   8.552  0.1510 -0.1795 -0.1182
  927MOL0     C22286   6.204   7.484   8.177 -0.1724  0.0882 -0.3076
  927MOL0     C22287   6.105   7.585   8.165  0.2964  0.2015 -0.2659
  927MOL0     C22288   6.010   7.581   8.069 -0.7728  0.2806  0.7185
  927MOL0     C22289   6.003   7.476   7.977 -0.2392 -0.0870 -0.2904
  927MOL0     O22290   5.911   7.487   7.877 -0.6007 -0.3287  0.4971
  927MOL0     C22291   5.919   7.387   7.774 -0.1109  0.9718 -0.0763
  927MOL0     C22292   5.836   7.434   7.655  0.0870  0.2257 -0.6582
  927MOL0     C22293   5.914   7.538   7.582  0.3905 -0.8110  0.3192
  927MOL0     C22294   5.859   7.584   7.447 -0.3655  0.2391 -0.3790
  927MOL0     C22295   5.723   7.634   7.437 -0.2937  0.6164  0.4222
  927MOL0     C22296   5.613   7.669   7.425 -0.1871 -0.2421 -0.4431
  927MOL0     C22297   6.099   7.374   7.990  0.2722 -0.4023 -0.3133
  927MOL0     C22298   6.197   7.374   8.096  1.1551 -0.4251  0.2870
  927MOL0     H22299   6.589   7.508   8.387  2.7814 -0.0561  1.1038
  927MOL0     H22300   6.691   7.508   8.596 -0.0034 -1.7937  1.3853
  927MOL0     H22301   6.728   7.464   8.823 -2.8844 -4.4565 -1.1866
  927MOL0     H22302   6.578   7.422   8.870  0.2976  1.3633 -3.2712
  927MOL0     H22303   6.597   7.557   9.098  0.7923  0.4308  0.7362
  927MOL0     H22304   6.760   7.594   9.052  0.2942  0.4655 -2.8941
  927MOL0     H22305   6.811   7.354   9.032  0.9102 -0.0580  1.2989
  927MOL0     H22306   6.639   7.323   9.089 -0.9966  1.3463  0.0395
  927MOL0     H22307   6.858   7.494   9.232  1.1829 -2.1062  1.3221
  927MOL0     H22308   6.701   7.434   9.290 -0.6318 -1.1128 -0.9054
  927MOL0     H22309   6.956   7.271   9.229 -0.0054  1.2768 -1.2159
  927MOL0     H22310   6.791   7.208   9.223  0.0240  1.3881 -2.7771
  927MOL0     H22311   6.765   7.289   9.450  0.5721  3.1747 -1.3234
  927MOL0     H22312   6.934   7.341   9.456 -0.5831 -0.7090  0.8422
  927MOL0     H22313   6.841   7.054   9.401 -4.1088  2.4730  0.3049
  927MOL0     H22314   7.007   7.101   9.416 -1.6411 -2.3165 -1.8204
  927MOL0     H22315   6.778   7.126   9.626  0.8726  0.5098  2.7312
  927MOL0     H22316   6.955   7.178   9.643  2.0720 -0.2637 -3.4745
  927MOL0     H22317   7.106   6.973   9.725 -1.7024  2.2835  1.5728
  927MOL0     H22318   7.049   6.587   9.788 -0.7798 -0.1747 -0.7070
  927MOL0     H22319   7.161   6.724   9.830  1.8806 -0.9206 -1.0305
  927MOL0     H22320   7.258   6.719   9.618 -3.2881  1.9493 -0.5261
  927MOL0     H22321   7.133   6.608   9.564 -0.7018  0.4992  0.5556
  927MOL0     H22322   7.224   6.416   9.687  1.8008 -1.1790  1.8958
  927MOL0     H22323   7.347   6.501   9.603 -0.1457 -0.5143 -0.7438
  927MOL0     H22324   7.425   6.437   9.828 -1.9342 -2.0862 -3.6487
  927MOL0     H22325   7.294   6.539   9.904  0.6059  2.4621 -0.4345
  927MOL0     H22326   7.491   6.527  10.038 -4.0357 -0.1396 -0.7086
  927MOL0     H22327   7.619   6.645  10.223 -0.2797  2.2904  1.1428
  927MOL0     H22328   7.493   6.976  10.581  0.2702 -0.0884 -0.6094
  927MOL0     H22329   7.577   7.078  10.774  1.5241 -0.5692  1.5183
  927MOL0     H22330   7.739   7.111  11.029 -4.5234  4.1852  1.1371
  927MOL0     H22331   7.708   7.235  10.901  2.5146  1.6738 -2.4453
  927MOL0     H22332   7.945   7.225  11.096  1.3575 -1.6244 -0.8411
  927MOL0     H22333   7.821   7.343  11.060 -1.0534  1.5770 -3.1342
  927MOL0     H22334   7.922   7.394  10.845  0.2569  1.6427 -0.1659
  927MOL0     H22335   8.040   7.265  10.857 -0.9363 -0.8263  0.0017
  927MOL0     H22336   7.992   7.513  11.035  1.2224  1.7404 -3.2619
  927MOL0     H22337   8.077   7.375  11.109 -1.2531 -0.6236 -0.1461
  927MOL0     H22338   8.148   7.521  10.863 -0.8590 -0.2792  0.6006
  927MOL0     H22339   8.277   7.428  10.952 -1.3040 -2.7374 -3.4980
  927MOL0     H22340   8.136   7.676  11.036  0.4312  0.4126  2.8924
  927MOL0     H22341   8.311   7.663  10.978 -0.8274  1.3715  0.3461
  927MOL0     H22342   8.247   7.517  11.238  0.7711  1.0583  1.5902
  927MOL0     H22343   8.390   7.559  11.171 -0.0529 -1.6458 -1.4031
  927MOL0     H22344   8.351   7.696  11.362 -0.0641 -2.2001 -1.0215
  927MOL0     H22345   8.194   7.754  11.304 -0.5957  0.1676 -2.3858
  927MOL0     H22346   7.985   6.985  10.659 -1.3060  3.7458  3.0956
  927MOL0     H22347   7.886   6.851  10.455  2.3194  2.9907  0.0019
  927MOL0     H22348   7.611   7.014  10.020  1.9681  0.1874 -0.0175
  927MOL0     H22349   7.485   6.904   9.828  1.1371  0.7437 -0.6428
  927MOL0     H22350   6.378   7.754   8.753  1.0887  1.2957 -0.3225
  927MOL0     H22351   6.275   7.760   8.533  0.6347  0.5538  0.0958
  927MOL0     H22352   6.109   7.677   8.221 -0.6378  1.6357 -2.4260
  927MOL0     H22353   5.928   7.650   8.051 -0.7412  0.9201  2.7263
  927MOL0     H22354   5.880   7.298   7.823  1.1130  0.1429 -0.5500
  927MOL0     H22355   6.022   7.371   7.740  0.4292  0.7228  1.5975
  927MOL0     H22356   5.810   7.352   7.588  3.0127 -1.6313  0.3065
  927MOL0     H22357   5.745   7.484   7.689 -1.0378 -2.5266  0.6710
  927MOL0     H22358   6.012   7.491   7.567  0.5280 -0.3372 -0.3156
  927MOL0     H22359   5.915   7.628   7.644 -1.9261  0.1245 -0.8687
  927MOL0     H22360   5.918   7.665   7.405 -1.4630 -0.5183 -3.6537
  927MOL0     H22361   5.871   7.501   7.377 -1.7116 -0.0724 -0.2800
  927MOL0     H22362   5.510   7.697   7.428 -0.2392 -0.0737 -2.2720
  927MOL0     H22363   6.096   7.286   7.926  1.5211 -2.2899  2.0441
  927MOL0     H22364   6.265   7.291   8.110 -0.4873 -1.6488  1.3563
  928MOL0     O22365   1.643   6.244   6.736 -0.4317 -0.5877 -0.1555
  928MOL0     C22366   1.540   6.283   6.683  0.5182  0.4657  0.1504
  928MOL0     O22367   1.529   6.393   6.598  0.2108 -0.2384  0.4073
  928MOL0     C22368   1.644   6.449   6.541  1.0617  0.3684  0.0407
  928MOL0     C22369   1.737   6.367   6.478  0.7108  0.3556 -0.3307
  928MOL0     C22370   1.843   6.425   6.411 -0.1540 -0.0457  1.4526
  928MOL0     C22371   1.875   6.565   6.434 -0.7656  0.5667  0.5452
  928MOL0     O22372   1.988   6.623   6.371 -0.3168 -0.5136 -0.2757
  928MOL0     C22373   2.064   6.538   6.286 -0.1610  0.0284  0.1856
  928MOL0     C22374   2.193   6.612   6.257  0.2728 -0.8006 -0.8322
  928MOL0     C22375   2.234   6.589   6.104  0.0198  0.4475  0.7132
  928MOL0     C22376   2.361   6.667   6.075  0.3833 -0.3865  0.7468
  928MOL0     C22377   2.401   6.655   5.920  0.5434  0.2500  0.7079
  928MOL0     C22378   2.479   6.775   5.873 -0.2956  0.2998  0.8156
  928MOL0     C22379   2.635   6.784   5.886  1.0154 -0.8830  0.0819
  928MOL0     C22380   2.734   6.692   5.810 -0.2584  0.1153  0.6382
  928MOL0     N22381   2.867   6.741   5.841 -0.4429  0.5579 -0.2987
  928MOL0     C22382   2.943   6.694   5.950 -1.0734  0.2843  0.1352
  928MOL0     C22383   3.050   6.766   5.946  0.4816  0.5249 -0.1906
  928MOL0     C22384   3.162   6.758   6.053  1.4361 -0.5226 -0.5706
  928MOL0     C22385   3.288   6.674   6.019  1.0782  1.5426  0.5409
  928MOL0     C22386   3.247   6.540   5.957  0.6738  0.7291 -1.1137
  928MOL0     C22387   3.354   6.464   5.888 -1.3642  0.7381  0.4401
  928MOL0     O22388   3.483   6.474   5.957 -0.9960  0.1781 -0.3568
  928MOL0     C22389   3.524   6.410   6.069 -0.3450  0.8167 -0.3821
  928MOL0     C22390   3.449   6.334   6.150 -0.3844  0.0585  0.1735
  928MOL0     C22391   3.494   6.263   6.267  0.0726 -0.1722  0.9125
  928MOL0     C22392   3.626   6.271   6.301 -0.5266 -0.1335  0.7652
  928MOL0     C22393   3.701   6.186   6.409  0.3156 -0.2116  0.5896
  928MOL0     O22394   3.624   6.135   6.510  0.1990 -0.2912 -0.4542
  928MOL0     C22395   3.687   6.079   6.615 -0.5928 -0.7008  0.5037
  928MOL0     C22396   3.696   5.935   6.615  0.1247  0.0848 -0.5848
  928MOL0     C22397   3.740   5.870   6.730  0.2438  1.3069 -0.2545
  928MOL0     C22398   3.802   5.947   6.826 -0.1810  0.0892  0.1626
  928MOL0     O22399   3.856   5.873   6.933  0.1046 -1.0772  0.3429
  928MOL0     C22400   3.866   5.938   7.058  0.7084 -0.0048 -0.6524
  928MOL0     C22401   3.803   5.842   7.171  1.0369 -0.1304 -0.1438
  928MOL0     C22402   3.879   5.712   7.189 -0.0714  0.1900 -0.4639
  928MOL0     C22403   3.868   5.598   7.092 -0.1663 -0.7489  0.6709
  928MOL0     C22404   3.933   5.472   7.156  0.3493 -0.0193  0.8142
  928MOL0     C22405   3.911   5.347   7.070 -0.4588  0.1247 -0.2721
  928MOL0     C22406   4.039   5.250   7.062  1.3270 -1.0692 -0.3415
  928MOL0     C22407   4.005   5.142   6.955 -0.6190 -0.3716  0.2920
  928MOL0    Cl22408   3.897   5.024   6.999  0.7691  0.4188 -0.1188
  928MOL0     C22409   3.803   6.087   6.821  0.2515  0.5260 -0.3356
  928MOL0     C22410   3.745   6.152   6.714 -0.4340 -1.1282 -0.8195
  928MOL0     O22411   3.829   6.191   6.407  0.0613 -0.0238  0.0006
  928MOL0     C22412   3.704   6.353   6.223  0.8924  0.8723 -0.4208
  928MOL0     C22413   3.650   6.422   6.109 -0.1052 -0.3659  1.1811
  928MOL0     N22414   3.041   6.865   5.851  0.4700  0.7849 -0.7939
  928MOL0     N22415   2.933   6.846   5.787 -0.0622  0.6579 -0.7790
  928MOL0     C22416   1.782   6.646   6.504 -0.7117 -0.4918 -0.9346
  928MOL0     C22417   1.667   6.586   6.553  0.3002  1.0219 -0.1866
  928MOL0     C22418   1.412   6.206   6.700 -0.7721 -0.0561  0.0802
  928MOL0     C22419   1.290   6.266   6.671 -0.7847 -0.8685  0.7957
  928MOL0     C22420   1.162   6.215   6.692 -0.4594  0.9194 -0.0296
  928MOL0     C22421   1.155   6.095   6.767  0.6700 -0.2113  0.2103
  928MOL0     O22422   1.035   6.035   6.795  0.1744  0.5624 -0.0221
  928MOL0     C22423   0.915   6.116   6.778 -0.5903  1.4565  0.4295
  928MOL0     C22424   0.807   6.031   6.843  1.0637 -0.3836 -0.4678
  928MOL0     C22425   0.676   6.110   6.838  0.1441 -0.1213  0.1143
  928MOL0     C22426   0.572   6.036   6.928 -0.4027 -0.8954 -0.5695
  928MOL0     C22427   0.444   6.011   6.865 -0.2129  0.4452  0.0671
  928MOL0     C22428   0.342   5.981   6.807  0.1137 -0.5933  0.2441
  928MOL0     C22429   1.274   6.030   6.803  0.2352 -0.4466  0.2204
  928MOL0     C22430   1.401   6.090   6.771 -0.1017  0.1759 -0.1530
  928MOL0     H22431   1.719   6.260   6.478  1.6575  0.1824  0.0473
  928MOL0     H22432   1.903   6.363   6.345  1.4358  0.6191  2.2129
  928MOL0     H22433   2.008   6.514   6.196 -2.1651 -0.3222  1.4626
  928MOL0     H22434   2.092   6.447   6.340 -0.5247 -0.0358  0.2686
  928MOL0     H22435   2.263   6.573   6.332 -0.7426  0.0253  0.5959
  928MOL0     H22436   2.171   6.717   6.274  1.8670 -0.5616 -0.0845
  928MOL0     H22437   2.148   6.614   6.042  0.5209 -1.3993 -0.8080
  928MOL0     H22438   2.256   6.482   6.104  1.7329  0.6172 -3.3173
  928MOL0     H22439   2.362   6.773   6.106 -0.7446 -0.1069 -0.1052
  928MOL0     H22440   2.435   6.613   6.135 -1.3420 -1.6805  1.8067
  928MOL0     H22441   2.305   6.646   5.868  0.9284 -2.2273  0.2993
  928MOL0     H22442   2.452   6.562   5.895 -0.8600  0.4338 -3.6729
  928MOL0     H22443   2.436   6.864   5.919 -1.2935 -0.5013  1.4880
  928MOL0     H22444   2.462   6.793   5.766 -1.1887  1.0806  1.0786
  928MOL0     H22445   2.667   6.887   5.868 -3.2761  0.9874  1.8577
  928MOL0     H22446   2.657   6.771   5.992  2.3015 -1.2740 -0.2194
  928MOL0     H22447   2.725   6.711   5.703 -1.5116 -3.2464  0.0451
  928MOL0     H22448   2.706   6.588   5.826  3.5184 -1.2304 -0.4605
  928MOL0     H22449   2.921   6.630   6.036  2.1880 -0.8309  0.2635
  928MOL0     H22450   3.115   6.716   6.143  0.9220  0.3646 -0.4067
  928MOL0     H22451   3.198   6.854   6.091 -0.7532 -0.0249  0.4396
  928MOL0     H22452   3.345   6.655   6.110  0.7888  1.0305  0.6210
  928MOL0     H22453   3.353   6.731   5.952  2.7108 -2.0263 -1.1743
  928MOL0     H22454   3.214   6.477   6.040 -0.2878 -0.0691 -2.0669
  928MOL0     H22455   3.164   6.549   5.886  1.2748  4.9379 -1.5075
  928MOL0     H22456   3.369   6.514   5.791  0.2998  0.3613  0.4632
  928MOL0     H22457   3.319   6.362   5.872 -1.1559  1.0733 -3.0960
  928MOL0     H22458   3.343   6.330   6.126 -0.8627 -1.9550  2.1919
  928MOL0     H22459   3.430   6.190   6.316 -2.0081  1.7203  1.1470
  928MOL0     H22460   3.655   5.866   6.542 -0.7869 -1.6974  1.5039
  928MOL0     H22461   3.748   5.761   6.729 -3.8029  0.8592 -1.1518
  928MOL0     H22462   3.815   6.034   7.068  1.3505  0.7230 -3.4431
  928MOL0     H22463   3.972   5.959   7.078  1.2206 -1.8561 -1.2476
  928MOL0     H22464   3.700   5.825   7.138  0.4239  0.9816  1.1293
  928MOL0     H22465   3.789   5.903   7.260 -3.5359 -1.2517  0.1576
  928MOL0     H22466   3.862   5.676   7.291 -0.3677  2.3319  0.2936
  928MOL0     H22467   3.984   5.741   7.178 -0.5251  2.4783  0.5581
  928MOL0     H22468   3.761   5.585   7.074 -0.6463  1.9149  1.2153
  928MOL0     H22469   3.915   5.626   6.998 -3.1903 -1.0904 -1.0696
  928MOL0     H22470   3.887   5.456   7.254  1.0937 -1.0243  1.0127
  928MOL0     H22471   4.040   5.491   7.169 -0.2116  3.3102  1.5896
  928MOL0     H22472   3.896   5.391   6.971 -2.1564  0.6300  0.1802
  928MOL0     H22473   3.821   5.289   7.096 -1.3683  0.3760 -2.5829
  928MOL0     H22474   4.124   5.315   7.041  1.6641  0.0289  3.6919
  928MOL0     H22475   4.052   5.206   7.161 -3.5881  3.9011  3.1523
  928MOL0     H22476   4.091   5.085   6.921 -1.6884 -1.7382 -0.2347
  928MOL0     H22477   3.949   5.193   6.875 -1.5887 -2.2722 -0.3200
  928MOL0     H22478   3.851   6.146   6.899  0.7962 -0.8541  0.3924
  928MOL0     H22479   3.761   6.259   6.706 -1.4496 -0.8652  0.2604
  928MOL0     H22480   3.806   6.356   6.260  0.6609 -1.8126  0.6176
  928MOL0     H22481   3.714   6.491   6.056 -1.1538 -1.1818 -1.2658
  928MOL0     H22482   1.802   6.751   6.520 -0.5309 -0.4674 -1.3004
  928MOL0     H22483   1.594   6.641   6.612 -1.3647 -2.6943  1.5819
  928MOL0     H22484   1.292   6.355   6.610  0.5199 -1.3066  0.1732
  928MOL0     H22485   1.072   6.267   6.662 -1.0934  1.9551  3.3111
  928MOL0     H22486   0.901   6.145   6.674  1.8810  0.2607 -0.3023
  928MOL0     H22487   0.923   6.208   6.836 -2.7758  2.1549 -0.2559
  928MOL0     H22488   0.808   5.933   6.793  2.5026 -0.5034 -0.2625
  928MOL0     H22489   0.839   6.026   6.947  0.3848  3.6151  0.0585
  928MOL0     H22490   0.657   6.124   6.731  1.6375  0.8940 -0.0577
  928MOL0     H22491   0.685   6.213   6.873 -0.6563  0.0341 -0.1298
  928MOL0     H22492   0.614   5.943   6.969 -0.1853 -0.2835  0.6285
  928MOL0     H22493   0.556   6.085   7.024 -0.7219 -2.4216  0.2012
  928MOL0     H22494   0.259   5.961   6.743  3.1955  0.3327 -4.5479
  928MOL0     H22495   1.248   5.931   6.840 -1.9941 -0.4371 -1.1081
  928MOL0     H22496   1.492   6.044   6.808 -0.3462 -0.5607 -0.4630
  929MOL0     O22497   0.088  10.415   2.907  0.0102  0.1263 -0.7090
  929MOL0     C22498   0.115  10.298   2.896 -1.4726 -0.0461  0.8522
  929MOL0     O22499   0.145  10.241   2.777  0.4710 -0.0260  0.3800
  929MOL0     C22500   0.162  10.302   2.662  0.3596 -0.8976  1.0203
  929MOL0     C22501   0.219  10.429   2.654  0.2597  1.5348 -0.2211
  929MOL0     C22502   0.251  10.475   2.526  0.4691 -0.2304 -0.1839
  929MOL0     C22503   0.224  10.400   2.409  0.0343 -0.1466  0.2726
  929MOL0     O22504   0.256  10.460   2.288  0.6993 -0.4796 -0.5986
  929MOL0     C22505   0.281  10.604   2.278 -0.5308 -0.5209 -0.9574
  929MOL0     C22506   0.279  10.650   2.129  0.9161 -0.7601 -0.8097
  929MOL0     C22507   0.408  10.616   2.050  0.2982  0.1909  0.0527
  929MOL0     C22508   0.381  10.647   1.905  0.0870 -0.0437  0.3907
  929MOL0     C22509   0.512  10.611   1.827 -0.6890  1.1294 -0.3288
  929MOL0     C22510   0.497  10.662   1.684 -0.6525 -0.3114  0.7945
  929MOL0     C22511   0.622  10.618   1.597 -0.3066 -0.6961  0.2637
  929MOL0     C22512   0.618  10.676   1.453 -0.8834  0.2089 -0.9076
  929MOL0     N22513   0.628  10.822   1.457 -0.0852  0.0659 -0.0651
  929MOL0     C22514   0.742  10.908   1.467 -0.8158 -0.8480  0.0464
  929MOL0     C22515   0.703  11.032   1.478 -0.5947 -1.3614 -0.1818
  929MOL0     C22516   0.801  11.153   1.475  0.0275  0.0605 -0.4207
  929MOL0     C22517   0.917  11.133   1.364  0.0212 -0.4417  0.5818
  929MOL0     C22518   0.974  11.273   1.318  0.9085 -0.4061  0.6225
  929MOL0     C22519   1.094  11.265   1.223  1.2878 -1.0962 -0.5122
  929MOL0     O22520   1.127  11.387   1.161 -0.3425 -0.0355  0.2746
  929MOL0     C22521   1.035  11.456   1.083 -0.9875 -0.0125 -0.3455
  929MOL0     C22522   0.943  11.388   1.009  0.4763  0.3410  0.3820
  929MOL0     C22523   0.830  11.465   0.960 -0.0054 -0.5453 -0.4686
  929MOL0     C22524   0.832  11.606   0.966 -0.2279 -0.0488 -1.0136
  929MOL0     C22525   0.722  11.686   0.922  0.1954 -0.5825  0.2772
  929MOL0     O22526   0.757  11.817   0.888  0.3348 -0.5147 -0.2644
  929MOL0     C22527   0.652  11.911   0.870 -0.6378  0.7285  0.5473
  929MOL0     C22528   0.516  11.904   0.913  0.5872  0.8423  0.6495
  929MOL0     C22529   0.428  12.019   0.894  0.0654 -0.4767 -0.1747
  929MOL0     C22530   0.485  12.140   0.842 -0.2131 -0.5311 -0.2708
  929MOL0     O22531   0.407  12.249   0.847  0.3345  0.3809 -0.1570
  929MOL0     C22532   0.446  12.375   0.792  0.0507 -0.4900  0.4547
  929MOL0     C22533   0.338  12.483   0.793  0.5921 -0.1495  0.8376
  929MOL0     C22534   0.206  12.441   0.737  0.0842 -1.3039  0.7403
  929MOL0     C22535   0.121  12.365   0.839 -0.3378  0.3486  0.5124
  929MOL0     C22536   0.073  12.435   0.960  0.1354  0.9715  0.4610
  929MOL0     C22537  -0.036  12.357   1.045 -0.4605 -0.3264  0.4127
  929MOL0     C22538  -0.075  12.446   1.167  0.5832 -0.1453  0.1707
  929MOL0     C22539  -0.154  12.363   1.272  0.6135 -0.2225 -0.2111
  929MOL0    Cl22540  -0.217  12.489   1.383 -0.7090  0.5829  0.1522
  929MOL0     C22541   0.617  12.147   0.797  0.3463  0.4224  0.1071
  929MOL0     C22542   0.702  12.031   0.812 -0.0472  0.0741 -1.6437
  929MOL0     O22543   0.613  11.630   0.917  0.7007 -0.6260  0.3929
  929MOL0     C22544   0.945  11.671   1.026  0.6886  0.5243  0.1817
  929MOL0     C22545   1.043  11.594   1.084 -0.2043  0.5991 -0.2000
  929MOL0     N22546   0.572  11.029   1.459  0.4850  0.2095 -0.4642
  929MOL0     N22547   0.530  10.907   1.435 -0.0792 -0.5656 -0.3316
  929MOL0     C22548   0.172  10.274   2.423  0.2667  0.2824  0.1622
  929MOL0     C22549   0.145  10.228   2.541 -0.8299  0.6637 -0.2271
  929MOL0     C22550   0.118  10.197   3.013 -0.2490  0.6432 -0.4554
  929MOL0     C22551   0.061  10.229   3.142 -0.6834 -0.4737  0.2548
  929MOL0     C22552   0.065  10.146   3.251 -0.2921 -0.5857 -0.4710
  929MOL0     C22553   0.127  10.019   3.237  0.0644 -0.4576 -0.5039
  929MOL0     O22554   0.121   9.921   3.338  0.3707  0.1627 -0.4836
  929MOL0     C22555  -0.007   9.898   3.388  0.5444 -0.2036 -0.8610
  929MOL0     C22556  -0.123   9.850   3.289  0.5793  0.1923 -0.1290
  929MOL0     C22557  -0.083   9.716   3.228  0.0463  0.2192  0.2647
  929MOL0     C22558  -0.178   9.669   3.113  0.2855  0.2494 -1.0146
  929MOL0     C22559  -0.301   9.616   3.159  0.1443  0.0737  0.7590
  929MOL0     C22560  -0.410   9.574   3.191  1.2104 -0.8349  0.1473
  929MOL0     C22561   0.185   9.990   3.123  0.7398 -0.0126  0.1194
  929MOL0     C22562   0.183  10.067   3.005  1.0999 -0.3021  0.1498
  929MOL0     H22563   0.227  10.489   2.743 -1.1836 -2.0563  2.6007
  929MOL0     H22564   0.295  10.574   2.525  0.9594 -0.4048  1.2837
  929MOL0     H22565   0.381  10.624   2.316 -0.5977 -1.9695  0.0444
  929MOL0     H22566   0.202  10.653   2.336 -0.8136 -2.5714  0.5310
  929MOL0     H22567   0.274  10.759   2.121 -0.3310 -0.9333 -3.2431
  929MOL0     H22568   0.192  10.607   2.079 -0.7595  2.2100 -0.6695
  929MOL0     H22569   0.439  10.513   2.068  2.3654  0.3431 -2.1165
  929MOL0     H22570   0.487  10.679   2.092  1.2351 -0.9921  0.1339
  929MOL0     H22571   0.292  10.602   1.861 -2.0789  3.1833  1.0948
  929MOL0     H22572   0.367  10.756   1.905  0.7373  0.0523  0.9283
  929MOL0     H22573   0.517  10.504   1.807 -1.0077  1.4533 -2.3734
  929MOL0     H22574   0.598  10.655   1.878  1.1088 -1.9298 -0.4877
  929MOL0     H22575   0.493  10.771   1.683 -0.0457 -0.2908 -0.2308
  929MOL0     H22576   0.401  10.633   1.639  1.7812 -2.5499 -3.5952
  929MOL0     H22577   0.719  10.653   1.634 -0.8916  2.4250 -0.9017
  929MOL0     H22578   0.615  10.510   1.582 -1.1226 -0.4558 -1.1889
  929MOL0     H22579   0.518  10.649   1.417 -1.1780 -2.5431  1.5523
  929MOL0     H22580   0.700  10.636   1.393  3.3351  2.6548  2.6386
  929MOL0     H22581   0.847  10.886   1.486 -1.1379 -0.7398  2.2335
  929MOL0     H22582   0.862  11.170   1.564  1.2461  1.2719 -1.4592
  929MOL0     H22583   0.741  11.243   1.460 -1.9073 -0.9846  0.6968
  929MOL0     H22584   0.892  11.064   1.284 -0.4195 -0.8404  1.0576
  929MOL0     H22585   0.995  11.080   1.420 -0.9808 -1.0840  1.4129
  929MOL0     H22586   0.890  11.330   1.278 -2.4490 -2.9778  3.3098
  929MOL0     H22587   1.000  11.332   1.406  1.8349  1.6434 -0.9394
  929MOL0     H22588   1.070  11.194   1.142  2.6110  0.8800 -2.7803
  929MOL0     H22589   1.173  11.220   1.283  0.1833 -1.9702  0.3349
  929MOL0     H22590   0.936  11.281   0.991  1.6472  0.5982 -1.8482
  929MOL0     H22591   0.755  11.407   0.908 -0.4916 -2.8068  2.4980
  929MOL0     H22592   0.473  11.810   0.946 -0.5974  0.5073 -1.6497
  929MOL0     H22593   0.322  12.013   0.913 -0.3956 -2.0139 -2.6684
  929MOL0     H22594   0.492  12.359   0.694 -0.8053  0.7640 -0.1812
  929MOL0     H22595   0.524  12.416   0.856 -0.5720  0.9270  0.3454
  929MOL0     H22596   0.367  12.574   0.739 -1.4733  0.4632  0.6994
  929MOL0     H22597   0.314  12.504   0.898  0.3687  0.1313  0.7304
  929MOL0     H22598   0.229  12.387   0.645 -0.8368 -0.1867 -0.1791
  929MOL0     H22599   0.153  12.531   0.703 -0.5363 -2.0360 -0.2670
  929MOL0     H22600   0.038  12.332   0.775 -2.0116 -0.3903  2.9170
  929MOL0     H22601   0.176  12.275   0.868  0.1348 -0.1581 -1.7305
  929MOL0     H22602   0.011  12.516   0.921 -0.1328 -1.1034 -4.1204
  929MOL0     H22603   0.156  12.459   1.027 -1.2155  0.7281  2.2915
  929MOL0     H22604   0.013  12.269   1.087 -1.3105 -0.4214  1.2489
  929MOL0     H22605  -0.129  12.318   1.001 -1.1401 -1.1285  2.4570
  929MOL0     H22606   0.012  12.479   1.225 -1.2633  1.7720  2.0214
  929MOL0     H22607  -0.134  12.529   1.126  1.6520  1.2152  1.2898
  929MOL0     H22608  -0.088  12.291   1.322 -2.0514 -2.2909  0.5749
  929MOL0     H22609  -0.238  12.314   1.223 -0.2567  2.0646 -1.0953
  929MOL0     H22610   0.674  12.226   0.749  2.6047 -0.1814  1.6284
  929MOL0     H22611   0.804  12.030   0.774  0.7705  0.4776  0.4076
  929MOL0     H22612   0.959  11.777   1.043  0.4091  0.3354  1.7198
  929MOL0     H22613   1.129  11.645   1.128  0.2668  0.9687 -1.5047
  929MOL0     H22614   0.147  10.209   2.340  1.7453 -0.4735  0.2836
  929MOL0     H22615   0.104  10.127   2.548 -2.9390  1.3368 -1.7220
  929MOL0     H22616   0.024  10.331   3.146  0.4372  0.3452 -4.1567
  929MOL0     H22617   0.036  10.172   3.352  1.4718  0.4309 -0.1806
  929MOL0     H22618  -0.043   9.987   3.440  2.3700 -1.6729  3.3382
  929MOL0     H22619   0.012   9.828   3.470 -4.0810  0.6242  1.2743
  929MOL0     H22620  -0.220   9.833   3.338 -1.2848  1.6694 -2.9724
  929MOL0     H22621  -0.130   9.920   3.204 -1.4754 -2.0102 -1.9214
  929MOL0     H22622  -0.072   9.637   3.304 -0.6616  2.7884  3.2645
  929MOL0     H22623   0.017   9.738   3.189  0.3876  0.8385  1.4207
  929MOL0     H22624  -0.195   9.754   3.047  1.7900  0.7850 -0.7588
  929MOL0     H22625  -0.132   9.589   3.053  0.1880 -0.3141 -0.3530
  929MOL0     H22626  -0.510   9.546   3.216 -0.1658  1.4946 -2.3103
  929MOL0     H22627   0.233   9.894   3.110 -0.8974 -0.8672  0.1094
  929MOL0     H22628   0.248  10.044   2.921  2.5261 -4.1693  2.0465
  930MOL0     O22629   9.548   4.688   2.123 -0.0307  0.1445  0.0556
  930MOL0     C22630   9.537   4.654   2.005 -0.4731 -0.5085 -0.6918
  930MOL0     O22631   9.641   4.645   1.916  0.4250 -0.1863  0.0452
  930MOL0     C22632   9.765   4.681   1.945 -0.5583  1.2196 -0.4047
  930MOL0     C22633   9.848   4.583   1.999 -0.3533 -0.1597  0.4192
  930MOL0     C22634   9.979   4.626   2.037  0.0493 -0.1168  0.3497
  930MOL0     C22635  10.022   4.758   2.030  1.4302  0.4513 -0.9108
  930MOL0     O22636  10.136   4.797   2.095  1.0460  0.4643 -1.1460
  930MOL0     C22637  10.209   4.918   2.054  0.6978 -0.3566  0.5758
  930MOL0     C22638  10.341   4.906   2.131 -0.6603 -0.3017 -0.1723
  930MOL0     C22639  10.464   4.872   2.039  1.5850 -0.2058 -0.8083
  930MOL0     C22640  10.590   4.861   2.127 -0.7461 -0.5069 -0.6963
  930MOL0     C22641  10.684   4.986   2.148 -1.0152 -0.0575  0.0355
  930MOL0     C22642  10.812   4.940   2.211  0.0214  0.0988 -0.4114
  930MOL0     C22643  10.804   4.921   2.364  0.5615  0.0945  0.4452
  930MOL0     C22644  10.907   4.831   2.432 -0.9739 -0.3243 -0.6378
  930MOL0     N22645  11.052   4.880   2.400  0.0706 -0.8897 -0.2802
  930MOL0     C22646  11.125   4.862   2.280  0.0659 -0.3786 -0.4847
  930MOL0     C22647  11.251   4.906   2.303  1.4575 -0.7756 -0.8507
  930MOL0     C22648  11.366   4.900   2.218 -0.0500 -0.0326 -0.2172
  930MOL0     C22649  11.496   4.881   2.300  0.0833  0.9071  0.2111
  930MOL0     C22650  11.581   4.768   2.245 -0.5494  0.5343  0.8226
  930MOL0     C22651  11.721   4.774   2.292  0.4446 -0.5961  0.4797
  930MOL0     O22652  11.729   4.727   2.431 -0.3802  0.5830 -0.1558
  930MOL0     C22653  11.819   4.799   2.508 -0.2133  0.0037  0.1667
  930MOL0     C22654  11.779   4.927   2.546 -0.4661 -0.3891  0.4846
  930MOL0     C22655  11.859   4.999   2.639  1.0992  0.5242  0.6122
  930MOL0     C22656  11.979   4.942   2.683 -0.1794  0.2832  0.3866
  930MOL0     C22657  12.061   5.011   2.784 -0.4124  0.1678  0.1709
  930MOL0     O22658  12.192   5.030   2.745  0.2840  0.4747  0.0152
  930MOL0     C22659  12.291   5.075   2.830  0.1162 -0.2551 -0.6028
  930MOL0     C22660  12.424   5.028   2.807  0.8552 -0.2111 -0.4102
  930MOL0     C22661  12.525   5.051   2.903 -0.2645  1.2163  0.3240
  930MOL0     C22662  12.512   5.120   3.021 -0.8973  0.0923  0.3414
  930MOL0     O22663  12.624   5.134   3.103 -0.3612  0.0786  0.3045
  930MOL0     C22664  12.656   5.259   3.170  0.1423  0.4480  0.6838
  930MOL0     C22665  12.710   5.372   3.073 -0.1250 -0.7174  0.5818
  930MOL0     C22666  12.786   5.479   3.164  0.9419  1.4242 -0.6118
  930MOL0     C22667  12.839   5.598   3.082 -0.5441 -0.5650 -0.6994
  930MOL0     C22668  12.911   5.696   3.183  1.1482  0.4889 -0.5227
  930MOL0     C22669  12.981   5.807   3.099  1.1296 -0.0971 -0.1488
  930MOL0     C22670  12.899   5.898   3.001 -0.2484  0.7129 -1.2783
  930MOL0     C22671  12.990   5.967   2.903  0.1282  0.0425 -0.4413
  930MOL0    Cl22672  13.078   6.100   2.970  0.3231  0.4248  0.1110
  930MOL0     C22673  12.387   5.174   3.042 -0.1360  0.0310  0.0681
  930MOL0     C22674  12.276   5.146   2.949  0.3041  0.8825  0.6437
  930MOL0     O22675  12.010   5.041   2.886 -0.5117  0.4693 -0.0389
  930MOL0     C22676  12.030   4.825   2.620  0.4246  0.4143 -0.5857
  930MOL0     C22677  11.948   4.747   2.541  0.0921  0.0290  1.0396
  930MOL0     N22678  11.255   4.968   2.430  0.8145  0.3749  0.9061
  930MOL0     N22679  11.135   4.948   2.481 -0.2257 -1.1660  0.1267
  930MOL0     C22680   9.936   4.851   1.965 -1.1442  0.1042 -1.0812
  930MOL0     C22681   9.816   4.808   1.920  0.0267  0.1718  0.1761
  930MOL0     C22682   9.394   4.649   1.956 -0.3207 -0.7476 -0.7644
  930MOL0     C22683   9.286   4.633   2.035 -0.3806 -0.7853  0.1582
  930MOL0     C22684   9.161   4.646   1.978 -0.0196 -0.1204 -0.0081
  930MOL0     C22685   9.146   4.675   1.838 -0.3749  0.8289  0.7479
  930MOL0     O22686   9.034   4.678   1.772 -0.5055 -0.8138  0.2211
  930MOL0     C22687   8.940   4.771   1.826  1.5916  0.4464  0.1408
  930MOL0     C22688   8.821   4.772   1.734 -0.3962  0.5229  0.3240
  930MOL0     C22689   8.705   4.850   1.801  0.5011 -0.5983 -0.6970
  930MOL0     C22690   8.596   4.900   1.708  1.0494 -0.0278  0.9391
  930MOL0     C22691   8.476   4.956   1.773  1.0698  0.0595  0.3544
  930MOL0     C22692   8.378   4.997   1.835 -1.5268  0.3375  0.5242
  930MOL0     C22693   9.259   4.695   1.761 -0.6935 -0.2475  0.5361
  930MOL0     C22694   9.380   4.681   1.817 -0.2891 -0.1781  0.4967
  930MOL0     H22695   9.813   4.481   2.006 -3.2584  0.5727 -1.6601
  930MOL0     H22696  10.053   4.553   2.069 -0.3634 -1.6324 -1.9366
  930MOL0     H22697  10.149   5.002   2.089  1.0975  0.9447 -1.6453
  930MOL0     H22698  10.222   4.931   1.946 -2.0980 -1.7209 -0.0054
  930MOL0     H22699  10.325   4.826   2.204 -1.0986  0.1635  0.2501
  930MOL0     H22700  10.359   4.993   2.196  1.4090 -0.9343  0.1743
  930MOL0     H22701  10.477   4.951   1.965  3.0031  1.0150  0.6828
  930MOL0     H22702  10.437   4.774   1.998  0.8973 -0.7147  0.7472
  930MOL0     H22703  10.552   4.841   2.228  1.9186  1.7267  0.9093
  930MOL0     H22704  10.644   4.777   2.082 -0.3124  1.6832 -4.7374
  930MOL0     H22705  10.645   5.068   2.210  1.2702 -1.3080  3.4289
  930MOL0     H22706  10.721   5.029   2.054 -2.6890  0.9483 -0.2077
  930MOL0     H22707  10.881   5.023   2.193 -1.9965  1.4109 -2.6896
  930MOL0     H22708  10.840   4.847   2.162 -1.4880 -0.8090  0.3666
  930MOL0     H22709  10.803   5.021   2.409  1.0368 -0.0359  0.7450
  930MOL0     H22710  10.703   4.886   2.385 -0.6949  1.6867 -2.2769
  930MOL0     H22711  10.908   4.736   2.378  1.9579 -0.3012 -0.7594
  930MOL0     H22712  10.880   4.810   2.536 -0.7832 -1.6592 -0.8311
  930MOL0     H22713  11.097   4.808   2.191  1.5550 -1.4173 -0.3706
  930MOL0     H22714  11.368   4.992   2.159 -1.7936  0.2458  0.0928
  930MOL0     H22715  11.343   4.816   2.153 -2.1128 -0.6373  1.1901
  930MOL0     H22716  11.471   4.862   2.405 -0.4226 -1.2514 -0.2550
  930MOL0     H22717  11.548   4.977   2.295 -1.4612  1.8076  0.6104
  930MOL0     H22718  11.540   4.680   2.295 -1.3525  1.0835  1.1448
  930MOL0     H22719  11.586   4.756   2.136  1.4634 -0.6858  0.9829
  930MOL0     H22720  11.755   4.878   2.287 -1.2985  0.0196  0.6856
  930MOL0     H22721  11.789   4.706   2.240 -1.3476 -2.4870  0.4908
  930MOL0     H22722  11.685   4.972   2.516  0.2418  0.4481 -0.5459
  930MOL0     H22723  11.824   5.091   2.685  4.8165  1.7906  1.2458
  930MOL0     H22724  12.440   4.961   2.723 -2.2463 -2.9876  0.9834
  930MOL0     H22725  12.623   5.008   2.886 -0.4621  1.3284 -1.2115
  930MOL0     H22726  12.740   5.232   3.235 -0.0131  1.0911  1.1589
  930MOL0     H22727  12.577   5.294   3.236  1.4573  0.4620  2.3125
  930MOL0     H22728  12.650   5.422   2.997 -0.8664 -2.7704 -0.2571
  930MOL0     H22729  12.788   5.318   3.019  1.0612  0.0882  1.4210
  930MOL0     H22730  12.875   5.435   3.212  0.5617  1.7971  0.4528
  930MOL0     H22731  12.716   5.499   3.245  0.3547 -0.7170 -0.5285
  930MOL0     H22732  12.909   5.559   3.008 -0.6067  0.8017 -1.4959
  930MOL0     H22733  12.752   5.647   3.037  0.9685  0.8377 -2.2192
  930MOL0     H22734  12.977   5.640   3.249  0.3036 -2.8317 -2.2711
  930MOL0     H22735  12.843   5.753   3.247  0.4621  0.3066 -1.0671
  930MOL0     H22736  13.063   5.762   3.043 -0.4000 -1.3658 -1.5018
  930MOL0     H22737  13.037   5.859   3.176  2.3445 -0.1487 -0.9756
  930MOL0     H22738  12.817   5.844   2.952 -1.4909 -0.7627  2.0995
  930MOL0     H22739  12.855   5.979   3.061 -0.1760 -1.1313  1.4810
  930MOL0     H22740  12.919   6.019   2.838 -0.3227 -0.8583 -0.6954
  930MOL0     H22741  13.049   5.901   2.839  0.7522  0.4974 -0.3395
  930MOL0     H22742  12.383   5.242   3.127 -0.3065  0.7823 -0.5302
  930MOL0     H22743  12.186   5.206   2.958  1.4794  3.0382 -0.7888
  930MOL0     H22744  12.130   4.789   2.641  0.7831  2.4311  1.6652
  930MOL0     H22745  11.978   4.653   2.496 -1.7258  0.9048 -2.2756
  930MOL0     H22746   9.961   4.956   1.953 -2.9196  0.6356 -0.3682
  930MOL0     H22747   9.745   4.870   1.866  0.6853  0.1023 -0.7932
  930MOL0     H22748   9.294   4.603   2.139  5.0046 -1.9914 -0.3185
  930MOL0     H22749   9.074   4.598   2.021  0.2809 -4.3178 -3.4659
  930MOL0     H22750   8.991   4.868   1.827 -1.7150  2.3501 -0.2496
  930MOL0     H22751   8.899   4.745   1.924  0.0798  2.7475  0.2236
  930MOL0     H22752   8.859   4.831   1.650  0.9476 -0.2169  0.3872
  930MOL0     H22753   8.790   4.668   1.717  3.5072 -0.6618 -0.6069
  930MOL0     H22754   8.735   4.943   1.850 -0.6097 -1.1318  1.0841
  930MOL0     H22755   8.665   4.779   1.873 -1.0723  0.1702 -0.7682
  930MOL0     H22756   8.652   4.974   1.649 -1.4002 -0.0665 -1.6278
  930MOL0     H22757   8.561   4.815   1.648 -3.1096  1.2284  1.2344
  930MOL0     H22758   8.300   5.056   1.879 -1.4885 -0.0940  1.1863
  930MOL0     H22759   9.242   4.729   1.659 -1.1936  0.5726  0.8808
  930MOL0     H22760   9.457   4.702   1.743 -1.1827  0.7256 -0.2221
  931MOL0     O22761   0.050  10.089   2.032  0.1096  0.5157  0.2209
  931MOL0     C22762  -0.050  10.128   1.978  0.4312 -0.6673 -0.6044
  931MOL0     O22763  -0.120  10.063   1.881 -0.4946  0.0026  0.1960
  931MOL0     C22764  -0.057   9.956   1.829 -0.3857 -0.2938  1.3662
  931MOL0     C22765  -0.157   9.857   1.800  0.4673 -0.3565  0.4299
  931MOL0     C22766  -0.118   9.736   1.746  0.8164  0.8388 -0.4338
  931MOL0     C22767   0.009   9.714   1.715 -0.4541  0.5956 -0.2936
  931MOL0     O22768   0.053   9.588   1.688  0.2376  0.8169 -0.9196
  931MOL0     C22769   0.005   9.477   1.764  0.2813  0.5379 -0.0206
  931MOL0     C22770   0.127   9.392   1.805 -0.8631 -0.1610 -0.3821
  931MOL0     C22771   0.233   9.476   1.875  0.1835 -0.1800  0.0212
  931MOL0     C22772   0.353   9.399   1.921  0.7229 -0.9439 -0.2140
  931MOL0     C22773   0.479   9.483   1.956  0.1311  0.5866 -0.2076
  931MOL0     C22774   0.576   9.422   2.054 -0.2665 -0.0801 -0.1797
  931MOL0     C22775   0.699   9.515   2.052 -0.8347 -0.2654  0.2319
  931MOL0     C22776   0.833   9.430   2.110 -0.4641  0.4045 -0.2881
  931MOL0     N22777   0.788   9.351   2.231  0.1561 -0.4110  0.5480
  931MOL0     C22778   0.764   9.215   2.241  0.2324 -0.3713 -0.2198
  931MOL0     C22779   0.732   9.203   2.376 -0.5935  0.8592 -1.3564
  931MOL0     C22780   0.687   9.079   2.443 -0.4907  0.4648 -0.0254
  931MOL0     C22781   0.769   9.066   2.580  0.2030  0.7709 -0.9934
  931MOL0     C22782   0.770   8.933   2.636  0.0073 -0.6075 -0.1681
  931MOL0     C22783   0.671   8.917   2.763 -0.9014 -0.0613 -0.7642
  931MOL0     O22784   0.543   8.944   2.713 -0.5818  0.6800 -0.0541
  931MOL0     C22785   0.439   8.992   2.793 -0.9824  0.3372 -0.5740
  931MOL0     C22786   0.334   9.069   2.737  0.0370 -0.1442  0.1253
  931MOL0     C22787   0.232   9.111   2.820  0.6886 -0.0390  0.6433
  931MOL0     C22788   0.245   9.096   2.955  0.4729 -0.5219 -0.4831
  931MOL0     C22789   0.122   9.145   3.031 -0.1986  0.6866  0.5376
  931MOL0     O22790   0.139   9.132   3.165  0.1306 -0.0514 -0.1737
  931MOL0     C22791   0.041   9.171   3.249 -0.3116  0.4040  0.3638
  931MOL0     C22792   0.029   9.093   3.356 -0.0118 -0.0363 -0.3892
  931MOL0     C22793  -0.056   9.130   3.459 -0.5177  0.2548 -0.3673
  931MOL0     C22794  -0.138   9.239   3.450 -0.3053 -0.3415 -1.4583
  931MOL0     O22795  -0.202   9.262   3.566  0.6558  0.1709  0.2777
  931MOL0     C22796  -0.333   9.328   3.560  0.0444 -0.1832 -0.2069
  931MOL0     C22797  -0.336   9.429   3.675  0.5492 -0.4753  0.4687
  931MOL0     C22798  -0.228   9.538   3.658  0.4700 -0.2892  1.2827
  931MOL0     C22799  -0.224   9.644   3.776  0.9315 -0.8960  0.6154
  931MOL0     C22800  -0.163   9.783   3.733 -0.4365  1.2478 -0.5672
  931MOL0     C22801  -0.182   9.896   3.838 -0.9235 -0.4091  0.2567
  931MOL0     C22802  -0.125  10.032   3.806 -0.3147 -0.3560  0.4689
  931MOL0     C22803  -0.208  10.125   3.719 -0.6718  0.6148  0.9046
  931MOL0    Cl22804  -0.346  10.173   3.828  0.2565  0.0577  0.0710
  931MOL0     C22805  -0.129   9.317   3.334 -0.1662  0.0337  0.1457
  931MOL0     C22806  -0.042   9.279   3.228 -0.9850 -1.0890  0.4615
  931MOL0     O22807   0.021   9.178   2.973  0.5154 -0.3223  0.3205
  931MOL0     C22808   0.355   9.041   3.016  0.2382  0.4529 -0.7222
  931MOL0     C22809   0.444   8.983   2.933 -0.2296  0.5465  0.5082
  931MOL0     N22810   0.724   9.325   2.432  0.5473 -0.1881 -0.7905
  931MOL0     N22811   0.763   9.414   2.355  0.9790 -0.3970 -0.2327
  931MOL0     C22812   0.112   9.815   1.733  0.6349 -0.6153  0.3890
  931MOL0     C22813   0.075   9.932   1.796  0.0543 -0.5638 -1.4334
  931MOL0     C22814  -0.110  10.254   2.032 -0.3643  0.4640 -0.1677
  931MOL0     C22815  -0.239  10.293   1.990  0.1914 -0.6956 -0.3903
  931MOL0     C22816  -0.295  10.410   2.044 -0.2914  0.1894 -0.9221
  931MOL0     C22817  -0.221  10.496   2.125 -0.5101  0.6496  1.0940
  931MOL0     O22818  -0.265  10.618   2.186 -0.3718  0.2852  0.3340
  931MOL0     C22819  -0.398  10.665   2.161  0.5152 -0.8932 -0.5805
  931MOL0     C22820  -0.402  10.751   2.033 -0.8083  0.2728 -0.3613
  931MOL0     C22821  -0.538  10.817   1.999  1.0682  0.1172 -0.6293
  931MOL0     C22822  -0.575  10.951   2.065 -0.0540  1.1874  0.3492
  931MOL0     C22823  -0.699  11.000   2.005  0.2370  0.1601  0.8189
  931MOL0     C22824  -0.812  11.019   1.957 -0.4935  1.0689  0.1355
  931MOL0     C22825  -0.087  10.456   2.157 -0.0941  0.4551  0.4333
  931MOL0     C22826  -0.031  10.340   2.109 -0.5128  0.0519  0.0637
  931MOL0     H22827  -0.263   9.880   1.806 -0.2327 -3.5035  2.0319
  931MOL0     H22828  -0.194   9.666   1.714  2.0757 -1.3530  1.1276
  931MOL0     H22829  -0.068   9.426   1.700 -0.3459 -0.6602  1.5834
  931MOL0     H22830  -0.060   9.516   1.843 -1.6547  1.3748 -1.9218
  931MOL0     H22831   0.185   9.351   1.721  2.1768 -0.5208  1.7141
  931MOL0     H22832   0.109   9.307   1.872  1.9279 -0.7964 -0.3222
  931MOL0     H22833   0.185   9.515   1.965 -3.6155 -1.7002 -1.1705
  931MOL0     H22834   0.266   9.554   1.805  0.5747 -2.7424 -2.8293
  931MOL0     H22835   0.310   9.354   2.011  0.4374 -1.1189 -0.4357
  931MOL0     H22836   0.384   9.321   1.851  1.5757  1.2492 -2.4308
  931MOL0     H22837   0.433   9.577   1.987  1.4207  1.3857 -0.6368
  931MOL0     H22838   0.528   9.514   1.863  0.4177 -0.6284 -0.4760
  931MOL0     H22839   0.611   9.324   2.022 -1.4761 -0.5818 -0.0170
  931MOL0     H22840   0.543   9.414   2.158  2.3359 -4.1774  0.5695
  931MOL0     H22841   0.718   9.553   1.952 -0.7235  3.5933  1.5492
  931MOL0     H22842   0.686   9.598   2.123 -1.7226 -0.2031  0.0073
  931MOL0     H22843   0.903   9.511   2.134  0.6755 -0.6732  0.1680
  931MOL0     H22844   0.874   9.362   2.035  0.5076 -0.8352  1.2783
  931MOL0     H22845   0.752   9.141   2.163  0.4550 -1.8610  1.1168
  931MOL0     H22846   0.704   8.993   2.377 -1.7273  1.4824 -1.7816
  931MOL0     H22847   0.582   9.074   2.475  0.1565  0.2381  2.1607
  931MOL0     H22848   0.726   9.141   2.646  2.9068  0.7874  0.9072
  931MOL0     H22849   0.875   9.092   2.573  0.1302  0.6799 -3.2025
  931MOL0     H22850   0.749   8.851   2.566 -0.9766 -0.2235 -0.3264
  931MOL0     H22851   0.873   8.915   2.668 -0.2998  2.3016  3.0578
  931MOL0     H22852   0.705   8.990   2.837  1.9343  2.2783 -4.0593
  931MOL0     H22853   0.669   8.816   2.805 -2.1158 -0.6879 -2.2183
  931MOL0     H22854   0.335   9.082   2.629  1.7790 -2.6195 -0.2603
  931MOL0     H22855   0.146   9.150   2.766  1.4263 -2.5628 -2.7353
  931MOL0     H22856   0.102   9.016   3.377  3.5410  2.9815 -0.6318
  931MOL0     H22857  -0.063   9.080   3.555 -0.8696  1.9178  0.5242
  931MOL0     H22858  -0.421   9.264   3.572 -3.0718  2.4290 -5.4780
  931MOL0     H22859  -0.362   9.384   3.470 -0.9576  0.1108  0.2770
  931MOL0     H22860  -0.312   9.388   3.773  0.3358  2.4554  1.8604
  931MOL0     H22861  -0.434   9.473   3.694  0.6665  0.6929 -1.3390
  931MOL0     H22862  -0.240   9.580   3.558 -2.0339 -0.5958  1.3792
  931MOL0     H22863  -0.128   9.494   3.652  0.6469  0.2991 -0.3706
  931MOL0     H22864  -0.321   9.675   3.815  0.5728 -0.6767 -0.4069
  931MOL0     H22865  -0.164   9.601   3.856  0.9852 -0.7419  0.6569
  931MOL0     H22866  -0.219   9.819   3.645 -0.3757 -1.2662 -1.7174
  931MOL0     H22867  -0.060   9.759   3.706 -0.3515 -0.1499  0.8554
  931MOL0     H22868  -0.119   9.857   3.919  0.3410 -0.5893 -0.7941
  931MOL0     H22869  -0.286   9.901   3.871 -1.5971 -2.1265 -1.4350
  931MOL0     H22870  -0.109  10.075   3.905 -0.1966 -1.4929  0.9645
  931MOL0     H22871  -0.034  10.008   3.750  0.2705  0.9047  0.8487
  931MOL0     H22872  -0.234  10.067   3.630  0.8784 -1.3920  1.6728
  931MOL0     H22873  -0.149  10.212   3.690  0.3584  0.5508  2.6413
  931MOL0     H22874  -0.170   9.417   3.325  0.9241  0.7507  2.5638
  931MOL0     H22875  -0.041   9.339   3.137  1.1742 -0.6289  0.7348
  931MOL0     H22876   0.357   9.041   3.124  0.5334 -0.3858 -0.7254
  931MOL0     H22877   0.528   8.933   2.980 -0.2195  0.0403 -0.0325
  931MOL0     H22878   0.214   9.791   1.705  0.7233  0.9198 -0.6789
  931MOL0     H22879   0.147  10.009   1.821 -0.4036 -0.2123 -1.1808
  931MOL0     H22880  -0.306  10.232   1.930 -0.2525 -1.4611  0.8573
  931MOL0     H22881  -0.398  10.438   2.022  0.9663  1.8129 -6.2736
  931MOL0     H22882  -0.436  10.716   2.250  0.9310 -0.8068 -0.4493
  931MOL0     H22883  -0.470  10.582   2.159 -1.8210  1.0368 -2.0957
  931MOL0     H22884  -0.317  10.820   2.042  0.9480 -1.5622 -1.9224
  931MOL0     H22885  -0.374  10.689   1.947  0.4310  1.7457 -1.0774
  931MOL0     H22886  -0.602  10.734   2.028  2.7144 -1.1075 -0.3456
  931MOL0     H22887  -0.548  10.828   1.891 -1.2032  1.8122 -0.3295
  931MOL0     H22888  -0.584  10.938   2.173 -1.6822 -2.2014 -0.0526
  931MOL0     H22889  -0.496  11.022   2.038 -1.0309  1.5736 -1.7403
  931MOL0     H22890  -0.914  11.043   1.934  0.2029  2.4295 -1.8575
  931MOL0     H22891  -0.035  10.525   2.222 -0.2470  2.4356 -1.4195
  931MOL0     H22892   0.075  10.319   2.123 -0.6470 -0.5344  0.2153
  932MOL0     O22893   2.555   8.978   8.594 -0.5295  0.2901 -0.1453
  932MOL0     C22894   2.528   9.068   8.675  0.8839 -0.3977 -0.2075
  932MOL0     O22895   2.604   9.101   8.784 -1.2533  1.0437  0.7390
  932MOL0     C22896   2.705   9.011   8.828  0.0738 -0.2267  0.3679
  932MOL0     C22897   2.830   9.078   8.863  0.3286  0.7650 -0.4214
  932MOL0     C22898   2.936   9.007   8.913 -1.1249  0.7949  0.9392
  932MOL0     C22899   2.932   8.872   8.924 -0.7556  0.2211 -0.0013
  932MOL0     O22900   3.051   8.800   8.979  0.6794 -0.8456  0.7196
  932MOL0     C22901   3.036   8.743   9.102  0.8796  1.1057 -0.4603
  932MOL0     C22902   3.161   8.660   9.147  0.3896  0.1315 -0.8147
  932MOL0     C22903   3.201   8.688   9.292 -0.8473  0.3452 -0.9646
  932MOL0     C22904   3.210   8.545   9.375 -0.2237 -1.2002  0.4422
  932MOL0     C22905   3.301   8.434   9.317 -0.3636  0.6598 -0.3122
  932MOL0     C22906   3.449   8.489   9.309  0.2849  0.9532 -0.2028
  932MOL0     C22907   3.560   8.375   9.293 -0.2170  0.3575 -0.0668
  932MOL0     C22908   3.591   8.305   9.425 -1.0727 -0.0234 -0.0060
  932MOL0     N22909   3.685   8.196   9.417 -0.9011  0.6724  0.3401
  932MOL0     C22910   3.818   8.219   9.363 -0.8654  0.3161 -0.4359
  932MOL0     C22911   3.867   8.099   9.397  0.0728 -0.4193  0.0774
  932MOL0     C22912   4.007   8.072   9.347  0.2755  0.3834  0.3384
  932MOL0     C22913   4.112   8.110   9.449  0.2035 -0.2132  0.5448
  932MOL0     C22914   4.129   8.263   9.459  0.3427 -0.0652 -0.9935
  932MOL0     C22915   4.258   8.318   9.520  0.8590  0.4057  0.2068
  932MOL0     O22916   4.282   8.283   9.654 -0.9318  0.2336  0.4687
  932MOL0     C22917   4.418   8.279   9.692  1.3166  0.7415 -0.3358
  932MOL0     C22918   4.515   8.216   9.619  0.7189 -0.4045 -0.6105
  932MOL0     C22919   4.648   8.241   9.648  0.2530 -0.1536 -0.5913
  932MOL0     C22920   4.691   8.316   9.755  0.3851  0.0860 -0.3387
  932MOL0     C22921   4.834   8.359   9.752  0.3686  1.1136 -0.5303
  932MOL0     O22922   4.907   8.315   9.652  0.0787  0.1995  0.4402
  932MOL0     C22923   5.017   8.384   9.601 -0.1222  0.5875 -0.1099
  932MOL0     C22924   5.119   8.311   9.545  0.9062  0.0160  0.0384
  932MOL0     C22925   5.231   8.371   9.501 -0.4444 -0.5885 -0.7707
  932MOL0     C22926   5.249   8.514   9.503 -0.8304 -0.3764  0.6097
  932MOL0     O22927   5.363   8.579   9.454  0.5905 -0.4113  0.8686
  932MOL0     C22928   5.474   8.510   9.382 -0.1809  1.2668  0.0996
  932MOL0     C22929   5.589   8.459   9.479  0.2879  0.8478 -0.3333
  932MOL0     C22930   5.604   8.545   9.606  0.1560  0.0620 -0.3075
  932MOL0     C22931   5.613   8.695   9.567  0.9215  0.8870  0.0932
  932MOL0     C22932   5.669   8.801   9.683 -0.6326 -0.2260  0.5007
  932MOL0     C22933   5.729   8.924   9.613 -0.7899 -0.0778 -0.5855
  932MOL0     C22934   5.629   9.003   9.536 -0.7001  0.7266  0.4894
  932MOL0     C22935   5.692   9.109   9.429  0.1751  0.1787  0.1908
  932MOL0    Cl22936   5.836   9.199   9.483  0.4259  0.4839 -0.4570
  932MOL0     C22937   5.145   8.588   9.560 -0.4637 -0.3655  0.5956
  932MOL0     C22938   5.031   8.525   9.600 -0.3168 -0.6471 -0.6520
  932MOL0     O22939   4.864   8.434   9.840 -0.7586 -0.4853  0.1656
  932MOL0     C22940   4.583   8.378   9.825  0.0606 -0.2807  0.3058
  932MOL0     C22941   4.448   8.352   9.805 -0.9123  0.4664  0.5435
  932MOL0     N22942   3.774   8.026   9.467  0.0581  0.3613  0.1388
  932MOL0     N22943   3.670   8.082   9.483 -0.2256 -0.1553  0.2810
  932MOL0     C22944   2.812   8.801   8.889 -1.4642 -0.1698 -0.5051
  932MOL0     C22945   2.699   8.865   8.844 -0.1336 -0.7957 -0.5596
  932MOL0     C22946   2.431   9.175   8.617 -0.6452  1.5351  0.0026
  932MOL0     C22947   2.442   9.307   8.678 -0.0326 -0.1275  0.5076
  932MOL0     C22948   2.352   9.407   8.645  0.5850  0.2507 -0.7903
  932MOL0     C22949   2.266   9.394   8.539  0.3770 -0.2165  0.1500
  932MOL0     O22950   2.189   9.506   8.498  1.2616 -0.0342 -0.1236
  932MOL0     C22951   2.117   9.508   8.372  0.6288  0.4154 -0.6462
  932MOL0     C22952   1.968   9.481   8.410  0.6943 -0.5906  0.9879
  932MOL0     C22953   1.899   9.494   8.275  0.7411  0.2684  0.7811
  932MOL0     C22954   1.739   9.465   8.293 -0.1199 -0.2338 -0.6498
  932MOL0     C22955   1.665   9.560   8.201 -0.2702 -0.1474 -0.2560
  932MOL0     C22956   1.615   9.635   8.119 -0.4624 -0.7188  0.0184
  932MOL0     C22957   2.252   9.259   8.484 -0.3737 -0.0623  0.2215
  932MOL0     C22958   2.342   9.156   8.512 -1.2343  0.3856 -0.8088
  932MOL0     H22959   2.850   9.184   8.847  0.8651  0.5607 -1.1307
  932MOL0     H22960   3.018   9.066   8.952  2.3984 -0.4788 -3.6904
  932MOL0     H22961   2.950   8.675   9.113  3.7277 -2.5920  1.7055
  932MOL0     H22962   3.038   8.831   9.166 -1.1221  2.1551 -1.7265
  932MOL0     H22963   3.246   8.691   9.085  1.0767 -1.4346 -0.6961
  932MOL0     H22964   3.132   8.556   9.135  2.3274 -0.5582 -0.0307
  932MOL0     H22965   3.133   8.763   9.335 -1.0957  1.7752 -3.6287
  932MOL0     H22966   3.297   8.735   9.313 -0.8241 -0.6548  1.4826
  932MOL0     H22967   3.225   8.570   9.481 -3.9239  2.3533  0.3548
  932MOL0     H22968   3.112   8.497   9.369 -1.8160  1.9069 -0.4276
  932MOL0     H22969   3.267   8.392   9.222  0.0362  1.7530 -0.9632
  932MOL0     H22970   3.309   8.352   9.389 -0.9268 -1.4635 -2.5576
  932MOL0     H22971   3.472   8.534   9.406  2.5522  3.7636 -1.9010
  932MOL0     H22972   3.465   8.567   9.234  0.4054  4.1814  2.8944
  932MOL0     H22973   3.532   8.311   9.209 -1.2733 -0.9190  1.1931
  932MOL0     H22974   3.651   8.424   9.256  0.4687 -0.6679  0.1767
  932MOL0     H22975   3.501   8.255   9.463 -1.5959  0.1526 -1.0027
  932MOL0     H22976   3.628   8.373   9.503 -3.9854  2.7996 -0.8542
  932MOL0     H22977   3.850   8.309   9.313 -1.4276  1.1028  0.5788
  932MOL0     H22978   4.028   8.122   9.253  3.5093 -0.7666  0.3302
  932MOL0     H22979   4.025   7.966   9.328  4.0422  1.3407 -2.4261
  932MOL0     H22980   4.205   8.064   9.412 -0.9121 -1.8099 -0.3932
  932MOL0     H22981   4.086   8.077   9.550 -3.0418  1.5754  0.4119
  932MOL0     H22982   4.135   8.284   9.352  0.5213 -0.6541 -1.1024
  932MOL0     H22983   4.044   8.295   9.520  0.4104 -2.0758  0.2560
  932MOL0     H22984   4.261   8.427   9.509  2.0906  0.2134 -1.7174
  932MOL0     H22985   4.337   8.276   9.457 -0.4126  0.2378 -1.3414
  932MOL0     H22986   4.486   8.159   9.531 -0.0125 -0.0780 -0.5890
  932MOL0     H22987   4.715   8.195   9.576  1.6436  3.0867 -1.5429
  932MOL0     H22988   5.117   8.202   9.543 -0.3821 -0.0188 -3.2960
  932MOL0     H22989   5.306   8.303   9.462 -0.1667 -1.1391  0.6406
  932MOL0     H22990   5.520   8.578   9.310 -1.4895  3.7647  1.5106
  932MOL0     H22991   5.430   8.428   9.324  1.0423  0.1337  0.7091
  932MOL0     H22992   5.694   8.462   9.448  1.4289 -1.4437  2.7072
  932MOL0     H22993   5.567   8.355   9.505  1.2107  0.6271 -0.4101
  932MOL0     H22994   5.693   8.497   9.648  0.2048 -2.9492 -3.4174
  932MOL0     H22995   5.528   8.528   9.683  0.3872 -1.0480 -0.3054
  932MOL0     H22996   5.678   8.707   9.480 -0.1112 -0.1389 -0.8403
  932MOL0     H22997   5.514   8.736   9.545  0.6147  0.5989  0.9130
  932MOL0     H22998   5.756   8.759   9.735  1.1682  1.9518 -0.5963
  932MOL0     H22999   5.603   8.841   9.760 -1.7785  0.3386 -0.7298
  932MOL0     H23000   5.814   8.896   9.550 -0.8675  0.4195 -0.9164
  932MOL0     H23001   5.778   8.980   9.693 -0.8572  1.2344 -1.4372
  932MOL0     H23002   5.562   8.943   9.473 -1.5204  0.5383  1.5138
  932MOL0     H23003   5.563   9.039   9.615  0.7269 -1.6653  2.9387
  932MOL0     H23004   5.617   9.188   9.419 -1.5772 -1.4026  0.2462
  932MOL0     H23005   5.714   9.055   9.337  0.6965 -2.7618  1.8935
  932MOL0     H23006   5.169   8.692   9.578 -1.3608 -0.2071  0.9345
  932MOL0     H23007   4.967   8.588   9.661 -0.2537 -1.5735  0.3895
  932MOL0     H23008   4.610   8.452   9.900  2.2249  1.5601 -2.1132
  932MOL0     H23009   4.376   8.395   9.873  0.7053  2.7956  0.8824
  932MOL0     H23010   2.828   8.694   8.890  2.7364  0.1807 -3.1873
  932MOL0     H23011   2.602   8.818   8.831 -1.1101  1.0168 -0.2865
  932MOL0     H23012   2.520   9.312   8.754  1.0146 -2.5576 -0.2785
  932MOL0     H23013   2.353   9.509   8.683  0.7594  0.3415 -1.0364
  932MOL0     H23014   2.152   9.433   8.301  2.0786  0.7674 -0.3229
  932MOL0     H23015   2.126   9.607   8.327 -0.9218  2.1375  2.4686
  932MOL0     H23016   1.948   9.391   8.468  2.0642 -2.0448 -0.6655
  932MOL0     H23017   1.935   9.562   8.476 -0.2846 -1.0818  1.1200
  932MOL0     H23018   1.931   9.436   8.188 -0.2074  0.2247  0.4505
  932MOL0     H23019   1.898   9.602   8.256  0.4835  0.0495 -0.4964
  932MOL0     H23020   1.718   9.362   8.261 -0.2156 -0.2765 -0.4502
  932MOL0     H23021   1.718   9.482   8.399 -0.4181  1.2234 -0.9183
  932MOL0     H23022   1.568   9.708   8.057 -2.9204 -2.2070  0.0094
  932MOL0     H23023   2.178   9.230   8.410  1.0008 -0.7515 -0.9168
  932MOL0     H23024   2.341   9.067   8.449  0.4373  1.5210 -2.5179
  933MOL0     O23025  10.989   2.455   7.695  0.2703  0.2521 -0.4306
  933MOL0     C23026  11.031   2.544   7.770  0.8211 -0.0245  0.6635
  933MOL0     O23027  11.162   2.565   7.800  0.6129 -0.2228 -0.1030
  933MOL0     C23028  11.239   2.453   7.772  0.0093 -0.2351 -0.8387
  933MOL0     C23029  11.323   2.467   7.665  0.2392  0.4042  0.4931
  933MOL0     C23030  11.403   2.359   7.617  0.4968  0.1915 -0.8523
  933MOL0     C23031  11.384   2.229   7.671 -0.3238  0.0477  0.1187
  933MOL0     O23032  11.455   2.126   7.614  0.5762  0.1483  0.8450
  933MOL0     C23033  11.484   2.008   7.693  0.6424 -0.4824  0.3745
  933MOL0     C23034  11.382   1.891   7.687 -0.1949  0.0698 -0.2172
  933MOL0     C23035  11.411   1.770   7.772 -0.2886  0.0506  0.5742
  933MOL0     C23036  11.342   1.777   7.913  0.5947  0.2878 -0.6545
  933MOL0     C23037  11.431   1.707   8.021  0.6791  0.0015  0.0835
  933MOL0     C23038  11.385   1.559   8.037  0.4731  0.1278 -0.1698
  933MOL0     C23039  11.466   1.472   8.138 -0.0925 -0.4619 -0.7242
  933MOL0     C23040  11.607   1.453   8.102 -0.6150 -0.0649 -0.5682
  933MOL0     N23041  11.627   1.363   7.988 -0.6979  0.5707 -0.2147
  933MOL0     C23042  11.563   1.242   7.974  0.8943 -0.5888  0.1781
  933MOL0     C23043  11.549   1.221   7.846  0.6060 -0.3670 -0.0248
  933MOL0     C23044  11.480   1.100   7.780 -0.0836 -0.3391 -0.0299
  933MOL0     C23045  11.475   1.130   7.625 -0.2777 -0.8627  0.8412
  933MOL0     C23046  11.614   1.132   7.565  1.1568  0.5050 -0.5226
  933MOL0     C23047  11.606   1.088   7.415  0.4642 -0.0135  0.3952
  933MOL0     O23048  11.640   1.206   7.345 -0.0512  1.0636  0.4625
  933MOL0     C23049  11.539   1.299   7.337  0.3411  0.8109 -0.6291
  933MOL0     C23050  11.401   1.272   7.343 -0.4386  0.4374  0.7281
  933MOL0     C23051  11.312   1.378   7.316  0.0240 -0.7805  0.7953
  933MOL0     C23052  11.357   1.511   7.281 -0.6725  0.4543 -0.4356
  933MOL0     C23053  11.271   1.629   7.255  0.6279 -0.2530 -0.4261
  933MOL0     O23054  11.325   1.728   7.175 -0.1390 -0.5299 -0.4156
  933MOL0     C23055  11.288   1.862   7.194  0.3393  0.7182  1.0191
  933MOL0     C23056  11.355   1.948   7.274 -0.3269 -0.1234 -0.0763
  933MOL0     C23057  11.308   2.084   7.290  0.5371  0.3369 -0.0219
  933MOL0     C23058  11.198   2.134   7.218  0.5866  0.5288 -0.0282
  933MOL0     O23059  11.153   2.265   7.230 -1.3423  0.0316 -0.0307
  933MOL0     C23060  11.250   2.358   7.275 -0.3734  1.5458 -0.1091
  933MOL0     C23061  11.202   2.505   7.285  0.4591 -0.3968  0.2927
  933MOL0     C23062  11.173   2.579   7.153 -0.3957 -1.2608  0.3627
  933MOL0     C23063  11.103   2.716   7.178 -0.4555 -1.2961  0.2817
  933MOL0     C23064  11.152   2.813   7.061 -1.0924 -0.6955 -0.7930
  933MOL0     C23065  11.094   2.950   7.075  0.1508 -0.3465  0.2274
  933MOL0     C23066  10.950   2.970   7.020 -0.3071  0.2260  0.3579
  933MOL0     C23067  10.874   3.109   7.012 -0.0688 -0.5269  0.6391
  933MOL0    Cl23068  10.965   3.233   6.931 -0.6413  0.5271 -0.0639
  933MOL0     C23069  11.128   2.041   7.147  0.8290 -0.1693  0.4549
  933MOL0     C23070  11.173   1.916   7.128  0.0612 -0.3205  0.1657
  933MOL0     O23071  11.181   1.650   7.335  0.0496 -0.9133  0.1405
  933MOL0     C23072  11.495   1.530   7.276 -0.4811  0.7522  0.3894
  933MOL0     C23073  11.583   1.428   7.305  0.3075  1.1239 -0.2929
  933MOL0     N23074  11.592   1.336   7.781 -0.4925  0.6057  0.4722
  933MOL0     N23075  11.647   1.411   7.864 -0.7925  0.2169 -0.0911
  933MOL0     C23076  11.303   2.218   7.786  0.1796 -0.4552 -0.4394
  933MOL0     C23077  11.239   2.329   7.837  0.3504  0.0748 -0.5229
  933MOL0     C23078  10.937   2.657   7.798  0.0239  0.2442  0.4988
  933MOL0     C23079  10.803   2.656   7.764 -0.3028  0.7666 -0.7062
  933MOL0     C23080  10.724   2.763   7.772  1.0932 -0.0627  0.3922
  933MOL0     C23081  10.781   2.883   7.821  0.1216  0.8003  0.4973
  933MOL0     O23082  10.702   2.995   7.822 -0.2745  0.3093  0.3395
  933MOL0     C23083  10.561   2.993   7.834 -0.0439 -0.2432  0.3348
  933MOL0     C23084  10.525   2.985   7.982 -0.1009  0.7385  0.6142
  933MOL0     C23085  10.422   2.870   8.026 -1.4086  0.8492 -0.3877
  933MOL0     C23086  10.441   2.728   7.965 -0.0971 -0.7147 -0.9254
  933MOL0     C23087  10.348   2.640   8.037  0.2256  0.3653  0.7150
  933MOL0     C23088  10.288   2.559   8.103  0.9623 -0.5175 -1.0747
  933MOL0     C23089  10.915   2.894   7.848  0.3621  0.8365 -0.9866
  933MOL0     C23090  10.990   2.777   7.843 -0.1347 -0.0486 -0.4757
  933MOL0     H23091  11.347   2.570   7.640 -0.2039  1.3834  3.6883
  933MOL0     H23092  11.463   2.379   7.528  1.4237  2.2465  0.1702
  933MOL0     H23093  11.494   2.037   7.798  0.9839 -0.5920  0.3738
  933MOL0     H23094  11.584   1.970   7.669  0.4749 -0.5792 -0.1813
  933MOL0     H23095  11.379   1.848   7.587  1.6822  2.1205 -1.2449
  933MOL0     H23096  11.290   1.945   7.710  0.8642  1.5465  0.8192
  933MOL0     H23097  11.519   1.776   7.783  0.4010  1.9431 -4.5517
  933MOL0     H23098  11.389   1.682   7.711  1.6901  0.8260 -1.3672
  933MOL0     H23099  11.318   1.880   7.938 -2.2143 -0.4863  0.2073
  933MOL0     H23100  11.247   1.723   7.910  0.8152 -0.4301  2.1222
  933MOL0     H23101  11.403   1.753   8.116 -1.9507  3.2276 -2.0180
  933MOL0     H23102  11.536   1.734   8.008  0.7129  0.0074  0.3742
  933MOL0     H23103  11.399   1.504   7.943  3.8619 -1.8621  1.2949
  933MOL0     H23104  11.279   1.567   8.062  0.5720 -0.9408  0.6427
  933MOL0     H23105  11.469   1.521   8.236  0.9732 -0.7269 -0.6097
  933MOL0     H23106  11.425   1.373   8.159  1.9583 -1.0794  0.6660
  933MOL0     H23107  11.654   1.405   8.188  0.4650 -0.6355 -1.4512
  933MOL0     H23108  11.663   1.544   8.079  1.6167 -0.9779  0.9091
  933MOL0     H23109  11.513   1.198   8.060  0.1974 -0.6308 -0.2417
  933MOL0     H23110  11.378   1.097   7.819 -0.9459  1.3362 -1.9487
  933MOL0     H23111  11.531   1.008   7.809  1.7101  0.1668 -1.3523
  933MOL0     H23112  11.419   1.223   7.617 -1.5178 -1.4056  2.5663
  933MOL0     H23113  11.430   1.043   7.576  3.0214 -2.6978  0.7731
  933MOL0     H23114  11.667   1.224   7.589  3.4588 -0.6213 -1.0067
  933MOL0     H23115  11.677   1.056   7.612 -0.4806 -0.8637 -0.4422
  933MOL0     H23116  11.518   1.038   7.374  1.3555 -0.0000 -1.6781
  933MOL0     H23117  11.677   1.006   7.400 -1.1993 -1.0260 -3.0284
  933MOL0     H23118  11.360   1.175   7.370  1.8163 -0.7460  0.2060
  933MOL0     H23119  11.204   1.363   7.319 -0.1812  0.0197 -1.1212
  933MOL0     H23120  11.438   1.915   7.336  0.8213  2.5444 -0.0696
  933MOL0     H23121  11.369   2.150   7.350 -0.5163  2.8637 -1.6016
  933MOL0     H23122  11.337   2.350   7.208 -0.2550 -3.1891  0.2443
  933MOL0     H23123  11.272   2.332   7.379 -3.9080 -1.8966  0.0118
  933MOL0     H23124  11.271   2.554   7.354  0.7109  2.1834 -1.6535
  933MOL0     H23125  11.109   2.509   7.342  0.1538  1.6436 -0.2584
  933MOL0     H23126  11.112   2.513   7.091  3.2694 -2.4808 -2.3011
  933MOL0     H23127  11.257   2.599   7.085 -0.1556  0.8606  1.2244
  933MOL0     H23128  10.994   2.708   7.170 -0.5582  0.6650 -0.8498
  933MOL0     H23129  11.116   2.762   7.276 -0.7478 -2.5407  0.9237
  933MOL0     H23130  11.135   2.778   6.959 -0.4562  1.3622 -1.6522
  933MOL0     H23131  11.260   2.821   7.079 -0.8948 -0.5168 -1.9985
  933MOL0     H23132  11.153   3.009   7.004 -0.6034  0.3493  0.1605
  933MOL0     H23133  11.098   2.977   7.180 -1.4813 -1.7434  0.6956
  933MOL0     H23134  10.959   2.950   6.912  1.4478  3.7165 -0.3011
  933MOL0     H23135  10.889   2.894   7.070  0.2584  0.9985  2.3032
  933MOL0     H23136  10.859   3.143   7.114 -2.7962 -0.4659  0.2757
  933MOL0     H23137  10.780   3.102   6.957  0.7832  0.3098 -1.0035
  933MOL0     H23138  11.047   2.087   7.091  2.1870  5.0773  2.2329
  933MOL0     H23139  11.116   1.846   7.068 -0.4770 -1.0244  1.4400
  933MOL0     H23140  11.527   1.632   7.256  0.9920 -0.3229 -3.6044
  933MOL0     H23141  11.689   1.446   7.315  0.6306 -1.7675  3.9775
  933MOL0     H23142  11.287   2.119   7.829 -1.2656  0.2445  0.7404
  933MOL0     H23143  11.179   2.324   7.927  1.5416  0.1601  0.2873
  933MOL0     H23144  10.773   2.560   7.723 -2.3055  0.5779  1.0442
  933MOL0     H23145  10.621   2.756   7.736  1.3878 -1.3289 -0.2490
  933MOL0     H23146  10.515   2.919   7.767 -0.5117 -0.5978  1.0354
  933MOL0     H23147  10.516   3.086   7.798 -1.8924  0.2022  3.4486
  933MOL0     H23148  10.619   2.975   8.037  0.6178 -1.4019 -0.8539
  933MOL0     H23149  10.476   3.075   8.019 -2.0596  0.7637 -1.7481
  933MOL0     H23150  10.322   2.914   8.019 -1.3757  0.8066 -1.2786
  933MOL0     H23151  10.451   2.858   8.130 -0.4412  0.6797 -0.6709
  933MOL0     H23152  10.410   2.731   7.860 -1.8823 -0.8277 -0.4398
  933MOL0     H23153  10.538   2.686   7.990 -0.6105 -3.7916 -3.3949
  933MOL0     H23154  10.238   2.481   8.157  0.7282 -1.7353 -2.9254
  933MOL0     H23155  10.968   2.978   7.891  1.1469  0.6872 -1.6396
  933MOL0     H23156  11.096   2.772   7.867 -0.1064 -1.4527 -0.8284
  934MOL0     O23157   4.627   5.074   9.914 -0.5981 -0.1290 -0.1745
  934MOL0     C23158   4.664   5.108   9.801 -0.7429  0.1140 -0.6883
  934MOL0     O23159   4.643   5.037   9.691  0.5837 -0.8634  0.3354
  934MOL0     C23160   4.560   4.930   9.715  0.0672 -0.2169 -0.0997
  934MOL0     C23161   4.427   4.930   9.762 -0.4039  0.1786  0.1374
  934MOL0     C23162   4.363   4.802   9.788 -0.0605 -0.0132  0.5908
  934MOL0     C23163   4.429   4.684   9.769  0.2095 -0.1470  0.3370
  934MOL0     O23164   4.366   4.565   9.801  0.6190 -0.3204 -0.0087
  934MOL0     C23165   4.443   4.445   9.799  0.0325  0.5357 -0.3272
  934MOL0     C23166   4.553   4.439   9.915 -0.2003 -0.1379  0.3487
  934MOL0     C23167   4.505   4.485  10.050  1.0907 -0.5652 -0.3181
  934MOL0     C23168   4.602   4.469  10.174 -0.9123  0.3600  0.9711
  934MOL0     C23169   4.528   4.515  10.299  0.4874 -0.1996  0.2033
  934MOL0     C23170   4.498   4.664  10.311  0.2721 -0.4048 -0.4086
  934MOL0     C23171   4.458   4.722  10.449  0.2754  0.0095  0.8298
  934MOL0     C23172   4.316   4.778  10.443  0.1670 -0.1648  0.3410
  934MOL0     N23173   4.305   4.912  10.386 -0.2896 -0.2283 -0.2884
  934MOL0     C23174   4.331   4.942  10.257  0.8851  0.5030  0.9495
  934MOL0     C23175   4.293   5.071  10.242 -0.2007 -1.0034 -0.4760
  934MOL0     C23176   4.298   5.151  10.118  0.5515 -0.1770  0.2646
  934MOL0     C23177   4.205   5.114  10.001 -0.0336 -0.3880 -0.2681
  934MOL0     C23178   4.177   5.234   9.901 -0.3983 -0.1534  0.0900
  934MOL0     C23179   4.034   5.250   9.859  0.1543 -0.1776 -1.3598
  934MOL0     O23180   3.978   5.117   9.838 -0.4037 -0.5638  0.4293
  934MOL0     C23181   3.880   5.117   9.740 -1.1936  0.5888 -0.4032
  934MOL0     C23182   3.791   5.218   9.702  0.1049  0.3788  1.2465
  934MOL0     C23183   3.689   5.195   9.603 -0.1246  0.1111 -0.6140
  934MOL0     C23184   3.685   5.071   9.545  0.0025  0.4649  0.7785
  934MOL0     C23185   3.584   5.048   9.439 -0.7382  0.1309 -0.2670
  934MOL0     O23186   3.573   4.921   9.384  0.4240 -0.4417 -0.2828
  934MOL0     C23187   3.481   4.890   9.296 -0.4947 -0.3646 -0.1459
  934MOL0     C23188   3.394   4.778   9.306 -0.7899  0.1936 -1.0003
  934MOL0     C23189   3.297   4.742   9.218  0.1306 -0.8040 -0.4868
  934MOL0     C23190   3.270   4.821   9.112 -0.8137  0.4025 -0.2941
  934MOL0     O23191   3.161   4.816   9.032  0.1316  0.9855 -0.0252
  934MOL0     C23192   3.158   4.708   8.939  0.4483  0.7525 -0.2737
  934MOL0     C23193   3.016   4.694   8.880  0.5221 -0.6529 -0.4777
  934MOL0     C23194   3.001   4.578   8.788 -0.7332 -0.1135  0.2036
  934MOL0     C23195   2.849   4.582   8.745  0.0844 -0.4010  1.1957
  934MOL0     C23196   2.830   4.453   8.667  0.4836  1.1587 -0.2413
  934MOL0     C23197   2.681   4.445   8.622 -0.0571  0.8815  0.0922
  934MOL0     C23198   2.657   4.355   8.507  1.0758  0.2450 -0.5053
  934MOL0     C23199   2.657   4.212   8.555 -0.5243  0.3631 -0.4536
  934MOL0    Cl23200   2.609   4.120   8.415 -0.4029 -0.3379  0.1706
  934MOL0     C23201   3.353   4.934   9.092 -0.8711  0.2995 -0.0089
  934MOL0     C23202   3.459   4.969   9.178  0.6751  0.8670 -1.0860
  934MOL0     O23203   3.503   5.131   9.433 -0.6739  0.6420  1.3329
  934MOL0     C23204   3.770   4.969   9.584 -1.0359  0.0885  0.3229
  934MOL0     C23205   3.866   4.990   9.681  0.2422 -0.0754 -0.1865
  934MOL0     N23206   4.245   5.117  10.367 -0.1378 -0.2363  0.0161
  934MOL0     N23207   4.245   5.020  10.457  0.8240 -0.5061  0.5998
  934MOL0     C23208   4.553   4.681   9.706  0.3889 -0.0779 -0.7156
  934MOL0     C23209   4.618   4.802   9.684 -1.0495  0.1089  1.3404
  934MOL0     C23210   4.722   5.242   9.791 -0.0667  0.2187 -0.2529
  934MOL0     C23211   4.773   5.303   9.906 -0.1828  0.6041 -0.0261
  934MOL0     C23212   4.807   5.442   9.906  1.2967  0.1369  0.1847
  934MOL0     C23213   4.775   5.526   9.793  0.6321 -0.5749 -1.3087
  934MOL0     O23214   4.802   5.658   9.776 -0.3465  0.0871 -0.3349
  934MOL0     C23215   4.896   5.715   9.864  1.4619  0.6203  0.0544
  934MOL0     C23216   4.963   5.850   9.818 -0.1251  0.0005  0.0179
  934MOL0     C23217   5.105   5.881   9.860 -0.5416 -0.1859  0.1984
  934MOL0     C23218   5.126   6.041   9.861 -0.3224  0.9076  0.7076
  934MOL0     C23219   5.141   6.095   9.729 -0.3102 -1.3713 -0.3205
  934MOL0     C23220   5.134   6.151   9.629  0.2775  0.1696  0.0109
  934MOL0     C23221   4.716   5.458   9.686  0.2485  0.6264  0.2411
  934MOL0     C23222   4.689   5.318   9.680  0.1846  0.1757 -0.3808
  934MOL0     H23223   4.376   5.023   9.784 -2.2136 -0.7267 -0.0941
  934MOL0     H23224   4.263   4.796   9.829 -0.9139 -0.3863 -1.4642
  934MOL0     H23225   4.479   4.410   9.702  0.6197 -0.1681  0.1283
  934MOL0     H23226   4.378   4.359   9.818  0.9253 -0.0741  0.0945
  934MOL0     H23227   4.636   4.507   9.897 -2.0229  1.9132 -0.7544
  934MOL0     H23228   4.596   4.340   9.933 -0.6765 -0.5559 -0.6995
  934MOL0     H23229   4.403   4.459  10.078  0.1355  4.2838  1.6603
  934MOL0     H23230   4.500   4.594  10.047  0.5417 -0.5938 -0.4886
  934MOL0     H23231   4.637   4.366  10.184  3.4724  1.5593  0.2780
  934MOL0     H23232   4.697   4.522  10.161 -2.9502  4.2436  0.4824
  934MOL0     H23233   4.583   4.493  10.391  2.2134  1.5735 -0.3110
  934MOL0     H23234   4.432   4.463  10.302  3.7142 -7.3832 -1.5888
  934MOL0     H23235   4.414   4.679  10.243  1.0624  0.9564 -1.1252
  934MOL0     H23236   4.579   4.728  10.275  0.0220  0.1171 -0.0542
  934MOL0     H23237   4.470   4.638  10.518  3.9591  0.9287  1.5715
  934MOL0     H23238   4.521   4.796  10.500  1.4192 -0.9152  0.8132
  934MOL0     H23239   4.280   4.783  10.546 -1.1048 -1.0186 -0.0247
  934MOL0     H23240   4.258   4.705  10.384 -2.7871  0.5929  2.0821
  934MOL0     H23241   4.373   4.885  10.175  0.1201  1.3857 -0.0897
  934MOL0     H23242   4.400   5.140  10.080 -0.4386 -0.0839 -2.6754
  934MOL0     H23243   4.280   5.253  10.152 -0.6954  0.1442 -1.2164
  934MOL0     H23244   4.115   5.073  10.047  0.6845  2.3715  4.1265
  934MOL0     H23245   4.257   5.036   9.944 -2.6900 -0.5427 -2.7702
  934MOL0     H23246   4.221   5.331   9.925  1.5533 -0.5212 -1.6623
  934MOL0     H23247   4.232   5.206   9.810  2.0450  2.7333  0.4979
  934MOL0     H23248   4.028   5.314   9.771 -1.7241  0.9732 -0.4410
  934MOL0     H23249   3.971   5.282   9.942  2.3229  0.0008  0.2870
  934MOL0     H23250   3.794   5.320   9.739  0.2533  0.3407  1.3385
  934MOL0     H23251   3.621   5.278   9.590  3.8395  4.1123  1.3699
  934MOL0     H23252   3.402   4.711   9.391 -0.7108 -0.0682 -1.2156
  934MOL0     H23253   3.246   4.647   9.234 -1.7916  0.3186  0.3535
  934MOL0     H23254   3.188   4.613   8.983 -2.7346 -0.3318 -0.1695
  934MOL0     H23255   3.224   4.714   8.852  1.8260 -0.8579  0.5939
  934MOL0     H23256   2.992   4.785   8.824 -2.2904 -0.0820  1.4676
  934MOL0     H23257   2.949   4.705   8.966 -1.8430  5.3114 -2.5112
  934MOL0     H23258   3.023   4.484   8.840 -1.0603 -2.0648 -2.8991
  934MOL0     H23259   3.081   4.575   8.713 -2.2612 -3.4391 -1.5388
  934MOL0     H23260   2.778   4.579   8.829 -0.8643 -3.2528  0.3873
  934MOL0     H23261   2.829   4.668   8.680  0.1957 -1.8859 -0.8844
  934MOL0     H23262   2.849   4.359   8.720 -2.2734  0.0016 -1.1369
  934MOL0     H23263   2.892   4.460   8.577  1.7470 -2.7565  0.1460
  934MOL0     H23264   2.645   4.544   8.595 -1.6926 -0.2995 -2.4088
  934MOL0     H23265   2.626   4.399   8.704 -0.7423 -1.8445 -1.7514
  934MOL0     H23266   2.558   4.373   8.465  0.0600 -0.5077  1.4503
  934MOL0     H23267   2.737   4.373   8.434  1.9783 -0.1432  0.3571
  934MOL0     H23268   2.584   4.205   8.637  0.3709  0.3961  0.3595
  934MOL0     H23269   2.753   4.182   8.597 -1.2586  0.0736  1.1128
  934MOL0     H23270   3.338   5.003   9.009  0.3338 -0.8850 -1.2682
  934MOL0     H23271   3.522   5.056   9.162  0.0067  2.0142  1.9724
  934MOL0     H23272   3.768   4.870   9.540 -0.3612  0.2653 -0.1265
  934MOL0     H23273   3.929   4.907   9.711 -1.3726 -1.2187  0.1456
  934MOL0     H23274   4.616   4.595   9.684  0.0772  0.6799 -5.4924
  934MOL0     H23275   4.709   4.807   9.625 -1.4123  0.0010  0.7683
  934MOL0     H23276   4.791   5.245   9.996 -1.4919  2.1397  1.2787
  934MOL0     H23277   4.844   5.484   9.999 -0.7769  0.6963  0.8320
  934MOL0     H23278   4.983   5.649   9.865  1.5333  0.7176  0.2284
  934MOL0     H23279   4.857   5.732   9.965 -2.3326  2.1734 -1.4647
  934MOL0     H23280   4.957   5.851   9.708 -2.3621 -0.7156  0.0870
  934MOL0     H23281   4.897   5.932   9.847  1.4367  1.0290  0.8116
  934MOL0     H23282   5.180   5.834   9.796 -0.9847  0.0908 -0.5243
  934MOL0     H23283   5.128   5.847   9.962 -2.1975 -0.6864  0.4352
  934MOL0     H23284   5.042   6.096   9.904 -2.4328 -0.0534 -1.8957
  934MOL0     H23285   5.217   6.060   9.919  0.3438  0.1387 -0.0679
  934MOL0     H23286   5.136   6.195   9.531 -1.3838  0.9197  0.2740
  934MOL0     H23287   4.693   5.517   9.597  0.7217 -0.1495 -0.4104
  934MOL0     H23288   4.643   5.280   9.590  2.9169 -2.6835 -0.7402
  935MOL0     O23289   1.135   9.225   1.327  0.0326  0.1911  0.2048
  935MOL0     C23290   1.150   9.133   1.247 -0.2525 -0.9881  0.0910
  935MOL0     O23291   1.115   9.008   1.264  0.2024 -0.1540  0.4283
  935MOL0     C23292   1.071   8.967   1.387 -0.0319 -0.2521  0.4115
  935MOL0     C23293   1.160   8.945   1.486  0.3854  0.2579  0.1686
  935MOL0     C23294   1.122   8.935   1.613  0.5548 -0.2749  0.0650
  935MOL0     C23295   0.984   8.925   1.645 -0.3712 -0.7733 -0.1425
  935MOL0     O23296   0.933   8.911   1.772 -0.1877 -0.2952  0.7295
  935MOL0     C23297   1.006   8.960   1.883  1.3516  0.5591  0.2615
  935MOL0     C23298   0.925   8.941   2.012 -0.8174 -0.1482  0.9222
  935MOL0     C23299   0.917   8.794   2.064 -0.1205 -0.4582 -0.8666
  935MOL0     C23300   0.841   8.780   2.189  0.2987  0.2859  0.0868
  935MOL0     C23301   0.822   8.638   2.254  0.2592 -0.4088 -0.1607
  935MOL0     C23302   0.948   8.564   2.274  1.0745 -0.2370  0.0760
  935MOL0     C23303   0.986   8.467   2.153 -0.2530 -0.7234  0.6037
  935MOL0     C23304   0.879   8.354   2.139 -0.2690 -0.5316 -1.0130
  935MOL0     N23305   0.927   8.261   2.042 -0.4156  0.0718  0.0361
  935MOL0     C23306   1.028   8.166   2.072  0.2041  0.3432 -0.1840
  935MOL0     C23307   1.042   8.093   1.959  0.0167  0.1763 -0.8308
  935MOL0     C23308   1.137   7.986   1.955 -0.6206  0.1056 -0.2589
  935MOL0     C23309   1.282   8.027   1.989  0.3144  0.4207 -0.2934
  935MOL0     C23310   1.374   7.925   1.916 -0.0253 -0.1114  0.2370
  935MOL0     C23311   1.336   7.782   1.890 -0.0525  0.2709  0.2684
  935MOL0     O23312   1.283   7.719   2.012 -0.9411 -0.6903  0.2210
  935MOL0     C23313   1.232   7.589   1.991 -0.6024  1.2725  0.0889
  935MOL0     C23314   1.233   7.518   1.863 -0.3721 -0.1181  0.2643
  935MOL0     C23315   1.196   7.387   1.856 -0.5408 -0.4865 -0.1591
  935MOL0     C23316   1.123   7.330   1.958  0.0754 -0.3755  0.2624
  935MOL0     C23317   1.041   7.213   1.940  0.0856  1.2555 -0.5192
  935MOL0     O23318   0.946   7.198   2.029  0.8971  0.3659  0.0587
  935MOL0     C23319   0.900   7.064   2.040  0.6257 -0.1214 -0.3099
  935MOL0     C23320   0.977   6.948   2.050 -0.7782 -0.9229 -0.2050
  935MOL0     C23321   0.922   6.819   2.053 -0.8199  0.2754 -0.6259
  935MOL0     C23322   0.788   6.803   2.079  0.3422  0.0841 -0.4794
  935MOL0     O23323   0.741   6.681   2.107 -0.2645  0.3490 -0.8941
  935MOL0     C23324   0.780   6.578   2.016  0.6036  0.2053 -0.1606
  935MOL0     C23325   0.673   6.467   2.007  0.1706  0.0793 -0.3363
  935MOL0     C23326   0.530   6.503   1.967 -0.9109 -0.3094 -0.6895
  935MOL0     C23327   0.430   6.382   1.982 -0.5318 -0.0769 -0.5207
  935MOL0     C23328   0.292   6.437   2.037  0.1803 -0.0241 -0.0546
  935MOL0     C23329   0.295   6.480   2.184 -0.3007 -0.3266  0.0287
  935MOL0     C23330   0.160   6.531   2.231 -0.9419 -0.1227 -0.6586
  935MOL0     C23331   0.046   6.438   2.246  0.6622 -1.2444  0.1130
  935MOL0    Cl23332   0.060   6.324   2.376  0.1477 -0.0956  0.3904
  935MOL0     C23333   0.702   6.911   2.077  0.5423  0.0022 -0.3503
  935MOL0     C23334   0.760   7.041   2.046 -0.2387  0.0435 -1.0656
  935MOL0     O23335   1.079   7.130   1.860 -0.2598  0.1843 -0.7915
  935MOL0     C23336   1.103   7.409   2.075  0.0814 -0.3910  0.5479
  935MOL0     C23337   1.157   7.535   2.089 -0.2331  0.0256 -0.5165
  935MOL0     N23338   0.950   8.153   1.869 -0.0555  0.6198  0.7104
  935MOL0     N23339   0.887   8.248   1.913 -0.2947  0.2336 -0.2539
  935MOL0     C23340   0.895   8.953   1.545 -1.1361  0.1995 -0.8003
  935MOL0     C23341   0.938   8.985   1.414 -0.2825 -0.3186 -0.2720
  935MOL0     C23342   1.248   9.153   1.138  1.3275 -0.1119  0.1579
  935MOL0     C23343   1.275   9.283   1.093  0.4933  0.0095  0.2325
  935MOL0     C23344   1.361   9.306   0.985  0.3069 -0.2825  0.7791
  935MOL0     C23345   1.429   9.197   0.930  0.9170 -0.0005  0.7861
  935MOL0     O23346   1.512   9.239   0.831 -0.2097  0.5299  0.0410
  935MOL0     C23347   1.609   9.142   0.772  0.5226 -0.4474  0.1978
  935MOL0     C23348   1.650   9.208   0.638  1.1623 -0.0270  0.6958
  935MOL0     C23349   1.723   9.339   0.639 -0.3689  0.1772 -0.2416
  935MOL0     C23350   1.823   9.353   0.759  0.1017  2.0294  0.1827
  935MOL0     C23351   1.924   9.243   0.763  0.2087 -1.1471 -0.0081
  935MOL0     C23352   2.002   9.159   0.791 -1.3082 -0.0160  0.1641
  935MOL0     C23353   1.400   9.063   0.968 -0.5150  0.2919 -1.7240
  935MOL0     C23354   1.311   9.041   1.071  0.0462 -0.7482 -0.0388
  935MOL0     H23355   1.264   8.942   1.454  0.3399  1.6371 -0.1797
  935MOL0     H23356   1.202   8.926   1.686 -1.0600  0.2139  1.9516
  935MOL0     H23357   1.049   9.060   1.869 -2.9752  2.7112  0.8975
  935MOL0     H23358   1.100   8.903   1.893  1.3546  0.4615 -0.2974
  935MOL0     H23359   0.822   8.978   2.000 -0.1986  1.2384 -0.4795
  935MOL0     H23360   0.976   9.001   2.087  2.8714 -2.0111  0.1531
  935MOL0     H23361   1.015   8.747   2.058  1.5323  2.7137 -1.1595
  935MOL0     H23362   0.858   8.741   1.989 -1.8498  1.7138 -1.1708
  935MOL0     H23363   0.894   8.838   2.266 -0.1268  3.3400 -1.7728
  935MOL0     H23364   0.742   8.824   2.174  0.0516 -0.6913 -1.2559
  935MOL0     H23365   0.762   8.585   2.179  0.5972  0.2123 -0.8879
  935MOL0     H23366   0.749   8.641   2.336 -0.5415 -0.7790 -0.8404
  935MOL0     H23367   0.941   8.515   2.372  5.2290 -1.0062  0.1895
  935MOL0     H23368   1.033   8.632   2.289 -0.3274  1.8743 -1.1814
  935MOL0     H23369   1.006   8.513   2.056  1.5903 -1.5783  0.5457
  935MOL0     H23370   1.076   8.421   2.193  0.9821 -0.2285 -1.4669
  935MOL0     H23371   0.790   8.408   2.103 -1.2157 -0.6257  1.0271
  935MOL0     H23372   0.853   8.294   2.226  1.0265 -0.6157 -0.6645
  935MOL0     H23373   1.088   8.144   2.159  2.9661 -1.1977 -2.3504
  935MOL0     H23374   1.132   7.938   1.857  1.1317  1.1949 -0.9335
  935MOL0     H23375   1.111   7.913   2.032  1.6113 -1.9178 -1.3003
  935MOL0     H23376   1.302   8.037   2.096 -1.0790 -0.8712  0.1222
  935MOL0     H23377   1.298   8.129   1.954 -3.8868  1.3413 -0.0046
  935MOL0     H23378   1.397   7.956   1.813 -0.6811  0.6016  0.2973
  935MOL0     H23379   1.467   7.935   1.973 -1.4297  0.3492  2.6006
  935MOL0     H23380   1.426   7.738   1.846 -0.0539  0.4675  0.0663
  935MOL0     H23381   1.254   7.788   1.819  2.9360  0.5773 -3.5160
  935MOL0     H23382   1.278   7.578   1.785  1.7936  0.6117  1.9696
  935MOL0     H23383   1.213   7.341   1.759  1.4652 -1.3167  0.5425
  935MOL0     H23384   1.085   6.961   2.053 -1.0188  1.5560  0.8326
  935MOL0     H23385   0.980   6.729   2.068 -0.6680  0.5817  0.8291
  935MOL0     H23386   0.866   6.519   2.047  0.0416 -1.8213 -2.1739
  935MOL0     H23387   0.801   6.610   1.913  3.6249 -1.7850 -0.2945
  935MOL0     H23388   0.666   6.442   2.114 -0.8188 -0.1968 -0.4529
  935MOL0     H23389   0.698   6.376   1.951 -1.1749  0.3955 -1.5123
  935MOL0     H23390   0.533   6.535   1.863 -0.4855 -1.2298 -0.9678
  935MOL0     H23391   0.504   6.593   2.023  1.6420 -0.2153  0.4719
  935MOL0     H23392   0.409   6.334   1.886 -0.5224  1.3001 -1.2402
  935MOL0     H23393   0.477   6.307   2.047 -4.0816  1.2266  4.1573
  935MOL0     H23394   0.211   6.365   2.025  0.1630 -0.0499  0.1949
  935MOL0     H23395   0.280   6.527   1.977  1.2618  0.2996  0.1820
  935MOL0     H23396   0.365   6.563   2.190 -1.2844  0.5664 -0.5125
  935MOL0     H23397   0.331   6.396   2.245 -0.9722 -0.1093  0.7485
  935MOL0     H23398   0.179   6.566   2.332 -3.8934 -0.8759  0.2582
  935MOL0     H23399   0.133   6.616   2.167  0.1903 -0.4074 -1.5480
  935MOL0     H23400   0.024   6.390   2.150 -3.3196 -0.8270  0.6762
  935MOL0     H23401  -0.043   6.493   2.275  0.9553 -1.2473  1.0487
  935MOL0     H23402   0.594   6.906   2.091 -0.0914 -1.0616 -4.4070
  935MOL0     H23403   0.693   7.126   2.051  0.6451  0.6982  1.1029
  935MOL0     H23404   1.041   7.367   2.154  0.6390 -1.6896  0.3217
  935MOL0     H23405   1.127   7.582   2.182 -1.4795  2.2446 -1.9351
  935MOL0     H23406   0.794   8.964   1.583  0.0695  1.2137  2.4814
  935MOL0     H23407   0.877   9.018   1.331  0.6554  0.9935 -0.4653
  935MOL0     H23408   1.212   9.358   1.140 -3.8538 -4.5147  2.5907
  935MOL0     H23409   1.380   9.397   0.930 -0.1747 -0.6229  0.0339
  935MOL0     H23410   1.576   9.040   0.750  0.8365 -0.5395  0.1543
  935MOL0     H23411   1.689   9.133   0.846  0.7874  1.8870  0.2831
  935MOL0     H23412   1.714   9.139   0.582 -0.0305 -1.9140  1.5708
  935MOL0     H23413   1.566   9.206   0.569  1.2331  1.4121  0.5450
  935MOL0     H23414   1.644   9.414   0.653  1.1718  1.6394  1.0479
  935MOL0     H23415   1.757   9.363   0.538 -0.2746  0.2116 -0.2016
  935MOL0     H23416   1.874   9.448   0.740  1.0090  1.5300  0.0686
  935MOL0     H23417   1.775   9.372   0.856 -0.2318  2.2371 -0.0227
  935MOL0     H23418   2.085   9.091   0.799  1.8164  3.2754 -1.6361
  935MOL0     H23419   1.454   8.982   0.919  3.4945  2.5397 -1.4917
  935MOL0     H23420   1.302   8.941   1.111 -1.2271  0.2492  2.3451
  936MOL0     O23421   8.158   0.320   3.703  0.4839  0.9477  0.0864
  936MOL0     C23422   8.280   0.317   3.682  0.6031  0.4395 -0.3852
  936MOL0     O23423   8.358   0.210   3.731 -0.3866 -0.0495  0.0380
  936MOL0     C23424   8.301   0.120   3.824 -0.2274 -0.2420 -0.5659
  936MOL0     C23425   8.302   0.168   3.953  0.2105  0.2305 -0.4695
  936MOL0     C23426   8.252   0.079   4.055  1.3504 -0.4905 -0.4467
  936MOL0     C23427   8.215  -0.044   4.021 -0.0118 -0.7802 -0.1002
  936MOL0     O23428   8.189  -0.129   4.126 -0.9832 -0.2956  0.6098
  936MOL0     C23429   8.057  -0.177   4.146 -1.5655 -1.0630  0.2397
  936MOL0     C23430   8.033  -0.318   4.082  0.5764 -0.5414 -0.0056
  936MOL0     C23431   7.887  -0.357   4.048 -0.4300  0.9538  0.8721
  936MOL0     C23432   7.883  -0.493   3.984  0.6278  0.4692 -0.0705
  936MOL0     C23433   7.750  -0.554   4.017 -0.6015  0.5499 -0.3988
  936MOL0     C23434   7.773  -0.641   4.143  0.3291  0.2394 -0.1617
  936MOL0     C23435   7.817  -0.786   4.106 -0.0171 -0.1931  1.1156
  936MOL0     C23436   7.702  -0.891   4.119  0.1190 -0.3400  0.0886
  936MOL0     N23437   7.650  -0.899   4.255 -0.5534  0.0445  0.7055
  936MOL0     C23438   7.694  -0.965   4.368  0.2456  0.8813 -0.1661
  936MOL0     C23439   7.597  -0.954   4.458  0.1671 -0.1333  0.7440
  936MOL0     C23440   7.598  -1.019   4.592  0.0610  0.2186  0.5267
  936MOL0     C23441   7.648  -1.161   4.581  0.0019  0.5974 -0.4173
  936MOL0     C23442   7.566  -1.269   4.515 -0.8343  0.6034  0.7136
  936MOL0     C23443   7.421  -1.275   4.553 -0.5602 -0.1074 -0.4800
  936MOL0     O23444   7.408  -1.329   4.691 -0.4113 -0.3220  0.2858
  936MOL0     C23445   7.304  -1.420   4.714 -0.4723 -1.0930 -0.6388
  936MOL0     C23446   7.336  -1.538   4.785  0.6030 -0.1426 -1.1644
  936MOL0     C23447   7.244  -1.638   4.828 -1.0019 -0.7682  0.3780
  936MOL0     C23448   7.113  -1.621   4.788 -0.3143  0.2752 -0.4600
  936MOL0     C23449   7.021  -1.737   4.808 -0.1510  0.5266  0.6365
  936MOL0     O23450   6.885  -1.706   4.819  0.3656  1.2368 -0.1693
  936MOL0     C23451   6.806  -1.814   4.826  0.1068  0.2016  0.0905
  936MOL0     C23452   6.802  -1.874   4.946 -0.7797  0.5210 -0.0325
  936MOL0     C23453   6.717  -1.986   4.963 -0.0141 -0.1835 -0.3735
  936MOL0     C23454   6.643  -2.037   4.853 -0.0739  0.7331 -1.0201
  936MOL0     O23455   6.554  -2.140   4.875  0.1517 -0.8500  0.0340
  936MOL0     C23456   6.448  -2.163   4.779  0.6032  0.5300 -0.4187
  936MOL0     C23457   6.351  -2.255   4.854 -0.7797 -0.4490  0.5428
  936MOL0     C23458   6.239  -2.319   4.762 -1.3148 -0.4815 -0.2286
  936MOL0     C23459   6.171  -2.438   4.833 -0.0297 -0.3779 -0.4178
  936MOL0     C23460   6.033  -2.475   4.770  0.1145  0.2778  0.0018
  936MOL0     C23461   5.913  -2.372   4.780 -0.8452  0.9179 -0.0882
  936MOL0     C23462   5.881  -2.341   4.933  0.2425  0.5227 -0.1511
  936MOL0     C23463   5.805  -2.209   4.962  0.4721  0.3265 -0.0796
  936MOL0    Cl23464   5.908  -2.071   4.943 -0.1093 -0.5620  0.4894
  936MOL0     C23465   6.650  -1.970   4.734 -0.4346 -0.0263  0.0488
  936MOL0     C23466   6.727  -1.864   4.718 -0.1093  0.2040 -0.4216
  936MOL0     O23467   7.075  -1.845   4.801 -0.1733 -0.0739  0.2535
  936MOL0     C23468   7.074  -1.502   4.716  0.3895 -0.0658 -0.3059
  936MOL0     C23469   7.173  -1.401   4.683 -0.0483 -0.2451  0.3480
  936MOL0     N23470   7.493  -0.885   4.396 -0.4317 -0.3211 -0.1971
  936MOL0     N23471   7.524  -0.853   4.273 -0.5626  0.1951  0.5071
  936MOL0     C23472   8.205  -0.085   3.889 -0.6093  1.1483  1.3564
  936MOL0     C23473   8.250  -0.002   3.792 -0.3580  0.4843 -0.1956
  936MOL0     C23474   8.332   0.419   3.588 -0.7260 -0.2133  0.2350
  936MOL0     C23475   8.252   0.476   3.493  0.3756 -0.3643 -0.2852
  936MOL0     C23476   8.299   0.565   3.402  0.2319 -0.2466 -0.7938
  936MOL0     C23477   8.431   0.594   3.410  0.6949  0.0311  0.6615
  936MOL0     O23478   8.496   0.688   3.323  0.0139  0.3656 -0.5344
  936MOL0     C23479   8.439   0.764   3.214 -0.3331 -0.8323 -0.9240
  936MOL0     C23480   8.388   0.898   3.260 -0.1532 -0.8402  0.1305
  936MOL0     C23481   8.499   0.970   3.328  0.7965 -0.3606  0.5388
  936MOL0     C23482   8.462   1.107   3.374 -0.8232 -0.0257 -0.9102
  936MOL0     C23483   8.459   1.194   3.257  0.0541  0.7288  0.0708
  936MOL0     C23484   8.465   1.241   3.148  0.4038 -0.3274  0.5188
  936MOL0     C23485   8.519   0.524   3.492 -0.2392 -0.0081 -0.0206
  936MOL0     C23486   8.470   0.438   3.585  0.2869  0.0685 -0.2398
  936MOL0     H23487   8.334   0.268   3.979 -2.2175  0.6084  1.4915
  936MOL0     H23488   8.252   0.116   4.157  1.3158 -0.5805 -0.4143
  936MOL0     H23489   7.990  -0.098   4.109  1.6633  1.9560  0.3122
  936MOL0     H23490   8.047  -0.188   4.255 -1.3648  0.4686  0.4426
  936MOL0     H23491   8.088  -0.395   4.136  0.4155 -1.4059 -1.0303
  936MOL0     H23492   8.082  -0.322   3.984  3.9712  0.6704  1.4850
  936MOL0     H23493   7.833  -0.286   3.984  0.7542  1.4248  0.3670
  936MOL0     H23494   7.828  -0.352   4.140 -1.4565 -5.9958  1.1717
  936MOL0     H23495   7.884  -0.477   3.876  0.7728  2.1906  0.1505
  936MOL0     H23496   7.970  -0.557   4.000  2.9233  3.5602  0.6698
  936MOL0     H23497   7.718  -0.616   3.933 -2.9414  1.0705  0.0130
  936MOL0     H23498   7.665  -0.484   4.026 -3.6409 -2.6751 -1.6745
  936MOL0     H23499   7.679  -0.647   4.200  0.1412 -1.0291 -0.5735
  936MOL0     H23500   7.845  -0.599   4.213  1.0208  1.0481 -1.3331
  936MOL0     H23501   7.850  -0.775   4.003  3.7689  2.0815  2.3840
  936MOL0     H23502   7.910  -0.812   4.156 -0.2821 -0.0114  1.7201
  936MOL0     H23503   7.754  -0.983   4.091  4.0763  1.9340 -0.7415
  936MOL0     H23504   7.628  -0.882   4.039  0.2323  0.6828  0.0902
  936MOL0     H23505   7.788  -1.019   4.373 -0.5438 -0.7958 -2.0886
  936MOL0     H23506   7.497  -1.024   4.634 -0.0080 -1.0561  0.2504
  936MOL0     H23507   7.658  -0.964   4.666  1.7853  0.2117 -0.8031
  936MOL0     H23508   7.665  -1.191   4.685  2.6910  2.2715 -0.2985
  936MOL0     H23509   7.741  -1.162   4.525 -0.7058 -1.0167 -1.6275
  936MOL0     H23510   7.557  -1.241   4.409  1.4010  0.3001  0.4011
  936MOL0     H23511   7.620  -1.364   4.510  0.8435  1.4844 -4.5087
  936MOL0     H23512   7.362  -1.337   4.485 -5.1609  3.2518  0.0074
  936MOL0     H23513   7.373  -1.178   4.538  1.7541  0.9299 -1.7431
  936MOL0     H23514   7.438  -1.550   4.818  0.1252  2.7141  1.8367
  936MOL0     H23515   7.261  -1.730   4.883 -2.2181 -0.3888  1.4335
  936MOL0     H23516   6.855  -1.829   5.029 -1.7584 -0.4114  1.1526
  936MOL0     H23517   6.721  -2.032   5.061 -1.5565 -1.1310 -0.7176
  936MOL0     H23518   6.479  -2.212   4.686  0.5565  0.7069 -0.5289
  936MOL0     H23519   6.397  -2.068   4.761 -1.1805 -0.5113 -1.1366
  936MOL0     H23520   6.311  -2.192   4.934 -0.2857  3.6349 -2.1178
  936MOL0     H23521   6.401  -2.341   4.899  1.1078  1.3734  2.1287
  936MOL0     H23522   6.285  -2.363   4.674 -1.6669  1.9359 -1.7105
  936MOL0     H23523   6.170  -2.246   4.719  0.3500 -0.5605 -3.2971
  936MOL0     H23524   6.239  -2.522   4.816  1.1569  0.9289 -2.8971
  936MOL0     H23525   6.161  -2.428   4.941 -1.1776  1.7016 -0.6560
  936MOL0     H23526   5.999  -2.560   4.830  1.3313  0.6155  1.2413
  936MOL0     H23527   6.039  -2.505   4.665 -0.4278 -0.1312  0.0837
  936MOL0     H23528   5.828  -2.417   4.729 -0.9206 -0.1972  0.9600
  936MOL0     H23529   5.933  -2.275   4.734 -0.9211  0.8609 -0.2413
  936MOL0     H23530   5.832  -2.432   4.968 -0.7353  1.5206  1.1953
  936MOL0     H23531   5.970  -2.336   4.996 -1.8994 -5.1282  4.2016
  936MOL0     H23532   5.765  -2.215   5.063 -2.9903  0.5305 -1.2774
  936MOL0     H23533   5.713  -2.204   4.902 -2.4249  0.5985  3.9702
  936MOL0     H23534   6.604  -2.005   4.641  2.3123 -1.9730 -0.7323
  936MOL0     H23535   6.744  -1.837   4.614 -2.4046 -1.1503 -1.2224
  936MOL0     H23536   6.973  -1.471   4.691 -1.1790 -1.3849  3.5494
  936MOL0     H23537   7.148  -1.318   4.618 -0.9226 -1.1575 -0.5106
  936MOL0     H23538   8.180  -0.183   3.850 -1.8795  2.2917 -0.9319
  936MOL0     H23539   8.251  -0.051   3.695 -1.1097 -1.1364  0.5892
  936MOL0     H23540   8.146   0.454   3.495 -0.2500  2.1003 -1.3239
  936MOL0     H23541   8.224   0.601   3.332 -0.9097 -0.3864  0.3165
  936MOL0     H23542   8.354   0.708   3.173 -3.0208  1.5826  0.9440
  936MOL0     H23543   8.518   0.766   3.139  2.4576  0.6640  1.8421
  936MOL0     H23544   8.358   0.956   3.173  1.6834 -1.4568 -0.9701
  936MOL0     H23545   8.309   0.884   3.334 -1.7528  1.2586 -1.0981
  936MOL0     H23546   8.593   0.976   3.273 -0.5721 -0.4639 -1.9411
  936MOL0     H23547   8.506   0.913   3.421  1.0288 -1.0882  0.0834
  936MOL0     H23548   8.366   1.106   3.428 -0.8975  4.9315 -0.5681
  936MOL0     H23549   8.532   1.155   3.443  0.1043  1.1891 -2.6468
  936MOL0     H23550   8.466   1.289   3.052  0.8621  1.9257  1.5730
  936MOL0     H23551   8.625   0.540   3.472 -0.1544  1.7049  1.4295
  936MOL0     H23552   8.533   0.383   3.654 -0.5053  1.8385  2.0081
  937MOL0     O23553   5.383   4.447   4.386  0.0485 -1.1206 -1.4374
  937MOL0     C23554   5.413   4.437   4.504 -0.0683  0.4297 -1.0183
  937MOL0     O23555   5.329   4.430   4.611  0.1146 -0.6217  0.0323
  937MOL0     C23556   5.246   4.326   4.609 -0.1567  0.1547  0.7948
  937MOL0     C23557   5.249   4.218   4.523 -0.3620  0.1510  0.3393
  937MOL0     C23558   5.171   4.105   4.541 -0.6228 -0.1544  1.0246
  937MOL0     C23559   5.082   4.097   4.646  0.5429  0.4914 -0.0818
  937MOL0     O23560   5.005   3.988   4.663 -0.5039 -0.0472 -0.1772
  937MOL0     C23561   5.046   3.864   4.608  0.0677 -0.0236 -0.0862
  937MOL0     C23562   4.963   3.755   4.683  0.1422 -0.0763 -0.1003
  937MOL0     C23563   4.816   3.765   4.664 -1.3783  0.7523 -0.0815
  937MOL0     C23564   4.751   3.657   4.757 -0.3039 -1.0328 -0.1419
  937MOL0     C23565   4.606   3.672   4.806  0.3884 -0.2504 -0.4479
  937MOL0     C23566   4.591   3.818   4.849  0.7244 -0.6892 -0.3243
  937MOL0     C23567   4.469   3.846   4.944 -0.6874 -0.2448  0.8007
  937MOL0     C23568   4.346   3.772   4.895  0.1774  0.6186  0.7078
  937MOL0     N23569   4.238   3.800   4.985  0.7758  0.4451  0.8404
  937MOL0     C23570   4.104   3.800   4.948  0.1541 -1.3567 -1.2228
  937MOL0     C23571   4.035   3.805   5.063  0.5050  0.0252 -0.2484
  937MOL0     C23572   3.884   3.816   5.076 -0.3196 -0.4416  0.4891
  937MOL0     C23573   3.829   3.943   5.156  0.4471 -0.3429 -0.1368
  937MOL0     C23574   3.812   4.079   5.086  0.3262 -0.7339  0.9086
  937MOL0     C23575   3.950   4.150   5.056  0.1530  0.2398  0.3437
  937MOL0     O23576   3.942   4.232   4.934 -0.8511  0.2103 -0.0992
  937MOL0     C23577   3.886   4.352   4.944  0.2160  0.0366  0.2426
  937MOL0     C23578   3.744   4.365   4.963 -0.3618  0.3013 -0.4260
  937MOL0     C23579   3.688   4.491   4.970  0.2758 -1.4632  0.4251
  937MOL0     C23580   3.759   4.608   4.956  0.0408 -0.0562  0.7278
  937MOL0     C23581   3.692   4.741   4.961  0.3830  0.7276  0.2276
  937MOL0     O23582   3.567   4.751   5.004  0.7842 -0.2057  0.9321
  937MOL0     C23583   3.500   4.865   4.966  0.2731 -0.5863 -0.1571
  937MOL0     C23584   3.450   4.939   5.081 -1.5884  1.1882  0.2124
  937MOL0     C23585   3.376   5.055   5.069 -0.5795 -0.1741  0.9925
  937MOL0     C23586   3.349   5.109   4.948 -0.6153 -0.8081 -0.7730
  937MOL0     O23587   3.284   5.233   4.950  0.2549  0.0651  0.5467
  937MOL0     C23588   3.144   5.230   4.932 -0.8302 -1.1163 -0.3709
  937MOL0     C23589   3.080   5.362   4.962  0.0269 -0.5758 -0.0756
  937MOL0     C23590   2.928   5.353   4.935 -0.4736 -1.2494 -0.4522
  937MOL0     C23591   2.864   5.490   4.945 -0.3957 -0.0171 -0.2346
  937MOL0     C23592   2.850   5.565   4.815  0.4816  0.3796 -0.2269
  937MOL0     C23593   2.779   5.699   4.829 -0.0904  0.5086 -0.9719
  937MOL0     C23594   2.694   5.750   4.709  0.0943 -0.8177 -0.4218
  937MOL0     C23595   2.753   5.865   4.619 -0.2872 -0.3171  0.2605
  937MOL0    Cl23596   2.826   5.990   4.710  0.3598  0.0162 -0.3654
  937MOL0     C23597   3.401   5.044   4.836 -0.1941  0.3325  0.2726
  937MOL0     C23598   3.468   4.914   4.842  0.8891 -0.3740 -0.1623
  937MOL0     O23599   3.751   4.831   4.898  0.1289  0.1790 -0.1923
  937MOL0     C23600   3.895   4.596   4.930  0.0875 -0.7603 -0.9352
  937MOL0     C23601   3.959   4.468   4.933  0.6252 -0.2307 -0.2245
  937MOL0     N23602   4.131   3.783   5.165  0.5574  0.0783  0.3154
  937MOL0     N23603   4.248   3.800   5.120  0.2124  0.3138  0.4901
  937MOL0     C23604   5.074   4.207   4.728  0.5294 -0.1088 -0.3077
  937MOL0     C23605   5.163   4.310   4.715  0.7671 -0.3778 -1.0813
  937MOL0     C23606   5.558   4.453   4.540  0.2397  0.4018 -0.1310
  937MOL0     C23607   5.598   4.420   4.681  0.0896 -1.8683  0.2365
  937MOL0     C23608   5.734   4.421   4.702 -0.1264  0.1180 -0.2057
  937MOL0     C23609   5.833   4.455   4.612 -0.7112  0.1733 -0.1809
  937MOL0     O23610   5.967   4.434   4.653 -0.2111 -0.1652 -0.1450
  937MOL0     C23611   6.074   4.492   4.576 -0.2480  1.5569 -0.3477
  937MOL0     C23612   6.075   4.643   4.598 -0.2195 -0.2212  0.6387
  937MOL0     C23613   6.173   4.707   4.491  1.4126  0.0122 -0.2980
  937MOL0     C23614   6.187   4.858   4.513 -0.1311 -0.2279  0.2584
  937MOL0     C23615   6.231   4.904   4.645  1.1928  0.1018 -0.0915
  937MOL0     C23616   6.265   4.955   4.750 -0.6217 -0.0366  0.2877
  937MOL0     C23617   5.788   4.497   4.487  0.0923  0.2105  0.3836
  937MOL0     C23618   5.653   4.482   4.447 -0.3517 -0.7537  0.3196
  937MOL0     H23619   5.327   4.198   4.450  1.6850 -0.5292  2.5786
  937MOL0     H23620   5.199   4.026   4.472 -1.3091  1.3882 -1.0877
  937MOL0     H23621   5.152   3.846   4.627 -0.2166 -1.9637 -0.2002
  937MOL0     H23622   5.025   3.862   4.501  1.5759 -0.4782 -0.3974
  937MOL0     H23623   4.986   3.745   4.790 -0.9594 -2.0116  0.0011
  937MOL0     H23624   4.986   3.663   4.630 -1.3938 -0.3797 -0.2988
  937MOL0     H23625   4.790   3.740   4.560  0.3098  0.7015 -0.5200
  937MOL0     H23626   4.787   3.867   4.692  0.9705  1.4581  0.0418
  937MOL0     H23627   4.770   3.560   4.708 -1.8604 -2.0034  1.0580
  937MOL0     H23628   4.801   3.660   4.854 -2.5224  0.0073  1.0457
  937MOL0     H23629   4.579   3.607   4.890 -0.1820 -3.6506 -3.0567
  937MOL0     H23630   4.539   3.662   4.720  0.1533  2.4157 -0.6690
  937MOL0     H23631   4.575   3.876   4.758 -0.9589 -0.2720  0.2001
  937MOL0     H23632   4.684   3.842   4.901  0.4178  0.1369 -0.1537
  937MOL0     H23633   4.506   3.826   5.046 -0.0155  0.7982  0.7775
  937MOL0     H23634   4.436   3.950   4.942 -4.1079 -1.1661  1.8945
  937MOL0     H23635   4.356   3.664   4.876  1.4835  0.8149  0.1481
  937MOL0     H23636   4.332   3.827   4.802 -2.1345 -3.8783 -1.9375
  937MOL0     H23637   4.080   3.794   4.842 -1.6381  0.5554 -0.9742
  937MOL0     H23638   3.851   3.723   5.124 -0.1672 -2.0632 -2.3158
  937MOL0     H23639   3.834   3.822   4.979  0.2892 -1.7643  0.0731
  937MOL0     H23640   3.895   3.956   5.242 -0.8574  2.4025  0.5635
  937MOL0     H23641   3.727   3.926   5.194  1.0051 -0.7630  1.2265
  937MOL0     H23642   3.762   4.058   4.991 -1.3727 -0.5538  1.7191
  937MOL0     H23643   3.752   4.150   5.144  0.9115  0.5502 -0.0101
  937MOL0     H23644   4.032   4.080   5.040 -0.2733  0.3929 -3.5624
  937MOL0     H23645   3.986   4.217   5.134  3.4790 -1.1009  0.1139
  937MOL0     H23646   3.674   4.283   4.968 -0.3225  0.3293  3.6159
  937MOL0     H23647   3.579   4.491   4.971  0.2746 -2.3781  1.2353
  937MOL0     H23648   3.474   4.888   5.174  0.7982  0.7784 -0.5558
  937MOL0     H23649   3.344   5.106   5.159 -1.8868  0.4279  0.2184
  937MOL0     H23650   3.092   5.150   4.987 -2.1509  0.4742  0.8054
  937MOL0     H23651   3.118   5.221   4.826 -0.8845  0.2691 -0.4912
  937MOL0     H23652   3.126   5.447   4.911 -0.7930 -0.4758 -0.6686
  937MOL0     H23653   3.097   5.392   5.066  1.3656  0.9600 -0.6970
  937MOL0     H23654   2.889   5.284   5.010  0.8063 -1.0727  0.4053
  937MOL0     H23655   2.899   5.314   4.837 -0.6819 -1.0753 -0.4600
  937MOL0     H23656   2.765   5.477   4.989  0.3547  1.7034  2.1435
  937MOL0     H23657   2.916   5.556   5.015  0.8904  2.1194 -2.9918
  937MOL0     H23658   2.801   5.494   4.748  2.6551 -3.5596  1.9694
  937MOL0     H23659   2.945   5.587   4.764  2.2448 -1.3623  2.0663
  937MOL0     H23660   2.857   5.770   4.858 -1.8985  1.1093  3.1274
  937MOL0     H23661   2.712   5.697   4.915  0.3959 -1.5580 -0.5979
  937MOL0     H23662   2.653   5.666   4.651  1.0430  0.0786 -2.4989
  937MOL0     H23663   2.601   5.789   4.752 -0.6015 -2.9952  0.1872
  937MOL0     H23664   2.684   5.901   4.542  0.2798 -3.0936 -1.6979
  937MOL0     H23665   2.832   5.825   4.554  0.9146  3.4060 -0.8757
  937MOL0     H23666   3.377   5.071   4.734  0.6227 -0.4989 -0.1575
  937MOL0     H23667   3.493   4.878   4.743 -1.2761  1.6567 -1.5517
  937MOL0     H23668   3.960   4.680   4.909  0.9318 -1.0406  0.4477
  937MOL0     H23669   4.063   4.446   4.911  0.9445  1.8557 -0.9873
  937MOL0     H23670   5.024   4.183   4.821 -0.2762  1.4398 -0.3074
  937MOL0     H23671   5.156   4.393   4.785 -1.6905 -1.3327 -0.0588
  937MOL0     H23672   5.532   4.379   4.757  0.3399 -2.1965  0.2751
  937MOL0     H23673   5.769   4.398   4.802  2.5054 -2.9427 -1.6323
  937MOL0     H23674   6.062   4.461   4.472  0.3772 -0.7443  0.1973
  937MOL0     H23675   6.158   4.438   4.621 -2.5681 -2.1169  0.0233
  937MOL0     H23676   5.978   4.691   4.585  0.6989  2.0384  1.5996
  937MOL0     H23677   6.120   4.668   4.694  1.1495 -0.3374  0.0481
  937MOL0     H23678   6.124   4.691   4.395  0.4981  1.9969 -0.2140
  937MOL0     H23679   6.274   4.664   4.491  0.0960 -3.3343 -0.0058
  937MOL0     H23680   6.253   4.899   4.435 -1.0926  2.0644  0.5560
  937MOL0     H23681   6.088   4.898   4.490 -0.4133 -0.7249  0.6089
  937MOL0     H23682   6.304   4.975   4.848  1.9481 -1.1524 -0.4225
  937MOL0     H23683   5.862   4.517   4.409  0.6047 -2.8436 -0.0346
  937MOL0     H23684   5.616   4.498   4.346 -0.4490 -0.6272  0.3752
  938MOL0     O23685   5.941   6.299   3.804 -0.5297  0.9373  0.5233
  938MOL0     C23686   5.933   6.422   3.786  1.1202  1.2213  1.0606
  938MOL0     O23687   6.031   6.512   3.797  0.2873  0.6978 -0.2513
  938MOL0     C23688   6.156   6.474   3.816 -0.2375 -0.5035 -0.4295
  938MOL0     C23689   6.210   6.411   3.933  0.5884  0.2120 -0.8578
  938MOL0     C23690   6.335   6.345   3.917  0.5749  0.1009  0.0399
  938MOL0     C23691   6.413   6.351   3.804  0.7502 -0.0234 -0.8848
  938MOL0     O23692   6.508   6.260   3.793 -0.4222 -0.0160 -0.4442
  938MOL0     C23693   6.472   6.142   3.719  0.0515  0.1335  0.2660
  938MOL0     C23694   6.553   6.022   3.766 -0.4869 -0.2345 -0.1811
  938MOL0     C23695   6.534   5.900   3.664  0.0950  0.5233 -0.3689
  938MOL0     C23696   6.620   5.779   3.706  0.4851  0.5967  0.1153
  938MOL0     C23697   6.581   5.649   3.634 -0.8420 -0.5525  0.6314
  938MOL0     C23698   6.675   5.532   3.671 -0.9329  0.4840  0.0891
  938MOL0     C23699   6.817   5.554   3.630  0.0785 -0.8303  0.0745
  938MOL0     C23700   6.833   5.594   3.483 -0.3613 -0.0852  0.7726
  938MOL0     N23701   6.972   5.601   3.445 -0.1080  0.5616 -0.1358
  938MOL0     C23702   7.035   5.490   3.390 -0.1416 -0.1869  0.5609
  938MOL0     C23703   7.160   5.546   3.355  0.6066  0.4611  0.5570
  938MOL0     C23704   7.280   5.454   3.314  0.5249 -0.2867 -0.1428
  938MOL0     C23705   7.368   5.529   3.206 -1.0696  1.2186  0.5349
  938MOL0     C23706   7.440   5.435   3.104  0.9482 -0.2994 -0.2168
  938MOL0     C23707   7.497   5.500   2.982  0.7365 -0.1664 -0.0231
  938MOL0     O23708   7.581   5.607   3.021  0.2416  0.3011  0.7730
  938MOL0     C23709   7.615   5.696   2.925 -0.1605 -0.8798  0.7101
  938MOL0     C23710   7.679   5.808   2.969 -0.7184 -0.0663  0.0078
  938MOL0     C23711   7.707   5.912   2.881 -0.7615 -0.0002  1.6466
  938MOL0     C23712   7.679   5.907   2.738  0.2498 -0.1680  0.6087
  938MOL0     C23713   7.710   6.009   2.642 -0.6823 -1.0985 -0.0461
  938MOL0     O23714   7.673   5.991   2.510 -0.1316  0.5590  0.4671
  938MOL0     C23715   7.713   6.092   2.426  0.2653 -0.0903  0.2285
  938MOL0     C23716   7.825   6.087   2.345 -0.7415 -0.5212 -0.3917
  938MOL0     C23717   7.867   6.208   2.274 -0.1441  0.1189 -0.6129
  938MOL0     C23718   7.791   6.323   2.281 -0.8706  0.1097  0.6142
  938MOL0     O23719   7.838   6.432   2.217 -0.0337 -0.7083  0.6064
  938MOL0     C23720   7.938   6.503   2.276  0.1410  0.7787 -0.1703
  938MOL0     C23721   7.921   6.654   2.253  0.1581  1.0356  0.6706
  938MOL0     C23722   7.828   6.715   2.359  0.2071 -0.5428  0.2073
  938MOL0     C23723   7.850   6.702   2.511 -0.7710  0.8988  0.7348
  938MOL0     C23724   7.734   6.771   2.588 -1.2926 -0.2359  0.7522
  938MOL0     C23725   7.765   6.765   2.735 -0.6276 -0.0848  0.0400
  938MOL0     C23726   7.657   6.820   2.829  0.5382 -0.3736 -0.1473
  938MOL0     C23727   7.646   6.975   2.820  0.1651  0.5540 -0.4603
  938MOL0    Cl23728   7.517   7.036   2.921 -0.4899 -0.6079 -0.1166
  938MOL0     C23729   7.683   6.325   2.364  0.1266 -0.0915  1.2824
  938MOL0     C23730   7.640   6.212   2.422 -0.1613  0.0100  0.8832
  938MOL0     O23731   7.777   6.098   2.691  0.2696  0.2918 -0.3539
  938MOL0     C23732   7.608   5.795   2.707 -0.6214 -0.3319 -0.1201
  938MOL0     C23733   7.591   5.676   2.787 -0.4389 -0.2554  0.3119
  938MOL0     N23734   7.170   5.671   3.406 -0.4793 -0.1033 -0.4780
  938MOL0     N23735   7.051   5.704   3.444 -0.3948  0.3655  0.3262
  938MOL0     C23736   6.367   6.422   3.694  0.1748  0.5328 -0.3792
  938MOL0     C23737   6.241   6.489   3.703  0.1111 -0.8731 -0.3262
  938MOL0     C23738   5.808   6.486   3.743  0.0326 -0.4530  0.6955
  938MOL0     C23739   5.785   6.619   3.751 -0.4931 -0.1375 -0.8805
  938MOL0     C23740   5.668   6.678   3.690  0.0422 -0.3662 -0.9909
  938MOL0     C23741   5.562   6.610   3.634  0.3281 -0.1666 -0.2441
  938MOL0     O23742   5.449   6.667   3.579  0.1067  0.4999  0.6553
  938MOL0     C23743   5.363   6.760   3.656 -0.1963  0.4744  0.0879
  938MOL0     C23744   5.214   6.767   3.603 -0.9474 -0.0706  0.6179
  938MOL0     C23745   5.225   6.798   3.450  0.1606  0.2275 -1.2172
  938MOL0     C23746   5.097   6.797   3.375  0.1547  0.3387  0.0019
  938MOL0     C23747   5.028   6.923   3.409  0.3802  0.4731 -0.3072
  938MOL0     C23748   4.964   7.015   3.446 -0.1942  0.6779  0.1489
  938MOL0     C23749   5.587   6.467   3.632  0.4575 -0.1503  0.9011
  938MOL0     C23750   5.709   6.409   3.683  0.5448 -0.7586  1.6165
  938MOL0     H23751   6.150   6.403   4.023  2.0365  3.2060  0.5114
  938MOL0     H23752   6.377   6.287   3.999  0.2142 -0.4452 -0.1536
  938MOL0     H23753   6.496   6.169   3.616 -1.0283  0.3183  0.0472
  938MOL0     H23754   6.366   6.114   3.725 -0.1757 -0.1430 -2.9753
  938MOL0     H23755   6.535   5.987   3.868  0.0722  0.2387  0.0845
  938MOL0     H23756   6.657   6.053   3.752  0.5945 -3.7003 -0.8275
  938MOL0     H23757   6.574   5.928   3.566 -0.6082  2.0847 -0.2392
  938MOL0     H23758   6.429   5.873   3.653  0.9816 -4.5354  1.0306
  938MOL0     H23759   6.719   5.819   3.680 -0.3775  0.4602 -4.1602
  938MOL0     H23760   6.615   5.744   3.809 -2.5025 -3.4339 -1.1336
  938MOL0     H23761   6.581   5.671   3.527  0.7940  3.3123  1.2629
  938MOL0     H23762   6.478   5.616   3.649 -1.0559 -0.1251  0.1418
  938MOL0     H23763   6.640   5.445   3.616  2.1372  0.6302 -2.3447
  938MOL0     H23764   6.678   5.509   3.778 -1.1415  0.5764  0.1135
  938MOL0     H23765   6.859   5.634   3.691  0.7167  0.6272 -2.1214
  938MOL0     H23766   6.886   5.470   3.640  0.2208 -0.5488  1.5966
  938MOL0     H23767   6.796   5.694   3.457  0.4832 -0.1053 -0.5873
  938MOL0     H23768   6.792   5.518   3.416  1.0937 -0.8166  0.6736
  938MOL0     H23769   7.000   5.388   3.386 -2.1263  0.4266  0.9990
  938MOL0     H23770   7.235   5.364   3.269  0.7150 -0.2376 -0.4311
  938MOL0     H23771   7.338   5.423   3.402  2.2034 -1.3112 -1.5533
  938MOL0     H23772   7.451   5.586   3.250 -3.1171  1.4080  4.5925
  938MOL0     H23773   7.304   5.599   3.152  0.7380  2.9041  0.4767
  938MOL0     H23774   7.512   5.376   3.164  2.1364  0.3150 -1.0081
  938MOL0     H23775   7.367   5.360   3.073  0.3005  0.0704  0.3683
  938MOL0     H23776   7.410   5.534   2.924 -1.4805 -0.6875  2.7396
  938MOL0     H23777   7.551   5.429   2.918 -2.7635  0.4015 -4.1015
  938MOL0     H23778   7.686   5.828   3.075 -0.9100 -0.0773  0.0224
  938MOL0     H23779   7.747   5.999   2.931  1.0705  0.6691 -0.8061
  938MOL0     H23780   7.874   5.990   2.338 -1.5390 -0.9069 -0.7585
  938MOL0     H23781   7.965   6.198   2.229  0.8278  2.3314  0.8844
  938MOL0     H23782   8.036   6.471   2.239 -0.8870 -3.1521  0.0092
  938MOL0     H23783   7.933   6.485   2.384  0.3072 -2.6497 -0.6099
  938MOL0     H23784   7.892   6.667   2.149  5.6730 -3.5169 -1.9925
  938MOL0     H23785   8.022   6.694   2.270  0.3607  1.4056 -1.2586
  938MOL0     H23786   7.728   6.678   2.337 -0.8157  1.7698  0.7130
  938MOL0     H23787   7.825   6.823   2.342 -2.2856 -0.8964 -2.3709
  938MOL0     H23788   7.843   6.597   2.541 -3.0448  0.8554  0.2285
  938MOL0     H23789   7.951   6.738   2.533 -1.1632  1.2918  1.9899
  938MOL0     H23790   7.637   6.722   2.575  0.1024 -2.8980 -0.2818
  938MOL0     H23791   7.729   6.873   2.550 -0.1134 -0.7483 -0.8759
  938MOL0     H23792   7.866   6.803   2.756  0.7924 -3.8345  0.8098
  938MOL0     H23793   7.785   6.661   2.763  2.1828  0.5238  0.6496
  938MOL0     H23794   7.564   6.770   2.800 -0.4863  1.5074 -0.2587
  938MOL0     H23795   7.676   6.792   2.933  1.3053 -3.2307 -0.9506
  938MOL0     H23796   7.629   7.013   2.719 -0.8033  1.7007  0.1005
  938MOL0     H23797   7.740   7.007   2.866 -0.0593 -0.3471  0.6984
  938MOL0     H23798   7.642   6.425   2.359 -1.5568 -0.7405  1.6560
  938MOL0     H23799   7.555   6.220   2.489 -0.9314 -0.1712 -0.0625
  938MOL0     H23800   7.590   5.766   2.604  2.4944  0.9513 -1.1390
  938MOL0     H23801   7.533   5.595   2.743 -0.6722  0.0521  0.0497
  938MOL0     H23802   6.416   6.430   3.597 -2.2994  3.7639 -1.5540
  938MOL0     H23803   6.188   6.522   3.615 -3.5178 -1.4379  1.4298
  938MOL0     H23804   5.861   6.684   3.792  0.4602 -2.1717  0.7784
  938MOL0     H23805   5.649   6.785   3.693 -0.3106 -0.4398  1.6268
  938MOL0     H23806   5.392   6.866   3.656 -1.3569  0.8736  2.4446
  938MOL0     H23807   5.361   6.722   3.759  4.4207 -1.6507 -0.4073
  938MOL0     H23808   5.159   6.673   3.616  2.1313 -2.6713 -2.8985
  938MOL0     H23809   5.157   6.837   3.666 -1.3471 -1.5649  1.9865
  938MOL0     H23810   5.282   6.708   3.423 -0.1900 -1.5825  3.1095
  938MOL0     H23811   5.272   6.897   3.448 -2.1843  1.4724  0.3013
  938MOL0     H23812   5.116   6.792   3.268 -0.4629 -0.1620 -0.0884
  938MOL0     H23813   5.042   6.705   3.397  1.4737 -0.6436 -0.6667
  938MOL0     H23814   4.907   7.092   3.494 -0.2652  0.5144  0.3275
  938MOL0     H23815   5.514   6.408   3.577 -1.7354  4.5889 -1.9164
  938MOL0     H23816   5.722   6.304   3.660  0.7900  0.0068 -2.5350
  939MOL0     O23817   2.369   6.325   9.507  0.4069  0.0657  0.1855
  939MOL0     C23818   2.342   6.416   9.592  0.1284  0.5233  0.9999
  939MOL0     O23819   2.358   6.546   9.565 -0.0491  0.2637  0.5595
  939MOL0     C23820   2.346   6.583   9.428 -0.1539 -1.6897 -0.2128
  939MOL0     C23821   2.420   6.523   9.323  1.2034  0.4635  0.5480
  939MOL0     C23822   2.410   6.570   9.189  0.1040  1.2554 -0.2933
  939MOL0     C23823   2.306   6.665   9.159  0.5591 -0.2447  0.1469
  939MOL0     O23824   2.272   6.706   9.032 -0.2642 -0.3182  0.3844
  939MOL0     C23825   2.365   6.668   8.928  0.4267 -0.5361 -0.6057
  939MOL0     C23826   2.273   6.620   8.813 -0.7094 -0.1348  0.0803
  939MOL0     C23827   2.211   6.477   8.845  0.2967 -0.6532 -0.7604
  939MOL0     C23828   2.127   6.430   8.729  0.1726 -0.3493 -0.4327
  939MOL0     C23829   2.203   6.412   8.594 -0.0525  0.7061  0.0891
  939MOL0     C23830   2.119   6.322   8.494 -0.5868 -1.2966  0.5716
  939MOL0     C23831   2.117   6.172   8.519 -0.1353  0.2077 -0.3431
  939MOL0     C23832   2.025   6.094   8.426 -0.2512 -0.3103  0.4489
  939MOL0     N23833   1.880   6.127   8.453  0.3685  0.6422 -0.1676
  939MOL0     C23834   1.780   6.155   8.359 -0.0716 -0.3232 -0.0954
  939MOL0     C23835   1.669   6.193   8.436 -0.1219  0.8600 -0.8767
  939MOL0     C23836   1.537   6.242   8.384  1.0420  0.2791 -0.0763
  939MOL0     C23837   1.474   6.149   8.277  0.0358 -0.1650 -0.3594
  939MOL0     C23838   1.433   6.015   8.341  0.4431  0.2403 -1.1574
  939MOL0     C23839   1.385   5.916   8.243 -0.8207  0.0593  0.3002
  939MOL0     O23840   1.470   5.903   8.125  0.4000 -0.4290 -0.3658
  939MOL0     C23841   1.587   5.838   8.140  0.2812  0.3552  0.2876
  939MOL0     C23842   1.694   5.866   8.049  0.5084  0.5760  0.4526
  939MOL0     C23843   1.828   5.830   8.070  0.9989 -0.1572  0.7014
  939MOL0     C23844   1.868   5.745   8.174 -1.0518  0.0118 -0.0393
  939MOL0     C23845   2.004   5.683   8.173 -0.2764 -0.4213  0.1253
  939MOL0     O23846   2.080   5.679   8.062 -0.0645  0.3798 -0.7428
  939MOL0     C23847   2.189   5.600   8.059 -0.0195  0.2416 -0.7756
  939MOL0     C23848   2.178   5.461   8.072  0.7729  0.1858  0.5670
  939MOL0     C23849   2.297   5.378   8.076  0.5570 -0.6162 -0.8529
  939MOL0     C23850   2.423   5.442   8.064 -0.4006  1.0016  0.5998
  939MOL0     O23851   2.545   5.373   8.055  0.8112 -0.1807 -0.5158
  939MOL0     C23852   2.558   5.260   8.135 -0.7835 -0.2735 -0.7163
  939MOL0     C23853   2.707   5.236   8.167  0.3813 -0.0195 -0.1361
  939MOL0     C23854   2.772   5.328   8.273 -0.5098 -0.3461  0.2326
  939MOL0     C23855   2.689   5.318   8.412 -0.0592 -0.2353 -0.6727
  939MOL0     C23856   2.753   5.410   8.509  0.6349 -0.0766  1.0964
  939MOL0     C23857   2.722   5.385   8.654  0.3842 -0.1687  0.6072
  939MOL0     C23858   2.777   5.488   8.762  0.6535 -0.3349 -0.4638
  939MOL0     C23859   2.765   5.443   8.917  0.5519  1.2417 -0.4264
  939MOL0    Cl23860   2.818   5.559   9.040  0.2620 -0.3702  0.2048
  939MOL0     C23861   2.426   5.578   8.032  0.1874  0.2224  0.4276
  939MOL0     C23862   2.314   5.656   8.030  0.5080 -0.1411  0.6247
  939MOL0     O23863   2.032   5.624   8.279 -0.4855 -0.0544  0.6303
  939MOL0     C23864   1.761   5.723   8.268 -0.8290  0.5477 -0.1555
  939MOL0     C23865   1.624   5.755   8.251  0.0575  0.1843 -0.0907
  939MOL0     N23866   1.709   6.184   8.568  0.7075 -1.4883 -1.1081
  939MOL0     N23867   1.832   6.148   8.583 -0.7751 -0.1813 -0.2192
  939MOL0     C23868   2.227   6.720   9.267  0.0100  0.2776  0.3608
  939MOL0     C23869   2.251   6.684   9.397 -0.1451  0.4200 -0.5388
  939MOL0     C23870   2.280   6.386   9.723 -0.1969  0.3177 -0.8079
  939MOL0     C23871   2.226   6.490   9.812 -0.0294  0.7090  0.3406
  939MOL0     C23872   2.185   6.464   9.947  0.0137  0.6912  0.7370
  939MOL0     C23873   2.204   6.345  10.003 -0.6477 -0.0877 -0.0480
  939MOL0     O23874   2.173   6.342  10.137 -0.5315  0.1243 -0.5818
  939MOL0     C23875   2.187   6.224  10.215  0.6506  0.0503 -0.5420
  939MOL0     C23876   2.140   6.256  10.358 -0.3769  0.2473 -0.1846
  939MOL0     C23877   2.229   6.359  10.422  0.3886 -0.1698 -0.9094
  939MOL0     C23878   2.178   6.399  10.569 -0.7395 -0.5604  0.2916
  939MOL0     C23879   2.178   6.286  10.664 -0.1458 -0.5346 -0.4224
  939MOL0     C23880   2.190   6.209  10.751 -0.7150  0.4793 -0.5291
  939MOL0     C23881   2.247   6.238   9.915 -1.0343 -0.3844 -0.5583
  939MOL0     C23882   2.274   6.259   9.778  0.1428  0.4563 -0.5963
  939MOL0     H23883   2.494   6.444   9.338  1.7979  0.8546 -0.2534
  939MOL0     H23884   2.474   6.523   9.115  2.3132  0.9154  1.6977
  939MOL0     H23885   2.433   6.585   8.948  1.9980  0.5642 -1.1443
  939MOL0     H23886   2.430   6.753   8.903 -1.0094  0.8942  0.3226
  939MOL0     H23887   2.336   6.626   8.724  2.2839 -0.5166  2.0104
  939MOL0     H23888   2.184   6.683   8.809 -0.1298  0.9948  2.6858
  939MOL0     H23889   2.149   6.476   8.934  0.4021  0.1381 -0.6695
  939MOL0     H23890   2.294   6.411   8.872  3.2956  1.3591 -4.0400
  939MOL0     H23891   2.081   6.335   8.756 -2.9770  1.1642 -0.0427
  939MOL0     H23892   2.047   6.503   8.716 -0.6814 -0.9143  1.3899
  939MOL0     H23893   2.299   6.366   8.621  0.0821 -1.1597 -3.0368
  939MOL0     H23894   2.231   6.509   8.553  0.9813 -0.8227 -3.2744
  939MOL0     H23895   2.156   6.334   8.392 -0.8310 -3.4155  0.1948
  939MOL0     H23896   2.014   6.352   8.505 -0.6520 -1.2916 -0.0630
  939MOL0     H23897   2.220   6.135   8.516 -0.7407 -1.7657  1.3082
  939MOL0     H23898   2.082   6.152   8.620  0.1243 -0.3931 -0.3657
  939MOL0     H23899   2.025   5.986   8.439 -0.4270 -0.4880 -0.9345
  939MOL0     H23900   2.054   6.110   8.322  3.4815 -0.2116  1.3639
  939MOL0     H23901   1.785   6.164   8.251  2.2014  2.4446  0.1563
  939MOL0     H23902   1.548   6.343   8.344  0.7779  1.2536  2.1931
  939MOL0     H23903   1.463   6.252   8.464 -1.8390  4.4241 -2.8790
  939MOL0     H23904   1.549   6.128   8.200  1.0442  0.7976  0.3326
  939MOL0     H23905   1.390   6.208   8.239 -0.6405 -1.1736 -0.4980
  939MOL0     H23906   1.522   5.981   8.396 -0.0949  3.1330  1.8150
  939MOL0     H23907   1.355   6.017   8.417  2.0802 -2.3108  0.7690
  939MOL0     H23908   1.286   5.947   8.209 -0.4146 -1.0223 -2.0415
  939MOL0     H23909   1.361   5.821   8.290 -1.8158 -0.1941 -0.6748
  939MOL0     H23910   1.670   5.936   7.970  1.2255  0.6723  0.3142
  939MOL0     H23911   1.900   5.866   7.996  0.6061 -2.0573 -0.6784
  939MOL0     H23912   2.080   5.418   8.089  1.0707  0.2889  2.7678
  939MOL0     H23913   2.290   5.271   8.090 -2.5091 -0.7301 -2.4729
  939MOL0     H23914   2.524   5.166   8.091  0.1731 -1.1081  0.2428
  939MOL0     H23915   2.510   5.279   8.232  1.0655  0.2303  0.1477
  939MOL0     H23916   2.759   5.253   8.072 -2.8291  1.7558 -1.7741
  939MOL0     H23917   2.724   5.129   8.172  1.5336  0.1684  0.1625
  939MOL0     H23918   2.790   5.427   8.232  1.6801  0.3437  2.6361
  939MOL0     H23919   2.867   5.275   8.290  0.2761  0.9099 -0.1540
  939MOL0     H23920   2.590   5.362   8.398  1.2660  3.1557 -0.3210
  939MOL0     H23921   2.686   5.214   8.445 -0.1543 -1.2214 -3.5115
  939MOL0     H23922   2.717   5.510   8.484  4.4415  1.0100 -0.6912
  939MOL0     H23923   2.862   5.409   8.503  0.6180 -0.9951  0.7808
  939MOL0     H23924   2.758   5.284   8.676  0.8333 -0.5481 -1.6420
  939MOL0     H23925   2.613   5.384   8.664  0.2186 -6.0596  1.8747
  939MOL0     H23926   2.884   5.501   8.739  0.0345 -0.3613 -3.7576
  939MOL0     H23927   2.721   5.581   8.748  1.5040  0.1083 -1.0348
  939MOL0     H23928   2.822   5.351   8.932 -1.8442  0.1889  3.6132
  939MOL0     H23929   2.670   5.400   8.950  1.2030  0.1929  0.1463
  939MOL0     H23930   2.526   5.616   8.010  0.9242 -1.9096 -0.1599
  939MOL0     H23931   2.312   5.762   8.008 -0.5074  0.2679  2.4784
  939MOL0     H23932   1.809   5.667   8.348  2.2976  1.6265 -1.1201
  939MOL0     H23933   1.550   5.735   8.328  0.8090 -0.8469  0.3858
  939MOL0     H23934   2.145   6.788   9.249  1.4224  1.6598 -1.1846
  939MOL0     H23935   2.186   6.729   9.471  1.6324 -0.7625  1.9082
  939MOL0     H23936   2.230   6.595   9.788  0.7345  0.7349  0.5451
  939MOL0     H23937   2.157   6.554  10.000 -2.1052  0.9510 -0.7105
  939MOL0     H23938   2.288   6.184  10.202  1.1013  0.9140  0.1745
  939MOL0     H23939   2.110   6.156  10.177  0.0311  1.3205 -1.6468
  939MOL0     H23940   2.047   6.313  10.351 -1.8777 -2.0932 -0.5412
  939MOL0     H23941   2.126   6.168  10.421 -0.3598  1.3999  1.4650
  939MOL0     H23942   2.220   6.449  10.361 -0.9840  1.2451  1.2332
  939MOL0     H23943   2.334   6.329  10.418  0.6725  0.4416  0.9158
  939MOL0     H23944   2.227   6.488  10.609 -4.1504  1.6195  0.1084
  939MOL0     H23945   2.075   6.434  10.556 -1.0895 -1.7042 -0.1752
  939MOL0     H23946   2.205   6.135  10.827  4.2626  0.7447 -0.9007
  939MOL0     H23947   2.277   6.141   9.954 -0.9883 -0.3417 -0.4868
  939MOL0     H23948   2.311   6.173   9.722  1.0904 -0.5545  1.4871
  940MOL0     O23949  10.076   7.804   6.500  0.7233  0.3915 -0.2251
  940MOL0     C23950  10.011   7.702   6.510 -0.5329  0.6647  0.1787
  940MOL0     O23951  10.066   7.576   6.542 -0.7537  0.0518  0.6378
  940MOL0     C23952  10.186   7.551   6.608  0.7551  0.4049  0.5698
  940MOL0     C23953  10.226   7.420   6.609 -0.3206  0.1641 -0.6485
  940MOL0     C23954  10.337   7.381   6.678 -0.0188  0.1315  0.8920
  940MOL0     C23955  10.423   7.474   6.754  0.3668  0.4040 -0.2162
  940MOL0     O23956  10.542   7.437   6.817  0.4642  0.8957  0.0897
  940MOL0     C23957  10.580   7.295   6.821  0.3967 -0.8951 -0.2092
  940MOL0     C23958  10.697   7.284   6.734  0.3933 -0.0843 -0.3563
  940MOL0     C23959  10.722   7.125   6.724  0.0537 -1.1323  0.4251
  940MOL0     C23960  10.786   7.049   6.844 -0.0781  0.3162  0.0743
  940MOL0     C23961  10.774   6.898   6.812  1.6139  0.2779  0.0348
  940MOL0     C23962  10.832   6.812   6.935  0.8955  0.1399  0.4513
  940MOL0     C23963  10.880   6.674   6.908 -0.4489  0.0890 -0.3687
  940MOL0     C23964  10.909   6.585   7.032  0.4066 -0.5649  0.6172
  940MOL0     N23965  10.959   6.654   7.151  0.3852 -0.4935  0.6045
  940MOL0     C23966  11.088   6.691   7.174 -0.1913 -0.7314  1.6375
  940MOL0     C23967  11.089   6.714   7.305  0.2708 -1.1513 -0.8448
  940MOL0     C23968  11.199   6.770   7.389  0.3062 -0.2316 -0.3779
  940MOL0     C23969  11.338   6.753   7.330  0.0643 -1.4028 -0.1627
  940MOL0     C23970  11.363   6.611   7.308 -0.3861 -0.0109  0.6635
  940MOL0     C23971  11.509   6.597   7.291 -0.3896 -0.8108 -0.3759
  940MOL0     O23972  11.579   6.646   7.406 -0.2358  0.2783  0.4982
  940MOL0     C23973  11.710   6.605   7.427  0.0492 -0.7875  0.4174
  940MOL0     C23974  11.784   6.529   7.342  0.4719 -0.0636 -0.0958
  940MOL0     C23975  11.916   6.495   7.367 -0.0568  0.2358  0.8385
  940MOL0     C23976  11.973   6.522   7.494  0.3494 -1.2411  0.9097
  940MOL0     C23977  12.109   6.472   7.522  0.0057 -0.9110 -0.3028
  940MOL0     O23978  12.157   6.372   7.441 -0.1194 -0.1032 -0.5488
  940MOL0     C23979  12.274   6.310   7.480  0.0314 -0.7088  0.9629
  940MOL0     C23980  12.280   6.208   7.572 -0.9070 -0.3511  0.4438
  940MOL0     C23981  12.405   6.147   7.597  0.1841  0.5481 -0.3685
  940MOL0     C23982  12.526   6.187   7.532 -0.5550  0.0848 -0.3020
  940MOL0     O23983  12.649   6.119   7.560 -0.7505  0.1176  0.9164
  940MOL0     C23984  12.659   6.024   7.660  0.8215 -1.1823 -0.1433
  940MOL0     C23985  12.797   5.978   7.685  0.2607 -0.0630 -0.1506
  940MOL0     C23986  12.854   5.895   7.574  0.2161  0.0213  0.1235
  940MOL0     C23987  12.978   5.830   7.610 -0.7675  0.1265 -0.7389
  940MOL0     C23988  13.029   5.750   7.484  0.5968  0.5782 -0.1691
  940MOL0     C23989  13.108   5.832   7.381  0.2831 -0.0372  0.6697
  940MOL0     C23990  13.172   5.744   7.276  0.6827 -0.5736 -0.3649
  940MOL0     C23991  13.321   5.726   7.293  0.2178 -0.2784 -0.6148
  940MOL0    Cl23992  13.383   5.585   7.204 -0.3670 -0.2587  0.4601
  940MOL0     C23993  12.518   6.293   7.446 -0.0061 -0.8624 -0.1057
  940MOL0     C23994  12.390   6.346   7.417  0.9000 -0.0084 -0.1173
  940MOL0     O23995  12.151   6.495   7.641  0.3904 -0.1556 -0.1371
  940MOL0     C23996  11.892   6.582   7.587  0.3698 -1.1715 -0.1980
  940MOL0     C23997  11.764   6.629   7.548 -0.3005 -0.1360 -0.7082
  940MOL0     N23998  10.961   6.693   7.355 -0.1953  0.6092 -0.8364
  940MOL0     N23999  10.883   6.653   7.263  0.4571  0.5044  0.5624
  940MOL0     C24000  10.379   7.604   6.755 -0.0975 -0.4158 -0.3796
  940MOL0     C24001  10.263   7.642   6.678 -0.0566 -0.6299 -0.4987
  940MOL0     C24002   9.861   7.700   6.477 -0.0148  0.0259  0.9281
  940MOL0     C24003   9.799   7.823   6.456 -0.5946  0.2054  0.0887
  940MOL0     C24004   9.666   7.810   6.428  1.0590 -0.1080  0.6148
  940MOL0     C24005   9.595   7.690   6.418  1.0904 -0.1055  0.2303
  940MOL0     O24006   9.455   7.707   6.407 -0.5177  0.0613 -0.2884
  940MOL0     C24007   9.379   7.604   6.350  0.7476  0.1987 -0.0369
  940MOL0     C24008   9.234   7.621   6.408  0.5503 -0.9410  0.6354
  940MOL0     C24009   9.122   7.580   6.304  0.0765  0.0858 -0.5163
  940MOL0     C24010   8.993   7.555   6.377 -1.4485 -0.2514  0.2961
  940MOL0     C24011   8.883   7.552   6.275  0.1932 -0.3369  0.2246
  940MOL0     C24012   8.814   7.533   6.179 -0.2123  0.7772  0.7120
  940MOL0     C24013   9.661   7.570   6.434  0.3138  0.1883  0.4232
  940MOL0     C24014   9.787   7.579   6.457 -0.5739 -0.3672 -0.0329
  940MOL0     H24015  10.167   7.342   6.561 -1.0818  0.4360 -0.1759
  940MOL0     H24016  10.366   7.278   6.658 -1.1281  0.0985 -0.7891
  940MOL0     H24017  10.498   7.227   6.795  1.2784 -1.4629 -1.5982
  940MOL0     H24018  10.610   7.259   6.920 -0.8228 -2.4430 -0.3552
  940MOL0     H24019  10.785   7.342   6.764 -0.8101  2.3273 -1.3067
  940MOL0     H24020  10.683   7.324   6.633 -1.9524 -0.9411 -0.4262
  940MOL0     H24021  10.775   7.113   6.629  2.3367  0.2525  1.4509
  940MOL0     H24022  10.627   7.071   6.713 -0.9402  0.6742 -0.1653
  940MOL0     H24023  10.893   7.071   6.831 -0.4945  0.6539 -4.1464
  940MOL0     H24024  10.744   7.085   6.938  0.6465  1.0612  0.1275
  940MOL0     H24025  10.844   6.878   6.730  2.4346  0.3140  0.7196
  940MOL0     H24026  10.670   6.866   6.799  1.2766  1.1105  0.6208
  940MOL0     H24027  10.764   6.822   7.020  0.9631  1.3425  0.3886
  940MOL0     H24028  10.918   6.870   6.968  1.1051  0.0136  0.1306
  940MOL0     H24029  10.809   6.618   6.847  2.1913 -2.1237 -1.6405
  940MOL0     H24030  10.966   6.677   6.841  1.3988  1.7409  1.8926
  940MOL0     H24031  10.979   6.503   7.012  1.1129  0.4208 -1.1818
  940MOL0     H24032  10.814   6.533   7.051 -0.3995  0.8140  0.4574
  940MOL0     H24033  11.174   6.697   7.109 -1.0632  0.6772  0.5498
  940MOL0     H24034  11.194   6.721   7.486  0.7904 -0.6046 -0.5330
  940MOL0     H24035  11.178   6.874   7.414  1.7490  0.3995 -1.5874
  940MOL0     H24036  11.414   6.790   7.399  1.0683 -1.1142 -1.3918
  940MOL0     H24037  11.351   6.814   7.240 -0.0392 -0.8538  0.1904
  940MOL0     H24038  11.332   6.556   7.397 -0.2494  1.2240  1.4958
  940MOL0     H24039  11.299   6.564   7.232 -1.7657  1.2720  1.0022
  940MOL0     H24040  11.545   6.650   7.203 -0.7170 -0.1315 -0.1065
  940MOL0     H24041  11.532   6.493   7.264 -1.9488 -0.1742 -5.0263
  940MOL0     H24042  11.736   6.497   7.250 -0.6300 -0.2909  0.5377
  940MOL0     H24043  11.975   6.441   7.293  2.7826  2.0506  1.6251
  940MOL0     H24044  12.197   6.183   7.637 -1.9351  0.1338 -0.6323
  940MOL0     H24045  12.393   6.076   7.678 -0.5162  0.9667 -0.0879
  940MOL0     H24046  12.595   5.940   7.635 -2.3624  0.8225  0.6930
  940MOL0     H24047  12.615   6.059   7.754  2.1699 -0.6023  0.2963
  940MOL0     H24048  12.782   5.912   7.771  1.2752 -2.0755 -1.4365
  940MOL0     H24049  12.856   6.067   7.707  0.8647 -0.1057 -1.4741
  940MOL0     H24050  12.872   5.964   7.491  0.3586 -1.7929 -1.4205
  940MOL0     H24051  12.776   5.821   7.550 -0.8222  1.0249  0.3120
  940MOL0     H24052  13.057   5.901   7.635 -0.4366  0.2494 -2.0742
  940MOL0     H24053  12.967   5.762   7.695  2.2245  0.3169 -0.0973
  940MOL0     H24054  12.947   5.690   7.443  1.3878 -1.4368  1.0900
  940MOL0     H24055  13.105   5.684   7.525 -0.2799  1.5686  3.4336
  940MOL0     H24056  13.183   5.889   7.436 -0.5509  2.2118 -0.4274
  940MOL0     H24057  13.035   5.897   7.332 -0.4246 -1.1514  0.2018
  940MOL0     H24058  13.124   5.646   7.286 -0.3053 -0.0851 -0.3009
  940MOL0     H24059  13.159   5.788   7.176  0.1390 -1.4159 -0.6738
  940MOL0     H24060  13.348   5.728   7.399  0.4089  0.2020 -0.6703
  940MOL0     H24061  13.375   5.813   7.254  0.9972 -0.5186 -0.1018
  940MOL0     H24062  12.603   6.334   7.393  0.6709 -0.4676  1.2303
  940MOL0     H24063  12.387   6.436   7.357  2.7601  0.9923  1.1926
  940MOL0     H24064  11.934   6.604   7.684 -0.7690 -1.1617  0.3064
  940MOL0     H24065  11.708   6.687   7.621  0.5405 -0.6697  0.3885
  940MOL0     H24066  10.432   7.670   6.822  0.9975 -1.3881 -0.2435
  940MOL0     H24067  10.240   7.748   6.673 -2.9569 -1.2039 -0.6575
  940MOL0     H24068   9.854   7.911   6.486  0.2776 -0.2915 -0.0307
  940MOL0     H24069   9.608   7.900   6.416  2.2694  0.6600  0.2910
  940MOL0     H24070   9.420   7.503   6.350  0.5764  0.0780  2.7035
  940MOL0     H24071   9.384   7.628   6.243  3.1594  1.5837  0.3112
  940MOL0     H24072   9.222   7.552   6.492  1.5981  0.5346  2.0445
  940MOL0     H24073   9.214   7.723   6.443 -0.0353  0.0715 -2.3043
  940MOL0     H24074   9.156   7.482   6.270 -1.0646 -1.5955  2.6895
  940MOL0     H24075   9.113   7.663   6.234 -2.0279  3.0085  2.8450
  940MOL0     H24076   8.999   7.454   6.419  1.2419 -0.3035 -0.0433
  940MOL0     H24077   8.977   7.625   6.459 -0.2074  0.9729 -0.4565
  940MOL0     H24078   8.755   7.531   6.090 -0.8072 -2.3077  1.0549
  940MOL0     H24079   9.604   7.478   6.423 -0.8533  0.7849  1.2622
  940MOL0     H24080   9.842   7.485   6.464  2.7595  1.3346 -1.2521
  941MOL0     O24081   7.327   6.929   3.691  0.2923  0.2732 -0.2244
  941MOL0     C24082   7.410   6.874   3.620 -0.7219 -0.2443  0.7724
  941MOL0     O24083   7.479   6.926   3.510  0.6163  0.2691  0.6543
  941MOL0     C24084   7.489   7.064   3.487 -0.9826 -0.2444 -0.7091
  941MOL0     C24085   7.561   7.104   3.371  0.0618  0.1804  0.1910
  941MOL0     C24086   7.609   7.239   3.361  0.8516 -0.5515  0.8220
  941MOL0     C24087   7.577   7.339   3.455  0.6519 -0.6819 -0.0784
  941MOL0     O24088   7.611   7.473   3.458 -0.6096  0.5491  0.3614
  941MOL0     C24089   7.635   7.537   3.327 -0.6960  0.7351 -0.1606
  941MOL0     C24090   7.661   7.687   3.356  0.4759  0.8742  0.3930
  941MOL0     C24091   7.535   7.747   3.407  0.1420 -0.4240  0.4909
  941MOL0     C24092   7.553   7.901   3.425  0.4573 -0.3927  0.4005
  941MOL0     C24093   7.670   7.941   3.511 -0.3458 -0.0328 -0.0180
  941MOL0     C24094   7.635   8.049   3.616 -0.5560  0.2580 -0.2713
  941MOL0     C24095   7.615   8.192   3.573  0.0192  0.1336  0.8317
  941MOL0     C24096   7.579   8.273   3.700  1.1512 -0.0049  1.6539
  941MOL0     N24097   7.440   8.263   3.738  0.4495  1.5197  0.3398
  941MOL0     C24098   7.344   8.350   3.701 -0.3517  0.6949  0.4150
  941MOL0     C24099   7.241   8.292   3.779 -0.1405  0.1508 -0.0173
  941MOL0     C24100   7.100   8.343   3.800 -0.8705 -0.2518 -0.0063
  941MOL0     C24101   7.063   8.456   3.710  0.1921 -0.4883  0.3284
  941MOL0     C24102   6.964   8.554   3.777  0.2302 -0.3580  0.5297
  941MOL0     C24103   6.852   8.484   3.853  0.6309 -0.5343 -0.2778
  941MOL0     O24104   6.749   8.577   3.896 -0.2718  0.3789  0.8869
  941MOL0     C24105   6.710   8.585   4.024 -0.4561 -0.0346  0.0513
  941MOL0     C24106   6.630   8.698   4.060  1.1067  0.6024  1.0438
  941MOL0     C24107   6.595   8.719   4.191 -0.6776  0.8142  1.0962
  941MOL0     C24108   6.624   8.615   4.283  0.4733 -0.1756  0.2176
  941MOL0     C24109   6.604   8.635   4.430 -0.1422  1.0133  0.4088
  941MOL0     O24110   6.520   8.747   4.451 -0.0945 -0.0618 -0.0003
  941MOL0     C24111   6.534   8.795   4.575  0.3075 -0.8163  0.4618
  941MOL0     C24112   6.491   8.720   4.687 -0.4463 -0.6208  0.8253
  941MOL0     C24113   6.498   8.767   4.814 -0.3208  0.1647 -0.1194
  941MOL0     C24114   6.556   8.886   4.844 -0.5206 -1.3248 -0.3403
  941MOL0     O24115   6.582   8.908   4.978 -0.0555 -0.0049  0.0963
  941MOL0     C24116   6.675   9.012   5.002  0.3070 -0.0966 -1.0221
  941MOL0     C24117   6.684   9.054   5.149  0.7396  0.2593  0.2373
  941MOL0     C24118   6.566   9.139   5.186  0.1283  0.7073 -0.2853
  941MOL0     C24119   6.540   9.166   5.337  0.3201  0.0792 -0.6820
  941MOL0     C24120   6.443   9.283   5.364  0.0148 -0.2611 -0.1744
  941MOL0     C24121   6.314   9.262   5.292  0.5787  1.1033  0.2928
  941MOL0     C24122   6.207   9.375   5.300 -0.1175  0.3229  0.5644
  941MOL0     C24123   6.087   9.349   5.218 -0.2191 -0.7456 -0.3485
  941MOL0    Cl24124   5.985   9.219   5.287 -0.2117 -0.2839  0.3066
  941MOL0     C24125   6.582   8.970   4.735 -1.3540  0.4410 -0.0920
  941MOL0     C24126   6.575   8.928   4.600 -0.0930  0.1790  0.0189
  941MOL0     O24127   6.658   8.561   4.517 -0.1138  0.1526  0.5214
  941MOL0     C24128   6.688   8.499   4.244  0.0459 -0.4386 -0.1064
  941MOL0     C24129   6.736   8.487   4.115 -0.3669  0.5796 -0.0197
  941MOL0     N24130   7.285   8.184   3.853  0.6145  0.5449  0.5614
  941MOL0     N24131   7.407   8.170   3.837 -0.5615 -0.2058 -0.4804
  941MOL0     C24132   7.506   7.291   3.575  0.0565  0.5924  0.1858
  941MOL0     C24133   7.470   7.161   3.591  0.2737  0.1739  0.5842
  941MOL0     C24134   7.437   6.729   3.647  0.7620  0.4843 -0.8688
  941MOL0     C24135   7.548   6.657   3.603  0.3639 -0.0883  0.3344
  941MOL0     C24136   7.550   6.519   3.618  0.1664  0.3182 -0.2499
  941MOL0     C24137   7.468   6.452   3.709  0.4117  0.5860 -0.3326
  941MOL0     O24138   7.479   6.321   3.747 -0.1876  0.1262 -0.2791
  941MOL0     C24139   7.591   6.245   3.705 -0.0095  0.0677  0.6381
  941MOL0     C24140   7.566   6.109   3.745 -0.8475  0.4357  0.2568
  941MOL0     C24141   7.698   6.037   3.726  0.7324 -0.3307 -1.1429
  941MOL0     C24142   7.684   5.886   3.766 -0.3041 -0.4380 -0.0813
  941MOL0     C24143   7.828   5.836   3.768  0.7152 -0.1565  0.4225
  941MOL0     C24144   7.936   5.786   3.763  0.3037 -0.0624  0.1778
  941MOL0     C24145   7.359   6.521   3.752  0.7349 -0.5778  0.2735
  941MOL0     C24146   7.347   6.653   3.723  0.0696  0.6268 -0.5457
  941MOL0     H24147   7.603   7.037   3.296  1.5048 -0.2613  1.3235
  941MOL0     H24148   7.684   7.256   3.285 -2.0421  0.1116 -2.1105
  941MOL0     H24149   7.554   7.525   3.254  0.7312 -1.4481 -1.5364
  941MOL0     H24150   7.726   7.511   3.272  0.5279  4.5663 -0.1764
  941MOL0     H24151   7.684   7.739   3.263  1.3044 -1.0092 -0.5249
  941MOL0     H24152   7.751   7.704   3.416  1.6378  3.6981 -1.8780
  941MOL0     H24153   7.516   7.703   3.505  1.2468 -4.8280 -1.0460
  941MOL0     H24154   7.454   7.733   3.336 -0.4646  2.4626  0.4937
  941MOL0     H24155   7.555   7.951   3.327  1.8206 -0.5381  0.3308
  941MOL0     H24156   7.452   7.917   3.464 -0.0326 -2.8985  0.3452
  941MOL0     H24157   7.736   7.992   3.441 -2.1160  2.1463 -0.2114
  941MOL0     H24158   7.714   7.855   3.563  4.5438  1.1245 -1.7225
  941MOL0     H24159   7.706   8.035   3.697 -1.6226 -1.2899  0.4606
  941MOL0     H24160   7.542   8.022   3.668 -0.6947  2.8745  0.9912
  941MOL0     H24161   7.708   8.237   3.537  0.3195 -0.5272  0.7774
  941MOL0     H24162   7.542   8.204   3.492 -0.4349  2.2129  1.4851
  941MOL0     H24163   7.604   8.376   3.675  1.8082 -0.9193 -2.0831
  941MOL0     H24164   7.641   8.242   3.785  2.3189 -1.6679  0.2527
  941MOL0     H24165   7.342   8.427   3.624  0.7103 -2.2516 -2.8427
  941MOL0     H24166   7.104   8.381   3.903  2.6767 -0.1880 -0.0455
  941MOL0     H24167   7.032   8.259   3.783  0.6151 -1.2680 -1.1426
  941MOL0     H24168   6.992   8.418   3.637 -1.4033 -0.9743  2.0458
  941MOL0     H24169   7.151   8.506   3.668  1.2278  0.2075  3.0989
  941MOL0     H24170   7.024   8.625   3.834  0.7638 -0.1506 -0.2722
  941MOL0     H24171   6.921   8.615   3.697 -0.1970 -0.1976  0.8750
  941MOL0     H24172   6.889   8.433   3.942  0.0314 -1.7178 -0.6938
  941MOL0     H24173   6.812   8.414   3.779  1.0093  2.0739 -3.1670
  941MOL0     H24174   6.601   8.780   3.995 -1.0415  0.5358  1.8466
  941MOL0     H24175   6.551   8.812   4.224 -1.8318 -0.1314  2.3473
  941MOL0     H24176   6.450   8.621   4.671  0.1695 -0.5636 -1.3302
  941MOL0     H24177   6.454   8.707   4.894 -0.5296  0.8581  0.2902
  941MOL0     H24178   6.651   9.097   4.938  1.5996 -0.9924 -2.7571
  941MOL0     H24179   6.779   8.981   4.986  0.8830  0.7078  0.8252
  941MOL0     H24180   6.773   9.111   5.176  1.6382 -0.9530 -0.0676
  941MOL0     H24181   6.684   8.971   5.220 -0.9621 -0.4986 -0.5855
  941MOL0     H24182   6.476   9.086   5.154  2.5464 -4.5919  0.6130
  941MOL0     H24183   6.577   9.243   5.153  0.3230  0.6850 -0.2925
  941MOL0     H24184   6.513   9.074   5.389  3.5125 -0.9927 -0.7455
  941MOL0     H24185   6.638   9.195   5.376 -1.5258  1.5641  3.4003
  941MOL0     H24186   6.486   9.371   5.314 -0.5905  0.6572  0.8749
  941MOL0     H24187   6.430   9.302   5.471  4.7386 -2.1515  0.9900
  941MOL0     H24188   6.267   9.174   5.338 -2.0909  1.1802 -2.0364
  941MOL0     H24189   6.326   9.247   5.184  0.0513  0.2648  0.3396
  941MOL0     H24190   6.164   9.409   5.395  2.4110  6.3219  0.0165
  941MOL0     H24191   6.256   9.459   5.250 -1.7372  0.8200 -0.2658
  941MOL0     H24192   6.111   9.320   5.115  0.2728  2.3403 -1.2203
  941MOL0     H24193   6.020   9.436   5.219 -0.9173 -1.2573 -1.4094
  941MOL0     H24194   6.607   9.074   4.754 -1.8644  0.3682  1.0668
  941MOL0     H24195   6.609   8.993   4.520 -1.3223  2.2832  1.0995
  941MOL0     H24196   6.692   8.428   4.326  0.1879 -1.5379 -1.0378
  941MOL0     H24197   6.797   8.397   4.107 -0.9931  0.2633 -1.6345
  941MOL0     H24198   7.475   7.354   3.659 -0.5311 -1.2250  1.3950
  941MOL0     H24199   7.436   7.140   3.692  1.6893  0.7351  1.1958
  941MOL0     H24200   7.624   6.710   3.547  0.7179 -1.5341 -0.6313
  941MOL0     H24201   7.634   6.471   3.569 -0.5458 -2.1302  0.7876
  941MOL0     H24202   7.678   6.298   3.744  0.4246 -0.4187  0.3357
  941MOL0     H24203   7.599   6.256   3.596  0.6540  0.6694  0.7395
  941MOL0     H24204   7.537   6.095   3.850 -1.5693 -1.9747 -0.1909
  941MOL0     H24205   7.483   6.072   3.683 -1.0870 -2.9228  2.3193
  941MOL0     H24206   7.764   6.087   3.798 -0.0582  0.1312 -0.7121
  941MOL0     H24207   7.740   6.055   3.627  0.5222 -1.5299 -1.4663
  941MOL0     H24208   7.648   5.856   3.864  1.8173 -3.9358 -0.2206
  941MOL0     H24209   7.621   5.828   3.698 -0.6769 -1.6416  1.2579
  941MOL0     H24210   8.039   5.757   3.756  0.5896  0.9832 -0.1755
  941MOL0     H24211   7.287   6.464   3.809  2.2231 -0.0628  2.8004
  941MOL0     H24212   7.255   6.687   3.770  0.3343 -0.7215  1.0607
  942MOL0     O24213  11.160  11.126   8.114 -0.6970  0.0259 -0.5241
  942MOL0     C24214  11.215  11.239   8.105  0.2733  0.0619  0.8199
  942MOL0     O24215  11.216  11.332   8.201 -0.5912 -0.4018 -0.0443
  942MOL0     C24216  11.132  11.339   8.303 -0.4917  0.1879 -1.5834
  942MOL0     C24217  11.113  11.225   8.392  0.0976 -0.6813  0.7049
  942MOL0     C24218  11.030  11.246   8.506  0.1758  0.8012  0.1377
  942MOL0     C24219  10.979  11.371   8.538 -0.3276 -0.2014  0.0899
  942MOL0     O24220  10.925  11.396   8.663  0.2898 -0.5358 -0.6847
  942MOL0     C24221  10.900  11.280   8.747 -0.1985  0.3390  0.3517
  942MOL0     C24222  10.847  11.317   8.887 -0.9504 -0.7476  0.3039
  942MOL0     C24223  10.773  11.203   8.952  0.3058 -0.4448  0.0919
  942MOL0     C24224  10.857  11.118   9.042  0.0947 -0.3238 -0.8465
  942MOL0     C24225  10.784  11.019   9.138  0.8004 -0.4249  0.3899
  942MOL0     C24226  10.720  11.078   9.263  0.3668 -1.3344 -1.1307
  942MOL0     C24227  10.650  10.960   9.330 -0.0347  0.4587 -0.6033
  942MOL0     C24228  10.551  11.015   9.442  0.3745 -0.3217  0.1741
  942MOL0     N24229  10.488  10.885   9.493 -0.3517  0.3625 -0.6300
  942MOL0     C24230  10.532  10.829   9.603  0.4299 -0.1307  0.1132
  942MOL0     C24231  10.441  10.731   9.612 -0.8986 -0.0609 -0.6152
  942MOL0     C24232  10.461  10.622   9.714 -1.1236 -1.0664  0.0098
  942MOL0     C24233  10.366  10.614   9.830 -0.4393  0.2275 -0.0617
  942MOL0     C24234  10.217  10.560   9.792 -0.1654  0.2545  0.3582
  942MOL0     C24235  10.140  10.536   9.919 -0.6630  1.1924  0.1019
  942MOL0     O24236  10.166  10.398   9.953  0.2090 -0.1273 -0.1026
  942MOL0     C24237  10.047  10.337  10.002 -0.3231  0.0512 -0.3918
  942MOL0     C24238  10.031  10.195   9.989 -0.2256 -0.3432 -0.5279
  942MOL0     C24239   9.907  10.135  10.022 -0.0398  0.6610 -0.8384
  942MOL0     C24240   9.807  10.207  10.084  0.0201  0.0275 -0.0696
  942MOL0     C24241   9.680  10.138  10.111 -0.3552 -0.9232  0.6862
  942MOL0     O24242   9.682  10.002  10.110 -0.0712  0.2334  0.3716
  942MOL0     C24243   9.557   9.953  10.107  0.3489 -0.0773 -1.0150
  942MOL0     C24244   9.502   9.881   9.997 -0.2909  0.1671  0.3875
  942MOL0     C24245   9.393   9.812  10.022  0.0192  0.2549 -0.9205
  942MOL0     C24246   9.324   9.800  10.138  0.7571 -0.1901  0.3534
  942MOL0     O24247   9.210   9.736  10.132 -0.2039 -0.0825 -0.5017
  942MOL0     C24248   9.101   9.836  10.132  0.0355  0.1950  0.1532
  942MOL0     C24249   8.976   9.783  10.057 -0.6163  0.7436 -0.5718
  942MOL0     C24250   8.942   9.636  10.081 -1.0583  0.5410 -0.0677
  942MOL0     C24251   8.801   9.606  10.039 -0.2603  0.2395  0.8109
  942MOL0     C24252   8.760   9.457  10.071 -0.5364 -0.1760  0.8415
  942MOL0     C24253   8.618   9.450  10.138  0.9635 -0.2621  1.3092
  942MOL0     C24254   8.499   9.516  10.068 -0.1852 -0.5861 -0.1526
  942MOL0     C24255   8.466   9.468   9.932  0.2875 -0.8481 -0.6721
  942MOL0    Cl24256   8.317   9.539   9.863  0.1830 -0.6751 -0.3236
  942MOL0     C24257   9.379   9.862  10.253 -0.0743  0.0690  0.7536
  942MOL0     C24258   9.499   9.940  10.231 -0.0924 -0.3074 -0.0437
  942MOL0     O24259   9.591  10.217  10.153  0.2184  0.3104 -0.3898
  942MOL0     C24260   9.822  10.340  10.107  0.0406  0.0068  0.3859
  942MOL0     C24261   9.939  10.402  10.069 -0.9982  0.0283 -0.5053
  942MOL0     N24262  10.359  10.721   9.502  0.0214 -0.0449  0.6468
  942MOL0     N24263  10.383  10.819   9.436  0.2739 -0.9717 -1.1063
  942MOL0     C24264  10.989  11.473   8.449  0.4364 -0.6092  0.4255
  942MOL0     C24265  11.056  11.455   8.331 -0.6029 -0.7713 -0.3022
  942MOL0     C24266  11.281  11.264   7.969 -0.0498 -0.0759 -0.1266
  942MOL0     C24267  11.330  11.394   7.942 -0.3839 -0.0944  1.0842
  942MOL0     C24268  11.399  11.413   7.813  0.8016 -0.2446  0.2105
  942MOL0     C24269  11.414  11.300   7.727  0.2060  0.2646 -0.6539
  942MOL0     O24270  11.445  11.316   7.593 -0.3022  0.0393 -0.2233
  942MOL0     C24271  11.533  11.418   7.551 -0.3400  0.2008  0.6116
  942MOL0     C24272  11.526  11.399   7.401 -0.6258  0.8378 -0.0544
  942MOL0     C24273  11.383  11.384   7.345  0.2432  0.7012  0.1552
  942MOL0     C24274  11.394  11.358   7.193 -0.5669 -0.0723  0.5968
  942MOL0     C24275  11.451  11.225   7.163  0.2530  0.5090  0.7998
  942MOL0     C24276  11.501  11.121   7.126 -0.6602 -0.0415  0.8901
  942MOL0     C24277  11.364  11.179   7.763 -0.1305  0.5580 -0.4697
  942MOL0     C24278  11.295  11.161   7.881  0.6460 -0.5510  0.5501
  942MOL0     H24279  11.158  11.127   8.382  0.6452 -0.2415 -2.1982
  942MOL0     H24280  11.011  11.164   8.576  0.9289  2.7863  2.8360
  942MOL0     H24281  10.993  11.225   8.760 -0.6738 -0.2305  1.5223
  942MOL0     H24282  10.821  11.217   8.706 -1.3967 -0.1305  3.1286
  942MOL0     H24283  10.787  11.406   8.868  0.0888  0.1721  1.2007
  942MOL0     H24284  10.916  11.359   8.961 -0.4274  1.0205 -1.1119
  942MOL0     H24285  10.720  11.152   8.872  0.5680  1.3370 -1.2694
  942MOL0     H24286  10.698  11.249   9.017 -0.6583  2.4394 -2.8161
  942MOL0     H24287  10.946  11.082   8.991  0.6514  0.9590 -0.8351
  942MOL0     H24288  10.893  11.192   9.114 -2.0123 -1.0370  1.0580
  942MOL0     H24289  10.853  10.943   9.176 -0.0445 -0.2933  2.2735
  942MOL0     H24290  10.703  10.974   9.080 -0.7982  2.4847  0.1386
  942MOL0     H24291  10.642  11.150   9.235 -4.3449 -5.5334 -0.3062
  942MOL0     H24292  10.797  11.115   9.331  0.2950 -2.3979 -0.4564
  942MOL0     H24293  10.584  10.909   9.260 -0.1477  0.4275 -0.4751
  942MOL0     H24294  10.725  10.892   9.370  3.0916  2.0016 -3.3403
  942MOL0     H24295  10.469  11.081   9.410 -1.5540 -2.4591  0.4147
  942MOL0     H24296  10.617  11.057   9.519 -0.3508  0.1930  0.5306
  942MOL0     H24297  10.605  10.868   9.672  0.2152  1.5335 -0.5427
  942MOL0     H24298  10.562  10.621   9.756 -0.0553  0.5975 -2.3590
  942MOL0     H24299  10.471  10.531   9.653  3.6286  1.0356 -2.9063
  942MOL0     H24300  10.365  10.712   9.879 -1.8660  1.0488 -1.6459
  942MOL0     H24301  10.403  10.537   9.898 -2.3453 -0.0601  0.6861
  942MOL0     H24302  10.172  10.636   9.728  3.0500  5.1751  3.2144
  942MOL0     H24303  10.228  10.473   9.727  1.1169  1.0020 -0.4748
  942MOL0     H24304  10.037  10.552   9.885 -2.2755 -5.4015  0.4537
  942MOL0     H24305  10.184  10.602   9.994  0.6840  0.0492  0.3448
  942MOL0     H24306  10.118  10.136   9.963 -0.6654 -1.2246 -0.0726
  942MOL0     H24307   9.899  10.026  10.020  3.2472  0.2203  1.3699
  942MOL0     H24308   9.535   9.882   9.894 -2.4907  3.1210 -0.4294
  942MOL0     H24309   9.346   9.759   9.940 -3.1762  3.8465 -1.6625
  942MOL0     H24310   9.125   9.931  10.084 -1.5775 -0.1113 -1.3878
  942MOL0     H24311   9.089   9.854  10.239  1.9986 -0.7283  0.5680
  942MOL0     H24312   8.994   9.807   9.952 -0.4531 -1.3149 -1.0522
  942MOL0     H24313   8.895   9.847  10.092 -0.1138  0.2821  1.5937
  942MOL0     H24314   8.948   9.601  10.185 -2.8155 -1.6590 -0.6357
  942MOL0     H24315   9.014   9.572  10.030 -0.0236 -0.4738  2.4782
  942MOL0     H24316   8.732   9.685  10.068 -1.6295  0.1221 -1.8255
  942MOL0     H24317   8.788   9.627   9.932  5.0482  2.6871  0.3219
  942MOL0     H24318   8.828   9.409  10.142 -1.2952 -1.7266  0.5715
  942MOL0     H24319   8.768   9.397   9.980 -0.0036  1.3404 -0.1447
  942MOL0     H24320   8.624   9.503  10.234 -1.4297  3.1973 -0.2485
  942MOL0     H24321   8.585   9.346  10.140  0.8622 -0.3039 -0.6073
  942MOL0     H24322   8.403   9.520  10.121 -1.6464  0.4626 -2.6574
  942MOL0     H24323   8.517   9.624  10.071  0.3008 -0.4662 -3.5223
  942MOL0     H24324   8.453   9.360   9.948  0.6936 -0.6143  1.7380
  942MOL0     H24325   8.541   9.482   9.855  1.9487  0.8043  1.1359
  942MOL0     H24326   9.355   9.851  10.358 -2.4918  2.4146  0.5466
  942MOL0     H24327   9.543   9.988  10.318 -1.9661  2.5614 -0.5416
  942MOL0     H24328   9.759  10.407  10.164  1.9780  0.5337  2.0219
  942MOL0     H24329   9.979  10.502  10.084  2.8674 -1.5331  0.9428
  942MOL0     H24330  10.946  11.568   8.481  2.4544  0.5677 -0.1365
  942MOL0     H24331  11.059  11.524   8.247 -3.0102  0.1679  0.2943
  942MOL0     H24332  11.319  11.475   8.013  1.4564 -0.8102  2.2620
  942MOL0     H24333  11.427  11.517   7.800 -1.4464  0.2175 -1.5022
  942MOL0     H24334  11.636  11.399   7.583  0.1260  2.3216  0.5155
  942MOL0     H24335  11.498  11.515   7.586  0.5243  1.4199 -1.6986
  942MOL0     H24336  11.576  11.479   7.347 -4.6287  0.7755 -4.4648
  942MOL0     H24337  11.591  11.316   7.373 -1.0443  0.5092 -0.0631
  942MOL0     H24338  11.333  11.481   7.351  0.0679  0.5864  0.5997
  942MOL0     H24339  11.321  11.309   7.396 -0.7332 -0.0276 -1.9909
  942MOL0     H24340  11.307  11.371   7.127 -0.0232 -3.3394 -0.9640
  942MOL0     H24341  11.467  11.428   7.152  3.9613 -3.7807  1.4534
  942MOL0     H24342  11.539  11.021   7.131 -0.2427  0.1676  3.7781
  942MOL0     H24343  11.395  11.101   7.695  0.2682 -0.9932  1.4163
  942MOL0     H24344  11.264  11.062   7.914 -1.4276  0.4972  1.9075
  943MOL0     O24345   7.604   7.922  11.205  1.1364  0.1717 -0.3984
  943MOL0     C24346   7.541   7.823  11.248  0.2199  0.3441  0.1752
  943MOL0     O24347   7.498   7.822  11.376 -0.6209 -0.4159 -0.1231
  943MOL0     C24348   7.529   7.929  11.451 -0.4940 -1.4073 -0.3929
  943MOL0     C24349   7.471   8.059  11.428 -0.0573  0.1931 -0.2370
  943MOL0     C24350   7.503   8.166  11.512  0.1216  0.0004  0.6207
  943MOL0     C24351   7.607   8.153  11.602  0.0322 -0.7128  0.1861
  943MOL0     O24352   7.639   8.259  11.680 -0.8329 -0.2377  0.7476
  943MOL0     C24353   7.770   8.325  11.646  0.1260  0.7337 -0.4736
  943MOL0     C24354   7.835   8.332  11.782  0.6104 -0.3701  0.0824
  943MOL0     C24355   7.757   8.431  11.876 -0.4198  0.4903 -0.5782
  943MOL0     C24356   7.847   8.462  12.001 -0.9637 -1.0507 -0.5016
  943MOL0     C24357   7.800   8.572  12.093 -0.0328 -1.3196 -0.1009
  943MOL0     C24358   7.879   8.575  12.224  0.3037 -0.4106 -0.2911
  943MOL0     C24359   8.026   8.576  12.216  0.1749 -0.2765 -0.2589
  943MOL0     C24360   8.086   8.579  12.360  0.4162  0.5876  0.9688
  943MOL0     N24361   8.226   8.558  12.367 -0.8303 -0.9107 -0.3640
  943MOL0     C24362   8.318   8.560  12.258 -0.7856 -0.6515  0.6115
  943MOL0     C24363   8.445   8.554  12.314 -0.1480 -0.0941  0.1321
  943MOL0     C24364   8.572   8.577  12.249 -0.3564 -1.0386  0.3072
  943MOL0     C24365   8.687   8.481  12.295  0.2981 -0.0754  0.7435
  943MOL0     C24366   8.811   8.505  12.212 -0.7572 -0.4617  0.0735
  943MOL0     C24367   8.927   8.602  12.260  0.6535 -0.4569 -0.6111
  943MOL0     O24368   9.012   8.529  12.346 -1.3041 -0.4720  0.0337
  943MOL0     C24369   9.140   8.574  12.375 -0.5081 -0.2965  0.1673
  943MOL0     C24370   9.173   8.713  12.370 -0.4873 -0.0815 -0.2388
  943MOL0     C24371   9.304   8.750  12.399 -0.2669 -0.2776  0.2647
  943MOL0     C24372   9.400   8.661  12.456  0.5719  0.7302  0.8112
  943MOL0     C24373   9.527   8.699  12.517 -0.3970  0.0510  1.2276
  943MOL0     O24374   9.607   8.609  12.571 -0.2046 -0.0666 -0.4379
  943MOL0     C24375   9.722   8.652  12.622 -0.0043 -0.3271 -0.5867
  943MOL0     C24376   9.810   8.735  12.558  0.2980 -0.1823  0.4407
  943MOL0     C24377   9.935   8.766  12.610  0.3329  0.3338 -0.4921
  943MOL0     C24378   9.981   8.720  12.735  0.3483  0.7959  0.3009
  943MOL0     O24379  10.103   8.743  12.782  0.8397 -0.7687  0.4092
  943MOL0     C24380  10.167   8.865  12.738 -0.6500  0.1047 -0.3058
  943MOL0     C24381  10.286   8.890  12.835 -0.3910 -0.3383  0.6779
  943MOL0     C24382  10.277   9.009  12.930 -0.9915  0.4906 -0.5208
  943MOL0     C24383  10.418   9.039  12.973 -0.1985 -1.0460  0.2432
  943MOL0     C24384  10.419   9.153  13.079 -0.1566 -0.0075  0.3638
  943MOL0     C24385  10.554   9.167  13.152 -0.3294  0.2739  0.3836
  943MOL0     C24386  10.664   9.191  13.052 -1.1763  0.8988  0.3636
  943MOL0     C24387  10.729   9.327  13.069  0.2400  0.0509  0.2681
  943MOL0    Cl24388  10.844   9.359  13.203 -0.0444 -0.6550  0.3253
  943MOL0     C24389   9.904   8.622  12.796  1.0085 -0.1695 -0.7803
  943MOL0     C24390   9.771   8.594  12.746 -0.1057 -1.5601  0.2315
  943MOL0     O24391   9.549   8.823  12.519 -0.1387 -0.0020 -0.5660
  943MOL0     C24392   9.358   8.525  12.470 -0.3204  0.0654  1.3723
  943MOL0     C24393   9.235   8.475  12.424  0.7598  0.5145  0.2071
  943MOL0     N24394   8.424   8.533  12.447  0.2065  0.1901 -0.5938
  943MOL0     N24395   8.300   8.534  12.483  1.0125  0.1540  0.2240
  943MOL0     C24396   7.669   8.028  11.623 -0.1441  1.3645  0.2337
  943MOL0     C24397   7.627   7.918  11.547  0.1024  0.4656 -0.6995
  943MOL0     C24398   7.501   7.700  11.168 -0.0714 -0.3765  0.1451
  943MOL0     C24399   7.398   7.619  11.210 -0.0808  0.2466  0.3177
  943MOL0     C24400   7.362   7.515  11.120 -0.2916 -1.6218 -0.5768
  943MOL0     C24401   7.429   7.484  11.003 -0.1009  0.5338  0.2661
  943MOL0     O24402   7.424   7.357  10.931 -0.4618 -0.1224 -0.6852
  943MOL0     C24403   7.332   7.266  10.991  0.1900 -0.8673  0.5286
  943MOL0     C24404   7.360   7.137  10.929  0.3358  0.2197 -0.1229
  943MOL0     C24405   7.277   7.017  10.981 -0.0053 -0.0931  0.2279
  943MOL0     C24406   7.288   6.896  10.889  0.2089 -0.0894  0.2857
  943MOL0     C24407   7.421   6.833  10.903 -0.0989 -0.0269  0.2280
  943MOL0     C24408   7.508   6.752  10.921 -0.2911 -0.9877 -1.1287
  943MOL0     C24409   7.534   7.568  10.972  0.3491  0.9198  0.1552
  943MOL0     C24410   7.564   7.679  11.048 -1.2456 -0.4370  0.3687
  943MOL0     H24411   7.400   8.063  11.346 -1.5720 -1.2347  0.9340
  943MOL0     H24412   7.445   8.258  11.510  2.6949  1.7453 -2.0405
  943MOL0     H24413   7.748   8.428  11.615 -1.6358  0.0020 -1.8780
  943MOL0     H24414   7.834   8.283  11.568  3.0429  0.4613  1.9134
  943MOL0     H24415   7.941   8.361  11.785  1.3389 -2.8383  2.6666
  943MOL0     H24416   7.829   8.229  11.820 -0.2372 -0.3684 -0.0250
  943MOL0     H24417   7.657   8.403  11.911 -0.3374  1.7088  0.6860
  943MOL0     H24418   7.741   8.523  11.820 -3.2866 -0.4371 -1.4453
  943MOL0     H24419   7.853   8.373  12.065  1.8296 -1.1588 -0.7722
  943MOL0     H24420   7.950   8.486  11.972 -0.0393  0.6825  3.4716
  943MOL0     H24421   7.691   8.572  12.109 -0.1987  2.1757 -0.5197
  943MOL0     H24422   7.820   8.657  12.027  0.5035 -1.9057 -0.7085
  943MOL0     H24423   7.839   8.491  12.280 -4.2075  1.2347 -0.6445
  943MOL0     H24424   7.842   8.661  12.281  2.2323  1.1509 -1.2289
  943MOL0     H24425   8.065   8.493  12.157 -0.2744  0.6211 -1.8685
  943MOL0     H24426   8.051   8.671  12.167  0.4607  2.5249  4.6154
  943MOL0     H24427   8.032   8.503  12.418 -1.4561  0.5958 -0.6417
  943MOL0     H24428   8.062   8.673  12.411 -0.0984  0.9945 -0.0026
  943MOL0     H24429   8.307   8.576  12.151  0.7970 -3.4220 -0.0722
  943MOL0     H24430   8.589   8.683  12.270 -1.6058 -0.2474 -2.3251
  943MOL0     H24431   8.553   8.566  12.142 -0.8241 -0.4896  0.3292
  943MOL0     H24432   8.653   8.378  12.277 -4.4708  1.4591 -0.4481
  943MOL0     H24433   8.718   8.502  12.398 -4.0219 -3.5422  3.1115
  943MOL0     H24434   8.862   8.410  12.195 -0.9453 -0.5755  0.1474
  943MOL0     H24435   8.784   8.549  12.115 -1.9655 -0.2588  0.4799
  943MOL0     H24436   8.889   8.690  12.313  1.4302 -1.9695  2.7365
  943MOL0     H24437   8.987   8.627  12.172 -0.7440 -3.4791 -2.6002
  943MOL0     H24438   9.097   8.786  12.341 -1.3885 -1.4151 -1.3695
  943MOL0     H24439   9.329   8.855  12.408 -2.0984  0.0398  2.2372
  943MOL0     H24440   9.776   8.771  12.461 -2.9833 -0.4576  1.3758
  943MOL0     H24441   9.997   8.847  12.573 -1.3753  3.4808  2.8292
  943MOL0     H24442  10.094   8.946  12.736 -0.4563  0.4159  2.2125
  943MOL0     H24443  10.214   8.844  12.642  0.1865 -0.3819  0.2024
  943MOL0     H24444  10.369   8.896  12.763 -1.2795 -0.1267 -0.3498
  943MOL0     H24445  10.301   8.803  12.900  0.1575  0.9610  2.3733
  943MOL0     H24446  10.220   8.984  13.020  0.4610  0.0930  0.3165
  943MOL0     H24447  10.229   9.099  12.890  0.0688  1.0548 -0.5698
  943MOL0     H24448  10.463   8.949  13.014  1.4433  0.6976  2.5612
  943MOL0     H24449  10.474   9.071  12.885  1.8478  2.9362  2.6758
  943MOL0     H24450  10.357   9.142  13.169 -0.0664  0.7968  0.5330
  943MOL0     H24451  10.395   9.248  13.029 -2.7639  0.6724  2.6469
  943MOL0     H24452  10.583   9.074  13.201  0.4253  0.4490  0.2859
  943MOL0     H24453  10.548   9.240  13.232 -2.2920  1.0174 -0.3750
  943MOL0     H24454  10.738   9.111  13.056 -2.6656 -0.6696 -1.2438
  943MOL0     H24455  10.635   9.175  12.948  4.3719 -3.5397 -0.9715
  943MOL0     H24456  10.643   9.394  13.072  2.1968  2.8194 -1.3655
  943MOL0     H24457  10.787   9.343  12.978  0.8498 -2.5935  0.0887
  943MOL0     H24458   9.926   8.576  12.892 -0.8889 -2.5563 -1.3764
  943MOL0     H24459   9.718   8.523  12.809 -0.5007  0.0494  1.7822
  943MOL0     H24460   9.428   8.455  12.516  3.0604 -0.1001 -3.3179
  943MOL0     H24461   9.197   8.373  12.429 -0.8443  1.1044  0.7978
  943MOL0     H24462   7.748   7.989  11.686 -0.4976 -4.0557 -2.1158
  943MOL0     H24463   7.672   7.819  11.541  0.1618  0.4936 -0.7220
  943MOL0     H24464   7.339   7.630  11.300  0.9450 -4.3154  1.8557
  943MOL0     H24465   7.274   7.457  11.147 -1.5274  1.0163  1.5029
  943MOL0     H24466   7.226   7.294  10.995 -0.1647 -2.2370  3.5416
  943MOL0     H24467   7.358   7.255  11.096  0.5205 -2.2646  0.3135
  943MOL0     H24468   7.345   7.165  10.824 -2.1035  0.9070  0.3384
  943MOL0     H24469   7.464   7.109  10.947  1.4783 -1.7761 -6.8097
  943MOL0     H24470   7.173   7.048  10.970  0.2092 -0.0608 -2.0739
  943MOL0     H24471   7.280   6.991  11.087  0.2420  2.4637  0.9194
  943MOL0     H24472   7.216   6.819  10.916  0.8874 -1.9791 -2.7108
  943MOL0     H24473   7.276   6.920  10.783 -1.2824 -0.7724  0.2883
  943MOL0     H24474   7.581   6.678  10.947  0.4210  0.8213  2.5987
  943MOL0     H24475   7.579   7.549  10.876 -1.8416  1.2394 -1.0139
  943MOL0     H24476   7.639   7.752  11.017  0.0174 -1.8418 -0.0070
  944MOL0     O24477  10.541   4.478   4.200  0.0927  0.0241 -0.1078
  944MOL0     C24478  10.627   4.404   4.153 -0.4078  0.2728  0.6827
  944MOL0     O24479  10.620   4.318   4.047 -0.1754  0.5146  0.4548
  944MOL0     C24480  10.492   4.286   4.009 -0.0236  0.3697 -0.1192
  944MOL0     C24481  10.408   4.386   3.949 -0.1590 -0.8888 -0.0257
  944MOL0     C24482  10.274   4.361   3.918 -0.7136 -0.4548 -0.1673
  944MOL0     C24483  10.213   4.235   3.945 -0.7674  0.8443  0.0309
  944MOL0     O24484  10.086   4.195   3.906 -0.1912 -0.1920  0.5065
  944MOL0     C24485  10.054   4.066   3.863 -0.4748  0.8076 -0.6932
  944MOL0     C24486   9.919   4.029   3.919 -0.2214 -0.4400 -0.1282
  944MOL0     C24487   9.886   3.880   3.906  0.0353 -0.4305 -0.0707
  944MOL0     C24488   9.754   3.832   3.963 -0.1017  0.8817  0.4790
  944MOL0     C24489   9.754   3.830   4.120 -1.8846 -0.2213  0.8506
  944MOL0     C24490   9.645   3.744   4.184  1.1718 -0.2136  0.9230
  944MOL0     C24491   9.676   3.719   4.328 -1.0175 -0.5827 -0.4198
  944MOL0     C24492   9.569   3.639   4.397  1.3817 -0.9502  0.0878
  944MOL0     N24493   9.433   3.687   4.402 -0.1267  0.2052  0.1575
  944MOL0     C24494   9.388   3.798   4.477 -0.0036  0.0734 -0.5002
  944MOL0     C24495   9.261   3.830   4.433 -1.1063  0.0953 -0.4317
  944MOL0     C24496   9.168   3.935   4.491 -0.4106  0.1045  0.9573
  944MOL0     C24497   9.196   4.074   4.455 -0.1722  0.9247 -0.6035
  944MOL0     C24498   9.199   4.102   4.305 -0.0578  0.0008  0.5816
  944MOL0     C24499   9.056   4.104   4.243 -0.1733 -0.6432 -0.3523
  944MOL0     O24500   8.979   4.228   4.264 -0.0712  0.0565 -0.4648
  944MOL0     C24501   8.859   4.216   4.202 -1.2234  0.6828  0.2728
  944MOL0     C24502   8.763   4.150   4.263 -1.0808 -0.7039  0.0250
  944MOL0     C24503   8.638   4.145   4.201 -0.4770  0.6265 -0.3573
  944MOL0     C24504   8.618   4.213   4.073 -0.5960 -0.3467  0.5356
  944MOL0     C24505   8.483   4.203   4.006 -0.2305 -0.2607  0.1533
  944MOL0     O24506   8.405   4.118   4.061  0.8369  0.7990 -0.8227
  944MOL0     C24507   8.297   4.055   3.999  1.1435  0.4532 -0.1100
  944MOL0     C24508   8.308   4.006   3.868 -0.9245  0.8440 -0.5941
  944MOL0     C24509   8.210   3.914   3.823  0.2009  0.1625 -0.1948
  944MOL0     C24510   8.100   3.877   3.897  0.5520 -0.3622 -1.0222
  944MOL0     O24511   8.013   3.787   3.848  0.4826  0.2318  0.6270
  944MOL0     C24512   7.881   3.752   3.902 -0.0859 -0.6128 -0.9950
  944MOL0     C24513   7.790   3.679   3.803 -0.1026 -0.4040  0.1786
  944MOL0     C24514   7.778   3.740   3.667 -0.1272  0.0656 -0.3798
  944MOL0     C24515   7.692   3.872   3.677  0.5004  0.6488  0.0820
  944MOL0     C24516   7.637   3.916   3.539 -0.4898 -0.0134  0.1748
  944MOL0     C24517   7.550   4.036   3.557 -1.0207 -0.1233  0.1311
  944MOL0     C24518   7.481   4.088   3.429 -0.0879  0.0844  0.0345
  944MOL0     C24519   7.539   4.214   3.377  0.8126 -0.2685  0.2699
  944MOL0    Cl24520   7.409   4.320   3.309 -0.3093  0.0490  0.8385
  944MOL0     C24521   8.079   3.945   4.018 -0.5384  0.1335  0.7894
  944MOL0     C24522   8.175   4.030   4.075  0.3882  0.3087  0.2029
  944MOL0     O24523   8.460   4.277   3.907  0.0615 -0.2940  0.4143
  944MOL0     C24524   8.720   4.287   4.020  1.0489 -0.0538  0.2610
  944MOL0     C24525   8.841   4.297   4.091 -0.8660 -0.1683 -0.2499
  944MOL0     N24526   9.231   3.717   4.350  0.0941 -0.4724  0.8112
  944MOL0     N24527   9.332   3.638   4.332  0.1733 -0.1803  0.2982
  944MOL0     C24528  10.299   4.133   4.002  0.4374 -0.9723 -0.8905
  944MOL0     C24529  10.436   4.166   4.039  0.7434 -0.0376  0.0293
  944MOL0     C24530  10.757   4.450   4.200  1.5331  0.1245 -0.4324
  944MOL0     C24531  10.781   4.548   4.308  0.1015  0.0798 -0.1665
  944MOL0     C24532  10.907   4.582   4.351 -0.8900 -1.7411 -0.4590
  944MOL0     C24533  11.014   4.540   4.274  0.6250 -0.5459  1.5054
  944MOL0     O24534  11.142   4.588   4.301  0.7117  0.6252  0.0113
  944MOL0     C24535  11.167   4.639   4.435  0.0419 -0.4475 -0.4634
  944MOL0     C24536  11.301   4.715   4.450  0.1647  0.0042  0.9485
  944MOL0     C24537  11.421   4.620   4.417  0.4526  0.0207 -0.1672
  944MOL0     C24538  11.552   4.692   4.418 -0.2279  0.6902 -0.6719
  944MOL0     C24539  11.656   4.583   4.397 -0.5195 -0.0191  0.1730
  944MOL0     C24540  11.721   4.483   4.366  0.6813 -0.0767  0.0007
  944MOL0     C24541  10.991   4.459   4.156  0.5148 -0.0954 -1.3248
  944MOL0     C24542  10.865   4.414   4.123  0.5618 -0.5258 -0.9634
  944MOL0     H24543  10.457   4.475   3.913  0.3571 -0.8537  0.7433
  944MOL0     H24544  10.224   4.446   3.873 -2.0648 -1.2939 -0.2831
  944MOL0     H24545  10.121   3.984   3.890  0.6713  2.0843  0.4935
  944MOL0     H24546  10.056   4.063   3.754  3.1315  5.2157 -1.0870
  944MOL0     H24547   9.848   4.093   3.866 -0.7366  1.1265  2.3454
  944MOL0     H24548   9.903   4.042   4.026 -0.6702 -3.1414  0.2011
  944MOL0     H24549   9.962   3.815   3.951  1.3685  1.7924  1.0504
  944MOL0     H24550   9.887   3.854   3.799 -0.2016  1.4924 -0.5677
  944MOL0     H24551   9.660   3.879   3.932 -1.4930 -2.0395 -0.1294
  944MOL0     H24552   9.749   3.726   3.937 -3.2674  0.6302  1.6147
  944MOL0     H24553   9.742   3.932   4.155  2.2306  0.5784  0.3958
  944MOL0     H24554   9.845   3.781   4.158 -2.5415 -1.9049  0.3706
  944MOL0     H24555   9.637   3.644   4.140 -3.2844 -0.3746  1.6192
  944MOL0     H24556   9.554   3.804   4.179  0.3380 -1.5263 -0.7543
  944MOL0     H24557   9.769   3.661   4.326 -1.6163 -1.5635 -0.5668
  944MOL0     H24558   9.690   3.816   4.377  2.0984 -1.9107  1.6904
  944MOL0     H24559   9.607   3.619   4.497  0.0066  2.2935  1.3905
  944MOL0     H24560   9.563   3.550   4.333  0.5739  0.0258 -1.2439
  944MOL0     H24561   9.447   3.848   4.554 -2.0347  0.9160  0.5726
  944MOL0     H24562   9.179   3.931   4.600  0.9200 -0.9673  0.8141
  944MOL0     H24563   9.070   3.899   4.458  1.9103 -1.9085 -5.0209
  944MOL0     H24564   9.290   4.109   4.498  1.0620 -0.8125 -1.7531
  944MOL0     H24565   9.112   4.113   4.514 -3.1592 -0.9936 -3.2726
  944MOL0     H24566   9.239   4.204   4.299  1.7999 -0.7815 -1.8759
  944MOL0     H24567   9.264   4.030   4.255 -1.2564 -3.2846  3.3507
  944MOL0     H24568   8.997   4.016   4.271  0.2227 -0.5984  0.6563
  944MOL0     H24569   9.064   4.091   4.135 -0.6673 -3.4891 -0.1207
  944MOL0     H24570   8.792   4.118   4.362  2.6252 -0.6888 -0.9037
  944MOL0     H24571   8.556   4.088   4.243  1.4153 -2.4469 -0.5941
  944MOL0     H24572   8.377   4.037   3.790 -2.3359  4.0158 -0.7694
  944MOL0     H24573   8.224   3.865   3.727 -1.2857 -0.5622 -0.0712
  944MOL0     H24574   7.830   3.840   3.944 -0.3352  0.0347 -2.6099
  944MOL0     H24575   7.898   3.685   3.986  0.8371  0.3775 -0.3560
  944MOL0     H24576   7.693   3.655   3.846 -1.4048  2.5868 -0.7918
  944MOL0     H24577   7.837   3.584   3.778  2.5284  0.1592  2.4841
  944MOL0     H24578   7.737   3.671   3.593  0.8558 -0.3254 -0.5740
  944MOL0     H24579   7.878   3.756   3.624  1.3069 -2.5626  1.6857
  944MOL0     H24580   7.606   3.867   3.744  1.1522 -0.8345  0.8621
  944MOL0     H24581   7.757   3.955   3.705 -4.0062  4.8717 -0.6217
  944MOL0     H24582   7.576   3.836   3.497  0.0284 -1.2695  1.7219
  944MOL0     H24583   7.724   3.925   3.473 -1.5306 -1.9003 -1.5735
  944MOL0     H24584   7.608   4.117   3.601 -1.1260 -0.5965  1.1870
  944MOL0     H24585   7.469   4.011   3.627 -2.2653 -1.4818 -1.6724
  944MOL0     H24586   7.484   4.008   3.354 -2.9205 -0.9112  0.8675
  944MOL0     H24587   7.373   4.102   3.443 -0.8634 -3.2563 -1.6077
  944MOL0     H24588   7.618   4.186   3.307  0.1895 -0.6874 -0.2876
  944MOL0     H24589   7.593   4.264   3.457  1.0191 -3.0009  1.9737
  944MOL0     H24590   7.996   3.909   4.079 -2.1833 -0.1274 -1.4697
  944MOL0     H24591   8.161   4.063   4.178 -0.7904  0.4530  0.0086
  944MOL0     H24592   8.708   4.350   3.932 -2.1242  1.2104  1.4414
  944MOL0     H24593   8.927   4.358   4.068 -0.8765 -0.2121 -0.4108
  944MOL0     H24594  10.260   4.037   4.035  0.0555 -0.5095  0.0557
  944MOL0     H24595  10.487   4.088   4.095  0.2131 -1.7885 -1.8200
  944MOL0     H24596  10.696   4.581   4.368 -0.4455 -0.1010 -0.8267
  944MOL0     H24597  10.920   4.647   4.437  1.4795 -3.0378  0.2437
  944MOL0     H24598  11.153   4.556   4.505  3.2608 -0.7683 -0.0153
  944MOL0     H24599  11.096   4.717   4.462 -1.2847 -1.8496  0.2471
  944MOL0     H24600  11.304   4.783   4.365 -0.4876 -3.2080 -1.8628
  944MOL0     H24601  11.317   4.752   4.552  0.8513 -0.9814  1.2144
  944MOL0     H24602  11.412   4.585   4.314 -1.6457 -2.9778  0.9237
  944MOL0     H24603  11.413   4.536   4.487 -0.1585  0.6253  0.5112
  944MOL0     H24604  11.558   4.754   4.328 -0.0667  1.0890 -0.3911
  944MOL0     H24605  11.579   4.743   4.511 -1.1315 -2.1759  1.3269
  944MOL0     H24606  11.770   4.394   4.334 -2.5602 -1.5666 -1.3146
  944MOL0     H24607  11.076   4.436   4.093  2.5061  1.4627  0.6260
  944MOL0     H24608  10.864   4.343   4.041  3.6320 -0.4724 -1.1743
  945MOL0     O24609   3.988   8.016   3.114  0.0166  0.0952  0.0610
  945MOL0     C24610   3.955   8.136   3.115  0.1389 -0.2350 -0.1280
  945MOL0     O24611   3.889   8.203   3.209 -0.2383  0.1545  0.5312
  945MOL0     C24612   3.884   8.175   3.342 -0.5114  0.5452 -0.4494
  945MOL0     C24613   3.951   8.074   3.407  0.4402  0.0867 -0.5057
  945MOL0     C24614   3.935   8.055   3.548  0.9600 -0.4806  0.2145
  945MOL0     C24615   3.843   8.133   3.629 -0.7894 -0.1542  0.5710
  945MOL0     O24616   3.834   8.116   3.761 -0.9360 -0.2249 -0.4801
  945MOL0     C24617   3.715   8.172   3.838 -0.9354  0.2913  0.5320
  945MOL0     C24618   3.749   8.160   3.985  1.3151  0.4908  0.4060
  945MOL0     C24619   3.633   8.169   4.082 -0.6402 -0.5681 -0.0566
  945MOL0     C24620   3.532   8.050   4.071 -1.3180 -0.8075  0.7098
  945MOL0     C24621   3.593   7.910   4.061 -1.4423  0.5662 -0.4871
  945MOL0     C24622   3.487   7.802   4.070  0.2961  0.4695  0.3466
  945MOL0     C24623   3.537   7.669   4.142 -1.0001 -0.4101 -0.2289
  945MOL0     C24624   3.451   7.547   4.115 -0.3634  1.2133  0.9301
  945MOL0     N24625   3.495   7.423   4.172  0.5486  0.3193 -0.1559
  945MOL0     C24626   3.518   7.391   4.311 -0.8149  0.1774  0.4781
  945MOL0     C24627   3.558   7.260   4.306  0.1293 -0.2832  0.9070
  945MOL0     C24628   3.609   7.194   4.425 -0.1237  0.2447  0.7321
  945MOL0     C24629   3.594   7.042   4.401 -0.5978 -0.9912  0.1116
  945MOL0     C24630   3.618   6.967   4.530 -1.2101 -0.7160 -0.4422
  945MOL0     C24631   3.618   6.824   4.498 -0.8058  0.2312 -1.0324
  945MOL0     O24632   3.692   6.744   4.591 -0.3715 -0.4330  0.2569
  945MOL0     C24633   3.752   6.627   4.542 -0.0971 -0.2015 -0.1838
  945MOL0     C24634   3.695   6.544   4.451  0.1661  0.1048 -0.8141
  945MOL0     C24635   3.752   6.424   4.412 -0.1010  0.6004 -0.5651
  945MOL0     C24636   3.878   6.387   4.461 -0.7117 -0.3128 -0.3821
  945MOL0     C24637   3.934   6.256   4.411  0.5699  0.3683  0.2170
  945MOL0     O24638   4.059   6.216   4.456  0.2389  0.2626  1.0393
  945MOL0     C24639   4.102   6.090   4.448  1.1555 -0.1835  0.7755
  945MOL0     C24640   4.052   5.990   4.525  1.1956  0.0471  0.2746
  945MOL0     C24641   4.076   5.855   4.507  0.9646 -0.1162  0.6834
  945MOL0     C24642   4.164   5.820   4.409 -0.7008 -0.9616  0.7395
  945MOL0     O24643   4.201   5.697   4.358  0.3535  0.3974 -0.8674
  945MOL0     C24644   4.153   5.569   4.412 -0.1486 -0.4221  0.6913
  945MOL0     C24645   4.264   5.467   4.387 -0.2847  0.0155 -0.4943
  945MOL0     C24646   4.221   5.339   4.444 -0.7126  0.1720 -0.4737
  945MOL0     C24647   4.339   5.241   4.455 -0.4552  1.4871  0.2677
  945MOL0     C24648   4.363   5.140   4.341 -0.1175 -0.3919  0.5320
  945MOL0     C24649   4.406   5.208   4.207 -0.2340  0.1377  0.0629
  945MOL0     C24650   4.544   5.288   4.216  0.3744  0.2743  0.3210
  945MOL0     C24651   4.606   5.331   4.079 -0.1739 -0.4678  0.0226
  945MOL0    Cl24652   4.775   5.351   4.093  0.1460  0.0274  0.4215
  945MOL0     C24653   4.221   5.921   4.324  0.0841 -0.3122 -0.5532
  945MOL0     C24654   4.185   6.055   4.347 -0.2707 -0.2617  1.2949
  945MOL0     O24655   3.857   6.184   4.345  0.1830  0.1148  0.6734
  945MOL0     C24656   3.930   6.464   4.563  0.1059  0.2410 -0.6583
  945MOL0     C24657   3.870   6.584   4.601 -0.8268 -0.8537  0.6911
  945MOL0     N24658   3.549   7.219   4.175  0.4286 -0.1315 -0.2455
  945MOL0     N24659   3.513   7.315   4.097  0.3111  0.2236 -0.2373
  945MOL0     C24660   3.782   8.236   3.555  0.4038  0.0861 -0.4412
  945MOL0     C24661   3.796   8.255   3.418 -0.4366  0.3043 -0.0266
  945MOL0     C24662   3.962   8.197   2.979  0.2932 -0.5479 -0.7210
  945MOL0     C24663   4.041   8.143   2.877  0.3846  0.5198  1.3362
  945MOL0     C24664   4.046   8.211   2.752  0.2487  0.5526  1.1159
  945MOL0     C24665   3.984   8.329   2.726  0.3308  0.3410 -0.2229
  945MOL0     O24666   3.994   8.363   2.597  0.4804 -0.5996 -0.3787
  945MOL0     C24667   3.967   8.502   2.574  0.1607 -0.6039  0.4971
  945MOL0     C24668   4.052   8.610   2.645 -0.9316  0.0648  0.5182
  945MOL0     C24669   4.202   8.611   2.635  0.2149  0.9918  0.9544
  945MOL0     C24670   4.279   8.525   2.732 -0.0784  0.2561  0.4236
  945MOL0     C24671   4.428   8.537   2.721  0.3097  0.8035  0.0469
  945MOL0     C24672   4.550   8.550   2.705  0.0427  0.0975 -0.0273
  945MOL0     C24673   3.902   8.382   2.823  0.5783  0.0135 -0.0626
  945MOL0     C24674   3.885   8.309   2.941 -0.4147  0.3810 -0.8312
  945MOL0     H24675   4.027   8.014   3.358  1.9618 -0.7751  2.6516
  945MOL0     H24676   3.998   7.983   3.598  2.1067  1.0361  1.0262
  945MOL0     H24677   3.629   8.110   3.810 -0.9982  1.1654 -1.3897
  945MOL0     H24678   3.706   8.279   3.819 -2.5632  0.4101  1.7367
  945MOL0     H24679   3.827   8.225   4.025  1.7754 -1.9560  3.8837
  945MOL0     H24680   3.789   8.060   4.002  0.0897 -0.7557 -3.1881
  945MOL0     H24681   3.583   8.266   4.070 -0.6873 -0.7917 -1.8129
  945MOL0     H24682   3.681   8.153   4.179 -0.5983 -1.5510 -0.2356
  945MOL0     H24683   3.452   8.065   4.144 -0.8496 -0.1810  1.1054
  945MOL0     H24684   3.486   8.067   3.973  5.0008 -1.5002 -2.9416
  945MOL0     H24685   3.670   7.899   4.137 -2.0932  0.8332  0.2226
  945MOL0     H24686   3.647   7.893   3.968  0.2727 -2.4157  0.9413
  945MOL0     H24687   3.457   7.775   3.968 -3.0751 -2.4541  1.8750
  945MOL0     H24688   3.392   7.848   4.102 -1.6078 -1.9806 -1.3867
  945MOL0     H24689   3.635   7.636   4.106 -0.1541  0.2531  1.3677
  945MOL0     H24690   3.550   7.673   4.251  3.3182 -0.7984 -0.5517
  945MOL0     H24691   3.435   7.520   4.011  1.1513 -0.3272  1.0467
  945MOL0     H24692   3.350   7.572   4.148 -0.7576  1.1244 -0.1820
  945MOL0     H24693   3.534   7.457   4.396  1.3293 -0.8980  0.9933
  945MOL0     H24694   3.542   7.222   4.507 -0.9249  0.1979  0.1068
  945MOL0     H24695   3.715   7.215   4.441  0.8809 -2.9008 -0.8813
  945MOL0     H24696   3.667   7.008   4.328 -1.0065 -2.8013  0.5070
  945MOL0     H24697   3.494   7.018   4.363  0.2338 -0.7893 -2.3906
  945MOL0     H24698   3.718   6.996   4.563 -0.6104 -0.4345 -2.3808
  945MOL0     H24699   3.555   6.980   4.618 -1.3254 -4.7132  0.2699
  945MOL0     H24700   3.671   6.816   4.403 -1.4270 -0.1944 -1.3517
  945MOL0     H24701   3.518   6.779   4.500 -0.0561 -1.5216  0.3316
  945MOL0     H24702   3.591   6.559   4.422 -0.5832  1.8055  2.3344
  945MOL0     H24703   3.684   6.371   4.346  1.1762  0.0307 -1.4760
  945MOL0     H24704   3.978   6.011   4.602  0.7897  1.6270 -0.5009
  945MOL0     H24705   4.031   5.783   4.576 -1.3407  1.8528  1.3619
  945MOL0     H24706   4.058   5.536   4.369 -0.1045 -1.9891  1.7180
  945MOL0     H24707   4.127   5.578   4.518  0.6087  0.7836  0.8038
  945MOL0     H24708   4.360   5.498   4.428  0.0603 -2.3752  0.6583
  945MOL0     H24709   4.276   5.454   4.279 -3.5196 -3.1826 -0.6737
  945MOL0     H24710   4.132   5.297   4.397 -1.7291 -1.0153  2.3219
  945MOL0     H24711   4.193   5.369   4.545  0.9348  0.7881 -0.1660
  945MOL0     H24712   4.434   5.280   4.492  0.3921 -1.3522  1.4227
  945MOL0     H24713   4.311   5.179   4.541  0.4662  1.3896  0.5106
  945MOL0     H24714   4.267   5.093   4.324 -0.0583 -0.1675 -0.5003
  945MOL0     H24715   4.435   5.064   4.374  1.7548  1.2605  0.4881
  945MOL0     H24716   4.334   5.279   4.165 -0.1343  0.5474  0.5713
  945MOL0     H24717   4.419   5.131   4.130  0.3411  0.7922 -0.5160
  945MOL0     H24718   4.527   5.372   4.284  0.5673  0.3296  0.3021
  945MOL0     H24719   4.620   5.226   4.265  0.3199 -2.4587 -2.7217
  945MOL0     H24720   4.550   5.420   4.047 -0.8055  0.6041  3.6369
  945MOL0     H24721   4.600   5.247   4.010  0.5672 -1.5776  1.2488
  945MOL0     H24722   4.284   5.896   4.239  2.9136 -0.2596  1.3907
  945MOL0     H24723   4.225   6.132   4.282 -0.4761 -3.2762 -2.8326
  945MOL0     H24724   4.019   6.414   4.601 -0.2229 -0.1107 -0.3410
  945MOL0     H24725   3.929   6.641   4.672 -0.8323  0.5701 -0.3897
  945MOL0     H24726   3.725   8.308   3.612  0.8919  0.1562 -0.0348
  945MOL0     H24727   3.751   8.338   3.365 -3.2694  0.1702  1.9738
  945MOL0     H24728   4.115   8.068   2.903  1.8962  2.3222  2.4838
  945MOL0     H24729   4.108   8.175   2.670 -4.1780  0.9920 -2.8427
  945MOL0     H24730   3.861   8.524   2.594 -0.1481 -0.0047 -1.6003
  945MOL0     H24731   3.980   8.521   2.467  1.6447 -1.5353  0.4762
  945MOL0     H24732   4.014   8.706   2.610 -2.8330 -1.0557 -0.6522
  945MOL0     H24733   4.017   8.605   2.748 -0.2453 -0.9617  0.7078
  945MOL0     H24734   4.233   8.715   2.647 -0.3008  1.1245  1.1571
  945MOL0     H24735   4.222   8.596   2.528 -3.4217  3.5654 -0.3002
  945MOL0     H24736   4.249   8.544   2.836  0.3292 -0.3329  0.6543
  945MOL0     H24737   4.240   8.428   2.700  0.8197 -0.2419  0.8026
  945MOL0     H24738   4.654   8.569   2.686 -0.0204 -1.1091 -1.8402
  945MOL0     H24739   3.815   8.446   2.813  1.3817  1.0740 -0.4213
  945MOL0     H24740   3.815   8.321   3.023  2.8385 -0.1849  2.2614
  946MOL0     O24741   2.040   0.013   8.521 -0.1021  0.3795  0.5071
  946MOL0     C24742   1.931   0.066   8.517 -0.0788  0.0051  0.7259
  946MOL0     O24743   1.903   0.188   8.464 -0.3365  0.2864 -0.0435
  946MOL0     C24744   2.009   0.275   8.456 -0.2178  0.0161 -0.1245
  946MOL0     C24745   2.016   0.360   8.340 -0.4723  1.0368 -0.8296
  946MOL0     C24746   2.121   0.443   8.316  0.3773 -0.0570 -0.9515
  946MOL0     C24747   2.231   0.447   8.405  0.4021 -0.6472 -0.2860
  946MOL0     O24748   2.337   0.539   8.398  0.8356 -0.8490 -0.4826
  946MOL0     C24749   2.349   0.619   8.279  0.3131  0.0533  0.1335
  946MOL0     C24750   2.460   0.714   8.280  0.3029 -0.0170 -0.8227
  946MOL0     C24751   2.590   0.643   8.241 -0.3502 -0.1676  0.0236
  946MOL0     C24752   2.717   0.703   8.301  0.3455 -0.2615 -0.5797
  946MOL0     C24753   2.831   0.598   8.303  0.3206 -0.6182 -0.3124
  946MOL0     C24754   2.862   0.541   8.162  0.0692 -0.3667 -0.7658
  946MOL0     C24755   2.980   0.451   8.160 -0.2276  0.7196 -0.5557
  946MOL0     C24756   2.988   0.330   8.251  0.5895 -0.0361 -0.7959
  946MOL0     N24757   3.070   0.367   8.367  0.0631 -0.0222  0.6617
  946MOL0     C24758   3.207   0.377   8.375 -0.3460 -0.1435 -0.8179
  946MOL0     C24759   3.231   0.420   8.503 -0.2706  0.9849 -0.6651
  946MOL0     C24760   3.359   0.449   8.559  0.3142 -0.3475 -0.1683
  946MOL0     C24761   3.412   0.594   8.552  1.5371  0.6463  0.3214
  946MOL0     C24762   3.523   0.628   8.644  0.8358  0.3476 -0.0914
  946MOL0     C24763   3.570   0.780   8.651  0.4834  0.1805  0.1745
  946MOL0     O24764   3.646   0.795   8.773 -0.5005  0.1526 -0.5790
  946MOL0     C24765   3.587   0.893   8.841  0.2113  0.1472 -0.2831
  946MOL0     C24766   3.484   0.866   8.927  0.1857 -0.9298 -0.3351
  946MOL0     C24767   3.417   0.976   8.999 -0.5008 -0.1484 -0.0895
  946MOL0     C24768   3.458   1.107   8.975 -0.0371  0.4988 -0.0052
  946MOL0     C24769   3.383   1.211   9.054  0.8213  0.2478 -0.1041
  946MOL0     O24770   3.276   1.170   9.135  1.2276  0.0923 -0.0149
  946MOL0     C24771   3.182   1.262   9.197 -0.3780 -0.4846 -0.6224
  946MOL0     C24772   3.219   1.403   9.219  0.0583 -0.2356 -0.1015
  946MOL0     C24773   3.137   1.488   9.297  0.4232  0.1206 -0.0783
  946MOL0     C24774   3.011   1.440   9.341 -0.0506 -0.6180 -0.1277
  946MOL0     O24775   2.928   1.534   9.409 -0.5366 -0.2812  0.1510
  946MOL0     C24776   2.799   1.485   9.438 -0.2002  0.6423  0.1192
  946MOL0     C24777   2.698   1.602   9.459  0.6302  0.1343  0.6007
  946MOL0     C24778   2.677   1.696   9.336  0.4377  0.1102  0.3288
  946MOL0     C24779   2.557   1.643   9.254 -0.6075 -0.4241  0.1202
  946MOL0     C24780   2.444   1.746   9.239  0.0355  0.4063  1.5165
  946MOL0     C24781   2.324   1.694   9.165  0.2170  0.1721  1.6972
  946MOL0     C24782   2.266   1.799   9.070  0.1670 -0.1167  0.0620
  946MOL0     C24783   2.126   1.746   9.049  0.0104  0.1708 -0.2149
  946MOL0    Cl24784   2.038   1.781   9.205 -0.3603 -0.0324 -0.6759
  946MOL0     C24785   2.977   1.307   9.313 -0.5533  0.6707 -0.2389
  946MOL0     C24786   3.069   1.216   9.257  0.0911  0.0733  0.5008
  946MOL0     O24787   3.412   1.325   9.014  0.5390 -0.3545  0.5057
  946MOL0     C24788   3.573   1.121   8.899  0.2745 -0.2033 -0.5634
  946MOL0     C24789   3.634   1.017   8.833 -0.1863 -0.8229  0.5133
  946MOL0     N24790   3.107   0.422   8.572  0.7318  0.6354  0.6982
  946MOL0     N24791   3.014   0.389   8.488  0.0886 -0.5423  1.2270
  946MOL0     C24792   2.223   0.361   8.516 -0.6253  0.1118  0.2584
  946MOL0     C24793   2.113   0.280   8.547 -0.0522 -0.0263  0.2691
  946MOL0     C24794   1.804  -0.011   8.552  0.2932 -0.3622  0.4159
  946MOL0     C24795   1.677   0.052   8.562  0.1889  0.2477 -0.3157
  946MOL0     C24796   1.559  -0.018   8.582 -1.2226 -0.6663 -0.7317
  946MOL0     C24797   1.560  -0.157   8.585  0.4187 -0.2812 -0.6645
  946MOL0     O24798   1.448  -0.226   8.606 -0.1975  0.1319 -0.9350
  946MOL0     C24799   1.425  -0.231   8.745 -0.1571  0.4222  0.1100
  946MOL0     C24800   1.379  -0.376   8.785 -0.7514 -0.3532  0.0315
  946MOL0     C24801   1.236  -0.418   8.744 -0.3458  0.6783 -0.3460
  946MOL0     C24802   1.190  -0.549   8.816 -0.3988 -0.6645 -0.0047
  946MOL0     C24803   1.069  -0.593   8.758 -0.0091 -0.1606 -0.7801
  946MOL0     C24804   0.970  -0.644   8.714  0.2391  0.4815  0.6636
  946MOL0     C24805   1.683  -0.218   8.572  0.5776 -0.5124  1.7244
  946MOL0     C24806   1.803  -0.149   8.549 -0.2551  0.9450 -0.5731
  946MOL0     H24807   1.939   0.353   8.263 -0.0707 -0.7800 -1.1003
  946MOL0     H24808   2.110   0.511   8.232  0.9467  0.6720 -0.4435
  946MOL0     H24809   2.255   0.672   8.265 -1.1642 -2.0403  1.6027
  946MOL0     H24810   2.363   0.553   8.193  4.1170  1.5416 -0.6279
  946MOL0     H24811   2.460   0.753   8.382 -0.7361  0.0879 -0.8509
  946MOL0     H24812   2.448   0.796   8.209  2.5483 -0.2637 -1.5786
  946MOL0     H24813   2.590   0.646   8.132 -1.9825  2.5891  0.0060
  946MOL0     H24814   2.591   0.544   8.288  1.5492  0.4757  1.4721
  946MOL0     H24815   2.754   0.792   8.250  2.1308 -1.2862 -1.1830
  946MOL0     H24816   2.701   0.732   8.405  0.1531 -2.7073  0.1308
  946MOL0     H24817   2.785   0.516   8.358 -3.2901  0.9935 -0.6331
  946MOL0     H24818   2.921   0.629   8.358 -0.3702 -4.1698  3.2166
  946MOL0     H24819   2.896   0.629   8.107  0.9639  1.7281  2.8050
  946MOL0     H24820   2.780   0.485   8.116  2.3293 -3.2347 -1.6027
  946MOL0     H24821   2.998   0.396   8.067  2.4297 -1.6307  1.1805
  946MOL0     H24822   3.067   0.517   8.158  0.6450 -0.4058 -1.9902
  946MOL0     H24823   3.022   0.239   8.201 -0.8500 -2.4218  2.2106
  946MOL0     H24824   2.885   0.307   8.280 -0.4860  2.1372 -2.5765
  946MOL0     H24825   3.279   0.364   8.296 -0.4026 -0.0630 -0.8813
  946MOL0     H24826   3.439   0.387   8.517 -0.9059 -1.4899 -0.8848
  946MOL0     H24827   3.357   0.410   8.662  0.4035  0.0632 -0.0097
  946MOL0     H24828   3.337   0.662   8.593  0.7297 -1.2186  2.1714
  946MOL0     H24829   3.443   0.608   8.449  1.1651 -0.1498  0.0914
  946MOL0     H24830   3.510   0.585   8.744  3.8321 -2.0853 -0.5836
  946MOL0     H24831   3.603   0.559   8.616 -0.1891 -0.1953 -1.8892
  946MOL0     H24832   3.475   0.834   8.655  0.8367  0.8566 -0.3373
  946MOL0     H24833   3.612   0.816   8.557 -1.3988 -1.9020 -1.5848
  946MOL0     H24834   3.444   0.765   8.936 -2.7876 -0.2487 -3.4843
  946MOL0     H24835   3.338   0.956   9.071  1.2354  3.8270  3.3902
  946MOL0     H24836   3.316   1.439   9.185 -0.3696  0.1906 -0.8781
  946MOL0     H24837   3.173   1.587   9.324  1.1211  0.1765 -1.1589
  946MOL0     H24838   2.804   1.413   9.520  1.2943  1.0110  0.3803
  946MOL0     H24839   2.749   1.441   9.352 -0.4874 -0.7439  0.9577
  946MOL0     H24840   2.736   1.654   9.547 -1.0497 -2.7331  3.2415
  946MOL0     H24841   2.598   1.574   9.494 -0.0842  1.2577 -0.4820
  946MOL0     H24842   2.778   1.684   9.296  0.7554 -0.6570  1.3230
  946MOL0     H24843   2.676   1.799   9.373  2.8527 -0.5450  2.5319
  946MOL0     H24844   2.600   1.614   9.158 -1.3822  1.6990 -0.9111
  946MOL0     H24845   2.526   1.546   9.293  1.8029 -1.8356 -1.1872
  946MOL0     H24846   2.492   1.832   9.192  2.0679 -0.3470  2.0846
  946MOL0     H24847   2.417   1.781   9.339  1.9241  0.9502  1.8836
  946MOL0     H24848   2.250   1.651   9.232 -0.6146 -0.6889  0.2703
  946MOL0     H24849   2.368   1.615   9.103 -0.2836  2.1418 -1.4057
  946MOL0     H24850   2.264   1.905   9.096 -1.0929 -0.4108  1.2259
  946MOL0     H24851   2.328   1.781   8.981  1.7618 -0.0975  1.1151
  946MOL0     H24852   2.119   1.641   9.018 -4.3692 -0.2170  1.3871
  946MOL0     H24853   2.083   1.793   8.960  1.6513  2.4673  0.1170
  946MOL0     H24854   2.883   1.262   9.345 -0.2416  0.2709  0.1419
  946MOL0     H24855   3.055   1.108   9.249 -0.6916 -0.1906  3.9345
  946MOL0     H24856   3.622   1.213   8.870  1.1438  0.3741  2.4209
  946MOL0     H24857   3.707   1.051   8.760 -0.7989 -0.3194  0.1308
  946MOL0     H24858   2.304   0.366   8.588  0.7764 -3.5157 -0.8181
  946MOL0     H24859   2.122   0.229   8.642  0.5194 -2.3315 -0.9629
  946MOL0     H24860   1.682   0.160   8.571 -1.7168  0.2799  0.9722
  946MOL0     H24861   1.469   0.043   8.578  1.7098  4.1844 -1.4294
  946MOL0     H24862   1.338  -0.165   8.758 -0.2305  2.4308 -6.5641
  946MOL0     H24863   1.509  -0.202   8.809  0.6955 -1.6930  0.0218
  946MOL0     H24864   1.453  -0.441   8.738 -0.2914  1.4216 -1.8324
  946MOL0     H24865   1.369  -0.401   8.891  2.6732 -1.5750  0.1781
  946MOL0     H24866   1.242  -0.423   8.635  1.4771  2.8209 -0.4170
  946MOL0     H24867   1.155  -0.353   8.777 -1.6113 -0.4736 -1.0811
  946MOL0     H24868   1.261  -0.630   8.799 -0.4420 -0.3128 -2.0918
  946MOL0     H24869   1.176  -0.529   8.922  0.5900  2.5842 -0.3801
  946MOL0     H24870   0.881  -0.692   8.680  0.6599  0.8820 -1.0907
  946MOL0     H24871   1.686  -0.326   8.566 -3.9398 -0.7598 -0.6775
  946MOL0     H24872   1.900  -0.197   8.538 -0.7813  0.2765 -2.7953
  947MOL0     O24873   5.684   3.147   1.021  0.3712  0.4758 -0.2933
  947MOL0     C24874   5.712   3.172   1.137  0.5755 -0.3194  0.1909
  947MOL0     O24875   5.833   3.207   1.183  0.0617  0.2111  0.4508
  947MOL0     C24876   5.936   3.238   1.092  0.1055 -0.2686  0.0397
  947MOL0     C24877   6.053   3.166   1.078 -1.3976  0.7359  0.3294
  947MOL0     C24878   6.157   3.223   0.997  0.1704  0.0900 -1.0752
  947MOL0     C24879   6.144   3.327   0.917 -0.9461 -0.6033  0.5321
  947MOL0     O24880   6.253   3.384   0.843  0.0003  0.3458  0.5203
  947MOL0     C24881   6.393   3.334   0.861 -0.0350  0.2451 -0.3304
  947MOL0     C24882   6.403   3.210   0.770 -0.1461  0.2534 -0.1533
  947MOL0     C24883   6.418   3.236   0.622 -0.2374  0.3269  0.4639
  947MOL0     C24884   6.305   3.319   0.555 -1.1735 -0.4552  0.6370
  947MOL0     C24885   6.167   3.241   0.566 -0.3041  0.6907 -0.3565
  947MOL0     C24886   6.045   3.338   0.548  1.4949 -0.8502 -0.6726
  947MOL0     C24887   5.913   3.263   0.566 -0.4151  0.4173 -0.0079
  947MOL0     C24888   5.805   3.359   0.519 -1.0533 -0.8809  1.5901
  947MOL0     N24889   5.676   3.290   0.526 -0.4878  0.3411 -0.2816
  947MOL0     C24890   5.613   3.271   0.642  0.3893 -0.7019 -0.5695
  947MOL0     C24891   5.498   3.211   0.611  0.8579  0.5900 -0.0529
  947MOL0     C24892   5.420   3.153   0.731 -0.5509  0.1229 -0.8690
  947MOL0     C24893   5.427   3.000   0.724  0.5367 -0.0315  0.0549
  947MOL0     C24894   5.314   2.945   0.634  0.0936  0.0164  0.2092
  947MOL0     C24895   5.174   2.943   0.690 -1.0878  0.2582  0.2942
  947MOL0     O24896   5.147   2.859   0.805 -0.6699 -1.0004  0.0970
  947MOL0     C24897   5.018   2.845   0.862 -0.6134  0.5412  1.3925
  947MOL0     C24898   4.905   2.877   0.783  0.1576  0.3890  0.2299
  947MOL0     C24899   4.775   2.874   0.843 -0.2747  0.0355  0.4226
  947MOL0     C24900   4.755   2.819   0.970  0.5920  0.4985  0.7612
  947MOL0     C24901   4.621   2.812   1.030 -0.6071  1.2142 -0.5434
  947MOL0     O24902   4.615   2.771   1.161 -0.1671 -0.1597 -0.8868
  947MOL0     C24903   4.498   2.769   1.236  0.3883 -0.7773 -0.5505
  947MOL0     C24904   4.515   2.760   1.374  0.4467  0.3781 -0.8123
  947MOL0     C24905   4.411   2.757   1.457  0.2095 -0.1490 -0.7221
  947MOL0     C24906   4.280   2.751   1.412 -1.0064  0.1108 -0.3663
  947MOL0     O24907   4.182   2.744   1.499 -0.3048  0.0889  0.8780
  947MOL0     C24908   4.048   2.769   1.469  0.0416 -0.1848  0.8803
  947MOL0     C24909   3.965   2.648   1.430  0.3216  0.3078  0.5632
  947MOL0     C24910   3.817   2.680   1.443  0.3508  0.0929 -0.5447
  947MOL0     C24911   3.735   2.556   1.446 -0.5845  0.4924  0.1300
  947MOL0     C24912   3.586   2.582   1.442 -0.1994 -1.2202  0.3598
  947MOL0     C24913   3.511   2.446   1.446  1.1867  0.8669 -0.6299
  947MOL0     C24914   3.358   2.486   1.460 -0.2029  0.6067  0.4886
  947MOL0     C24915   3.330   2.524   1.605  0.1044 -0.3951 -0.4250
  947MOL0    Cl24916   3.298   2.363   1.694 -0.3017 -0.1362  0.0697
  947MOL0     C24917   4.263   2.756   1.275  0.4551 -0.3714  0.4902
  947MOL0     C24918   4.373   2.763   1.190  0.5650  0.0544 -0.4289
  947MOL0     O24919   4.536   2.832   0.959  0.2487  0.4003 -0.1300
  947MOL0     C24920   4.867   2.767   1.041  0.8332 -0.5353 -0.9119
  947MOL0     C24921   4.997   2.785   0.990  0.0872  1.2797  0.7554
  947MOL0     N24922   5.498   3.180   0.474  0.5446  0.0197  1.2360
  947MOL0     N24923   5.606   3.226   0.422  0.4244 -0.1630 -1.0431
  947MOL0     C24924   6.033   3.405   0.941 -0.8224 -0.7541  0.3787
  947MOL0     C24925   5.933   3.366   1.027  0.3258  0.0513  0.3294
  947MOL0     C24926   5.605   3.173   1.235 -0.0451 -0.1615 -0.4321
  947MOL0     C24927   5.472   3.222   1.205  0.4633  0.1541 -1.1612
  947MOL0     C24928   5.369   3.213   1.299 -0.8012 -0.1817  0.2361
  947MOL0     C24929   5.388   3.156   1.421 -0.3504 -0.1483 -0.0007
  947MOL0     O24930   5.281   3.132   1.498 -0.5513 -0.3520 -0.2773
  947MOL0     C24931   5.180   3.220   1.539  0.0795  0.2182 -0.7691
  947MOL0     C24932   5.054   3.145   1.583  0.9235  1.0052  0.4298
  947MOL0     C24933   4.967   3.121   1.449 -0.1663 -0.3067  0.2113
  947MOL0     C24934   4.831   3.065   1.475  0.2905  0.6017  0.1501
  947MOL0     C24935   4.847   2.943   1.550  0.1515 -0.6748 -1.4372
  947MOL0     C24936   4.857   2.839   1.618 -0.9151 -0.5392  0.6751
  947MOL0     C24937   5.516   3.100   1.448 -0.1882 -0.6151 -0.3047
  947MOL0     C24938   5.624   3.113   1.358  0.0480  0.1352  0.3233
  947MOL0     H24939   6.077   3.078   1.137  2.9480  0.2555 -1.7043
  947MOL0     H24940   6.254   3.173   0.998 -0.1788 -0.6598 -2.5404
  947MOL0     H24941   6.418   3.319   0.966 -1.7104  0.2736  0.1119
  947MOL0     H24942   6.459   3.411   0.821  1.7278 -0.8064  0.4445
  947MOL0     H24943   6.316   3.145   0.785  1.0121 -1.4547 -0.4827
  947MOL0     H24944   6.491   3.154   0.806 -0.0226  1.7816  2.1558
  947MOL0     H24945   6.423   3.132   0.589 -2.9996  0.1278  0.4328
  947MOL0     H24946   6.518   3.275   0.603 -0.5422  1.2225  0.6564
  947MOL0     H24947   6.300   3.414   0.609  3.0880  1.6083 -2.0683
  947MOL0     H24948   6.326   3.346   0.452 -0.0032  0.2059  1.0354
  947MOL0     H24949   6.156   3.200   0.667  1.2405  1.8208  0.3087
  947MOL0     H24950   6.167   3.163   0.489 -1.4964  0.1292  0.1868
  947MOL0     H24951   6.049   3.398   0.457  1.0186  2.4363  1.3174
  947MOL0     H24952   6.051   3.420   0.620 -0.6678 -1.3949  0.2087
  947MOL0     H24953   5.913   3.180   0.494 -1.0918  3.0299 -3.2738
  947MOL0     H24954   5.888   3.220   0.663 -0.5985 -1.9936 -1.0492
  947MOL0     H24955   5.831   3.390   0.417 -0.7199 -0.6122  1.7582
  947MOL0     H24956   5.797   3.448   0.581 -1.3827 -0.1310  0.5006
  947MOL0     H24957   5.634   3.301   0.744 -1.2655  0.1432 -0.4309
  947MOL0     H24958   5.323   3.202   0.720 -1.1445 -0.9655 -0.6278
  947MOL0     H24959   5.452   3.190   0.829 -2.4600 -3.1665  1.1657
  947MOL0     H24960   5.389   2.967   0.821 -4.3811  0.5156 -1.3884
  947MOL0     H24961   5.514   2.940   0.697 -0.1947 -1.2981  0.3794
  947MOL0     H24962   5.308   3.004   0.542 -0.2099 -2.0919 -1.2093
  947MOL0     H24963   5.332   2.839   0.610  1.7874  0.3136  0.0466
  947MOL0     H24964   5.102   2.922   0.610 -2.9894 -0.1335  2.0084
  947MOL0     H24965   5.142   3.038   0.736 -1.9212 -0.0118  0.2994
  947MOL0     H24966   4.912   2.931   0.689 -0.1575  1.5579  0.8598
  947MOL0     H24967   4.697   2.924   0.786  0.7513 -0.0175 -1.0782
  947MOL0     H24968   4.619   2.770   1.401 -0.1014  3.9398  0.5141
  947MOL0     H24969   4.428   2.759   1.564 -0.6951 -0.9668 -0.5442
  947MOL0     H24970   4.044   2.850   1.396  3.0130 -0.4310  0.3386
  947MOL0     H24971   4.007   2.795   1.567  3.2074 -2.3858  2.9939
  947MOL0     H24972   4.002   2.566   1.491 -0.6594 -1.8149 -1.5351
  947MOL0     H24973   3.986   2.614   1.328  0.3247  0.2664  0.5778
  947MOL0     H24974   3.777   2.738   1.359  0.8230  2.7250  0.9672
  947MOL0     H24975   3.797   2.731   1.537 -0.2491 -2.1985  0.6558
  947MOL0     H24976   3.773   2.494   1.364  1.2793  3.0518 -1.0601
  947MOL0     H24977   3.752   2.499   1.538 -4.1749 -0.2548  0.4597
  947MOL0     H24978   3.561   2.634   1.349 -0.9176 -0.7956  0.7836
  947MOL0     H24979   3.566   2.643   1.531 -2.0499 -0.2319 -0.6761
  947MOL0     H24980   3.548   2.381   1.526 -0.8249  1.2683  0.7044
  947MOL0     H24981   3.520   2.389   1.353  0.2448 -0.5135  0.0690
  947MOL0     H24982   3.344   2.576   1.399 -2.7869  1.1479  1.7371
  947MOL0     H24983   3.287   2.408   1.433  1.9316 -1.7764  1.3261
  947MOL0     H24984   3.244   2.591   1.604  1.0370  0.9692  2.0016
  947MOL0     H24985   3.405   2.593   1.644 -2.4697  0.2583  4.0223
  947MOL0     H24986   4.165   2.750   1.229 -0.2080  0.9253  1.6584
  947MOL0     H24987   4.351   2.759   1.084  0.5002  0.6514 -0.4439
  947MOL0     H24988   4.860   2.724   1.141  1.1635 -0.5858 -0.9093
  947MOL0     H24989   5.088   2.767   1.048  1.5910  1.2278 -1.4975
  947MOL0     H24990   6.025   3.506   0.901 -1.6172 -1.0595 -0.2548
  947MOL0     H24991   5.849   3.434   1.035  0.7442  0.5726  0.2979
  947MOL0     H24992   5.460   3.252   1.101 -0.0373 -0.6675 -1.3456
  947MOL0     H24993   5.269   3.219   1.259 -0.8548 -5.7253 -1.3271
  947MOL0     H24994   5.177   3.292   1.457 -2.9778 -1.4779 -2.3234
  947MOL0     H24995   5.222   3.273   1.626  1.4772  1.3039 -2.0512
  947MOL0     H24996   5.081   3.047   1.624 -1.4521 -0.8445 -2.0148
  947MOL0     H24997   5.005   3.202   1.662 -0.9876 -0.4488  0.3719
  947MOL0     H24998   5.033   3.060   1.387  1.5806 -1.1359  2.7619
  947MOL0     H24999   4.961   3.215   1.393  1.6312 -1.9274 -2.9441
  947MOL0     H25000   4.776   3.133   1.541 -0.3321  0.1906  0.0647
  947MOL0     H25001   4.769   3.048   1.386  1.1731 -0.5358 -0.2718
  947MOL0     H25002   4.859   2.749   1.676 -0.0835 -3.2328 -3.1574
  947MOL0     H25003   5.543   3.047   1.539  0.7150 -3.1100 -1.9188
  947MOL0     H25004   5.720   3.064   1.369 -0.0375 -0.7781 -2.2302
  948MOL0     O25005   0.477   8.630   0.181 -0.3391 -0.2531 -0.0790
  948MOL0     C25006   0.405   8.556   0.254 -0.1812 -0.5359 -0.2143
  948MOL0     O25007   0.385   8.421   0.232 -0.4733  0.3986 -0.2570
  948MOL0     C25008   0.448   8.366   0.120 -0.5401  0.1394  0.5909
  948MOL0     C25009   0.377   8.286   0.025 -0.1438  0.1551 -0.9587
  948MOL0     C25010   0.438   8.235  -0.086  0.0523  0.4808  0.2200
  948MOL0     C25011   0.571   8.251  -0.104 -0.2219  0.9225 -0.5350
  948MOL0     O25012   0.619   8.200  -0.217 -0.0848 -0.8630  0.0250
  948MOL0     C25013   0.743   8.246  -0.256  0.3237 -0.3725  0.7903
  948MOL0     C25014   0.791   8.168  -0.381  0.3501 -0.8271 -1.2615
  948MOL0     C25015   0.799   8.019  -0.359 -0.3848  0.1665  0.0096
  948MOL0     C25016   0.836   7.946  -0.494 -0.4726 -0.9283 -0.5566
  948MOL0     C25017   0.714   7.947  -0.589 -0.3561 -0.6456 -0.6060
  948MOL0     C25018   0.746   7.862  -0.715  0.7480  0.2807 -0.5423
  948MOL0     C25019   0.622   7.847  -0.801 -0.8422  0.5490 -0.2029
  948MOL0     C25020   0.583   7.988  -0.854  0.2045  0.6529  0.5442
  948MOL0     N25021   0.528   7.983  -0.997  1.2396 -0.6272  0.6025
  948MOL0     C25022   0.579   7.929  -1.120 -0.7484 -0.4497  0.6158
  948MOL0     C25023   0.475   7.921  -1.208  0.0473 -0.3596 -1.1214
  948MOL0     C25024   0.472   7.862  -1.338  0.2218 -1.4334 -0.0457
  948MOL0     C25025   0.486   7.968  -1.448  0.3923  0.4996  0.1958
  948MOL0     C25026   0.435   7.907  -1.589 -0.1442  0.1557 -1.4533
  948MOL0     C25027   0.285   7.886  -1.573  0.0894  0.2825  0.1793
  948MOL0     O25028   0.243   7.846  -1.700  0.0269 -0.3022  0.6977
  948MOL0     C25029   0.126   7.781  -1.721  0.5444 -0.2501  0.9905
  948MOL0     C25030   0.020   7.813  -1.637 -0.4197  0.3793 -0.3137
  948MOL0     C25031  -0.102   7.754  -1.651 -0.1546 -0.7101  0.0689
  948MOL0     C25032  -0.129   7.663  -1.756  0.7234 -0.6353 -0.1792
  948MOL0     C25033  -0.265   7.602  -1.778  0.2115 -0.0419 -0.3080
  948MOL0     O25034  -0.274   7.501  -1.868  0.6831  0.6818  1.1439
  948MOL0     C25035  -0.397   7.457  -1.925  0.5211  0.2972  0.0592
  948MOL0     C25036  -0.411   7.319  -1.958 -0.1452 -1.3360  0.4094
  948MOL0     C25037  -0.515   7.270  -2.035  0.1346 -0.7348  1.6153
  948MOL0     C25038  -0.627   7.347  -2.061  0.3468  0.0296 -0.8636
  948MOL0     O25039  -0.733   7.316  -2.147  0.2012 -0.4585  0.4636
  948MOL0     C25040  -0.705   7.228  -2.262 -0.9726 -0.5144  0.0716
  948MOL0     C25041  -0.833   7.227  -2.351  0.6143  0.1551 -0.7909
  948MOL0     C25042  -0.967   7.219  -2.281  0.4481 -0.3422 -0.2016
  948MOL0     C25043  -1.074   7.199  -2.382 -0.4353 -0.1401  0.3594
  948MOL0     C25044  -1.191   7.116  -2.326  0.2359 -0.8078 -0.2489
  948MOL0     C25045  -1.170   6.970  -2.290  0.7773 -0.8459 -0.1015
  948MOL0     C25046  -1.301   6.917  -2.226  0.1304 -0.3538 -0.9066
  948MOL0     C25047  -1.426   6.934  -2.308 -0.4229 -0.0664 -0.8243
  948MOL0    Cl25048  -1.408   6.875  -2.479  0.2990 -0.5820 -0.2782
  948MOL0     C25049  -0.619   7.477  -2.014 -0.6701 -0.6486  0.9129
  948MOL0     C25050  -0.501   7.535  -1.960  0.1302 -0.2309  0.9225
  948MOL0     O25051  -0.360   7.649  -1.719  0.3128  0.0748  0.6546
  948MOL0     C25052  -0.025   7.639  -1.851 -0.9932 -0.2552 -0.4796
  948MOL0     C25053   0.103   7.694  -1.836 -1.2109 -1.0741  0.2731
  948MOL0     N25054   0.362   7.984  -1.136  0.4086 -0.0684 -0.0310
  948MOL0     N25055   0.394   8.014  -1.019 -1.2283 -0.5986 -0.0177
  948MOL0     C25056   0.643   8.314  -0.002 -0.4422  0.3212  0.9757
  948MOL0     C25057   0.584   8.380   0.102  0.1453  0.4252  0.0126
  948MOL0     C25058   0.330   8.614   0.366 -0.0895 -1.0121 -0.8018
  948MOL0     C25059   0.251   8.528   0.446 -0.4135  0.0172  0.6422
  948MOL0     C25060   0.196   8.588   0.559 -0.4967 -0.6658 -0.8706
  948MOL0     C25061   0.195   8.728   0.593 -0.5555  0.5239 -0.5421
  948MOL0     O25062   0.133   8.761   0.701  0.0692 -0.4671 -0.4169
  948MOL0     C25063   0.075   8.888   0.701  0.0832  0.7377 -0.2245
  948MOL0     C25064  -0.065   8.897   0.623 -0.6174 -0.2615  0.7206
  948MOL0     C25065  -0.048   8.887   0.467  0.4699  0.6016  0.0355
  948MOL0     C25066  -0.175   8.914   0.391 -1.2770  0.6475  0.0478
  948MOL0     C25067  -0.177   9.052   0.333  0.3934 -0.8207 -0.3203
  948MOL0     C25068  -0.173   9.166   0.282 -0.8353  0.3415  0.4678
  948MOL0     C25069   0.266   8.810   0.497 -0.6665 -0.2030 -0.8675
  948MOL0     C25070   0.334   8.754   0.392 -0.1452  0.1181 -0.9521
  948MOL0     H25071   0.269   8.281   0.034 -0.0359 -1.0554 -0.1483
  948MOL0     H25072   0.376   8.184  -0.159 -1.2510 -1.8351  2.7603
  948MOL0     H25073   0.827   8.221  -0.190  0.7084  1.3432  1.0096
  948MOL0     H25074   0.737   8.354  -0.272  0.7912 -0.1900  1.7731
  948MOL0     H25075   0.882   8.223  -0.410 -0.5802  1.4121 -0.1812
  948MOL0     H25076   0.712   8.192  -0.452  0.5277  1.3104 -0.8103
  948MOL0     H25077   0.705   7.977  -0.320  1.1462 -0.5744  3.2576
  948MOL0     H25078   0.872   8.009  -0.279 -4.3963  0.3244  4.1265
  948MOL0     H25079   0.923   8.001  -0.533 -0.1118 -0.2309  1.1465
  948MOL0     H25080   0.867   7.844  -0.470  0.6598 -0.2239  1.1870
  948MOL0     H25081   0.685   8.051  -0.610 -1.8310 -0.9608 -0.1923
  948MOL0     H25082   0.638   7.894  -0.532 -0.6786  1.4467  1.0329
  948MOL0     H25083   0.790   7.764  -0.694  3.0846  1.2925 -0.4872
  948MOL0     H25084   0.822   7.921  -0.766  0.2855  0.3269 -1.1906
  948MOL0     H25085   0.659   7.785  -0.883  0.7729 -0.6164  1.3300
  948MOL0     H25086   0.543   7.786  -0.756  2.7276 -3.4748  1.3623
  948MOL0     H25087   0.672   8.051  -0.853 -1.3587  2.9645  1.9893
  948MOL0     H25088   0.505   8.037  -0.794 -2.2720 -1.9787 -0.2492
  948MOL0     H25089   0.678   7.898  -1.151  0.2272  1.0816  2.0069
  948MOL0     H25090   0.381   7.805  -1.357 -2.3752  3.3397 -4.3742
  948MOL0     H25091   0.557   7.793  -1.344 -1.4895 -3.5320 -1.8345
  948MOL0     H25092   0.591   7.998  -1.453  0.4916  0.2534  0.7676
  948MOL0     H25093   0.424   8.053  -1.419 -0.2270  0.4593 -0.9443
  948MOL0     H25094   0.456   7.978  -1.669 -1.3616  0.1121 -1.8278
  948MOL0     H25095   0.491   7.815  -1.609 -1.0676 -0.9348  0.6191
  948MOL0     H25096   0.228   7.970  -1.533  0.1095  0.4788 -0.1962
  948MOL0     H25097   0.265   7.807  -1.501 -0.0197  1.7750  1.8655
  948MOL0     H25098   0.041   7.873  -1.549 -1.0743 -0.1966  0.2482
  948MOL0     H25099  -0.185   7.779  -1.585 -2.0192 -2.4803 -1.4331
  948MOL0     H25100  -0.324   7.256  -1.940 -1.0083 -2.0112  2.6570
  948MOL0     H25101  -0.513   7.172  -2.081  0.6767 -0.2709  0.6303
  948MOL0     H25102  -0.692   7.125  -2.229  1.7344 -0.6790 -1.2624
  948MOL0     H25103  -0.617   7.271  -2.310 -0.6415  0.4834  1.5187
  948MOL0     H25104  -0.828   7.140  -2.417 -0.7195 -2.1156  1.8884
  948MOL0     H25105  -0.837   7.323  -2.402 -2.5287  0.2244 -0.6099
  948MOL0     H25106  -0.983   7.301  -2.210 -1.2633 -2.1940  1.7219
  948MOL0     H25107  -0.960   7.126  -2.224 -1.0431 -1.1699 -1.3032
  948MOL0     H25108  -1.121   7.293  -2.412 -3.0815 -1.6956 -0.7692
  948MOL0     H25109  -1.023   7.165  -2.473 -0.3373  3.2220 -0.9890
  948MOL0     H25110  -1.253   7.113  -2.416  2.2537  1.0430 -1.8182
  948MOL0     H25111  -1.240   7.177  -2.250 -0.2155 -1.4959  0.0126
  948MOL0     H25112  -1.092   6.965  -2.214  0.5632 -1.7979  0.0680
  948MOL0     H25113  -1.143   6.911  -2.378 -0.4910  2.8058 -3.2310
  948MOL0     H25114  -1.293   6.808  -2.230  0.1740 -0.3147 -3.2009
  948MOL0     H25115  -1.301   6.953  -2.123 -0.5779 -0.4885 -0.8551
  948MOL0     H25116  -1.470   7.034  -2.308 -2.3407 -0.8239  1.7262
  948MOL0     H25117  -1.500   6.873  -2.257 -2.3584  0.6712 -2.6124
  948MOL0     H25118  -0.708   7.535  -2.039 -0.0065 -0.0026  0.0349
  948MOL0     H25119  -0.509   7.643  -1.951 -1.7839 -0.1187 -1.1162
  948MOL0     H25120  -0.031   7.570  -1.935  0.9816 -0.6883 -0.3325
  948MOL0     H25121   0.181   7.673  -1.907 -0.2359 -3.9189  2.0206
  948MOL0     H25122   0.751   8.319  -0.010 -0.4636  1.1906  1.1544
  948MOL0     H25123   0.639   8.453   0.161 -1.3645  4.4563 -3.1242
  948MOL0     H25124   0.251   8.420   0.434 -1.9940  0.0214  0.3681
  948MOL0     H25125   0.156   8.522   0.634 -1.2779  0.5243 -0.2102
  948MOL0     H25126   0.141   8.969   0.669 -0.2615  0.3953 -1.8855
  948MOL0     H25127   0.042   8.917   0.801 -2.1537 -1.6533 -0.1828
  948MOL0     H25128  -0.138   8.825   0.661  1.0444 -3.0842 -1.0480
  948MOL0     H25129  -0.097   9.000   0.638 -0.2088  0.2244 -1.4161
  948MOL0     H25130  -0.014   8.786   0.444  1.7170  0.9660  0.2023
  948MOL0     H25131   0.030   8.950   0.424 -0.3013 -1.1880 -4.5448
  948MOL0     H25132  -0.188   8.840   0.312 -1.4282  0.5661  0.1489
  948MOL0     H25133  -0.252   8.901   0.467 -2.3411 -0.2733 -1.1477
  948MOL0     H25134  -0.154   9.250   0.220 -2.9349 -0.8314 -1.9378
  948MOL0     H25135   0.261   8.915   0.522  0.6421 -0.3283  0.0109
  948MOL0     H25136   0.406   8.807   0.330  1.0848  0.8147  0.9889
  949MOL0     O25137   8.391   5.176   6.340  0.6373 -0.1681 -0.5070
  949MOL0     C25138   8.297   5.226   6.270 -0.4148  0.5710 -0.5034
  949MOL0     O25139   8.289   5.348   6.229 -0.2336 -0.6405  0.3440
  949MOL0     C25140   8.401   5.425   6.214 -0.2098 -0.8485  0.3652
  949MOL0     C25141   8.534   5.383   6.173  0.5961 -0.6097  1.0058
  949MOL0     C25142   8.635   5.477   6.172  1.1832 -0.7050  0.0290
  949MOL0     C25143   8.619   5.605   6.229  0.4919 -0.0571 -0.6991
  949MOL0     O25144   8.729   5.683   6.232 -0.3474  1.3318  0.1638
  949MOL0     C25145   8.706   5.826   6.213  0.8998 -0.7729 -1.1116
  949MOL0     C25146   8.841   5.895   6.245 -0.0573  1.0348  1.1650
  949MOL0     C25147   8.906   5.898   6.380  0.8517  0.5993  0.0116
  949MOL0     C25148   9.050   5.828   6.384 -0.2191 -0.6555 -0.4276
  949MOL0     C25149   9.135   5.895   6.282  0.5163 -0.7430 -0.1100
  949MOL0     C25150   9.284   5.876   6.320  0.4991  0.4915 -0.5808
  949MOL0     C25151   9.317   5.720   6.311 -0.4766  0.0191 -0.0825
  949MOL0     C25152   9.428   5.703   6.200  2.1483  0.6418 -0.4470
  949MOL0     N25153   9.370   5.698   6.069  0.1395 -0.3797 -0.3299
  949MOL0     C25154   9.359   5.580   5.988  0.0057  0.1282  0.1999
  949MOL0     C25155   9.331   5.631   5.859 -0.0857  1.4146  0.2449
  949MOL0     C25156   9.308   5.556   5.733  0.0690 -0.9195  0.0560
  949MOL0     C25157   9.429   5.481   5.681  0.2966  0.4265 -0.2635
  949MOL0     C25158   9.401   5.400   5.548  0.1661 -0.8190 -0.2177
  949MOL0     C25159   9.538   5.361   5.489 -0.5317  0.5451 -0.1898
  949MOL0     O25160   9.510   5.323   5.353 -0.1332 -0.4139 -0.8986
  949MOL0     C25161   9.468   5.189   5.331 -0.5350  0.5281 -0.1136
  949MOL0     C25162   9.435   5.146   5.197 -0.7764  0.2168 -0.9100
  949MOL0     C25163   9.399   5.013   5.172 -0.3547 -0.6017  0.3537
  949MOL0     C25164   9.405   4.913   5.270 -0.1366 -0.3869 -0.3593
  949MOL0     C25165   9.387   4.770   5.240  0.2763 -0.1411  0.4001
  949MOL0     O25166   9.362   4.750   5.105 -0.0294  0.2937 -0.1851
  949MOL0     C25167   9.368   4.611   5.069  0.8830  0.1256  0.3827
  949MOL0     C25168   9.480   4.543   5.036  0.0320  0.7565 -0.7595
  949MOL0     C25169   9.477   4.404   5.003 -1.0269 -0.4899  0.2015
  949MOL0     C25170   9.365   4.334   4.984  0.3066  0.3583 -0.7093
  949MOL0     O25171   9.365   4.211   4.914 -0.1583  0.1487 -0.2311
  949MOL0     C25172   9.390   4.216   4.770  1.5976 -0.0527 -0.1325
  949MOL0     C25173   9.521   4.144   4.742  0.4192 -0.2855 -0.2715
  949MOL0     C25174   9.585   4.189   4.611 -0.4817  0.8151 -0.4651
  949MOL0     C25175   9.699   4.107   4.547 -0.5986 -0.4875  0.7814
  949MOL0     C25176   9.738   4.149   4.396  0.6560 -0.4780 -0.2861
  949MOL0     C25177   9.800   4.285   4.376  0.0523  0.7180  0.0392
  949MOL0     C25178   9.842   4.301   4.223  0.3983  0.1965  0.4007
  949MOL0     C25179   9.890   4.436   4.194  0.8108  0.5114  0.2712
  949MOL0    Cl25180   9.771   4.572   4.184  0.4109  0.2727  0.0382
  949MOL0     C25181   9.252   4.404   5.007  0.2104  0.0396  0.4206
  949MOL0     C25182   9.250   4.537   5.046 -0.1737 -0.2166 -0.6261
  949MOL0     O25183   9.383   4.686   5.331  0.0144  0.8397  0.2709
  949MOL0     C25184   9.432   4.952   5.405 -0.4668 -0.3129  1.1182
  949MOL0     C25185   9.468   5.086   5.428  0.9624  0.1006 -0.3624
  949MOL0     N25186   9.324   5.766   5.877  1.2801 -0.7506  0.4795
  949MOL0     N25187   9.343   5.809   5.997  0.0157 -0.5612  0.3477
  949MOL0     C25188   8.490   5.644   6.274 -0.2439 -0.0239  0.2668
  949MOL0     C25189   8.386   5.558   6.262  0.3612  0.4356 -0.0290
  949MOL0     C25190   8.183   5.139   6.239 -0.9796 -0.4460 -0.7918
  949MOL0     C25191   8.057   5.187   6.220  0.2857  0.4246  0.5648
  949MOL0     C25192   7.951   5.093   6.192  0.0331  0.8124 -1.3060
  949MOL0     C25193   7.964   4.955   6.215 -0.3546  0.0896 -0.3937
  949MOL0     O25194   7.857   4.868   6.213  0.2291  0.7225 -0.5047
  949MOL0     C25195   7.884   4.729   6.169 -0.0894 -0.0719  1.0626
  949MOL0     C25196   7.755   4.655   6.115 -0.7340 -0.1419  0.1629
  949MOL0     C25197   7.620   4.709   6.150 -0.5171  0.2858 -0.5242
  949MOL0     C25198   7.545   4.579   6.177  0.0350  0.1259 -0.6251
  949MOL0     C25199   7.524   4.501   6.056 -0.1319 -0.8385  0.3294
  949MOL0     C25200   7.529   4.442   5.960  0.1373  1.9942 -0.1900
  949MOL0     C25201   8.099   4.908   6.230 -0.2988 -0.3451  1.6976
  949MOL0     C25202   8.204   4.999   6.233  0.1232 -0.3986 -0.5988
  949MOL0     H25203   8.548   5.293   6.113  1.8257 -0.7959  1.5585
  949MOL0     H25204   8.728   5.450   6.124  0.7373 -0.1161 -1.2108
  949MOL0     H25205   8.638   5.864   6.290  0.2116  1.6699 -2.7770
  949MOL0     H25206   8.668   5.855   6.114 -1.0402  3.3587  0.5671
  949MOL0     H25207   8.845   5.998   6.209 -1.2664  1.9818  3.5169
  949MOL0     H25208   8.904   5.846   6.170  0.4128  3.1997  0.0566
  949MOL0     H25209   8.839   5.842   6.446 -2.5494  4.0268 -0.1497
  949MOL0     H25210   8.905   5.997   6.426  3.1112 -1.2418  4.7893
  949MOL0     H25211   9.093   5.849   6.483 -1.2836 -0.4709  0.0095
  949MOL0     H25212   9.047   5.719   6.381 -1.1748 -0.6591  0.2213
  949MOL0     H25213   9.102   6.000   6.282 -1.4007 -1.2970 -0.8953
  949MOL0     H25214   9.122   5.852   6.182 -2.6092 -1.8194  0.6434
  949MOL0     H25215   9.305   5.895   6.425 -0.8873 -0.9318  0.0010
  949MOL0     H25216   9.343   5.944   6.257  0.7346  0.3070 -0.5616
  949MOL0     H25217   9.350   5.699   6.413 -2.5587  1.3571  0.9444
  949MOL0     H25218   9.229   5.656   6.297 -0.3093  0.0306 -1.2683
  949MOL0     H25219   9.471   5.605   6.223 -1.2807 -0.6582  1.0278
  949MOL0     H25220   9.507   5.777   6.213  2.7654 -0.3327  1.9390
  949MOL0     H25221   9.385   5.480   6.022  2.1010  0.2561 -0.8563
  949MOL0     H25222   9.281   5.631   5.658 -1.3495 -0.8164  0.6384
  949MOL0     H25223   9.226   5.486   5.747 -1.9469  1.3418  0.2563
  949MOL0     H25224   9.458   5.402   5.752 -1.5857  0.8087  1.0065
  949MOL0     H25225   9.505   5.556   5.658  0.9655  0.0457  0.6481
  949MOL0     H25226   9.340   5.311   5.567  0.0452 -0.5849  0.5201
  949MOL0     H25227   9.349   5.464   5.477 -0.3079 -0.8392  0.1065
  949MOL0     H25228   9.604   5.301   5.551 -0.3982 -0.3735 -1.1921
  949MOL0     H25229   9.593   5.455   5.478  2.5295 -1.0715  0.3141
  949MOL0     H25230   9.445   5.219   5.117 -2.4306  0.7647 -0.6562
  949MOL0     H25231   9.377   4.996   5.067 -0.7983  0.8857  0.1763
  949MOL0     H25232   9.571   4.602   5.032 -0.6007  2.3681  3.3005
  949MOL0     H25233   9.568   4.361   4.962 -0.0633 -0.6690  2.3480
  949MOL0     H25234   9.371   4.315   4.728  2.1459  1.8989  3.7321
  949MOL0     H25235   9.321   4.148   4.718 -1.3256  2.6134  0.0081
  949MOL0     H25236   9.492   4.039   4.743  0.2704 -0.2682 -1.2993
  949MOL0     H25237   9.589   4.171   4.823  0.5528 -2.7582  0.5209
  949MOL0     H25238   9.615   4.293   4.624  1.3040  0.3095 -0.3518
  949MOL0     H25239   9.503   4.181   4.539 -1.9273 -2.8084  1.3185
  949MOL0     H25240   9.791   4.106   4.605  0.3452 -4.9839 -0.3576
  949MOL0     H25241   9.658   4.006   4.539  1.0489 -1.0504 -1.5250
  949MOL0     H25242   9.646   4.146   4.336  1.1116 -2.9060 -0.9958
  949MOL0     H25243   9.792   4.070   4.343 -2.0667 -0.6034 -3.2441
  949MOL0     H25244   9.887   4.291   4.443 -0.6570  4.5224  0.8401
  949MOL0     H25245   9.726   4.358   4.410  1.2687  0.9533  2.4202
  949MOL0     H25246   9.914   4.224   4.193  0.0987  0.0936 -0.0759
  949MOL0     H25247   9.749   4.279   4.169  0.4972 -0.6893  0.5801
  949MOL0     H25248   9.949   4.438   4.102  0.4145 -1.0365 -0.0447
  949MOL0     H25249   9.961   4.467   4.271  1.1276  0.5801 -0.0446
  949MOL0     H25250   9.158   4.357   4.982 -0.0863  1.4215 -1.2070
  949MOL0     H25251   9.156   4.585   5.070 -0.1005  0.1512 -1.0526
  949MOL0     H25252   9.414   4.874   5.478  2.3564 -0.9327  1.2751
  949MOL0     H25253   9.481   5.103   5.534  3.8026  0.1174 -0.6315
  949MOL0     H25254   8.450   5.745   6.282 -0.2603  0.5277 -4.0254
  949MOL0     H25255   8.288   5.604   6.274 -2.1234 -4.0167 -0.7626
  949MOL0     H25256   8.043   5.294   6.214  2.5205  0.7167 -0.3495
  949MOL0     H25257   7.854   5.129   6.158 -0.8083 -0.5971 -0.5267
  949MOL0     H25258   7.925   4.667   6.249 -1.6162 -0.3314  1.6681
  949MOL0     H25259   7.958   4.726   6.088 -2.9387 -0.7236 -1.6932
  949MOL0     H25260   7.766   4.668   6.007 -0.8358  3.4852  0.4859
  949MOL0     H25261   7.775   4.549   6.136  0.1539  0.0903  0.5537
  949MOL0     H25262   7.575   4.762   6.065  2.1301  2.5179 -0.6637
  949MOL0     H25263   7.620   4.781   6.231  3.1281  1.1274 -1.0727
  949MOL0     H25264   7.592   4.527   6.260  0.3622 -1.6963 -1.8892
  949MOL0     H25265   7.445   4.607   6.210  0.3506 -2.7074  3.3393
  949MOL0     H25266   7.519   4.377   5.875 -0.1561  2.4543 -0.5123
  949MOL0     H25267   8.131   4.805   6.245  0.4362  0.0321  2.8560
  949MOL0     H25268   8.298   4.953   6.263 -1.4757 -1.7739  2.8314
  950MOL0     O25269   4.147   9.820   3.140 -0.6578  0.5712  0.8432
  950MOL0     C25270   4.194   9.714   3.095 -0.0749 -0.1128 -0.5824
  950MOL0     O25271   4.117   9.612   3.040  0.2155 -0.0250 -0.2708
  950MOL0     C25272   3.994   9.590   3.084  0.3973 -0.5611  0.3430
  950MOL0     C25273   3.953   9.586   3.217 -0.4480  0.2820  0.6265
  950MOL0     C25274   3.810   9.576   3.247 -0.1437 -0.3622  0.9736
  950MOL0     C25275   3.715   9.549   3.146 -0.0695  0.5119 -0.6133
  950MOL0     O25276   3.584   9.557   3.174  0.1667 -0.4758  0.0891
  950MOL0     C25277   3.497   9.450   3.121 -0.6557 -0.0309  0.4142
  950MOL0     C25278   3.352   9.461   3.166 -0.1026  0.6416 -0.3626
  950MOL0     C25279   3.336   9.446   3.317 -0.3429  1.0246  0.7889
  950MOL0     C25280   3.193   9.435   3.372  0.0974 -0.3829  0.8684
  950MOL0     C25281   3.170   9.394   3.518  1.4068  0.3300 -0.4470
  950MOL0     C25282   3.019   9.378   3.530  0.1028 -0.2465 -0.5424
  950MOL0     C25283   2.936   9.507   3.557 -0.1325  0.0223  0.4038
  950MOL0     C25284   2.794   9.481   3.581 -0.0197 -0.0117  0.6111
  950MOL0     N25285   2.714   9.465   3.457  0.5912  0.0734 -0.3466
  950MOL0     C25286   2.605   9.527   3.408  0.7837 -1.1616 -0.1583
  950MOL0     C25287   2.580   9.470   3.284  0.2760  0.2597 -0.4364
  950MOL0     C25288   2.461   9.504   3.193 -0.3255 -0.0801 -0.1301
  950MOL0     C25289   2.394   9.370   3.150 -0.6833 -0.3686 -0.0014
  950MOL0     C25290   2.258   9.399   3.097 -0.3823 -0.5716 -0.5366
  950MOL0     C25291   2.203   9.280   3.022 -0.0248  1.2108  0.5097
  950MOL0     O25292   2.090   9.319   2.952 -0.5175  0.0745 -0.6186
  950MOL0     C25293   1.964   9.341   3.008 -0.5394  0.3249  0.2174
  950MOL0     C25294   1.933   9.321   3.136 -0.1888  0.1372  0.5834
  950MOL0     C25295   1.802   9.363   3.183  0.2931 -0.3240  0.0155
  950MOL0     C25296   1.710   9.425   3.097  0.5230 -0.1127  0.2108
  950MOL0     C25297   1.573   9.464   3.151 -1.1188 -0.6201  0.3715
  950MOL0     O25298   1.474   9.445   3.068 -0.3383  1.7878 -0.0986
  950MOL0     C25299   1.344   9.479   3.114  0.5428  0.1469 -0.5232
  950MOL0     C25300   1.300   9.603   3.153 -0.2125  0.2940  0.6689
  950MOL0     C25301   1.165   9.637   3.191 -0.2949 -0.1217 -0.1901
  950MOL0     C25302   1.073   9.536   3.205  0.6873 -0.3217 -0.5044
  950MOL0     O25303   0.946   9.561   3.240  0.5851 -0.0590 -0.5168
  950MOL0     C25304   0.928   9.628   3.367  0.4032 -1.1399 -0.5687
  950MOL0     C25305   0.896   9.525   3.475 -1.1637 -0.0389  0.4028
  950MOL0     C25306   0.749   9.503   3.500  0.1727 -0.0094 -0.4603
  950MOL0     C25307   0.651   9.480   3.381 -1.2448 -0.1192  0.2212
  950MOL0     C25308   0.517   9.436   3.422 -0.2603  0.3109 -1.0265
  950MOL0     C25309   0.453   9.397   3.291  0.5448  0.1123 -0.2615
  950MOL0     C25310   0.297   9.384   3.288  1.3239  0.4254  0.1213
  950MOL0     C25311   0.215   9.511   3.299  0.4351  0.3937 -0.3318
  950MOL0    Cl25312   0.230   9.606   3.149 -0.1767  0.4195  0.3367
  950MOL0     C25313   1.103   9.411   3.156  1.2094 -0.2120  0.4299
  950MOL0     C25314   1.241   9.383   3.118  0.5816  0.2075 -0.5481
  950MOL0     O25315   1.561   9.514   3.262  0.5935  0.5063  0.7105
  950MOL0     C25316   1.739   9.437   2.964 -0.0059 -0.1697 -0.0017
  950MOL0     C25317   1.865   9.394   2.921  0.4557 -1.0825 -0.7763
  950MOL0     N25318   2.683   9.382   3.244  0.8181 -0.8641  0.4015
  950MOL0     N25319   2.759   9.387   3.351  0.0435  0.2607 -0.0826
  950MOL0     C25320   3.759   9.542   3.014 -0.3249  0.2448  0.1203
  950MOL0     C25321   3.896   9.552   2.990  0.1558  1.6815 -1.1521
  950MOL0     C25322   4.337   9.697   3.124 -0.3507  0.8819  0.1477
  950MOL0     C25323   4.418   9.813   3.165  0.5117 -0.0589 -0.4494
  950MOL0     C25324   4.559   9.800   3.184 -0.0003  0.1443  0.1578
  950MOL0     C25325   4.620   9.672   3.171 -0.1830  0.8018  0.8720
  950MOL0     O25326   4.754   9.671   3.179 -0.3951 -0.3815  0.2623
  950MOL0     C25327   4.826   9.550   3.157 -0.0929 -0.3038  0.1387
  950MOL0     C25328   4.873   9.513   3.022  0.1618  0.2676  0.3611
  950MOL0     C25329   4.963   9.629   2.975 -0.2872  1.1054  0.5263
  950MOL0     C25330   5.007   9.621   2.835 -0.4268  0.8909 -0.2522
  950MOL0     C25331   4.902   9.654   2.739  0.2299 -0.4818  0.7632
  950MOL0     C25332   4.811   9.693   2.664  0.4150  0.7474 -0.7929
  950MOL0     C25333   4.538   9.565   3.141  0.6478  0.6245  0.0115
  950MOL0     C25334   4.400   9.572   3.115 -0.3321 -0.5056 -0.2825
  950MOL0     H25335   4.032   9.596   3.291  0.1341  4.5779 -0.3133
  950MOL0     H25336   3.793   9.585   3.354  0.6161  0.9884  1.0087
  950MOL0     H25337   3.537   9.354   3.154  1.5236  0.6386 -0.1112
  950MOL0     H25338   3.486   9.444   3.012  0.4321  2.2332  0.1372
  950MOL0     H25339   3.322   9.368   3.115  0.0358 -1.0691  2.4544
  950MOL0     H25340   3.295   9.543   3.121 -2.1644  1.0422  2.7044
  950MOL0     H25341   3.382   9.537   3.357  2.0395  1.4155 -2.4188
  950MOL0     H25342   3.393   9.358   3.348  1.6866  1.3159 -1.7597
  950MOL0     H25343   3.140   9.530   3.360 -1.8521 -1.3645  1.1850
  950MOL0     H25344   3.153   9.359   3.304  0.9905  0.7082 -0.9323
  950MOL0     H25345   3.211   9.463   3.593  1.6900 -1.1168  0.7831
  950MOL0     H25346   3.225   9.301   3.536  1.5524  0.3660 -0.7000
  950MOL0     H25347   2.985   9.315   3.612  1.2284  0.4450  0.5000
  950MOL0     H25348   2.980   9.335   3.438  0.1925  1.0826 -1.2309
  950MOL0     H25349   2.962   9.564   3.646 -1.6092  0.7473  0.3841
  950MOL0     H25350   2.940   9.578   3.474  1.8655 -0.4717  0.0221
  950MOL0     H25351   2.744   9.567   3.625 -0.0571  1.6232 -2.3156
  950MOL0     H25352   2.783   9.393   3.645  0.8199 -0.3145  0.3549
  950MOL0     H25353   2.540   9.595   3.463  1.9139 -0.7709  0.7269
  950MOL0     H25354   2.507   9.552   3.106  2.5021  0.2379  1.4336
  950MOL0     H25355   2.399   9.580   3.242 -1.1566 -0.5996 -0.3524
  950MOL0     H25356   2.389   9.301   3.235 -5.1497  0.8353  0.9445
  950MOL0     H25357   2.447   9.319   3.069 -2.0385  1.2923 -2.0190
  950MOL0     H25358   2.185   9.417   3.177 -0.1514 -2.8254  0.2465
  950MOL0     H25359   2.265   9.479   3.023 -2.0356 -0.7946 -0.9909
  950MOL0     H25360   2.199   9.191   3.085 -0.4167  0.7371 -0.1740
  950MOL0     H25361   2.270   9.261   2.938  2.1382  2.3872  1.8573
  950MOL0     H25362   2.016   9.287   3.197  2.8895  2.5390 -1.9889
  950MOL0     H25363   1.784   9.335   3.287 -0.9755 -0.1244 -0.1366
  950MOL0     H25364   1.377   9.678   3.144  0.0703 -0.0643  0.0301
  950MOL0     H25365   1.134   9.741   3.201  3.1952  0.8613  2.0984
  950MOL0     H25366   0.838   9.689   3.375  2.5935  2.1938  1.5380
  950MOL0     H25367   1.009   9.698   3.392 -0.6787 -0.4186  1.0861
  950MOL0     H25368   0.952   9.570   3.559 -0.7840 -0.2489  0.2629
  950MOL0     H25369   0.934   9.425   3.454 -2.1744 -0.5413  0.8676
  950MOL0     H25370   0.706   9.585   3.558  0.1525 -0.0679 -0.3916
  950MOL0     H25371   0.744   9.423   3.575  3.0911 -0.5511 -0.7357
  950MOL0     H25372   0.636   9.574   3.328  0.0335 -0.7730 -1.3792
  950MOL0     H25373   0.702   9.409   3.316  2.7630  0.7718  2.1311
  950MOL0     H25374   0.463   9.519   3.468 -1.1598 -1.4900  1.4196
  950MOL0     H25375   0.511   9.361   3.502 -0.3536  3.5125  2.2414
  950MOL0     H25376   0.499   9.308   3.247 -1.5168  0.2762 -3.1027
  950MOL0     H25377   0.473   9.480   3.222 -1.6651 -1.5745 -3.1970
  950MOL0     H25378   0.276   9.345   3.188 -0.7018  3.5026 -0.7863
  950MOL0     H25379   0.272   9.309   3.363  1.4706  0.7212  0.4724
  950MOL0     H25380   0.248   9.569   3.386  1.6873 -2.6007  1.3153
  950MOL0     H25381   0.109   9.500   3.325  0.2729  3.8018  0.9522
  950MOL0     H25382   1.029   9.333   3.141  0.9729  0.1855 -0.5481
  950MOL0     H25383   1.271   9.282   3.089  0.4856 -0.4496  1.5018
  950MOL0     H25384   1.677   9.487   2.890 -0.8078  0.0811  0.8112
  950MOL0     H25385   1.891   9.404   2.816  0.9341 -0.2867 -0.5843
  950MOL0     H25386   3.693   9.521   2.930 -1.9113 -0.5135  1.4964
  950MOL0     H25387   3.934   9.534   2.890  1.0403  1.3235 -0.7551
  950MOL0     H25388   4.380   9.911   3.193  1.4110 -0.4577  2.5735
  950MOL0     H25389   4.621   9.889   3.186 -1.3369  1.1133 -0.0736
  950MOL0     H25390   4.772   9.475   3.215  2.2017 -2.7115 -0.6323
  950MOL0     H25391   4.924   9.548   3.207  0.6483 -0.3818 -1.2683
  950MOL0     H25392   4.924   9.416   3.021 -1.1590 -0.4535  0.1541
  950MOL0     H25393   4.787   9.513   2.954  0.3505  0.4183  0.1197
  950MOL0     H25394   5.047   9.637   3.044  0.0096  3.2653 -0.0258
  950MOL0     H25395   4.929   9.732   2.988  1.3362  2.0199 -1.8772
  950MOL0     H25396   5.099   9.677   2.815  0.0503  0.9220  1.7798
  950MOL0     H25397   5.032   9.515   2.821  2.4332  1.2956  1.0477
  950MOL0     H25398   4.739   9.742   2.601 -1.4708 -0.7639  0.0990
  950MOL0     H25399   4.572   9.463   3.129 -1.6568 -0.7001  3.2475
  950MOL0     H25400   4.345   9.479   3.101  2.1943 -2.2548  0.8455
  951MOL0     O25401   4.478   8.239   8.893  0.5007  0.7501 -0.5409
  951MOL0     C25402   4.366   8.234   8.946 -0.4148  0.2532  0.0167
  951MOL0     O25403   4.302   8.348   8.980 -0.6594  0.3507  0.7269
  951MOL0     C25404   4.378   8.459   8.969  0.7278 -0.2495 -0.8792
  951MOL0     C25405   4.442   8.505   9.080 -0.1611  0.4565 -0.1568
  951MOL0     C25406   4.523   8.622   9.085 -0.9766  0.8792  0.0587
  951MOL0     C25407   4.541   8.702   8.962  0.2963  0.3181 -0.1848
  951MOL0     O25408   4.617   8.817   8.972 -0.4193  0.5090 -0.1977
  951MOL0     C25409   4.549   8.928   8.909 -0.3900  0.8732 -0.1369
  951MOL0     C25410   4.553   9.052   8.998  0.2591  0.2760 -0.5603
  951MOL0     C25411   4.694   9.112   8.994 -0.1335 -0.1132 -0.1398
  951MOL0     C25412   4.709   9.240   9.075 -0.3059 -0.2674  1.0206
  951MOL0     C25413   4.707   9.227   9.225  0.4261 -0.4427  0.9218
  951MOL0     C25414   4.818   9.134   9.278 -0.3065 -0.0252  0.0652
  951MOL0     C25415   4.814   9.160   9.426 -0.4899  1.2722  0.1505
  951MOL0     C25416   4.921   9.066   9.491  0.6334 -0.3873 -0.4915
  951MOL0     N25417   5.053   9.122   9.471 -0.6284 -0.1268 -0.4440
  951MOL0     C25418   5.110   9.247   9.518  0.2336  0.9509 -0.4256
  951MOL0     C25419   5.239   9.230   9.503 -0.2907 -0.4872  0.7264
  951MOL0     C25420   5.336   9.335   9.534  0.5033  0.1809  0.3048
  951MOL0     C25421   5.383   9.408   9.402  0.5357  0.3628 -0.7881
  951MOL0     C25422   5.271   9.490   9.331  0.0309 -0.0022 -0.7658
  951MOL0     C25423   5.203   9.406   9.220 -0.8530 -0.1734  0.1425
  951MOL0     O25424   5.073   9.455   9.173 -0.9877  0.7152 -0.1092
  951MOL0     C25425   5.063   9.556   9.082 -0.2275 -0.0879  0.0671
  951MOL0     C25426   5.061   9.688   9.122  0.1798  0.0668 -0.7420
  951MOL0     C25427   5.060   9.793   9.034  0.1546  0.0274  0.6635
  951MOL0     C25428   5.051   9.770   8.894 -0.9184 -0.1923 -0.2094
  951MOL0     C25429   5.045   9.889   8.804 -0.6128  0.4544 -0.6218
  951MOL0     O25430   5.074  10.000   8.870 -1.4507 -0.0130  0.0784
  951MOL0     C25431   5.142  10.095   8.793  0.4866  0.5681  0.1016
  951MOL0     C25432   5.079  10.175   8.694  0.3749  0.0356 -0.2765
  951MOL0     C25433   5.146  10.270   8.618  1.1973  0.3953 -0.0299
  951MOL0     C25434   5.281  10.307   8.654  1.0668  0.5610  0.6174
  951MOL0     O25435   5.361  10.397   8.595 -0.2404  0.1793  0.0018
  951MOL0     C25436   5.298  10.518   8.551 -0.5439  0.6520 -0.2499
  951MOL0     C25437   5.408  10.620   8.498 -0.1368  0.0716  0.0340
  951MOL0     C25438   5.504  10.676   8.600 -0.7824 -0.2796 -0.1833
  951MOL0     C25439   5.452  10.737   8.727  0.4257  0.1358  0.4690
  951MOL0     C25440   5.541  10.801   8.830 -0.2109  0.1120  0.6069
  951MOL0     C25441   5.654  10.711   8.887 -0.1294  0.3639  0.3787
  951MOL0     C25442   5.743  10.812   8.960  0.3734 -0.4641  0.0547
  951MOL0     C25443   5.857  10.725   9.026  0.9285 -0.2688 -0.0496
  951MOL0    Cl25444   5.999  10.838   9.054 -0.2592  0.6557 -0.3717
  951MOL0     C25445   5.342  10.239   8.762 -1.2682  0.2214 -0.2837
  951MOL0     C25446   5.273  10.124   8.828  0.4925 -1.3437  0.4816
  951MOL0     O25447   5.015   9.872   8.685 -0.1864  0.6892 -0.5975
  951MOL0     C25448   5.072   9.642   8.851  0.8708  0.6026 -0.0250
  951MOL0     C25449   5.082   9.531   8.941  1.0248 -0.6376  0.7078
  951MOL0     N25450   5.265   9.110   9.441 -0.3981  0.4586 -0.8560
  951MOL0     N25451   5.161   9.050   9.422  0.9050 -0.2807 -1.0798
  951MOL0     C25452   4.484   8.651   8.845  0.4433  0.3764 -0.4512
  951MOL0     C25453   4.396   8.540   8.852 -0.0483  0.2507  0.6170
  951MOL0     C25454   4.310   8.100   8.965 -0.0858  0.9683 -0.0973
  951MOL0     C25455   4.385   7.979   8.937  0.1461 -0.4398 -0.3338
  951MOL0     C25456   4.323   7.855   8.961 -0.3772 -0.0299 -0.8487
  951MOL0     C25457   4.188   7.851   9.010 -0.1523  0.6525  0.7909
  951MOL0     O25458   4.133   7.729   9.022  0.3067 -0.4298 -0.6823
  951MOL0     C25459   4.119   7.694   9.157  0.0149  0.8438  0.3549
  951MOL0     C25460   4.253   7.654   9.224 -0.4312 -0.4645  1.4098
  951MOL0     C25461   4.235   7.573   9.352 -0.2577  0.0469  0.3296
  951MOL0     C25462   4.219   7.670   9.476 -0.1759 -0.9752  0.7097
  951MOL0     C25463   4.355   7.701   9.543 -0.7530 -0.2755 -0.1223
  951MOL0     C25464   4.455   7.752   9.577 -0.6884 -0.6070 -0.5924
  951MOL0     C25465   4.113   7.965   9.024  0.0569 -0.5001  0.8202
  951MOL0     C25466   4.172   8.089   9.001  0.7154 -0.4354 -0.3294
  951MOL0     H25467   4.442   8.432   9.161 -1.7187  0.7758  0.1687
  951MOL0     H25468   4.581   8.655   9.171 -0.7749  2.7272 -0.7273
  951MOL0     H25469   4.443   8.899   8.900 -0.4157  0.5143  1.1715
  951MOL0     H25470   4.590   8.948   8.810  1.0352 -2.2705 -0.3040
  951MOL0     H25471   4.531   9.016   9.098  1.3128 -5.3298 -1.9769
  951MOL0     H25472   4.482   9.126   8.960 -0.1583  0.5867  0.7853
  951MOL0     H25473   4.721   9.148   8.894 -2.1560 -1.7566 -1.3686
  951MOL0     H25474   4.779   9.050   9.023  2.7086  2.5281 -2.1275
  951MOL0     H25475   4.809   9.274   9.045 -0.4869  0.4406  1.2103
  951MOL0     H25476   4.625   9.308   9.054  0.5287  1.0263  1.7193
  951MOL0     H25477   4.608   9.191   9.254 -0.0897  0.8210  0.7904
  951MOL0     H25478   4.715   9.327   9.269 -1.5386  0.1400  0.0386
  951MOL0     H25479   4.916   9.157   9.236 -0.7841  0.3058 -0.8952
  951MOL0     H25480   4.783   9.033   9.256 -0.9495 -0.5104  2.8680
  951MOL0     H25481   4.827   9.268   9.439  0.8460  0.9703  1.7237
  951MOL0     H25482   4.721   9.139   9.479  1.4779 -2.6372  2.4893
  951MOL0     H25483   4.918   8.965   9.449 -0.8342 -1.6820  2.3982
  951MOL0     H25484   4.889   9.057   9.596  1.0477  0.3792 -0.2896
  951MOL0     H25485   5.062   9.335   9.558  0.0729 -0.5929  3.2232
  951MOL0     H25486   5.425   9.286   9.576  0.2133 -0.6493 -0.0147
  951MOL0     H25487   5.288   9.408   9.600 -1.6374  0.6434 -1.6524
  951MOL0     H25488   5.435   9.346   9.328  2.6861  3.1934 -1.8610
  951MOL0     H25489   5.456   9.487   9.424  2.5579 -1.0573 -1.9589
  951MOL0     H25490   5.199   9.529   9.403  1.2449  1.8720 -0.4986
  951MOL0     H25491   5.307   9.585   9.291 -3.0368 -0.0002 -3.9914
  951MOL0     H25492   5.181   9.303   9.248 -3.2954 -0.3859 -2.1767
  951MOL0     H25493   5.271   9.421   9.136 -0.2460 -1.2354  0.4258
  951MOL0     H25494   5.066   9.705   9.229  0.9314 -2.6240 -0.2637
  951MOL0     H25495   5.064   9.885   9.092 -0.9829 -0.0631  0.9117
  951MOL0     H25496   4.980  10.135   8.673  0.3964 -0.4289  0.4809
  951MOL0     H25497   5.090  10.316   8.537  2.2260 -0.5764 -1.3443
  951MOL0     H25498   5.247  10.565   8.635 -0.9604 -0.2789  0.0305
  951MOL0     H25499   5.233  10.486   8.469  2.2312  2.0297 -3.2241
  951MOL0     H25500   5.353  10.710   8.469  1.1715  1.0455  0.4634
  951MOL0     H25501   5.452  10.579   8.406 -1.5586  0.6942 -0.9590
  951MOL0     H25502   5.556  10.758   8.549 -2.1360  0.1864 -0.8575
  951MOL0     H25503   5.576  10.597   8.625 -1.4110  0.2943  4.2455
  951MOL0     H25504   5.382  10.815   8.697 -4.7052 -3.1564  2.5641
  951MOL0     H25505   5.398  10.657   8.777  0.2540 -1.4167 -2.0251
  951MOL0     H25506   5.465  10.832   8.903 -3.2145  2.2906 -3.0849
  951MOL0     H25507   5.582  10.879   8.766  1.3540 -3.0516 -2.5615
  951MOL0     H25508   5.711  10.672   8.803 -2.5900  1.3127 -1.8930
  951MOL0     H25509   5.611  10.642   8.960  0.9019 -2.0425 -1.1735
  951MOL0     H25510   5.788  10.896   8.907 -0.7758 -0.3203 -0.7310
  951MOL0     H25511   5.690  10.852   9.046 -2.5160 -2.2586 -0.7341
  951MOL0     H25512   5.885  10.647   8.955 -0.2010 -0.6049 -0.1426
  951MOL0     H25513   5.824  10.673   9.116  1.9694 -0.7687  0.0599
  951MOL0     H25514   5.442  10.270   8.788 -0.8289  0.5946 -2.2544
  951MOL0     H25515   5.323  10.065   8.904  0.4607  0.4696  2.0002
  951MOL0     H25516   5.075   9.615   8.746  1.2818 -1.1643  0.4059
  951MOL0     H25517   5.113   9.432   8.912  3.0446  0.4465 -1.1599
  951MOL0     H25518   4.505   8.704   8.753 -1.2837  2.2954  0.1666
  951MOL0     H25519   4.366   8.484   8.764  2.2542 -1.7634  1.0005
  951MOL0     H25520   4.491   7.975   8.913  0.2718 -0.6266  0.2284
  951MOL0     H25521   4.379   7.765   8.940 -1.1971 -0.4576 -1.2720
  951MOL0     H25522   4.061   7.602   9.151  0.5765  0.5744 -2.7854
  951MOL0     H25523   4.049   7.765   9.202  1.9447  3.0256  0.1506
  951MOL0     H25524   4.326   7.617   9.151  0.2525 -2.7557  3.1573
  951MOL0     H25525   4.293   7.750   9.260 -0.4286 -1.1381  3.2690
  951MOL0     H25526   4.323   7.511   9.369 -0.8922 -0.6143  1.2793
  951MOL0     H25527   4.151   7.506   9.329  0.8855 -0.9420 -1.1446
  951MOL0     H25528   4.164   7.756   9.436  3.0889  0.5434 -0.8377
  951MOL0     H25529   4.158   7.631   9.559  2.9002  0.5562  3.9416
  951MOL0     H25530   4.547   7.782   9.623 -0.6608 -0.6943 -0.5914
  951MOL0     H25531   4.020   7.958   9.079 -2.2079 -0.7151 -2.7807
  951MOL0     H25532   4.112   8.179   9.006  0.3995 -0.6510 -0.2176
  952MOL0     O25533   2.588   9.245   6.392 -0.4469 -0.4024 -0.2436
  952MOL0     C25534   2.665   9.207   6.300  0.8195 -0.0082 -0.4861
  952MOL0     O25535   2.788   9.146   6.310  0.3523  0.3562 -0.8247
  952MOL0     C25536   2.839   9.096   6.423 -0.0231  0.0626 -1.0919
  952MOL0     C25537   2.772   9.055   6.541  0.7609 -1.0581  0.5918
  952MOL0     C25538   2.840   8.995   6.648 -0.4435  0.3040  0.2502
  952MOL0     C25539   2.984   8.981   6.654  0.3544  0.4115 -0.4373
  952MOL0     O25540   3.059   8.923   6.759 -0.0341  0.1931 -0.0509
  952MOL0     C25541   2.987   8.863   6.864  0.1468 -0.0620 -0.1958
  952MOL0     C25542   3.074   8.768   6.928 -1.3031  0.5624  0.2671
  952MOL0     C25543   3.029   8.732   7.071 -0.0638 -0.1934  0.7926
  952MOL0     C25544   3.118   8.621   7.131  0.1793 -0.5560 -0.6056
  952MOL0     C25545   3.248   8.689   7.189 -0.7909 -0.1795 -0.2586
  952MOL0     C25546   3.342   8.583   7.240 -0.0539 -0.4938 -0.0624
  952MOL0     C25547   3.291   8.454   7.300 -0.9015  0.7442 -0.2011
  952MOL0     C25548   3.392   8.338   7.326  0.4649 -0.8199  0.1504
  952MOL0     N25549   3.364   8.275   7.461 -0.3119  1.1169  0.1633
  952MOL0     C25550   3.366   8.336   7.575  0.3690  0.4972  0.7870
  952MOL0     C25551   3.396   8.237   7.664 -0.7869 -0.4149 -0.9172
  952MOL0     C25552   3.408   8.254   7.816 -1.0271 -0.7031  0.1095
  952MOL0     C25553   3.544   8.205   7.862  0.1135  0.3805  0.0335
  952MOL0     C25554   3.611   8.282   7.968 -0.6187 -0.0994 -0.6810
  952MOL0     C25555   3.621   8.199   8.099 -0.0153  0.0314 -0.3278
  952MOL0     O25556   3.731   8.258   8.175 -1.5412  0.7581  0.4691
  952MOL0     C25557   3.708   8.365   8.264 -0.2485  0.5020 -0.8369
  952MOL0     C25558   3.821   8.419   8.327  0.3835 -0.2330 -0.5937
  952MOL0     C25559   3.816   8.519   8.420  0.6909 -0.5205  0.9170
  952MOL0     C25560   3.689   8.557   8.463 -0.4349  0.0482  0.5393
  952MOL0     C25561   3.669   8.662   8.568  0.9715 -0.3715  0.1293
  952MOL0     O25562   3.544   8.691   8.605  0.7419 -0.8318  0.1113
  952MOL0     C25563   3.531   8.754   8.729 -0.4065 -0.5618 -0.4189
  952MOL0     C25564   3.531   8.679   8.842  0.3627 -1.1958 -0.7526
  952MOL0     C25565   3.501   8.749   8.971  0.4771  1.4347  0.3243
  952MOL0     C25566   3.495   8.885   8.979 -0.4461 -0.4574 -0.2642
  952MOL0     O25567   3.462   8.942   9.101 -0.4517 -0.3934 -0.2177
  952MOL0     C25568   3.389   9.075   9.100 -1.0545 -0.9295  0.8097
  952MOL0     C25569   3.296   9.056   9.217 -0.4659  0.3312  0.0214
  952MOL0     C25570   3.218   9.182   9.230  0.1906 -0.3286 -0.2265
  952MOL0     C25571   3.107   9.173   9.335  0.3840  0.3825  0.3453
  952MOL0     C25572   3.014   9.295   9.326  0.7020  0.4217  1.0617
  952MOL0     C25573   2.885   9.251   9.257  0.2159  0.3233  0.8438
  952MOL0     C25574   2.812   9.377   9.220  0.5238  0.1084  0.9959
  952MOL0     C25575   2.716   9.338   9.098  0.4103 -0.1116  0.6081
  952MOL0    Cl25576   2.620   9.478   9.064  0.4419 -0.1070 -0.2923
  952MOL0     C25577   3.523   8.956   8.865  0.2680 -0.2341 -0.3922
  952MOL0     C25578   3.530   8.887   8.742  0.0615 -1.5725  1.0680
  952MOL0     O25579   3.769   8.712   8.612 -0.6183  0.4400 -0.4511
  952MOL0     C25580   3.573   8.501   8.404  0.3492  0.7355 -0.8198
  952MOL0     C25581   3.583   8.407   8.303  0.8540  1.0250  0.3090
  952MOL0     N25582   3.396   8.114   7.599  0.0030  0.1042 -0.5850
  952MOL0     N25583   3.369   8.143   7.477 -0.4035  0.0367  0.8660
  952MOL0     C25584   3.052   9.033   6.544  0.4683 -0.3136 -0.1367
  952MOL0     C25585   2.980   9.088   6.424 -0.0348  0.2420 -0.2473
  952MOL0     C25586   2.613   9.213   6.158 -0.1191 -0.3446  0.7627
  952MOL0     C25587   2.516   9.303   6.124 -0.5480  0.4435  0.2620
  952MOL0     C25588   2.475   9.313   5.992 -0.1964 -0.3895 -0.8664
  952MOL0     C25589   2.525   9.237   5.893 -0.8187  0.1083 -0.2461
  952MOL0     O25590   2.478   9.245   5.767  0.5446  0.1620 -0.0627
  952MOL0     C25591   2.450   9.132   5.686 -0.0597 -0.6309  0.5230
  952MOL0     C25592   2.315   9.162   5.614  0.3246  0.6202 -0.4161
  952MOL0     C25593   2.286   9.079   5.493  0.2434  1.3900  0.6440
  952MOL0     C25594   2.177   9.143   5.400  0.0062 -0.3360 -0.5411
  952MOL0     C25595   2.057   9.188   5.475  0.0407  0.5641 -0.3330
  952MOL0     C25596   1.951   9.215   5.545 -0.1373  1.2315  1.1130
  952MOL0     C25597   2.628   9.146   5.920  0.2243  0.4956  0.5625
  952MOL0     C25598   2.676   9.133   6.052  1.0240 -0.1559 -1.0146
  952MOL0     H25599   2.664   9.058   6.535  0.6652 -2.8152  0.9168
  952MOL0     H25600   2.801   8.990   6.749 -0.3135  3.3708  0.5317
  952MOL0     H25601   2.910   8.798   6.821 -1.3732  2.6286 -1.8695
  952MOL0     H25602   2.945   8.937   6.932  1.9653  1.3070 -0.4966
  952MOL0     H25603   3.178   8.798   6.924 -0.3733 -1.8948  2.6920
  952MOL0     H25604   3.071   8.675   6.869  2.1182  0.3814  0.1942
  952MOL0     H25605   2.930   8.687   7.077 -0.7148  0.7006 -1.9933
  952MOL0     H25606   3.014   8.821   7.133  1.7586  1.1384 -0.5583
  952MOL0     H25607   3.056   8.577   7.210 -1.5972  2.4374 -0.1893
  952MOL0     H25608   3.131   8.542   7.056 -1.4168  1.1697 -2.8000
  952MOL0     H25609   3.223   8.743   7.280  1.8980 -1.9522  1.7036
  952MOL0     H25610   3.307   8.748   7.118  1.8749 -0.1616  1.8022
  952MOL0     H25611   3.420   8.629   7.301 -0.0714  0.6848 -0.9018
  952MOL0     H25612   3.395   8.550   7.149 -0.2189  0.7527 -0.6191
  952MOL0     H25613   3.241   8.479   7.394 -3.2359 -0.5317 -1.0338
  952MOL0     H25614   3.221   8.404   7.233 -0.0677 -1.6213  0.5960
  952MOL0     H25615   3.491   8.383   7.331  0.7397 -1.5461  3.7068
  952MOL0     H25616   3.381   8.257   7.253 -0.7712 -0.3378 -0.2376
  952MOL0     H25617   3.355   8.443   7.587  1.5120  0.3312  4.8252
  952MOL0     H25618   3.328   8.202   7.869 -2.1902  2.5372  1.8524
  952MOL0     H25619   3.401   8.362   7.835 -4.0684 -0.9437  0.7297
  952MOL0     H25620   3.610   8.195   7.776 -1.0217  3.7736 -1.4332
  952MOL0     H25621   3.516   8.106   7.900 -0.9466  1.8765  3.6808
  952MOL0     H25622   3.712   8.294   7.928 -0.0805 -2.0769 -0.0167
  952MOL0     H25623   3.544   8.368   7.981 -0.1803  0.5977 -2.6531
  952MOL0     H25624   3.657   8.100   8.068  1.9332  0.6762 -0.2180
  952MOL0     H25625   3.529   8.182   8.155 -1.4250  3.2623 -1.4207
  952MOL0     H25626   3.916   8.390   8.285  0.1157  0.1781 -1.5068
  952MOL0     H25627   3.907   8.568   8.453  0.4501 -0.2906  1.2538
  952MOL0     H25628   3.548   8.572   8.835 -3.0180 -1.8320 -1.1349
  952MOL0     H25629   3.481   8.689   9.059 -0.5866 -0.3377 -1.0496
  952MOL0     H25630   3.343   9.089   9.001  1.1989 -0.2275 -0.2163
  952MOL0     H25631   3.445   9.168   9.114 -1.6929 -0.5063  0.6244
  952MOL0     H25632   3.360   9.040   9.304  0.8105  0.5780 -0.8537
  952MOL0     H25633   3.228   8.971   9.204 -2.0502  1.5531 -0.0534
  952MOL0     H25634   3.176   9.205   9.132  0.3964 -2.4982 -0.8740
  952MOL0     H25635   3.292   9.257   9.261 -0.8648  0.2173  1.1055
  952MOL0     H25636   3.055   9.082   9.304  0.9698  0.4920 -1.0546
  952MOL0     H25637   3.137   9.155   9.439  2.7909  3.3768  0.3131
  952MOL0     H25638   3.063   9.376   9.272 -2.6233  1.0389 -1.3399
  952MOL0     H25639   2.991   9.335   9.425 -1.2352 -2.4466  1.8951
  952MOL0     H25640   2.824   9.187   9.320 -2.0087  1.1849 -0.3181
  952MOL0     H25641   2.903   9.207   9.158 -2.5943 -1.6929  1.1148
  952MOL0     H25642   2.760   9.414   9.310  0.0921 -1.4984  1.4498
  952MOL0     H25643   2.881   9.457   9.192 -1.9802  1.9931 -0.1572
  952MOL0     H25644   2.646   9.260   9.128 -1.5076  0.2897 -2.3634
  952MOL0     H25645   2.763   9.299   9.007  1.6831 -0.3562  1.3424
  952MOL0     H25646   3.532   9.064   8.868 -0.9517 -0.1258  1.9722
  952MOL0     H25647   3.538   8.944   8.650 -0.2473 -0.0310  1.9794
  952MOL0     H25648   3.470   8.522   8.432  0.3115  0.3857 -0.6920
  952MOL0     H25649   3.493   8.357   8.269  1.8765 -0.1314 -0.8009
  952MOL0     H25650   3.160   9.032   6.536  0.3746  1.6476 -4.0987
  952MOL0     H25651   3.036   9.114   6.334 -0.0032  0.7593 -0.0823
  952MOL0     H25652   2.469   9.370   6.195 -1.5419  1.5588 -1.3840
  952MOL0     H25653   2.390   9.377   5.973 -0.5409 -0.1841  1.1150
  952MOL0     H25654   2.431   9.044   5.748  0.6571 -3.1405 -2.5718
  952MOL0     H25655   2.533   9.110   5.619 -0.4672  1.1459 -0.6214
  952MOL0     H25656   2.242   9.139   5.692 -0.1265 -0.3279 -1.0969
  952MOL0     H25657   2.311   9.267   5.586 -0.2315  0.1802 -2.1384
  952MOL0     H25658   2.250   8.979   5.518  0.4817  1.2791  0.5423
  952MOL0     H25659   2.372   9.062   5.428 -1.0616  2.2354 -1.3979
  952MOL0     H25660   2.206   9.236   5.351 -2.2219 -0.8893 -3.1027
  952MOL0     H25661   2.146   9.083   5.314 -1.8829 -1.2777  0.7318
  952MOL0     H25662   1.864   9.232   5.605 -0.7529  1.2032  0.2342
  952MOL0     H25663   2.684   9.099   5.840 -0.6159 -1.0254  0.8349
  952MOL0     H25664   2.756   9.061   6.064 -0.4334 -2.0008 -1.7574
  953MOL0     O25665   5.734   3.302   5.005  0.3779 -0.5248 -0.5366
  953MOL0     C25666   5.772   3.193   5.054 -0.4791  0.6862 -0.2520
  953MOL0     O25667   5.703   3.093   5.131 -0.3312  0.3707  0.9077
  953MOL0     C25668   5.574   3.122   5.155 -0.7281  0.5739  1.0789
  953MOL0     C25669   5.533   3.130   5.287  0.3320 -0.1881 -0.7478
  953MOL0     C25670   5.409   3.158   5.325 -0.2097 -0.2682  0.3554
  953MOL0     C25671   5.304   3.179   5.224  0.0594  0.2935 -0.3465
  953MOL0     O25672   5.172   3.208   5.259  0.5262 -0.0832 -0.8056
  953MOL0     C25673   5.130   3.342   5.234  0.4412 -0.6234  0.3446
  953MOL0     C25674   5.018   3.393   5.333  0.2474 -0.4720  0.1113
  953MOL0     C25675   4.996   3.546   5.338  0.5283  0.3981 -0.1361
  953MOL0     C25676   4.886   3.601   5.245 -0.6212 -0.1954 -1.0167
  953MOL0     C25677   4.896   3.750   5.207 -0.3642  0.0879  0.8256
  953MOL0     C25678   5.036   3.802   5.154  0.7177  0.1275 -0.2394
  953MOL0     C25679   5.042   3.950   5.112  0.0840  0.4959  0.1983
  953MOL0     C25680   5.091   4.037   5.228  0.2308  0.6064  0.1071
  953MOL0     N25681   5.064   4.182   5.203 -0.5694  0.2519 -0.3478
  953MOL0     C25682   5.033   4.277   5.298  0.3568 -1.2206 -0.4972
  953MOL0     C25683   5.036   4.395   5.223  0.7896  0.5316  0.6080
  953MOL0     C25684   5.007   4.533   5.263  0.0003  0.5197 -0.2050
  953MOL0     C25685   4.866   4.579   5.262 -0.1797 -0.3909  0.8953
  953MOL0     C25686   4.785   4.560   5.127 -0.2291  0.1437 -0.3353
  953MOL0     C25687   4.669   4.664   5.117  0.5528 -0.5835 -0.4196
  953MOL0     O25688   4.609   4.667   5.245  0.1354 -0.0521  0.0669
  953MOL0     C25689   4.532   4.778   5.290 -0.3482  0.1843  0.4108
  953MOL0     C25690   4.479   4.881   5.202  0.5478 -0.3917  0.7241
  953MOL0     C25691   4.393   4.980   5.270  1.0182 -0.0686 -0.1029
  953MOL0     C25692   4.376   4.965   5.410 -0.5970 -0.4631 -0.8449
  953MOL0     C25693   4.289   5.062   5.489 -0.1900  1.3882  0.5535
  953MOL0     O25694   4.209   5.142   5.415  0.2546 -0.2238  0.1950
  953MOL0     C25695   4.095   5.204   5.464 -0.6050  0.1736  0.0861
  953MOL0     C25696   4.026   5.168   5.581 -0.1771  0.7668 -0.2106
  953MOL0     C25697   3.922   5.254   5.625  0.0528  0.6810 -0.0513
  953MOL0     C25698   3.862   5.350   5.547 -0.0142  0.2939 -0.5302
  953MOL0     O25699   3.754   5.424   5.588 -0.1385  0.0495 -0.4442
  953MOL0     C25700   3.710   5.537   5.513 -0.2415  0.6719  0.1241
  953MOL0     C25701   3.595   5.605   5.592  0.3257 -0.5662 -0.6125
  953MOL0     C25702   3.567   5.739   5.512 -1.2135  0.3086 -0.0330
  953MOL0     C25703   3.429   5.801   5.543 -0.1274 -0.8054  0.4765
  953MOL0     C25704   3.407   5.919   5.442  0.8955  0.2642  0.6004
  953MOL0     C25705   3.496   6.049   5.467 -0.1414  0.0438  0.0114
  953MOL0     C25706   3.473   6.137   5.344  0.9034 -0.5254  0.2561
  953MOL0     C25707   3.548   6.266   5.367  0.0513 -1.0058 -1.3837
  953MOL0    Cl25708   3.466   6.357   5.504  0.4422  0.1584  0.0631
  953MOL0     C25709   3.936   5.383   5.430 -0.1237  0.5604 -0.4505
  953MOL0     C25710   4.049   5.318   5.392 -0.2750 -0.0580  0.2691
  953MOL0     O25711   4.288   5.054   5.610 -0.3957  0.0634 -0.2669
  953MOL0     C25712   4.446   4.867   5.488 -1.1250 -0.7727 -0.6434
  953MOL0     C25713   4.515   4.769   5.426  0.1141  0.2641  0.6350
  953MOL0     N25714   5.076   4.365   5.097 -0.6154  0.3580  0.8933
  953MOL0     N25715   5.090   4.236   5.087  0.0754  0.1906  0.1272
  953MOL0     C25716   5.344   3.172   5.094 -0.0811 -0.7087  0.4700
  953MOL0     C25717   5.479   3.144   5.060  0.2037 -0.4929 -0.5022
  953MOL0     C25718   5.918   3.168   5.062  0.3504  0.2243  0.3550
  953MOL0     C25719   5.974   3.073   5.152  1.0641  0.1434  0.0968
  953MOL0     C25720   6.113   3.062   5.163  0.5184  1.1627 -0.0092
  953MOL0     C25721   6.192   3.160   5.093  0.3518  0.8071  0.5376
  953MOL0     O25722   6.333   3.172   5.105  0.2066  0.1209 -0.6941
  953MOL0     C25723   6.403   3.092   5.198  0.3252  0.0172 -0.4029
  953MOL0     C25724   6.533   3.153   5.253 -0.0436 -1.1933 -0.3357
  953MOL0     C25725   6.605   3.075   5.363 -0.3466  1.3371 -0.1338
  953MOL0     C25726   6.746   3.119   5.400  0.4894 -0.4913 -0.8826
  953MOL0     C25727   6.838   3.099   5.291 -0.2392  0.5409 -0.8401
  953MOL0     C25728   6.895   3.068   5.184 -0.9034 -0.4638 -0.0035
  953MOL0     C25729   6.135   3.254   5.010 -0.7382 -0.2216 -0.0955
  953MOL0     C25730   6.005   3.256   4.989  0.7254  0.3128  0.0766
  953MOL0     H25731   5.611   3.124   5.362  0.5320  3.8092 -0.3974
  953MOL0     H25732   5.385   3.138   5.429 -0.2635  1.0483  0.6086
  953MOL0     H25733   5.103   3.345   5.129  1.8425 -0.1064 -0.0316
  953MOL0     H25734   5.212   3.414   5.232 -1.0635  1.1737  0.8100
  953MOL0     H25735   5.043   3.364   5.436  0.3081  3.2870  1.2888
  953MOL0     H25736   4.923   3.345   5.306 -0.9780  1.3396  1.0023
  953MOL0     H25737   5.095   3.578   5.305  2.7178 -4.8581  0.4412
  953MOL0     H25738   4.962   3.575   5.438 -1.4264 -1.4319 -0.2009
  953MOL0     H25739   4.906   3.544   5.154 -0.8266  0.5440 -1.5339
  953MOL0     H25740   4.786   3.605   5.288 -1.8925  0.5635 -3.8262
  953MOL0     H25741   4.867   3.822   5.284 -2.6336 -0.2400  0.3523
  953MOL0     H25742   4.822   3.765   5.127 -3.9054  1.6030  4.0852
  953MOL0     H25743   5.063   3.754   5.059  0.6919  0.2780 -0.3227
  953MOL0     H25744   5.108   3.773   5.231  1.1365  0.8562 -0.3514
  953MOL0     H25745   5.119   3.963   5.036  0.5993  1.9625  0.9388
  953MOL0     H25746   4.940   3.978   5.084  0.0736 -0.7186 -1.1260
  953MOL0     H25747   5.198   4.028   5.246 -0.3335 -2.0641  3.0397
  953MOL0     H25748   5.048   4.005   5.323  1.3699 -1.2306  0.0396
  953MOL0     H25749   5.042   4.259   5.405  0.0228 -0.0872 -0.2642
  953MOL0     H25750   5.064   4.598   5.196  1.5075  1.4487  1.8970
  953MOL0     H25751   5.050   4.550   5.362  0.6253  0.0385 -0.3887
  953MOL0     H25752   4.864   4.687   5.280 -0.0632 -0.3377  0.5911
  953MOL0     H25753   4.811   4.537   5.347 -0.3349 -0.6364  0.6725
  953MOL0     H25754   4.851   4.592   5.046 -0.7721  0.4079 -0.6795
  953MOL0     H25755   4.743   4.459   5.119 -1.7040  0.6189  0.8917
  953MOL0     H25756   4.594   4.628   5.045  1.5146 -0.6270 -1.4210
  953MOL0     H25757   4.708   4.765   5.098 -1.8960  0.8017  1.2901
  953MOL0     H25758   4.492   4.882   5.094 -0.9806 -2.7582  0.4450
  953MOL0     H25759   4.332   5.048   5.211  1.3202  0.3156  0.0231
  953MOL0     H25760   4.063   5.089   5.646 -0.1557  0.0896 -1.0342
  953MOL0     H25761   3.881   5.241   5.725  0.0145 -1.1258 -0.2630
  953MOL0     H25762   3.664   5.509   5.418 -1.2369  1.6929  0.2816
  953MOL0     H25763   3.793   5.609   5.507 -1.7170  2.3304 -1.7657
  953MOL0     H25764   3.620   5.623   5.697  2.2084 -1.5479 -0.8454
  953MOL0     H25765   3.502   5.547   5.599  0.6037 -1.0586 -0.9159
  953MOL0     H25766   3.570   5.704   5.408  1.4395  0.2343 -0.0095
  953MOL0     H25767   3.648   5.812   5.521  0.5490 -1.4844 -0.5940
  953MOL0     H25768   3.356   5.721   5.540 -0.2703 -0.7190  1.3314
  953MOL0     H25769   3.433   5.848   5.642  2.8474 -1.9837  1.0297
  953MOL0     H25770   3.301   5.946   5.446 -0.1918 -3.4359  0.6074
  953MOL0     H25771   3.423   5.883   5.340 -0.5989 -1.1785  0.8314
  953MOL0     H25772   3.600   6.020   5.484 -0.0291  0.8765  0.8578
  953MOL0     H25773   3.474   6.107   5.557  0.7864 -2.6963  2.1452
  953MOL0     H25774   3.494   6.098   5.244  2.0499 -2.7141  1.3071
  953MOL0     H25775   3.367   6.167   5.343  0.9312 -0.4232 -0.1548
  953MOL0     H25776   3.536   6.325   5.276  2.0669  2.2058  0.2781
  953MOL0     H25777   3.656   6.256   5.377 -0.0300 -0.6044  0.2042
  953MOL0     H25778   3.913   5.472   5.372 -0.5845  1.0160  0.4120
  953MOL0     H25779   4.112   5.349   5.310  1.7151 -0.9294  1.4036
  953MOL0     H25780   4.454   4.863   5.596 -0.9010  1.8848 -0.4903
  953MOL0     H25781   4.559   4.691   5.487 -0.8278 -0.2216  0.7233
  953MOL0     H25782   5.273   3.189   5.014 -0.9259 -2.6752  0.7219
  953MOL0     H25783   5.499   3.141   4.953  0.2708  1.5670 -0.5855
  953MOL0     H25784   5.911   3.011   5.215  0.5396 -1.9832 -2.3296
  953MOL0     H25785   6.149   2.993   5.239  0.8000  1.9619  0.5890
  953MOL0     H25786   6.419   2.999   5.141  0.0949 -0.4183  0.2306
  953MOL0     H25787   6.352   3.069   5.292  1.8055  0.3267  0.4976
  953MOL0     H25788   6.600   3.158   5.166  4.1259 -1.5324  2.5889
  953MOL0     H25789   6.512   3.249   5.302  3.4913 -1.2625  1.6602
  953MOL0     H25790   6.598   2.970   5.333 -0.8350  0.7938  1.7462
  953MOL0     H25791   6.539   3.085   5.450 -1.5928 -2.3702 -0.4459
  953MOL0     H25792   6.736   3.221   5.437 -4.2077  0.0470 -2.8906
  953MOL0     H25793   6.775   3.055   5.484 -2.0477  1.4230  1.6253
  953MOL0     H25794   6.936   3.047   5.087 -2.1860  3.2349 -1.5066
  953MOL0     H25795   6.208   3.321   4.966 -0.0525 -1.6017 -1.1475
  953MOL0     H25796   5.971   3.344   4.936  1.0909  1.8104  2.1968
  954MOL0     O25797   0.640   0.531   8.315  0.0237  0.3082  0.4197
  954MOL0     C25798   0.637   0.513   8.438  0.5939 -1.0650 -0.3179
  954MOL0     O25799   0.529   0.453   8.495 -0.2143 -0.0114  0.2457
  954MOL0     C25800   0.428   0.403   8.424 -1.1024  0.1821 -0.1369
  954MOL0     C25801   0.332   0.490   8.384  1.2129 -0.4746  0.2021
  954MOL0     C25802   0.224   0.452   8.311 -0.2145 -0.2276  0.0864
  954MOL0     C25803   0.242   0.322   8.249  1.5332 -0.3731  0.8102
  954MOL0     O25804   0.154   0.281   8.149 -0.0809  0.1394  0.1225
  954MOL0     C25805   0.067   0.369   8.088  0.3283 -0.5354 -0.5260
  954MOL0     C25806   0.016   0.309   7.957  0.0252  0.0944 -0.4627
  954MOL0     C25807  -0.108   0.393   7.920 -0.0673  0.1597 -0.4785
  954MOL0     C25808  -0.241   0.328   7.964 -0.0771  0.2479 -0.4751
  954MOL0     C25809  -0.346   0.435   7.937  0.1906 -0.6960  0.3570
  954MOL0     C25810  -0.371   0.518   8.060  0.1606  1.7152  1.1311
  954MOL0     C25811  -0.477   0.621   8.036 -0.1126  0.0238  0.5116
  954MOL0     C25812  -0.427   0.753   7.977 -0.2397 -0.2018  1.0956
  954MOL0     N25813  -0.524   0.787   7.877  0.1193  0.2973  0.1528
  954MOL0     C25814  -0.502   0.795   7.741 -0.1330 -0.0135  0.1033
  954MOL0     C25815  -0.614   0.851   7.689  0.5081 -0.4914  0.2402
  954MOL0     C25816  -0.658   0.889   7.548 -0.4286 -0.6154  1.7842
  954MOL0     C25817  -0.804   0.891   7.511 -0.5506  0.4496  0.6191
  954MOL0     C25818  -0.813   0.942   7.356 -0.7796 -0.1254  0.4930
  954MOL0     C25819  -0.829   1.088   7.331 -0.1892 -0.2001 -0.2828
  954MOL0     O25820  -0.699   1.159   7.343 -0.7552 -0.0811  0.2087
  954MOL0     C25821  -0.686   1.296   7.305 -1.2063  0.3042  0.3763
  954MOL0     C25822  -0.566   1.340   7.255  0.1753  0.3636 -0.2632
  954MOL0     C25823  -0.552   1.464   7.188 -0.4837 -0.6205 -0.0156
  954MOL0     C25824  -0.668   1.544   7.176  0.1181  0.1931  0.3793
  954MOL0     C25825  -0.649   1.671   7.103  0.1346 -0.3362  0.2542
  954MOL0     O25826  -0.744   1.775   7.110 -0.2974 -0.2759 -0.6523
  954MOL0     C25827  -0.720   1.905   7.060 -0.0693 -0.2440  0.3296
  954MOL0     C25828  -0.636   1.932   6.956  0.8582 -0.3292 -0.0972
  954MOL0     C25829  -0.623   2.069   6.909  0.3877  0.5374 -1.3308
  954MOL0     C25830  -0.699   2.175   6.969 -0.4012 -0.1256 -0.0837
  954MOL0     O25831  -0.692   2.298   6.916 -0.4552 -0.2740 -0.4901
  954MOL0     C25832  -0.712   2.408   7.012 -0.4186  0.6712  0.1186
  954MOL0     C25833  -0.697   2.531   6.921 -0.3462 -0.2321 -1.5522
  954MOL0     C25834  -0.772   2.651   6.976 -0.0547 -0.6221  0.5892
  954MOL0     C25835  -0.791   2.744   6.861  0.1593  1.0276  0.4133
  954MOL0     C25836  -0.880   2.873   6.869  0.6242  0.5654  1.3440
  954MOL0     C25837  -0.878   2.950   6.740  0.9020 -1.2947  0.1272
  954MOL0     C25838  -0.940   3.087   6.753  0.5554  0.2834 -0.0354
  954MOL0     C25839  -0.944   3.175   6.629 -0.3286  0.0824  0.1531
  954MOL0    Cl25840  -1.088   3.146   6.537  0.1423  0.8391 -0.4459
  954MOL0     C25841  -0.787   2.146   7.077 -0.7881 -0.1222 -0.7319
  954MOL0     C25842  -0.792   2.013   7.125  0.1565  0.8072 -0.0259
  954MOL0     O25843  -0.545   1.680   7.041  0.0171 -0.5117  0.2960
  954MOL0     C25844  -0.783   1.503   7.234  0.0889 -1.2762 -0.0165
  954MOL0     C25845  -0.794   1.381   7.294 -0.4855 -0.9580 -0.3950
  954MOL0     N25846  -0.708   0.854   7.789 -0.0583 -0.7396 -0.9105
  954MOL0     N25847  -0.652   0.824   7.896  0.1522 -0.5348 -0.5378
  954MOL0     C25848   0.344   0.237   8.282 -0.0226 -0.3522 -0.4867
  954MOL0     C25849   0.437   0.274   8.383  0.3424 -0.4780  0.2752
  954MOL0     C25850   0.751   0.552   8.519  0.0589 -0.6183 -0.6219
  954MOL0     C25851   0.881   0.543   8.465 -0.6037 -0.2545  0.1847
  954MOL0     C25852   0.989   0.563   8.553  0.3239  0.5534  0.4872
  954MOL0     C25853   0.970   0.587   8.691 -0.7024  0.2300  0.3312
  954MOL0     O25854   1.085   0.612   8.760  0.1100  0.1239  0.2454
  954MOL0     C25855   1.089   0.604   8.903  0.6340 -0.5205 -0.5372
  954MOL0     C25856   1.068   0.465   8.963 -0.9127 -0.2568  0.0538
  954MOL0     C25857   1.197   0.386   8.944  0.0842  1.0077 -0.9054
  954MOL0     C25858   1.164   0.234   8.965 -0.2433 -0.5709 -0.2181
  954MOL0     C25859   1.277   0.155   8.919  0.5838 -0.4610 -0.1514
  954MOL0     C25860   1.374   0.097   8.881 -0.7893 -0.5067  0.2931
  954MOL0     C25861   0.850   0.585   8.744 -1.0149  0.1078 -0.1129
  954MOL0     C25862   0.740   0.569   8.660 -0.1843 -0.2506 -0.2005
  954MOL0     H25863   0.332   0.583   8.439  1.5251 -0.3042 -0.0909
  954MOL0     H25864   0.144   0.526   8.308 -2.7488 -2.6026  2.7607
  954MOL0     H25865   0.112   0.468   8.071 -0.0367  0.4105  3.0602
  954MOL0     H25866  -0.013   0.367   8.163 -1.1145  1.5682 -1.9045
  954MOL0     H25867  -0.012   0.203   7.955  1.0018 -0.2165  0.8958
  954MOL0     H25868   0.086   0.332   7.876 -0.7420 -0.7511 -1.3894
  954MOL0     H25869  -0.102   0.414   7.813  0.8604 -2.0562 -0.9234
  954MOL0     H25870  -0.103   0.489   7.971 -0.6504 -0.5817  1.0446
  954MOL0     H25871  -0.259   0.237   7.907  0.5541  0.5188 -1.1177
  954MOL0     H25872  -0.241   0.315   8.073 -2.6009  1.8814 -0.1686
  954MOL0     H25873  -0.435   0.381   7.904 -0.4559 -0.7251  2.0080
  954MOL0     H25874  -0.319   0.502   7.855 -3.1756  3.0548  1.9760
  954MOL0     H25875  -0.279   0.559   8.103  0.5761  0.8782  1.0484
  954MOL0     H25876  -0.410   0.456   8.141  0.2593  2.0907  1.4696
  954MOL0     H25877  -0.557   0.589   7.969 -2.0520 -0.8180  3.0705
  954MOL0     H25878  -0.533   0.643   8.127 -2.9552 -1.7002 -0.7009
  954MOL0     H25879  -0.335   0.735   7.921 -0.6071  2.1576 -0.3746
  954MOL0     H25880  -0.418   0.830   8.054  3.2368 -0.8213  1.4837
  954MOL0     H25881  -0.404   0.789   7.696  0.8348  0.4028  2.0413
  954MOL0     H25882  -0.603   0.826   7.478 -3.6023  0.6002 -2.2262
  954MOL0     H25883  -0.621   0.990   7.529 -1.0250 -0.4703  1.3494
  954MOL0     H25884  -0.858   0.962   7.575 -1.5222 -2.6304  3.5155
  954MOL0     H25885  -0.842   0.789   7.522  1.2831 -0.6943 -2.4431
  954MOL0     H25886  -0.722   0.927   7.298 -0.7004  1.3499  0.2003
  954MOL0     H25887  -0.902   0.897   7.311 -1.3142  0.3408  1.0633
  954MOL0     H25888  -0.901   1.123   7.405  2.0321 -3.1428  3.6475
  954MOL0     H25889  -0.861   1.107   7.228 -0.9194 -1.1719 -0.2528
  954MOL0     H25890  -0.480   1.282   7.285  1.4623  3.0014  1.5842
  954MOL0     H25891  -0.452   1.494   7.157 -1.2915  1.1857 -1.0193
  954MOL0     H25892  -0.589   1.850   6.903 -2.5062 -0.1934 -3.7539
  954MOL0     H25893  -0.560   2.098   6.826  1.0291 -1.3893 -1.5615
  954MOL0     H25894  -0.645   2.405   7.098 -1.2076  0.6108  0.7440
  954MOL0     H25895  -0.816   2.410   7.045 -0.2785 -1.0469  0.7442
  954MOL0     H25896  -0.723   2.510   6.817 -0.1862 -0.9699 -1.4479
  954MOL0     H25897  -0.591   2.554   6.912 -0.3138 -0.1763 -1.0686
  954MOL0     H25898  -0.718   2.700   7.057 -0.3087 -0.3732  0.6106
  954MOL0     H25899  -0.872   2.621   7.008 -1.6205 -0.6213 -3.6501
  954MOL0     H25900  -0.695   2.789   6.834  2.4699 -1.4685  3.6805
  954MOL0     H25901  -0.825   2.678   6.780  1.6764 -2.0384  2.0718
  954MOL0     H25902  -0.847   2.935   6.953 -2.3348  2.8299  1.0461
  954MOL0     H25903  -0.985   2.848   6.888  0.7891 -0.7252  0.6331
  954MOL0     H25904  -0.916   2.893   6.654 -0.1831 -1.2237  0.5465
  954MOL0     H25905  -0.772   2.967   6.715  0.9282  1.8091  1.8168
  954MOL0     H25906  -1.042   3.087   6.792  0.0728  2.8028 -1.0673
  954MOL0     H25907  -0.873   3.147   6.815 -1.0396  4.7891 -2.1533
  954MOL0     H25908  -0.862   3.160   6.559 -1.4740  2.0869 -1.7386
  954MOL0     H25909  -0.941   3.280   6.658  0.2505 -0.1777  1.0813
  954MOL0     H25910  -0.848   2.216   7.133 -0.6982 -2.0701  1.9597
  954MOL0     H25911  -0.866   1.997   7.203 -0.4324 -1.4665 -0.9550
  954MOL0     H25912  -0.870   1.567   7.223  0.2352 -1.2838 -1.3368
  954MOL0     H25913  -0.889   1.344   7.330 -0.3672 -2.4984 -1.5426
  954MOL0     H25914   0.352   0.134   8.249 -0.1992 -1.7218  3.2261
  954MOL0     H25915   0.522   0.214   8.416 -1.0955 -0.6290  4.3106
  954MOL0     H25916   0.915   0.539   8.362  1.6067 -0.5764  0.8861
  954MOL0     H25917   1.088   0.562   8.509 -0.0631  1.3475 -0.4498
  954MOL0     H25918   1.010   0.665   8.946  0.3263 -0.5703 -1.0325
  954MOL0     H25919   1.184   0.632   8.950 -0.5591 -0.3396  1.9365
  954MOL0     H25920   1.055   0.473   9.071  0.5698  0.7120  0.1929
  954MOL0     H25921   0.979   0.422   8.918 -0.4873 -0.0850 -0.9861
  954MOL0     H25922   1.268   0.416   9.021  1.5997  0.0165 -1.8594
  954MOL0     H25923   1.249   0.404   8.850 -1.4938  0.0555 -2.0140
  954MOL0     H25924   1.146   0.221   9.072 -0.4261 -1.0373 -0.3019
  954MOL0     H25925   1.071   0.198   8.921 -0.5828  2.4722 -2.2776
  954MOL0     H25926   1.458   0.038   8.850  2.6638  3.8503  0.4155
  954MOL0     H25927   0.837   0.577   8.851  0.8214 -0.1535  0.1262
  954MOL0     H25928   0.643   0.560   8.708 -1.4579  1.5310 -2.2728
  955MOL0     O25929   8.697   5.616   4.500  0.2550 -0.2709 -0.0331
  955MOL0     C25930   8.817   5.590   4.469 -0.1618 -0.3647 -0.6514
  955MOL0     O25931   8.877   5.637   4.355  0.0110 -0.6260 -0.9631
  955MOL0     C25932   8.788   5.695   4.266 -0.9804  0.3113 -0.4340
  955MOL0     C25933   8.792   5.833   4.265  0.5302  0.2571 -0.1399
  955MOL0     C25934   8.701   5.908   4.183 -0.3836  0.3410 -0.0903
  955MOL0     C25935   8.619   5.837   4.092  0.9813  0.3269 -0.2348
  955MOL0     O25936   8.548   5.908   3.999  0.0484 -0.0221 -0.7077
  955MOL0     C25937   8.473   5.842   3.899 -0.0207 -0.1627 -0.0296
  955MOL0     C25938   8.420   5.934   3.798  0.1049 -0.4205  0.2460
  955MOL0     C25939   8.349   5.854   3.685  0.1669  0.4025 -0.9867
  955MOL0     C25940   8.287   5.936   3.563 -0.8342  0.2314  0.1715
  955MOL0     C25941   8.221   5.832   3.468  0.2660 -1.1012  0.8072
  955MOL0     C25942   8.150   5.919   3.362  0.5114  0.1829  0.0122
  955MOL0     C25943   8.065   5.831   3.281 -0.3203 -0.2611  0.0917
  955MOL0     C25944   8.017   5.903   3.149  0.7771 -0.4959  0.3952
  955MOL0     N25945   7.963   6.043   3.163  0.8302  0.6989 -0.4520
  955MOL0     C25946   7.829   6.075   3.182 -0.4592 -0.5694  0.5260
  955MOL0     C25947   7.820   6.206   3.145  0.1690  0.0777 -0.0742
  955MOL0     C25948   7.693   6.277   3.136 -0.0574  0.0484 -0.4481
  955MOL0     C25949   7.716   6.428   3.107  0.1137 -0.0485  0.5266
  955MOL0     C25950   7.793   6.504   3.219 -0.8690  0.5325 -0.2061
  955MOL0     C25951   7.836   6.636   3.170 -0.0076  0.4046 -0.4195
  955MOL0     O25952   7.773   6.737   3.250  0.0506  0.0921  0.7167
  955MOL0     C25953   7.829   6.859   3.246  1.1339 -0.1360 -0.7189
  955MOL0     C25954   7.837   6.926   3.367 -0.0892  0.0294  0.4081
  955MOL0     C25955   7.907   7.043   3.386 -0.5006  0.3115 -0.0335
  955MOL0     C25956   7.958   7.116   3.274  0.2446  0.6720 -0.5591
  955MOL0     C25957   8.020   7.249   3.297  0.2559 -0.4190  0.4034
  955MOL0     O25958   8.035   7.296   3.436 -0.2243 -0.4209  0.7499
  955MOL0     C25959   8.080   7.424   3.449  0.7107  0.6210  0.5769
  955MOL0     C25960   8.003   7.542   3.437  0.4607  0.3589 -0.1410
  955MOL0     C25961   8.066   7.663   3.452  0.2250 -0.9296 -0.2258
  955MOL0     C25962   8.196   7.675   3.474  0.0032  0.0059 -0.4471
  955MOL0     O25963   8.226   7.808   3.491 -0.5918  0.1639 -0.1231
  955MOL0     C25964   8.319   7.859   3.395 -0.0689 -0.7074 -0.2328
  955MOL0     C25965   8.227   7.917   3.281  0.3285 -0.5617  0.5421
  955MOL0     C25966   8.306   8.001   3.182 -0.2960 -0.0540 -0.4004
  955MOL0     C25967   8.340   8.136   3.241 -0.2063  0.0244  0.2762
  955MOL0     C25968   8.493   8.175   3.237 -0.1652  0.2678  0.2355
  955MOL0     C25969   8.539   8.289   3.327  1.0248 -0.0407  0.3427
  955MOL0     C25970   8.469   8.411   3.288  0.1699 -0.0362  0.3500
  955MOL0     C25971   8.521   8.542   3.358  0.2783  0.1724  0.1313
  955MOL0    Cl25972   8.483   8.537   3.527 -0.0439  0.1818 -0.5535
  955MOL0     C25973   8.286   7.564   3.475  1.0001 -0.6566  0.5627
  955MOL0     C25974   8.219   7.438   3.469  0.1839 -0.2135 -0.6782
  955MOL0     O25975   8.067   7.305   3.199  0.4923 -0.4137 -0.0444
  955MOL0     C25976   7.952   7.051   3.150  0.2958 -0.1635  0.7334
  955MOL0     C25977   7.881   6.927   3.130  0.6879 -0.0527 -0.6832
  955MOL0     N25978   7.943   6.258   3.131  0.4331 -0.7409  0.0453
  955MOL0     N25979   8.026   6.165   3.141 -0.4250  0.3993  0.8299
  955MOL0     C25980   8.624   5.693   4.094 -0.1174 -0.5830 -0.7388
  955MOL0     C25981   8.700   5.619   4.188 -0.9267 -1.2958  0.8463
  955MOL0     C25982   8.911   5.541   4.575  0.8085 -0.7202  0.2277
  955MOL0     C25983   9.056   5.546   4.566  0.1603  0.0576  0.0504
  955MOL0     C25984   9.133   5.489   4.670  0.1237 -0.4036  0.7935
  955MOL0     C25985   9.080   5.434   4.779 -0.9313 -0.1718  0.2872
  955MOL0     O25986   9.179   5.380   4.860 -0.3206 -0.8510 -0.1302
  955MOL0     C25987   9.137   5.304   4.973  0.1139 -0.5450 -0.5012
  955MOL0     C25988   9.079   5.405   5.079 -0.0723 -0.4771  0.8488
  955MOL0     C25989   9.198   5.477   5.146  0.3409  0.1293 -0.2301
  955MOL0     C25990   9.152   5.600   5.221  0.1891 -0.3335 -0.2365
  955MOL0     C25991   9.079   5.565   5.357 -0.7355 -0.7800  1.2376
  955MOL0     C25992   9.033   5.547   5.469  0.5821 -0.0157  0.0433
  955MOL0     C25993   8.939   5.425   4.794  0.8655  1.1094  0.1528
  955MOL0     C25994   8.858   5.488   4.698 -0.5863  0.3116 -0.0551
  955MOL0     H25995   8.871   5.892   4.310  0.3863 -0.0106  0.4656
  955MOL0     H25996   8.717   6.009   4.147 -1.6889  1.8086  3.0279
  955MOL0     H25997   8.385   5.798   3.946  0.6799 -1.9510 -0.3014
  955MOL0     H25998   8.537   5.769   3.848  2.4865  2.6219 -1.2103
  955MOL0     H25999   8.498   5.993   3.749 -1.1107  1.5208  0.5034
  955MOL0     H26000   8.345   6.004   3.838 -3.0798 -0.2818 -4.9566
  955MOL0     H26001   8.287   5.792   3.750 -0.2437  1.1989 -0.6050
  955MOL0     H26002   8.420   5.782   3.644 -1.5134 -0.0033 -3.3920
  955MOL0     H26003   8.208   6.004   3.598 -1.0750  0.6291 -1.1096
  955MOL0     H26004   8.368   5.996   3.520 -2.8649  2.0151 -1.3860
  955MOL0     H26005   8.139   5.774   3.511 -2.3601  1.6418 -0.1363
  955MOL0     H26006   8.291   5.767   3.415 -2.0679 -1.1338 -2.5396
  955MOL0     H26007   8.224   5.975   3.303 -0.1716 -0.0557 -1.0925
  955MOL0     H26008   8.089   6.000   3.402 -0.4251  0.0877 -1.1509
  955MOL0     H26009   8.114   5.740   3.244 -2.5001 -1.2569 -0.4931
  955MOL0     H26010   7.976   5.797   3.334  2.9357 -3.2661  4.3636
  955MOL0     H26011   7.959   5.824   3.101  2.6594 -0.8418 -1.4563
  955MOL0     H26012   8.102   5.918   3.083 -1.8994  1.0176 -3.0454
  955MOL0     H26013   7.744   6.007   3.184 -1.5391  0.5710 -1.9019
  955MOL0     H26014   7.647   6.269   3.235 -2.8050  1.2346 -1.5137
  955MOL0     H26015   7.631   6.245   3.052  1.6968 -1.0021 -1.3913
  955MOL0     H26016   7.619   6.473   3.083 -0.2354  2.2462  5.1976
  955MOL0     H26017   7.773   6.439   3.014 -3.7196  1.5411 -1.9064
  955MOL0     H26018   7.730   6.519   3.307  0.4879  0.3849  0.8133
  955MOL0     H26019   7.875   6.444   3.256 -0.3380  0.4152 -1.5102
  955MOL0     H26020   7.811   6.667   3.068  0.6886  1.6660 -0.2253
  955MOL0     H26021   7.946   6.636   3.171  0.0493 -1.7102 -1.4534
  955MOL0     H26022   7.799   6.869   3.451 -0.4254  1.3563  1.1914
  955MOL0     H26023   7.920   7.072   3.490 -1.4131  1.4878 -0.2223
  955MOL0     H26024   7.897   7.527   3.415  0.5527  1.1513 -1.1537
  955MOL0     H26025   8.011   7.756   3.459  2.8382  0.7542 -1.0976
  955MOL0     H26026   8.380   7.779   3.353  2.4750  1.2309 -0.4551
  955MOL0     H26027   8.373   7.947   3.431 -1.2114 -0.7362  1.7476
  955MOL0     H26028   8.150   7.985   3.318 -1.0936 -1.3738 -0.7608
  955MOL0     H26029   8.190   7.833   3.220  4.6058 -2.8871  0.7849
  955MOL0     H26030   8.257   8.025   3.088 -2.9400 -1.1373  0.5958
  955MOL0     H26031   8.397   7.940   3.176  1.5831  2.1089  2.7904
  955MOL0     H26032   8.280   8.205   3.182 -1.4070 -3.0726 -2.4752
  955MOL0     H26033   8.305   8.143   3.344 -0.0305  0.2050  0.3225
  955MOL0     H26034   8.523   8.201   3.135 -2.1764  4.8294  0.5565
  955MOL0     H26035   8.549   8.090   3.275  0.7664  0.0491 -1.5166
  955MOL0     H26036   8.647   8.307   3.322  0.5666  3.1376 -0.8874
  955MOL0     H26037   8.505   8.268   3.428 -1.0004  0.7950 -0.1248
  955MOL0     H26038   8.486   8.413   3.180 -0.9699  2.8408  0.1115
  955MOL0     H26039   8.360   8.404   3.286  0.1999 -3.2806 -3.7977
  955MOL0     H26040   8.461   8.627   3.327 -2.1479 -1.0344  1.2841
  955MOL0     H26041   8.627   8.553   3.331 -0.0306 -0.5614 -1.5033
  955MOL0     H26042   8.391   7.567   3.503  0.1750  1.2274  4.0397
  955MOL0     H26043   8.273   7.344   3.476  1.0447 -0.0953 -4.0648
  955MOL0     H26044   8.002   7.102   3.068  0.0865 -1.1689 -0.0445
  955MOL0     H26045   7.882   6.890   3.028 -1.2465  0.7555 -1.0542
  955MOL0     H26046   8.558   5.634   4.031  0.9069 -1.1425 -1.3136
  955MOL0     H26047   8.726   5.514   4.193  4.8840 -0.3667 -1.5544
  955MOL0     H26048   9.091   5.576   4.468 -3.4226 -1.4880 -1.9312
  955MOL0     H26049   9.238   5.466   4.654 -0.4980 -2.5428 -0.7216
  955MOL0     H26050   9.221   5.251   5.018  2.0397  0.5552 -2.5827
  955MOL0     H26051   9.064   5.224   4.961  0.7417 -1.7299  2.6794
  955MOL0     H26052   9.012   5.477   5.032  0.2364 -2.8453 -3.8432
  955MOL0     H26053   9.022   5.352   5.156  1.3523 -2.0298  0.8870
  955MOL0     H26054   9.266   5.513   5.067  1.0604  1.5385  0.9693
  955MOL0     H26055   9.250   5.405   5.211  3.2562  1.6442 -0.7032
  955MOL0     H26056   9.243   5.657   5.239  0.8758 -0.8286 -1.8666
  955MOL0     H26057   9.091   5.656   5.150  2.5393 -0.5499 -2.6214
  955MOL0     H26058   8.991   5.510   5.561 -2.1167 -2.5493 -2.0301
  955MOL0     H26059   8.894   5.384   4.884  0.8001  0.5961 -0.1115
  955MOL0     H26060   8.750   5.479   4.698 -0.4816 -1.7484  1.5701
  956MOL0     O26061   3.715   7.051  10.368  0.4463 -1.6176 -0.0866
  956MOL0     C26062   3.702   7.153  10.434 -0.2831  0.0958  0.0204
  956MOL0     O26063   3.789   7.258  10.433 -0.0273  0.0502 -0.6294
  956MOL0     C26064   3.901   7.263  10.359 -0.4155 -1.0509  0.2453
  956MOL0     C26065   3.974   7.140  10.318  0.0780 -0.7253 -0.1874
  956MOL0     C26066   4.095   7.164  10.254 -0.2719  0.0548 -0.6296
  956MOL0     C26067   4.123   7.290  10.193 -0.6517  0.6110 -0.3185
  956MOL0     O26068   4.245   7.293  10.122 -0.3742 -0.2920  0.1254
  956MOL0     C26069   4.259   7.428  10.052 -0.9856  0.7202  0.0626
  956MOL0     C26070   4.370   7.432   9.942  0.6548 -0.2054 -0.9094
  956MOL0     C26071   4.357   7.311   9.857  0.4116  0.0486 -0.1137
  956MOL0     C26072   4.435   7.319   9.733  0.2830  0.7584 -0.7932
  956MOL0     C26073   4.441   7.174   9.667  1.5129 -0.3990 -0.8804
  956MOL0     C26074   4.510   7.066   9.746 -0.7331 -0.1150  0.4216
  956MOL0     C26075   4.429   6.955   9.812  0.4672 -0.4822 -0.0361
  956MOL0     C26076   4.494   6.867   9.922  0.1287  0.7324 -0.6196
  956MOL0     N26077   4.464   6.920  10.052 -0.1955 -0.4556 -0.3822
  956MOL0     C26078   4.555   6.998  10.135 -0.3018 -0.0701 -1.0757
  956MOL0     C26079   4.507   6.979  10.254 -0.3030  0.0472  0.2628
  956MOL0     C26080   4.554   7.056  10.371 -0.5286 -0.5703 -0.4274
  956MOL0     C26081   4.503   7.197  10.357  0.0830 -0.8250  0.0056
  956MOL0     C26082   4.608   7.316  10.380 -0.7291 -0.3551  0.5860
  956MOL0     C26083   4.546   7.452  10.399  0.7214 -0.1585  1.2489
  956MOL0     O26084   4.467   7.470  10.520 -0.1524 -0.5270 -0.6696
  956MOL0     C26085   4.408   7.590  10.556  0.6499  0.8167 -0.4648
  956MOL0     C26086   4.430   7.717  10.496 -0.2952  0.5568 -0.2894
  956MOL0     C26087   4.377   7.834  10.555 -0.6392  0.9568 -0.3465
  956MOL0     C26088   4.316   7.821  10.668  1.0586 -0.5082 -1.7514
  956MOL0     C26089   4.252   7.948  10.728 -1.1476  0.7523 -0.3546
  956MOL0     O26090   4.303   8.070  10.680 -0.1127  0.1920 -0.5930
  956MOL0     C26091   4.304   8.196  10.730 -0.5393  0.1860  0.5729
  956MOL0     C26092   4.277   8.216  10.864  0.1937 -1.5803 -0.1600
  956MOL0     C26093   4.293   8.350  10.916  0.0912 -0.9069 -0.4984
  956MOL0     C26094   4.335   8.458  10.840 -0.5022 -0.2836  1.5193
  956MOL0     O26095   4.371   8.572  10.906 -0.0705 -0.4415 -0.0198
  956MOL0     C26096   4.447   8.676  10.837  0.5867 -0.1776  0.7630
  956MOL0     C26097   4.591   8.638  10.827 -0.0740  0.2268  0.0286
  956MOL0     C26098   4.653   8.723  10.709  0.6761 -0.0550  0.2649
  956MOL0     C26099   4.789   8.668  10.661 -0.4589  0.2829 -0.0134
  956MOL0     C26100   4.878   8.620  10.771 -0.1309 -0.2744 -0.0348
  956MOL0     C26101   5.004   8.548  10.717  0.3753  0.5423  0.8270
  956MOL0     C26102   5.087   8.472  10.822 -0.2927  1.0912  0.5354
  956MOL0     C26103   5.200   8.411  10.743 -0.0390  1.0018 -0.5483
  956MOL0    Cl26104   5.315   8.325  10.852  0.1873  0.5852 -0.3840
  956MOL0     C26105   4.372   8.432  10.701 -0.6890 -0.3444 -0.3464
  956MOL0     C26106   4.348   8.305  10.651 -0.0271 -0.7974  0.3379
  956MOL0     O26107   4.176   7.928  10.825 -0.5723 -1.0056  0.7704
  956MOL0     C26108   4.281   7.695  10.736 -0.0560 -0.9401 -0.6407
  956MOL0     C26109   4.331   7.585  10.672  0.4519 -0.3704 -1.3206
  956MOL0     N26110   4.384   6.910  10.248 -0.1782 -0.9404 -0.6612
  956MOL0     N26111   4.362   6.875  10.129  0.6001 -0.5651 -0.4533
  956MOL0     C26112   4.040   7.391  10.220 -0.5295 -0.0671  0.2085
  956MOL0     C26113   3.936   7.386  10.303 -0.0444  0.0638 -1.2604
  956MOL0     C26114   3.579   7.160  10.522  0.0921  0.7956  0.9529
  956MOL0     C26115   3.550   7.266  10.613 -0.8987 -0.1358 -0.2290
  956MOL0     C26116   3.433   7.261  10.696 -0.0232  0.0061 -0.4246
  956MOL0     C26117   3.350   7.149  10.690  0.1575  0.5296  0.4104
  956MOL0     O26118   3.239   7.154  10.776  0.3163  0.0848 -0.3735
  956MOL0     C26119   3.108   7.126  10.714  0.1432 -0.2004 -0.4645
  956MOL0     C26120   2.985   7.194  10.774  0.0372 -0.8438  0.0170
  956MOL0     C26121   3.006   7.355  10.757  0.2483 -0.5458  0.1346
  956MOL0     C26122   2.877   7.435  10.728 -0.0880 -0.6663 -0.8745
  956MOL0     C26123   2.795   7.446  10.856  0.3306 -0.0664 -0.0340
  956MOL0     C26124   2.714   7.453  10.946 -0.2205  0.8742 -0.1932
  956MOL0     C26125   3.385   7.037  10.607 -1.4578 -0.0095  0.1587
  956MOL0     C26126   3.490   7.051  10.514 -0.6166 -0.0623 -1.0331
  956MOL0     H26127   3.962   7.040  10.357 -0.8095 -1.2966 -1.8505
  956MOL0     H26128   4.163   7.080  10.241  0.4277  0.1893  1.6684
  956MOL0     H26129   4.293   7.494  10.132 -0.8955 -0.0744  0.6905
  956MOL0     H26130   4.166   7.446   9.996 -1.5135 -1.4918  0.1120
  956MOL0     H26131   4.470   7.437   9.986  0.2725  0.0820 -0.0479
  956MOL0     H26132   4.339   7.519   9.885 -4.4160 -0.0446  1.5406
  956MOL0     H26133   4.250   7.298   9.839  0.5383 -3.5973  0.9531
  956MOL0     H26134   4.408   7.246   9.929  0.4931  2.4372  2.1178
  956MOL0     H26135   4.399   7.390   9.659 -3.5014  0.1788  0.2789
  956MOL0     H26136   4.540   7.348   9.747  1.5922 -3.4327 -0.1403
  956MOL0     H26137   4.490   7.186   9.570 -2.1859 -0.0840 -2.9157
  956MOL0     H26138   4.350   7.119   9.637 -0.8090  2.0933  1.1258
  956MOL0     H26139   4.582   7.109   9.817  0.0547 -0.0655 -0.3853
  956MOL0     H26140   4.581   7.018   9.678 -0.0812  0.5439  0.6169
  956MOL0     H26141   4.338   7.002   9.852  0.1439 -2.0319  1.1471
  956MOL0     H26142   4.383   6.891   9.736 -0.1295  0.9173 -0.9016
  956MOL0     H26143   4.602   6.855   9.910  0.4749 -2.8726  3.5605
  956MOL0     H26144   4.451   6.766   9.920  0.0952  0.7469 -0.6032
  956MOL0     H26145   4.642   7.056  10.108 -0.1082  1.8195  2.9836
  956MOL0     H26146   4.663   7.051  10.373 -0.4325  0.8794 -0.7563
  956MOL0     H26147   4.517   7.011  10.464 -1.5499 -1.0064 -1.0303
  956MOL0     H26148   4.416   7.202  10.423 -0.6719 -2.5719 -0.7978
  956MOL0     H26149   4.469   7.200  10.253  2.0437  0.6911 -0.6502
  956MOL0     H26150   4.667   7.288  10.468 -1.3727  2.4615  2.0401
  956MOL0     H26151   4.679   7.328  10.298 -1.0325  4.1779  0.7561
  956MOL0     H26152   4.480   7.472  10.315 -0.0842 -2.4642  1.2525
  956MOL0     H26153   4.634   7.516  10.413 -1.0685  3.4186 -2.0811
  956MOL0     H26154   4.501   7.718  10.414 -1.8454 -2.7700 -1.8980
  956MOL0     H26155   4.382   7.937  10.521 -1.5063  1.7266  1.6545
  956MOL0     H26156   4.242   8.147  10.939  0.0780 -0.3523  0.9604
  956MOL0     H26157   4.263   8.368  11.018  0.6566  1.6792 -0.7242
  956MOL0     H26158   4.446   8.770  10.894  2.3485  0.4438 -0.1292
  956MOL0     H26159   4.399   8.698  10.742  0.2686 -0.8416  0.7676
  956MOL0     H26160   4.604   8.530  10.820 -0.3305  0.1489  0.6785
  956MOL0     H26161   4.639   8.678  10.917  0.9384 -1.2821  0.1949
  956MOL0     H26162   4.655   8.828  10.740 -1.0065  0.9619 -2.6439
  956MOL0     H26163   4.581   8.722  10.627  0.0281  0.3568  0.8164
  956MOL0     H26164   4.768   8.590  10.587  2.2125 -2.2968  1.7059
  956MOL0     H26165   4.845   8.747  10.611  1.2332 -0.8956 -0.0654
  956MOL0     H26166   4.823   8.542  10.823 -2.7367 -0.5413 -2.9019
  956MOL0     H26167   4.900   8.706  10.835 -1.2904  2.3600 -2.8430
  956MOL0     H26168   5.071   8.622  10.673 -0.2463  1.0958  0.7844
  956MOL0     H26169   4.970   8.481  10.638  1.4318  1.3333 -0.3251
  956MOL0     H26170   5.118   8.544  10.898 -1.4529  0.4434  1.6598
  956MOL0     H26171   5.036   8.392  10.878  0.1026  0.6054  0.2137
  956MOL0     H26172   5.248   8.484  10.677 -0.7371  0.9322 -1.1518
  956MOL0     H26173   5.157   8.343  10.669  0.7828  1.8553 -1.8513
  956MOL0     H26174   4.423   8.514  10.652  1.9893  1.0753  4.2023
  956MOL0     H26175   4.376   8.272  10.551  0.4033 -0.8683  0.4797
  956MOL0     H26176   4.219   7.682  10.824 -1.7776  0.1078 -1.6342
  956MOL0     H26177   4.316   7.495  10.731  0.5610  2.5271  3.6931
  956MOL0     H26178   4.042   7.491  10.179 -1.0247  0.4350  1.3777
  956MOL0     H26179   3.877   7.475  10.323  0.8932  0.7314 -1.4446
  956MOL0     H26180   3.621   7.343  10.642 -1.5335  1.4609 -2.5932
  956MOL0     H26181   3.425   7.342  10.768  2.8091 -1.1303  1.3309
  956MOL0     H26182   3.091   7.019  10.705 -0.3177 -0.2181  0.5770
  956MOL0     H26183   3.110   7.155  10.608 -2.9197 -1.3694 -0.9308
  956MOL0     H26184   2.892   7.159  10.729 -0.1660  1.9961 -2.0753
  956MOL0     H26185   2.969   7.192  10.882 -0.9286 -1.2902 -0.1281
  956MOL0     H26186   3.058   7.370  10.661  0.3987  0.1110  0.3136
  956MOL0     H26187   3.060   7.396  10.842  0.9872 -3.1345  1.0053
  956MOL0     H26188   2.920   7.529  10.692  0.0424 -1.1593 -2.0471
  956MOL0     H26189   2.829   7.382  10.646  1.7953 -2.4810 -0.8828
  956MOL0     H26190   2.650   7.458  11.032 -1.8918  0.4593 -1.3447
  956MOL0     H26191   3.333   6.942  10.618 -0.7256 -0.2057  2.4356
  956MOL0     H26192   3.506   6.965  10.450 -1.5123  0.5433 -2.1002
  957MOL0     O26193   3.926  11.364  10.611  0.5642  0.2992 -0.5045
  957MOL0     C26194   4.042  11.395  10.588  0.1092  0.3998  0.3052
  957MOL0     O26195   4.133  11.471  10.665  0.4467 -0.2230  0.0838
  957MOL0     C26196   4.083  11.494  10.791 -1.2204 -0.1694 -0.9288
  957MOL0     C26197   4.112  11.395  10.891 -0.4434 -0.7663 -0.1820
  957MOL0     C26198   4.063  11.398  11.023  0.5966 -0.6002  0.1358
  957MOL0     C26199   3.980  11.510  11.054 -0.1333 -0.7838  0.0244
  957MOL0     O26200   3.951  11.529  11.188  0.4927  0.3037 -0.2995
  957MOL0     C26201   3.812  11.514  11.217  0.2005  0.3855 -0.1880
  957MOL0     C26202   3.791  11.534  11.368  0.2858 -0.2391 -0.1600
  957MOL0     C26203   3.798  11.409  11.452  1.1712  0.4000 -0.0562
  957MOL0     C26204   3.742  11.427  11.590 -0.3436  0.8302  1.0430
  957MOL0     C26205   3.655  11.298  11.643 -0.4903 -0.0002 -0.0698
  957MOL0     C26206   3.716  11.160  11.614 -0.3862  0.2810  0.1931
  957MOL0     C26207   3.665  11.040  11.695 -0.3497 -0.4430 -0.0073
  957MOL0     C26208   3.559  10.961  11.621 -0.2646 -0.1683  0.1161
  957MOL0     N26209   3.558  10.828  11.685  0.3519  1.2328  0.7136
  957MOL0     C26210   3.509  10.789  11.807 -0.8472 -0.0432  0.0286
  957MOL0     C26211   3.521  10.659  11.816  0.0051  0.5163 -0.0300
  957MOL0     C26212   3.490  10.576  11.943 -0.2061 -0.1284 -0.5093
  957MOL0     C26213   3.383  10.471  11.924 -0.3534  0.4198 -0.5948
  957MOL0     C26214   3.393  10.357  12.028 -0.1277  0.9352 -1.2835
  957MOL0     C26215   3.529  10.292  12.066  0.5164 -0.0910 -0.5094
  957MOL0     O26216   3.487  10.195  12.170  0.1777  0.0726 -0.1311
  957MOL0     C26217   3.580  10.129  12.244 -0.4239 -0.7246  0.4195
  957MOL0     C26218   3.533  10.069  12.356  0.6231 -0.0939  0.6949
  957MOL0     C26219   3.617   9.973  12.424  0.8301  1.1341  0.4707
  957MOL0     C26220   3.747   9.963  12.387 -0.3645  0.8992 -0.2769
  957MOL0     C26221   3.837   9.870  12.466  0.4745  0.5725  0.8042
  957MOL0     O26222   3.776   9.802  12.576 -0.0398 -0.8153 -0.1267
  957MOL0     C26223   3.864   9.728  12.644 -0.1771  0.1006 -0.0759
  957MOL0     C26224   3.915   9.616  12.584 -0.4384  0.0753 -0.1389
  957MOL0     C26225   3.996   9.525  12.646 -0.3154 -0.8169  0.4421
  957MOL0     C26226   4.040   9.559  12.783  0.5433  0.4281  0.9458
  957MOL0     O26227   4.119   9.487  12.864  0.8120 -0.7792 -0.3185
  957MOL0     C26228   4.188   9.378  12.795 -0.8641 -0.2370  0.7721
  957MOL0     C26229   4.283   9.295  12.896 -0.5206  0.0557 -0.4490
  957MOL0     C26230   4.327   9.385  13.016 -0.3169  0.3035 -0.2049
  957MOL0     C26231   4.446   9.321  13.088  0.5579  0.5948  0.1384
  957MOL0     C26232   4.486   9.406  13.207  1.1066 -0.8922 -0.6743
  957MOL0     C26233   4.607   9.357  13.276 -0.4627 -0.1201  0.7281
  957MOL0     C26234   4.601   9.213  13.339 -0.6870 -0.0819  0.2435
  957MOL0     C26235   4.729   9.190  13.428  0.5069  0.1133  0.4725
  957MOL0    Cl26236   4.695   9.048  13.531  0.5731 -0.2581  0.5731
  957MOL0     C26237   3.992   9.676  12.842 -0.9824  0.1794  1.6531
  957MOL0     C26238   3.908   9.763  12.777 -1.0623  0.7698 -0.0972
  957MOL0     O26239   3.953   9.861  12.430  0.1044 -0.4321  0.0452
  957MOL0     C26240   3.798  10.034  12.270 -0.1542  0.0013 -0.7170
  957MOL0     C26241   3.713  10.118  12.206 -0.4386  0.6453  0.5206
  957MOL0     N26242   3.550  10.606  11.695 -0.2370 -0.4487  0.5188
  957MOL0     N26243   3.582  10.702  11.619  0.4924 -0.0822 -0.0247
  957MOL0     C26244   3.946  11.611  10.957 -1.1070 -0.2317  0.4706
  957MOL0     C26245   3.999  11.593  10.829 -0.1789  0.2702 -0.4791
  957MOL0     C26246   4.094  11.360  10.458 -0.4172  0.3980 -0.5203
  957MOL0     C26247   4.221  11.411  10.425 -0.0432  0.1788  0.7815
  957MOL0     C26248   4.275  11.367  10.306 -0.2663  0.4426  0.0491
  957MOL0     C26249   4.214  11.273  10.226  0.0296 -0.5418 -0.8575
  957MOL0     O26250   4.289  11.220  10.120  0.5078  0.3168  0.0221
  957MOL0     C26251   4.387  11.127  10.143 -0.1878  0.7322  0.0569
  957MOL0     C26252   4.330  10.994  10.213  0.9983 -0.2142 -0.3262
  957MOL0     C26253   4.426  10.872  10.190 -0.2084 -0.4551  0.2474
  957MOL0     C26254   4.386  10.739  10.257  0.9266 -0.4788 -0.8264
  957MOL0     C26255   4.473  10.627  10.222  0.5675  0.5192  0.3602
  957MOL0     C26256   4.548  10.535  10.201  0.6090 -0.6394 -0.3258
  957MOL0     C26257   4.093  11.223  10.267 -0.5337  0.2823  0.2849
  957MOL0     C26258   4.031  11.260  10.383  0.2309 -0.2995 -0.0753
  957MOL0     H26259   4.172  11.310  10.862  0.5096  0.3079 -1.4864
  957MOL0     H26260   4.078  11.320  11.097  0.6320  0.6443  1.4791
  957MOL0     H26261   3.778  11.415  11.186 -0.3583  1.0018 -1.6672
  957MOL0     H26262   3.743  11.579  11.162 -1.7246  0.0077  1.6471
  957MOL0     H26263   3.692  11.574  11.387 -0.6259 -2.6081  0.3956
  957MOL0     H26264   3.869  11.601  11.406 -0.2590 -0.8362  2.1715
  957MOL0     H26265   3.894  11.358  11.463  0.1887 -1.9324 -1.5321
  957MOL0     H26266   3.736  11.334  11.402 -0.8187  1.3282  0.8973
  957MOL0     H26267   3.830  11.437  11.655  1.5757 -2.6228 -0.7323
  957MOL0     H26268   3.674  11.511  11.599 -3.2749 -0.9542 -2.1205
  957MOL0     H26269   3.554  11.298  11.602 -0.3876 -1.9786 -0.3923
  957MOL0     H26270   3.636  11.318  11.749  2.9948  1.1973  0.4914
  957MOL0     H26271   3.816  11.175  11.657  0.1225 -1.9535 -0.0785
  957MOL0     H26272   3.709  11.139  11.506  0.9650 -1.0086  0.3195
  957MOL0     H26273   3.747  10.970  11.713 -0.9744 -1.3705 -0.6862
  957MOL0     H26274   3.643  11.085  11.792 -2.8498  1.2095 -1.2426
  957MOL0     H26275   3.584  10.938  11.517  0.3874 -0.9663  0.4365
  957MOL0     H26276   3.466  11.017  11.630  1.4543  2.7804  1.3551
  957MOL0     H26277   3.475  10.852  11.888  1.8789  1.6381  0.0183
  957MOL0     H26278   3.461  10.638  12.027 -0.9243 -1.8070  0.5397
  957MOL0     H26279   3.588  10.544  11.980  0.9491  3.0709 -0.5356
  957MOL0     H26280   3.388  10.435  11.821 -1.0299  3.4421 -1.7994
  957MOL0     H26281   3.284  10.516  11.941 -0.8229 -1.2542  1.5976
  957MOL0     H26282   3.355  10.396  12.123  1.7517 -0.7887  0.2748
  957MOL0     H26283   3.323  10.277  12.004  0.6819 -0.7186  1.3476
  957MOL0     H26284   3.596  10.370  12.104 -1.7109  2.1459 -0.9169
  957MOL0     H26285   3.572  10.267  11.969 -0.6210  1.6123 -1.5014
  957MOL0     H26286   3.427  10.071  12.380  0.8516 -1.0181  1.8491
  957MOL0     H26287   3.566   9.902  12.489  1.0650 -0.2468 -0.8098
  957MOL0     H26288   3.902   9.606  12.477  1.2720  1.1396 -0.4863
  957MOL0     H26289   4.015   9.441  12.580 -1.6645  0.8656 -2.2776
  957MOL0     H26290   4.262   9.430  12.733 -0.1511 -0.8817  1.0583
  957MOL0     H26291   4.131   9.314  12.726  1.5055  0.0147 -1.6100
  957MOL0     H26292   4.371   9.256  12.845  0.4310  1.5631 -0.0133
  957MOL0     H26293   4.225   9.205  12.920 -0.9932  0.3937 -0.3197
  957MOL0     H26294   4.248   9.404  13.089  0.3615 -0.9140  0.8874
  957MOL0     H26295   4.365   9.476  12.969 -0.4302 -0.0865 -1.0801
  957MOL0     H26296   4.423   9.217  13.112 -0.0605  0.2352 -1.8562
  957MOL0     H26297   4.537   9.326  13.028  2.5647  3.4250  3.0141
  957MOL0     H26298   4.404   9.410  13.280  1.8679 -0.4377  0.1826
  957MOL0     H26299   4.519   9.503  13.169 -1.3978  0.7391  0.9809
  957MOL0     H26300   4.648   9.420  13.355  0.0672 -1.2771  1.3985
  957MOL0     H26301   4.689   9.349  13.205 -0.6159  0.3006  0.4952
  957MOL0     H26302   4.511   9.206  13.401 -1.0222  2.1447  0.1070
  957MOL0     H26303   4.605   9.139  13.258  1.4680 -0.8091  0.9517
  957MOL0     H26304   4.755   9.276  13.491  3.8399 -0.9536  0.7801
  957MOL0     H26305   4.819   9.167  13.369 -0.5118 -0.8336 -0.7640
  957MOL0     H26306   4.031   9.705  12.939  0.9673 -0.2157  1.0345
  957MOL0     H26307   3.893   9.864  12.814  0.4905 -0.3611  4.2953
  957MOL0     H26308   3.902  10.027  12.239  0.4888 -0.6507  1.4064
  957MOL0     H26309   3.748  10.152  12.109  0.9955  1.7307  1.3741
  957MOL0     H26310   3.874  11.692  10.968  0.6013  1.4403 -0.0268
  957MOL0     H26311   3.973  11.666  10.753 -0.0966  2.0836  1.1664
  957MOL0     H26312   4.276  11.478  10.491  1.2032 -0.4870  0.4522
  957MOL0     H26313   4.373  11.399  10.272 -0.2830  1.0351  0.5387
  957MOL0     H26314   4.452  11.172  10.219 -0.5564 -1.0203  1.4751
  957MOL0     H26315   4.444  11.106  10.052 -3.3886 -1.0209 -1.7275
  957MOL0     H26316   4.312  11.013  10.319 -0.4871  2.7960 -1.0094
  957MOL0     H26317   4.235  10.969  10.164  0.6095  0.2713  0.1872
  957MOL0     H26318   4.532  10.897  10.205  0.0706  0.0992 -2.1400
  957MOL0     H26319   4.421  10.846  10.083 -0.2021  3.3728 -0.8358
  957MOL0     H26320   4.402  10.761  10.363  1.2015 -0.5032 -0.8597
  957MOL0     H26321   4.282  10.707  10.248  1.0802 -0.5173 -3.4218
  957MOL0     H26322   4.611  10.450  10.213 -1.5508 -2.1978  0.7926
  957MOL0     H26323   4.043  11.152  10.201 -1.7921  0.8037  0.6374
  957MOL0     H26324   3.937  11.215  10.415  0.4352  2.1338  4.8726
  958MOL0     O26325   8.165   7.488   4.579 -0.1927  0.2387  0.5120
  958MOL0     C26326   8.126   7.373   4.571  0.5634  0.2902  1.0369
  958MOL0     O26327   8.072   7.303   4.670 -0.0689 -0.9369 -0.6867
  958MOL0     C26328   8.085   7.337   4.803  0.1331  0.1151 -0.5973
  958MOL0     C26329   7.987   7.283   4.886 -0.5334 -0.6948  0.4487
  958MOL0     C26330   7.998   7.304   5.025 -0.2885  0.5400 -0.0870
  958MOL0     C26331   8.099   7.369   5.080 -0.2347 -0.1734 -1.4052
  958MOL0     O26332   8.112   7.389   5.217 -0.0823 -0.4040 -0.6178
  958MOL0     C26333   8.114   7.280   5.314  0.2884  0.8400 -0.5436
  958MOL0     C26334   8.178   7.147   5.266 -0.5000 -0.8225  0.4831
  958MOL0     C26335   8.327   7.175   5.245 -0.5987 -0.6903 -0.2269
  958MOL0     C26336   8.417   7.185   5.374  0.2023 -0.1719 -0.3888
  958MOL0     C26337   8.561   7.249   5.337 -0.7320  0.2199 -0.4838
  958MOL0     C26338   8.650   7.244   5.463  0.7136  1.1356 -0.1980
  958MOL0     C26339   8.757   7.129   5.453  0.1928  0.3980  0.0391
  958MOL0     C26340   8.710   6.980   5.475  0.0626 -0.7297  0.6538
  958MOL0     N26341   8.795   6.911   5.578 -0.3517  0.2076  0.3217
  958MOL0     C26342   8.837   6.963   5.700 -0.8832 -0.0861  0.1917
  958MOL0     C26343   8.920   6.865   5.754 -1.0562 -0.5751 -0.0183
  958MOL0     C26344   9.015   6.888   5.868 -0.5927 -0.8906  0.4922
  958MOL0     C26345   9.157   6.922   5.820 -0.3445  0.8938 -0.5550
  958MOL0     C26346   9.228   6.790   5.758 -0.4837  0.0823 -0.6355
  958MOL0     C26347   9.373   6.798   5.758 -0.1148 -0.1039  0.0590
  958MOL0     O26348   9.417   6.922   5.696 -0.0409 -0.2220 -0.5725
  958MOL0     C26349   9.523   6.930   5.609  0.0961  0.5622  0.5893
  958MOL0     C26350   9.550   7.057   5.554  0.8726  0.6060  1.0181
  958MOL0     C26351   9.633   7.067   5.447  0.1894 -0.2204  0.1189
  958MOL0     C26352   9.692   6.959   5.387 -0.6352  0.0114  0.6535
  958MOL0     C26353   9.785   6.971   5.272  0.2586  0.0298 -0.6099
  958MOL0     O26354   9.862   6.865   5.240 -0.2868 -0.3239 -0.1854
  958MOL0     C26355   9.951   6.866   5.134 -0.6320  1.1643  0.6555
  958MOL0     C26356  10.077   6.921   5.149 -0.1619 -0.1908  0.2445
  958MOL0     C26357  10.164   6.946   5.041  0.5416  0.3131  0.2174
  958MOL0     C26358  10.128   6.893   4.913 -0.4660  0.4371  1.1675
  958MOL0     O26359  10.214   6.917   4.805 -0.0578  0.2041 -0.4693
  958MOL0     C26360  10.196   6.861   4.681 -0.7251  0.0828 -0.2332
  958MOL0     C26361  10.220   6.712   4.673  0.7200 -0.0955  0.3564
  958MOL0     C26362  10.187   6.666   4.532  0.2709  0.6071  0.2589
  958MOL0     C26363  10.189   6.516   4.511 -0.6319 -1.1001 -1.2348
  958MOL0     C26364  10.185   6.484   4.357 -0.0067 -0.0460  0.9068
  958MOL0     C26365  10.226   6.347   4.332  0.0576  0.4799  1.1428
  958MOL0     C26366  10.380   6.327   4.343 -0.1767 -0.1522  0.3419
  958MOL0     C26367  10.433   6.194   4.282  1.0082  0.4901 -0.2790
  958MOL0    Cl26368  10.449   6.061   4.396  0.0137 -0.4038 -0.4858
  958MOL0     C26369   9.994   6.838   4.894 -0.3646 -0.7180 -0.3700
  958MOL0     C26370   9.914   6.821   5.001  0.0726  0.1087 -0.3880
  958MOL0     O26371   9.780   7.076   5.213  0.6600  0.1404 -0.0984
  958MOL0     C26372   9.678   6.833   5.444  0.0498  0.1426 -0.7415
  958MOL0     C26373   9.594   6.820   5.557  0.2476  0.5157  0.7621
  958MOL0     N26374   8.920   6.761   5.668 -1.0724  0.1124  0.7263
  958MOL0     N26375   8.847   6.785   5.568 -0.0032  0.0410  0.4378
  958MOL0     C26376   8.201   7.414   4.997  0.6868 -0.2182  0.5145
  958MOL0     C26377   8.188   7.406   4.862  1.2506  1.4592  0.4261
  958MOL0     C26378   8.143   7.316   4.435 -0.0272  0.7515  0.5790
  958MOL0     C26379   8.169   7.395   4.319 -0.1716 -0.3120  0.0224
  958MOL0     C26380   8.189   7.343   4.186  0.9683  0.2064  0.1397
  958MOL0     C26381   8.170   7.202   4.166 -1.7316 -0.2826  0.1382
  958MOL0     O26382   8.196   7.132   4.052  0.0106  0.5097 -0.2303
  958MOL0     C26383   8.143   7.182   3.936 -0.0520 -0.9501 -0.6466
  958MOL0     C26384   8.000   7.217   3.930 -0.4267 -0.1669  0.5523
  958MOL0     C26385   7.897   7.098   3.922 -0.2510  0.2790 -0.3338
  958MOL0     C26386   7.753   7.128   3.862 -0.2893  0.0195  0.4496
  958MOL0     C26387   7.675   7.005   3.862 -0.0663  0.1726  0.4106
  958MOL0     C26388   7.602   6.910   3.890 -0.0383 -0.1107  0.0792
  958MOL0     C26389   8.145   7.122   4.279  0.2114 -0.0198 -0.2591
  958MOL0     C26390   8.128   7.178   4.406 -0.5226 -0.5076  0.9204
  958MOL0     H26391   7.903   7.238   4.834 -2.2284 -0.5521  2.8827
  958MOL0     H26392   7.912   7.278   5.086 -1.0835  0.8632 -1.0398
  958MOL0     H26393   8.009   7.258   5.339  0.7635  2.4027  3.4030
  958MOL0     H26394   8.153   7.304   5.413  1.9996  0.7483 -1.1710
  958MOL0     H26395   8.125   7.112   5.177  2.3870 -2.6239 -0.6820
  958MOL0     H26396   8.154   7.062   5.331  0.4931 -1.8752 -0.4868
  958MOL0     H26397   8.338   7.259   5.175 -0.5556 -1.8335 -1.6273
  958MOL0     H26398   8.371   7.104   5.175  0.2285 -0.1870 -0.2284
  958MOL0     H26399   8.359   7.258   5.432 -1.2712 -0.4040 -1.4932
  958MOL0     H26400   8.421   7.099   5.442  1.7809  1.6033  1.9253
  958MOL0     H26401   8.545   7.354   5.313 -2.5386  0.0216 -0.3006
  958MOL0     H26402   8.616   7.209   5.252  3.7558  3.9223  0.3153
  958MOL0     H26403   8.598   7.234   5.559  2.5299  3.5833  1.1516
  958MOL0     H26404   8.694   7.344   5.473 -0.2205  1.8492 -2.4743
  958MOL0     H26405   8.789   7.136   5.349  1.6988  3.3830  0.5915
  958MOL0     H26406   8.837   7.153   5.524  1.6474 -0.5068 -1.2388
  958MOL0     H26407   8.712   6.927   5.379  2.0449  1.2971 -0.5153
  958MOL0     H26408   8.608   6.991   5.511  0.1365  1.6152  0.2523
  958MOL0     H26409   8.838   7.064   5.738 -2.4671  0.2038 -0.4844
  958MOL0     H26410   9.024   6.801   5.934 -0.7435 -2.0206 -0.9217
  958MOL0     H26411   8.982   6.979   5.918  1.6377  1.2285 -1.6219
  958MOL0     H26412   9.218   6.954   5.905 -0.8538 -0.8459  0.5166
  958MOL0     H26413   9.164   7.005   5.748  1.4648  0.1466 -1.3296
  958MOL0     H26414   9.204   6.704   5.820  2.4577  0.9785  1.9853
  958MOL0     H26415   9.179   6.779   5.660 -1.7077 -0.6003  0.0297
  958MOL0     H26416   9.396   6.709   5.699  0.6321 -0.1946  0.4754
  958MOL0     H26417   9.409   6.782   5.860  0.5013 -1.7995 -0.3830
  958MOL0     H26418   9.491   7.142   5.588 -0.3980  1.2378 -2.3896
  958MOL0     H26419   9.637   7.163   5.396  2.7041  0.9289  2.2171
  958MOL0     H26420  10.119   6.945   5.246  1.7122  0.2256 -0.6325
  958MOL0     H26421  10.249   7.012   5.059  0.2707  1.2564 -1.6783
  958MOL0     H26422  10.273   6.901   4.614 -4.0493  1.8832 -3.3137
  958MOL0     H26423  10.102   6.898   4.641 -1.4652  0.3297  1.6201
  958MOL0     H26424  10.156   6.650   4.736 -1.0036  0.2748 -0.9202
  958MOL0     H26425  10.326   6.700   4.693  0.4352 -0.0727  2.0291
  958MOL0     H26426  10.260   6.705   4.461  1.3279 -0.9873  0.4245
  958MOL0     H26427  10.094   6.709   4.494 -1.9534 -1.4918  2.9203
  958MOL0     H26428  10.287   6.491   4.553 -0.7668 -0.0524 -0.2619
  958MOL0     H26429  10.102   6.473   4.560 -2.5229  3.3169 -0.2068
  958MOL0     H26430  10.267   6.536   4.307 -0.2210 -1.1741 -0.6968
  958MOL0     H26431  10.086   6.499   4.314  0.0557  2.0492  1.3917
  958MOL0     H26432  10.197   6.324   4.229  4.9018  0.1338 -0.4332
  958MOL0     H26433  10.181   6.280   4.406  0.6290  0.7157  1.7158
  958MOL0     H26434  10.439   6.410   4.303 -1.7255 -0.7618 -3.6330
  958MOL0     H26435  10.407   6.312   4.448  1.3034 -0.4462 -0.0571
  958MOL0     H26436  10.537   6.221   4.260  0.0920  3.3973 -1.5202
  958MOL0     H26437  10.388   6.157   4.189 -2.0100  2.3418  0.3326
  958MOL0     H26438   9.955   6.813   4.796  1.3038  2.0296 -1.8778
  958MOL0     H26439   9.823   6.764   4.985 -0.3806  1.6068 -4.2874
  958MOL0     H26440   9.737   6.750   5.407  1.1132 -0.2238  1.6327
  958MOL0     H26441   9.586   6.719   5.598 -3.4256  0.0333 -0.6750
  958MOL0     H26442   8.288   7.462   5.041 -0.1144 -0.0656  2.0017
  958MOL0     H26443   8.266   7.439   4.793  1.8765 -1.8598 -0.6265
  958MOL0     H26444   8.184   7.502   4.321 -0.3295 -0.2965  0.3696
  958MOL0     H26445   8.230   7.402   4.105  1.8274 -0.1810  0.2728
  958MOL0     H26446   8.154   7.118   3.848  2.2557 -1.7091  0.1195
  958MOL0     H26447   8.202   7.269   3.905 -0.2826 -0.1706  0.9974
  958MOL0     H26448   7.970   7.282   4.013 -3.3450  3.2104 -2.7571
  958MOL0     H26449   7.990   7.286   3.846  2.6081  2.7068  2.3491
  958MOL0     H26450   7.886   7.055   4.022  2.7701 -0.4879 -0.2418
  958MOL0     H26451   7.954   7.021   3.871  3.1807  1.4146  1.5023
  958MOL0     H26452   7.694   7.200   3.918 -1.8261  1.5818 -2.9127
  958MOL0     H26453   7.765   7.152   3.756 -1.3532 -6.3393 -1.5825
  958MOL0     H26454   7.533   6.838   3.931 -2.1181  2.3811  1.2643
  958MOL0     H26455   8.125   7.015   4.268  2.5978 -0.9529  2.9568
  958MOL0     H26456   8.106   7.098   4.476  0.6455 -0.3125  1.5258
  959MOL0     O26457   3.965   6.018   1.590  0.5033 -0.0716  0.0245
  959MOL0     C26458   3.900   6.029   1.491 -0.1032 -0.2121 -0.1806
  959MOL0     O26459   3.774   5.978   1.469  0.3630 -0.0279  0.2249
  959MOL0     C26460   3.702   5.941   1.581 -0.2207  0.1648  0.2896
  959MOL0     C26461   3.668   6.019   1.694  0.3669  0.0035  0.4178
  959MOL0     C26462   3.600   5.969   1.805  0.6306 -0.0086  0.1754
  959MOL0     C26463   3.545   5.833   1.798 -0.1994  0.4778  0.1001
  959MOL0     O26464   3.478   5.763   1.892  0.4933  0.5637 -0.5964
  959MOL0     C26465   3.538   5.765   2.020 -0.1757  0.9231  0.3473
  959MOL0     C26466   3.673   5.678   2.035 -0.3205 -0.8560 -0.2324
  959MOL0     C26467   3.744   5.701   2.165 -0.1917 -0.4273  0.4972
  959MOL0     C26468   3.860   5.605   2.194  0.4089 -0.4798 -0.2806
  959MOL0     C26469   3.915   5.608   2.339 -0.3278 -0.7462 -0.3507
  959MOL0     C26470   3.988   5.475   2.368  1.9838  0.1542  0.3718
  959MOL0     C26471   4.083   5.494   2.487 -1.0985 -0.0326 -0.1356
  959MOL0     C26472   4.120   5.354   2.555  0.5718  0.0533  0.5421
  959MOL0     N26473   4.254   5.362   2.618 -0.2241  0.5775 -0.2877
  959MOL0     C26474   4.323   5.250   2.651 -0.9771  0.4982 -0.0620
  959MOL0     C26475   4.441   5.287   2.703 -0.2789 -0.7103 -0.0055
  959MOL0     C26476   4.557   5.208   2.755 -0.1085 -0.0193 -0.2727
  959MOL0     C26477   4.677   5.298   2.788  0.4697 -0.0355  0.5948
  959MOL0     C26478   4.787   5.220   2.853 -0.1580 -0.8777 -0.2681
  959MOL0     C26479   4.859   5.299   2.959 -0.2285 -0.9533  0.7742
  959MOL0     O26480   4.967   5.226   3.026 -0.9787 -1.2053 -0.2029
  959MOL0     C26481   5.020   5.281   3.142 -0.0685 -1.3457 -0.0014
  959MOL0     C26482   5.107   5.207   3.222  0.0460  0.0539  0.1837
  959MOL0     C26483   5.125   5.237   3.359 -0.6008 -0.2696 -0.2435
  959MOL0     C26484   5.063   5.360   3.413 -0.3805  0.4338  0.1140
  959MOL0     C26485   5.086   5.404   3.549  0.1320 -0.7161 -0.7223
  959MOL0     O26486   5.003   5.501   3.590 -0.3647 -0.1837 -0.2063
  959MOL0     C26487   5.010   5.537   3.720 -0.3280 -0.6091  0.2888
  959MOL0     C26488   5.007   5.673   3.747  0.3594  0.2464  0.3339
  959MOL0     C26489   5.019   5.719   3.874 -0.1407 -0.7752 -0.4013
  959MOL0     C26490   5.037   5.623   3.979 -0.5210 -0.5973 -0.4706
  959MOL0     O26491   5.055   5.656   4.111 -0.0263 -0.4882  0.2867
  959MOL0     C26492   5.018   5.785   4.155  0.3860  0.9204 -0.7281
  959MOL0     C26493   4.982   5.765   4.298 -0.3075  0.2772 -0.4674
  959MOL0     C26494   4.840   5.701   4.314  1.0019  0.1074  0.8319
  959MOL0     C26495   4.796   5.633   4.444  0.2583  0.2880  1.2347
  959MOL0     C26496   4.646   5.664   4.480 -0.2777  0.4623 -0.0378
  959MOL0     C26497   4.618   5.801   4.547  0.0864 -0.3510 -0.1524
  959MOL0     C26498   4.467   5.813   4.577  1.0968  0.1354  0.6619
  959MOL0     C26499   4.428   5.730   4.699 -0.5877 -0.5468  1.0976
  959MOL0    Cl26500   4.260   5.754   4.749 -0.7237  0.0918  0.5124
  959MOL0     C26501   5.037   5.490   3.958  0.9817 -0.5914  0.5311
  959MOL0     C26502   5.018   5.448   3.821 -0.6072 -0.2201  0.1206
  959MOL0     O26503   5.183   5.356   3.613 -1.0155  0.0897  0.2215
  959MOL0     C26504   4.983   5.437   3.329  0.1143  0.4967 -0.3440
  959MOL0     C26505   4.983   5.403   3.198  0.0526 -0.4070  0.6124
  959MOL0     N26506   4.434   5.426   2.715  1.2180  0.7109 -0.1643
  959MOL0     N26507   4.319   5.470   2.667  0.3512 -0.2854  0.3781
  959MOL0     C26508   3.570   5.763   1.680  1.1125 -0.2365 -0.3853
  959MOL0     C26509   3.636   5.818   1.570 -0.4053 -0.1830 -0.3701
  959MOL0     C26510   3.959   6.077   1.376 -0.8336 -0.3052 -0.0366
  959MOL0     C26511   3.934   6.024   1.247  0.5083 -0.2803 -0.1975
  959MOL0     C26512   4.001   6.090   1.137  0.7328 -0.8160 -0.8190
  959MOL0     C26513   4.109   6.173   1.139  0.4665 -0.0609  0.1712
  959MOL0     O26514   4.184   6.210   1.027  0.6103  0.7840  0.2651
  959MOL0     C26515   4.126   6.314   0.954  0.0604 -0.0128 -0.4005
  959MOL0     C26516   4.222   6.379   0.857 -0.4240  0.6222  0.2217
  959MOL0     C26517   4.232   6.314   0.720  0.4953  0.3532 -0.2972
  959MOL0     C26518   4.281   6.394   0.596 -0.0048 -0.1864  0.1426
  959MOL0     C26519   4.418   6.436   0.602 -0.1486 -0.2276 -0.2934
  959MOL0     C26520   4.535   6.469   0.622 -0.8657 -0.0423  0.4760
  959MOL0     C26521   4.152   6.203   1.268 -0.4590 -0.3757  0.9558
  959MOL0     C26522   4.080   6.161   1.380  0.1078 -0.3182  0.1374
  959MOL0     H26523   3.714   6.117   1.701  0.0344  0.1194  1.1135
  959MOL0     H26524   3.577   6.027   1.894 -0.0590 -1.5107  1.0241
  959MOL0     H26525   3.467   5.727   2.094  0.8014 -1.2890  0.2332
  959MOL0     H26526   3.557   5.868   2.050 -0.4281  2.0876 -3.0262
  959MOL0     H26527   3.744   5.701   1.954 -0.5733  0.4867 -0.0943
  959MOL0     H26528   3.641   5.574   2.027 -0.1889 -0.7545 -3.3252
  959MOL0     H26529   3.665   5.682   2.239 -1.4965  3.6855  0.4229
  959MOL0     H26530   3.766   5.808   2.173  0.2401 -0.4708 -0.0726
  959MOL0     H26531   3.831   5.502   2.170 -0.1180 -0.2946 -0.4473
  959MOL0     H26532   3.939   5.627   2.122  1.4047 -1.6601  0.4033
  959MOL0     H26533   3.829   5.615   2.406 -2.2428 -2.1228 -2.5057
  959MOL0     H26534   3.979   5.694   2.360 -1.7578 -0.1153  1.6925
  959MOL0     H26535   4.039   5.451   2.274 -2.6186  0.3457 -2.4890
  959MOL0     H26536   3.914   5.397   2.387  2.5789 -0.6503 -0.5013
  959MOL0     H26537   4.172   5.552   2.464 -3.4682  2.4395 -4.3189
  959MOL0     H26538   4.035   5.562   2.558  0.2354  0.2049  0.5700
  959MOL0     H26539   4.126   5.280   2.475 -1.6805 -0.2619  0.5960
  959MOL0     H26540   4.042   5.324   2.626  1.0898 -0.0283  1.0864
  959MOL0     H26541   4.306   5.142   2.653  4.1769 -0.5908  0.3905
  959MOL0     H26542   4.582   5.132   2.680  0.7296  0.1960 -0.2226
  959MOL0     H26543   4.527   5.150   2.843  3.9571 -0.3009  1.1374
  959MOL0     H26544   4.648   5.380   2.855  0.8355  1.2669 -0.7968
  959MOL0     H26545   4.707   5.342   2.693 -0.7237 -0.1457  0.1439
  959MOL0     H26546   4.745   5.125   2.889 -1.7489  0.0267  0.3653
  959MOL0     H26547   4.864   5.198   2.779  1.6481 -0.6931  1.4700
  959MOL0     H26548   4.787   5.336   3.033 -1.3121 -1.6361  0.0802
  959MOL0     H26549   4.896   5.391   2.911 -5.4787  0.6830 -0.8426
  959MOL0     H26550   5.148   5.108   3.207  0.3721 -0.1256  1.9976
  959MOL0     H26551   5.186   5.179   3.428 -1.7098  0.9681  1.8706
  959MOL0     H26552   4.978   5.742   3.669  0.6530 -1.0066 -0.9485
  959MOL0     H26553   5.025   5.825   3.896  1.8413 -0.2347 -3.0339
  959MOL0     H26554   4.939   5.823   4.090  0.0080 -0.0462 -0.8544
  959MOL0     H26555   5.105   5.851   4.149 -0.7734  2.4208 -1.6910
  959MOL0     H26556   4.982   5.853   4.363  0.2005 -2.8191  4.2104
  959MOL0     H26557   5.056   5.700   4.345 -3.8132 -2.6290  1.6035
  959MOL0     H26558   4.831   5.627   4.235  0.6274 -0.1135  1.0778
  959MOL0     H26559   4.780   5.788   4.285  3.4648  1.3604 -0.8456
  959MOL0     H26560   4.806   5.524   4.434 -0.4947  0.0505  2.8648
  959MOL0     H26561   4.854   5.657   4.533 -1.1712 -0.6051  2.4418
  959MOL0     H26562   4.616   5.589   4.554  1.4976  1.1050  1.4432
  959MOL0     H26563   4.582   5.665   4.392 -0.8480  1.8894  0.3700
  959MOL0     H26564   4.658   5.887   4.494 -2.7957  0.1377 -1.7549
  959MOL0     H26565   4.670   5.803   4.643 -0.4007  2.5311  0.1232
  959MOL0     H26566   4.440   5.917   4.597 -0.6651  0.0842 -1.1277
  959MOL0     H26567   4.421   5.795   4.479  2.3188 -2.7444  0.5085
  959MOL0     H26568   4.494   5.751   4.783  0.2442 -3.0217  1.1416
  959MOL0     H26569   4.441   5.625   4.671 -3.3011  0.0093 -3.2284
  959MOL0     H26570   5.058   5.414   4.033 -1.5669  0.7947  2.8032
  959MOL0     H26571   5.032   5.341   3.809 -1.7079 -0.2725 -0.9914
  959MOL0     H26572   4.925   5.523   3.360  0.5492  1.5234 -2.2510
  959MOL0     H26573   4.930   5.478   3.140  0.6824  0.1045  0.6988
  959MOL0     H26574   3.542   5.658   1.672  1.6462 -0.3697 -0.5742
  959MOL0     H26575   3.642   5.757   1.481  0.3785 -2.7442  1.2968
  959MOL0     H26576   3.852   5.956   1.226  1.0250 -0.9483 -0.0669
  959MOL0     H26577   3.970   6.061   1.037  0.5305  2.1318 -1.7239
  959MOL0     H26578   4.087   6.389   1.024  1.9866 -0.4275  1.1918
  959MOL0     H26579   4.042   6.276   0.895 -0.6669  0.7616  0.1036
  959MOL0     H26580   4.191   6.481   0.832  0.4995  1.1185  1.0355
  959MOL0     H26581   4.328   6.393   0.882  0.5280  4.2170 -4.2823
  959MOL0     H26582   4.134   6.277   0.689  0.3491 -0.6406  1.2188
  959MOL0     H26583   4.301   6.230   0.737  0.8215  0.8157  0.7458
  959MOL0     H26584   4.271   6.343   0.500 -1.3308  0.5884 -0.1583
  959MOL0     H26585   4.216   6.481   0.602  0.5455  0.1460  2.1536
  959MOL0     H26586   4.627   6.521   0.641 -2.4977  2.6636  1.5899
  959MOL0     H26587   4.246   6.253   1.290 -0.2240 -1.1623  1.8077
  959MOL0     H26588   4.121   6.188   1.476 -3.1883  1.0053  1.3226
  960MOL0     O26589   7.727   8.061   1.512 -0.0481 -0.3250  0.2475
  960MOL0     C26590   7.836   8.010   1.501 -1.0667 -0.2749  1.8825
  960MOL0     O26591   7.865   7.889   1.435 -0.2423 -0.2036  0.9838
  960MOL0     C26592   7.775   7.783   1.423 -0.1151  0.2382  0.7691
  960MOL0     C26593   7.682   7.754   1.519 -1.3409  0.4686  0.3125
  960MOL0     C26594   7.614   7.629   1.507 -0.6782 -0.2018 -0.0129
  960MOL0     C26595   7.615   7.549   1.393  0.5944  0.8982  0.6930
  960MOL0     O26596   7.551   7.430   1.364 -0.0023  0.1947  0.6150
  960MOL0     C26597   7.475   7.372   1.472  0.4918 -0.6257 -0.7306
  960MOL0     C26598   7.373   7.274   1.414  0.1060 -0.4693  0.1507
  960MOL0     C26599   7.440   7.154   1.347 -0.6958 -0.5579  0.8452
  960MOL0     C26600   7.354   7.038   1.302 -0.0011  0.2442  0.6982
  960MOL0     C26601   7.267   7.080   1.189  0.1749  0.0004  0.2089
  960MOL0     C26602   7.163   6.976   1.149 -0.2880  0.4940  0.1173
  960MOL0     C26603   7.073   7.027   1.028  0.3103  0.1294  0.2887
  960MOL0     C26604   7.130   7.009   0.886  0.2783 -0.5041 -0.0866
  960MOL0     N26605   7.038   7.073   0.788  0.6985  0.1694 -0.2671
  960MOL0     C26606   6.983   7.202   0.786 -0.5122  0.1755 -0.0836
  960MOL0     C26607   6.887   7.201   0.692  0.0825 -0.5897  0.3927
  960MOL0     C26608   6.801   7.315   0.657  1.2992  0.8569  0.9492
  960MOL0     C26609   6.718   7.382   0.776  0.2342 -0.2143 -0.6416
  960MOL0     C26610   6.592   7.303   0.794 -0.4951 -0.4544  0.1230
  960MOL0     C26611   6.488   7.363   0.700 -0.3470 -0.4663 -0.0375
  960MOL0     O26612   6.352   7.327   0.733  0.5585  0.2399  0.6005
  960MOL0     C26613   6.265   7.325   0.628 -0.6622 -1.0106  1.3351
  960MOL0     C26614   6.276   7.390   0.497 -0.8235 -0.1016  0.0530
  960MOL0     C26615   6.182   7.369   0.402  1.1020 -0.4441 -0.8346
  960MOL0     C26616   6.054   7.304   0.432 -0.3028 -0.1841  0.4101
  960MOL0     C26617   5.942   7.305   0.328 -0.6347 -0.7175 -0.6163
  960MOL0     O26618   5.969   7.385   0.215  0.1430  0.2754  0.6220
  960MOL0     C26619   5.864   7.384   0.122 -0.2205 -0.8890  0.3224
  960MOL0     C26620   5.791   7.277   0.077  0.1398 -0.9352  0.6136
  960MOL0     C26621   5.706   7.298  -0.032  0.9815 -0.9290 -0.4370
  960MOL0     C26622   5.713   7.414  -0.114  0.9630  0.2349 -0.0206
  960MOL0     O26623   5.638   7.439  -0.227 -0.0757  0.3976 -0.9218
  960MOL0     C26624   5.621   7.316  -0.298  0.0602 -0.4036  0.2219
  960MOL0     C26625   5.612   7.354  -0.446  1.1453 -0.2306  0.2855
  960MOL0     C26626   5.494   7.438  -0.493  0.0978  0.2424 -0.3851
  960MOL0     C26627   5.382   7.454  -0.387  0.6748  0.6431  1.2504
  960MOL0     C26628   5.280   7.560  -0.428 -0.1096 -1.4588  0.9908
  960MOL0     C26629   5.216   7.537  -0.568  0.1782 -1.0527 -0.0609
  960MOL0     C26630   5.104   7.624  -0.612 -0.3925 -0.0323 -0.9330
  960MOL0     C26631   4.974   7.624  -0.532 -0.0140  0.3594  0.4825
  960MOL0    Cl26632   5.005   7.732  -0.405  0.3442  0.2946  0.2678
  960MOL0     C26633   5.796   7.518  -0.069 -0.3977 -0.4540 -1.2579
  960MOL0     C26634   5.864   7.500   0.050  0.5643  0.6479  0.6172
  960MOL0     O26635   5.842   7.249   0.350  0.0778  0.1869 -0.9343
  960MOL0     C26636   6.051   7.239   0.550  0.1872 -0.5369 -0.6321
  960MOL0     C26637   6.148   7.254   0.646  0.8935 -0.9539 -0.1688
  960MOL0     N26638   6.905   7.087   0.621 -0.5717  0.1923  0.7687
  960MOL0     N26639   6.980   7.008   0.679 -0.1644  0.4808 -0.2629
  960MOL0     C26640   7.693   7.594   1.289  0.0026 -0.2623 -0.0682
  960MOL0     C26641   7.773   7.710   1.306 -0.1294 -0.5533  0.2787
  960MOL0     C26642   7.946   8.082   1.564 -1.1314  0.6944 -1.2790
  960MOL0     C26643   8.060   8.013   1.614  0.3300  0.2176  0.4194
  960MOL0     C26644   8.158   8.081   1.693 -0.3127 -0.1055  0.6080
  960MOL0     C26645   8.175   8.218   1.697  0.3707 -0.5169 -0.0851
  960MOL0     O26646   8.293   8.262   1.730 -0.4221  1.0525 -0.2858
  960MOL0     C26647   8.321   8.399   1.694  0.0850 -0.2799  0.2233
  960MOL0     C26648   8.263   8.507   1.799  0.5839  0.1275 -0.1320
  960MOL0     C26649   8.370   8.589   1.863  0.4058 -0.0866  0.4199
  960MOL0     C26650   8.300   8.685   1.974  0.8979 -0.3580 -0.0812
  960MOL0     C26651   8.248   8.813   1.909 -0.3049  0.9616 -1.2269
  960MOL0     C26652   8.203   8.910   1.850 -0.3110  0.4147  0.8244
  960MOL0     C26653   8.064   8.290   1.646 -0.7007  0.6916  0.6397
  960MOL0     C26654   7.955   8.217   1.589  0.3819 -0.1786  1.1912
  960MOL0     H26655   7.702   7.800   1.615 -3.6333  2.1248  0.0618
  960MOL0     H26656   7.545   7.606   1.588  0.2609 -2.7374  0.1362
  960MOL0     H26657   7.414   7.454   1.511  1.3984 -0.3789  0.2034
  960MOL0     H26658   7.541   7.335   1.551  1.2191  0.3790 -0.8359
  960MOL0     H26659   7.329   7.336   1.335 -1.5993 -0.7355  0.8510
  960MOL0     H26660   7.293   7.240   1.481 -1.6102 -0.6183 -1.8703
  960MOL0     H26661   7.511   7.105   1.414 -0.3494  0.7018  1.4184
  960MOL0     H26662   7.502   7.177   1.260  0.3256 -3.3798  0.7285
  960MOL0     H26663   7.423   6.955   1.282 -0.7173  0.2682 -2.4237
  960MOL0     H26664   7.290   6.999   1.381  1.2092 -2.4683  0.4643
  960MOL0     H26665   7.332   7.101   1.104 -0.0392 -1.1790 -0.2727
  960MOL0     H26666   7.220   7.169   1.231  0.3136  0.5880 -0.8524
  960MOL0     H26667   7.103   6.934   1.230  1.5950 -3.3520 -0.2750
  960MOL0     H26668   7.206   6.884   1.108  1.7461  1.7395 -0.7152
  960MOL0     H26669   6.975   6.979   1.033 -0.3595  1.5843  2.4138
  960MOL0     H26670   7.042   7.130   1.043  4.6970  1.8144 -0.5439
  960MOL0     H26671   7.130   6.902   0.863 -1.8602 -0.2266 -1.6716
  960MOL0     H26672   7.232   7.042   0.864 -0.0472 -1.1676 -3.0887
  960MOL0     H26673   7.006   7.291   0.844 -2.9383  2.4270 -2.3298
  960MOL0     H26674   6.731   7.286   0.578  0.3905  1.5054  1.4971
  960MOL0     H26675   6.859   7.394   0.609  1.5708  0.0793 -0.0295
  960MOL0     H26676   6.708   7.486   0.746  0.4280  0.8697  2.6802
  960MOL0     H26677   6.782   7.384   0.865 -2.7701 -3.7257  1.9336
  960MOL0     H26678   6.609   7.199   0.766 -0.8025 -0.0625 -1.6943
  960MOL0     H26679   6.555   7.320   0.895  1.7774 -0.4491  1.0055
  960MOL0     H26680   6.510   7.326   0.600 -2.4666 -2.4459  0.1518
  960MOL0     H26681   6.501   7.472   0.693 -0.4486 -0.5151 -1.1544
  960MOL0     H26682   6.362   7.449   0.466 -0.4687 -0.9352 -0.5922
  960MOL0     H26683   6.190   7.403   0.299  2.1571 -0.9778 -0.9397
  960MOL0     H26684   5.795   7.179   0.124  0.5802 -1.5649 -0.7052
  960MOL0     H26685   5.629   7.230  -0.067 -1.0926  2.0896 -2.1715
  960MOL0     H26686   5.523   7.275  -0.270 -1.0969  1.1492 -1.3155
  960MOL0     H26687   5.701   7.242  -0.291  1.2111  0.6214 -1.5013
  960MOL0     H26688   5.601   7.252  -0.482  2.1894 -0.7033  1.2603
  960MOL0     H26689   5.709   7.389  -0.482  1.8270  0.9795  3.0135
  960MOL0     H26690   5.461   7.401  -0.591 -1.5240  1.4370 -0.3357
  960MOL0     H26691   5.536   7.537  -0.515 -0.4185 -0.1237 -3.4779
  960MOL0     H26692   5.315   7.370  -0.368  0.2572  0.8025  0.4934
  960MOL0     H26693   5.418   7.483  -0.288  0.5462 -0.4817  1.6394
  960MOL0     H26694   5.326   7.659  -0.421 -0.8237 -1.0364 -0.0503
  960MOL0     H26695   5.191   7.576  -0.367 -2.5603 -0.3593 -2.5533
  960MOL0     H26696   5.182   7.434  -0.581 -2.1073 -0.5398  1.2084
  960MOL0     H26697   5.299   7.565  -0.634  0.8701  2.2740  1.9863
  960MOL0     H26698   5.142   7.726  -0.611  2.0265 -0.8244  1.1534
  960MOL0     H26699   5.079   7.585  -0.711 -1.2486  1.8565 -1.4863
  960MOL0     H26700   4.959   7.520  -0.500  2.1720  0.3273  1.5415
  960MOL0     H26701   4.895   7.658  -0.599 -1.3128 -3.8011 -0.4228
  960MOL0     H26702   5.789   7.615  -0.118  1.1723  1.4346  1.9525
  960MOL0     H26703   5.925   7.579   0.092 -0.8833  1.5876  1.0451
  960MOL0     H26704   5.959   7.188   0.576  0.3814 -1.9342 -2.4476
  960MOL0     H26705   6.143   7.206   0.743  0.5811 -1.1175 -0.2658
  960MOL0     H26706   7.689   7.538   1.196 -0.8503  1.1946 -0.9609
  960MOL0     H26707   7.831   7.756   1.227  1.2723 -0.5549  1.2807
  960MOL0     H26708   8.074   7.907   1.594 -1.7801  0.3299 -2.2584
  960MOL0     H26709   8.238   8.012   1.720 -1.4515 -2.0721 -0.7962
  960MOL0     H26710   8.302   8.430   1.590 -1.2967 -1.7480  0.0082
  960MOL0     H26711   8.429   8.409   1.708 -0.1772  1.4272  1.3038
  960MOL0     H26712   8.196   8.569   1.741  0.4244 -0.3157 -0.4260
  960MOL0     H26713   8.217   8.451   1.881 -1.0649  2.4436  0.6164
  960MOL0     H26714   8.417   8.642   1.780 -1.4555 -3.4148 -3.1151
  960MOL0     H26715   8.446   8.533   1.918 -1.3595 -3.1046  0.0339
  960MOL0     H26716   8.217   8.646   2.033  0.9491 -0.6535 -0.2050
  960MOL0     H26717   8.366   8.722   2.053 -0.8088  1.6715  0.4802
  960MOL0     H26718   8.173   9.000   1.799 -1.2468 -1.0769 -1.3682
  960MOL0     H26719   8.053   8.396   1.626 -5.9409 -0.1847 -3.3103
  960MOL0     H26720   7.869   8.275   1.555  0.1727  0.6687  3.0619
  961MOL0     O26721   9.318   5.036   8.466  0.7656  0.2559 -0.1442
  961MOL0     C26722   9.323   5.046   8.584 -0.1708 -0.0058 -0.6984
  961MOL0     O26723   9.254   4.970   8.671 -0.5214  0.2535  0.5542
  961MOL0     C26724   9.175   4.873   8.630 -0.9760  0.2302 -0.1603
  961MOL0     C26725   9.036   4.894   8.637 -0.4236 -0.2766  0.8923
  961MOL0     C26726   8.945   4.802   8.587 -0.2789  0.6372 -0.6272
  961MOL0     C26727   8.994   4.672   8.548 -0.3171 -0.2415  0.9864
  961MOL0     O26728   8.910   4.589   8.488 -0.0504  0.3722 -0.0798
  961MOL0     C26729   8.897   4.471   8.572 -0.3437 -0.1435  0.2223
  961MOL0     C26730   8.747   4.425   8.581  0.0464 -0.3925  0.0295
  961MOL0     C26731   8.684   4.502   8.699  0.5938 -0.5028 -0.2417
  961MOL0     C26732   8.540   4.457   8.732 -0.2248 -0.2209  0.8477
  961MOL0     C26733   8.431   4.503   8.633 -0.0499  0.8554 -0.8270
  961MOL0     C26734   8.434   4.657   8.615  0.1722 -0.6389  0.5034
  961MOL0     C26735   8.301   4.704   8.539 -0.3302  0.2087  0.2781
  961MOL0     C26736   8.294   4.675   8.385  0.1510  0.7491 -0.5879
  961MOL0     N26737   8.403   4.738   8.319  0.7964 -0.6102 -0.5944
  961MOL0     C26738   8.500   4.680   8.246  0.6376  0.0663  0.1422
  961MOL0     C26739   8.545   4.774   8.162  0.2968  0.1127 -0.4357
  961MOL0     C26740   8.671   4.784   8.089 -0.4839  0.2312  1.3637
  961MOL0     C26741   8.797   4.744   8.173 -0.3707 -0.5590 -0.7638
  961MOL0     C26742   8.926   4.784   8.089  0.2158  1.6958  0.2929
  961MOL0     C26743   8.979   4.654   8.023  0.0089 -0.1693  0.7330
  961MOL0     O26744   9.018   4.549   8.107  0.2475 -0.3744 -0.1779
  961MOL0     C26745   9.136   4.491   8.090 -0.6392 -1.1200  0.3531
  961MOL0     C26746   9.212   4.484   7.976 -0.8084  0.0987  0.3884
  961MOL0     C26747   9.333   4.412   7.967 -0.2903 -0.5927 -0.8536
  961MOL0     C26748   9.377   4.346   8.073  0.8585  1.0634 -0.5147
  961MOL0     C26749   9.499   4.262   8.061 -0.4074 -0.5293 -0.6252
  961MOL0     O26750   9.568   4.234   8.175  0.2192  0.2201 -0.0393
  961MOL0     C26751   9.681   4.158   8.172  0.1643 -0.1282 -0.4998
  961MOL0     C26752   9.697   4.072   8.285  1.2176  0.3112  0.0701
  961MOL0     C26753   9.809   3.994   8.304  0.0239 -1.1204 -0.7822
  961MOL0     C26754   9.913   3.998   8.212 -0.6717 -0.1235 -0.4239
  961MOL0     O26755  10.031   3.928   8.233  0.0186 -0.3877 -0.1978
  961MOL0     C26756  10.059   3.815   8.142 -0.3201 -0.2469  0.4092
  961MOL0     C26757  10.191   3.742   8.179  0.2899  0.0869  0.2158
  961MOL0     C26758  10.235   3.655   8.057  0.5556 -0.6042 -0.3257
  961MOL0     C26759  10.353   3.564   8.104 -0.8068  0.0781 -0.0991
  961MOL0     C26760  10.334   3.410   8.066 -0.5207  0.4702  1.0849
  961MOL0     C26761  10.209   3.315   8.111 -0.4805  0.1819 -0.6100
  961MOL0     C26762  10.221   3.329   8.273  0.9364 -0.0179 -0.3836
  961MOL0     C26763  10.139   3.220   8.348 -0.0441  0.1563  0.3298
  961MOL0    Cl26764  10.143   3.227   8.531 -0.1789 -0.3445 -0.7378
  961MOL0     C26765   9.897   4.080   8.098 -0.6458 -0.2349 -0.3916
  961MOL0     C26766   9.785   4.163   8.081 -1.4365  0.4385  0.7201
  961MOL0     O26767   9.533   4.232   7.950 -0.6814  0.3972 -0.0067
  961MOL0     C26768   9.305   4.344   8.196 -0.8317 -0.7649  0.0235
  961MOL0     C26769   9.180   4.414   8.202  0.5219 -0.1386 -0.1502
  961MOL0     N26770   8.479   4.894   8.187  0.4314  0.0783 -1.1562
  961MOL0     N26771   8.390   4.870   8.274 -0.0668  0.2346 -0.3869
  961MOL0     C26772   9.134   4.650   8.544 -0.7474 -0.5926  0.0669
  961MOL0     C26773   9.226   4.743   8.591 -0.8735 -0.5786 -0.1348
  961MOL0     C26774   9.415   5.153   8.631 -0.0186  0.4532  0.1055
  961MOL0     C26775   9.435   5.165   8.771 -0.6070  0.0839 -0.1755
  961MOL0     C26776   9.521   5.274   8.811 -0.6679  0.7338  0.6812
  961MOL0     C26777   9.597   5.357   8.726  0.7542 -0.0306 -0.0651
  961MOL0     O26778   9.671   5.457   8.792 -0.4254 -0.0461 -1.0271
  961MOL0     C26779   9.768   5.534   8.710  0.1196  0.0026 -0.1915
  961MOL0     C26780   9.914   5.485   8.727 -0.1754 -0.1905 -0.0558
  961MOL0     C26781   9.938   5.454   8.872 -0.7898 -0.2546 -0.3583
  961MOL0     C26782  10.090   5.417   8.906 -0.1485  0.4253  0.5494
  961MOL0     C26783  10.137   5.284   8.856  0.0586 -0.1257 -0.5457
  961MOL0     C26784  10.164   5.183   8.796 -0.2396  1.1142  0.0053
  961MOL0     C26785   9.583   5.330   8.590 -0.1531 -0.1630  0.8140
  961MOL0     C26786   9.493   5.233   8.535  0.3282  0.8174 -0.2959
  961MOL0     H26787   9.016   4.993   8.676  1.8010  0.4094  0.4498
  961MOL0     H26788   8.840   4.821   8.565 -0.5801 -1.0864 -0.8455
  961MOL0     H26789   8.936   4.485   8.673  0.0618  2.6700 -0.2488
  961MOL0     H26790   8.956   4.388   8.531 -2.6468 -1.8845  0.2549
  961MOL0     H26791   8.747   4.318   8.604 -0.8985 -0.2158  0.8875
  961MOL0     H26792   8.695   4.436   8.485  1.3973 -5.1825 -1.5394
  961MOL0     H26793   8.687   4.609   8.674 -0.5669  0.0211  1.6301
  961MOL0     H26794   8.747   4.475   8.783 -0.5916  0.3075  0.9541
  961MOL0     H26795   8.539   4.348   8.742 -0.1248 -0.6275 -2.4100
  961MOL0     H26796   8.506   4.496   8.828  1.8721  1.9767  0.8003
  961MOL0     H26797   8.335   4.468   8.673 -0.0654 -0.2370 -1.7549
  961MOL0     H26798   8.435   4.452   8.536 -3.3896 -0.4825 -0.4216
  961MOL0     H26799   8.525   4.691   8.564  0.2682 -0.9251  0.4853
  961MOL0     H26800   8.435   4.696   8.717  2.8286  0.2516  0.2218
  961MOL0     H26801   8.214   4.658   8.586 -0.0001  0.2019  0.8990
  961MOL0     H26802   8.287   4.811   8.558  2.7951  0.9322 -0.7655
  961MOL0     H26803   8.193   4.695   8.349 -0.6430 -2.4107 -0.3740
  961MOL0     H26804   8.304   4.568   8.365  0.6542  0.2474  1.9466
  961MOL0     H26805   8.536   4.577   8.248  0.3368 -0.2085 -2.9246
  961MOL0     H26806   8.685   4.889   8.063 -2.4381 -0.1363 -1.6922
  961MOL0     H26807   8.672   4.727   7.996  5.3162  0.1538  1.1247
  961MOL0     H26808   8.796   4.636   8.191 -2.2510 -0.7812 -1.9554
  961MOL0     H26809   8.804   4.787   8.274 -1.8256  1.4792 -1.4617
  961MOL0     H26810   8.902   4.852   8.007 -1.1057 -0.5293 -1.3025
  961MOL0     H26811   8.999   4.820   8.161 -0.8330  2.1324  1.1750
  961MOL0     H26812   9.070   4.682   7.970  0.4799 -4.1691 -0.8863
  961MOL0     H26813   8.897   4.627   7.956 -2.1239 -2.5148  3.9364
  961MOL0     H26814   9.173   4.521   7.882 -0.7581  1.4856  0.9028
  961MOL0     H26815   9.383   4.406   7.870  0.8780  2.9491 -0.6074
  961MOL0     H26816   9.618   4.052   8.357  0.9519  1.1145  0.0101
  961MOL0     H26817   9.822   3.922   8.384  0.2279 -1.2551 -0.9336
  961MOL0     H26818  10.079   3.854   8.042 -4.7524  1.1050 -0.1939
  961MOL0     H26819   9.979   3.740   8.144  1.7499 -2.5843 -0.2029
  961MOL0     H26820  10.166   3.687   8.270 -3.3422  1.1096 -0.0240
  961MOL0     H26821  10.275   3.807   8.205  0.1339  0.0365  0.8473
  961MOL0     H26822  10.255   3.713   7.967 -2.6897 -1.0066 -1.4290
  961MOL0     H26823  10.158   3.581   8.033  0.0067  0.0182 -0.5180
  961MOL0     H26824  10.449   3.601   8.067 -1.0680 -0.3677 -1.2597
  961MOL0     H26825  10.363   3.576   8.212 -3.8387  4.0310 -0.0087
  961MOL0     H26826  10.424   3.361   8.104  0.1199  1.6190  1.0969
  961MOL0     H26827  10.345   3.406   7.957  0.1410  2.0536  1.0628
  961MOL0     H26828  10.227   3.211   8.084  2.3534  0.0962  1.1839
  961MOL0     H26829  10.111   3.346   8.073 -2.4227 -2.7327  1.6661
  961MOL0     H26830  10.322   3.334   8.316  1.0263 -1.5638 -0.3869
  961MOL0     H26831  10.168   3.422   8.296 -2.5585 -2.3960  2.2057
  961MOL0     H26832  10.173   3.121   8.315 -0.7553 -1.1533  3.2091
  961MOL0     H26833  10.036   3.221   8.312 -0.2483  0.3726  0.9086
  961MOL0     H26834   9.973   4.082   8.021 -1.6551 -0.7686 -1.4185
  961MOL0     H26835   9.785   4.228   7.994  0.9466 -4.5377 -3.5651
  961MOL0     H26836   9.338   4.283   8.279  0.5580 -2.9010 -1.9454
  961MOL0     H26837   9.117   4.420   8.290 -1.0357  0.4334 -1.2546
  961MOL0     H26838   9.164   4.556   8.497 -0.8780 -0.8027  0.3973
  961MOL0     H26839   9.332   4.717   8.589 -0.9155 -0.7078 -1.0926
  961MOL0     H26840   9.365   5.111   8.833 -0.7014  1.3949  0.9242
  961MOL0     H26841   9.537   5.298   8.915  0.9183  0.5367  0.5081
  961MOL0     H26842   9.759   5.640   8.736  0.4731  0.0421 -0.2296
  961MOL0     H26843   9.746   5.539   8.602  0.2528 -0.1098 -0.2241
  961MOL0     H26844   9.921   5.396   8.663  1.1136 -1.5132  1.8060
  961MOL0     H26845   9.985   5.562   8.694 -1.8932  0.6273 -2.0659
  961MOL0     H26846   9.869   5.377   8.907 -1.5875  0.3578 -0.5493
  961MOL0     H26847   9.908   5.541   8.931  2.8689  0.4451  0.6866
  961MOL0     H26848  10.156   5.494   8.864  1.5363 -2.2470 -2.1768
  961MOL0     H26849  10.099   5.421   9.015 -0.1518  2.8930  0.5127
  961MOL0     H26850  10.176   5.097   8.734  0.9105  0.4104  1.1541
  961MOL0     H26851   9.632   5.382   8.509 -1.4935 -0.8415 -0.4983
  961MOL0     H26852   9.478   5.243   8.428  2.7890 -0.5957 -0.8609
  962MOL0     O26853   2.746   9.875  11.381 -0.2006  0.5986 -0.1431
  962MOL0     C26854   2.809   9.791  11.320  0.5311  0.3355  0.1741
  962MOL0     O26855   2.932   9.798  11.278 -0.3343  0.1578 -0.1029
  962MOL0     C26856   2.995   9.917  11.262 -0.1120  0.0193 -0.0746
  962MOL0     C26857   2.944  10.048  11.287 -0.3732 -0.1081 -0.2004
  962MOL0     C26858   3.034  10.153  11.301 -0.1384 -0.0813  0.1783
  962MOL0     C26859   3.171  10.144  11.283  0.5093 -0.2652 -0.0315
  962MOL0     O26860   3.261  10.249  11.301  0.8185 -0.3276  0.0434
  962MOL0     C26861   3.212  10.355  11.391  0.7688  0.2639 -0.3216
  962MOL0     C26862   3.310  10.474  11.400 -1.0928  0.2476 -0.0355
  962MOL0     C26863   3.363  10.522  11.267 -0.1732 -0.3054 -0.3859
  962MOL0     C26864   3.491  10.605  11.284  0.1973 -0.7111 -0.5549
  962MOL0     C26865   3.542  10.654  11.155 -0.5109  0.1941  1.6432
  962MOL0     C26866   3.607  10.532  11.069  0.2569 -0.3913 -0.3666
  962MOL0     C26867   3.681  10.583  10.946  0.9734 -0.1418 -0.4845
  962MOL0     C26868   3.756  10.469  10.887 -0.4124  0.1093  1.8281
  962MOL0     N26869   3.799  10.512  10.748  0.8957 -0.6926  0.0347
  962MOL0     C26870   3.730  10.479  10.635  0.2670 -1.1290  0.7171
  962MOL0     C26871   3.825  10.494  10.540 -0.1646  0.1038 -0.7990
  962MOL0     C26872   3.820  10.447  10.395 -0.1156  0.3454  0.1698
  962MOL0     C26873   3.719  10.527  10.313  0.8333 -0.0550  0.2143
  962MOL0     C26874   3.734  10.675  10.331 -0.3938  0.1266  0.2621
  962MOL0     C26875   3.642  10.755  10.234 -0.1867 -0.0477 -0.7517
  962MOL0     O26876   3.513  10.732  10.276 -0.1738  0.3213  0.7876
  962MOL0     C26877   3.410  10.810  10.243  0.0083  0.1526  0.0011
  962MOL0     C26878   3.282  10.778  10.282 -0.0926 -1.4345 -0.6940
  962MOL0     C26879   3.177  10.866  10.255  1.0965  0.2098 -0.0748
  962MOL0     C26880   3.186  10.991  10.185  0.3889  0.6232 -0.1453
  962MOL0     C26881   3.059  11.057  10.144 -0.8830 -0.1811 -0.3193
  962MOL0     O26882   3.057  11.175  10.078  0.1253  0.2719  0.6481
  962MOL0     C26883   2.933  11.229  10.074 -0.5632 -0.1633 -0.1037
  962MOL0     C26884   2.893  11.282  10.193 -1.4203 -0.4472  0.2956
  962MOL0     C26885   2.768  11.346  10.203  0.0944 -0.1168  0.3129
  962MOL0     C26886   2.692  11.352  10.089  0.5630 -0.2403  0.5137
  962MOL0     O26887   2.572  11.403  10.118 -0.5736 -0.6722  0.7222
  962MOL0     C26888   2.561  11.546  10.079  0.4806 -0.2769 -0.8547
  962MOL0     C26889   2.548  11.580   9.932  1.1651  0.5584  0.7603
  962MOL0     C26890   2.493  11.721   9.913 -0.8256  0.3506 -0.3600
  962MOL0     C26891   2.338  11.738   9.875 -0.7292  0.1979  0.0034
  962MOL0     C26892   2.302  11.885   9.873 -0.0927  0.3441 -0.4110
  962MOL0     C26893   2.161  11.896   9.819  0.1187 -0.0631  0.2413
  962MOL0     C26894   2.112  12.043   9.799  1.4878 -0.1653  0.1849
  962MOL0     C26895   1.955  12.041   9.776 -1.1315  0.4665 -0.3388
  962MOL0    Cl26896   1.879  12.195   9.809  0.0809  0.4114 -0.6142
  962MOL0     C26897   2.718  11.292   9.969 -0.8940  0.3332  0.6218
  962MOL0     C26898   2.847  11.240   9.961 -0.3877  0.2077 -0.3177
  962MOL0     O26899   2.960  11.002  10.193 -0.6003 -0.4586 -0.1634
  962MOL0     C26900   3.321  11.017  10.141 -0.2867 -0.0412  0.9075
  962MOL0     C26901   3.421  10.925  10.161  0.1556 -1.1912 -0.6131
  962MOL0     N26902   3.942  10.540  10.597 -0.0711  0.8142 -0.2225
  962MOL0     N26903   3.930  10.538  10.716  0.1576 -1.6089 -1.3309
  962MOL0     C26904   3.210  10.015  11.237  0.4300  0.1479 -0.2994
  962MOL0     C26905   3.130   9.903  11.241  0.1941  0.8952  0.3410
  962MOL0     C26906   2.737   9.667  11.302  0.1610  0.6080  0.3096
  962MOL0     C26907   2.632   9.633  11.381  0.4289  0.3701 -0.0103
  962MOL0     C26908   2.561   9.504  11.368  0.1838  0.2815  0.4633
  962MOL0     C26909   2.612   9.413  11.273  0.2300 -0.2939  1.4065
  962MOL0     O26910   2.550   9.288  11.275  0.5549 -0.2864  0.1982
  962MOL0     C26911   2.628   9.177  11.243  0.0767 -0.8092 -0.2564
  962MOL0     C26912   2.607   9.135  11.101  0.2536  0.3069  0.5891
  962MOL0     C26913   2.696   9.007  11.088  0.9253 -0.7347 -0.2037
  962MOL0     C26914   2.767   9.001  10.953 -0.5317 -1.7864 -0.1410
  962MOL0     C26915   2.884   9.099  10.932 -0.1310 -0.4322 -0.3177
  962MOL0     C26916   2.981   9.167  10.912  0.0620  0.1308 -0.1008
  962MOL0     C26917   2.730   9.442  11.204  0.7373  0.2295  0.1744
  962MOL0     C26918   2.787   9.565  11.216 -0.6347 -0.3688 -0.2671
  962MOL0     H26919   2.840  10.077  11.293 -0.0851  0.6867  4.4053
  962MOL0     H26920   2.984  10.248  11.313  0.6862  0.5112 -0.9353
  962MOL0     H26921   3.199  10.314  11.492 -2.3958  5.0760  1.5799
  962MOL0     H26922   3.116  10.395  11.356  1.2083  1.4002 -0.2756
  962MOL0     H26923   3.384  10.445  11.475 -0.6565 -0.5142 -0.7558
  962MOL0     H26924   3.252  10.557  11.443 -0.8621 -0.1971  1.1756
  962MOL0     H26925   3.290  10.594  11.228 -0.4342 -0.8120 -0.8522
  962MOL0     H26926   3.364  10.446  11.188 -2.6733  0.3547 -1.1536
  962MOL0     H26927   3.488  10.685  11.359  0.6234 -0.3281 -0.9415
  962MOL0     H26928   3.561  10.530  11.322 -1.7667 -1.8507  1.0218
  962MOL0     H26929   3.619  10.727  11.181  2.5154 -1.8702 -0.8547
  962MOL0     H26930   3.468  10.709  11.096  0.4858 -0.1795 -0.0036
  962MOL0     H26931   3.531  10.456  11.048 -2.2345  1.7143  0.4122
  962MOL0     H26932   3.676  10.484  11.139  0.3908 -0.6991 -0.7100
  962MOL0     H26933   3.610  10.622  10.872 -0.9930 -0.1784  1.2699
  962MOL0     H26934   3.754  10.661  10.970  1.3812 -0.7622  0.3317
  962MOL0     H26935   3.696  10.377  10.881  1.0768 -0.8167 -0.3054
  962MOL0     H26936   3.846  10.453  10.946 -0.9025  1.4811  3.0083
  962MOL0     H26937   3.631  10.444  10.610 -0.6630  2.4659 -1.3511
  962MOL0     H26938   3.798  10.340  10.397  1.2837 -0.0393 -1.8973
  962MOL0     H26939   3.916  10.471  10.349 -0.1024  0.6835  0.3735
  962MOL0     H26940   3.617  10.501  10.343  1.4701 -0.2331  2.3982
  962MOL0     H26941   3.729  10.504  10.207 -1.0409  1.6097 -0.3739
  962MOL0     H26942   3.715  10.709  10.433  1.9429 -0.3931  0.9504
  962MOL0     H26943   3.836  10.703  10.303 -0.6420  1.4752  0.6645
  962MOL0     H26944   3.625  10.718  10.133 -3.1153  2.7962 -1.4690
  962MOL0     H26945   3.666  10.862  10.232  0.4642 -0.1806 -2.5595
  962MOL0     H26946   3.260  10.683  10.331 -1.3047 -0.8328 -0.0377
  962MOL0     H26947   3.074  10.838  10.276  0.6501  0.7048 -1.4404
  962MOL0     H26948   2.943  11.272  10.289  0.7211  1.6692 -0.5328
  962MOL0     H26949   2.739  11.387  10.299  0.0823  1.3764 -0.2869
  962MOL0     H26950   2.645  11.601  10.122  0.4572  0.2482 -1.4782
  962MOL0     H26951   2.466  11.572  10.127  1.2618  1.1915 -0.0387
  962MOL0     H26952   2.485  11.502   9.889  1.3439  1.8786 -2.1778
  962MOL0     H26953   2.646  11.566   9.886  1.5967 -1.9939  2.2805
  962MOL0     H26954   2.551  11.759   9.828  2.7515 -1.7083  0.9216
  962MOL0     H26955   2.530  11.792   9.988  1.7956  0.1536 -1.3404
  962MOL0     H26956   2.316  11.685   9.782 -1.6636 -1.0114  0.8806
  962MOL0     H26957   2.273  11.690   9.950  3.3012 -2.0141  2.4854
  962MOL0     H26958   2.357  11.945   9.800 -0.0597  0.0349 -0.6424
  962MOL0     H26959   2.310  11.928   9.973 -1.1583  0.3723 -0.3325
  962MOL0     H26960   2.101  11.840   9.891 -2.8221  4.2201  1.5736
  962MOL0     H26961   2.150  11.860   9.717 -2.3854  3.2094 -0.8608
  962MOL0     H26962   2.131  12.097   9.893 -1.7333  0.6829  0.4983
  962MOL0     H26963   2.165  12.100   9.722 -1.8466  1.7541 -0.9190
  962MOL0     H26964   1.927  11.968   9.852  3.3508  0.8214  1.9711
  962MOL0     H26965   1.928  12.018   9.673  2.9651  1.4041 -1.7827
  962MOL0     H26966   2.654  11.273   9.883  0.6750 -3.9373  0.1477
  962MOL0     H26967   2.878  11.184   9.873  1.8817  0.8659 -0.0091
  962MOL0     H26968   3.340  11.114  10.095  0.0092 -0.3805  0.3097
  962MOL0     H26969   3.513  10.965  10.119  0.6808  0.5883  1.9433
  962MOL0     H26970   3.314  10.011  11.206  1.0920 -2.0250  1.8562
  962MOL0     H26971   3.172   9.804  11.228  0.4778  0.9549  0.7760
  962MOL0     H26972   2.577   9.692  11.454 -0.2475 -1.5209  1.0944
  962MOL0     H26973   2.474   9.480  11.428 -0.4284  2.1382  0.4017
  962MOL0     H26974   2.608   9.095  11.312  3.5512 -0.0178  1.9137
  962MOL0     H26975   2.731   9.204  11.268 -0.6459  0.7842  1.1927
  962MOL0     H26976   2.505   9.099  11.086 -0.3449  1.5119  1.5818
  962MOL0     H26977   2.616   9.208  11.021 -2.2104 -0.5715 -0.5970
  962MOL0     H26978   2.628   8.922  11.087  0.1378 -0.1958 -3.0679
  962MOL0     H26979   2.767   8.991  11.170 -0.8333 -0.9118  1.3424
  962MOL0     H26980   2.790   8.899  10.924  0.3648 -0.8818 -2.9598
  962MOL0     H26981   2.693   9.033  10.879  1.7443 -0.7259 -2.1021
  962MOL0     H26982   3.050   9.248  10.907 -1.9585  2.2228  2.6039
  962MOL0     H26983   2.778   9.382  11.128  1.1124 -2.6305  2.5183
  962MOL0     H26984   2.880   9.588  11.166  0.8443  0.5433  2.6813
  963MOL0     O26985   1.136   7.140   3.494  0.0963  0.2292  0.6989
  963MOL0     C26986   1.160   7.147   3.368  0.0873 -0.3728  0.4067
  963MOL0     O26987   1.103   7.239   3.284 -0.1460  0.0090  0.1611
  963MOL0     C26988   1.028   7.345   3.331  0.5067  0.1512  0.4658
  963MOL0     C26989   1.062   7.472   3.290  0.1156 -0.1413  0.3854
  963MOL0     C26990   1.001   7.589   3.330  0.4539 -0.4306  1.2798
  963MOL0     C26991   0.880   7.578   3.408  0.0359  0.6366  0.1543
  963MOL0     O26992   0.778   7.666   3.439  0.9361 -0.1521 -0.0412
  963MOL0     C26993   0.801   7.806   3.425 -0.5063 -0.2488  0.5935
  963MOL0     C26994   0.785   7.861   3.559 -0.1749 -0.6384  0.0877
  963MOL0     C26995   0.908   7.848   3.641 -0.2723 -0.5766  0.0790
  963MOL0     C26996   0.884   7.890   3.790  0.4563  0.1796  1.4562
  963MOL0     C26997   1.023   7.931   3.848  0.1463 -0.2117 -0.1600
  963MOL0     C26998   1.076   8.070   3.784 -0.5445  0.0807  0.0778
  963MOL0     C26999   1.187   8.116   3.881  0.3427 -0.7005  0.5325
  963MOL0     C27000   1.318   8.027   3.855  0.1144 -0.1389  0.7917
  963MOL0     N27001   1.373   7.974   3.980  0.3690 -0.9187 -0.4235
  963MOL0     C27002   1.410   8.048   4.095  0.1400 -0.5149  0.8555
  963MOL0     C27003   1.457   7.956   4.180  0.4474 -0.1059  0.5800
  963MOL0     C27004   1.518   7.992   4.310  1.0188  0.3945 -0.5724
  963MOL0     C27005   1.623   8.100   4.275  0.1383  1.2405  0.9724
  963MOL0     C27006   1.740   8.117   4.372 -0.7791  0.4625  0.4498
  963MOL0     C27007   1.701   8.125   4.528  0.0307 -0.7669  0.6512
  963MOL0     O27008   1.604   8.230   4.532  0.0039 -0.0404 -0.5059
  963MOL0     C27009   1.525   8.247   4.642 -0.8528  1.0240 -0.2059
  963MOL0     C27010   1.407   8.315   4.625  0.1706  0.0690 -0.3810
  963MOL0     C27011   1.321   8.340   4.738 -0.1551 -0.0940  0.3035
  963MOL0     C27012   1.354   8.294   4.871 -0.7379  0.1384  0.5949
  963MOL0     C27013   1.260   8.310   4.991  0.0160 -0.4420  0.1916
  963MOL0     O27014   1.141   8.373   4.954 -0.2325 -0.4308  0.8837
  963MOL0     C27015   1.031   8.339   5.012 -0.5636 -0.4598 -0.8887
  963MOL0     C27016   1.003   8.388   5.144  0.2728  0.7654  0.1797
  963MOL0     C27017   0.891   8.338   5.217 -0.5117  0.7242  0.4573
  963MOL0     C27018   0.821   8.235   5.162 -0.5313  0.7090  0.0658
  963MOL0     O27019   0.727   8.180   5.241 -0.2193 -0.1345 -0.3378
  963MOL0     C27020   0.626   8.275   5.271  0.6604 -0.7387 -0.6342
  963MOL0     C27021   0.527   8.202   5.360 -0.4113 -0.5129  0.2767
  963MOL0     C27022   0.410   8.291   5.394 -0.4879  0.8740 -0.5012
  963MOL0     C27023   0.309   8.199   5.477 -0.0420  0.0010  1.6616
  963MOL0     C27024   0.184   8.274   5.504  0.1555 -0.3283  0.0190
  963MOL0     C27025   0.099   8.204   5.622  0.0377  0.2793  0.4528
  963MOL0     C27026  -0.033   8.289   5.650 -0.3978  1.3882 -1.9946
  963MOL0     C27027  -0.098   8.344   5.530  0.5446 -0.8128 -0.3606
  963MOL0    Cl27028  -0.279   8.390   5.565 -0.1453  0.7562  0.0604
  963MOL0     C27029   0.838   8.196   5.027 -0.4264  0.2376 -0.2341
  963MOL0     C27030   0.949   8.241   4.958 -0.1008  0.0356  0.5830
  963MOL0     O27031   1.281   8.251   5.102  0.8776  0.1884  0.0173
  963MOL0     C27032   1.491   8.248   4.879  0.6454 -0.7796 -0.0990
  963MOL0     C27033   1.568   8.212   4.771  0.2944  0.7181  0.7249
  963MOL0     N27034   1.459   7.830   4.112  0.2869 -0.6026  0.2473
  963MOL0     N27035   1.399   7.842   3.999  0.7185 -0.2802 -0.3178
  963MOL0     C27036   0.844   7.446   3.452  0.6926  0.6487 -0.3726
  963MOL0     C27037   0.921   7.334   3.417 -0.3691  0.4360  0.8651
  963MOL0     C27038   1.246   7.035   3.323 -0.3759 -0.2865 -0.6202
  963MOL0     C27039   1.279   7.010   3.190  0.0008 -0.6428 -0.6302
  963MOL0     C27040   1.351   6.896   3.140 -0.0747 -0.5628 -0.5225
  963MOL0     C27041   1.391   6.799   3.233 -0.6373 -0.1770  0.2644
  963MOL0     O27042   1.471   6.693   3.211 -0.5518  0.3028 -0.0436
  963MOL0     C27043   1.518   6.677   3.079 -0.6340  0.1376  0.1086
  963MOL0     C27044   1.650   6.591   3.073  0.2463 -0.3046 -0.9817
  963MOL0     C27045   1.725   6.605   2.942  0.5410  0.3234 -0.4536
  963MOL0     C27046   1.819   6.721   2.929 -0.3613 -1.1132 -0.2154
  963MOL0     C27047   1.922   6.714   3.026  0.3191 -0.1995  0.3579
  963MOL0     C27048   2.014   6.712   3.099  0.4599  0.4704 -0.2250
  963MOL0     C27049   1.368   6.823   3.370  0.9448 -0.0988  1.1097
  963MOL0     C27050   1.299   6.938   3.415  0.1259  0.3765  0.3190
  963MOL0     H27051   1.142   7.469   3.217 -0.0441 -3.1142  0.1997
  963MOL0     H27052   1.032   7.681   3.281 -0.1623  0.7273  2.9708
  963MOL0     H27053   0.736   7.857   3.353  0.4553  1.0842  0.6309
  963MOL0     H27054   0.900   7.838   3.392 -1.0884  1.0555  0.0426
  963MOL0     H27055   0.720   7.800   3.623  1.6781 -1.2999  1.4284
  963MOL0     H27056   0.757   7.967   3.553 -2.7751 -1.3256 -1.7233
  963MOL0     H27057   0.989   7.911   3.602  0.0198 -0.0360  1.4735
  963MOL0     H27058   0.944   7.745   3.642  0.9760 -0.2084  2.9353
  963MOL0     H27059   0.808   7.967   3.804 -1.2546 -0.9064 -1.1279
  963MOL0     H27060   0.849   7.801   3.843  1.7444  0.1667  2.3192
  963MOL0     H27061   1.088   7.845   3.832 -1.5646 -1.2314 -2.0909
  963MOL0     H27062   0.999   7.944   3.954 -0.5598  1.2451 -0.4731
  963MOL0     H27063   0.999   8.148   3.779 -0.0280  0.5268 -1.4707
  963MOL0     H27064   1.116   8.045   3.685 -0.7232 -2.3998  0.5610
  963MOL0     H27065   1.213   8.219   3.854  0.4972  0.1786  3.6046
  963MOL0     H27066   1.165   8.118   3.988 -0.9219 -1.4658  0.3052
  963MOL0     H27067   1.389   8.093   3.805 -1.5123 -1.1764 -3.2881
  963MOL0     H27068   1.299   7.947   3.784  1.4230 -0.8127  1.1820
  963MOL0     H27069   1.407   8.153   4.120 -2.1895 -0.0475 -1.0341
  963MOL0     H27070   1.568   7.904   4.351 -0.8261 -0.4880 -0.0709
  963MOL0     H27071   1.448   8.027   4.386  0.1299 -1.7823 -0.3192
  963MOL0     H27072   1.564   8.191   4.264 -3.1096 -0.7258  0.8027
  963MOL0     H27073   1.671   8.087   4.177  3.2285  0.7374  2.4291
  963MOL0     H27074   1.798   8.028   4.349  0.3277  1.0622  0.8382
  963MOL0     H27075   1.800   8.199   4.332  2.2571 -2.1613 -0.7481
  963MOL0     H27076   1.792   8.150   4.582  1.7022  1.4632 -2.7912
  963MOL0     H27077   1.654   8.032   4.562 -3.3871  0.4053 -0.4899
  963MOL0     H27078   1.384   8.334   4.520 -1.7406  0.4676  0.0628
  963MOL0     H27079   1.231   8.398   4.722 -0.2002 -0.6530 -1.7369
  963MOL0     H27080   1.064   8.465   5.192  3.2312 -0.3735 -1.4990
  963MOL0     H27081   0.872   8.344   5.324 -0.5883 -3.0793  0.8039
  963MOL0     H27082   0.590   8.327   5.182 -0.0379  1.6848  0.9659
  963MOL0     H27083   0.652   8.366   5.326  0.0768  0.0134 -1.5746
  963MOL0     H27084   0.585   8.170   5.447  1.1204  0.6698 -0.2679
  963MOL0     H27085   0.489   8.112   5.311 -1.3193 -0.4466  0.8354
  963MOL0     H27086   0.362   8.322   5.301  1.4144  5.1331 -0.2907
  963MOL0     H27087   0.433   8.381   5.451  0.4426  1.4843 -1.8171
  963MOL0     H27088   0.288   8.107   5.422  0.6081  0.5821  0.4016
  963MOL0     H27089   0.359   8.155   5.564 -1.0814 -1.2255  1.6631
  963MOL0     H27090   0.143   8.267   5.402 -2.4294  0.4524  0.9082
  963MOL0     H27091   0.208   8.379   5.523  1.6841 -0.5352 -0.6196
  963MOL0     H27092   0.157   8.198   5.715  2.4582  5.0580 -0.4084
  963MOL0     H27093   0.066   8.108   5.582 -2.6443  1.3909 -0.2201
  963MOL0     H27094  -0.104   8.216   5.692  0.1438  1.0836 -1.5949
  963MOL0     H27095  -0.021   8.369   5.723  5.2911 -1.2652  0.5854
  963MOL0     H27096  -0.088   8.272   5.448 -3.2527 -1.7402 -0.1998
  963MOL0     H27097  -0.036   8.427   5.496 -0.4304 -1.3971 -3.9821
  963MOL0     H27098   0.767   8.124   4.987 -1.5551  0.7661  0.7175
  963MOL0     H27099   0.973   8.219   4.855  1.1339 -1.1921  1.0938
  963MOL0     H27100   1.529   8.226   4.978 -1.8215  0.2085  1.1569
  963MOL0     H27101   1.657   8.158   4.803 -1.9315 -4.3296 -0.5427
  963MOL0     H27102   0.745   7.433   3.496  0.3121  2.1590 -0.7099
  963MOL0     H27103   0.895   7.233   3.448  1.5949  0.3162  2.2829
  963MOL0     H27104   1.229   7.078   3.121 -0.0682  0.8803  0.8779
  963MOL0     H27105   1.357   6.888   3.032 -0.3789 -0.3821 -0.5560
  963MOL0     H27106   1.543   6.772   3.030  2.5060 -0.7861 -0.2433
  963MOL0     H27107   1.433   6.635   3.025  0.2182 -0.4090 -0.8319
  963MOL0     H27108   1.702   6.611   3.167 -2.7337  2.7887  0.2104
  963MOL0     H27109   1.623   6.485   3.077 -0.3020 -0.1283  2.1710
  963MOL0     H27110   1.652   6.622   2.862 -1.0568  2.1612  1.2903
  963MOL0     H27111   1.777   6.512   2.917 -0.4284  0.5352 -3.7730
  963MOL0     H27112   1.875   6.725   2.835  2.5398  1.8702  1.4186
  963MOL0     H27113   1.771   6.816   2.951 -2.3978 -2.6841  2.9233
  963MOL0     H27114   2.106   6.715   3.154  0.9245  2.2635 -1.0247
  963MOL0     H27115   1.398   6.756   3.449  0.3005 -0.3189  1.1737
  963MOL0     H27116   1.290   6.950   3.522 -2.9814 -1.1446  0.3474
  964MOL0     O27117   1.209   4.582  10.625 -0.7506 -0.2546  0.0092
  964MOL0     C27118   1.125   4.516  10.685 -0.0666 -0.3609  0.2194
  964MOL0     O27119   1.115   4.478  10.819  0.3404  0.7355 -0.3695
  964MOL0     C27120   1.221   4.490  10.909  0.8365  0.1263 -0.1405
  964MOL0     C27121   1.354   4.437  10.869  0.2808  0.0980 -0.8753
  964MOL0     C27122   1.439   4.428  10.980 -0.1147  0.0824 -0.2272
  964MOL0     C27123   1.411   4.480  11.102 -0.1220 -1.0054  0.7381
  964MOL0     O27124   1.515   4.495  11.184  0.1925  0.3346  0.5586
  964MOL0     C27125   1.503   4.432  11.314  0.3037 -0.6629 -0.7038
  964MOL0     C27126   1.641   4.441  11.387 -0.0740  0.5249  0.3845
  964MOL0     C27127   1.667   4.335  11.496 -0.2474 -0.7661  0.5773
  964MOL0     C27128   1.542   4.335  11.589 -1.5478  0.3056  0.7624
  964MOL0     C27129   1.560   4.281  11.734  0.3055  1.0906  0.0975
  964MOL0     C27130   1.587   4.131  11.730  0.8996 -0.1746 -0.9836
  964MOL0     C27131   1.620   4.074  11.874 -0.3803 -0.1227  0.5831
  964MOL0     C27132   1.666   3.930  11.872 -0.4867 -1.1477 -0.2481
  964MOL0     N27133   1.671   3.899  12.018  0.0725 -0.9548  0.2720
  964MOL0     C27134   1.776   3.902  12.104 -0.1515  0.6601  1.3699
  964MOL0     C27135   1.722   3.843  12.216 -0.5701  0.3209 -0.4117
  964MOL0     C27136   1.800   3.825  12.339 -1.2472  0.5632  0.1423
  964MOL0     C27137   1.783   3.950  12.421 -1.0568  0.9500  0.5053
  964MOL0     C27138   1.921   3.975  12.496 -0.4258 -0.2457 -0.3999
  964MOL0     C27139   1.992   3.858  12.559 -0.9473  0.3303 -0.3498
  964MOL0     O27140   2.088   3.909  12.652  0.4305 -0.7151  0.5906
  964MOL0     C27141   2.157   3.815  12.717  0.4820 -1.1129  0.9132
  964MOL0     C27142   2.254   3.737  12.658 -0.3182 -0.9558 -0.5660
  964MOL0     C27143   2.329   3.641  12.739 -0.8907  0.4299 -1.1173
  964MOL0     C27144   2.274   3.611  12.864 -0.5108  0.5548 -0.5706
  964MOL0     C27145   2.328   3.504  12.950  0.2856  1.0879 -0.4477
  964MOL0     O27146   2.460   3.488  12.929 -0.0734  0.0890 -1.2860
  964MOL0     C27147   2.530   3.415  13.025  1.1139  0.5592 -0.8872
  964MOL0     C27148   2.595   3.481  13.133 -0.0705 -0.3809 -0.3930
  964MOL0     C27149   2.681   3.407  13.215 -0.4397 -0.3759 -0.3905
  964MOL0     C27150   2.707   3.270  13.186  0.7410 -0.1366  0.7304
  964MOL0     O27151   2.783   3.186  13.258  0.5988  0.2754 -0.7205
  964MOL0     C27152   2.856   3.236  13.375 -0.5288  0.4154  0.7059
  964MOL0     C27153   2.979   3.141  13.382  0.0547 -0.6361 -0.7039
  964MOL0     C27154   3.062   3.171  13.507 -0.2519 -0.9286 -0.0072
  964MOL0     C27155   3.163   3.286  13.490 -0.2992 -0.0349 -0.3604
  964MOL0     C27156   3.294   3.231  13.422  1.4672  0.5996 -0.6217
  964MOL0     C27157   3.386   3.346  13.424 -0.4406  0.3858 -0.8059
  964MOL0     C27158   3.506   3.317  13.348 -1.3335 -1.0583  0.4909
  964MOL0     C27159   3.605   3.436  13.327  0.6635  0.0457  0.0713
  964MOL0    Cl27160   3.763   3.378  13.266 -0.2779 -0.0444  0.6577
  964MOL0     C27161   2.637   3.205  13.080  0.1062 -0.0679  1.4938
  964MOL0     C27162   2.547   3.282  13.002  0.5441  0.7883 -0.6747
  964MOL0     O27163   2.249   3.445  13.026  0.3595 -0.8127  0.3683
  964MOL0     C27164   2.186   3.699  12.923 -0.8455 -0.1435 -0.3258
  964MOL0     C27165   2.127   3.799  12.847 -0.3893  0.1964  0.2517
  964MOL0     N27166   1.596   3.793  12.194 -0.8816 -0.3708 -0.8930
  964MOL0     N27167   1.562   3.839  12.079  0.4927 -0.3430 -0.3753
  964MOL0     C27168   1.285   4.525  11.130 -0.6831 -0.6336  0.9874
  964MOL0     C27169   1.187   4.524  11.037 -0.4135  1.0165 -0.0227
  964MOL0     C27170   1.000   4.492  10.602  0.2000 -0.0804 -0.4013
  964MOL0     C27171   0.987   4.538  10.467 -0.7916  1.1161  0.1632
  964MOL0     C27172   0.881   4.494  10.389 -0.3474 -0.1761 -0.0085
  964MOL0     C27173   0.768   4.418  10.432  0.3878  0.1163 -0.7646
  964MOL0     O27174   0.657   4.378  10.351 -0.9460  0.7459 -0.1239
  964MOL0     C27175   0.630   4.465  10.246 -0.8277 -0.3936  0.6746
  964MOL0     C27176   0.501   4.415  10.163 -0.3442  0.0411 -0.0269
  964MOL0     C27177   0.491   4.500  10.034 -0.0201 -0.5839  0.1048
  964MOL0     C27178   0.359   4.464   9.963 -0.1265  0.1220 -0.5292
  964MOL0     C27179   0.374   4.343   9.886  0.3818 -0.7150 -0.2041
  964MOL0     C27180   0.371   4.248   9.809 -0.3033  1.4937 -0.8904
  964MOL0     C27181   0.778   4.386  10.570  0.9852 -0.1522  0.3786
  964MOL0     C27182   0.895   4.416  10.651 -0.1830  0.3066 -0.3640
  964MOL0     H27183   1.370   4.399  10.769  1.3826 -0.6318 -0.4403
  964MOL0     H27184   1.539   4.388  10.981  0.0308  0.2861  2.4694
  964MOL0     H27185   1.477   4.326  11.303  1.5229 -1.2070  1.2020
  964MOL0     H27186   1.435   4.479  11.386 -0.3593 -0.1777 -1.6256
  964MOL0     H27187   1.640   4.541  11.431  0.3134  1.8699 -2.4032
  964MOL0     H27188   1.722   4.433  11.313  1.0756 -1.6758  1.7489
  964MOL0     H27189   1.758   4.365  11.549 -0.0523  1.3175 -0.8313
  964MOL0     H27190   1.690   4.239  11.449 -2.9615  0.1388 -3.0664
  964MOL0     H27191   1.521   4.440  11.609  2.1105  0.7859  3.0056
  964MOL0     H27192   1.461   4.279  11.541 -1.7138  0.7871  0.4714
  964MOL0     H27193   1.476   4.310  11.798  0.1716 -1.3389  1.1307
  964MOL0     H27194   1.653   4.316  11.781  1.2243  1.6208 -1.9876
  964MOL0     H27195   1.656   4.109  11.648 -4.1899 -4.0929 -4.9414
  964MOL0     H27196   1.490   4.083  11.715  1.2448 -3.2222  4.1905
  964MOL0     H27197   1.696   4.139  11.916  0.2725 -0.4936 -0.0120
  964MOL0     H27198   1.523   4.093  11.922  0.2782  1.4333  1.3712
  964MOL0     H27199   1.767   3.924  11.830  0.7134  1.1183  1.9846
  964MOL0     H27200   1.603   3.857  11.820  0.3916 -2.0319 -0.0925
  964MOL0     H27201   1.874   3.944  12.086  1.5807 -3.1009  1.1012
  964MOL0     H27202   1.903   3.802  12.309 -2.0197 -0.6590 -1.7708
  964MOL0     H27203   1.762   3.745  12.402 -1.6142 -0.8563 -1.8068
  964MOL0     H27204   1.709   3.939  12.501  1.9003 -0.0586  3.3371
  964MOL0     H27205   1.757   4.036  12.359 -3.0284 -0.3887 -0.6582
  964MOL0     H27206   1.999   4.026  12.439  2.2660 -3.8095 -0.2493
  964MOL0     H27207   1.887   4.051  12.566  0.8640  0.3701 -0.4011
  964MOL0     H27208   2.039   3.808  12.474  0.3019 -3.1897  2.1643
  964MOL0     H27209   1.925   3.789  12.610  0.7756 -1.3892 -0.2916
  964MOL0     H27210   2.283   3.760  12.556 -2.0679  1.7584 -0.5371
  964MOL0     H27211   2.411   3.590  12.690 -1.3929  2.4304 -4.3726
  964MOL0     H27212   2.561   3.582  13.150  0.1871  0.2850 -3.3094
  964MOL0     H27213   2.732   3.454  13.298  3.0296  0.2283 -2.6356
  964MOL0     H27214   2.807   3.233  13.473 -2.9376 -2.0435 -0.4296
  964MOL0     H27215   2.895   3.335  13.349  2.6382 -1.1860 -1.4061
  964MOL0     H27216   3.043   3.144  13.293  1.8359  0.0466  0.5382
  964MOL0     H27217   2.928   3.044  13.390  3.5415 -2.5456  0.2852
  964MOL0     H27218   3.128   3.086  13.524  0.7880 -0.3769 -1.1536
  964MOL0     H27219   2.992   3.190  13.589 -0.7445  0.9681 -0.8058
  964MOL0     H27220   3.127   3.376  13.439  0.3576  0.9150  0.8053
  964MOL0     H27221   3.192   3.315  13.591  3.2289  0.0503 -1.2537
  964MOL0     H27222   3.271   3.198  13.321 -1.1631 -1.5731  0.5338
  964MOL0     H27223   3.337   3.160  13.493 -2.2435  1.3366  2.7091
  964MOL0     H27224   3.406   3.356  13.531 -0.5538  0.9086 -0.8301
  964MOL0     H27225   3.344   3.438  13.383  3.3151  1.7196 -2.0739
  964MOL0     H27226   3.565   3.239  13.397  1.0199 -0.7989 -1.6983
  964MOL0     H27227   3.477   3.289  13.246 -1.1142  0.2832  0.0380
  964MOL0     H27228   3.617   3.483  13.425  1.3680 -1.7895  0.9168
  964MOL0     H27229   3.566   3.515  13.262 -0.0640 -1.6495 -1.6762
  964MOL0     H27230   2.654   3.100  13.061  2.7006 -0.0035  2.9395
  964MOL0     H27231   2.490   3.238  12.922 -0.9537  3.5656 -1.2663
  964MOL0     H27232   2.173   3.704  13.031  2.3015 -0.3466  0.1465
  964MOL0     H27233   2.056   3.870  12.888 -2.5820 -0.2729 -2.3864
  964MOL0     H27234   1.270   4.567  11.230  0.1225  6.1518 -1.2096
  964MOL0     H27235   1.090   4.545  11.080 -0.2458 -0.6068  1.2696
  964MOL0     H27236   1.041   4.618  10.416 -1.3154 -0.8241 -3.8439
  964MOL0     H27237   0.888   4.523  10.285 -1.7773  1.0556  0.2130
  964MOL0     H27238   0.718   4.468  10.180  1.0125  0.0624  3.0110
  964MOL0     H27239   0.615   4.563  10.292 -0.8573  0.2878 -0.7448
  964MOL0     H27240   0.507   4.308  10.139  2.8852  0.3584 -1.0773
  964MOL0     H27241   0.410   4.426  10.223 -1.4447  1.3584 -1.8617
  964MOL0     H27242   0.584   4.484   9.978  1.7250 -0.3339  2.7466
  964MOL0     H27243   0.494   4.606  10.060  0.5052 -0.1542 -1.5953
  964MOL0     H27244   0.277   4.454  10.035 -2.3242  0.8860 -2.7612
  964MOL0     H27245   0.343   4.552   9.899  0.7894  0.6573 -0.0341
  964MOL0     H27246   0.362   4.169   9.738  6.8689 -1.7478  0.8519
  964MOL0     H27247   0.691   4.339  10.614  1.6306 -0.7773  1.0429
  964MOL0     H27248   0.890   4.398  10.758  0.6098 -0.6890 -0.4784
  965MOL0     O27249   2.908   0.377   2.739 -0.3354 -0.3526  1.2495
  965MOL0     C27250   2.870   0.409   2.853  0.8801  0.0986 -0.0124
  965MOL0     O27251   2.953   0.432   2.955  0.3776  0.4420  1.0049
  965MOL0     C27252   3.082   0.417   2.930  0.4842  0.1163 -0.9608
  965MOL0     C27253   3.163   0.346   3.013  0.1751 -0.7421 -0.1554
  965MOL0     C27254   3.301   0.340   2.995  0.4847 -0.4116  0.5554
  965MOL0     C27255   3.361   0.395   2.888  0.0788  0.5101 -0.5734
  965MOL0     O27256   3.496   0.372   2.859 -0.6304  0.1099  0.0045
  965MOL0     C27257   3.572   0.501   2.850  0.4856  0.8275  0.5055
  965MOL0     C27258   3.658   0.490   2.724  0.0551  1.2773  0.1934
  965MOL0     C27259   3.772   0.388   2.758  0.0521 -0.1023  0.3295
  965MOL0     C27260   3.905   0.417   2.686 -0.1438 -0.2210  0.4134
  965MOL0     C27261   4.026   0.321   2.728  0.5589 -0.4903  0.4063
  965MOL0     C27262   3.984   0.179   2.708 -0.1230  0.4269 -0.1763
  965MOL0     C27263   3.996   0.150   2.556 -0.3359 -1.3516 -0.4393
  965MOL0     C27264   4.010   0.009   2.508  0.1027 -0.0696  0.4088
  965MOL0     N27265   4.124  -0.067   2.568  0.0564  0.2887  0.1499
  965MOL0     C27266   4.203  -0.143   2.483  0.1504  0.4467 -0.0943
  965MOL0     C27267   4.303  -0.190   2.565  0.5051  0.1169 -0.7020
  965MOL0     C27268   4.426  -0.263   2.533 -0.8349  0.4531  0.0593
  965MOL0     C27269   4.398  -0.418   2.512  0.2552 -0.0709 -0.3811
  965MOL0     C27270   4.315  -0.444   2.389  0.7670  0.6535 -0.4803
  965MOL0     C27271   4.392  -0.488   2.271  0.0841  0.3063 -0.2469
  965MOL0     O27272   4.451  -0.362   2.228  0.2270 -0.6494 -0.2602
  965MOL0     C27273   4.397  -0.278   2.127 -0.5257 -0.9977  0.3163
  965MOL0     C27274   4.464  -0.155   2.103  0.3490 -0.1334 -0.9861
  965MOL0     C27275   4.425  -0.056   2.012 -0.6711 -0.8381  0.5940
  965MOL0     C27276   4.305  -0.078   1.936 -0.9427 -0.2461 -1.1516
  965MOL0     C27277   4.264   0.011   1.826  0.5223 -0.3741  1.2242
  965MOL0     O27278   4.157  -0.024   1.751  0.5131 -0.0353  0.2700
  965MOL0     C27279   4.116   0.062   1.650 -0.4091 -0.0519  0.6288
  965MOL0     C27280   4.188   0.105   1.542  0.1975 -0.4547  0.3054
  965MOL0     C27281   4.125   0.177   1.437  0.6909 -1.2611  0.2194
  965MOL0     C27282   3.989   0.225   1.446 -0.5314  0.5319 -0.1744
  965MOL0     O27283   3.954   0.313   1.361  0.5082 -0.4736  0.3654
  965MOL0     C27284   3.839   0.389   1.374  0.0781  0.5488  0.7256
  965MOL0     C27285   3.711   0.307   1.327 -0.0503 -0.2893 -0.2646
  965MOL0     C27286   3.580   0.382   1.337 -0.5806  0.4179  0.8892
  965MOL0     C27287   3.495   0.324   1.225 -0.5486  0.0020  0.6047
  965MOL0     C27288   3.352   0.393   1.222  0.0025 -0.3807  0.2803
  965MOL0     C27289   3.276   0.351   1.096  0.5787 -0.3656 -0.2586
  965MOL0     C27290   3.339   0.366   0.952 -0.5399 -0.8524 -0.1451
  965MOL0     C27291   3.360   0.508   0.908 -0.0027  0.7581  0.0139
  965MOL0    Cl27292   3.429   0.507   0.744 -0.3123 -0.5684  0.7927
  965MOL0     C27293   3.920   0.185   1.560  0.5636  0.9899 -0.8632
  965MOL0     C27294   3.985   0.108   1.661 -0.8101 -0.2612 -0.1349
  965MOL0     O27295   4.327   0.116   1.818  0.6095 -0.2977  0.3027
  965MOL0     C27296   4.236  -0.196   1.966  1.1969  0.0216  0.9271
  965MOL0     C27297   4.273  -0.297   2.063 -0.5519  0.6035  0.9629
  965MOL0     N27298   4.272  -0.152   2.693  0.1237  0.0194  0.5464
  965MOL0     N27299   4.158  -0.092   2.694  0.1937  1.1851  0.8985
  965MOL0     C27300   3.283   0.465   2.800  0.7460  0.6071  0.9749
  965MOL0     C27301   3.146   0.491   2.828 -0.1143  0.9881  0.2780
  965MOL0     C27302   2.738   0.461   2.877 -0.3205 -0.0218  1.3761
  965MOL0     C27303   2.686   0.488   3.006 -0.1620 -0.1311  0.0454
  965MOL0     C27304   2.554   0.537   3.017  0.3500 -0.6723 -1.0086
  965MOL0     C27305   2.468   0.553   2.909 -0.0220 -0.4848 -0.2161
  965MOL0     O27306   2.336   0.588   2.933  0.6511 -0.3214  0.7021
  965MOL0     C27307   2.227   0.525   2.855  0.0331  0.2207  0.3277
  965MOL0     C27308   2.090   0.590   2.877  0.1778 -0.2004 -0.0619
  965MOL0     C27309   2.059   0.563   3.023 -0.0038 -1.1286 -0.3181
  965MOL0     C27310   1.914   0.624   3.054 -0.7737 -0.3407 -0.4420
  965MOL0     C27311   1.853   0.529   3.141  0.7424  0.0532 -0.4694
  965MOL0     C27312   1.797   0.460   3.223  0.0336 -0.5212  0.3696
  965MOL0     C27313   2.522   0.535   2.782 -0.2980  0.3278 -0.0597
  965MOL0     C27314   2.652   0.487   2.763  0.1310  0.5560  0.0822
  965MOL0     H27315   3.111   0.293   3.092 -1.9050 -0.2899 -1.1694
  965MOL0     H27316   3.350   0.262   3.051  2.3473 -0.7852 -1.4570
  965MOL0     H27317   3.635   0.507   2.939  0.0927 -0.9273  0.9349
  965MOL0     H27318   3.521   0.597   2.851 -1.3725 -0.1150  0.4919
  965MOL0     H27319   3.711   0.580   2.690  2.9035 -0.8949 -1.5653
  965MOL0     H27320   3.600   0.455   2.638  0.0715 -1.1813  1.1125
  965MOL0     H27321   3.721   0.295   2.733 -2.3564  0.8445  1.4070
  965MOL0     H27322   3.781   0.393   2.867 -2.2173 -1.8996  0.6714
  965MOL0     H27323   3.886   0.402   2.579 -0.7014  1.8410  0.1709
  965MOL0     H27324   3.931   0.520   2.710 -1.0236 -0.1225  0.9915
  965MOL0     H27325   4.045   0.331   2.835  4.3586 -3.9089  0.3148
  965MOL0     H27326   4.120   0.353   2.683  0.7475  4.2587  3.4449
  965MOL0     H27327   3.885   0.156   2.748  0.6046 -0.0187  1.4616
  965MOL0     H27328   4.047   0.114   2.771 -2.6407  1.6716  4.0311
  965MOL0     H27329   3.911   0.201   2.509 -1.9714 -1.6176  2.0597
  965MOL0     H27330   4.083   0.200   2.511 -1.8679  0.4674 -1.5466
  965MOL0     H27331   4.009   0.000   2.398  0.8025  0.1256  0.3816
  965MOL0     H27332   3.917  -0.040   2.538 -1.6086 -0.0284 -3.9802
  965MOL0     H27333   4.188  -0.159   2.377  3.2773 -0.5332 -0.5093
  965MOL0     H27334   4.508  -0.240   2.602  1.1167 -0.2152 -1.9008
  965MOL0     H27335   4.461  -0.215   2.441  1.5999 -2.1367 -0.4868
  965MOL0     H27336   4.356  -0.465   2.601  1.9529 -2.2377 -0.6219
  965MOL0     H27337   4.488  -0.478   2.496 -0.7830 -1.1260 -2.8575
  965MOL0     H27338   4.242  -0.523   2.413 -2.0320  2.3099 -2.8265
  965MOL0     H27339   4.252  -0.358   2.363  0.8750  1.2778  1.2100
  965MOL0     H27340   4.336  -0.536   2.190 -1.1724  0.5453  0.4590
  965MOL0     H27341   4.480  -0.550   2.294  0.0099  0.7984  1.5175
  965MOL0     H27342   4.544  -0.111   2.161  0.9639  3.2876 -4.0301
  965MOL0     H27343   4.484   0.034   1.997 -0.3123 -1.4398 -2.1970
  965MOL0     H27344   4.294   0.090   1.522 -0.2950  0.8020 -4.7594
  965MOL0     H27345   4.194   0.226   1.370  0.3756 -0.1342  0.6925
  965MOL0     H27346   3.860   0.460   1.293 -0.7517 -2.0575 -1.9595
  965MOL0     H27347   3.832   0.417   1.479  2.9810 -0.8809  1.4044
  965MOL0     H27348   3.713   0.210   1.379 -1.3644 -2.1538 -3.3836
  965MOL0     H27349   3.734   0.288   1.222 -2.9959  1.1469 -1.2697
  965MOL0     H27350   3.586   0.483   1.297 -2.7979 -0.6864 -2.6946
  965MOL0     H27351   3.529   0.370   1.433 -1.6896 -1.6674  0.1056
  965MOL0     H27352   3.541   0.365   1.134  0.3082  0.4929  1.2463
  965MOL0     H27353   3.493   0.215   1.226  1.9689 -0.1189 -0.0860
  965MOL0     H27354   3.360   0.502   1.218 -2.2768 -0.1591  0.8148
  965MOL0     H27355   3.280   0.364   1.299 -0.6621  0.2145 -0.1120
  965MOL0     H27356   3.177   0.397   1.104  1.3530  1.4337 -0.5849
  965MOL0     H27357   3.277   0.242   1.098  3.1098 -0.4134  0.3975
  965MOL0     H27358   3.432   0.308   0.949 -1.5611 -2.5616 -3.0834
  965MOL0     H27359   3.271   0.339   0.871  0.6227  3.0497 -2.7325
  965MOL0     H27360   3.434   0.539   0.983 -2.5384 -1.4956  3.8244
  965MOL0     H27361   3.270   0.568   0.891 -1.2518 -1.9607 -4.6460
  965MOL0     H27362   3.817   0.212   1.577 -0.7903 -4.3829  1.6075
  965MOL0     H27363   3.921   0.064   1.737 -1.0343 -1.3847 -0.9520
  965MOL0     H27364   4.145  -0.223   1.913 -0.7864  2.7191  2.6782
  965MOL0     H27365   4.231  -0.392   2.094  1.4717  0.3603  3.2308
  965MOL0     H27366   3.326   0.512   2.712 -2.8914  2.3440 -0.0385
  965MOL0     H27367   3.088   0.543   2.753  0.1574 -1.7556 -2.0378
  965MOL0     H27368   2.745   0.469   3.095 -0.1371 -0.5634 -0.0602
  965MOL0     H27369   2.528   0.551   3.122 -0.5927 -1.1167 -1.1731
  965MOL0     H27370   2.229   0.418   2.879  2.3432  0.0609 -0.2995
  965MOL0     H27371   2.251   0.540   2.749 -3.6030  0.0071 -0.6511
  965MOL0     H27372   2.096   0.697   2.853 -1.5313 -0.1057 -0.1650
  965MOL0     H27373   2.022   0.534   2.812  1.1308 -0.2749 -1.0319
  965MOL0     H27374   2.123   0.616   3.093 -4.0628  3.0208  0.6897
  965MOL0     H27375   2.050   0.455   3.041 -0.2338 -0.8674  1.1908
  965MOL0     H27376   1.925   0.715   3.113  3.0621 -1.8029  1.4750
  965MOL0     H27377   1.834   0.625   2.979 -1.5534 -3.6348  0.1485
  965MOL0     H27378   1.753   0.392   3.294  0.8029 -0.4869  0.8924
  965MOL0     H27379   2.453   0.546   2.699 -1.1848 -1.4160  0.4085
  965MOL0     H27380   2.681   0.474   2.659 -0.9664 -1.2106 -0.0501
  966MOL0     O27381   2.204  10.504   7.685  0.8136  0.3782  0.2044
  966MOL0     C27382   2.281  10.414   7.657 -0.7698 -0.4424  0.4830
  966MOL0     O27383   2.263  10.318   7.553 -1.0819 -0.3439  0.0066
  966MOL0     C27384   2.161  10.327   7.448  0.2657  0.1759  0.1972
  966MOL0     C27385   2.162  10.229   7.347 -0.3572  0.2004 -0.8198
  966MOL0     C27386   2.070  10.234   7.238  0.6158  0.0975  0.0345
  966MOL0     C27387   1.992  10.345   7.216  0.3595 -0.0320  0.2290
  966MOL0     O27388   1.900  10.372   7.114 -0.4677  0.2868 -0.1544
  966MOL0     C27389   1.902  10.288   7.002 -0.2581  0.3296 -0.1725
  966MOL0     C27390   1.828  10.349   6.884 -0.2762  0.5198 -0.7802
  966MOL0     C27391   1.684  10.383   6.923  0.1098  0.5484 -0.5255
  966MOL0     C27392   1.623  10.478   6.814  0.0401  0.4398 -0.5141
  966MOL0     C27393   1.469  10.480   6.818 -1.3713 -0.2920 -0.1353
  966MOL0     C27394   1.403  10.566   6.918  0.2584  0.3992 -0.2101
  966MOL0     C27395   1.251  10.551   6.939  0.3045  0.5247  0.1805
  966MOL0     C27396   1.166  10.583   6.808 -0.9199 -0.6582 -0.3502
  966MOL0     N27397   1.026  10.591   6.848  1.0122 -0.7020 -0.1625
  966MOL0     C27398   0.943  10.688   6.792  0.1247  1.2209  0.3494
  966MOL0     C27399   0.819  10.666   6.842  0.0720  1.3692  0.3354
  966MOL0     C27400   0.717  10.765   6.806 -0.3940  0.3308 -0.5526
  966MOL0     C27401   0.576  10.727   6.856 -0.3655  0.0343  0.3568
  966MOL0     C27402   0.568  10.772   7.005  0.8148 -0.6015 -1.0070
  966MOL0     C27403   0.439  10.715   7.070  0.6684 -1.0700  0.2296
  966MOL0     O27404   0.332  10.785   7.002 -0.2220  0.5441  1.2573
  966MOL0     C27405   0.270  10.722   6.889 -0.4896  0.3527 -1.1852
  966MOL0     C27406   0.229  10.809   6.784 -0.5270  0.1744  0.0622
  966MOL0     C27407   0.184  10.750   6.667  0.3240 -0.8778 -0.0426
  966MOL0     C27408   0.174  10.610   6.654 -0.2542  0.6589 -0.2616
  966MOL0     C27409   0.122  10.553   6.529 -0.4019  0.5266  0.3127
  966MOL0     O27410   0.027  10.622   6.464 -0.7771 -0.7123  0.6866
  966MOL0     C27411  -0.017  10.559   6.344 -0.3976 -0.1301 -0.7683
  966MOL0     C27412   0.061  10.564   6.226 -0.2076  0.3805 -0.3236
  966MOL0     C27413   0.023  10.471   6.120  1.4060 -0.4887 -0.1277
  966MOL0     C27414  -0.097  10.395   6.139  0.9716  0.3848  0.1901
  966MOL0     O27415  -0.156  10.307   6.053  0.1712  0.4195  1.2107
  966MOL0     C27416  -0.138  10.333   5.914  0.2536  0.1424  0.5785
  966MOL0     C27417  -0.249  10.260   5.846  0.5036 -0.1194  0.0383
  966MOL0     C27418  -0.389  10.287   5.892  0.1112 -0.7816 -0.0189
  966MOL0     C27419  -0.496  10.201   5.824  0.6595 -2.0043 -0.2245
  966MOL0     C27420  -0.520  10.071   5.892 -0.2948  0.1926 -0.5742
  966MOL0     C27421  -0.607   9.978   5.812 -0.6823 -0.6723 -0.0684
  966MOL0     C27422  -0.537   9.927   5.696 -0.3657 -1.0573  1.2351
  966MOL0     C27423  -0.594   9.797   5.637  0.9709 -0.1781  0.4005
  966MOL0    Cl27424  -0.601   9.655   5.760  0.3174  0.2705 -0.3130
  966MOL0     C27425  -0.172  10.410   6.252  1.3124  0.0225 -0.4736
  966MOL0     C27426  -0.133  10.490   6.353  0.4264 -0.9749 -0.6779
  966MOL0     O27427   0.164  10.450   6.498 -0.4609  0.6326 -0.4858
  966MOL0     C27428   0.207  10.527   6.765 -0.2708 -0.2959  0.3136
  966MOL0     C27429   0.257  10.583   6.881  0.5229  0.0633 -0.2014
  966MOL0     N27430   0.824  10.554   6.928  0.4470 -0.3003  1.0007
  966MOL0     N27431   0.952  10.512   6.934 -0.1856  0.1515  0.2103
  966MOL0     C27432   2.003  10.448   7.314  0.6996 -0.7063 -0.2827
  966MOL0     C27433   2.073  10.435   7.433  1.3243 -0.6212 -0.5612
  966MOL0     C27434   2.397  10.405   7.746 -0.0836 -0.0976 -0.1142
  966MOL0     C27435   2.506  10.325   7.708 -0.0545  0.0494  0.4077
  966MOL0     C27436   2.622  10.323   7.794 -0.3946  0.6638 -0.6423
  966MOL0     C27437   2.633  10.400   7.918 -0.3969 -0.0575  0.2893
  966MOL0     O27438   2.760  10.396   7.974 -0.0464 -0.0628  0.1608
  966MOL0     C27439   2.811  10.509   8.044  0.5231 -0.8359 -0.1045
  966MOL0     C27440   2.931  10.466   8.130 -0.2811 -0.0282  0.0145
  966MOL0     C27441   2.883  10.363   8.233  0.3626  0.0530 -0.2958
  966MOL0     C27442   2.944  10.401   8.371 -0.3981 -0.0517  0.5297
  966MOL0     C27443   3.089  10.392   8.360  0.6665 -0.6281  0.2132
  966MOL0     C27444   3.212  10.377   8.358  0.7050  0.0242 -0.0636
  966MOL0     C27445   2.521  10.482   7.943 -1.0423 -0.3712  1.0551
  966MOL0     C27446   2.410  10.486   7.866  0.6465  1.0202  0.2626
  966MOL0     H27447   2.235  10.149   7.347 -2.9509 -2.3697  0.7401
  966MOL0     H27448   2.041  10.154   7.170 -2.4366  0.9838  0.1034
  966MOL0     H27449   1.856  10.191   7.024 -2.7681  1.9897  2.6396
  966MOL0     H27450   2.003  10.258   6.974 -0.6416 -2.2947  0.9041
  966MOL0     H27451   1.822  10.278   6.801  0.8094  1.9001 -2.0739
  966MOL0     H27452   1.881  10.437   6.849 -1.5656  0.6206 -2.6057
  966MOL0     H27453   1.684  10.426   7.024  1.0783 -1.8248  0.5566
  966MOL0     H27454   1.618  10.296   6.915 -0.0462  0.7134 -1.0291
  966MOL0     H27455   1.659  10.581   6.820  1.1455  0.0250  0.2710
  966MOL0     H27456   1.639  10.434   6.715  0.1185  0.8028 -0.6639
  966MOL0     H27457   1.437  10.376   6.815  2.3688 -1.6206  0.8435
  966MOL0     H27458   1.442  10.527   6.724  3.1303  1.2244 -0.9111
  966MOL0     H27459   1.427  10.670   6.894  1.2051  0.0746 -0.7458
  966MOL0     H27460   1.427  10.554   7.024  1.1143  0.9241 -0.3339
  966MOL0     H27461   1.220  10.455   6.980  3.4129  0.2513  2.2729
  966MOL0     H27462   1.239  10.635   7.009  1.0011 -0.1962  1.2001
  966MOL0     H27463   1.176  10.514   6.724 -2.6299  1.1195 -2.0962
  966MOL0     H27464   1.203  10.678   6.769 -0.5007 -0.9061 -0.5710
  966MOL0     H27465   0.964  10.766   6.719 -2.0719 -0.1553 -1.9261
  966MOL0     H27466   0.714  10.770   6.697  1.0416  2.1589 -0.5624
  966MOL0     H27467   0.752  10.867   6.829 -2.5890  1.4765 -1.9644
  966MOL0     H27468   0.571  10.618   6.851  4.1274 -0.3965  0.8597
  966MOL0     H27469   0.508  10.783   6.791 -1.0881 -2.2576 -0.9952
  966MOL0     H27470   0.660  10.737   7.053  2.7128  2.6409 -1.9992
  966MOL0     H27471   0.573  10.881   7.007  1.7161 -0.5687 -2.9288
  966MOL0     H27472   0.428  10.738   7.176 -3.7205  2.3324 -0.6891
  966MOL0     H27473   0.442  10.610   7.039 -2.3690 -0.4817 -2.7049
  966MOL0     H27474   0.239  10.917   6.787 -1.0942  0.3252 -2.0789
  966MOL0     H27475   0.159  10.812   6.581 -0.9252 -4.9019 -2.9152
  966MOL0     H27476   0.157  10.614   6.215 -0.5556  1.0671 -0.2570
  966MOL0     H27477   0.073  10.464   6.023 -0.5712 -1.5114 -1.1274
  966MOL0     H27478  -0.037  10.312   5.878  3.5830  3.3284  6.5203
  966MOL0     H27479  -0.163  10.436   5.887 -2.5568 -1.0833 -2.1620
  966MOL0     H27480  -0.235  10.154   5.871 -0.6798  0.0684  1.5787
  966MOL0     H27481  -0.255  10.279   5.738 -2.7098 -4.0627 -0.7432
  966MOL0     H27482  -0.416  10.390   5.865  1.2241 -0.2324  0.8710
  966MOL0     H27483  -0.394  10.269   6.000  0.7105 -1.8683 -0.1577
  966MOL0     H27484  -0.596  10.243   5.810  1.0688 -0.8247  0.2879
  966MOL0     H27485  -0.473  10.186   5.718 -1.8042 -1.9659 -0.8337
  966MOL0     H27486  -0.581  10.099   5.978 -0.1340  2.2165 -1.0546
  966MOL0     H27487  -0.421  10.031   5.916 -1.8787 -2.9422  1.3770
  966MOL0     H27488  -0.701  10.027   5.783 -1.8339 -3.9456 -2.5530
  966MOL0     H27489  -0.639   9.897   5.879 -2.0886 -1.8277 -2.0101
  966MOL0     H27490  -0.544   9.999   5.615  2.2293 -2.0660 -0.0105
  966MOL0     H27491  -0.429   9.923   5.713 -0.1858  0.0858  0.4405
  966MOL0     H27492  -0.537   9.766   5.549  0.5374 -0.3838  0.1925
  966MOL0     H27493  -0.692   9.822   5.597  1.2871 -2.2615 -1.8568
  966MOL0     H27494  -0.268  10.361   6.264  1.8520 -1.0881 -0.6203
  966MOL0     H27495  -0.186  10.486   6.447  0.4317 -0.8081 -0.6684
  966MOL0     H27496   0.199  10.419   6.763  1.7490 -0.6496  3.5340
  966MOL0     H27497   0.276  10.516   6.964 -0.5010  0.9704  0.8185
  966MOL0     H27498   1.946  10.534   7.282  1.4853 -0.1293 -0.1502
  966MOL0     H27499   2.053  10.516   7.502  0.2774 -0.8917 -0.5358
  966MOL0     H27500   2.504  10.251   7.628  1.3679  0.1098  0.2800
  966MOL0     H27501   2.705  10.257   7.773 -0.8692 -0.1910  0.0860
  966MOL0     H27502   2.737  10.563   8.103  0.1005 -2.1295  0.5869
  966MOL0     H27503   2.856  10.579   7.973  0.5608 -2.5768 -1.9026
  966MOL0     H27504   3.007  10.422   8.065  1.3050  1.5750  0.6802
  966MOL0     H27505   2.971  10.552   8.185  0.7767 -1.4907  1.6139
  966MOL0     H27506   2.920  10.264   8.205 -1.9098 -0.8501 -0.3633
  966MOL0     H27507   2.774  10.363   8.246  0.3172  3.5704  0.3169
  966MOL0     H27508   2.910  10.494   8.416  3.2005  0.6737  2.0399
  966MOL0     H27509   2.906  10.326   8.441 -0.5226  1.5637  2.2699
  966MOL0     H27510   3.315  10.347   8.355  0.8313  0.5314 -2.3372
  966MOL0     H27511   2.536  10.551   8.026  2.8357 -0.6319  0.7824
  966MOL0     H27512   2.330  10.556   7.890  0.7084  1.4076 -0.6285
  967MOL0     O27513   2.067   7.335   9.936  0.1187  0.3964 -0.4865
  967MOL0     C27514   2.073   7.243  10.021 -0.5831  0.6584 -0.1496
  967MOL0     O27515   2.131   7.247  10.145 -0.0755  0.3925  0.6546
  967MOL0     C27516   2.170   7.373  10.180  0.1847 -0.2175  0.2291
  967MOL0     C27517   2.080   7.469  10.228 -0.6386 -0.7691 -0.3561
  967MOL0     C27518   2.130   7.602  10.241  0.1268  0.3010 -0.5496
  967MOL0     C27519   2.264   7.644  10.216  0.8857 -0.4342 -0.4123
  967MOL0     O27520   2.303   7.769  10.253 -0.6346  0.2102  0.6576
  967MOL0     C27521   2.441   7.805  10.248 -0.1505 -1.3610 -0.1354
  967MOL0     C27522   2.430   7.959  10.257 -0.6179 -0.1890 -0.3887
  967MOL0     C27523   2.579   8.018  10.280 -0.4618  0.2948 -0.6276
  967MOL0     C27524   2.669   8.015  10.158 -0.3748  0.4017 -0.6530
  967MOL0     C27525   2.811   7.961  10.193 -0.1836  0.4499  1.0804
  967MOL0     C27526   2.881   8.061  10.288  0.6506 -0.3128  0.3313
  967MOL0     C27527   3.028   8.040  10.310  0.1039  0.2417 -0.2836
  967MOL0     C27528   3.089   8.151  10.393  0.1087  0.2384 -0.0176
  967MOL0     N27529   3.238   8.142  10.392  0.3101 -0.1387 -0.2586
  967MOL0     C27530   3.309   8.100  10.498  0.7019  0.2010  0.1847
  967MOL0     C27531   3.435   8.131  10.469 -1.2181  0.6189  0.3635
  967MOL0     C27532   3.573   8.106  10.536 -0.7947 -0.3164  0.2742
  967MOL0     C27533   3.687   8.215  10.514  0.2023  0.3517  0.1880
  967MOL0     C27534   3.810   8.176  10.597 -0.0984 -0.0216  0.1894
  967MOL0     C27535   3.914   8.288  10.600 -0.7040  0.0152 -0.3446
  967MOL0     O27536   3.890   8.411  10.684 -0.0061 -0.0902 -0.0860
  967MOL0     C27537   3.958   8.532  10.657  1.2527  0.6296  0.3064
  967MOL0     C27538   4.060   8.543  10.562 -0.2774  0.2852 -0.5279
  967MOL0     C27539   4.124   8.665  10.552  0.6608 -0.4728 -0.1147
  967MOL0     C27540   4.111   8.775  10.643 -0.1386  0.1096 -0.8527
  967MOL0     C27541   4.195   8.892  10.628 -0.5883  0.1592  0.2163
  967MOL0     O27542   4.297   8.878  10.532 -0.3149 -0.2838 -0.4162
  967MOL0     C27543   4.340   8.991  10.473 -0.1540  0.7035 -0.3192
  967MOL0     C27544   4.272   9.035  10.359  1.0659 -1.0086  0.0366
  967MOL0     C27545   4.335   9.127  10.277 -0.2008 -0.3020  0.3275
  967MOL0     C27546   4.444   9.205  10.323 -0.7651  0.6418 -0.1185
  967MOL0     O27547   4.469   9.333  10.269 -1.2035 -0.3263 -0.1783
  967MOL0     C27548   4.532   9.327  10.145  0.7886  0.1254  0.8419
  967MOL0     C27549   4.586   9.468  10.114  0.0889 -1.1089  0.9083
  967MOL0     C27550   4.493   9.557  10.023  0.0764  0.0536 -0.8021
  967MOL0     C27551   4.579   9.683  10.003 -0.5302 -0.2317  0.9549
  967MOL0     C27552   4.534   9.767   9.877 -0.3190  0.6875 -0.2743
  967MOL0     C27553   4.628   9.882   9.858  1.0764 -0.6284 -0.1847
  967MOL0     C27554   4.589  10.014   9.915 -0.3943  0.6872  0.3397
  967MOL0     C27555   4.472  10.090   9.836 -0.2259  0.6577  0.4920
  967MOL0    Cl27556   4.450  10.241   9.927 -0.7527  0.4283  0.4189
  967MOL0     C27557   4.507   9.162  10.444 -0.0762  0.2478  0.5120
  967MOL0     C27558   4.450   9.061  10.521 -0.4184  0.1167  0.3242
  967MOL0     O27559   4.181   8.981  10.707  0.2376 -0.4160  0.4823
  967MOL0     C27560   4.007   8.765  10.737 -0.6860  1.1573  0.1127
  967MOL0     C27561   3.932   8.647  10.742 -0.5149 -0.7170  0.2574
  967MOL0     N27562   3.440   8.202  10.354 -0.2572  0.3816  0.0179
  967MOL0     N27563   3.314   8.216  10.312 -0.3136  0.9468 -0.1579
  967MOL0     C27564   2.346   7.536  10.183 -0.4536  1.0648  0.1988
  967MOL0     C27565   2.300   7.409  10.149 -0.0196  0.2562 -0.1751
  967MOL0     C27566   2.037   7.105   9.981  0.8134 -0.7387  0.3625
  967MOL0     C27567   1.954   7.076   9.876  0.3811 -0.0173 -0.3065
  967MOL0     C27568   1.929   6.947   9.831 -0.4070  0.1292  0.2776
  967MOL0     C27569   1.984   6.834   9.906  0.5817 -0.4068 -0.9494
  967MOL0     O27570   1.972   6.703   9.872  0.3467 -0.8929  0.1452
  967MOL0     C27571   1.870   6.662   9.778 -0.1409  0.7417 -0.1944
  967MOL0     C27572   1.940   6.639   9.640  0.0664  0.2811 -0.0180
  967MOL0     C27573   1.903   6.494   9.598  0.5100  0.2616  0.0794
  967MOL0     C27574   1.764   6.490   9.519 -0.0764  0.2383  0.1221
  967MOL0     C27575   1.714   6.356   9.497 -0.5616 -0.1903  0.8802
  967MOL0     C27576   1.681   6.250   9.455  0.3512 -0.9284 -0.4047
  967MOL0     C27577   2.054   6.868  10.019 -0.2217 -0.1320 -0.4404
  967MOL0     C27578   2.079   6.996  10.051 -0.0917  1.0637  0.2104
  967MOL0     H27579   1.977   7.435  10.238 -1.0778 -0.3382 -2.7867
  967MOL0     H27580   2.062   7.682  10.270 -0.6833 -1.2788  2.3819
  967MOL0     H27581   2.495   7.765  10.161  0.6471  1.7517 -1.2055
  967MOL0     H27582   2.491   7.778  10.341 -0.9978 -0.6961  0.5355
  967MOL0     H27583   2.382   7.987  10.352  1.4827 -1.0874  1.0280
  967MOL0     H27584   2.368   7.997  10.176 -2.1025 -2.3956 -0.3678
  967MOL0     H27585   2.617   7.960  10.365  0.6041 -0.1608 -1.4029
  967MOL0     H27586   2.572   8.124  10.307  0.4650  0.0473  0.6689
  967MOL0     H27587   2.634   7.949  10.078 -1.2873  0.5440 -0.3779
  967MOL0     H27588   2.672   8.117  10.118 -1.1889  1.1881  1.1995
  967MOL0     H27589   2.864   7.961  10.097  2.0718 -1.0780  2.2579
  967MOL0     H27590   2.794   7.859  10.227 -1.1010 -0.6590 -2.2420
  967MOL0     H27591   2.823   8.070  10.380  0.1620 -0.6720  0.0621
  967MOL0     H27592   2.886   8.156  10.233  2.0139 -0.9653 -0.7211
  967MOL0     H27593   3.054   7.944  10.356  3.1636  1.0130 -0.2151
  967MOL0     H27594   3.081   8.036  10.214  0.2618  0.2935 -0.1981
  967MOL0     H27595   3.051   8.150  10.496  0.1424  0.8163  0.0081
  967MOL0     H27596   3.067   8.249  10.349 -0.0614  0.0219 -0.4140
  967MOL0     H27597   3.260   8.066  10.589  1.0707 -0.8817 -0.0116
  967MOL0     H27598   3.614   8.016  10.490 -0.7346  0.8765 -2.1392
  967MOL0     H27599   3.550   8.095  10.643 -0.7016  0.5573  0.3860
  967MOL0     H27600   3.668   8.313  10.557  2.6621  0.8086  0.3859
  967MOL0     H27601   3.696   8.213  10.405 -2.4611 -0.6260 -0.0954
  967MOL0     H27602   3.777   8.175  10.701  0.1765 -0.3997  0.2773
  967MOL0     H27603   3.853   8.078  10.573  0.6868 -0.1785  2.0910
  967MOL0     H27604   3.928   8.314  10.495  2.1484  4.4010  0.8530
  967MOL0     H27605   4.005   8.243  10.640 -0.2800  1.4619  0.3964
  967MOL0     H27606   4.092   8.465  10.494 -1.1695 -1.1779  0.6682
  967MOL0     H27607   4.193   8.663  10.468  3.1434  0.4097  1.8193
  967MOL0     H27608   4.171   9.003  10.335  1.4733 -1.8580 -0.6087
  967MOL0     H27609   4.280   9.163  10.191 -3.5186  1.7223  3.0130
  967MOL0     H27610   4.450   9.300  10.078 -0.1230 -2.1995  2.7478
  967MOL0     H27611   4.616   9.258  10.132  1.6034  1.4164 -1.2258
  967MOL0     H27612   4.687   9.450  10.077  0.4708 -0.5061  1.6432
  967MOL0     H27613   4.591   9.530  10.204 -1.0865  2.3422 -1.2036
  967MOL0     H27614   4.403   9.586  10.077  0.8160 -1.4902  1.4025
  967MOL0     H27615   4.471   9.493   9.937  0.5452  1.6504 -2.1912
  967MOL0     H27616   4.555   9.740  10.093 -3.5919 -1.9176  1.3489
  967MOL0     H27617   4.683   9.653   9.983 -1.2333 -2.1556 -0.0884
  967MOL0     H27618   4.431   9.802   9.881 -0.7501 -0.6032  0.8001
  967MOL0     H27619   4.539   9.703   9.788  1.0463  1.6565 -0.9362
  967MOL0     H27620   4.636   9.899   9.750  2.6265 -0.8758 -0.1330
  967MOL0     H27621   4.729   9.856   9.891  0.9181 -2.1820 -0.8341
  967MOL0     H27622   4.538   9.994  10.009 -0.7276 -1.1026 -0.1796
  967MOL0     H27623   4.680  10.074   9.931 -1.2825  1.5009  2.6555
  967MOL0     H27624   4.386  10.023   9.831  1.9306 -2.2039 -3.2149
  967MOL0     H27625   4.496  10.120   9.734 -0.4796 -0.3591  0.1243
  967MOL0     H27626   4.594   9.215  10.483  0.7696 -1.5519  1.1910
  967MOL0     H27627   4.486   9.052  10.623 -1.5587  2.0111  0.9440
  967MOL0     H27628   4.006   8.838  10.818  3.0481  0.9263  0.5510
  967MOL0     H27629   3.853   8.663  10.815  0.8164 -1.9554  2.0503
  967MOL0     H27630   2.454   7.544  10.184 -0.3167 -0.5450  1.9354
  967MOL0     H27631   2.379   7.337  10.129 -1.6545 -1.7959  0.3295
  967MOL0     H27632   1.900   7.142   9.809 -1.2512 -2.6028 -1.7172
  967MOL0     H27633   1.864   6.940   9.745 -1.8630  0.9759  1.2701
  967MOL0     H27634   1.785   6.731   9.777 -0.4688  0.3632  0.6199
  967MOL0     H27635   1.822   6.578   9.829  3.6908 -0.5783  1.6125
  967MOL0     H27636   1.898   6.698   9.558 -1.5155 -0.9090 -0.1280
  967MOL0     H27637   2.048   6.653   9.650 -0.3334  1.7291  3.6430
  967MOL0     H27638   1.905   6.424   9.682 -0.7902 -0.2252 -0.2819
  967MOL0     H27639   1.979   6.457   9.529  1.0035 -3.1431  2.1933
  967MOL0     H27640   1.686   6.552   9.565 -1.2006 -0.2424 -1.0926
  967MOL0     H27641   1.776   6.532   9.418 -0.1944 -1.3744 -0.5816
  967MOL0     H27642   1.652   6.151   9.424 -1.9699 -0.3034 -0.4506
  967MOL0     H27643   2.086   6.783  10.079 -0.2821  0.2189  0.1003
  967MOL0     H27644   2.147   7.012  10.134  1.1499  2.1077 -0.9522
  968MOL0     O27645   2.319   4.124   3.090 -0.2809 -0.1269  0.1786
  968MOL0     C27646   2.228   4.119   3.167 -0.3891  0.9386  0.3866
  968MOL0     O27647   2.213   4.200   3.280  0.5112 -0.1097 -0.2195
  968MOL0     C27648   2.291   4.305   3.310 -0.1194  0.1824 -0.0215
  968MOL0     C27649   2.426   4.329   3.254 -0.3418 -0.2251 -0.0304
  968MOL0     C27650   2.502   4.433   3.300 -0.4619  0.1097  0.2833
  968MOL0     C27651   2.446   4.534   3.383  0.3016  1.0184  0.3566
  968MOL0     O27652   2.510   4.653   3.419  0.6429 -0.2685  0.5798
  968MOL0     C27653   2.585   4.731   3.315 -0.0286  1.1577  0.1024
  968MOL0     C27654   2.485   4.774   3.194  0.1061  0.0094 -0.1253
  968MOL0     C27655   2.531   4.874   3.097 -0.0499  0.2699 -0.1141
  968MOL0     C27656   2.603   4.987   3.153  0.2795 -0.8744  0.1907
  968MOL0     C27657   2.644   5.097   3.053  0.2109 -0.5665  0.0219
  968MOL0     C27658   2.519   5.182   3.002 -0.4702  0.5918 -1.0400
  968MOL0     C27659   2.567   5.293   2.913 -0.2415 -0.2846 -0.8798
  968MOL0     C27660   2.462   5.372   2.851 -0.3562  0.7644 -0.5378
  968MOL0     N27661   2.390   5.449   2.945  0.5373 -0.6805  0.8338
  968MOL0     C27662   2.444   5.550   3.024 -0.0509  0.6867  0.0386
  968MOL0     C27663   2.345   5.571   3.119 -0.4380 -0.1763  0.0228
  968MOL0     C27664   2.355   5.657   3.239  0.3537  0.2500  0.1142
  968MOL0     C27665   2.423   5.591   3.358  0.3458  0.5219 -0.7538
  968MOL0     C27666   2.578   5.585   3.362  0.6641  1.0568  0.3363
  968MOL0     C27667   2.637   5.685   3.451 -1.0562  0.5185 -0.7512
  968MOL0     O27668   2.780   5.695   3.482  0.4518 -0.1204 -0.0338
  968MOL0     C27669   2.862   5.776   3.398  1.4558  0.5821  0.1511
  968MOL0     C27670   2.979   5.813   3.452  0.5557  0.0025  0.7970
  968MOL0     C27671   3.061   5.903   3.381  0.4518 -0.3423 -0.0418
  968MOL0     C27672   3.026   5.955   3.253  0.0598  0.0791 -0.1887
  968MOL0     C27673   3.120   6.035   3.176 -0.0186 -1.6688  1.7320
  968MOL0     O27674   3.248   6.053   3.214  0.6055 -0.6408 -0.3991
  968MOL0     C27675   3.331   6.138   3.159  0.1576  0.6743 -0.3852
  968MOL0     C27676   3.464   6.092   3.140 -0.9331 -0.1085  0.0849
  968MOL0     C27677   3.562   6.172   3.075 -0.1027  0.7236  0.2063
  968MOL0     C27678   3.526   6.301   3.042 -0.5998  0.1033  0.2479
  968MOL0     O27679   3.613   6.392   2.981 -0.3801  0.6107 -0.4499
  968MOL0     C27680   3.757   6.373   2.958  0.0057 -0.0497 -1.1712
  968MOL0     C27681   3.787   6.279   2.834 -0.2231  0.5593  0.0873
  968MOL0     C27682   3.758   6.331   2.692  0.1801  0.0234 -0.1050
  968MOL0     C27683   3.809   6.227   2.587  0.2741 -0.8863 -0.6221
  968MOL0     C27684   3.944   6.293   2.547 -0.4315  0.2858 -0.3737
  968MOL0     C27685   4.012   6.197   2.452  0.6559 -0.1092 -0.4148
  968MOL0     C27686   4.145   6.247   2.401 -0.7864 -0.1753 -0.3902
  968MOL0     C27687   4.209   6.156   2.302  0.1633 -1.3180  0.2086
  968MOL0    Cl27688   4.216   5.989   2.368  0.0449 -0.4057  0.3512
  968MOL0     C27689   3.401   6.360   3.069  0.4318  0.0037 -0.3280
  968MOL0     C27690   3.302   6.276   3.133  0.0685  0.5109 -0.3317
  968MOL0     O27691   3.068   6.095   3.079 -0.8780 -0.5407  0.3148
  968MOL0     C27692   2.904   5.912   3.201 -0.5006  0.4252  0.2518
  968MOL0     C27693   2.819   5.826   3.270 -0.7947 -0.4400 -0.3131
  968MOL0     N27694   2.235   5.498   3.087 -0.5394 -0.1868 -0.1473
  968MOL0     N27695   2.262   5.433   2.978  0.7745  0.7174 -0.8023
  968MOL0     C27696   2.313   4.522   3.425  0.7939  0.8697 -0.4404
  968MOL0     C27697   2.240   4.398   3.407  0.2099  0.8459  0.3999
  968MOL0     C27698   2.127   4.015   3.148 -0.1910 -0.1747 -0.3385
  968MOL0     C27699   2.130   3.928   3.043 -0.3860 -0.0343 -0.1765
  968MOL0     C27700   2.023   3.838   3.017  0.5060  0.2399  0.2512
  968MOL0     C27701   1.930   3.831   3.120 -0.5426  0.6333 -0.4268
  968MOL0     O27702   1.832   3.737   3.124 -0.5172 -0.5140 -0.0079
  968MOL0     C27703   1.887   3.620   3.194  0.3964 -0.9904 -0.1156
  968MOL0     C27704   1.893   3.493   3.115  0.0731 -0.5331  0.3217
  968MOL0     C27705   1.756   3.457   3.062  0.7879  0.5206  1.4958
  968MOL0     C27706   1.763   3.357   2.958 -0.1448  0.0407  1.2139
  968MOL0     C27707   1.839   3.231   2.983 -0.2884  0.0181 -0.1181
  968MOL0     C27708   1.891   3.128   3.017  0.0406  0.0536 -0.0075
  968MOL0     C27709   1.918   3.916   3.220 -0.9321 -0.3575 -0.0069
  968MOL0     C27710   2.023   4.010   3.236  1.0334  0.5577 -1.0284
  968MOL0     H27711   2.475   4.262   3.183  0.3551  0.1314  0.0995
  968MOL0     H27712   2.606   4.443   3.271  0.1032 -1.4716  1.6058
  968MOL0     H27713   2.665   4.668   3.277 -0.9732 -0.7713  1.1714
  968MOL0     H27714   2.631   4.816   3.365  0.9945  2.0340 -2.2114
  968MOL0     H27715   2.394   4.810   3.243 -1.7757 -2.0271 -1.9152
  968MOL0     H27716   2.453   4.690   3.131  0.3228  0.3857 -0.7509
  968MOL0     H27717   2.443   4.915   3.046  0.2365  1.8085  0.5684
  968MOL0     H27718   2.602   4.833   3.026  3.5267  4.4008  0.6745
  968MOL0     H27719   2.544   5.023   3.237 -1.1690 -0.8760 -0.8018
  968MOL0     H27720   2.701   4.969   3.198  1.2791  2.3158 -0.4219
  968MOL0     H27721   2.702   5.047   2.975  2.0368 -1.7028  1.9982
  968MOL0     H27722   2.713   5.173   3.090 -0.4622 -0.2473  0.6554
  968MOL0     H27723   2.474   5.226   3.091  2.4546 -0.0647  0.9295
  968MOL0     H27724   2.436   5.132   2.951 -0.7711 -2.0828  1.8090
  968MOL0     H27725   2.630   5.357   2.976 -3.6040  2.2130  0.2066
  968MOL0     H27726   2.619   5.250   2.827 -3.2976  1.4633 -3.8466
  968MOL0     H27727   2.400   5.311   2.785 -0.6193  3.3514 -2.9201
  968MOL0     H27728   2.523   5.430   2.780  0.1539 -0.5911 -1.2551
  968MOL0     H27729   2.540   5.600   3.024  0.6860 -0.1876  5.0883
  968MOL0     H27730   2.252   5.688   3.260  0.5136  1.7593 -1.1496
  968MOL0     H27731   2.414   5.746   3.219 -0.7865  0.3465 -3.4704
  968MOL0     H27732   2.397   5.485   3.351  1.3157 -0.0363  2.5168
  968MOL0     H27733   2.386   5.632   3.452  0.3442  0.6358 -0.8049
  968MOL0     H27734   2.612   5.488   3.400 -0.7514 -0.8291 -2.7770
  968MOL0     H27735   2.625   5.596   3.264  1.8049 -2.7196  0.3004
  968MOL0     H27736   2.598   5.674   3.553  0.7316  2.0206  0.1402
  968MOL0     H27737   2.592   5.781   3.425 -3.5089 -0.6318 -1.1122
  968MOL0     H27738   3.014   5.774   3.547  1.3480 -1.3311 -0.0232
  968MOL0     H27739   3.153   5.937   3.428  0.5395  1.2525 -1.2951
  968MOL0     H27740   3.498   5.992   3.165 -0.9774 -0.0838  0.2484
  968MOL0     H27741   3.666   6.143   3.066  1.3364  5.1356  0.1734
  968MOL0     H27742   3.788   6.339   3.057  0.1022  0.6273 -0.9611
  968MOL0     H27743   3.801   6.473   2.950 -0.9168  0.4421 -0.3013
  968MOL0     H27744   3.743   6.180   2.849 -0.2219  0.4923 -0.3308
  968MOL0     H27745   3.894   6.254   2.829  0.0800  1.9540 -2.6777
  968MOL0     H27746   3.802   6.430   2.682 -0.0248  0.1150 -0.1169
  968MOL0     H27747   3.651   6.354   2.687  0.7517  2.9405 -0.5693
  968MOL0     H27748   3.834   6.135   2.641 -0.4673  0.0559  1.4105
  968MOL0     H27749   3.743   6.232   2.500  0.5623 -0.2944 -0.8156
  968MOL0     H27750   4.014   6.312   2.629 -2.1397 -3.3181  2.1956
  968MOL0     H27751   3.926   6.383   2.487 -0.8579  0.0385 -0.6188
  968MOL0     H27752   3.940   6.175   2.372 -0.6126  0.1865  0.5979
  968MOL0     H27753   4.029   6.107   2.511  0.6520  0.7585  0.9569
  968MOL0     H27754   4.134   6.348   2.361 -1.4000 -0.4628 -0.9631
  968MOL0     H27755   4.213   6.256   2.487 -2.8541 -0.6880  1.3954
  968MOL0     H27756   4.308   6.196   2.276  0.9138 -1.2551  2.8545
  968MOL0     H27757   4.152   6.150   2.209  2.4432  1.8867 -1.5902
  968MOL0     H27758   3.388   6.465   3.048  0.4247  0.1182  0.2342
  968MOL0     H27759   3.200   6.312   3.135  0.2843  1.1552 -0.6136
  968MOL0     H27760   2.876   5.931   3.098  0.2721 -0.6917 -0.1834
  968MOL0     H27761   2.722   5.794   3.232 -1.2319  0.2019  0.2234
  968MOL0     H27762   2.273   4.603   3.485  2.6079  2.1900 -0.9099
  968MOL0     H27763   2.136   4.390   3.434 -0.9142  1.5548 -3.1317
  968MOL0     H27764   2.210   3.936   2.969  0.0571  1.3370  0.4163
  968MOL0     H27765   2.031   3.775   2.928 -1.1229  1.1371 -0.5738
  968MOL0     H27766   1.814   3.613   3.275  0.4861 -1.4055 -0.0720
  968MOL0     H27767   1.982   3.643   3.243  0.7599  0.2651 -1.3373
  968MOL0     H27768   1.964   3.509   3.033 -0.0454 -0.6571  0.1953
  968MOL0     H27769   1.923   3.412   3.182 -0.8079 -0.5849  0.6615
  968MOL0     H27770   1.701   3.546   3.030 -1.1787 -1.6847 -1.7820
  968MOL0     H27771   1.696   3.418   3.144  0.4827  0.4290  1.2296
  968MOL0     H27772   1.662   3.318   2.944  0.3795 -1.6235  1.8420
  968MOL0     H27773   1.796   3.408   2.867 -4.8846 -1.6361 -1.8676
  968MOL0     H27774   1.944   3.038   3.037  1.2602  0.6984 -0.2734
  968MOL0     H27775   1.838   3.923   3.293  0.6139 -0.6642  1.7923
  968MOL0     H27776   2.017   4.074   3.323 -0.6208  0.5944 -1.1471
  969MOL0     O27777  11.293   3.172   6.486  0.4723 -0.4623  0.3247
  969MOL0     C27778  11.308   3.140   6.602  0.0006  0.7300  0.8533
  969MOL0     O27779  11.223   3.058   6.674  0.3973 -0.2960  0.0808
  969MOL0     C27780  11.112   3.002   6.618 -0.7961  0.2421 -0.9228
  969MOL0     C27781  11.082   2.877   6.667 -0.3220  1.0459 -0.3261
  969MOL0     C27782  10.966   2.818   6.615  0.7681  0.7185  0.5638
  969MOL0     C27783  10.894   2.871   6.506  0.0827 -0.1342  0.2150
  969MOL0     O27784  10.790   2.785   6.469  0.1308 -0.1299 -0.3029
  969MOL0     C27785  10.714   2.817   6.356  0.9784 -0.6347 -0.4851
  969MOL0     C27786  10.626   2.700   6.328 -0.0288  0.8130 -0.4742
  969MOL0     C27787  10.495   2.694   6.407 -0.7253 -0.3342  0.2022
  969MOL0     C27788  10.427   2.568   6.366  0.2981  1.1481  0.1944
  969MOL0     C27789  10.321   2.503   6.469 -0.4841 -0.2580 -0.2652
  969MOL0     C27790  10.383   2.478   6.609 -0.2825  0.4809 -0.6823
  969MOL0     C27791  10.520   2.401   6.587  0.0719 -0.9357 -0.0783
  969MOL0     C27792  10.565   2.316   6.706 -0.0339 -1.1884  0.3109
  969MOL0     N27793  10.485   2.207   6.755 -0.4479  0.5132  0.0428
  969MOL0     C27794  10.421   2.194   6.876  0.4319  0.2627  0.6570
  969MOL0     C27795  10.386   2.068   6.890 -0.3920  0.0080  0.3523
  969MOL0     C27796  10.320   2.002   7.010  0.5219 -0.2197  1.4425
  969MOL0     C27797  10.179   2.067   7.027 -0.5947 -0.8459  0.8188
  969MOL0     C27798  10.110   2.009   7.153 -0.6593  0.0792  1.2913
  969MOL0     C27799  10.061   1.865   7.137 -0.6444  0.7332 -0.0026
  969MOL0     O27800   9.966   1.837   7.029  0.1095 -0.5326 -0.0062
  969MOL0     C27801   9.921   1.706   7.008  0.4596 -0.7739  0.2828
  969MOL0     C27802   9.815   1.688   6.923  0.3506 -0.5493  0.6621
  969MOL0     C27803   9.758   1.558   6.908  0.5047 -0.0197  0.1814
  969MOL0     C27804   9.800   1.449   6.987  0.5012  0.7361 -0.6919
  969MOL0     C27805   9.737   1.312   6.986 -0.2053 -0.3493 -1.6723
  969MOL0     O27806   9.661   1.278   6.882 -0.5410  0.6777 -0.4191
  969MOL0     C27807   9.592   1.154   6.877 -0.2942 -0.3584 -0.5503
  969MOL0     C27808   9.581   1.087   6.754  0.3279 -0.2081  0.3866
  969MOL0     C27809   9.519   0.953   6.744 -0.2494 -0.4124 -0.3949
  969MOL0     C27810   9.472   0.894   6.859  0.1742 -0.4282 -0.2277
  969MOL0     O27811   9.427   0.770   6.873  0.3248 -0.0528 -0.5689
  969MOL0     C27812   9.380   0.700   6.762 -0.2601  0.3444  0.4191
  969MOL0     C27813   9.349   0.552   6.785  0.2286 -0.4326  0.3676
  969MOL0     C27814   9.253   0.532   6.909 -0.3974  0.4297 -0.1097
  969MOL0     C27815   9.108   0.575   6.887 -0.5497  0.7305 -0.4530
  969MOL0     C27816   9.006   0.500   6.985 -0.8901  1.1608  0.5351
  969MOL0     C27817   8.859   0.500   6.946 -0.7515 -0.5346  0.0302
  969MOL0     C27818   8.764   0.468   7.066 -0.2721  0.3394  0.4243
  969MOL0     C27819   8.788   0.327   7.121 -0.0219  0.5182  0.6620
  969MOL0    Cl27820   8.758   0.207   6.977  0.2174 -0.5304  0.2795
  969MOL0     C27821   9.477   0.964   6.974 -0.7809 -0.5630 -0.5962
  969MOL0     C27822   9.534   1.086   6.990 -0.3460  0.1470  0.0287
  969MOL0     O27823   9.746   1.244   7.094 -0.5832  0.1017 -1.6075
  969MOL0     C27824   9.909   1.471   7.068  0.0131  0.5054 -0.4602
  969MOL0     C27825   9.973   1.597   7.079 -0.1321  0.9629 -0.2959
  969MOL0     N27826  10.420   2.007   6.771  0.9107 -0.2241 -0.1736
  969MOL0     N27827  10.472   2.091   6.690 -0.0294 -0.7188  0.6709
  969MOL0     C27828  10.929   3.003   6.461  0.9250 -0.8807 -0.8001
  969MOL0     C27829  11.037   3.068   6.522 -0.7425  0.1434  0.7726
  969MOL0     C27830  11.439   3.186   6.657 -0.0226 -0.1275 -0.3326
  969MOL0     C27831  11.542   3.247   6.596  1.2586 -0.5846  0.8514
  969MOL0     C27832  11.663   3.275   6.659 -0.2504 -0.7652  0.4387
  969MOL0     C27833  11.678   3.245   6.794  0.0490  0.4635  0.0074
  969MOL0     O27834  11.813   3.256   6.840  0.0382  0.3606  0.2929
  969MOL0     C27835  11.842   3.383   6.897 -0.6790 -0.6685 -0.7176
  969MOL0     C27836  11.875   3.379   7.048  0.5351 -0.3612  0.5821
  969MOL0     C27837  11.753   3.293   7.123  0.4176 -0.7730 -0.2819
  969MOL0     C27838  11.792   3.264   7.271  0.9061  0.4749  0.0913
  969MOL0     C27839  11.775   3.392   7.343 -0.1949  0.4252  0.3853
  969MOL0     C27840  11.761   3.501   7.403 -0.7792 -0.7984  0.4239
  969MOL0     C27841  11.578   3.178   6.860 -0.4328 -0.6168  0.3717
  969MOL0     C27842  11.454   3.145   6.792 -0.6273  0.0059 -0.6800
  969MOL0     H27843  11.134   2.828   6.749  0.2339  0.9378 -0.7444
  969MOL0     H27844  10.946   2.717   6.648 -0.3565  0.6078 -0.3699
  969MOL0     H27845  10.787   2.833   6.276  0.6609 -0.5881 -0.7674
  969MOL0     H27846  10.664   2.913   6.372  0.9055 -0.7737  0.1403
  969MOL0     H27847  10.683   2.606   6.333  2.3280  2.1816  0.0645
  969MOL0     H27848  10.597   2.712   6.224 -1.3444  1.3046 -0.0702
  969MOL0     H27849  10.446   2.791   6.401 -3.9487 -1.8710 -0.9259
  969MOL0     H27850  10.506   2.694   6.516 -0.8265  3.6429  0.3553
  969MOL0     H27851  10.373   2.581   6.272 -2.2446 -1.3241  1.1789
  969MOL0     H27852  10.506   2.498   6.335 -1.5353  0.2075 -2.7690
  969MOL0     H27853  10.281   2.407   6.437  3.4210 -1.6101 -1.7323
  969MOL0     H27854  10.235   2.568   6.484  0.7144  1.4909 -0.6151
  969MOL0     H27855  10.320   2.418   6.675  0.2509  0.1641 -0.4479
  969MOL0     H27856  10.393   2.577   6.655 -0.4880  1.7940 -3.2568
  969MOL0     H27857  10.505   2.335   6.501 -0.2984 -0.2539 -0.5512
  969MOL0     H27858  10.601   2.467   6.555 -2.6356  2.0141 -1.3954
  969MOL0     H27859  10.565   2.385   6.790  2.5970 -1.0683  0.3017
  969MOL0     H27860  10.665   2.284   6.676  2.0428  3.5516  1.3849
  969MOL0     H27861  10.387   2.270   6.947 -0.9238 -1.6214  2.1408
  969MOL0     H27862  10.390   2.016   7.093 -1.2765 -0.7666  3.1258
  969MOL0     H27863  10.298   1.896   6.998  0.3755 -0.1123  0.7013
  969MOL0     H27864  10.128   2.042   6.933  4.0943 -2.0192 -1.7738
  969MOL0     H27865  10.191   2.175   7.028  0.3249 -0.9062 -0.3427
  969MOL0     H27866  10.169   2.020   7.244 -2.1228  2.7803  2.0198
  969MOL0     H27867  10.030   2.078   7.181 -0.0339  1.6251 -0.4923
  969MOL0     H27868  10.012   1.842   7.232  2.0017  1.6348  1.7092
  969MOL0     H27869  10.153   1.808   7.127 -0.6773  0.5159  0.8649
  969MOL0     H27870   9.788   1.783   6.877  1.1786  0.2723  1.8189
  969MOL0     H27871   9.668   1.532   6.853  0.3534  2.6987 -0.9945
  969MOL0     H27872   9.619   1.128   6.661  2.0507  5.4321  3.1568
  969MOL0     H27873   9.521   0.911   6.644 -1.6400 -2.2926  0.3068
  969MOL0     H27874   9.447   0.708   6.675  0.6961 -3.5386  0.5985
  969MOL0     H27875   9.285   0.740   6.726 -1.0779 -0.1263  2.0061
  969MOL0     H27876   9.441   0.494   6.785 -0.0920 -1.0425 -1.7522
  969MOL0     H27877   9.301   0.507   6.697 -1.8811 -0.6204  1.5583
  969MOL0     H27878   9.298   0.597   6.984 -1.3775  0.9879  0.0052
  969MOL0     H27879   9.263   0.426   6.937 -1.4266 -0.3481 -2.3754
  969MOL0     H27880   9.105   0.684   6.897  0.3509  0.6828  0.5785
  969MOL0     H27881   9.088   0.562   6.781  1.3423 -0.4188 -0.7024
  969MOL0     H27882   9.027   0.541   7.084  2.2040  0.1365  0.3963
  969MOL0     H27883   9.035   0.394   6.984 -3.1448  0.3752 -3.0067
  969MOL0     H27884   8.848   0.419   6.874  2.0249 -0.0331 -1.1110
  969MOL0     H27885   8.838   0.594   6.894  0.6070 -0.8161 -1.0993
  969MOL0     H27886   8.783   0.542   7.144  2.0326  0.8757 -0.5532
  969MOL0     H27887   8.659   0.477   7.035 -0.0894 -1.8611 -1.1131
  969MOL0     H27888   8.726   0.308   7.208  0.5178  0.8534  1.1297
  969MOL0     H27889   8.888   0.309   7.163  0.1666 -1.2171 -0.4194
  969MOL0     H27890   9.439   0.921   7.067 -0.2941 -1.6479 -0.8763
  969MOL0     H27891   9.534   1.133   7.088 -3.8905 -2.2231  1.3573
  969MOL0     H27892   9.963   1.397   7.128  2.4943  2.7212  0.1997
  969MOL0     H27893  10.054   1.605   7.150  1.2844  0.4680 -1.8041
  969MOL0     H27894  10.890   3.047   6.369  0.6196 -4.0720 -2.3364
  969MOL0     H27895  11.071   3.160   6.475 -0.0759 -0.8448 -0.7511
  969MOL0     H27896  11.528   3.267   6.490 -1.5398  0.7998  1.3968
  969MOL0     H27897  11.742   3.326   6.604 -1.5810  0.8856 -0.0275
  969MOL0     H27898  11.763   3.458   6.884 -2.5215 -1.5956  3.4426
  969MOL0     H27899  11.929   3.429   6.849 -1.9718  3.6546  0.6038
  969MOL0     H27900  11.972   3.328   7.041  0.8931  0.5278 -1.8141
  969MOL0     H27901  11.869   3.482   7.084 -5.3511  0.1402 -0.8526
  969MOL0     H27902  11.742   3.200   7.068 -0.9981 -0.9231  0.2123
  969MOL0     H27903  11.656   3.341   7.108  0.9063 -0.1260 -1.4879
  969MOL0     H27904  11.730   3.189   7.321  1.9568 -1.1441 -0.9264
  969MOL0     H27905  11.896   3.231   7.285  1.1069  2.2891  4.8409
  969MOL0     H27906  11.759   3.587   7.468  1.3029 -0.4333  0.0835
  969MOL0     H27907  11.588   3.124   6.953  0.3823 -3.5569 -1.3017
  969MOL0     H27908  11.389   3.075   6.843  0.6958 -0.4543  0.4421
  970MOL0     O27909   5.102   7.385   7.941  0.1398 -0.1428 -0.3455
  970MOL0     C27910   5.058   7.268   7.939  0.1543 -1.1067 -0.1332
  970MOL0     O27911   5.055   7.179   7.836 -0.3402  0.1865  0.6444
  970MOL0     C27912   5.115   7.212   7.717  0.4650  0.2786  0.1495
  970MOL0     C27913   5.035   7.270   7.622  0.0502  0.0046  1.0726
  970MOL0     C27914   5.077   7.314   7.508 -1.7349  0.0530  0.2249
  970MOL0     C27915   5.217   7.327   7.484 -0.4088 -0.1355 -0.1109
  970MOL0     O27916   5.275   7.394   7.377 -0.1671  0.5624 -0.3871
  970MOL0     C27917   5.197   7.485   7.303 -0.3315 -0.7367 -1.2435
  970MOL0     C27918   5.284   7.576   7.218  0.7671  1.2026 -0.2127
  970MOL0     C27919   5.206   7.639   7.100 -0.2954  0.3176 -1.4072
  970MOL0     C27920   5.272   7.761   7.032 -0.6239 -0.6293 -0.8996
  970MOL0     C27921   5.177   7.820   6.921  0.5556  0.3734  0.3753
  970MOL0     C27922   5.044   7.903   6.967 -0.0876  0.2849 -0.3370
  970MOL0     C27923   5.069   8.043   7.014  0.1582 -0.1986  0.4075
  970MOL0     C27924   4.949   8.106   7.077  1.0430 -0.6190  0.8350
  970MOL0     N27925   4.816   8.095   7.016 -0.1631 -0.2496 -0.3589
  970MOL0     C27926   4.728   8.198   6.988 -0.2547 -0.0623  0.1651
  970MOL0     C27927   4.605   8.145   6.998  0.4916 -0.4605 -0.2315
  970MOL0     C27928   4.476   8.207   6.987  0.1395 -0.3875 -0.7322
  970MOL0     C27929   4.449   8.305   7.106  0.5025 -0.5405  0.1893
  970MOL0     C27930   4.313   8.378   7.097  0.6430 -1.1031 -0.3739
  970MOL0     C27931   4.285   8.472   7.211 -0.5090  0.0531  1.0759
  970MOL0     O27932   4.361   8.593   7.182  0.8147 -0.5049 -0.0072
  970MOL0     C27933   4.289   8.714   7.175  0.1463 -0.3330 -0.0068
  970MOL0     C27934   4.321   8.810   7.086  0.5364 -0.1647 -0.4219
  970MOL0     C27935   4.251   8.929   7.077 -0.2661 -0.2580  0.0023
  970MOL0     C27936   4.149   8.957   7.159 -0.0436  0.6731  0.6015
  970MOL0     C27937   4.059   9.079   7.152  0.4085  1.7380  0.5838
  970MOL0     O27938   3.960   9.081   7.255  0.7798 -0.2949 -0.3587
  970MOL0     C27939   3.901   9.199   7.297 -0.0742  0.1315 -0.4450
  970MOL0     C27940   3.767   9.214   7.305 -0.2227 -0.1980  0.1444
  970MOL0     C27941   3.721   9.343   7.339 -0.6788  1.1901  0.1168
  970MOL0     C27942   3.801   9.449   7.372 -0.4756  0.8205 -0.1412
  970MOL0     O27943   3.732   9.560   7.413 -0.6222 -0.3481 -0.1355
  970MOL0     C27944   3.814   9.654   7.472  0.3906 -0.3324 -0.1749
  970MOL0     C27945   3.760   9.793   7.462  0.2421  0.6449  0.6357
  970MOL0     C27946   3.694   9.837   7.592 -0.5884  0.4600  0.9610
  970MOL0     C27947   3.669   9.987   7.606 -0.3712  1.0260  0.7241
  970MOL0     C27948   3.627  10.067   7.487 -0.0843 -0.3996 -0.3770
  970MOL0     C27949   3.567  10.202   7.539  0.4039  0.0712  0.4092
  970MOL0     C27950   3.670  10.305   7.584  1.0447  1.7920  0.3075
  970MOL0     C27951   3.611  10.450   7.586 -0.7649  0.1331 -0.4060
  970MOL0    Cl27952   3.736  10.568   7.628  0.2127 -0.1251  0.1166
  970MOL0     C27953   3.939   9.420   7.377  0.0805 -0.5714 -0.2181
  970MOL0     C27954   3.992   9.297   7.336  0.0340  0.6308 -0.6559
  970MOL0     O27955   4.070   9.159   7.055  0.2444  0.7366 -0.4933
  970MOL0     C27956   4.131   8.869   7.269  0.0110 -0.0283 -0.3129
  970MOL0     C27957   4.191   8.743   7.272 -0.0604  0.3853  0.5415
  970MOL0     N27958   4.623   8.010   7.020  0.0279  0.1381 -0.0253
  970MOL0     N27959   4.746   7.980   7.034  0.1274 -0.0269 -0.0535
  970MOL0     C27960   5.301   7.261   7.577  0.3389  0.2613 -0.2662
  970MOL0     C27961   5.251   7.205   7.696  0.2402  0.2624  0.3119
  970MOL0     C27962   4.995   7.222   8.072 -0.7600 -0.1766  0.4804
  970MOL0     C27963   4.989   7.300   8.187 -0.6186  0.5760 -0.8062
  970MOL0     C27964   4.926   7.260   8.300  0.0319  0.0894 -0.4914
  970MOL0     C27965   4.855   7.140   8.303  0.7568  0.0805 -0.3972
  970MOL0     O27966   4.778   7.090   8.407  0.2456 -0.1610 -0.5866
  970MOL0     C27967   4.767   7.169   8.522  0.4733 -0.1027 -0.6507
  970MOL0     C27968   4.646   7.250   8.491  0.1331 -0.1071  1.2217
  970MOL0     C27969   4.570   7.320   8.602  0.2918 -0.0752  0.0011
  970MOL0     C27970   4.628   7.470   8.609 -0.8729  0.1785 -0.4262
  970MOL0     C27971   4.778   7.474   8.638  0.1713  0.0082  0.0672
  970MOL0     C27972   4.895   7.485   8.665  0.1681  0.4181 -1.7216
  970MOL0     C27973   4.856   7.061   8.184  1.2363  0.0791 -0.8786
  970MOL0     C27974   4.922   7.106   8.067 -0.9070  0.4022  0.1475
  970MOL0     H27975   4.927   7.273   7.635 -0.6009 -1.2023 -2.7051
  970MOL0     H27976   5.000   7.350   7.440 -0.6776 -0.5771 -1.3845
  970MOL0     H27977   5.137   7.538   7.378  2.0422  0.0975  0.1591
  970MOL0     H27978   5.124   7.441   7.235 -1.6752  2.3315 -1.9506
  970MOL0     H27979   5.365   7.521   7.168 -1.8336 -4.6345  1.1155
  970MOL0     H27980   5.323   7.664   7.270 -0.0990  0.8929  1.0116
  970MOL0     H27981   5.115   7.681   7.143  0.4561 -0.4114  1.0981
  970MOL0     H27982   5.169   7.557   7.038 -2.2359  0.6689 -0.7836
  970MOL0     H27983   5.312   7.841   7.095  3.1437 -1.5584 -1.8619
  970MOL0     H27984   5.357   7.719   6.977 -0.4778 -0.3749 -0.8669
  970MOL0     H27985   5.155   7.737   6.853 -1.8334 -0.1336  1.6789
  970MOL0     H27986   5.220   7.904   6.866 -3.0474  0.6133 -2.5048
  970MOL0     H27987   4.992   7.838   7.037  0.3067 -2.5462 -2.5020
  970MOL0     H27988   4.966   7.900   6.890  0.5513 -0.2288 -0.9823
  970MOL0     H27989   5.150   8.058   7.087 -0.4482  1.1926  0.8194
  970MOL0     H27990   5.093   8.099   6.923 -1.8124 -1.1786 -0.7672
  970MOL0     H27991   4.966   8.212   7.099 -1.4775  0.5713 -2.2126
  970MOL0     H27992   4.952   8.066   7.179  1.3107 -2.6315  0.0785
  970MOL0     H27993   4.753   8.301   6.967  0.9336 -0.5057 -0.7258
  970MOL0     H27994   4.401   8.128   6.974  2.4966 -2.4200 -3.2436
  970MOL0     H27995   4.471   8.265   6.895 -0.6259 -0.5435 -0.7957
  970MOL0     H27996   4.536   8.371   7.112  0.2473 -0.3095  2.2292
  970MOL0     H27997   4.440   8.256   7.203 -3.2806  2.7427  1.8120
  970MOL0     H27998   4.301   8.421   6.997 -0.7623 -0.7176 -0.0671
  970MOL0     H27999   4.237   8.300   7.109  1.5879 -2.2519 -1.5942
  970MOL0     H28000   4.304   8.422   7.307  2.2554 -1.9917 -0.3986
  970MOL0     H28001   4.177   8.492   7.209 -0.8425 -0.9790 -3.7104
  970MOL0     H28002   4.398   8.793   7.011 -0.1615 -0.7919 -1.0089
  970MOL0     H28003   4.281   8.976   6.984  0.8036 -0.7677  0.0836
  970MOL0     H28004   3.692   9.140   7.276 -0.2112 -0.7203  1.3796
  970MOL0     H28005   3.614   9.358   7.346 -0.5038  2.0756  1.2542
  970MOL0     H28006   3.918   9.667   7.440  2.2775 -2.7881  4.1198
  970MOL0     H28007   3.825   9.626   7.577  0.4450 -1.1520 -0.3891
  970MOL0     H28008   3.688   9.801   7.381  0.6657  2.3915  0.4002
  970MOL0     H28009   3.829   9.866   7.420 -1.8379  0.7200 -3.0798
  970MOL0     H28010   3.774   9.819   7.665 -0.8666 -1.4713  0.8269
  970MOL0     H28011   3.605   9.775   7.598 -2.4795  2.8622 -0.3927
  970MOL0     H28012   3.582   9.987   7.672 -1.7775  0.6747 -1.0309
  970MOL0     H28013   3.754  10.036   7.654  2.1671 -1.4225 -0.9421
  970MOL0     H28014   3.563  10.001   7.428  0.3636 -2.6288  1.4592
  970MOL0     H28015   3.718  10.101   7.439  1.8794 -0.6540  2.8519
  970MOL0     H28016   3.502  10.177   7.623  0.6806 -4.1657 -0.3748
  970MOL0     H28017   3.508  10.239   7.455  2.5366 -0.9720 -1.6711
  970MOL0     H28018   3.694  10.267   7.684 -2.1050  1.8184  1.1718
  970MOL0     H28019   3.763  10.301   7.527 -0.1313  1.4372 -1.6638
  970MOL0     H28020   3.520  10.459   7.647 -0.1440  0.3641  0.4987
  970MOL0     H28021   3.583  10.479   7.484 -4.6925  0.9777  0.7180
  970MOL0     H28022   4.024   9.480   7.406  2.9498 -3.2375 -2.4067
  970MOL0     H28023   4.098   9.276   7.325 -0.1713 -0.3494 -0.8525
  970MOL0     H28024   4.064   8.881   7.354  0.9754 -0.8496  0.5833
  970MOL0     H28025   4.173   8.676   7.356 -0.1848  0.1309  0.3147
  970MOL0     H28026   5.404   7.258   7.543  0.4571 -0.4447  0.1520
  970MOL0     H28027   5.317   7.167   7.773  0.4313  1.1680  0.5957
  970MOL0     H28028   5.051   7.389   8.186 -2.4969  1.9520 -0.1227
  970MOL0     H28029   4.945   7.312   8.394 -0.4005 -1.5715  0.5576
  970MOL0     H28030   4.854   7.223   8.563 -0.8613  0.0976  2.2071
  970MOL0     H28031   4.722   7.107   8.600 -0.2259 -1.8883 -2.4210
  970MOL0     H28032   4.656   7.324   8.412 -1.2661 -0.4690  0.6805
  970MOL0     H28033   4.575   7.187   8.437  2.6416 -0.5086 -1.8692
  970MOL0     H28034   4.583   7.260   8.693  2.2244 -1.8032 -1.3409
  970MOL0     H28035   4.465   7.329   8.572  0.0822  0.8002  0.9215
  970MOL0     H28036   4.615   7.520   8.513  0.0725 -4.1360 -3.0894
  970MOL0     H28037   4.564   7.519   8.684 -2.7445 -0.4357 -1.5393
  970MOL0     H28038   5.000   7.501   8.680 -0.0402  1.3587 -1.2164
  970MOL0     H28039   4.803   6.968   8.166 -1.1977  1.5621 -2.0976
  970MOL0     H28040   4.906   7.048   7.977  0.1768  0.4593 -0.0849
  971MOL0     O28041   3.789   6.571   7.533 -0.6737  0.5052  0.0280
  971MOL0     C28042   3.681   6.626   7.535 -0.3049  0.9188 -1.0155
  971MOL0     O28043   3.594   6.634   7.642  0.4705  0.4110  0.5449
  971MOL0     C28044   3.596   6.570   7.763  0.7916  0.4646 -0.5488
  971MOL0     C28045   3.665   6.455   7.792  0.4434  0.6208  0.3811
  971MOL0     C28046   3.648   6.395   7.923  0.5417 -0.1040  0.7514
  971MOL0     C28047   3.571   6.455   8.017 -0.5165  1.0399  0.0123
  971MOL0     O28048   3.571   6.408   8.139  0.7371 -1.0646  0.3277
  971MOL0     C28049   3.492   6.289   8.164  0.4832 -0.4359  0.2608
  971MOL0     C28050   3.468   6.266   8.305  0.1928 -0.3935 -0.1268
  971MOL0     C28051   3.440   6.125   8.348  0.2197 -0.1787 -0.7744
  971MOL0     C28052   3.318   6.059   8.295  1.3930 -0.7009  0.4813
  971MOL0     C28053   3.296   5.918   8.358 -0.5973  0.3493 -0.3023
  971MOL0     C28054   3.184   5.848   8.281  0.5556  0.1939 -0.1057
  971MOL0     C28055   3.123   5.717   8.351 -0.1858 -0.1576 -1.1553
  971MOL0     C28056   2.984   5.666   8.295 -0.0726 -0.2570 -1.0186
  971MOL0     N28057   2.992   5.598   8.163 -0.3143 -0.6821  0.8488
  971MOL0     C28058   2.898   5.631   8.055 -0.8151  0.4751 -0.4698
  971MOL0     C28059   2.943   5.570   7.946  0.2321 -0.4834 -0.3202
  971MOL0     C28060   2.869   5.564   7.817 -0.2606  0.3006  0.0666
  971MOL0     C28061   2.794   5.427   7.795  0.6099  0.2604  0.3075
  971MOL0     C28062   2.671   5.443   7.708  0.8056  0.2091 -0.2474
  971MOL0     C28063   2.701   5.492   7.560 -0.3989  0.2207 -0.3344
  971MOL0     O28064   2.771   5.387   7.495 -0.0070 -0.2900 -0.2344
  971MOL0     C28065   2.784   5.383   7.358 -0.1575 -0.3664 -0.8311
  971MOL0     C28066   2.735   5.475   7.272 -0.6630  0.6239  0.1001
  971MOL0     C28067   2.763   5.462   7.134 -0.5785 -0.7511 -0.8729
  971MOL0     C28068   2.845   5.369   7.080  0.6915 -0.1426  0.6092
  971MOL0     C28069   2.876   5.366   6.939 -0.1410 -0.1407  0.8769
  971MOL0     O28070   2.947   5.252   6.901  0.5922 -0.3317 -0.0139
  971MOL0     C28071   3.006   5.256   6.778 -0.6679 -0.6144  0.2902
  971MOL0     C28072   3.078   5.370   6.737 -0.4800 -0.5038  0.5808
  971MOL0     C28073   3.117   5.375   6.601  0.0225  0.1761  0.2473
  971MOL0     C28074   3.104   5.267   6.510 -0.8769 -2.0990  0.1923
  971MOL0     O28075   3.151   5.288   6.385  0.2168  0.1427 -0.0770
  971MOL0     C28076   3.207   5.168   6.319  0.3717 -0.4874  1.0425
  971MOL0     C28077   3.170   5.151   6.170  0.4303  0.1954  0.3893
  971MOL0     C28078   3.013   5.143   6.167 -0.4214 -0.5816 -0.5131
  971MOL0     C28079   2.951   5.136   6.033 -0.4477  0.5614  0.2902
  971MOL0     C28080   2.948   5.267   5.960  0.6271  0.2777  1.0022
  971MOL0     C28081   2.910   5.245   5.801 -0.0238 -0.3430  0.0832
  971MOL0     C28082   2.756   5.202   5.783  0.1223 -0.5125  0.2210
  971MOL0     C28083   2.733   5.116   5.653 -1.1904  0.1085 -0.3051
  971MOL0    Cl28084   2.764   5.219   5.507  0.1981 -0.3701 -0.2273
  971MOL0     C28085   3.040   5.158   6.557  0.6536 -0.5203 -0.3902
  971MOL0     C28086   2.990   5.149   6.685 -0.3477  0.1286  0.1248
  971MOL0     O28087   2.838   5.458   6.868 -0.2421 -0.7463 -0.3733
  971MOL0     C28088   2.899   5.283   7.169  1.3703  0.2788  0.3475
  971MOL0     C28089   2.868   5.285   7.304 -0.3167 -0.0605  0.3905
  971MOL0     N28090   3.051   5.496   7.977 -0.0500 -0.3323  1.4032
  971MOL0     N28091   3.085   5.519   8.104  0.4790  0.0855 -0.0598
  971MOL0     C28092   3.519   6.580   7.998  0.4695  0.3171  0.6598
  971MOL0     C28093   3.523   6.631   7.862 -0.0609 -0.3722  0.1383
  971MOL0     C28094   3.638   6.699   7.419 -0.1035  1.0956  0.6947
  971MOL0     C28095   3.564   6.821   7.423  0.5530 -0.5552  0.2451
  971MOL0     C28096   3.535   6.886   7.298  0.3484 -0.1202  0.1070
  971MOL0     C28097   3.576   6.841   7.173 -0.7656  0.1822  0.8028
  971MOL0     O28098   3.547   6.914   7.069  0.6194  1.1503 -0.1298
  971MOL0     C28099   3.592   6.891   6.935  0.2070  0.1655  0.1634
  971MOL0     C28100   3.509   6.958   6.835  0.4785  0.2725  0.8319
  971MOL0     C28101   3.388   6.888   6.792 -0.3960 -0.1873 -0.1471
  971MOL0     C28102   3.328   6.919   6.658  0.8207 -0.0888  1.0877
  971MOL0     C28103   3.257   7.050   6.660 -0.5062  0.7931  0.0333
  971MOL0     C28104   3.205   7.157   6.656  1.3082  0.4110  0.7392
  971MOL0     C28105   3.662   6.724   7.173  0.2953  0.0383 -0.0645
  971MOL0     C28106   3.683   6.648   7.295 -0.6968 -0.1518 -0.4522
  971MOL0     H28107   3.712   6.389   7.720 -1.5337 -1.6175  1.0050
  971MOL0     H28108   3.693   6.298   7.938  2.5946 -0.1282 -3.7697
  971MOL0     H28109   3.542   6.199   8.128 -1.1823 -1.0139 -0.7342
  971MOL0     H28110   3.400   6.305   8.107  1.4111  3.4977 -0.4407
  971MOL0     H28111   3.382   6.331   8.326  0.7630 -0.5255  3.3164
  971MOL0     H28112   3.546   6.308   8.368 -1.3156  1.8941  0.3397
  971MOL0     H28113   3.438   6.125   8.457 -0.7890  0.6121 -0.7813
  971MOL0     H28114   3.530   6.073   8.313 -1.0898 -2.1879 -1.2977
  971MOL0     H28115   3.228   6.117   8.318  1.0602 -2.0898  3.0014
  971MOL0     H28116   3.338   6.054   8.187  1.8695  2.4533  0.3258
  971MOL0     H28117   3.268   5.936   8.463  0.2683  0.6275 -0.1075
  971MOL0     H28118   3.388   5.860   8.356  0.2395  1.6297 -2.1891
  971MOL0     H28119   3.205   5.822   8.177 -4.1613 -1.4824 -0.8723
  971MOL0     H28120   3.100   5.918   8.287  0.4735 -0.0047  1.3014
  971MOL0     H28121   3.194   5.634   8.355 -0.8832 -0.7166  0.6519
  971MOL0     H28122   3.119   5.752   8.455 -0.3042 -2.5744 -0.2831
  971MOL0     H28123   2.920   5.754   8.283 -1.8750 -1.7756 -3.6807
  971MOL0     H28124   2.946   5.590   8.364  2.0226 -1.0317 -0.6424
  971MOL0     H28125   2.821   5.708   8.064 -0.1307  1.2092 -0.8078
  971MOL0     H28126   2.935   5.570   7.729  0.2020  0.6827  0.4293
  971MOL0     H28127   2.791   5.640   7.816  1.0756  1.8261 -2.6751
  971MOL0     H28128   2.767   5.403   7.898 -2.4958  1.5120 -0.0959
  971MOL0     H28129   2.856   5.349   7.749  0.0115 -1.6488  2.5314
  971MOL0     H28130   2.602   5.358   7.709  1.1981 -0.1371 -1.3682
  971MOL0     H28131   2.606   5.527   7.735 -0.5660 -0.4944 -1.2466
  971MOL0     H28132   2.767   5.579   7.566  0.7389 -0.6994  1.2751
  971MOL0     H28133   2.612   5.513   7.500  0.8674 -0.3622 -2.5112
  971MOL0     H28134   2.675   5.556   7.312  0.5224  1.4038  0.3713
  971MOL0     H28135   2.708   5.526   7.065  0.5902 -0.1393 -1.2528
  971MOL0     H28136   3.087   5.463   6.792  1.9297 -0.1062 -0.3690
  971MOL0     H28137   3.155   5.471   6.570 -0.4196  0.0219 -0.8113
  971MOL0     H28138   3.183   5.075   6.372  0.2185  0.1383  2.1142
  971MOL0     H28139   3.316   5.182   6.327  0.8738 -2.4898 -1.2967
  971MOL0     H28140   3.219   5.068   6.119 -4.0887 -0.8982 -2.8287
  971MOL0     H28141   3.208   5.240   6.118  2.2840 -0.2501  0.9106
  971MOL0     H28142   2.974   5.227   6.225  3.8989  1.1436  0.3139
  971MOL0     H28143   2.997   5.055   6.230  1.3643 -1.4289 -1.1549
  971MOL0     H28144   3.005   5.062   5.973 -0.3466  2.0746 -1.5675
  971MOL0     H28145   2.845   5.111   6.034 -0.1726 -1.1355 -2.2769
  971MOL0     H28146   3.045   5.315   5.976 -0.8452  2.4047  5.0126
  971MOL0     H28147   2.880   5.336   6.011  1.3685  3.1933 -1.6722
  971MOL0     H28148   2.970   5.157   5.776 -1.7112 -1.0980 -1.5781
  971MOL0     H28149   2.931   5.328   5.734 -1.0549 -0.8535 -0.9040
  971MOL0     H28150   2.727   5.135   5.864 -3.3230  1.5941  0.9503
  971MOL0     H28151   2.689   5.289   5.776  2.8506  1.7954  0.7793
  971MOL0     H28152   2.627   5.091   5.638 -1.1487  0.3306 -1.0357
  971MOL0     H28153   2.791   5.024   5.641 -0.5152  0.6641 -1.5104
  971MOL0     H28154   3.027   5.076   6.487  0.0391  1.2073 -2.4381
  971MOL0     H28155   2.935   5.069   6.732 -0.3949 -1.2957 -2.2178
  971MOL0     H28156   2.955   5.199   7.129 -2.9663 -1.5965 -2.4267
  971MOL0     H28157   2.925   5.221   7.371  1.8514 -0.7628 -1.9463
  971MOL0     H28158   3.482   6.637   8.083 -1.0577  0.0935  0.1719
  971MOL0     H28159   3.491   6.727   7.822 -0.5552  0.0626  1.4885
  971MOL0     H28160   3.535   6.877   7.511  0.9762  2.2514 -1.3068
  971MOL0     H28161   3.474   6.975   7.308  0.6063 -0.2298  4.1815
  971MOL0     H28162   3.599   6.783   6.927 -2.7135 -0.2138  1.5031
  971MOL0     H28163   3.685   6.948   6.925 -0.2631  0.8762 -0.2635
  971MOL0     H28164   3.473   7.054   6.874  0.6864  0.3681  0.7918
  971MOL0     H28165   3.565   6.974   6.742  0.2481 -0.4094  0.5672
  971MOL0     H28166   3.316   6.900   6.874  0.0906  0.5692  0.1870
  971MOL0     H28167   3.410   6.781   6.798 -0.4786 -0.1409  1.6958
  971MOL0     H28168   3.402   6.912   6.578  0.7267  2.0381  0.7759
  971MOL0     H28169   3.251   6.844   6.638 -1.2089  1.5603  2.4052
  971MOL0     H28170   3.150   7.248   6.669 -0.7482 -0.5628 -0.4892
  971MOL0     H28171   3.708   6.700   7.077 -2.6593  0.0104 -1.5895
  971MOL0     H28172   3.745   6.559   7.297  0.5235  0.6625  1.8397
  972MOL0     O28173   2.777  10.462   8.694 -0.1223  0.2417 -0.1024
  972MOL0     C28174   2.730  10.347   8.686  0.8786  0.2479  0.4149
  972MOL0     O28175   2.763  10.250   8.781  0.1542  0.2360 -0.5647
  972MOL0     C28176   2.823  10.296   8.900 -0.2210  0.2295  0.3543
  972MOL0     C28177   2.764  10.255   9.018  0.5592  0.7105 -0.7567
  972MOL0     C28178   2.823  10.279   9.137  0.0169  0.4115 -0.2311
  972MOL0     C28179   2.939  10.347   9.147 -0.2875 -0.2710 -0.0138
  972MOL0     O28180   2.987  10.373   9.270 -0.4092  0.3892 -0.4920
  972MOL0     C28181   3.080  10.282   9.311  0.0401  0.0792 -0.0506
  972MOL0     C28182   3.093  10.275   9.466  0.9819  0.2156  0.6911
  972MOL0     C28183   3.184  10.395   9.509  0.4623  0.5714  0.4099
  972MOL0     C28184   3.214  10.396   9.651  0.1956  0.7051 -0.0815
  972MOL0     C28185   3.367  10.449   9.691  0.5113 -0.2562 -0.6120
  972MOL0     C28186   3.384  10.499   9.840 -0.3059  0.0316  0.0522
  972MOL0     C28187   3.531  10.556   9.867 -0.2893  0.1079  0.1577
  972MOL0     C28188   3.586  10.670   9.780 -0.1503  0.5610  0.1211
  972MOL0     N28189   3.706  10.732   9.844 -0.2390  0.6965 -0.3256
  972MOL0     C28190   3.822  10.673   9.896  0.6292 -0.5107  0.6057
  972MOL0     C28191   3.876  10.764   9.976  0.0373 -0.3010  0.5313
  972MOL0     C28192   3.996  10.752  10.059 -0.5798 -0.0795 -0.9292
  972MOL0     C28193   4.020  10.609  10.109 -0.2645 -0.3775  0.0621
  972MOL0     C28194   4.123  10.526  10.027 -0.9696 -0.8190 -0.6347
  972MOL0     C28195   4.186  10.413  10.111  0.2188  0.5204  0.6165
  972MOL0     O28196   4.083  10.317  10.132  0.3416 -0.3322  0.2485
  972MOL0     C28197   4.123  10.189  10.174 -0.7174 -0.0993  0.2247
  972MOL0     C28198   4.090  10.158  10.299 -1.0201  0.2413  0.3754
  972MOL0     C28199   4.107  10.031  10.361  0.7263 -0.7650  0.3763
  972MOL0     C28200   4.167   9.927  10.286  0.5152  0.3958  0.2011
  972MOL0     C28201   4.186   9.795  10.340  1.0294  0.9497  0.3233
  972MOL0     O28202   4.171   9.786  10.477 -0.5967 -0.8130  0.6731
  972MOL0     C28203   4.220   9.683  10.554 -0.6693 -0.1860 -0.0531
  972MOL0     C28204   4.279   9.563  10.511 -0.0562 -0.1146  0.0586
  972MOL0     C28205   4.317   9.472  10.616  0.5141 -0.6614 -0.9490
  972MOL0     C28206   4.324   9.515  10.753 -0.3895 -0.3921 -0.5264
  972MOL0     O28207   4.351   9.443  10.857 -0.3115 -0.0465 -0.6510
  972MOL0     C28208   4.426   9.320  10.848  0.1755  0.3095  0.0182
  972MOL0     C28209   4.470   9.281  10.993  0.2666  0.5902  0.3743
  972MOL0     C28210   4.538   9.138  11.005 -0.5454 -0.7255 -1.1177
  972MOL0     C28211   4.629   9.134  11.137 -0.0283  0.2446  0.9104
  972MOL0     C28212   4.664   8.987  11.175 -0.1388  0.7030 -0.1017
  972MOL0     C28213   4.764   8.912  11.086 -0.0068  1.1558  0.2117
  972MOL0     C28214   4.910   8.961  11.066 -0.3998 -0.2457 -0.3385
  972MOL0     C28215   5.005   8.877  11.156 -0.5711  0.3639 -0.0394
  972MOL0    Cl28216   5.005   8.705  11.132  0.1624  0.4333  0.1579
  972MOL0     C28217   4.269   9.634  10.786 -0.0182 -1.5788  0.3145
  972MOL0     C28218   4.215   9.719  10.690  0.5134 -0.7478 -0.6420
  972MOL0     O28219   4.228   9.713  10.258 -0.1537 -0.1400  0.2273
  972MOL0     C28220   4.200   9.964  10.149  0.2785 -0.3608  0.1849
  972MOL0     C28221   4.181  10.094  10.093  0.5647  0.3196  0.4973
  972MOL0     N28222   3.795  10.876   9.978 -0.2148 -0.1459 -0.4009
  972MOL0     N28223   3.697  10.853   9.903 -0.1731 -0.4493  0.5399
  972MOL0     C28224   3.009  10.393   9.033  0.6500  0.5298  0.4170
  972MOL0     C28225   2.953  10.356   8.907 -1.0140  0.8785 -0.1414
  972MOL0     C28226   2.651  10.310   8.563  0.0640  0.7185  0.8430
  972MOL0     C28227   2.656  10.178   8.521 -0.4612  0.0200  0.3846
  972MOL0     C28228   2.582  10.133   8.407  0.4496 -0.3820 -0.4339
  972MOL0     C28229   2.507  10.223   8.337  0.2616  0.8500 -0.2929
  972MOL0     O28230   2.424  10.169   8.234  0.2583 -0.6772 -1.2172
  972MOL0     C28231   2.327  10.248   8.165 -0.4044 -0.2116 -0.1034
  972MOL0     C28232   2.341  10.206   8.021 -0.2807 -0.0103 -0.6798
  972MOL0     C28233   2.277  10.064   7.997 -0.1175 -0.3209  0.2830
  972MOL0     C28234   2.244  10.037   7.850 -0.6811  0.2192  0.4926
  972MOL0     C28235   2.122  10.102   7.806  0.4607  0.4093  0.1413
  972MOL0     C28236   2.029  10.167   7.769  0.3193 -0.2542 -0.6402
  972MOL0     C28237   2.508  10.358   8.374  0.0319  1.4382 -0.2222
  972MOL0     C28238   2.584  10.403   8.479 -0.1474  0.1426  0.2836
  972MOL0     H28239   2.664  10.213   9.025  1.1395 -0.4517  3.9334
  972MOL0     H28240   2.771  10.255   9.229 -0.2319 -4.2323 -1.2987
  972MOL0     H28241   3.176  10.321   9.275  0.3854  1.0564  1.7975
  972MOL0     H28242   3.067  10.183   9.267  2.6595  0.6323 -2.3474
  972MOL0     H28243   3.142  10.181   9.492  0.3849  0.3515  2.4982
  972MOL0     H28244   2.997  10.293   9.516 -0.6840  0.7440 -2.4588
  972MOL0     H28245   3.139  10.493   9.492  2.5774  1.3462 -1.1756
  972MOL0     H28246   3.277  10.384   9.453 -0.4722 -1.6024 -0.8498
  972MOL0     H28247   3.155  10.474   9.700 -1.5772 -0.3540 -0.4273
  972MOL0     H28248   3.195  10.295   9.690 -2.8345  0.1335 -2.5989
  972MOL0     H28249   3.403  10.528   9.625  0.6458 -0.6776 -1.0497
  972MOL0     H28250   3.438  10.367   9.680  1.5564  0.7453 -1.5000
  972MOL0     H28251   3.369  10.414   9.907 -0.4341 -0.2731 -0.3579
  972MOL0     H28252   3.315  10.582   9.857  0.3920  0.2097  2.2862
  972MOL0     H28253   3.545  10.580   9.973  0.9749  3.0680 -0.5650
  972MOL0     H28254   3.601  10.474   9.850  1.2525  1.3694  0.1574
  972MOL0     H28255   3.520  10.755   9.763  0.0148  1.2773  2.7519
  972MOL0     H28256   3.628  10.640   9.683  4.2847 -1.7575  2.4171
  972MOL0     H28257   3.864  10.575   9.874  1.0483 -0.5836  1.6672
  972MOL0     H28258   3.992  10.809  10.152  2.2802 -1.7328  0.3440
  972MOL0     H28259   4.078  10.786   9.994 -1.0359  1.4402 -0.7326
  972MOL0     H28260   3.929  10.550  10.129  0.5668 -0.3352  5.3361
  972MOL0     H28261   4.057  10.629  10.210  4.7857 -3.3347 -0.8379
  972MOL0     H28262   4.074  10.474   9.943 -0.0773 -1.7056 -0.6193
  972MOL0     H28263   4.197  10.595   9.985 -1.5585  0.4783  0.3613
  972MOL0     H28264   4.222  10.457  10.205  2.9084 -0.5476  0.1882
  972MOL0     H28265   4.274  10.355  10.080  0.1049 -1.5183  3.6709
  972MOL0     H28266   4.067  10.250  10.351  1.2020 -0.7329  3.3437
  972MOL0     H28267   4.055  10.024  10.456 -2.0760 -1.4753 -1.1095
  972MOL0     H28268   4.265   9.528  10.409 -1.1878 -1.2872  0.5832
  972MOL0     H28269   4.356   9.371  10.605  2.6823  0.0133  0.1027
  972MOL0     H28270   4.520   9.330  10.793  1.4841  0.4016  2.1365
  972MOL0     H28271   4.355   9.247  10.807  0.7341 -0.4121  0.3015
  972MOL0     H28272   4.385   9.273  11.062 -1.6973 -2.0153 -2.0757
  972MOL0     H28273   4.530   9.368  11.020 -1.3657  1.1881  2.3453
  972MOL0     H28274   4.602   9.115  10.919  1.2542  4.3693 -1.4944
  972MOL0     H28275   4.456   9.069  11.024 -0.2036 -0.3414  2.6735
  972MOL0     H28276   4.720   9.194  11.123  1.1783 -1.3519  1.6352
  972MOL0     H28277   4.581   9.182  11.223 -1.3950 -0.7864  0.7579
  972MOL0     H28278   4.581   8.917  11.194  2.8817 -2.3780  3.3693
  972MOL0     H28279   4.713   8.985  11.273 -1.1572  1.6730  0.4518
  972MOL0     H28280   4.714   8.895  10.990  1.2404  0.3646 -0.3167
  972MOL0     H28281   4.761   8.810  11.125  0.2883  1.6369  1.5305
  972MOL0     H28282   4.945   8.953  10.963  1.5224 -0.6174  0.2986
  972MOL0     H28283   4.906   9.068  11.090  0.1287 -0.4892  0.9148
  972MOL0     H28284   4.968   8.886  11.258 -1.8867 -4.5918  0.1621
  972MOL0     H28285   5.109   8.904  11.136  1.0876 -6.5230 -4.1117
  972MOL0     H28286   4.272   9.678  10.885 -1.0044 -0.0814 -0.2788
  972MOL0     H28287   4.168   9.816  10.706  1.7668 -0.4865  1.9874
  972MOL0     H28288   4.246   9.883  10.094  0.6767 -0.5036  0.7113
  972MOL0     H28289   4.191  10.113   9.987  0.9788 -2.1080  0.0267
  972MOL0     H28290   3.103  10.447   9.040 -0.0472  1.7348  0.8635
  972MOL0     H28291   2.999  10.393   8.816  0.8521  1.0349  0.8295
  972MOL0     H28292   2.710  10.096   8.568  0.6720 -0.8217 -2.1828
  972MOL0     H28293   2.577  10.027   8.384  2.1555 -0.6918  0.4176
  972MOL0     H28294   2.344  10.356   8.170  2.2756 -0.5335 -0.3601
  972MOL0     H28295   2.225  10.232   8.200 -1.3974  1.1777 -2.1755
  972MOL0     H28296   2.287  10.271   7.952 -1.3173  0.7239  0.7780
  972MOL0     H28297   2.446  10.220   7.991  0.2682 -1.3499  0.5366
  972MOL0     H28298   2.182  10.052   8.049 -0.9333 -4.9364 -1.8296
  972MOL0     H28299   2.339   9.984   8.038 -1.0074 -1.1110  0.1295
  972MOL0     H28300   2.331  10.055   7.787 -0.6815 -4.1696 -1.1476
  972MOL0     H28301   2.223   9.930   7.834 -2.5707  0.3940  1.4722
  972MOL0     H28302   1.946  10.230   7.742  1.3634  0.8173 -1.4854
  972MOL0     H28303   2.451  10.433   8.320  0.3781  0.4476 -2.0512
  972MOL0     H28304   2.571  10.502   8.520  0.2687 -0.6695  2.5107
  973MOL0     O28305   6.845  11.251   2.730 -0.6478 -0.3205 -0.2431
  973MOL0     C28306   6.854  11.142   2.677 -0.2683 -0.5410  0.2892
  973MOL0     O28307   6.976  11.069   2.664  0.0290 -0.5936 -1.1562
  973MOL0     C28308   7.084  11.099   2.742  0.6978  0.4476 -0.2874
  973MOL0     C28309   7.089  11.162   2.865 -0.5215 -0.3266  0.7549
  973MOL0     C28310   7.206  11.192   2.930  0.0342 -0.4935  0.4999
  973MOL0     C28311   7.329  11.130   2.898 -0.6707  1.1017  0.5699
  973MOL0     O28312   7.444  11.150   2.967  0.2863  0.5599 -0.3127
  973MOL0     C28313   7.467  11.044   3.059 -1.1755  0.3303 -0.3177
  973MOL0     C28314   7.615  11.033   3.102  0.6092 -0.8378  0.1318
  973MOL0     C28315   7.702  11.040   2.978 -0.5640 -0.0498 -0.2922
  973MOL0     C28316   7.853  11.026   2.999 -0.8738 -0.2761  0.4883
  973MOL0     C28317   7.924  11.141   3.078 -0.9767 -0.3497  0.1442
  973MOL0     C28318   8.081  11.113   3.056  0.4617 -0.4295  0.1917
  973MOL0     C28319   8.168  11.213   3.117 -0.3350 -0.1935 -0.0811
  973MOL0     C28320   8.167  11.362   3.055  0.2290  0.1602 -0.7677
  973MOL0     N28321   8.233  11.360   2.926  0.4727 -0.1491  0.3664
  973MOL0     C28322   8.347  11.297   2.882  0.3343  0.4224 -1.4361
  973MOL0     C28323   8.365  11.326   2.750 -0.9625  1.5032  0.1617
  973MOL0     C28324   8.469  11.284   2.648 -0.7224  0.5280 -0.2930
  973MOL0     C28325   8.413  11.177   2.547 -0.6652 -0.1090  0.1445
  973MOL0     C28326   8.339  11.246   2.424 -0.2400 -1.7144 -0.5928
  973MOL0     C28327   8.313  11.150   2.303 -0.3869  1.0607  0.1164
  973MOL0     O28328   8.242  11.030   2.341  0.5857  0.0033 -0.0493
  973MOL0     C28329   8.292  10.904   2.309 -0.2049 -0.2011  0.4191
  973MOL0     C28330   8.248  10.800   2.385  0.1785 -0.1552  0.1337
  973MOL0     C28331   8.269  10.661   2.355  0.3520  0.1068  0.8908
  973MOL0     C28332   8.327  10.629   2.235  0.4612 -0.1798  0.2092
  973MOL0     C28333   8.324  10.487   2.199  1.3084  0.5171  0.5783
  973MOL0     O28334   8.261  10.397   2.284  0.8182 -0.4311 -0.3546
  973MOL0     C28335   8.248  10.268   2.251  1.4043 -0.2344 -1.0187
  973MOL0     C28336   8.305  10.172   2.337  0.0704 -0.4088 -0.6816
  973MOL0     C28337   8.325  10.037   2.307  0.3468  0.2332 -0.3669
  973MOL0     C28338   8.286   9.996   2.182 -0.3140 -0.0304  0.1878
  973MOL0     O28339   8.311   9.866   2.138  0.6377 -0.3350 -1.1382
  973MOL0     C28340   8.215   9.766   2.123  0.3659  0.7974 -0.3471
  973MOL0     C28341   8.176   9.698   2.266  0.5512  0.4801  0.1710
  973MOL0     C28342   8.096   9.569   2.225  0.5034 -0.0141 -1.5353
  973MOL0     C28343   8.187   9.447   2.187 -0.3008 -0.5043 -0.3659
  973MOL0     C28344   8.106   9.331   2.141 -0.1907  0.3745 -0.6684
  973MOL0     C28345   8.045   9.362   2.004  0.1698  0.5545 -0.1779
  973MOL0     C28346   7.992   9.238   1.945  0.0248 -0.2153 -0.8776
  973MOL0     C28347   7.879   9.279   1.848 -0.3295 -0.2046 -0.0251
  973MOL0    Cl28348   7.965   9.350   1.704  0.0954 -0.1098 -0.0694
  973MOL0     C28349   8.221  10.087   2.095  0.9451  0.5494  0.0253
  973MOL0     C28350   8.201  10.225   2.134 -1.0123  0.2215  0.2393
  973MOL0     O28351   8.372  10.456   2.093  0.1297 -0.3126  0.0977
  973MOL0     C28352   8.385  10.733   2.154 -0.7688 -1.0759 -0.8625
  973MOL0     C28353   8.379  10.865   2.201  0.3613 -0.5326 -0.1900
  973MOL0     N28354   8.261  11.412   2.719 -0.2093 -0.2264 -0.0870
  973MOL0     N28355   8.182  11.436   2.820  0.2549 -0.4233  0.1449
  973MOL0     C28356   7.321  11.051   2.781 -0.2891 -0.2766  0.7679
  973MOL0     C28357   7.202  11.044   2.701  0.0382  0.2827 -0.7578
  973MOL0     C28358   6.740  11.090   2.608 -0.0919 -0.2347  1.3545
  973MOL0     C28359   6.732  10.956   2.565  0.4597 -0.3220  0.0155
  973MOL0     C28360   6.615  10.906   2.501 -0.0879 -0.2022 -0.0398
  973MOL0     C28361   6.503  10.987   2.481  0.7176  0.2976 -0.5886
  973MOL0     O28362   6.379  10.941   2.442 -0.7400 -0.2140  0.0751
  973MOL0     C28363   6.347  10.807   2.406 -0.2403 -0.7693 -0.8060
  973MOL0     C28364   6.204  10.824   2.354 -1.0522  0.4592  1.0717
  973MOL0     C28365   6.145  10.694   2.286  0.4339  0.4979 -0.3765
  973MOL0     C28366   6.233  10.647   2.167 -0.5526 -0.4444 -0.0096
  973MOL0     C28367   6.345  10.568   2.193 -0.3461  0.3599 -0.0645
  973MOL0     C28368   6.446  10.503   2.220  0.6302  0.3015  0.6068
  973MOL0     C28369   6.508  11.119   2.528 -0.1906 -0.0592 -1.1641
  973MOL0     C28370   6.625  11.169   2.587  0.8149 -0.6088  0.2993
  973MOL0     H28371   6.995  11.203   2.898 -0.9666 -0.4550 -0.3052
  973MOL0     H28372   7.199  11.266   3.010  1.0917  1.6059 -1.2437
  973MOL0     H28373   7.438  10.946   3.020 -1.6730  0.2953  0.1260
  973MOL0     H28374   7.407  11.061   3.149 -0.0027  0.1701  0.5226
  973MOL0     H28375   7.640  10.938   3.149 -0.8701 -1.6109 -0.5524
  973MOL0     H28376   7.636  11.117   3.169 -1.8655  1.4650 -1.7623
  973MOL0     H28377   7.680  11.130   2.920 -0.5699  0.5259  0.5898
  973MOL0     H28378   7.676  10.948   2.924  0.8352 -0.7175  0.1347
  973MOL0     H28379   7.866  10.929   3.047 -4.0730 -1.7320 -1.3292
  973MOL0     H28380   7.893  11.024   2.898 -1.3770  0.2465  0.2747
  973MOL0     H28381   7.901  11.141   3.185 -0.7384  0.2071  0.1991
  973MOL0     H28382   7.892  11.238   3.036  1.6283  0.3222 -0.4443
  973MOL0     H28383   8.115  11.094   2.954  2.9676 -1.7779  1.1871
  973MOL0     H28384   8.091  11.012   3.096  1.7857  0.3550  1.9807
  973MOL0     H28385   8.128  11.226   3.218 -0.8294 -1.6131 -0.0788
  973MOL0     H28386   8.272  11.182   3.127  1.7420  6.0107  2.6619
  973MOL0     H28387   8.221  11.425   3.127 -0.1502 -3.0793  2.6840
  973MOL0     H28388   8.066  11.404   3.057 -0.0198 -0.3833 -1.6236
  973MOL0     H28389   8.403  11.222   2.937  1.1503  1.2101 -1.1559
  973MOL0     H28390   8.566  11.259   2.692 -0.3303  4.6551  1.6723
  973MOL0     H28391   8.499  11.374   2.594  0.0370 -1.1530 -2.8344
  973MOL0     H28392   8.339  11.113   2.596  2.5523 -2.1772  2.6992
  973MOL0     H28393   8.490  11.115   2.500 -0.0622  0.5880  0.1954
  973MOL0     H28394   8.248  11.291   2.466 -2.6615 -5.8159 -0.8797
  973MOL0     H28395   8.393  11.329   2.377 -1.1250 -0.3884  0.6473
  973MOL0     H28396   8.404  11.108   2.258 -1.5875 -2.4968  0.7424
  973MOL0     H28397   8.260  11.202   2.223 -0.0786  1.7382  0.3441
  973MOL0     H28398   8.192  10.832   2.472  1.0103 -0.0288  0.6305
  973MOL0     H28399   8.222  10.584   2.416 -0.5396 -1.1004 -1.2216
  973MOL0     H28400   8.340  10.198   2.437  0.4209 -4.9446  0.6302
  973MOL0     H28401   8.391   9.972   2.364  1.4782  0.5226 -1.3127
  973MOL0     H28402   8.260   9.702   2.047  1.0463  3.3359 -2.2063
  973MOL0     H28403   8.126   9.799   2.069 -0.6087 -2.2927 -0.8349
  973MOL0     H28404   8.111   9.767   2.320 -1.1367 -0.8450 -0.0684
  973MOL0     H28405   8.263   9.664   2.321  1.4160 -0.3614 -1.6396
  973MOL0     H28406   8.027   9.588   2.142  1.1208 -3.0353 -2.8557
  973MOL0     H28407   8.036   9.548   2.314 -0.7963  1.9771 -1.8602
  973MOL0     H28408   8.251   9.480   2.104 -1.5168  2.4246 -0.2542
  973MOL0     H28409   8.250   9.420   2.272 -0.8961 -0.0790  0.2213
  973MOL0     H28410   8.027   9.320   2.216  0.8058 -0.7382  0.2691
  973MOL0     H28411   8.164   9.238   2.137 -1.1770 -0.4211  1.8369
  973MOL0     H28412   8.117   9.404   1.934  0.0406  0.4656 -0.3680
  973MOL0     H28413   7.960   9.429   2.022  1.4308  2.3987 -0.8785
  973MOL0     H28414   8.066   9.180   1.889  0.9334  1.4996 -1.5343
  973MOL0     H28415   7.960   9.177   2.030  0.3050 -0.5557 -1.0138
  973MOL0     H28416   7.809   9.346   1.899  1.3899  1.4037  0.2956
  973MOL0     H28417   7.825   9.189   1.817  0.6497 -0.4501 -1.0760
  973MOL0     H28418   8.194  10.054   1.995  0.7694 -2.2962  0.9116
  973MOL0     H28419   8.152  10.285   2.059 -0.1389 -1.3336 -1.6734
  973MOL0     H28420   8.419  10.704   2.055 -0.7949 -3.5415 -0.2218
  973MOL0     H28421   8.432  10.939   2.141 -0.5976 -0.0268 -0.4432
  973MOL0     H28422   7.414  11.003   2.751  0.7696  2.3497 -0.4443
  973MOL0     H28423   7.193  10.993   2.606 -3.1158  0.8315 -0.8833
  973MOL0     H28424   6.815  10.892   2.594  0.5627 -0.5489 -0.7594
  973MOL0     H28425   6.616  10.799   2.482  1.8873  0.2112 -3.1208
  973MOL0     H28426   6.348  10.742   2.494  1.5023  3.2037  2.4241
  973MOL0     H28427   6.421  10.770   2.334  0.8947 -2.2358  0.9977
  973MOL0     H28428   6.140  10.867   2.431 -2.4842  0.2155  0.0683
  973MOL0     H28429   6.205  10.904   2.279 -0.6217  1.8837  2.5528
  973MOL0     H28430   6.048  10.720   2.244  0.9369  1.2895 -1.0804
  973MOL0     H28431   6.132  10.603   2.347  1.0087 -0.9632 -2.3238
  973MOL0     H28432   6.164  10.588   2.106 -1.0912 -2.0885  2.0736
  973MOL0     H28433   6.270  10.733   2.110 -0.6394 -1.6311 -1.9246
  973MOL0     H28434   6.536  10.450   2.243  1.3568  0.9605 -0.6316
  973MOL0     H28435   6.424  11.186   2.511 -3.4779 -3.2419  1.0405
  973MOL0     H28436   6.614  11.273   2.616 -0.8782 -0.5499 -0.4398
  974MOL0     O28437   0.385   0.932   6.104  0.5053 -0.7946 -0.6086
  974MOL0     C28438   0.458   0.929   6.006  0.6909 -0.0509 -0.3104
  974MOL0     O28439   0.491   1.026   5.921 -0.4776  0.2288 -0.6561
  974MOL0     C28440   0.431   1.148   5.916 -0.5814 -0.4141  0.1308
  974MOL0     C28441   0.475   1.226   5.803 -0.6767 -0.0278  0.3506
  974MOL0     C28442   0.429   1.357   5.793 -0.5760 -0.3055  0.5114
  974MOL0     C28443   0.334   1.409   5.889 -0.5418  0.0818 -0.4227
  974MOL0     O28444   0.272   1.540   5.886 -0.0042  0.3658  1.1581
  974MOL0     C28445   0.280   1.608   5.763 -0.2177  0.3693 -0.0632
  974MOL0     C28446   0.240   1.757   5.763  0.2614 -0.3738  0.3637
  974MOL0     C28447   0.085   1.762   5.795  0.1982  1.1602  0.1250
  974MOL0     C28448   0.043   1.905   5.799 -0.7447  0.1458  0.0893
  974MOL0     C28449  -0.106   1.902   5.842  0.2992  0.4042 -0.6079
  974MOL0     C28450  -0.181   2.033   5.823  0.3780  0.0048  0.5848
  974MOL0     C28451  -0.117   2.142   5.900  0.4633 -0.4666  0.8085
  974MOL0     C28452  -0.202   2.267   5.915  0.2925 -1.0465  0.7471
  974MOL0     N28453  -0.135   2.394   5.921  0.5467 -0.2137 -0.0999
  974MOL0     C28454  -0.050   2.431   6.023 -0.0527  0.1353  0.4406
  974MOL0     C28455  -0.001   2.550   5.981 -0.2552  1.5179 -1.3471
  974MOL0     C28456   0.117   2.606   6.057  0.3723 -0.6559 -0.3404
  974MOL0     C28457   0.196   2.724   6.008 -0.0160 -0.0223  0.3447
  974MOL0     C28458   0.308   2.671   5.923  0.2416 -0.1810 -0.6705
  974MOL0     C28459   0.410   2.785   5.886  0.3661  0.0415 -0.3195
  974MOL0     O28460   0.498   2.743   5.782 -0.5218  0.5949  0.3667
  974MOL0     C28461   0.609   2.815   5.748  0.4738 -0.0763 -0.5107
  974MOL0     C28462   0.669   2.763   5.628  0.2302  0.6875 -0.3981
  974MOL0     C28463   0.780   2.832   5.570 -0.4574  0.1072  0.1298
  974MOL0     C28464   0.820   2.961   5.611 -0.7332 -0.5685 -0.0850
  974MOL0     C28465   0.945   3.019   5.566  0.0910  0.2482  0.6361
  974MOL0     O28466   0.991   3.132   5.626 -0.4746 -0.0494 -0.0777
  974MOL0     C28467   1.110   3.201   5.606  0.3350  0.0248  0.1281
  974MOL0     C28468   1.185   3.198   5.481 -0.0337 -0.0627 -0.8298
  974MOL0     C28469   1.304   3.264   5.481  0.0135  0.4468  0.1536
  974MOL0     C28470   1.358   3.339   5.583  0.6711 -0.6475  0.6848
  974MOL0     O28471   1.481   3.408   5.586  0.5542 -0.6182 -0.4512
  974MOL0     C28472   1.582   3.381   5.495 -0.4535  0.1343  0.2257
  974MOL0     C28473   1.651   3.507   5.495 -1.1124 -0.3114  0.2322
  974MOL0     C28474   1.764   3.519   5.390 -0.2961 -0.0774  0.6440
  974MOL0     C28475   1.839   3.659   5.395 -0.0065  0.0233 -0.9741
  974MOL0     C28476   1.948   3.667   5.291 -0.1181  1.0224 -0.2130
  974MOL0     C28477   2.036   3.779   5.298 -0.3781 -0.2896  0.3870
  974MOL0     C28478   2.110   3.807   5.433 -0.1213 -0.1567  0.1181
  974MOL0     C28479   2.213   3.907   5.419 -0.4772  0.5723  0.4031
  974MOL0    Cl28480   2.360   3.827   5.337 -0.0866 -0.0373 -0.4164
  974MOL0     C28481   1.284   3.344   5.691  0.6227  2.1867  0.1995
  974MOL0     C28482   1.163   3.276   5.709 -0.0328 -0.0939 -0.5291
  974MOL0     O28483   1.016   2.946   5.506  1.1481  0.3837 -0.1725
  974MOL0     C28484   0.747   3.013   5.717  0.2145 -0.0496  0.0891
  974MOL0     C28485   0.644   2.944   5.799 -0.2817  0.0002  0.6393
  974MOL0     N28486  -0.068   2.589   5.875  0.2628  0.2608  0.1992
  974MOL0     N28487  -0.143   2.489   5.826 -0.7627 -0.3518 -0.1548
  974MOL0     C28488   0.296   1.333   5.997 -1.0713  0.6575 -0.0866
  974MOL0     C28489   0.330   1.199   6.002  0.9667  0.0558 -1.0949
  974MOL0     C28490   0.513   0.795   5.976 -0.1330 -0.8228  0.1716
  974MOL0     C28491   0.585   0.774   5.859  0.1574  0.2592 -0.2145
  974MOL0     C28492   0.626   0.647   5.831 -0.7065 -0.2842 -0.3939
  974MOL0     C28493   0.585   0.534   5.895 -0.8659 -0.6024 -0.3563
  974MOL0     O28494   0.622   0.414   5.840  0.6930 -0.4272  1.1229
  974MOL0     C28495   0.555   0.300   5.881 -0.2187  0.3140 -0.7356
  974MOL0     C28496   0.564   0.188   5.776  0.3968  0.0064 -0.5014
  974MOL0     C28497   0.496   0.221   5.639 -0.8500 -0.5026  0.5702
  974MOL0     C28498   0.514   0.094   5.546 -0.5078  0.9408 -0.4864
  974MOL0     C28499   0.444   0.124   5.421 -0.5262  0.1525 -0.6264
  974MOL0     C28500   0.375   0.141   5.322 -0.2686 -1.4587  0.1987
  974MOL0     C28501   0.516   0.556   6.014  0.6135 -0.0541  0.8070
  974MOL0     C28502   0.481   0.687   6.057 -0.1321  0.3074  0.7076
  974MOL0     H28503   0.545   1.180   5.735 -3.0616 -3.2107 -0.1966
  974MOL0     H28504   0.457   1.400   5.698 -2.4879  1.6635  0.7473
  974MOL0     H28505   0.204   1.552   5.708 -1.0229  1.0979  0.2802
  974MOL0     H28506   0.372   1.591   5.706  0.7844 -1.5350  1.9811
  974MOL0     H28507   0.248   1.812   5.669  0.2709 -1.6027 -0.3716
  974MOL0     H28508   0.293   1.810   5.843  0.7949  1.9124 -1.4045
  974MOL0     H28509   0.068   1.712   5.890 -2.4910  1.0120 -0.3617
  974MOL0     H28510   0.028   1.696   5.729 -0.3926  3.6406 -2.0022
  974MOL0     H28511   0.103   1.961   5.872  3.2272  0.1951 -2.8680
  974MOL0     H28512   0.041   1.958   5.704 -3.4383  1.7224  0.9207
  974MOL0     H28513  -0.118   1.863   5.943 -1.4022  1.6925 -0.2660
  974MOL0     H28514  -0.151   1.824   5.780  0.9037 -0.1675 -0.3320
  974MOL0     H28515  -0.284   2.019   5.859  1.0210  1.2325  3.1505
  974MOL0     H28516  -0.191   2.059   5.718 -3.2423  1.5894  1.1669
  974MOL0     H28517  -0.094   2.100   5.998 -1.4550  0.2933  1.6303
  974MOL0     H28518  -0.023   2.169   5.851 -0.6533 -1.5485 -2.1936
  974MOL0     H28519  -0.266   2.263   6.005 -0.8847  2.4058  0.1923
  974MOL0     H28520  -0.264   2.271   5.825  1.2211  1.0818  0.1361
  974MOL0     H28521  -0.011   2.368   6.101  0.7797  1.1427  0.8638
  974MOL0     H28522   0.178   2.525   6.099  0.7501 -0.0618  0.2749
  974MOL0     H28523   0.064   2.643   6.145  1.3014  2.3254 -0.9420
  974MOL0     H28524   0.253   2.784   6.080  0.2878  0.0014  0.0847
  974MOL0     H28525   0.125   2.784   5.950 -0.8340  0.4229  1.7478
  974MOL0     H28526   0.349   2.599   5.994 -1.3721  0.9593  1.5672
  974MOL0     H28527   0.271   2.627   5.830  2.6953  0.6252 -2.1234
  974MOL0     H28528   0.469   2.817   5.973  1.8459  1.5744 -1.8157
  974MOL0     H28529   0.349   2.871   5.856 -0.7148 -0.3171  0.7614
  974MOL0     H28530   0.637   2.674   5.574  0.5359  1.5072 -2.0061
  974MOL0     H28531   0.827   2.778   5.489 -1.1989 -1.6177  0.7974
  974MOL0     H28532   1.147   3.154   5.390 -2.1054 -1.7702  0.7558
  974MOL0     H28533   1.351   3.245   5.385  1.9460  2.2194  0.6800
  974MOL0     H28534   1.548   3.350   5.395 -0.0985 -0.8808  0.4019
  974MOL0     H28535   1.637   3.295   5.534 -0.9899  0.0684  0.8638
  974MOL0     H28536   1.686   3.505   5.598  0.8268 -2.4206 -0.3841
  974MOL0     H28537   1.579   3.588   5.477  0.5271  1.6133  1.9107
  974MOL0     H28538   1.719   3.501   5.292  1.5971 -1.6124  0.0063
  974MOL0     H28539   1.826   3.432   5.413 -0.1255  0.4128  2.1706
  974MOL0     H28540   1.770   3.741   5.374 -2.8955 -2.2640 -1.0996
  974MOL0     H28541   1.882   3.666   5.496 -0.6510 -0.5278 -0.6483
  974MOL0     H28542   1.903   3.675   5.191 -0.7419  2.1819  0.1452
  974MOL0     H28543   2.001   3.571   5.288 -0.4933  0.8358 -1.7450
  974MOL0     H28544   1.984   3.870   5.266  1.7106  1.1919  0.9617
  974MOL0     H28545   2.108   3.767   5.217 -1.1270  5.2428 -1.5348
  974MOL0     H28546   2.046   3.861   5.504 -0.0938  1.2850 -0.9146
  974MOL0     H28547   2.145   3.714   5.479  2.1862 -0.7530 -2.6032
  974MOL0     H28548   2.241   3.936   5.521  1.1679  2.3086 -0.4811
  974MOL0     H28549   2.172   4.000   5.380  0.7157  1.6717  1.6607
  974MOL0     H28550   1.326   3.403   5.772  0.3674  1.1185  1.1332
  974MOL0     H28551   1.112   3.287   5.804 -1.2308 -5.1971 -0.2955
  974MOL0     H28552   0.766   3.115   5.748 -2.0959  1.0655 -1.8753
  974MOL0     H28553   0.573   2.980   5.873  1.6531 -0.1295  2.6912
  974MOL0     H28554   0.221   1.373   6.065  0.2562  0.8704  1.2947
  974MOL0     H28555   0.282   1.146   6.084 -0.2080  2.7545  0.0877
  974MOL0     H28556   0.620   0.858   5.800  0.4269 -1.1915 -2.1904
  974MOL0     H28557   0.682   0.635   5.739  1.3218  1.2124  0.5752
  974MOL0     H28558   0.449   0.324   5.894  0.5228  2.7169  2.0726
  974MOL0     H28559   0.583   0.262   5.979 -4.8964 -2.5102 -0.2223
  974MOL0     H28560   0.669   0.175   5.747  0.1486 -3.0648 -0.3850
  974MOL0     H28561   0.524   0.091   5.810  2.7785 -0.5446  0.9767
  974MOL0     H28562   0.537   0.317   5.607 -1.9365  0.7735  2.7457
  974MOL0     H28563   0.392   0.245   5.666 -0.0348  1.2649  2.4036
  974MOL0     H28564   0.622   0.079   5.533 -0.6554  1.8293 -3.5006
  974MOL0     H28565   0.469   0.008   5.597 -1.8417  0.0240 -3.0338
  974MOL0     H28566   0.325   0.169   5.232 -0.9155  1.3715  1.3164
  974MOL0     H28567   0.487   0.475   6.080  1.7120 -0.5260  0.7455
  974MOL0     H28568   0.425   0.680   6.150  0.1880  1.4496  0.9974
  975MOL0     O28569   2.422   3.601   9.708  0.0782 -0.0862  0.0562
  975MOL0     C28570   2.334   3.566   9.636 -0.0925  1.2438  0.1236
  975MOL0     O28571   2.223   3.488   9.663 -0.2308 -0.2672 -0.0068
  975MOL0     C28572   2.187   3.451   9.790 -0.0489  0.6873 -0.4447
  975MOL0     C28573   2.123   3.329   9.808 -0.2232 -0.7139  0.2052
  975MOL0     C28574   2.103   3.284   9.930  0.5136  0.6639  0.8311
  975MOL0     C28575   2.116   3.355  10.046  0.9079 -0.4462 -0.2333
  975MOL0     O28576   2.076   3.315  10.172  0.2163 -0.8430 -0.2663
  975MOL0     C28577   2.091   3.181  10.201  0.5304  0.0021 -1.1663
  975MOL0     C28578   2.064   3.156  10.351  0.6003 -0.2016  0.1354
  975MOL0     C28579   2.050   2.997  10.384  0.0295  0.6438  0.0242
  975MOL0     C28580   2.068   2.976  10.541  0.3269 -0.0678  0.2183
  975MOL0     C28581   2.200   2.922  10.587  0.4592  0.1994 -0.2411
  975MOL0     C28582   2.205   2.906  10.744  0.3840  0.3382 -0.2002
  975MOL0     C28583   2.343   2.828  10.778  0.1705  0.2238 -1.0683
  975MOL0     C28584   2.364   2.810  10.926  0.6740  0.1136  0.7304
  975MOL0     N28585   2.242   2.745  10.991 -0.3594 -0.6013  0.6652
  975MOL0     C28586   2.140   2.810  11.058 -0.3736  0.2381 -1.6128
  975MOL0     C28587   2.041   2.725  11.077 -0.2164  0.2422  0.6696
  975MOL0     C28588   1.907   2.748  11.146  0.2922  1.1797  0.0224
  975MOL0     C28589   1.898   2.841  11.261 -0.0124  0.2569  0.3381
  975MOL0     C28590   1.963   2.808  11.400  0.2865  0.0140  0.0090
  975MOL0     C28591   1.932   2.678  11.466 -0.4492  1.0485 -0.3689
  975MOL0     O28592   2.019   2.646  11.577 -0.1632 -0.4800  0.7543
  975MOL0     C28593   2.147   2.594  11.554  1.2443  0.2042  0.7875
  975MOL0     C28594   2.199   2.548  11.433 -1.4592  0.3305 -0.4567
  975MOL0     C28595   2.330   2.490  11.428  0.1771  0.3984  0.5591
  975MOL0     C28596   2.393   2.462  11.549 -1.3965  0.0890  0.0672
  975MOL0     C28597   2.514   2.366  11.538  0.0500  0.3595 -0.7427
  975MOL0     O28598   2.585   2.349  11.656 -0.1344 -0.0416  0.0602
  975MOL0     C28599   2.692   2.262  11.652 -0.1504  0.6577  0.3606
  975MOL0     C28600   2.675   2.126  11.663  0.5899 -0.5975  1.4104
  975MOL0     C28601   2.792   2.041  11.642 -0.1400 -1.4725  0.0345
  975MOL0     C28602   2.921   2.086  11.605  0.0948  0.3565  0.2373
  975MOL0     O28603   3.032   2.010  11.589 -0.3656 -0.0621 -0.4266
  975MOL0     C28604   3.019   1.930  11.471  0.4317  0.2009  0.0746
  975MOL0     C28605   3.168   1.902  11.432 -0.3765  0.8416 -0.1974
  975MOL0     C28606   3.238   2.030  11.366  0.5666  0.1662 -0.2186
  975MOL0     C28607   3.348   1.969  11.287  0.6053 -0.1171  0.2402
  975MOL0     C28608   3.449   2.078  11.264 -0.0225  0.2155  0.5052
  975MOL0     C28609   3.592   2.045  11.220  0.8049 -0.3222 -0.4285
  975MOL0     C28610   3.599   1.954  11.101  0.4726 -0.7199  0.4373
  975MOL0     C28611   3.576   2.039  10.973  0.5523 -0.4860  0.0921
  975MOL0    Cl28612   3.612   1.939  10.827  0.0559 -0.6644 -0.1409
  975MOL0     C28613   2.930   2.225  11.606  0.4362  0.2203 -0.5519
  975MOL0     C28614   2.820   2.307  11.626 -0.4007 -0.4471  0.1646
  975MOL0     O28615   2.555   2.324  11.431 -0.1703 -0.4859  0.1805
  975MOL0     C28616   2.338   2.514  11.670  0.6638  0.1702  0.4907
  975MOL0     C28617   2.215   2.574  11.677  1.0303  0.3084  0.2080
  975MOL0     N28618   2.085   2.600  11.033  0.0790 -0.2603  0.1312
  975MOL0     N28619   2.202   2.614  10.978 -0.1683 -0.2010  0.0026
  975MOL0     C28620   2.163   3.482  10.028 -0.0445  0.6566  1.3698
  975MOL0     C28621   2.212   3.531   9.901  0.2766  0.4741 -0.3320
  975MOL0     C28622   2.331   3.629   9.502 -0.3326  0.4500 -0.2384
  975MOL0     C28623   2.418   3.739   9.479  0.0853  1.0737  0.5816
  975MOL0     C28624   2.432   3.801   9.357 -0.7186 -0.0419 -0.0591
  975MOL0     C28625   2.359   3.758   9.248  0.9723  0.4865 -0.3002
  975MOL0     O28626   2.377   3.802   9.117  0.4074  0.4316 -0.3408
  975MOL0     C28627   2.488   3.888   9.081 -0.9914 -0.1744  0.2039
  975MOL0     C28628   2.448   4.036   9.108  0.2754  1.2037  0.1313
  975MOL0     C28629   2.546   4.151   9.068  0.9238  1.0447 -0.2404
  975MOL0     C28630   2.604   4.155   8.921  0.1029  0.8114 -0.3366
  975MOL0     C28631   2.735   4.093   8.919  0.1938 -0.0468 -0.3305
  975MOL0     C28632   2.837   4.032   8.931  0.0474  0.3973 -0.5944
  975MOL0     C28633   2.250   3.668   9.271  0.3423  0.7637 -1.1791
  975MOL0     C28634   2.237   3.604   9.396  0.9456 -0.2614 -0.6931
  975MOL0     H28635   2.107   3.257   9.728  3.7976 -2.8396  1.0247
  975MOL0     H28636   2.066   3.182   9.930 -1.7880  1.4168 -0.8483
  975MOL0     H28637   2.189   3.146  10.168 -0.8356 -1.8168 -3.6386
  975MOL0     H28638   2.011   3.138  10.141 -1.7667  2.0653  0.2008
  975MOL0     H28639   1.979   3.219  10.378  1.0463  0.8530 -0.8390
  975MOL0     H28640   2.150   3.187  10.412  1.1243 -2.4530  0.6278
  975MOL0     H28641   2.126   2.936  10.333 -0.0438  0.7723 -0.2393
  975MOL0     H28642   1.951   2.960  10.357  1.1844 -0.2961 -3.4931
  975MOL0     H28643   2.046   3.069  10.595  1.4586  0.7880 -0.7341
  975MOL0     H28644   1.985   2.914  10.575  0.4423 -1.5576 -2.0339
  975MOL0     H28645   2.284   2.990  10.567  0.0213  1.1795  1.1004
  975MOL0     H28646   2.205   2.826  10.534  2.8983 -0.7162  1.4600
  975MOL0     H28647   2.117   2.851  10.780 -1.2299  1.7231 -1.7756
  975MOL0     H28648   2.209   3.001  10.797  2.1341 -0.0287  0.3679
  975MOL0     H28649   2.339   2.732  10.726  1.4125  0.1499 -1.0584
  975MOL0     H28650   2.419   2.891  10.732 -0.0501  0.8858 -0.5531
  975MOL0     H28651   2.370   2.910  10.971  3.0322  0.6915 -0.7060
  975MOL0     H28652   2.461   2.762  10.944 -1.1397 -3.2520  2.3956
  975MOL0     H28653   2.135   2.910  11.099  0.3373 -0.4685  0.3082
  975MOL0     H28654   1.880   2.646  11.175  2.1235  1.1016  1.6035
  975MOL0     H28655   1.836   2.776  11.067 -2.1506 -5.4280 -0.7765
  975MOL0     H28656   1.793   2.859  11.282  0.2146 -0.2716  2.1006
  975MOL0     H28657   1.932   2.932  11.211 -1.9698 -0.1598 -1.8746
  975MOL0     H28658   2.072   2.821  11.393  0.2418  0.5599  0.2895
  975MOL0     H28659   1.934   2.886  11.471  0.1663 -0.4925  0.5208
  975MOL0     H28660   1.932   2.602  11.388 -0.6653  3.0292 -2.3846
  975MOL0     H28661   1.827   2.673  11.498 -0.2860 -0.4512  0.0198
  975MOL0     H28662   2.158   2.563  11.334 -1.2075 -3.2578 -1.2229
  975MOL0     H28663   2.362   2.453  11.332  0.6261  0.6197  0.6213
  975MOL0     H28664   2.579   2.079  11.686  0.5820  0.7858  4.7508
  975MOL0     H28665   2.788   1.932  11.639 -2.4191 -1.4840  1.1982
  975MOL0     H28666   2.966   1.991  11.397 -1.7329  0.4655  1.7641
  975MOL0     H28667   2.971   1.836  11.499  1.7600 -0.2525  0.9438
  975MOL0     H28668   3.153   1.816  11.366 -0.3131  2.2035 -2.0608
  975MOL0     H28669   3.237   1.868  11.510 -2.0482  0.1060  1.0407
  975MOL0     H28670   3.273   2.086  11.453 -1.6705 -1.1934  1.6891
  975MOL0     H28671   3.177   2.090  11.297  0.5083 -2.2294 -2.4189
  975MOL0     H28672   3.404   1.900  11.350  0.8411 -0.2878 -0.1537
  975MOL0     H28673   3.315   1.922  11.194  0.7734  1.1397 -0.4841
  975MOL0     H28674   3.467   2.125  11.362  0.1837 -1.4765  1.3112
  975MOL0     H28675   3.416   2.141  11.181  1.1611 -0.5958 -0.6212
  975MOL0     H28676   3.651   2.010  11.304  1.2126 -0.4781 -0.7747
  975MOL0     H28677   3.642   2.136  11.187 -1.8905  0.8414 -1.6779
  975MOL0     H28678   3.693   1.898  11.104  0.8426 -0.0779  2.5989
  975MOL0     H28679   3.522   1.879  11.118 -0.6888  0.8248  2.3973
  975MOL0     H28680   3.646   2.123  10.976  0.9845 -0.8431  0.1572
  975MOL0     H28681   3.470   2.066  10.975  1.0465  1.5873  0.9774
  975MOL0     H28682   3.029   2.268  11.594  0.0852  1.3436  0.3636
  975MOL0     H28683   2.832   2.414  11.615  5.0192 -0.5437  2.1969
  975MOL0     H28684   2.390   2.499  11.764 -1.2568 -0.5298  1.4962
  975MOL0     H28685   2.162   2.602  11.768 -3.1218 -2.0289 -1.1717
  975MOL0     H28686   2.138   3.548  10.110 -0.9034  0.4326  1.2969
  975MOL0     H28687   2.254   3.629   9.880  1.1232  0.5437  1.5278
  975MOL0     H28688   2.480   3.784   9.556 -0.3224  1.9437  0.4165
  975MOL0     H28689   2.496   3.889   9.348 -2.4440  1.2540 -0.2237
  975MOL0     H28690   2.514   3.883   8.974  1.0601  0.7798  0.6025
  975MOL0     H28691   2.572   3.843   9.134  0.9194  1.0507 -1.6130
  975MOL0     H28692   2.354   4.054   9.055 -0.9621 -3.9372  0.0832
  975MOL0     H28693   2.432   4.050   9.215 -0.8165  0.1740  0.1248
  975MOL0     H28694   2.627   4.151   9.141 -0.7577 -3.0125  1.9554
  975MOL0     H28695   2.494   4.246   9.075  0.1638  0.5561  0.9204
  975MOL0     H28696   2.526   4.113   8.856 -0.9056 -1.6171  2.2259
  975MOL0     H28697   2.620   4.260   8.898  0.4023  0.4350 -1.9569
  975MOL0     H28698   2.932   3.995   8.964 -1.5806 -1.8427  2.0722
  975MOL0     H28699   2.184   3.639   9.190 -0.8729  1.5310 -0.4837
  975MOL0     H28700   2.154   3.535   9.406  2.1170 -1.5731  0.4935
  976MOL0     O28701   0.189   9.567   7.885 -0.7020 -0.0527  0.2560
  976MOL0     C28702   0.307   9.576   7.919 -0.9842 -0.8352  0.7249
  976MOL0     O28703   0.414   9.563   7.838  0.9228  0.3490 -0.4423
  976MOL0     C28704   0.387   9.540   7.702 -0.8657 -0.4033 -0.0304
  976MOL0     C28705   0.457   9.433   7.631  0.2119 -0.1910 -0.0334
  976MOL0     C28706   0.436   9.410   7.501 -0.5166 -0.1036  0.2188
  976MOL0     C28707   0.351   9.480   7.427 -0.5781  0.0181  0.5968
  976MOL0     O28708   0.335   9.435   7.295  0.3235 -0.3171  0.1669
  976MOL0     C28709   0.358   9.549   7.208  0.8476  0.0058 -0.2824
  976MOL0     C28710   0.348   9.507   7.057 -1.0901 -0.4774  0.1127
  976MOL0     C28711   0.365   9.634   6.969  0.6892  0.2570 -0.4638
  976MOL0     C28712   0.390   9.587   6.831 -0.4975 -0.2800  0.6796
  976MOL0     C28713   0.378   9.700   6.721  0.0378  0.9559  0.6754
  976MOL0     C28714   0.402   9.655   6.577 -0.8394  0.9227  0.5274
  976MOL0     C28715   0.538   9.581   6.549  0.3131 -0.4463  0.4910
  976MOL0     C28716   0.589   9.576   6.407 -0.0432 -0.4410  0.5060
  976MOL0     N28717   0.628   9.709   6.340 -0.2117  0.7020 -0.1182
  976MOL0     C28718   0.685   9.731   6.218 -0.3654 -0.3023  1.0240
  976MOL0     C28719   0.722   9.863   6.212 -0.6678  0.2315 -0.4349
  976MOL0     C28720   0.807   9.931   6.107  0.3171 -0.4779 -0.7054
  976MOL0     C28721   0.954   9.878   6.125 -0.4917 -0.0171  0.3028
  976MOL0     C28722   1.039   9.921   6.003  0.5455  0.5010  0.0628
  976MOL0     C28723   1.057  10.076   6.003 -0.1535  0.3416  0.7892
  976MOL0     O28724   1.175  10.103   5.924 -0.6879  0.5606 -0.3908
  976MOL0     C28725   1.166  10.117   5.789  0.1454  0.6247  0.0932
  976MOL0     C28726   1.276  10.134   5.715 -0.4290  0.9705 -0.2496
  976MOL0     C28727   1.283  10.175   5.591 -0.0286  0.7238 -0.3913
  976MOL0     C28728   1.160  10.182   5.522 -0.1479  0.6022 -0.8283
  976MOL0     C28729   1.164  10.231   5.380  0.6250 -1.1601 -0.4010
  976MOL0     O28730   1.280  10.216   5.312  0.0003 -0.1788 -0.0738
  976MOL0     C28731   1.315  10.300   5.212  0.2125 -0.0604  1.2859
  976MOL0     C28732   1.448  10.339   5.190  0.1950  0.8477  0.3046
  976MOL0     C28733   1.479  10.432   5.088  0.2508 -0.6563  0.6439
  976MOL0     C28734   1.389  10.483   4.989  0.0151  0.2655 -0.0409
  976MOL0     O28735   1.422  10.575   4.884  0.0519  1.3414 -1.5513
  976MOL0     C28736   1.480  10.703   4.918 -0.4381  0.3316 -0.3867
  976MOL0     C28737   1.635  10.711   4.930  0.8110  0.3143 -1.0282
  976MOL0     C28738   1.717  10.641   4.811  0.2229 -0.2493 -0.7986
  976MOL0     C28739   1.866  10.613   4.857 -0.1468 -0.4644  0.4983
  976MOL0     C28740   1.945  10.566   4.732 -0.0604  0.5134  0.2295
  976MOL0     C28741   2.084  10.516   4.765  0.2492 -0.6967 -0.7600
  976MOL0     C28742   2.166  10.617   4.848  0.2592 -0.3027  0.5998
  976MOL0     C28743   2.317  10.586   4.834  0.2993 -0.6067 -0.7452
  976MOL0    Cl28744   2.410  10.702   4.924  0.1951  0.1968  0.0204
  976MOL0     C28745   1.267  10.423   5.005  0.2151  0.2475  0.3755
  976MOL0     C28746   1.228  10.338   5.109 -0.5297  0.4211  0.1101
  976MOL0     O28747   1.067  10.294   5.345 -0.4669 -0.8717 -0.1864
  976MOL0     C28748   1.035  10.139   5.582 -0.7342  0.2270 -0.0233
  976MOL0     C28749   1.039  10.112   5.718  0.3132 -0.6725  0.0453
  976MOL0     N28750   0.704   9.919   6.343  0.4332  1.4183  0.2737
  976MOL0     N28751   0.649   9.820   6.416 -0.4811 -0.5315 -0.2483
  976MOL0     C28752   0.269   9.577   7.495  0.1580  0.1981  0.0624
  976MOL0     C28753   0.291   9.610   7.635 -0.8313  0.4760  0.6056
  976MOL0     C28754   0.333   9.621   8.052 -0.3700  0.5883 -0.2245
  976MOL0     C28755   0.231   9.657   8.144  0.7538 -0.1251  0.1503
  976MOL0     C28756   0.251   9.687   8.278 -0.4873 -0.5341 -0.3230
  976MOL0     C28757   0.382   9.711   8.321  0.5093 -0.0324 -0.2598
  976MOL0     O28758   0.403   9.754   8.448 -0.7866 -0.1654 -0.5984
  976MOL0     C28759   0.493   9.861   8.473 -0.3827 -0.0236 -0.1838
  976MOL0     C28760   0.463   9.909   8.620  0.4465  0.4956  0.1370
  976MOL0     C28761   0.592   9.980   8.679 -0.0152 -0.3538 -0.0962
  976MOL0     C28762   0.561  10.035   8.819 -0.3795  0.2123 -0.3672
  976MOL0     C28763   0.682  10.072   8.897 -0.2615 -0.5891 -1.0427
  976MOL0     C28764   0.780  10.112   8.969  0.9597  0.0087  1.0786
  976MOL0     C28765   0.490   9.674   8.233  0.8883 -0.7203  1.2566
  976MOL0     C28766   0.467   9.627   8.105  1.4233  0.0648 -0.4363
  976MOL0     H28767   0.524   9.366   7.686 -0.4126 -1.0736 -0.3274
  976MOL0     H28768   0.503   9.344   7.447 -0.9574  1.2794 -2.1224
  976MOL0     H28769   0.454   9.599   7.222 -0.2093  2.7792 -2.0746
  976MOL0     H28770   0.278   9.622   7.224 -1.2404 -2.2738  0.3673
  976MOL0     H28771   0.253   9.460   7.029 -1.9803  0.5160  1.3314
  976MOL0     H28772   0.412   9.419   7.055  0.8155  0.8373  0.4128
  976MOL0     H28773   0.443   9.704   7.001 -1.2527  4.1304 -3.3125
  976MOL0     H28774   0.268   9.685   6.975 -0.1416 -1.4236  1.4184
  976MOL0     H28775   0.482   9.528   6.824 -2.1102 -2.9903  0.5083
  976MOL0     H28776   0.312   9.521   6.792 -0.1855  0.3276 -1.0554
  976MOL0     H28777   0.463   9.767   6.734 -0.0789  1.0817  0.7994
  976MOL0     H28778   0.290   9.765   6.724  0.5503  1.6762  0.4007
  976MOL0     H28779   0.400   9.737   6.505  1.3189 -0.3792 -1.1477
  976MOL0     H28780   0.320   9.589   6.548  1.4836 -1.6338 -0.6310
  976MOL0     H28781   0.611   9.638   6.609  1.6443 -2.1054  0.5110
  976MOL0     H28782   0.535   9.476   6.578  1.4004 -1.1194 -1.6695
  976MOL0     H28783   0.515   9.531   6.340 -0.2043 -0.6727  0.8349
  976MOL0     H28784   0.678   9.512   6.411 -0.5931 -1.5999 -2.5813
  976MOL0     H28785   0.704   9.665   6.135  1.0381  0.1966  0.9233
  976MOL0     H28786   0.799  10.038   6.131  0.2124 -0.8497  1.0555
  976MOL0     H28787   0.770   9.913   6.005  0.2496  1.8410 -1.1630
  976MOL0     H28788   0.957   9.769   6.117 -1.6022  0.0095 -0.8263
  976MOL0     H28789   1.004   9.917   6.215  1.5355 -1.0173 -0.3376
  976MOL0     H28790   1.130   9.861   5.996  0.2193  0.1412 -1.1618
  976MOL0     H28791   0.981   9.902   5.912 -1.3065  2.0807  0.8439
  976MOL0     H28792   1.064  10.123   6.102 -2.0999 -1.1501  1.7069
  976MOL0     H28793   0.971  10.132   5.964  1.0334 -0.1310 -2.9061
  976MOL0     H28794   1.359  10.134   5.785  0.4922 -2.6999 -1.1014
  976MOL0     H28795   1.379  10.193   5.543  0.7812  0.9246  1.2257
  976MOL0     H28796   1.532  10.305   5.250  0.0216  0.1383  0.1426
  976MOL0     H28797   1.581  10.465   5.068 -0.5564  0.1202 -2.8243
  976MOL0     H28798   1.437  10.746   5.008 -0.7119 -1.2803  0.2885
  976MOL0     H28799   1.456  10.779   4.843 -0.3034  1.7550  0.9818
  976MOL0     H28800   1.659  10.666   5.027 -0.7463 -1.6053 -1.4688
  976MOL0     H28801   1.663  10.816   4.937  1.3213  0.0760  1.6497
  976MOL0     H28802   1.711  10.700   4.719 -1.0113 -0.7542 -1.0614
  976MOL0     H28803   1.661  10.547   4.802 -0.7027  0.2468 -0.4241
  976MOL0     H28804   1.916  10.698   4.903 -2.8087  1.5832 -0.1217
  976MOL0     H28805   1.875  10.521   4.915 -0.2564 -0.5035  0.4557
  976MOL0     H28806   1.949  10.656   4.670 -0.3885  1.6285  1.7391
  976MOL0     H28807   1.891  10.485   4.683 -2.0306  0.5938  2.0928
  976MOL0     H28808   2.139  10.515   4.670  1.3014 -2.0480 -0.1560
  976MOL0     H28809   2.072  10.425   4.824 -2.1224  1.8070  3.0898
  976MOL0     H28810   2.150  10.714   4.802  2.0738  0.1826  0.9009
  976MOL0     H28811   2.128  10.622   4.950 -0.9702 -2.0539  0.2722
  976MOL0     H28812   2.343  10.590   4.728 -0.7818 -1.3727 -1.0565
  976MOL0     H28813   2.344  10.485   4.869 -1.1969 -0.5429  0.6944
  976MOL0     H28814   1.190  10.453   4.934 -0.4292  0.0889  0.9965
  976MOL0     H28815   1.135  10.281   5.108 -0.4588  0.3093 -0.7347
  976MOL0     H28816   0.938  10.134   5.533 -0.6331 -0.1896 -0.1794
  976MOL0     H28817   0.957  10.063   5.770  0.6291 -4.3319 -2.5473
  976MOL0     H28818   0.188   9.630   7.446  0.6490 -0.7558 -1.8965
  976MOL0     H28819   0.231   9.683   7.689  0.0261  2.2106 -0.6457
  976MOL0     H28820   0.128   9.649   8.111  0.6255 -2.9363  0.9646
  976MOL0     H28821   0.167   9.713   8.342  0.5479 -2.7908  2.0960
  976MOL0     H28822   0.473   9.944   8.404  2.4954  0.8829 -0.0528
  976MOL0     H28823   0.600   9.839   8.471  0.0430  0.8918  4.0884
  976MOL0     H28824   0.372   9.968   8.624 -1.7758 -2.6627  0.0359
  976MOL0     H28825   0.423   9.826   8.679 -2.5587  0.9081 -1.1601
  976MOL0     H28826   0.625  10.063   8.616  1.0828 -0.5278  0.2287
  976MOL0     H28827   0.671   9.905   8.681 -1.4522 -2.0135 -1.7286
  976MOL0     H28828   0.490  10.119   8.813 -0.0597  0.4033 -2.0029
  976MOL0     H28829   0.509   9.959   8.877 -1.8436  1.0184 -0.5572
  976MOL0     H28830   0.871  10.136   9.021 -0.2995  2.7542  2.1707
  976MOL0     H28831   0.593   9.681   8.267  1.9686 -3.6679 -1.0228
  976MOL0     H28832   0.548   9.595   8.040 -0.3784 -0.2673 -2.6403
  977MOL0     O28833   9.140   5.790   1.002  0.0173 -1.1229  0.1147
  977MOL0     C28834   9.055   5.780   1.092 -0.7542 -0.1738  0.2337
  977MOL0     O28835   9.022   5.873   1.175  0.6374  0.0077 -1.2786
  977MOL0     C28836   9.060   6.003   1.152  0.1557 -0.4503 -0.5448
  977MOL0     C28837   8.980   6.075   1.065 -0.0378 -0.1545 -0.5439
  977MOL0     C28838   8.986   6.216   1.057  0.8691 -0.0118 -0.8263
  977MOL0     C28839   9.075   6.282   1.131  0.4288 -0.7799 -0.9066
  977MOL0     O28840   9.085   6.418   1.119  1.2049 -0.2181 -0.3166
  977MOL0     C28841   9.207   6.489   1.165 -0.1081  0.5037  0.5280
  977MOL0     C28842   9.228   6.636   1.118 -0.4050 -0.2328 -0.4906
  977MOL0     C28843   9.225   6.633   0.962 -0.1149  0.1376 -1.7329
  977MOL0     C28844   9.315   6.543   0.880  0.6319  0.5361 -0.4069
  977MOL0     C28845   9.357   6.596   0.735 -0.0946 -0.0185 -0.2820
  977MOL0     C28846   9.233   6.612   0.653  0.0864  0.5616  0.7866
  977MOL0     C28847   9.280   6.581   0.504  0.7070 -0.5913  0.9018
  977MOL0     C28848   9.148   6.564   0.414  0.3672 -0.9403 -0.2098
  977MOL0     N28849   9.164   6.529   0.268 -0.0124  0.2093  0.5599
  977MOL0     C28850   9.129   6.592   0.154  0.1708  0.3509  0.2042
  977MOL0     C28851   9.166   6.496   0.058  0.1301 -0.5223 -0.1243
  977MOL0     C28852   9.155   6.500  -0.087 -0.7333  0.7622 -0.4487
  977MOL0     C28853   9.006   6.463  -0.122 -0.9428 -0.3293  0.4009
  977MOL0     C28854   8.975   6.478  -0.272  0.3986  0.4712 -0.1053
  977MOL0     C28855   8.934   6.622  -0.301  0.1507  0.1875 -0.4568
  977MOL0     O28856   9.044   6.708  -0.324 -0.2188 -0.3268 -0.3903
  977MOL0     C28857   9.118   6.688  -0.438  0.2003  0.6796 -0.6673
  977MOL0     C28858   9.095   6.587  -0.538  0.4238 -0.3546 -0.5356
  977MOL0     C28859   9.177   6.597  -0.650  0.6055  0.1253  0.0720
  977MOL0     C28860   9.272   6.697  -0.675 -0.9427 -0.8331 -0.3160
  977MOL0     C28861   9.352   6.705  -0.800 -0.1849  0.3772  0.8763
  977MOL0     O28862   9.430   6.822  -0.820 -0.6649  1.3015  0.4969
  977MOL0     C28863   9.508   6.818  -0.936  0.7744 -0.5455  0.3792
  977MOL0     C28864   9.649   6.809  -0.922  0.9333 -0.9895  0.4738
  977MOL0     C28865   9.728   6.803  -1.036 -0.4355 -0.2049  0.3996
  977MOL0     C28866   9.679   6.816  -1.160 -0.2513 -0.0591  0.4023
  977MOL0     O28867   9.767   6.809  -1.257 -0.7518  0.9134 -0.7356
  977MOL0     C28868   9.772   6.695  -1.348  0.9055 -1.0266 -0.2580
  977MOL0     C28869   9.850   6.578  -1.289 -0.1877 -0.4419  0.3394
  977MOL0     C28870   9.999   6.609  -1.307  0.3412  0.0783  0.7856
  977MOL0     C28871  10.089   6.557  -1.196  0.0875  0.1105 -0.8190
  977MOL0     C28872  10.107   6.404  -1.209 -0.2745 -0.4272  0.6385
  977MOL0     C28873  10.180   6.363  -1.082 -0.2114 -0.2367  0.2658
  977MOL0     C28874  10.240   6.227  -1.085  0.1198  0.4133 -0.0970
  977MOL0     C28875  10.220   6.169  -0.950 -0.6920 -0.0666 -0.1961
  977MOL0    Cl28876  10.294   6.004  -0.946  0.4174 -0.0296  0.3356
  977MOL0     C28877   9.540   6.836  -1.175  0.0947 -0.1118 -0.0416
  977MOL0     C28878   9.452   6.825  -1.061  0.5164  0.5132  1.8249
  977MOL0     O28879   9.362   6.605  -0.870 -0.2520  0.2232  0.0714
  977MOL0     C28880   9.288   6.790  -0.573  0.9155 -0.0869 -0.4865
  977MOL0     C28881   9.215   6.778  -0.461 -0.5122 -0.2873  0.3548
  977MOL0     N28882   9.205   6.382   0.120  0.3181  0.2193 -0.2733
  977MOL0     N28883   9.217   6.407   0.244  0.5177  0.6462 -0.5315
  977MOL0     C28884   9.165   6.210   1.215  0.3086 -0.2537  1.5182
  977MOL0     C28885   9.152   6.064   1.231 -0.1247 -0.7134  0.5386
  977MOL0     C28886   8.987   5.653   1.102  0.4739  0.5030 -0.2021
  977MOL0     C28887   9.000   5.556   1.000 -1.3346  0.4336  0.8279
  977MOL0     C28888   8.932   5.434   1.006 -0.1238  0.2886 -1.1277
  977MOL0     C28889   8.844   5.407   1.115  0.1356  0.5880  0.8736
  977MOL0     O28890   8.762   5.297   1.126  0.0994  0.2110  0.4210
  977MOL0     C28891   8.768   5.184   1.040  0.5270 -0.3412  0.9531
  977MOL0     C28892   8.677   5.203   0.929  0.2854  0.1581  0.4922
  977MOL0     C28893   8.535   5.210   0.987  0.8362  0.6348  0.6176
  977MOL0     C28894   8.445   5.269   0.875  0.4248  0.2158 -1.2045
  977MOL0     C28895   8.451   5.198   0.753 -0.4519 -0.0678 -0.2579
  977MOL0     C28896   8.461   5.144   0.642 -0.8675 -0.2251 -0.3921
  977MOL0     C28897   8.828   5.497   1.221  0.0424  0.5021 -0.1744
  977MOL0     C28898   8.893   5.628   1.213  0.2336 -0.8008 -0.1760
  977MOL0     H28899   8.908   6.007   1.020 -0.0865 -0.1845 -0.4202
  977MOL0     H28900   8.914   6.279   1.005 -0.6079 -2.4739 -1.9251
  977MOL0     H28901   9.300   6.443   1.133 -0.3505  1.5380 -1.9129
  977MOL0     H28902   9.201   6.495   1.274  4.4668  1.2648  0.9133
  977MOL0     H28903   9.315   6.682   1.164  0.7190 -1.4367 -1.3188
  977MOL0     H28904   9.141   6.686   1.161 -1.7899 -3.2541  0.5556
  977MOL0     H28905   9.254   6.734   0.930 -1.9479  1.2056 -0.2684
  977MOL0     H28906   9.120   6.609   0.941 -0.5598 -1.1127  1.4026
  977MOL0     H28907   9.408   6.541   0.937 -2.2080 -2.3767  4.9792
  977MOL0     H28908   9.273   6.442   0.877  1.6010  0.1116 -3.8450
  977MOL0     H28909   9.427   6.524   0.692 -1.3201 -1.1012 -0.5318
  977MOL0     H28910   9.399   6.697   0.735 -0.6782  0.2288 -1.2514
  977MOL0     H28911   9.202   6.717   0.656  1.2752  0.9061  2.4651
  977MOL0     H28912   9.161   6.540   0.693  2.5479 -2.5842 -0.0235
  977MOL0     H28913   9.348   6.655   0.460  0.5377 -1.2977 -0.5997
  977MOL0     H28914   9.327   6.483   0.490  0.5969 -0.4857 -0.3385
  977MOL0     H28915   9.094   6.658   0.426  0.4666 -1.0006  0.7758
  977MOL0     H28916   9.092   6.477   0.450  1.0418 -0.6209  1.7106
  977MOL0     H28917   9.104   6.696   0.133  0.3598  0.1262 -1.1947
  977MOL0     H28918   9.218   6.419  -0.126  0.4871  0.1928  2.4554
  977MOL0     H28919   9.193   6.594  -0.128  1.4909  1.7616  3.4099
  977MOL0     H28920   8.936   6.522  -0.062 -3.0266 -0.6870 -1.5317
  977MOL0     H28921   8.977   6.362  -0.092 -2.6915  0.6947  2.5034
  977MOL0     H28922   9.064   6.444  -0.326  0.4975  0.7894 -0.1421
  977MOL0     H28923   8.884   6.422  -0.295 -0.1179  1.1432  0.2586
  977MOL0     H28924   8.868   6.647  -0.217 -0.1866 -0.8919 -0.3855
  977MOL0     H28925   8.864   6.632  -0.384  0.9153 -0.3149 -1.1745
  977MOL0     H28926   9.008   6.523  -0.544 -0.1098  0.3692 -0.6192
  977MOL0     H28927   9.155   6.528  -0.731 -2.7902  0.9477  0.1662
  977MOL0     H28928   9.691   6.819  -0.822 -0.8426  0.4308  1.1190
  977MOL0     H28929   9.830   6.782  -1.008  0.3705  0.7547 -1.5893
  977MOL0     H28930   9.808   6.726  -1.446  1.7996 -2.1371 -0.2992
  977MOL0     H28931   9.669   6.658  -1.357  0.5562 -0.7013  1.8884
  977MOL0     H28932   9.838   6.478  -1.332  5.3797 -1.2841 -0.0802
  977MOL0     H28933   9.832   6.566  -1.182 -2.0427 -2.0992 -0.1114
  977MOL0     H28934  10.004   6.716  -1.329  0.3043 -0.4775 -2.5024
  977MOL0     H28935  10.041   6.565  -1.399  3.8122  4.5820 -0.1382
  977MOL0     H28936  10.187   6.608  -1.196 -0.7629  2.0594  2.4826
  977MOL0     H28937  10.049   6.590  -1.100  0.0658 -2.4779  0.1375
  977MOL0     H28938  10.179   6.381  -1.289  2.5769  1.0058  2.5977
  977MOL0     H28939  10.012   6.352  -1.225  0.5726 -2.6409  2.2322
  977MOL0     H28940  10.100   6.373  -1.009 -1.3077 -1.3024 -0.7464
  977MOL0     H28941  10.260   6.435  -1.063 -1.3225  0.6209  1.9119
  977MOL0     H28942  10.212   6.168  -1.173 -0.7340  1.1940 -0.3605
  977MOL0     H28943  10.344   6.238  -1.115  0.1714  0.6514  0.1671
  977MOL0     H28944  10.114   6.156  -0.924 -0.1651  0.7036  2.7471
  977MOL0     H28945  10.279   6.223  -0.875 -0.3559  1.4999 -1.5306
  977MOL0     H28946   9.517   6.873  -1.275 -1.6090  1.1989  0.7778
  977MOL0     H28947   9.345   6.837  -1.055  0.6210  0.8663  4.4274
  977MOL0     H28948   9.370   6.860  -0.581  2.5051 -1.6652  0.9852
  977MOL0     H28949   9.221   6.840  -0.372  0.1683 -2.8566  2.2006
  977MOL0     H28950   9.245   6.250   1.276  1.0355 -0.9847  1.0660
  977MOL0     H28951   9.220   6.004   1.291  3.2192 -1.0439 -3.1604
  977MOL0     H28952   9.061   5.573   0.912 -0.2007  0.3629  1.5677
  977MOL0     H28953   8.931   5.364   0.923 -1.2751 -3.4913  1.7420
  977MOL0     H28954   8.746   5.092   1.094  0.7460 -2.2271 -1.9363
  977MOL0     H28955   8.868   5.174   0.997 -0.2104 -0.1080 -0.9043
  977MOL0     H28956   8.704   5.293   0.874 -0.4368  0.9868  1.4576
  977MOL0     H28957   8.691   5.126   0.852 -1.6574  2.9556 -2.9464
  977MOL0     H28958   8.519   5.271   1.076 -5.9650  0.7201 -0.1501
  977MOL0     H28959   8.482   5.122   1.023  0.5828 -0.4228 -2.1011
  977MOL0     H28960   8.342   5.263   0.911  1.8614 -1.4125  3.2740
  977MOL0     H28961   8.469   5.375   0.859  2.1048  0.2318  0.9951
  977MOL0     H28962   8.470   5.082   0.555 -1.6470  1.5524 -1.7959
  977MOL0     H28963   8.771   5.457   1.304 -4.1169  1.9115 -2.0847
  977MOL0     H28964   8.874   5.710   1.282  2.8911  0.8392 -1.2208
  978MOL0     O28965   3.712   0.659   9.370  0.3080 -0.0613 -0.8752
  978MOL0     C28966   3.669   0.773   9.344 -0.5308 -0.4295  0.0689
  978MOL0     O28967   3.743   0.870   9.279  0.2476  0.5612 -0.2085
  978MOL0     C28968   3.865   0.823   9.237 -0.1364  0.1299 -0.4583
  978MOL0     C28969   3.974   0.793   9.323 -0.8628 -0.2279  0.4062
  978MOL0     C28970   4.089   0.732   9.273 -0.4153  0.9753 -0.2634
  978MOL0     C28971   4.109   0.702   9.140  0.0956  0.5532 -0.3481
  978MOL0     O28972   4.220   0.641   9.112 -0.0878 -0.1338 -0.5067
  978MOL0     C28973   4.210   0.540   9.011 -0.5934  0.8867 -0.1502
  978MOL0     C28974   4.247   0.406   9.074  0.5977  0.0894 -0.9423
  978MOL0     C28975   4.398   0.403   9.118  0.7376  0.4020  0.0626
  978MOL0     C28976   4.419   0.260   9.187 -0.6817 -0.1213  0.2135
  978MOL0     C28977   4.563   0.225   9.183  0.5811  0.3568  0.2216
  978MOL0     C28978   4.650   0.296   9.283  1.0928  0.0769  0.1800
  978MOL0     C28979   4.798   0.228   9.288  0.3330 -0.1611  0.4315
  978MOL0     C28980   4.793   0.078   9.339 -0.4967 -0.7255  0.1387
  978MOL0     N28981   4.738   0.067   9.479  0.3253  0.3921 -0.4594
  978MOL0     C28982   4.779   0.136   9.596 -0.2565  1.2774  0.3297
  978MOL0     C28983   4.698   0.102   9.695 -0.3648 -0.7192  0.8354
  978MOL0     C28984   4.709   0.155   9.835  0.0639  0.1234  0.1753
  978MOL0     C28985   4.786   0.068   9.925 -0.4316 -0.1111 -0.5227
  978MOL0     C28986   4.812   0.119  10.066 -0.2568 -0.9537 -0.8288
  978MOL0     C28987   4.693   0.156  10.152 -0.7170  0.5652 -1.0715
  978MOL0     O28988   4.616   0.274  10.112  0.0156 -0.4995  0.4072
  978MOL0     C28989   4.494   0.280  10.173 -0.4175 -0.4421  0.5486
  978MOL0     C28990   4.477   0.367  10.277 -0.0212 -0.4680 -0.6649
  978MOL0     C28991   4.351   0.402  10.339  0.2787 -0.2930 -0.2211
  978MOL0     C28992   4.235   0.323  10.303 -0.9209  0.5144 -0.5357
  978MOL0     C28993   4.110   0.345  10.375  0.1428  0.6992  0.2576
  978MOL0     O28994   3.997   0.288  10.317 -0.1003  0.1349  1.1790
  978MOL0     C28995   3.880   0.289  10.380 -0.5198  0.7449 -0.2988
  978MOL0     C28996   3.817   0.167  10.408 -1.1579  0.0449  0.5282
  978MOL0     C28997   3.695   0.161  10.465 -0.0960  0.4072  0.5343
  978MOL0     C28998   3.632   0.283  10.493 -0.2463  0.5516 -0.1299
  978MOL0     O28999   3.511   0.277  10.557  0.2715  0.0186 -0.0416
  978MOL0     C29000   3.491   0.360  10.671 -0.0532  0.0121 -0.9637
  978MOL0     C29001   3.602   0.359  10.772  1.0399 -0.0064  0.2776
  978MOL0     C29002   3.578   0.468  10.873 -0.6766  0.0996 -0.1439
  978MOL0     C29003   3.668   0.476  11.008  1.2682  0.4304 -0.2754
  978MOL0     C29004   3.807   0.524  10.981 -0.5599 -0.0627 -0.2272
  978MOL0     C29005   3.885   0.558  11.113  0.5908  0.0837 -0.3226
  978MOL0     C29006   3.908   0.430  11.202 -0.5236 -0.5158 -1.1290
  978MOL0     C29007   3.935   0.464  11.350  0.3201 -0.1953  0.6827
  978MOL0    Cl29008   3.796   0.533  11.433 -0.3485 -0.1626  0.0472
  978MOL0     C29009   3.694   0.403  10.460  0.0173 -0.7693 -0.0523
  978MOL0     C29010   3.823   0.412  10.415  0.3321  0.1220  0.4920
  978MOL0     O29011   4.115   0.419  10.470 -0.3585  0.3965 -0.0630
  978MOL0     C29012   4.258   0.217  10.201  0.0356 -0.4839 -0.1167
  978MOL0     C29013   4.379   0.211  10.134 -0.7460  0.5357 -0.5352
  978MOL0     N29014   4.606   0.008   9.644 -0.4154  0.1067 -0.1833
  978MOL0     N29015   4.630  -0.005   9.513  0.6174 -0.0155  0.0709
  978MOL0     C29016   4.008   0.738   9.051  0.4400  0.8870 -0.3148
  978MOL0     C29017   3.886   0.793   9.102  0.1561 -0.3457 -0.4305
  978MOL0     C29018   3.546   0.819   9.407 -0.3444 -1.4092 -0.3018
  978MOL0     C29019   3.516   0.961   9.393 -0.4665 -0.1409 -0.8431
  978MOL0     C29020   3.400   1.018   9.453  0.1674 -0.3180 -0.2707
  978MOL0     C29021   3.321   0.933   9.540 -0.1766 -0.1223  0.2855
  978MOL0     O29022   3.218   0.985   9.622 -0.2175 -0.6069  0.0820
  978MOL0     C29023   3.193   1.131   9.613  1.0271  0.5808 -0.4980
  978MOL0     C29024   3.074   1.147   9.713 -0.6072 -0.7606 -0.8741
  978MOL0     C29025   3.014   1.282   9.699  0.1304 -0.9822  0.0398
  978MOL0     C29026   3.090   1.402   9.766  0.2356 -0.0397  1.7137
  978MOL0     C29027   3.103   1.403   9.915  0.3419 -0.3186 -0.9047
  978MOL0     C29028   3.132   1.388  10.034 -0.3986 -0.8206 -0.0770
  978MOL0     C29029   3.359   0.795   9.546  0.2221  0.4049 -0.0156
  978MOL0     C29030   3.455   0.737   9.470 -1.6092 -0.4132 -0.7617
  978MOL0     H29031   3.956   0.800   9.430 -0.1594 -4.4907  0.9604
  978MOL0     H29032   4.160   0.698   9.348  0.0880  3.3607  0.4033
  978MOL0     H29033   4.291   0.568   8.943 -1.3440  2.6831 -0.3405
  978MOL0     H29034   4.116   0.524   8.958 -0.2371  1.8484 -1.1083
  978MOL0     H29035   4.245   0.338   8.989 -1.5048 -0.7615 -0.2924
  978MOL0     H29036   4.178   0.367   9.150  1.1765  1.7360  0.4890
  978MOL0     H29037   4.412   0.480   9.194 -1.2045 -1.2874  2.3078
  978MOL0     H29038   4.471   0.424   9.040 -0.9507 -0.4106 -1.8496
  978MOL0     H29039   4.385   0.249   9.290 -0.5720  0.9446  0.3656
  978MOL0     H29040   4.361   0.187   9.129 -0.5855  1.7271 -2.3907
  978MOL0     H29041   4.603   0.241   9.082 -2.6885 -2.0218 -1.6373
  978MOL0     H29042   4.574   0.119   9.207  1.2564  0.0480 -1.3096
  978MOL0     H29043   4.608   0.289   9.383 -1.8112  1.1435 -0.8629
  978MOL0     H29044   4.653   0.402   9.257 -0.8772 -0.6427 -3.7104
  978MOL0     H29045   4.843   0.225   9.188  0.1116  0.1598  0.3207
  978MOL0     H29046   4.856   0.296   9.351 -1.9625  3.0500 -0.6607
  978MOL0     H29047   4.893   0.034   9.350  0.1706 -0.1568 -2.9376
  978MOL0     H29048   4.737   0.013   9.271 -3.0996 -0.3244  1.7443
  978MOL0     H29049   4.869   0.193   9.619  0.6021 -0.3562  1.2306
  978MOL0     H29050   4.605   0.167   9.867 -0.9606 -2.5721 -1.7781
  978MOL0     H29051   4.767   0.247   9.824 -0.3017  0.2887 -0.3480
  978MOL0     H29052   4.883   0.056   9.876 -0.8365  0.7797 -1.5551
  978MOL0     H29053   4.744  -0.033   9.933  2.6713 -1.5116 -0.7445
  978MOL0     H29054   4.845   0.033  10.125 -3.3188  0.1289  2.8896
  978MOL0     H29055   4.884   0.201  10.066 -1.6375  0.3237  0.8824
  978MOL0     H29056   4.726   0.175  10.254  2.0121 -1.9405 -1.3534
  978MOL0     H29057   4.623   0.073  10.167  0.1702 -0.0691 -0.3298
  978MOL0     H29058   4.559   0.425  10.317 -2.4327  1.8050  1.3790
  978MOL0     H29059   4.342   0.480  10.413  1.4543  2.1001 -2.4323
  978MOL0     H29060   3.866   0.072  10.391 -0.0369  0.4932  1.2183
  978MOL0     H29061   3.656   0.063  10.489  4.4992 -2.1609 -1.2055
  978MOL0     H29062   3.404   0.315  10.721 -0.4125  3.2763  1.7069
  978MOL0     H29063   3.456   0.459  10.640  0.2983  0.2857 -0.4994
  978MOL0     H29064   3.701   0.374  10.729  0.5700  0.7608 -0.5764
  978MOL0     H29065   3.591   0.262  10.822 -0.6045 -0.4605 -0.8677
  978MOL0     H29066   3.474   0.459  10.906  0.1926  0.8384  3.2628
  978MOL0     H29067   3.586   0.564  10.821  0.0826  0.0871 -0.0638
  978MOL0     H29068   3.617   0.530  11.087  0.9290 -0.5909  0.2192
  978MOL0     H29069   3.679   0.374  11.048 -1.9739 -0.9661 -2.4964
  978MOL0     H29070   3.820   0.620  10.930  0.9664  1.0450  2.1042
  978MOL0     H29071   3.861   0.448  10.924 -3.8532  0.2249 -4.1915
  978MOL0     H29072   3.823   0.627  11.171  0.6361  1.6450 -2.0637
  978MOL0     H29073   3.987   0.593  11.096 -0.6546  5.0350  0.9258
  978MOL0     H29074   3.816   0.371  11.205  0.2222 -1.7222 -1.2077
  978MOL0     H29075   3.993   0.374  11.163 -0.8527 -2.2937  0.5415
  978MOL0     H29076   4.013   0.542  11.355 -0.3313  1.1080 -4.1146
  978MOL0     H29077   3.960   0.375  11.409 -0.1680 -0.7693  0.0303
  978MOL0     H29078   3.643   0.499  10.468  0.8430 -0.1806 -1.3897
  978MOL0     H29079   3.884   0.501  10.402  0.3248  0.4156  2.1937
  978MOL0     H29080   4.180   0.144  10.180 -0.7541  1.2954 -4.6218
  978MOL0     H29081   4.394   0.146  10.048  0.1898  2.1324 -1.6155
  978MOL0     H29082   4.018   0.708   8.948 -0.4991 -3.5413  0.6472
  978MOL0     H29083   3.817   0.837   9.030  0.7538  4.5663  1.5983
  978MOL0     H29084   3.576   1.034   9.340  0.3410 -0.1273  0.0540
  978MOL0     H29085   3.379   1.124   9.443 -0.9187 -0.2682  2.0345
  978MOL0     H29086   3.164   1.157   9.511 -3.7581 -2.7294 -0.3227
  978MOL0     H29087   3.285   1.180   9.647  1.2105 -0.1397  0.0822
  978MOL0     H29088   3.011   1.066   9.677  1.5157 -2.9177 -0.0670
  978MOL0     H29089   3.104   1.124   9.816  0.8843 -1.7920 -1.5024
  978MOL0     H29090   2.914   1.285   9.744 -0.0687  0.1783 -0.4636
  978MOL0     H29091   3.000   1.312   9.595  0.2402  1.2589  0.6219
  978MOL0     H29092   3.188   1.402   9.716 -0.2561  0.7271  0.7197
  978MOL0     H29093   3.046   1.498   9.740  3.5368  1.9798  2.8789
  978MOL0     H29094   3.134   1.381  10.141 -2.8777  0.7201  0.1379
  978MOL0     H29095   3.301   0.728   9.609 -0.0318 -1.1604 -1.8138
  978MOL0     H29096   3.465   0.634   9.500 -1.1804  0.0140  0.5992
  979MOL0     O29097   4.074  10.631   5.927 -0.1815 -0.9168 -0.9409
  979MOL0     C29098   4.062  10.644   6.049  0.2016 -0.6355  0.6122
  979MOL0     O29099   4.152  10.695   6.132  0.0087  0.7305 -0.1468
  979MOL0     C29100   4.261  10.753   6.078 -0.4233 -1.0287 -0.2280
  979MOL0     C29101   4.357  10.672   6.021  0.1024 -0.0776  0.3947
  979MOL0     C29102   4.466  10.725   5.963  0.2234  0.2192  0.0339
  979MOL0     C29103   4.493  10.868   5.955  0.2287 -0.5664 -0.7034
  979MOL0     O29104   4.604  10.926   5.895 -0.5075  0.1063 -0.0381
  979MOL0     C29105   4.650  10.855   5.777  0.1769  0.2989  0.2560
  979MOL0     C29106   4.769  10.931   5.707 -0.1682  0.2314  0.5491
  979MOL0     C29107   4.859  10.835   5.638 -0.4731  0.0735  0.7661
  979MOL0     C29108   4.945  10.746   5.735  0.9187  0.6140 -0.1718
  979MOL0     C29109   4.918  10.604   5.700  0.3637 -0.5962 -0.0565
  979MOL0     C29110   5.003  10.510   5.789 -0.1859 -0.2411  0.2785
  979MOL0     C29111   4.967  10.353   5.794 -0.2953 -0.2821 -0.6223
  979MOL0     C29112   5.037  10.301   5.917  0.2614  0.0177 -0.0411
  979MOL0     N29113   5.178  10.280   5.905 -0.7105 -0.9919 -0.0078
  979MOL0     C29114   5.275  10.345   5.976  1.2014 -0.1640  0.9033
  979MOL0     C29115   5.389  10.277   5.978  0.9180  1.0364 -0.7486
  979MOL0     C29116   5.504  10.306   6.069 -0.1961 -1.0180 -0.2393
  979MOL0     C29117   5.628  10.330   5.990 -0.0907  1.1122  0.5408
  979MOL0     C29118   5.621  10.471   5.926  0.3632  0.3841  0.1857
  979MOL0     C29119   5.737  10.499   5.830  0.6177 -0.7632  0.0477
  979MOL0     O29120   5.758  10.639   5.805 -0.1091  0.0532  0.3132
  979MOL0     C29121   5.841  10.718   5.897 -0.8378 -0.0997 -0.4402
  979MOL0     C29122   5.969  10.672   5.953 -0.6035 -0.8787  0.9255
  979MOL0     C29123   6.049  10.747   6.047  0.0577 -0.0539 -0.3419
  979MOL0     C29124   6.001  10.876   6.080 -0.9692 -0.3039  0.1453
  979MOL0     C29125   6.081  10.965   6.173  0.6699  0.4022  0.3780
  979MOL0     O29126   6.083  11.103   6.158 -0.8274  0.1253 -0.1192
  979MOL0     C29127   6.165  11.178   6.239  0.0614  0.1581  0.4567
  979MOL0     C29128   6.109  11.257   6.343 -0.1503  0.5222  1.1864
  979MOL0     C29129   6.199  11.314   6.430  0.5171  0.8151 -0.3670
  979MOL0     C29130   6.330  11.285   6.421  0.6814 -0.1057  0.3999
  979MOL0     O29131   6.398  11.341   6.518 -0.6634  0.1565 -0.7466
  979MOL0     C29132   6.477  11.257   6.612 -0.0380 -0.1686  1.0551
  979MOL0     C29133   6.636  11.263   6.576 -0.5182  0.1179 -0.1041
  979MOL0     C29134   6.680  11.408   6.573 -0.6411  0.4609  0.2610
  979MOL0     C29135   6.831  11.431   6.556  0.3422  0.1912 -0.5704
  979MOL0     C29136   6.912  11.344   6.655  0.0018  0.1704 -1.1757
  979MOL0     C29137   7.059  11.395   6.675 -0.3089 -0.4148  0.0152
  979MOL0     C29138   7.138  11.312   6.772 -0.1627  0.3676 -0.6149
  979MOL0     C29139   7.227  11.396   6.869 -0.3930  0.9861  0.6050
  979MOL0    Cl29140   7.391  11.440   6.808  0.0182  0.5303  0.2998
  979MOL0     C29141   6.374  11.211   6.311 -1.0437  0.4495 -0.5907
  979MOL0     C29142   6.299  11.160   6.217  0.1692  0.0080 -0.8351
  979MOL0     O29143   6.159  10.900   6.240 -0.0778 -0.2299 -0.1721
  979MOL0     C29144   5.886  10.922   6.021  0.2675  0.9641  0.7522
  979MOL0     C29145   5.808  10.853   5.919  0.2227 -0.1287 -0.8605
  979MOL0     N29146   5.355  10.159   5.905  0.4443  0.1868 -0.5644
  979MOL0     N29147   5.235  10.162   5.862 -0.3221 -0.0890 -0.8279
  979MOL0     C29148   4.387  10.946   6.014 -0.2761  0.1462 -0.3142
  979MOL0     C29149   4.274  10.887   6.077  0.9942 -0.1507  0.4904
  979MOL0     C29150   3.935  10.615   6.113  0.6120 -0.1366  0.3102
  979MOL0     C29151   3.930  10.610   6.256 -0.1504  0.2670  0.0545
  979MOL0     C29152   3.805  10.571   6.309  0.4337  1.5553  0.2944
  979MOL0     C29153   3.693  10.537   6.232  0.3584 -0.6669  0.1810
  979MOL0     O29154   3.590  10.491   6.314 -0.8304  0.6550  0.0840
  979MOL0     C29155   3.469  10.559   6.314  0.2170 -0.6498 -1.2071
  979MOL0     C29156   3.361  10.475   6.390 -0.9701  0.5150  0.2587
  979MOL0     C29157   3.219  10.510   6.336 -0.4931  0.1081 -0.1253
  979MOL0     C29158   3.117  10.422   6.393  0.3123  0.4467 -0.1858
  979MOL0     C29159   2.989  10.483   6.350 -0.2415 -0.3194  0.3351
  979MOL0     C29160   2.879  10.515   6.308 -0.6429  0.1200  0.0071
  979MOL0     C29161   3.693  10.542   6.091 -0.0482  0.1469 -0.2708
  979MOL0     C29162   3.818  10.588   6.034  0.0933 -0.2300 -0.0342
  979MOL0     H29163   4.330  10.567   6.016  1.0870 -0.3337  0.1498
  979MOL0     H29164   4.543  10.654   5.932  1.0563  1.2486 -0.2989
  979MOL0     H29165   4.570  10.838   5.703  0.4827  2.2799 -0.6109
  979MOL0     H29166   4.680  10.756   5.811 -0.9429  1.3245  4.8723
  979MOL0     H29167   4.834  10.978   5.782 -2.1290  2.4684  0.9634
  979MOL0     H29168   4.742  11.016   5.644 -1.3685 -0.1458  0.5382
  979MOL0     H29169   4.925  10.898   5.576  1.8363  0.5135  3.4577
  979MOL0     H29170   4.796  10.776   5.571 -2.0642  0.2633  2.0545
  979MOL0     H29171   5.048  10.784   5.735  0.8260  0.8736 -1.1708
  979MOL0     H29172   4.918  10.759   5.841  1.0087 -0.3486 -0.0149
  979MOL0     H29173   4.924  10.600   5.591  1.1757 -1.6982  0.0114
  979MOL0     H29174   4.815  10.586   5.732  0.1556  0.2156 -0.2489
  979MOL0     H29175   4.981  10.550   5.888 -0.4446  0.7717 -0.1760
  979MOL0     H29176   5.109  10.518   5.765 -0.0428  1.4435  1.3438
  979MOL0     H29177   4.859  10.342   5.808 -0.5343  0.4502 -1.7219
  979MOL0     H29178   4.995  10.299   5.703 -1.6723 -1.1932 -0.5349
  979MOL0     H29179   4.976  10.216   5.951 -1.3015  0.9711 -0.3736
  979MOL0     H29180   5.026  10.371   6.000  0.8484 -0.2328  0.2633
  979MOL0     H29181   5.254  10.426   6.046  0.2371 -2.3772  3.3516
  979MOL0     H29182   5.521  10.226   6.142  2.0795 -1.3948 -1.1050
  979MOL0     H29183   5.489  10.399   6.124 -1.2855 -2.3159  1.8066
  979MOL0     H29184   5.640  10.258   5.908 -4.4460  2.2982 -1.4199
  979MOL0     H29185   5.720  10.335   6.049 -0.3036  3.2129  0.7892
  979MOL0     H29186   5.524  10.498   5.882  1.4736  1.4602 -1.7279
  979MOL0     H29187   5.630  10.538   6.012 -2.2539  1.6427 -0.4108
  979MOL0     H29188   5.722  10.446   5.735  0.5346 -1.3033  0.3594
  979MOL0     H29189   5.833  10.457   5.861  0.0669  0.1404  3.4050
  979MOL0     H29190   6.014  10.583   5.910 -1.8155  0.3826 -3.4823
  979MOL0     H29191   6.144  10.701   6.073 -1.2520 -2.1990  0.9786
  979MOL0     H29192   6.004  11.268   6.367 -0.6183 -3.3564  1.4488
  979MOL0     H29193   6.161  11.370   6.515 -2.8172  0.3174 -1.3833
  979MOL0     H29194   6.450  11.153   6.591  0.3032  0.3672 -2.7546
  979MOL0     H29195   6.469  11.282   6.718  1.4336 -0.7456  1.3329
  979MOL0     H29196   6.657  11.224   6.477 -3.3144  3.5692 -2.3032
  979MOL0     H29197   6.674  11.210   6.664 -1.9089  0.6850  0.8825
  979MOL0     H29198   6.629  11.461   6.653 -4.5493 -4.0143  1.1914
  979MOL0     H29199   6.645  11.457   6.482  0.1840  0.5440 -0.0279
  979MOL0     H29200   6.850  11.395   6.454  3.0080 -1.1293  0.2710
  979MOL0     H29201   6.852  11.538   6.564 -0.3754  0.1793  3.2787
  979MOL0     H29202   6.914  11.241   6.619 -1.1197 -0.8041  1.3171
  979MOL0     H29203   6.858  11.336   6.750 -1.9746 -0.9577 -2.3304
  979MOL0     H29204   7.065  11.499   6.708 -3.5840 -0.4329  0.9404
  979MOL0     H29205   7.097  11.384   6.573 -3.2727 -2.8344 -0.9487
  979MOL0     H29206   7.075  11.247   6.833  2.4883 -0.5533  1.3464
  979MOL0     H29207   7.195  11.236   6.718 -0.2250 -1.3746  1.6247
  979MOL0     H29208   7.245  11.329   6.953 -2.9566 -1.1617 -0.4071
  979MOL0     H29209   7.182  11.491   6.901  1.6728  3.3920 -2.8839
  979MOL0     H29210   6.480  11.188   6.302 -1.2844 -1.0524 -0.0148
  979MOL0     H29211   6.317  11.101   6.128 -4.4608 -3.1061 -0.0668
  979MOL0     H29212   5.851  11.023   6.040 -0.3529  1.0414 -0.6182
  979MOL0     H29213   5.714  10.902   5.896  0.1950  2.0909  3.1541
  979MOL0     H29214   4.393  11.054   6.003  1.0261 -0.0765 -2.3203
  979MOL0     H29215   4.197  10.938   6.134  1.1492 -0.0668  0.6269
  979MOL0     H29216   4.017  10.628   6.319 -2.1143  1.9966  2.5022
  979MOL0     H29217   3.792  10.565   6.417  1.0196  0.0383  0.2951
  979MOL0     H29218   3.441  10.585   6.212 -0.8921  0.0289 -0.7528
  979MOL0     H29219   3.487  10.650   6.371 -4.1217  0.7706 -1.7184
  979MOL0     H29220   3.394  10.371   6.380 -2.5042  0.2130 -3.0252
  979MOL0     H29221   3.375  10.498   6.496  0.0803  0.6088  0.1090
  979MOL0     H29222   3.215  10.501   6.227  2.5489 -3.2536 -0.1327
  979MOL0     H29223   3.199  10.610   6.377  1.3525  0.2123  0.6137
  979MOL0     H29224   3.129  10.324   6.347 -2.8573 -0.1345  0.0116
  979MOL0     H29225   3.117  10.413   6.502  1.3329  2.8699  0.0848
  979MOL0     H29226   2.791  10.543   6.255 -0.8794 -1.5614 -0.5386
  979MOL0     H29227   3.610  10.517   6.024 -0.7890  1.3680  0.1500
  979MOL0     H29228   3.828  10.599   5.927  0.1425  3.9954  0.2383
  980MOL0     O29229   2.547   6.526   6.666 -0.1303  0.8436 -0.4115
  980MOL0     C29230   2.428   6.553   6.666  0.2651  0.5041 -0.0761
  980MOL0     O29231   2.375   6.668   6.606 -0.1386 -0.7137  0.0959
  980MOL0     C29232   2.467   6.759   6.548  0.1293  1.1947  0.0537
  980MOL0     C29233   2.511   6.872   6.611  0.4425  0.2959 -0.2571
  980MOL0     C29234   2.590   6.963   6.538 -0.8610  0.8227  0.0064
  980MOL0     C29235   2.635   6.936   6.407 -0.0850  0.0251  0.7664
  980MOL0     O29236   2.730   7.014   6.359 -1.3331  0.4844 -0.8746
  980MOL0     C29237   2.754   7.015   6.212 -0.5249 -0.3261  0.1573
  980MOL0     C29238   2.839   7.140   6.155  0.4256  0.2797 -0.1864
  980MOL0     C29239   2.980   7.122   6.214 -0.6276  0.6307  0.6883
  980MOL0     C29240   3.051   7.254   6.176 -0.1857  0.1927  0.4036
  980MOL0     C29241   3.182   7.270   6.247  0.1670 -0.8635 -0.3562
  980MOL0     C29242   3.289   7.163   6.219  0.8921 -0.8545 -0.1026
  980MOL0     C29243   3.413   7.194   6.287 -0.3046  0.1062  1.0472
  980MOL0     C29244   3.533   7.113   6.222 -0.0906  0.8992  0.5186
  980MOL0     N29245   3.641   7.079   6.311 -0.4332  0.5693 -0.4023
  980MOL0     C29246   3.749   7.160   6.345 -0.2455  0.0859 -0.4315
  980MOL0     C29247   3.807   7.097   6.449  0.5918  0.4349 -0.1700
  980MOL0     C29248   3.932   7.155   6.516 -0.0230  0.4351 -0.0415
  980MOL0     C29249   4.044   7.056   6.474 -0.1431  0.9300  0.3222
  980MOL0     C29250   4.185   7.081   6.517  0.1841  0.1497 -1.0680
  980MOL0     C29251   4.271   6.957   6.523 -0.4746  0.2980 -0.1699
  980MOL0     O29252   4.321   6.943   6.386 -0.3865 -0.3028  1.0769
  980MOL0     C29253   4.402   6.839   6.358 -1.0230  0.3808  0.0336
  980MOL0     C29254   4.461   6.746   6.458  0.8967 -0.1319 -0.1227
  980MOL0     C29255   4.557   6.652   6.421  0.8883 -0.3874 -0.0820
  980MOL0     C29256   4.579   6.624   6.285  1.0773 -0.2495 -0.5337
  980MOL0     C29257   4.677   6.519   6.246 -0.6745 -0.0541 -0.6522
  980MOL0     O29258   4.711   6.517   6.105 -0.0288  0.7720  0.8165
  980MOL0     C29259   4.778   6.408   6.058 -0.6684 -1.5138 -0.7581
  980MOL0     C29260   4.880   6.442   5.963  0.1229 -0.9646 -0.2087
  980MOL0     C29261   4.958   6.342   5.904 -0.3943 -0.1726  0.1521
  980MOL0     C29262   4.959   6.206   5.945 -0.4360  0.0342  0.8452
  980MOL0     O29263   5.051   6.117   5.883  1.1179 -0.8747  1.0744
  980MOL0     C29264   5.039   5.976   5.904 -0.0271  0.0829  0.2201
  980MOL0     C29265   5.166   5.911   5.862  0.0352 -0.3136  0.0927
  980MOL0     C29266   5.196   5.921   5.711 -0.5323  0.4977  0.1519
  980MOL0     C29267   5.301   5.813   5.689 -0.1573  0.4789  1.0615
  980MOL0     C29268   5.367   5.820   5.547  0.2101  0.0933 -0.0288
  980MOL0     C29269   5.476   5.719   5.508  0.3171 -0.1965  0.4055
  980MOL0     C29270   5.440   5.573   5.478  1.4906 -0.3217  0.5753
  980MOL0     C29271   5.405   5.549   5.331  0.8504 -1.0022 -0.0731
  980MOL0    Cl29272   5.375   5.374   5.300 -0.0611  0.7118  0.0828
  980MOL0     C29273   4.868   6.175   6.048  0.7497 -0.3146  0.1182
  980MOL0     C29274   4.776   6.274   6.104 -0.1214 -0.4746 -0.7588
  980MOL0     O29275   4.745   6.463   6.335 -0.2523  0.4144 -0.0451
  980MOL0     C29276   4.521   6.704   6.184 -0.2221 -0.0521 -0.3828
  980MOL0     C29277   4.431   6.804   6.222 -0.5159 -0.1422  1.5680
  980MOL0     N29278   3.738   6.981   6.492  0.0236 -0.7347  0.1550
  980MOL0     N29279   3.645   6.969   6.392 -0.0346  0.1921 -0.8156
  980MOL0     C29280   2.577   6.828   6.342 -0.8951 -0.1315  0.3529
  980MOL0     C29281   2.499   6.739   6.411  0.3967 -0.3323 -0.0474
  980MOL0     C29282   2.336   6.454   6.710 -0.5832  0.4956  0.0731
  980MOL0     C29283   2.391   6.335   6.771 -0.5254 -0.0175  0.9517
  980MOL0     C29284   2.299   6.241   6.819  0.7311  0.3388 -0.0964
  980MOL0     C29285   2.159   6.243   6.788  0.4246  0.9748 -0.1479
  980MOL0     O29286   2.094   6.124   6.827 -0.3031  0.7822  0.1201
  980MOL0     C29287   1.955   6.121   6.840 -0.2834 -0.1561 -0.4906
  980MOL0     C29288   1.919   5.974   6.879  0.5748  0.2265  0.1873
  980MOL0     C29289   1.763   5.941   6.909  0.1873 -0.0459  0.0539
  980MOL0     C29290   1.718   5.795   6.894  0.4337  0.5808  0.2834
  980MOL0     C29291   1.572   5.771   6.905  1.0062  0.9538 -0.2224
  980MOL0     C29292   1.452   5.752   6.897  0.3485 -0.8919  0.6497
  980MOL0     C29293   2.110   6.365   6.724 -0.3743  0.6299 -0.2954
  980MOL0     C29294   2.198   6.457   6.687  0.8129  0.7059 -0.4409
  980MOL0     H29295   2.466   6.879   6.709 -1.8873 -1.1880 -1.1254
  980MOL0     H29296   2.620   7.053   6.590 -4.2068  0.4407  3.0575
  980MOL0     H29297   2.657   7.028   6.163 -0.4273  1.3223  0.3515
  980MOL0     H29298   2.797   6.921   6.177 -0.5043 -0.4559  0.5328
  980MOL0     H29299   2.790   7.234   6.181  0.3538 -0.3546  2.1988
  980MOL0     H29300   2.844   7.130   6.046  2.6738  1.0267 -0.1996
  980MOL0     H29301   3.043   7.043   6.172 -2.0781  0.6856 -1.8047
  980MOL0     H29302   2.979   7.123   6.323  2.5110  2.9534  0.8406
  980MOL0     H29303   3.057   7.257   6.066 -0.5188 -0.6568  0.3539
  980MOL0     H29304   2.987   7.334   6.214 -1.5310  0.5014 -2.2734
  980MOL0     H29305   3.169   7.269   6.356  0.8336 -3.8347 -0.2040
  980MOL0     H29306   3.214   7.370   6.216 -1.3611  0.0657  0.8917
  980MOL0     H29307   3.302   7.148   6.111 -0.2148 -2.9142 -0.0177
  980MOL0     H29308   3.252   7.066   6.256  0.9736 -0.4388  1.0971
  980MOL0     H29309   3.436   7.301   6.297 -1.5231  0.4707  0.2626
  980MOL0     H29310   3.409   7.157   6.390  0.7541  1.6885  1.7033
  980MOL0     H29311   3.572   7.166   6.135 -2.1293  1.9213  0.1579
  980MOL0     H29312   3.491   7.015   6.197 -0.8414  0.8769  1.7627
  980MOL0     H29313   3.784   7.245   6.286 -1.2397  0.4147 -0.5666
  980MOL0     H29314   3.914   7.149   6.624  2.3094 -3.8376  0.3458
  980MOL0     H29315   3.956   7.259   6.493  2.2080  0.4822  2.1112
  980MOL0     H29316   4.028   7.045   6.367 -3.8876  1.4180  0.6634
  980MOL0     H29317   4.009   6.965   6.524  1.0281  0.9494  1.2180
  980MOL0     H29318   4.225   7.153   6.445 -0.8448  1.8923  0.0417
  980MOL0     H29319   4.167   7.109   6.621  0.0946 -0.7063 -0.8402
  980MOL0     H29320   4.227   6.864   6.561 -0.6435  0.3031 -0.3484
  980MOL0     H29321   4.356   6.979   6.588  0.3064  3.2060 -1.9776
  980MOL0     H29322   4.446   6.763   6.564  1.6427 -2.4127  0.3892
  980MOL0     H29323   4.592   6.578   6.492 -1.4202 -0.7372  0.7574
  980MOL0     H29324   4.869   6.544   5.928 -0.1403 -1.0323 -0.3261
  980MOL0     H29325   5.025   6.373   5.825  0.3890  3.5408  2.0013
  980MOL0     H29326   4.948   5.941   5.856 -1.5562  2.4244  1.2298
  980MOL0     H29327   5.035   5.957   6.011  1.8988 -1.9052  0.0309
  980MOL0     H29328   5.160   5.806   5.892 -1.1183 -0.2161  0.2335
  980MOL0     H29329   5.249   5.953   5.919 -1.2052  2.2065  0.2061
  980MOL0     H29330   5.238   6.019   5.687  1.3456 -0.0952  0.8321
  980MOL0     H29331   5.097   5.893   5.675 -1.7764  2.2956  1.9781
  980MOL0     H29332   5.384   5.817   5.760  0.8156  0.6166 -0.0553
  980MOL0     H29333   5.251   5.717   5.703  0.5208 -0.1880 -0.8634
  980MOL0     H29334   5.419   5.915   5.535 -1.1042  0.6233 -1.8857
  980MOL0     H29335   5.289   5.801   5.473  1.1901 -0.5387 -0.9189
  980MOL0     H29336   5.553   5.711   5.585  1.2124  0.6656 -0.3701
  980MOL0     H29337   5.535   5.766   5.429 -1.2130  1.8269  0.4049
  980MOL0     H29338   5.527   5.510   5.498 -1.3569 -5.1042 -0.5448
  980MOL0     H29339   5.361   5.529   5.540 -2.4863  2.4703 -2.0834
  980MOL0     H29340   5.487   5.593   5.272 -0.1318 -1.3015 -1.7134
  980MOL0     H29341   5.312   5.600   5.306  0.3183 -0.7893  2.1250
  980MOL0     H29342   4.859   6.071   6.076  0.6971 -0.6981 -1.2828
  980MOL0     H29343   4.707   6.239   6.180  0.7824  0.3924  0.5172
  980MOL0     H29344   4.536   6.682   6.079 -0.0609  1.7930 -0.7887
  980MOL0     H29345   4.388   6.864   6.142  2.8166  0.8106  0.3023
  980MOL0     H29346   2.607   6.798   6.242 -2.8331  2.8712 -1.2785
  980MOL0     H29347   2.452   6.652   6.368  0.3206 -0.7600  0.8819
  980MOL0     H29348   2.498   6.314   6.767 -0.4058  0.7272 -1.5120
  980MOL0     H29349   2.315   6.158   6.886 -2.5790 -1.2879 -1.1003
  980MOL0     H29350   1.895   6.146   6.752 -2.9124 -0.5640  1.0673
  980MOL0     H29351   1.926   6.185   6.925  1.1047  0.3962 -0.4002
  980MOL0     H29352   1.950   5.919   6.790  1.8090  1.5173 -0.2207
  980MOL0     H29353   1.971   5.932   6.966  0.7768 -3.9896 -1.7353
  980MOL0     H29354   1.701   6.006   6.847 -1.3878 -1.4054  0.1186
  980MOL0     H29355   1.738   5.975   7.010 -4.8116  2.1555 -1.5863
  980MOL0     H29356   1.763   5.756   6.802  3.1494  2.5854  0.6102
  980MOL0     H29357   1.771   5.743   6.975 -2.6780 -0.8862  1.5465
  980MOL0     H29358   1.352   5.724   6.871  1.6839 -2.5586 -3.4608
  980MOL0     H29359   2.004   6.381   6.705 -0.6973 -2.0468 -1.3198
  980MOL0     H29360   2.158   6.551   6.649  0.1496  1.2134  1.4156
  981MOL0     O29361   1.950   7.496   8.356 -0.1003  0.0416 -0.1170
  981MOL0     C29362   1.945   7.618   8.359 -0.6820 -0.1421 -0.0944
  981MOL0     O29363   1.918   7.695   8.245  0.6001  0.3824  0.5809
  981MOL0     C29364   1.890   7.613   8.141 -1.1031 -0.3308  0.2859
  981MOL0     C29365   2.001   7.578   8.050 -0.0492 -0.2587 -0.2476
  981MOL0     C29366   1.973   7.507   7.936 -0.2517 -0.5450  0.4643
  981MOL0     C29367   1.848   7.459   7.915  0.6384 -0.3113 -0.1197
  981MOL0     O29368   1.833   7.374   7.799  0.5348 -0.6165 -0.5263
  981MOL0     C29369   1.704   7.318   7.771  0.6588 -0.4795 -0.5792
  981MOL0     C29370   1.689   7.288   7.622 -0.1041  0.5012  1.1490
  981MOL0     C29371   1.561   7.210   7.582 -0.0727 -0.5018  0.3352
  981MOL0     C29372   1.546   7.221   7.436  0.0067  0.5172 -0.3874
  981MOL0     C29373   1.412   7.190   7.375 -0.4386  0.2306  0.1312
  981MOL0     C29374   1.427   7.141   7.232  0.7706 -0.2335  0.0536
  981MOL0     C29375   1.297   7.119   7.155 -0.0215 -0.4692 -0.8035
  981MOL0     C29376   1.185   7.044   7.245  0.2593 -0.8059 -0.2991
  981MOL0     N29377   1.050   7.030   7.187 -0.3345  0.0086  0.4063
  981MOL0     C29378   0.976   7.119   7.114  0.0302  0.6715 -0.0004
  981MOL0     C29379   0.872   7.046   7.074 -0.3591 -0.7915 -1.0135
  981MOL0     C29380   0.767   7.080   6.979  0.7809 -0.8893 -0.4491
  981MOL0     C29381   0.813   7.088   6.827 -0.6234  0.3834 -0.1407
  981MOL0     C29382   0.874   6.953   6.782 -0.7872  0.5284 -0.8547
  981MOL0     C29383   1.024   6.968   6.773  0.4307  0.8732 -0.7504
  981MOL0     O29384   1.091   6.840   6.763  0.6063  0.2781  0.4935
  981MOL0     C29385   1.214   6.840   6.820  0.3760  0.1089  0.2517
  981MOL0     C29386   1.216   6.815   6.955  0.9744  0.2580 -0.0935
  981MOL0     C29387   1.340   6.774   7.013 -0.5432  0.3260  0.0460
  981MOL0     C29388   1.465   6.785   6.935  1.0588  0.3035 -0.3632
  981MOL0     C29389   1.601   6.764   6.992 -0.1349  0.4467 -0.6078
  981MOL0     O29390   1.704   6.757   6.906  0.5290 -0.1791 -0.2908
  981MOL0     C29391   1.817   6.699   6.958 -0.5210  0.3627 -0.3247
  981MOL0     C29392   1.851   6.565   6.959  0.4734  0.1512  0.2142
  981MOL0     C29393   1.976   6.515   7.000  0.3392 -0.3365  0.4169
  981MOL0     C29394   2.067   6.606   7.052 -0.2723 -0.4944 -0.1543
  981MOL0     O29395   2.179   6.557   7.114 -0.3256  0.5432 -0.3704
  981MOL0     C29396   2.279   6.637   7.170  0.2229 -0.2845 -0.4618
  981MOL0     C29397   2.386   6.681   7.059  0.5810 -0.1854 -0.6524
  981MOL0     C29398   2.519   6.718   7.114 -0.0421 -0.3582 -0.4564
  981MOL0     C29399   2.603   6.772   6.993  1.1502 -0.2098 -1.3489
  981MOL0     C29400   2.751   6.768   7.027 -0.3964 -0.2974  0.2663
  981MOL0     C29401   2.827   6.788   6.905 -0.4725 -0.0370  0.2722
  981MOL0     C29402   2.803   6.920   6.838  0.0798 -0.2377  1.6442
  981MOL0     C29403   2.864   7.028   6.912  0.2739 -0.2869 -0.0385
  981MOL0    Cl29404   3.040   7.034   6.884 -0.3292 -0.3966  0.1649
  981MOL0     C29405   2.031   6.741   7.057 -0.0673  0.3492 -0.3712
  981MOL0     C29406   1.916   6.791   7.015  0.5738  0.1277  0.2955
  981MOL0     O29407   1.603   6.738   7.110 -0.7917 -0.4746  0.3214
  981MOL0     C29408   1.456   6.820   6.796 -0.2890 -0.5439 -0.5202
  981MOL0     C29409   1.327   6.843   6.743  0.2086 -0.5905 -0.7597
  981MOL0     N29410   0.870   6.919   7.138 -0.6305  0.4799  0.6647
  981MOL0     N29411   0.976   6.913   7.202  0.0071 -0.6541  0.1296
  981MOL0     C29412   1.744   7.489   8.005 -0.3915 -0.2853 -0.2423
  981MOL0     C29413   1.769   7.577   8.115  0.5904 -0.4245 -0.4481
  981MOL0     C29414   2.007   7.687   8.480 -0.3299  0.9880 -0.1831
  981MOL0     C29415   2.123   7.632   8.532 -0.1087 -0.3606 -0.1698
  981MOL0     C29416   2.193   7.703   8.623 -0.4821 -0.0249 -0.8229
  981MOL0     C29417   2.139   7.821   8.683 -0.7960 -0.7321  0.6608
  981MOL0     O29418   2.207   7.899   8.774  0.6034 -0.2497  0.0508
  981MOL0     C29419   2.353   7.909   8.762 -0.4519  0.0697 -0.6556
  981MOL0     C29420   2.393   7.970   8.627 -0.1639 -0.0442  0.3239
  981MOL0     C29421   2.550   7.993   8.621 -1.0600  0.5449 -0.2940
  981MOL0     C29422   2.581   8.072   8.498 -0.3622  0.6136  0.5232
  981MOL0     C29423   2.720   8.100   8.515  0.0092 -0.4971  0.2387
  981MOL0     C29424   2.827   8.146   8.526 -0.0708 -1.5241 -0.7279
  981MOL0     C29425   2.012   7.869   8.643 -0.0838  0.5689  0.3925
  981MOL0     C29426   1.954   7.802   8.534  0.1364 -0.4372  0.6796
  981MOL0     H29427   2.098   7.624   8.066 -0.7166  2.0579 -2.1147
  981MOL0     H29428   2.047   7.489   7.858  0.4901  4.7629 -0.4124
  981MOL0     H29429   1.625   7.389   7.796  0.5250 -0.6643 -0.4785
  981MOL0     H29430   1.703   7.221   7.821  4.0133 -1.3310 -1.8870
  981MOL0     H29431   1.781   7.245   7.582  0.4805  1.7181  1.1486
  981MOL0     H29432   1.679   7.389   7.580  3.5093  1.1706  1.5739
  981MOL0     H29433   1.473   7.254   7.631 -0.1151 -1.2379  0.9549
  981MOL0     H29434   1.575   7.109   7.621 -2.3541  0.8104  5.4444
  981MOL0     H29435   1.541   7.325   7.401 -0.9172 -0.2842 -2.9255
  981MOL0     H29436   1.630   7.164   7.394 -1.9209 -2.0555 -0.9897
  981MOL0     H29437   1.343   7.275   7.383 -0.0863  0.4166  1.3185
  981MOL0     H29438   1.370   7.108   7.435 -1.0017 -0.6847 -1.4368
  981MOL0     H29439   1.486   7.049   7.244  1.6788  0.2270 -0.7576
  981MOL0     H29440   1.490   7.203   7.168 -0.9588  4.3196  2.3063
  981MOL0     H29441   1.263   7.220   7.132  2.2379  0.4777 -0.2551
  981MOL0     H29442   1.316   7.064   7.062  2.3142  1.5146 -1.6031
  981MOL0     H29443   1.175   7.110   7.332 -1.0082  1.4647 -2.0489
  981MOL0     H29444   1.217   6.943   7.272  2.1966  0.5226  2.9280
  981MOL0     H29445   1.015   7.214   7.078  2.3593 -0.0751  0.3531
  981MOL0     H29446   0.727   7.177   7.009  1.7943 -1.0407  1.5442
  981MOL0     H29447   0.685   7.007   6.970  1.3220 -1.5326 -0.2433
  981MOL0     H29448   0.875   7.176   6.804 -0.2736 -0.0211 -0.7626
  981MOL0     H29449   0.727   7.097   6.760  0.9461 -1.2552 -2.5411
  981MOL0     H29450   0.852   6.871   6.851  3.2348  1.2748  1.6613
  981MOL0     H29451   0.831   6.923   6.686  0.3059 -0.0213 -1.1972
  981MOL0     H29452   1.058   7.021   6.863  0.4196  0.2821 -0.3927
  981MOL0     H29453   1.051   7.038   6.694  0.3834  0.6324 -0.9818
  981MOL0     H29454   1.129   6.830   7.019  0.0690 -0.7054 -1.0700
  981MOL0     H29455   1.355   6.744   7.116 -1.6125 -3.0753 -0.6690
  981MOL0     H29456   1.778   6.488   6.935 -0.6634 -0.0184  3.6400
  981MOL0     H29457   1.992   6.408   7.003  0.3501 -0.4682 -2.0538
  981MOL0     H29458   2.335   6.581   7.246  1.3425  3.3580  1.6714
  981MOL0     H29459   2.235   6.727   7.215 -1.0586 -2.3335  2.7178
  981MOL0     H29460   2.341   6.769   7.013 -2.0581 -0.2109  1.5764
  981MOL0     H29461   2.397   6.595   6.992 -2.7708 -1.0983 -0.2309
  981MOL0     H29462   2.565   6.632   7.164 -0.8348  0.0128  0.9553
  981MOL0     H29463   2.500   6.789   7.195  0.3159 -1.2668  0.4431
  981MOL0     H29464   2.585   6.718   6.899  4.0877 -2.7842 -0.6111
  981MOL0     H29465   2.573   6.875   6.972 -1.4026  0.2036  3.1816
  981MOL0     H29466   2.775   6.671   7.071  0.1218 -1.3568 -2.1950
  981MOL0     H29467   2.783   6.841   7.102  1.6743 -1.0789  0.1941
  981MOL0     H29468   2.807   6.707   6.835  0.0336  0.3172 -0.2968
  981MOL0     H29469   2.930   6.766   6.935 -0.2948  2.2554  1.5783
  981MOL0     H29470   2.858   6.915   6.743 -1.0013 -0.5096  1.0234
  981MOL0     H29471   2.700   6.942   6.809  0.5563 -1.0484 -0.9266
  981MOL0     H29472   2.836   7.024   7.018  2.2278 -0.6696  0.4993
  981MOL0     H29473   2.822   7.127   6.892 -0.5841 -0.6198  0.0746
  981MOL0     H29474   2.103   6.816   7.088  0.1919  0.7264 -1.8192
  981MOL0     H29475   1.891   6.894   7.041  1.1886  0.4111 -0.2142
  981MOL0     H29476   1.548   6.829   6.739  1.3078 -0.1181  1.9702
  981MOL0     H29477   1.309   6.863   6.638 -1.9148 -1.5792 -0.6387
  981MOL0     H29478   1.644   7.452   7.989 -1.1119  2.0145 -1.5224
  981MOL0     H29479   1.688   7.612   8.178  1.1140 -1.6974  0.9869
  981MOL0     H29480   2.166   7.544   8.486 -1.2253 -0.4429 -1.0934
  981MOL0     H29481   2.291   7.663   8.647 -1.5914 -1.9751  0.7057
  981MOL0     H29482   2.407   7.814   8.770  1.0510  1.0642  3.2830
  981MOL0     H29483   2.383   7.975   8.844 -0.3011 -2.3722  1.3815
  981MOL0     H29484   2.364   7.905   8.543 -2.9632  1.7304 -0.2208
  981MOL0     H29485   2.343   8.065   8.605  2.4390  0.7738 -2.8947
  981MOL0     H29486   2.602   7.897   8.613 -0.2549  1.0773 -1.7174
  981MOL0     H29487   2.590   8.047   8.707  1.7954 -1.3385 -0.3068
  981MOL0     H29488   2.562   8.004   8.415  0.9012 -0.5301  1.1270
  981MOL0     H29489   2.514   8.159   8.500 -1.5528 -0.2456  3.2028
  981MOL0     H29490   2.921   8.197   8.512 -1.8674  1.8327 -1.8199
  981MOL0     H29491   1.967   7.956   8.690  0.0274  0.3590  0.8964
  981MOL0     H29492   1.857   7.847   8.516  0.1267 -0.9894 -0.8124
  982MOL0     O29493   5.547   8.570   0.655 -0.5030 -0.1122  1.4655
  982MOL0     C29494   5.665   8.562   0.614  0.0290 -0.1904  0.1628
  982MOL0     O29495   5.726   8.666   0.547 -0.0297  0.1561  0.2998
  982MOL0     C29496   5.660   8.775   0.506 -0.5235 -0.2890 -0.6247
  982MOL0     C29497   5.635   8.877   0.592  0.0392  0.0590 -0.9299
  982MOL0     C29498   5.583   8.992   0.548  0.7549 -0.3101 -0.3985
  982MOL0     C29499   5.545   9.011   0.419 -0.2473  0.8669 -0.4802
  982MOL0     O29500   5.489   9.137   0.396 -0.3608  0.3686  0.7830
  982MOL0     C29501   5.544   9.195   0.276 -0.1367  0.5016  0.3121
  982MOL0     C29502   5.527   9.352   0.296  0.6197 -0.6349 -0.3713
  982MOL0     C29503   5.516   9.423   0.173 -0.1751 -0.8211  1.0415
  982MOL0     C29504   5.467   9.562   0.193  0.1886 -0.7488  0.4432
  982MOL0     C29505   5.424   9.629   0.061  0.0962  0.2306 -0.0508
  982MOL0     C29506   5.544   9.679  -0.025  1.9294  0.8782  0.9060
  982MOL0     C29507   5.482   9.700  -0.170  0.2551 -0.2053  0.2606
  982MOL0     C29508   5.589   9.725  -0.276 -0.0588  0.1129  0.3776
  982MOL0     N29509   5.695   9.816  -0.235 -0.8977 -0.3645  1.0053
  982MOL0     C29510   5.659   9.947  -0.202 -0.3878  0.1549  0.2874
  982MOL0     C29511   5.774   9.999  -0.156  0.1002 -0.6726 -0.0709
  982MOL0     C29512   5.789  10.142  -0.095 -0.2920 -0.0472  0.6025
  982MOL0     C29513   5.757  10.151   0.060  0.3173  0.3256  0.4349
  982MOL0     C29514   5.870  10.091   0.142  0.1055  0.4958  0.3584
  982MOL0     C29515   5.820  10.084   0.291  0.3952 -0.0086  0.0892
  982MOL0     O29516   5.910  10.011   0.379  0.0226  0.2321  0.0381
  982MOL0     C29517   5.917   9.879   0.362  0.4097 -0.1730 -0.6355
  982MOL0     C29518   5.826   9.798   0.297 -0.0093 -1.2524  0.1189
  982MOL0     C29519   5.854   9.671   0.280  0.1373  0.3235  0.1289
  982MOL0     C29520   5.965   9.608   0.310 -0.6006  0.3776  0.1915
  982MOL0     C29521   5.984   9.465   0.283  0.0715  0.6501 -0.7734
  982MOL0     O29522   5.871   9.400   0.228  0.6520 -0.1841  0.4450
  982MOL0     C29523   5.889   9.270   0.186  0.6344  0.2977  0.2487
  982MOL0     C29524   5.933   9.174   0.277  0.8051 -1.2969 -1.2513
  982MOL0     C29525   5.930   9.038   0.249 -0.0539 -0.3051  0.5926
  982MOL0     C29526   5.901   8.988   0.120  0.6994  0.6698  0.6071
  982MOL0     O29527   5.886   8.855   0.087  0.0666  0.8945  0.3568
  982MOL0     C29528   5.986   8.780   0.013  0.1986 -0.1752  0.3070
  982MOL0     C29529   5.907   8.671  -0.067 -1.2314  0.3730 -0.3001
  982MOL0     C29530   5.848   8.578   0.039 -0.7000 -0.3506 -0.0340
  982MOL0     C29531   5.946   8.483   0.113 -0.4438  0.2092 -0.4716
  982MOL0     C29532   5.875   8.348   0.152 -1.4981 -0.2578 -1.0360
  982MOL0     C29533   5.757   8.351   0.248 -0.2365 -0.1958 -0.2875
  982MOL0     C29534   5.741   8.215   0.315 -0.2275  0.8115 -0.1388
  982MOL0     C29535   5.615   8.207   0.386 -0.4186 -0.1459  0.7474
  982MOL0    Cl29536   5.600   8.066   0.491  0.0379 -0.1976  0.2280
  982MOL0     C29537   5.870   9.089   0.025  0.3551 -0.1122 -0.0191
  982MOL0     C29538   5.858   9.231   0.061 -0.0634  0.0144 -0.9897
  982MOL0     O29539   6.094   9.410   0.317 -0.5982 -0.0967 -0.4235
  982MOL0     C29540   6.065   9.690   0.374  0.3074 -0.3978  0.7705
  982MOL0     C29541   6.034   9.825   0.407 -0.4497 -0.7066  1.3698
  982MOL0     N29542   5.868   9.896  -0.151  0.3938  0.2847 -0.2801
  982MOL0     N29543   5.817   9.788  -0.186 -0.2316 -0.3127  0.0768
  982MOL0     C29544   5.554   8.910   0.327 -0.6958 -0.1827  0.1720
  982MOL0     C29545   5.605   8.782   0.375  0.1616  0.4659 -0.2562
  982MOL0     C29546   5.755   8.448   0.649 -0.0011  0.6595 -0.2990
  982MOL0     C29547   5.702   8.338   0.711  1.2390 -0.4591  0.3977
  982MOL0     C29548   5.773   8.219   0.745 -0.4264  0.6007 -0.1097
  982MOL0     C29549   5.909   8.220   0.732 -0.2863 -0.9936  0.4743
  982MOL0     O29550   6.000   8.121   0.758 -0.6517  0.1557  0.0374
  982MOL0     C29551   5.945   7.991   0.782  0.7412 -0.1656  0.7793
  982MOL0     C29552   5.937   7.922   0.650 -0.4092  0.4473  0.0455
  982MOL0     C29553   5.858   7.788   0.666 -0.3826 -0.1979  0.0427
  982MOL0     C29554   5.858   7.699   0.544  0.4481 -0.0381 -0.2097
  982MOL0     C29555   5.836   7.753   0.406 -0.2589  0.6959 -0.5625
  982MOL0     C29556   5.833   7.803   0.286  1.0149  1.2334 -0.6274
  982MOL0     C29557   5.970   8.336   0.662  0.7147 -0.8609 -0.7740
  982MOL0     C29558   5.895   8.451   0.627 -0.5984 -0.0827  0.4499
  982MOL0     H29559   5.666   8.869   0.695 -1.5958 -1.1203 -0.4982
  982MOL0     H29560   5.586   9.073   0.620  0.2576 -0.4223 -0.2493
  982MOL0     H29561   5.480   9.162   0.195  0.0714 -0.9979  0.7276
  982MOL0     H29562   5.646   9.163   0.252 -0.5882 -0.5858 -0.1709
  982MOL0     H29563   5.620   9.383   0.344 -0.3888  0.2669  1.0609
  982MOL0     H29564   5.447   9.374   0.367  0.8819  1.2468 -0.6026
  982MOL0     H29565   5.448   9.376   0.101 -3.4187  3.6567  0.7497
  982MOL0     H29566   5.616   9.429   0.128 -0.3618 -0.7971  0.6205
  982MOL0     H29567   5.390   9.563   0.271  0.3323 -0.6959  0.5852
  982MOL0     H29568   5.549   9.619   0.237 -1.0726 -0.3475  2.4065
  982MOL0     H29569   5.357   9.714   0.076 -0.0002  0.3150 -0.9391
  982MOL0     H29570   5.372   9.553   0.001 -0.6308 -2.8614  4.0022
  982MOL0     H29571   5.626   9.607  -0.037  0.1526 -0.7662 -4.6636
  982MOL0     H29572   5.575   9.777   0.014 -2.8609  2.6865  0.8766
  982MOL0     H29573   5.416   9.624  -0.212  0.4119  0.0795 -0.5195
  982MOL0     H29574   5.418   9.789  -0.165 -1.5714 -1.2755 -2.0628
  982MOL0     H29575   5.564   9.769  -0.373  1.9216 -2.8815 -1.6643
  982MOL0     H29576   5.626   9.628  -0.308 -3.5856 -1.5234  0.7543
  982MOL0     H29577   5.565  10.001  -0.210 -0.7479  0.2166  3.4942
  982MOL0     H29578   5.726  10.216  -0.147  0.1200  0.3441  0.6503
  982MOL0     H29579   5.888  10.179  -0.121 -1.5604  1.9103 -1.9541
  982MOL0     H29580   5.658  10.108   0.079 -0.0436  0.7512 -0.4205
  982MOL0     H29581   5.749  10.257   0.089 -0.3724  0.9927 -1.9280
  982MOL0     H29582   5.892   9.994   0.097 -0.5012 -0.2420  1.6107
  982MOL0     H29583   5.955  10.161   0.132 -2.0320  3.0930 -1.1261
  982MOL0     H29584   5.719  10.042   0.289 -1.7072  4.4485 -1.2652
  982MOL0     H29585   5.807  10.187   0.324  0.4923 -0.5650  1.9921
  982MOL0     H29586   5.727   9.829   0.264 -0.2362 -2.5198 -0.4382
  982MOL0     H29587   5.786   9.615   0.216  0.4664  2.5658 -2.3607
  982MOL0     H29588   5.955   9.214   0.375 -3.0439 -2.0681  0.1133
  982MOL0     H29589   5.944   8.965   0.329  0.5918 -2.6205 -1.5228
  982MOL0     H29590   6.060   8.726   0.074 -1.7221 -2.7048  0.5746
  982MOL0     H29591   6.037   8.850  -0.054 -1.3719  0.5193 -0.1876
  982MOL0     H29592   5.960   8.612  -0.142 -0.3255 -0.0883  0.6884
  982MOL0     H29593   5.828   8.720  -0.126  0.0087  1.4382 -1.1191
  982MOL0     H29594   5.772   8.513  -0.006  1.6851 -0.9738 -3.6508
  982MOL0     H29595   5.798   8.644   0.109  1.4590  3.8448 -2.0874
  982MOL0     H29596   6.027   8.462   0.043 -3.3397 -4.6832 -2.8651
  982MOL0     H29597   5.990   8.532   0.200  0.0140  2.6096 -1.9544
  982MOL0     H29598   5.947   8.275   0.189 -2.5170 -1.6895 -1.8079
  982MOL0     H29599   5.843   8.311   0.054  1.4783 -0.1768 -2.1358
  982MOL0     H29600   5.676   8.392   0.187  1.5812  1.2628 -1.8683
  982MOL0     H29601   5.761   8.423   0.330 -2.4648 -2.2040  1.7589
  982MOL0     H29602   5.745   8.137   0.238 -1.7464 -1.2201  1.7274
  982MOL0     H29603   5.820   8.204   0.390 -0.5221  1.5509  0.2900
  982MOL0     H29604   5.526   8.224   0.324 -1.4913 -0.1339  2.2283
  982MOL0     H29605   5.617   8.300   0.445  1.9113 -0.4404  1.2014
  982MOL0     H29606   5.831   9.075  -0.075  2.4311  1.5303 -1.1280
  982MOL0     H29607   5.822   9.315   0.003  2.0693  1.5364 -0.2607
  982MOL0     H29608   6.166   9.652   0.389  0.8254  1.3600  2.0453
  982MOL0     H29609   6.115   9.874   0.460 -2.4122  1.6596  2.3877
  982MOL0     H29610   5.508   8.923   0.230 -1.8683  1.3862  0.8824
  982MOL0     H29611   5.610   8.707   0.296 -0.8809 -2.2892  2.1036
  982MOL0     H29612   5.595   8.342   0.731  1.4220  0.4296  1.3200
  982MOL0     H29613   5.708   8.150   0.798 -0.3162 -0.7987 -1.7132
  982MOL0     H29614   5.849   7.992   0.833  0.4555  1.1868  0.2636
  982MOL0     H29615   6.017   7.933   0.840  0.5725  0.0577  1.2180
  982MOL0     H29616   5.876   7.979   0.580  1.3292  1.0050 -1.0650
  982MOL0     H29617   6.031   7.909   0.596 -2.8819 -0.8012 -4.4348
  982MOL0     H29618   5.754   7.803   0.697  0.2763 -0.3435  2.5326
  982MOL0     H29619   5.896   7.720   0.742 -0.0084  0.1309  0.1587
  982MOL0     H29620   5.948   7.638   0.533  1.0786  0.7007  0.7709
  982MOL0     H29621   5.767   7.640   0.560 -1.5772  2.9498  0.2026
  982MOL0     H29622   5.834   7.825   0.182 -0.7640  1.0229 -0.7204
  982MOL0     H29623   6.069   8.319   0.622  1.1057 -0.0701 -0.1686
  982MOL0     H29624   5.934   8.531   0.565 -1.7026  2.2974  2.6598
  983MOL0     O29625   9.894   8.295   8.972  0.2477 -1.3229 -1.2554
  983MOL0     C29626   9.789   8.244   8.971  0.1665 -0.3496  0.2664
  983MOL0     O29627   9.765   8.114   8.999 -0.9362  0.1453 -0.6122
  983MOL0     C29628   9.886   8.045   9.052  1.3219 -0.8467  0.1900
  983MOL0     C29629   9.948   8.068   9.176  0.1266  1.0727  0.2483
  983MOL0     C29630  10.062   7.990   9.207  0.3440  0.1897 -0.1963
  983MOL0     C29631  10.119   7.894   9.120  0.4562 -0.1917  0.2835
  983MOL0     O29632  10.225   7.812   9.161  0.3967 -0.7745 -0.0175
  983MOL0     C29633  10.336   7.795   9.074  0.3133  0.7497  0.1244
  983MOL0     C29634  10.446   7.711   9.143  0.1077  0.7075 -0.2466
  983MOL0     C29635  10.588   7.697   9.079 -0.0781 -0.5625 -1.6147
  983MOL0     C29636  10.696   7.655   9.175  0.1973  0.6179  0.0324
  983MOL0     C29637  10.820   7.628   9.099 -0.1242  0.2128 -0.1983
  983MOL0     C29638  10.893   7.743   9.028 -0.1226 -1.4318 -0.1637
  983MOL0     C29639  10.949   7.850   9.118 -0.5320  0.4079  0.0575
  983MOL0     C29640  11.088   7.807   9.171  0.1902  0.6925  0.4965
  983MOL0     N29641  11.161   7.913   9.255 -0.4938  1.0554 -0.4199
  983MOL0     C29642  11.156   7.916   9.394  0.4684  0.6483  1.5113
  983MOL0     C29643  11.224   8.030   9.421  1.3725 -0.5445  0.8631
  983MOL0     C29644  11.233   8.070   9.570  1.1522 -1.1806  0.2973
  983MOL0     C29645  11.373   8.104   9.621  0.0976 -0.0243  0.4850
  983MOL0     C29646  11.380   8.172   9.763 -0.4083  0.3533  0.8120
  983MOL0     C29647  11.519   8.225   9.793 -0.2412  0.8077  0.0498
  983MOL0     O29648  11.544   8.195   9.929  0.3314  0.6183 -0.0766
  983MOL0     C29649  11.648   8.263   9.994  0.8859  0.0035  1.0202
  983MOL0     C29650  11.654   8.243  10.128  0.4738 -1.3876 -0.0484
  983MOL0     C29651  11.765   8.302  10.194  0.9586 -0.4342  0.3714
  983MOL0     C29652  11.875   8.352  10.124  0.3385 -0.7758 -0.8669
  983MOL0     C29653  11.996   8.409  10.200  0.8562 -0.2059 -0.5698
  983MOL0     O29654  12.089   8.478  10.128  0.2832  0.1763 -0.5449
  983MOL0     C29655  12.226   8.485  10.147 -1.5137  0.8031 -0.0450
  983MOL0     C29656  12.303   8.541  10.045  0.4276 -0.1175 -0.1138
  983MOL0     C29657  12.438   8.544  10.043 -0.7179 -0.3690  0.2918
  983MOL0     C29658  12.511   8.492  10.149  0.5106 -0.1919  0.5721
  983MOL0     O29659  12.647   8.485  10.143 -1.4208  0.1062 -0.5432
  983MOL0     C29660  12.728   8.495  10.266  0.7668 -0.0085 -0.0877
  983MOL0     C29661  12.870   8.504  10.203  0.0481 -0.2852  0.2398
  983MOL0     C29662  12.977   8.439  10.290 -0.4539 -0.1058 -0.0811
  983MOL0     C29663  13.113   8.442  10.222  0.9161 -0.5736  1.0779
  983MOL0     C29664  13.203   8.328  10.261  0.3191 -0.3180 -0.3647
  983MOL0     C29665  13.321   8.304  10.172  0.3198  0.1382 -0.1787
  983MOL0     C29666  13.405   8.184  10.225 -0.8314  0.2595  0.0020
  983MOL0     C29667  13.530   8.145  10.133  0.9629  0.4056  0.1955
  983MOL0    Cl29668  13.666   8.258  10.160  0.7090  0.4131 -0.3220
  983MOL0     C29669  12.438   8.447  10.257  0.8763  0.5610 -0.1826
  983MOL0     C29670  12.299   8.439  10.260  0.1466 -1.1610  0.5272
  983MOL0     O29671  12.004   8.396  10.324  0.8964 -0.5490 -0.2437
  983MOL0     C29672  11.866   8.363   9.984  0.2324 -0.8446  0.3925
  983MOL0     C29673  11.753   8.322   9.929  0.4431  0.5530 -0.1800
  983MOL0     N29674  11.270   8.092   9.310 -0.6838  0.3269  0.4347
  983MOL0     N29675  11.226   8.020   9.210  0.1537 -0.7038 -0.8412
  983MOL0     C29676  10.061   7.889   8.989  0.0888  0.1226 -0.1160
  983MOL0     C29677   9.942   7.955   8.953 -0.1998 -0.2513  0.1082
  983MOL0     C29678   9.686   8.332   8.928  0.5374  0.5917  0.6042
  983MOL0     C29679   9.715   8.462   8.875 -0.1722 -0.3321 -0.4627
  983MOL0     C29680   9.608   8.544   8.838 -0.3906  0.5364  0.0390
  983MOL0     C29681   9.477   8.508   8.839  0.0490  0.0908  0.1511
  983MOL0     O29682   9.367   8.585   8.799  1.1741 -0.5326  0.3958
  983MOL0     C29683   9.382   8.721   8.753 -0.8310  1.3969 -0.3500
  983MOL0     C29684   9.254   8.768   8.703  0.1974 -0.7560 -0.0688
  983MOL0     C29685   9.184   8.714   8.573  1.1387  0.2363  0.1958
  983MOL0     C29686   9.288   8.666   8.469  0.1399  0.1598 -1.6788
  983MOL0     C29687   9.234   8.673   8.328 -0.1342  0.7375  0.1555
  983MOL0     C29688   9.195   8.714   8.221  0.1994  0.6299  0.3957
  983MOL0     C29689   9.453   8.371   8.871  0.1451 -0.2751 -1.0635
  983MOL0     C29690   9.554   8.282   8.922 -0.5175 -0.4608 -1.1693
  983MOL0     H29691   9.904   8.136   9.248  0.5833  1.2283  0.3834
  983MOL0     H29692  10.081   7.991   9.314 -0.1596  3.1565 -0.0531
  983MOL0     H29693  10.367   7.898   9.057 -0.3555  0.8175 -0.7979
  983MOL0     H29694  10.291   7.758   8.981 -1.8581  0.3647  1.2560
  983MOL0     H29695  10.426   7.606   9.170  2.0375  0.8916  2.3494
  983MOL0     H29696  10.457   7.771   9.234  2.0926  1.5897 -1.0118
  983MOL0     H29697  10.613   7.800   9.052 -0.1454  0.1861  0.9039
  983MOL0     H29698  10.590   7.635   8.989  1.1784 -0.1493 -1.8864
  983MOL0     H29699  10.710   7.738   9.245 -0.6317 -0.0725  1.0472
  983MOL0     H29700  10.667   7.574   9.243 -0.0600 -0.8536 -1.7428
  983MOL0     H29701  10.802   7.563   9.013 -0.9174 -0.9106  0.7629
  983MOL0     H29702  10.876   7.567   9.170 -3.4150  0.1745  2.6483
  983MOL0     H29703  10.833   7.787   8.948 -0.3512 -3.1680 -0.9853
  983MOL0     H29704  10.975   7.692   8.976 -0.9589 -2.5567 -0.3966
  983MOL0     H29705  10.964   7.943   9.063  0.2342 -1.4168 -3.0822
  983MOL0     H29706  10.891   7.877   9.207  2.0541  3.7219  0.9266
  983MOL0     H29707  11.146   7.767   9.087  0.2708 -1.2259  1.4210
  983MOL0     H29708  11.081   7.717   9.232  1.3793 -0.5628 -1.1176
  983MOL0     H29709  11.110   7.848   9.465  0.5622 -0.9694  0.0932
  983MOL0     H29710  11.186   7.987   9.623  0.1819 -1.0868 -0.3876
  983MOL0     H29711  11.168   8.157   9.583  2.0707 -0.4818  0.3892
  983MOL0     H29712  11.407   8.181   9.551  0.1701 -1.4907 -1.1647
  983MOL0     H29713  11.443   8.019   9.617  2.3232  1.5967  2.1551
  983MOL0     H29714  11.306   8.252   9.766 -0.3216  0.8028 -3.1232
  983MOL0     H29715  11.351   8.089   9.828  0.5516 -0.2538  0.4976
  983MOL0     H29716  11.527   8.332   9.770  1.9407  0.4441 -1.1138
  983MOL0     H29717  11.591   8.172   9.731 -1.2980  1.8814 -2.1989
  983MOL0     H29718  11.578   8.192  10.186 -2.5002  1.9055 -0.7107
  983MOL0     H29719  11.773   8.269  10.297  2.1191 -1.6943 -0.0903
  983MOL0     H29720  12.266   8.585   9.953  3.6041  0.5035 -1.2124
  983MOL0     H29721  12.482   8.590   9.955  1.0948 -2.9532 -0.2698
  983MOL0     H29722  12.711   8.408  10.331 -0.7037  1.3202  1.4073
  983MOL0     H29723  12.701   8.584  10.324  0.6423 -1.4750  2.2666
  983MOL0     H29724  12.886   8.612  10.189  0.2742 -0.6050 -2.5407
  983MOL0     H29725  12.859   8.459  10.104  0.1606 -3.3537  1.5047
  983MOL0     H29726  12.945   8.336  10.309  1.9522 -0.9372 -0.2206
  983MOL0     H29727  12.980   8.499  10.381  3.2245 -0.4725  0.1815
  983MOL0     H29728  13.098   8.427  10.115 -5.7534  0.9024  1.3752
  983MOL0     H29729  13.164   8.535  10.250 -0.4456  0.1076  1.3430
  983MOL0     H29730  13.149   8.233  10.264  3.3824 -2.1797 -0.3624
  983MOL0     H29731  13.238   8.368  10.356  0.3853  2.1448 -1.3515
  983MOL0     H29732  13.398   8.381  10.173 -0.0330  0.5754  3.0540
  983MOL0     H29733  13.293   8.272  10.071  0.3038 -3.2981  0.7749
  983MOL0     H29734  13.445   8.214  10.322 -1.7170  1.5302 -0.0131
  983MOL0     H29735  13.343   8.095  10.241  0.3298 -0.5924 -0.0304
  983MOL0     H29736  13.506   8.177  10.031  0.8530  2.0535  0.7046
  983MOL0     H29737  13.558   8.040  10.132 -0.1191  0.0729 -2.2466
  983MOL0     H29738  12.484   8.415  10.350 -0.5650 -0.9794  0.0494
  983MOL0     H29739  12.247   8.386  10.339 -2.5570 -1.3429 -1.2090
  983MOL0     H29740  11.948   8.410   9.931  0.4692 -0.4534  1.0842
  983MOL0     H29741  11.758   8.343   9.823  0.4849 -0.0638 -0.3071
  983MOL0     H29742  10.105   7.821   8.918 -1.0012 -1.4785  0.6782
  983MOL0     H29743   9.897   7.941   8.856 -0.2286  1.3296 -0.1388
  983MOL0     H29744   9.815   8.503   8.878 -0.4121  0.2295  1.2516
  983MOL0     H29745   9.630   8.647   8.813  0.1247  0.4431  0.0961
  983MOL0     H29746   9.460   8.736   8.677 -1.3386 -1.0445 -1.4428
  983MOL0     H29747   9.405   8.784   8.839 -1.6981 -0.5908  1.4182
  983MOL0     H29748   9.194   8.743   8.791  0.9169  3.0575  1.7279
  983MOL0     H29749   9.248   8.877   8.701 -5.9296 -0.7319 -0.2820
  983MOL0     H29750   9.116   8.786   8.526  0.7959 -0.0197  0.2855
  983MOL0     H29751   9.123   8.626   8.595  3.8702 -2.2596 -1.4358
  983MOL0     H29752   9.378   8.728   8.476 -1.2984  2.1465  1.0724
  983MOL0     H29753   9.316   8.561   8.485 -2.8035 -0.6599 -1.2451
  983MOL0     H29754   9.149   8.760   8.136  0.7543  1.8749  0.7446
  983MOL0     H29755   9.347   8.351   8.857 -0.0605  0.4189 -0.5592
  983MOL0     H29756   9.539   8.182   8.961  1.5592 -0.7148 -0.9012
  984MOL0     O29757  10.635   2.406   7.311 -0.2111  0.8758  0.1995
  984MOL0     C29758  10.721   2.453   7.381  0.4288  0.1993  0.4906
  984MOL0     O29759  10.791   2.388   7.477 -0.7976  1.1201 -0.1653
  984MOL0     C29760  10.800   2.249   7.474  0.5945  0.2331 -0.0858
  984MOL0     C29761  10.883   2.176   7.397 -0.2333 -0.6177 -1.0132
  984MOL0     C29762  10.899   2.035   7.417 -0.2377 -0.7286 -0.4014
  984MOL0     C29763  10.833   1.965   7.520 -0.6838 -0.3538  0.3845
  984MOL0     O29764  10.832   1.833   7.533  0.0734  0.4631 -0.3891
  984MOL0     C29765  10.950   1.762   7.488  0.4200 -0.3865 -0.1099
  984MOL0     C29766  10.938   1.623   7.561  0.0632  0.5974  0.6471
  984MOL0     C29767  11.018   1.606   7.694  0.1922  0.2844 -0.9390
  984MOL0     C29768  11.002   1.475   7.757 -0.1661  0.1438  0.9219
  984MOL0     C29769  11.091   1.447   7.879  0.3050  0.4393  0.5508
  984MOL0     C29770  11.048   1.310   7.929  1.1376 -0.2408 -0.2544
  984MOL0     C29771  11.121   1.262   8.048  0.8617 -0.2492 -0.4183
  984MOL0     C29772  11.056   1.127   8.091  0.5010 -0.4643  0.9053
  984MOL0     N29773  11.133   1.055   8.185 -0.1089  0.4992  0.4453
  984MOL0     C29774  11.136   1.085   8.317 -0.3993  0.3378 -1.1707
  984MOL0     C29775  11.248   1.024   8.357 -0.2520  1.2274 -0.1658
  984MOL0     C29776  11.285   1.020   8.500 -1.0419 -0.5292 -1.1802
  984MOL0     C29777  11.214   0.894   8.575  0.0518 -0.5519  0.0486
  984MOL0     C29778  11.070   0.928   8.618  0.4835  0.8767  0.6348
  984MOL0     C29779  10.998   0.795   8.657  0.2212 -1.2527 -0.0884
  984MOL0     O29780  10.865   0.847   8.681  0.0559  0.7821  1.0404
  984MOL0     C29781  10.791   0.761   8.763  0.7242  0.1637  0.6187
  984MOL0     C29782  10.666   0.819   8.793 -0.1136  0.6153 -0.3027
  984MOL0     C29783  10.578   0.756   8.885  0.6301 -1.2411 -0.7215
  984MOL0     C29784  10.610   0.633   8.943  1.4917  0.5383 -0.0702
  984MOL0     C29785  10.522   0.566   9.042 -0.5983  0.2489  0.0098
  984MOL0     O29786  10.567   0.443   9.089 -0.1406 -0.5073  0.4245
  984MOL0     C29787  10.496   0.386   9.197 -0.6773 -0.0837  0.4125
  984MOL0     C29788  10.547   0.404   9.329  0.9955  0.0445 -0.4459
  984MOL0     C29789  10.456   0.368   9.435 -0.8811 -0.0444  0.3751
  984MOL0     C29790  10.324   0.314   9.419 -0.5725  0.6306 -0.6849
  984MOL0     O29791  10.258   0.270   9.536  0.2594 -0.6174 -0.2769
  984MOL0     C29792  10.117   0.290   9.525 -0.2828  0.2040  0.5879
  984MOL0     C29793  10.055   0.305   9.663  0.8531  0.5317  0.8292
  984MOL0     C29794   9.907   0.332   9.652 -0.3947  0.6266 -0.6100
  984MOL0     C29795   9.849   0.337   9.802  0.4693  0.2014  0.9744
  984MOL0     C29796   9.724   0.424   9.807  1.0309 -0.5878  0.3594
  984MOL0     C29797   9.603   0.365   9.706  0.3723 -0.1305 -0.4832
  984MOL0     C29798   9.470   0.402   9.785  0.2376  0.1943 -0.5437
  984MOL0     C29799   9.430   0.289   9.885  0.9201  0.6774  0.8369
  984MOL0    Cl29800   9.537   0.253  10.025  0.0537 -0.3777  0.3469
  984MOL0     C29801  10.279   0.304   9.289 -0.7564 -0.8520 -0.0618
  984MOL0     C29802  10.366   0.337   9.184  0.6019 -0.2701 -0.4417
  984MOL0     O29803  10.417   0.619   9.076  1.0544 -1.0353 -0.5943
  984MOL0     C29804  10.728   0.576   8.907  0.1851  0.0079  0.3157
  984MOL0     C29805  10.818   0.630   8.813 -0.3801 -0.3114 -0.1976
  984MOL0     N29806  11.305   0.948   8.259  0.3332 -0.8609 -0.1448
  984MOL0     N29807  11.238   0.974   8.149 -0.1353  0.3119  0.0222
  984MOL0     C29808  10.742   2.035   7.593  1.7424 -0.6879 -0.1166
  984MOL0     C29809  10.729   2.173   7.575 -0.1767 -0.9572  0.5992
  984MOL0     C29810  10.737   2.604   7.368 -0.0552  0.1580  0.7411
  984MOL0     C29811  10.851   2.655   7.433  0.4392  1.6477 -0.6359
  984MOL0     C29812  10.869   2.788   7.441 -0.2592  0.8078  0.8515
  984MOL0     C29813  10.782   2.885   7.383  0.0194  0.7039 -0.3638
  984MOL0     O29814  10.811   3.020   7.381 -0.4580 -0.1305 -0.6657
  984MOL0     C29815  10.702   3.108   7.362  0.8038  0.7972  0.5135
  984MOL0     C29816  10.738   3.240   7.421 -0.0608  0.4350  0.8367
  984MOL0     C29817  10.759   3.232   7.575  0.0316 -0.4191  1.0613
  984MOL0     C29818  10.726   3.363   7.654  1.0254 -0.6758 -0.6408
  984MOL0     C29819  10.589   3.406   7.663 -0.1811  0.0845 -0.1001
  984MOL0     C29820  10.475   3.434   7.696 -0.2973  1.2381  0.9438
  984MOL0     C29821  10.674   2.830   7.315 -0.1877  0.3956 -0.7982
  984MOL0     C29822  10.639   2.691   7.320 -0.2776  0.8863 -0.1182
  984MOL0     H29823  10.941   2.222   7.319 -0.2311 -0.1277 -0.7258
  984MOL0     H29824  10.962   1.971   7.355 -2.4435 -3.8117  0.2770
  984MOL0     H29825  11.043   1.815   7.512  0.0154  0.0626  0.4752
  984MOL0     H29826  10.939   1.763   7.379  2.6744  0.6973 -0.3821
  984MOL0     H29827  10.956   1.539   7.493 -0.1759  3.5412 -3.4093
  984MOL0     H29828  10.835   1.606   7.590  0.1773 -1.5440 -0.0574
  984MOL0     H29829  10.988   1.666   7.780  2.3706 -1.6796  1.3325
  984MOL0     H29830  11.127   1.616   7.683  0.4023  0.8837  1.2638
  984MOL0     H29831  10.896   1.458   7.776 -0.4341  2.9808  2.5052
  984MOL0     H29832  11.037   1.406   7.679  0.3520 -2.2359  3.1026
  984MOL0     H29833  11.068   1.513   7.963 -1.6026 -0.8109  1.0834
  984MOL0     H29834  11.198   1.445   7.857  1.7452 -0.1097  6.0274
  984MOL0     H29835  11.068   1.245   7.844  3.4330 -0.3266  0.2795
  984MOL0     H29836  10.947   1.303   7.971  1.9109  2.5422  2.4987
  984MOL0     H29837  11.223   1.251   8.010  1.2523 -4.4715  1.2792
  984MOL0     H29838  11.134   1.321   8.139  0.6228 -1.0367  0.1320
  984MOL0     H29839  11.057   1.071   7.997  0.2100  1.8556 -0.5327
  984MOL0     H29840  10.959   1.145   8.137  1.8309 -1.5646  4.5492
  984MOL0     H29841  11.065   1.146   8.372  0.8982 -0.2076  1.2558
  984MOL0     H29842  11.244   1.111   8.546 -0.1509 -0.3731 -0.6702
  984MOL0     H29843  11.393   1.021   8.515 -0.9406 -0.3734 -1.9047
  984MOL0     H29844  11.277   0.869   8.661 -0.8125 -0.0628  0.8409
  984MOL0     H29845  11.226   0.812   8.503  1.4986  1.2125 -1.8440
  984MOL0     H29846  11.075   1.000   8.699 -0.9605  3.0408 -1.0927
  984MOL0     H29847  11.010   0.984   8.546 -4.5945 -0.4059  3.3655
  984MOL0     H29848  11.031   0.758   8.754 -0.4929  2.3534  1.7185
  984MOL0     H29849  11.002   0.718   8.580 -1.6422  0.3440 -1.9027
  984MOL0     H29850  10.628   0.913   8.756 -1.2246  0.3963  0.2398
  984MOL0     H29851  10.479   0.800   8.892  1.0201 -0.3954 -0.3949
  984MOL0     H29852  10.648   0.439   9.349  1.8324 -1.2107 -2.2199
  984MOL0     H29853  10.487   0.395   9.535 -1.8969  2.4061  0.1026
  984MOL0     H29854  10.072   0.202   9.478  2.8912 -2.1260  1.5379
  984MOL0     H29855  10.088   0.377   9.466  1.8330  0.6126  0.0451
  984MOL0     H29856  10.097   0.390   9.718  0.6255  2.0252 -1.1819
  984MOL0     H29857  10.086   0.213   9.713  0.1015  0.1051  0.5223
  984MOL0     H29858   9.865   0.258   9.584  0.7869  0.4147 -1.1354
  984MOL0     H29859   9.889   0.434   9.617 -1.5278  0.0360 -1.8557
  984MOL0     H29860   9.829   0.239   9.845 -0.9991  0.7340  1.5523
  984MOL0     H29861   9.916   0.393   9.867  0.1297  0.2541  1.2793
  984MOL0     H29862   9.741   0.529   9.782  1.7810 -0.0384  2.9228
  984MOL0     H29863   9.684   0.424   9.908 -1.2525 -0.7774 -0.4756
  984MOL0     H29864   9.614   0.258   9.687  0.9219 -0.3081  0.7071
  984MOL0     H29865   9.618   0.415   9.611  1.9822 -1.3139 -0.8879
  984MOL0     H29866   9.487   0.498   9.835  2.2598 -0.1743 -0.4218
  984MOL0     H29867   9.384   0.405   9.717  2.4459 -1.4700 -3.6995
  984MOL0     H29868   9.415   0.195   9.832 -0.9392  0.6765  1.2970
  984MOL0     H29869   9.328   0.308   9.920 -0.2479 -0.2621 -1.7992
  984MOL0     H29870  10.179   0.274   9.260 -0.9700  0.6222 -0.9588
  984MOL0     H29871  10.335   0.322   9.080  1.1221 -0.6591 -0.5461
  984MOL0     H29872  10.751   0.477   8.944  0.4046 -1.6246 -3.6687
  984MOL0     H29873  10.910   0.577   8.791 -0.0230 -0.8487  2.2864
  984MOL0     H29874  10.675   1.983   7.660 -1.3498  1.2466 -1.4864
  984MOL0     H29875  10.651   2.215   7.637 -1.1265  0.4245 -1.4465
  984MOL0     H29876  10.918   2.579   7.472  1.3290  1.2213 -2.8245
  984MOL0     H29877  10.957   2.834   7.485 -2.0962  2.9904  2.4848
  984MOL0     H29878  10.613   3.063   7.407  2.0742  0.1371  2.5008
  984MOL0     H29879  10.684   3.131   7.256 -1.1834  4.2803  1.4408
  984MOL0     H29880  10.824   3.285   7.370 -0.8550  0.5414 -0.4193
  984MOL0     H29881  10.657   3.309   7.398  2.3717  2.4754 -2.5009
  984MOL0     H29882  10.865   3.223   7.599  0.3130  0.2622  0.1474
  984MOL0     H29883  10.702   3.147   7.614 -3.1345  0.6256 -0.8401
  984MOL0     H29884  10.760   3.338   7.755 -2.3801 -0.6676  0.6173
  984MOL0     H29885  10.788   3.446   7.618 -0.9334  1.9234  1.5315
  984MOL0     H29886  10.372   3.460   7.710 -1.4211 -2.9528  1.6390
  984MOL0     H29887  10.592   2.888   7.275  0.5456  2.7970  0.8824
  984MOL0     H29888  10.556   2.643   7.268  1.1296 -1.4115 -0.3895
  985MOL0     O29889   0.659   5.593   2.991  0.1916 -0.2460  0.3612
  985MOL0     C29890   0.698   5.614   3.108  0.2712 -0.4386  0.2553
  985MOL0     O29891   0.638   5.567   3.216  0.4783  0.3439  0.0888
  985MOL0     C29892   0.534   5.478   3.203 -1.0051  0.0106  1.0696
  985MOL0     C29893   0.408   5.532   3.240 -0.0053  0.4820  1.3551
  985MOL0     C29894   0.298   5.445   3.218  0.3859 -0.0634 -0.1520
  985MOL0     C29895   0.309   5.318   3.181  0.4577  0.6917  0.8508
  985MOL0     O29896   0.197   5.234   3.174 -0.5888  0.9609  0.6455
  985MOL0     C29897   0.066   5.292   3.128  0.3610  0.7530 -0.6442
  985MOL0     C29898  -0.041   5.265   3.234 -0.7425 -0.1540 -0.1376
  985MOL0     C29899  -0.173   5.309   3.182 -0.2712  0.1747  0.3042
  985MOL0     C29900  -0.275   5.334   3.306 -0.4252  0.1814  0.7190
  985MOL0     C29901  -0.421   5.368   3.269 -0.0214 -0.3534 -0.6895
  985MOL0     C29902  -0.490   5.268   3.173 -0.0732  0.3053  0.4404
  985MOL0     C29903  -0.619   5.302   3.103 -0.6951 -0.0173 -0.4645
  985MOL0     C29904  -0.745   5.335   3.180  0.1424 -1.2542 -0.6545
  985MOL0     N29905  -0.839   5.387   3.090 -0.2774 -0.4680 -0.0834
  985MOL0     C29906  -0.814   5.501   3.023 -0.4901 -0.0878  0.1842
  985MOL0     C29907  -0.906   5.502   2.924  0.8605  0.0383  0.3253
  985MOL0     C29908  -0.925   5.612   2.826 -0.4309 -0.7932 -0.5092
  985MOL0     C29909  -1.001   5.731   2.896  0.0922  0.3021  0.5860
  985MOL0     C29910  -1.059   5.827   2.795  1.3320  0.4614  0.0060
  985MOL0     C29911  -0.957   5.926   2.740  0.4405 -1.1114  0.0689
  985MOL0     O29912  -0.926   6.006   2.855  0.5583 -0.3595 -0.5100
  985MOL0     C29913  -0.806   6.069   2.859 -0.0035  0.4255 -0.2675
  985MOL0     C29914  -0.754   6.106   2.983  0.0994 -0.6531 -0.5463
  985MOL0     C29915  -0.622   6.168   3.006  1.0916 -0.1225  0.2515
  985MOL0     C29916  -0.543   6.189   2.885  0.3046  0.5267  0.5757
  985MOL0     C29917  -0.399   6.225   2.886  0.8715 -0.2542 -0.2653
  985MOL0     O29918  -0.348   6.254   2.762 -0.3247  0.6934 -0.0292
  985MOL0     C29919  -0.209   6.283   2.765  0.0026 -0.4156 -1.2958
  985MOL0     C29920  -0.114   6.193   2.708  0.2397 -1.2712 -0.4009
  985MOL0     C29921   0.028   6.220   2.708 -0.9602  0.8184 -0.3922
  985MOL0     C29922   0.075   6.340   2.764 -1.1310  0.4520  0.1382
  985MOL0     O29923   0.200   6.373   2.769 -0.6960 -0.2808  0.1407
  985MOL0     C29924   0.279   6.355   2.653 -0.0334 -0.1915  1.1689
  985MOL0     C29925   0.426   6.395   2.675 -0.0324 -0.3475  0.0539
  985MOL0     C29926   0.441   6.551   2.701  0.7032 -0.4236 -0.4301
  985MOL0     C29927   0.381   6.628   2.579  0.8918  0.8340  0.6200
  985MOL0     C29928   0.442   6.765   2.565 -0.5571 -1.0697 -0.4692
  985MOL0     C29929   0.581   6.740   2.494  0.6369 -0.3450  0.5835
  985MOL0     C29930   0.685   6.843   2.541  0.0153 -0.0180 -0.2765
  985MOL0     C29931   0.805   6.859   2.441 -0.5880 -0.1446  1.1231
  985MOL0    Cl29932   0.934   6.951   2.530  0.1352 -0.6501 -0.0443
  985MOL0     C29933  -0.014   6.427   2.816 -0.8096  0.0837 -0.2541
  985MOL0     C29934  -0.155   6.397   2.822  0.0364 -0.7837  1.0418
  985MOL0     O29935  -0.336   6.220   2.988 -0.3977  0.4960 -0.4504
  985MOL0     C29936  -0.605   6.162   2.753  0.1948 -0.1706  0.9811
  985MOL0     C29937  -0.730   6.113   2.743  1.0237  0.6609  0.2738
  985MOL0     N29938  -0.987   5.389   2.920  0.1601  0.0223 -1.0051
  985MOL0     N29939  -0.936   5.318   3.023  0.2771  0.4823  0.9458
  985MOL0     C29940   0.431   5.262   3.154  0.9396 -0.0440 -0.1145
  985MOL0     C29941   0.540   5.340   3.166 -0.8951 -0.2980  0.0633
  985MOL0     C29942   0.807   5.710   3.135 -0.0505 -0.8508 -0.6855
  985MOL0     C29943   0.805   5.782   3.258 -0.0312  0.0991 -0.1200
  985MOL0     C29944   0.907   5.877   3.278  0.1211  0.9417  0.2114
  985MOL0     C29945   1.009   5.901   3.186  0.0639  0.3512 -0.2686
  985MOL0     O29946   1.111   5.995   3.207  0.8193 -0.0633  0.4213
  985MOL0     C29947   1.105   6.077   3.315  1.0159  0.0699  0.5953
  985MOL0     C29948   1.242   6.143   3.328  0.4077 -0.0531  0.1466
  985MOL0     C29949   1.293   6.225   3.210  0.6788 -0.7354  0.3935
  985MOL0     C29950   1.437   6.278   3.225 -0.9481  0.4975  0.2315
  985MOL0     C29951   1.449   6.383   3.325  0.0032  0.3057  0.6995
  985MOL0     C29952   1.434   6.464   3.414  0.3146  1.2712  0.0250
  985MOL0     C29953   0.996   5.845   3.056 -1.2031 -0.5158 -0.2757
  985MOL0     C29954   0.891   5.758   3.032  0.9069  0.2730  0.2152
  985MOL0     H29955   0.403   5.631   3.284  1.2062  0.8303  0.7742
  985MOL0     H29956   0.200   5.488   3.234 -0.1826 -1.8462  1.6568
  985MOL0     H29957   0.034   5.237   3.039 -1.8072 -2.2689  1.7809
  985MOL0     H29958   0.068   5.400   3.111 -0.2801  0.7572 -0.6823
  985MOL0     H29959  -0.007   5.315   3.326  1.1935  2.2006 -1.9863
  985MOL0     H29960  -0.057   5.166   3.277  0.8502  0.0775  1.1272
  985MOL0     H29961  -0.208   5.235   3.109 -0.2015  2.6010 -2.3646
  985MOL0     H29962  -0.176   5.401   3.123 -0.2768  0.6536  1.0409
  985MOL0     H29963  -0.263   5.253   3.378 -1.4828 -1.4490 -0.8466
  985MOL0     H29964  -0.230   5.423   3.351  2.0683 -0.5943 -0.0887
  985MOL0     H29965  -0.402   5.465   3.221  2.0083  0.0663  0.7962
  985MOL0     H29966  -0.485   5.394   3.354 -1.8225 -1.1249 -1.7681
  985MOL0     H29967  -0.511   5.178   3.232  3.0457  0.4594  2.0181
  985MOL0     H29968  -0.421   5.246   3.091 -1.4418 -1.4159 -0.3232
  985MOL0     H29969  -0.591   5.392   3.047  1.5328  1.8642  3.2517
  985MOL0     H29970  -0.644   5.221   3.034  1.7814 -1.9395  0.7732
  985MOL0     H29971  -0.730   5.402   3.265 -0.7940 -0.9604 -0.7091
  985MOL0     H29972  -0.782   5.239   3.217 -1.1402 -1.6295 -2.7580
  985MOL0     H29973  -0.740   5.577   3.046  0.4413 -1.7386  3.1633
  985MOL0     H29974  -0.988   5.578   2.743  1.3865  0.3076 -2.4424
  985MOL0     H29975  -0.827   5.642   2.788  0.3122  4.3791  4.1581
  985MOL0     H29976  -0.936   5.776   2.971  0.6166 -0.4239  0.5727
  985MOL0     H29977  -1.099   5.703   2.935  0.7657 -1.6505  0.9989
  985MOL0     H29978  -1.099   5.771   2.710  1.1586 -0.2865  0.5676
  985MOL0     H29979  -1.150   5.873   2.834 -0.3168 -1.0367 -1.8578
  985MOL0     H29980  -1.021   5.985   2.673  0.4149 -2.3914 -1.0644
  985MOL0     H29981  -0.874   5.876   2.689  0.6237 -0.2695 -0.4881
  985MOL0     H29982  -0.810   6.089   3.074 -0.0613 -1.0831 -0.7227
  985MOL0     H29983  -0.577   6.184   3.103  2.7894 -0.2220 -0.4759
  985MOL0     H29984  -0.141   6.097   2.666  0.6365 -1.2249 -0.7748
  985MOL0     H29985   0.079   6.136   2.663  1.4637  0.6989  2.2572
  985MOL0     H29986   0.243   6.415   2.569  2.1521  0.3961  0.5902
  985MOL0     H29987   0.277   6.251   2.618 -0.2301  0.1744  0.0468
  985MOL0     H29988   0.504   6.375   2.602  3.8379 -0.6869  3.8896
  985MOL0     H29989   0.453   6.338   2.764 -2.5102  2.1905  2.6697
  985MOL0     H29990   0.540   6.591   2.721 -0.9333  3.2094  1.3725
  985MOL0     H29991   0.385   6.582   2.790  4.1521 -1.3235  2.2953
  985MOL0     H29992   0.386   6.564   2.490  0.2460 -1.7969  2.3669
  985MOL0     H29993   0.271   6.633   2.582  0.7068  0.7813 -2.3708
  985MOL0     H29994   0.457   6.808   2.664 -4.1467  1.5243 -0.8300
  985MOL0     H29995   0.386   6.845   2.514  1.9463  1.2370  0.1768
  985MOL0     H29996   0.563   6.751   2.387 -0.5849  3.5515  1.0048
  985MOL0     H29997   0.610   6.636   2.508 -2.9183 -2.0918 -2.9557
  985MOL0     H29998   0.624   6.933   2.550 -3.7635 -2.3472 -0.3321
  985MOL0     H29999   0.712   6.810   2.641  0.1682 -4.3892 -1.5661
  985MOL0     H30000   0.775   6.914   2.352 -0.8536 -1.1722  0.5599
  985MOL0     H30001   0.837   6.762   2.402 -1.9951  0.7145 -2.4833
  985MOL0     H30002   0.023   6.522   2.852  1.0256 -1.2839  1.8036
  985MOL0     H30003  -0.220   6.471   2.868 -1.2822  0.2434 -2.1711
  985MOL0     H30004  -0.553   6.189   2.661 -0.2257  0.6908  0.9961
  985MOL0     H30005  -0.766   6.098   2.641  1.1245 -1.3175  0.4826
  985MOL0     H30006   0.440   5.159   3.121 -0.1670  0.2847 -1.5530
  985MOL0     H30007   0.642   5.308   3.148 -0.9763  0.4242 -1.9189
  985MOL0     H30008   0.731   5.777   3.337  0.7714  3.4070  1.0274
  985MOL0     H30009   0.882   5.931   3.369 -2.1704 -0.0691  0.2625
  985MOL0     H30010   1.078   6.023   3.406 -0.2473  0.8315  0.6859
  985MOL0     H30011   1.023   6.148   3.306  0.7469 -0.0600  1.9041
  985MOL0     H30012   1.249   6.216   3.409  1.9437  0.1552 -0.1372
  985MOL0     H30013   1.321   6.072   3.358 -0.5681 -0.5561  1.6502
  985MOL0     H30014   1.221   6.300   3.176  2.8724  0.0502 -2.9989
  985MOL0     H30015   1.300   6.158   3.124  1.0077  2.9762 -2.7466
  985MOL0     H30016   1.500   6.195   3.258 -1.3976  0.5419  1.2398
  985MOL0     H30017   1.481   6.310   3.130 -2.1214 -3.7221 -1.9496
  985MOL0     H30018   1.426   6.527   3.501 -0.0093 -2.7705  3.2142
  985MOL0     H30019   1.058   5.872   2.971 -0.2567 -2.2146 -0.1667
  985MOL0     H30020   0.889   5.722   2.930  4.7043 -2.6538  0.9521
  986MOL0     O30021   4.474   5.168   4.987  0.8391 -0.4151 -0.0572
  986MOL0     C30022   4.447   5.245   5.081 -0.6094 -0.7939  0.2470
  986MOL0     O30023   4.342   5.329   5.090  0.8410  0.7579 -0.1796
  986MOL0     C30024   4.241   5.309   4.997 -0.6036  0.4181  1.1660
  986MOL0     C30025   4.160   5.201   4.995  0.0167  0.4659  0.8609
  986MOL0     C30026   4.052   5.187   4.903  0.7790 -0.2160  0.8537
  986MOL0     C30027   4.024   5.288   4.819  0.6147  0.7992 -0.0580
  986MOL0     O30028   3.927   5.274   4.722 -0.5057 -0.2352 -0.2378
  986MOL0     C30029   3.851   5.152   4.706  0.1097 -0.5561 -0.5042
  986MOL0     C30030   3.750   5.170   4.601 -0.5238 -0.5180 -0.8179
  986MOL0     C30031   3.699   5.023   4.559  0.7377 -1.1825 -0.9869
  986MOL0     C30032   3.599   5.020   4.452  0.5107  0.0769  0.1601
  986MOL0     C30033   3.507   4.893   4.450 -0.1530  0.2774 -0.4988
  986MOL0     C30034   3.431   4.900   4.316  0.3938  0.1474 -0.4419
  986MOL0     C30035   3.387   4.759   4.263  0.1578 -0.1222  0.7004
  986MOL0     C30036   3.326   4.771   4.129 -0.0319 -0.3664  0.4775
  986MOL0     N30037   3.269   4.645   4.078  0.3424 -0.3766 -0.5354
  986MOL0     C30038   3.343   4.548   4.024 -0.7984  0.8997 -0.3606
  986MOL0     C30039   3.264   4.442   4.018 -1.2765 -0.8456 -0.2293
  986MOL0     C30040   3.305   4.305   3.954  0.2830  0.4883 -0.5236
  986MOL0     C30041   3.255   4.315   3.814  0.2084 -0.0064  0.0140
  986MOL0     C30042   3.106   4.320   3.788  1.1279 -0.4327 -1.0760
  986MOL0     C30043   3.059   4.256   3.659  0.0931  0.4136  0.3868
  986MOL0     O30044   2.918   4.268   3.657 -0.2535 -1.6307 -0.4784
  986MOL0     C30045   2.842   4.185   3.594  0.0957 -0.1130 -0.6807
  986MOL0     C30046   2.851   4.045   3.599  0.5514  0.1679  0.5669
  986MOL0     C30047   2.752   3.963   3.534  0.3007 -0.0015  0.0183
  986MOL0     C30048   2.658   4.028   3.455 -0.5080 -0.9839 -0.1432
  986MOL0     C30049   2.567   3.948   3.372  0.3347 -0.2913  0.6333
  986MOL0     O30050   2.550   3.815   3.386  0.2582 -0.3541  0.2296
  986MOL0     C30051   2.465   3.761   3.299  0.1065  0.5038  0.8079
  986MOL0     C30052   2.350   3.691   3.344 -0.3352 -0.5143 -0.1299
  986MOL0     C30053   2.280   3.604   3.263 -0.4481  0.2702  0.7363
  986MOL0     C30054   2.315   3.583   3.126  0.0767  0.4057  0.0236
  986MOL0     O30055   2.252   3.511   3.035  1.3371 -0.1987 -0.5977
  986MOL0     C30056   2.225   3.372   3.064 -0.2071  0.7678  0.6442
  986MOL0     C30057   2.205   3.269   2.950  0.1000  0.1320  0.6922
  986MOL0     C30058   2.344   3.252   2.877  0.3980 -0.7572  0.0972
  986MOL0     C30059   2.360   3.121   2.794 -0.1495  0.5151  0.1707
  986MOL0     C30060   2.324   2.976   2.857  0.4999 -0.2817  0.3153
  986MOL0     C30061   2.441   2.918   2.944  0.2943 -0.3196 -0.6612
  986MOL0     C30062   2.439   2.975   3.093 -0.2644  0.5768  0.2899
  986MOL0     C30063   2.565   2.936   3.164  0.4309  0.6245 -0.5882
  986MOL0    Cl30064   2.713   3.003   3.072  0.1314  0.2610 -0.3009
  986MOL0     C30065   2.426   3.655   3.086  0.4829 -0.0240 -0.8785
  986MOL0     C30066   2.501   3.745   3.164 -0.3492 -0.4930 -0.8677
  986MOL0     O30067   2.502   4.026   3.298  0.9271  0.7402  0.3505
  986MOL0     C30068   2.655   4.170   3.461 -0.5702 -0.3849  1.1402
  986MOL0     C30069   2.744   4.243   3.528  0.1167 -0.8468  0.4628
  986MOL0     N30070   3.143   4.476   4.071  0.2488  0.4298  0.0117
  986MOL0     N30071   3.156   4.592   4.121 -0.1025  0.7466  0.5064
  986MOL0     C30072   4.098   5.405   4.816  0.4444 -1.4262 -0.6557
  986MOL0     C30073   4.208   5.417   4.905 -0.4088  1.1307 -0.1724
  986MOL0     C30074   4.545   5.257   5.197  1.4407 -0.1872  0.4259
  986MOL0     C30075   4.496   5.328   5.316 -0.4995 -0.3325 -0.2618
  986MOL0     C30076   4.570   5.333   5.428  1.0872 -0.4221 -0.2505
  986MOL0     C30077   4.684   5.265   5.442 -0.2953  0.7714  0.9276
  986MOL0     O30078   4.759   5.270   5.557 -0.3124  0.8337  0.2872
  986MOL0     C30079   4.702   5.326   5.678  0.3330 -0.4596  0.5122
  986MOL0     C30080   4.582   5.256   5.733 -0.2481 -1.3095  0.5523
  986MOL0     C30081   4.523   5.360   5.830 -0.2883  0.1944 -0.2302
  986MOL0     C30082   4.382   5.317   5.876 -0.0346  0.1197 -0.2533
  986MOL0     C30083   4.339   5.394   5.996  0.0809  0.8199 -0.2215
  986MOL0     C30084   4.323   5.464   6.096  0.6009  1.2806 -0.1842
  986MOL0     C30085   4.740   5.190   5.330  1.1127 -0.7955  0.8304
  986MOL0     C30086   4.671   5.186   5.210 -0.1937 -0.2289 -0.6093
  986MOL0     H30087   4.188   5.127   5.070  2.1238  0.3604  0.0532
  986MOL0     H30088   3.979   5.107   4.898 -0.2036  0.7068 -0.5430
  986MOL0     H30089   3.795   5.122   4.795 -1.4755  0.4030 -1.1404
  986MOL0     H30090   3.899   5.059   4.675 -1.8458 -1.1333 -1.9763
  986MOL0     H30091   3.798   5.214   4.513  1.0585  1.0081  0.7128
  986MOL0     H30092   3.665   5.230   4.635 -0.3365  0.3100 -1.7498
  986MOL0     H30093   3.661   4.989   4.656 -0.3923  1.6221 -0.3475
  986MOL0     H30094   3.783   4.957   4.534  0.0406 -3.0264  1.2149
  986MOL0     H30095   3.537   5.109   4.467  2.4808  1.3628  1.1673
  986MOL0     H30096   3.651   5.029   4.356  1.6565  1.0626  0.8455
  986MOL0     H30097   3.438   4.890   4.534  0.0474  1.0427 -0.2981
  986MOL0     H30098   3.571   4.805   4.463  1.0346  1.3231  1.1010
  986MOL0     H30099   3.499   4.941   4.240 -0.0111  0.8095 -0.4468
  986MOL0     H30100   3.342   4.962   4.318 -0.1053 -0.5409 -0.6298
  986MOL0     H30101   3.481   4.703   4.251  0.6385  0.9413 -0.9091
  986MOL0     H30102   3.318   4.709   4.331 -0.9849 -0.0084 -0.3336
  986MOL0     H30103   3.400   4.818   4.063 -3.1814  3.1147 -0.9770
  986MOL0     H30104   3.239   4.837   4.122 -0.0410 -0.4323 -0.0923
  986MOL0     H30105   3.443   4.534   3.984 -0.5742  4.0112 -1.1153
  986MOL0     H30106   3.250   4.228   4.007  1.2526 -0.4170 -0.8018
  986MOL0     H30107   3.413   4.298   3.968  0.0459 -0.4290  1.1289
  986MOL0     H30108   3.295   4.229   3.760 -0.0960  0.4392 -0.9410
  986MOL0     H30109   3.303   4.408   3.782 -5.2254  2.7182 -1.4750
  986MOL0     H30110   3.052   4.267   3.868 -1.7005  2.4026 -0.9244
  986MOL0     H30111   3.075   4.425   3.791 -0.5750 -0.9075 -0.8629
  986MOL0     H30112   3.080   4.150   3.647 -2.9653 -0.2481  0.0802
  986MOL0     H30113   3.107   4.311   3.578  0.1076 -1.1114 -0.6812
  986MOL0     H30114   2.930   4.002   3.659  2.7067 -0.0426 -2.2253
  986MOL0     H30115   2.772   3.857   3.523  1.0247  0.0161  0.9751
  986MOL0     H30116   2.307   3.723   3.439 -1.6775  0.0867 -0.9283
  986MOL0     H30117   2.189   3.558   3.300 -0.0008 -0.5484  0.8473
  986MOL0     H30118   2.140   3.363   3.133 -1.1312  0.1766 -0.5363
  986MOL0     H30119   2.315   3.335   3.113 -0.0334 -0.6757 -0.7004
  986MOL0     H30120   2.134   3.308   2.877  0.4850 -3.8526 -2.1399
  986MOL0     H30121   2.167   3.177   2.994  1.1849 -1.1484 -0.9408
  986MOL0     H30122   2.424   3.268   2.951  1.9875  1.7593 -2.0010
  986MOL0     H30123   2.361   3.335   2.807  0.6960 -1.6143 -0.8693
  986MOL0     H30124   2.297   3.139   2.706 -0.7225  0.2761  0.5208
  986MOL0     H30125   2.463   3.115   2.759 -0.0764 -4.5569  0.5340
  986MOL0     H30126   2.312   2.908   2.771 -1.1663 -0.0297  0.3058
  986MOL0     H30127   2.224   2.976   2.902 -0.9394  0.5881 -2.6217
  986MOL0     H30128   2.542   2.944   2.913  1.2539 -1.5599  1.1873
  986MOL0     H30129   2.428   2.809   2.944  0.6604 -0.3748  0.3490
  986MOL0     H30130   2.434   3.084   3.096 -0.6765  0.7535 -3.1901
  986MOL0     H30131   2.350   2.940   3.147  1.5863 -2.6395  1.4922
  986MOL0     H30132   2.570   2.827   3.167  1.6229  0.4408 -4.5012
  986MOL0     H30133   2.562   2.979   3.265  1.0892  0.2447 -0.4049
  986MOL0     H30134   2.462   3.664   2.985 -0.0952  4.8739 -0.8707
  986MOL0     H30135   2.587   3.787   3.112  0.4288 -2.7530 -1.4844
  986MOL0     H30136   2.591   4.232   3.399 -0.6233 -1.6094 -0.0546
  986MOL0     H30137   2.733   4.351   3.528 -0.4593 -0.9020  0.7649
  986MOL0     H30138   4.070   5.484   4.746 -0.5349  1.6187  2.8470
  986MOL0     H30139   4.264   5.510   4.910  0.7746  0.6095 -2.4948
  986MOL0     H30140   4.409   5.391   5.306 -0.5264 -0.3528 -0.1530
  986MOL0     H30141   4.538   5.417   5.490 -0.2555 -1.0637 -0.0612
  986MOL0     H30142   4.674   5.430   5.663  1.4103 -0.1527  0.5604
  986MOL0     H30143   4.782   5.318   5.752  1.2133  0.0330 -0.3514
  986MOL0     H30144   4.511   5.234   5.653 -0.5719 -1.4468  0.8759
  986MOL0     H30145   4.623   5.166   5.778  1.6723 -0.5178  0.4942
  986MOL0     H30146   4.505   5.449   5.768  1.7757 -0.9298 -2.6406
  986MOL0     H30147   4.588   5.384   5.914 -0.1745 -3.2275  0.7894
  986MOL0     H30148   4.315   5.322   5.790  1.7960 -0.4842 -1.7940
  986MOL0     H30149   4.392   5.213   5.908 -0.1114  0.1216 -0.2265
  986MOL0     H30150   4.319   5.525   6.184 -0.2074  1.9510 -0.6702
  986MOL0     H30151   4.819   5.119   5.351  1.8574 -0.5781 -1.0807
  986MOL0     H30152   4.711   5.121   5.133  1.1004  1.0596 -1.0792
  987MOL0     O30153   1.546   9.914   6.876  0.4694 -0.9988  0.3513
  987MOL0     C30154   1.606   9.868   6.974 -0.0077 -0.2782  0.8938
  987MOL0     O30155   1.555   9.779   7.063 -0.4855 -0.3495 -0.1995
  987MOL0     C30156   1.417   9.758   7.064 -0.2570  0.7615 -0.9147
  987MOL0     C30157   1.356   9.629   7.034 -1.2563 -1.0743 -1.2525
  987MOL0     C30158   1.218   9.617   7.058 -0.2735 -0.3119  0.2735
  987MOL0     C30159   1.141   9.720   7.112 -0.5403  0.1943 -0.3359
  987MOL0     O30160   1.004   9.689   7.119  0.0124 -1.0480  0.5743
  987MOL0     C30161   0.914   9.789   7.168  0.0548  0.4062 -0.5700
  987MOL0     C30162   0.783   9.723   7.153 -0.0681 -0.0589  0.4032
  987MOL0     C30163   0.676   9.814   7.223 -0.1546  0.4261 -0.2457
  987MOL0     C30164   0.672   9.801   7.381  0.9181 -0.1249 -0.0867
  987MOL0     C30165   0.531   9.858   7.423 -0.8976  0.3241 -0.8080
  987MOL0     C30166   0.535   9.863   7.572 -0.6200 -0.2004 -0.6417
  987MOL0     C30167   0.624   9.981   7.616  0.2797 -0.0231 -0.1318
  987MOL0     C30168   0.579  10.005   7.768 -0.9683  0.4797  0.7833
  987MOL0     N30169   0.443  10.057   7.787  0.2359  0.0326  0.3862
  987MOL0     C30170   0.384  10.169   7.732 -0.2046  0.8808  0.3601
  987MOL0     C30171   0.258  10.161   7.770 -0.0386 -0.2709 -0.8383
  987MOL0     C30172   0.152  10.260   7.746  0.6735 -0.0389 -0.1943
  987MOL0     C30173   0.195  10.402   7.783 -0.6074 -0.6459 -1.4614
  987MOL0     C30174   0.231  10.429   7.923  0.3677 -0.6418  0.5323
  987MOL0     C30175   0.375  10.421   7.962 -0.2393  0.0257  0.0906
  987MOL0     O30176   0.457  10.498   7.871 -0.5342 -0.2275  0.1724
  987MOL0     C30177   0.590  10.492   7.885  0.0549  0.0735 -0.4008
  987MOL0     C30178   0.667  10.516   7.774  0.0873  0.0858  0.3749
  987MOL0     C30179   0.803  10.503   7.773  0.9596 -0.3322  0.4043
  987MOL0     C30180   0.866  10.485   7.897  0.0258 -0.6217  0.3149
  987MOL0     C30181   1.014  10.502   7.891 -0.3514  0.7670  0.9586
  987MOL0     O30182   1.069  10.491   7.763  0.1699  1.2460 -0.8055
  987MOL0     C30183   1.207  10.511   7.745  1.3456  0.3163  0.2716
  987MOL0     C30184   1.262  10.627   7.698  0.6097 -0.0292 -0.1204
  987MOL0     C30185   1.398  10.639   7.679  0.0394 -0.4987 -0.7643
  987MOL0     C30186   1.485  10.533   7.711 -0.2415 -0.8175  0.0029
  987MOL0     O30187   1.620  10.561   7.708 -0.1506 -0.9455  1.0662
  987MOL0     C30188   1.723  10.494   7.786 -0.2157  0.1265 -0.6423
  987MOL0     C30189   1.711  10.502   7.939 -0.4347 -0.2826  0.0097
  987MOL0     C30190   1.806  10.393   8.001  0.2216 -0.9344 -1.1827
  987MOL0     C30191   1.748  10.251   7.996  0.8960  0.2460  1.0166
  987MOL0     C30192   1.821  10.146   8.083 -0.1556 -0.9745  0.5402
  987MOL0     C30193   1.777  10.004   8.027  0.1403  0.4946 -0.7384
  987MOL0     C30194   1.892   9.906   8.013  0.2807 -1.0670  0.2858
  987MOL0     C30195   1.959   9.853   8.141 -1.1471  0.5537  0.2912
  987MOL0    Cl30196   2.079   9.730   8.071  0.5483 -0.6275 -0.2045
  987MOL0     C30197   1.433  10.402   7.756 -0.2953  0.2423 -0.9591
  987MOL0     C30198   1.295  10.396   7.767  0.3736 -0.2376  1.2721
  987MOL0     O30199   1.078  10.500   7.991  0.1528 -0.6255 -0.0598
  987MOL0     C30200   0.796  10.457   8.014  0.1150 -0.1627  0.5252
  987MOL0     C30201   0.655  10.448   7.995  0.4495  0.2325 -0.2035
  987MOL0     N30202   0.233  10.044   7.840  1.4047  0.6996 -0.5375
  987MOL0     N30203   0.341   9.980   7.842 -0.6196 -0.3677 -0.0796
  987MOL0     C30204   1.199   9.847   7.127  0.2364  0.4237  0.4326
  987MOL0     C30205   1.331   9.862   7.108 -0.7688 -0.1894 -0.7861
  987MOL0     C30206   1.759   9.893   7.005  0.4507 -0.4698 -0.3514
  987MOL0     C30207   1.806   9.854   7.137 -0.0783  0.4093 -0.6266
  987MOL0     C30208   1.949   9.852   7.161  0.5140 -0.1226 -0.4893
  987MOL0     C30209   2.038   9.896   7.066 -0.5615  0.5455 -0.4239
  987MOL0     O30210   2.175   9.874   7.101  0.9739 -0.6028 -0.8888
  987MOL0     C30211   2.262   9.917   7.001 -0.4394 -0.7149 -0.3877
  987MOL0     C30212   2.297  10.065   7.010 -0.5421 -0.4792  0.1198
  987MOL0     C30213   2.345  10.118   6.871 -0.2255  0.0418  0.6085
  987MOL0     C30214   2.401  10.258   6.884 -0.6255 -0.1546  0.2832
  987MOL0     C30215   2.305  10.351   6.927 -0.6596 -0.4196  0.2646
  987MOL0     C30216   2.231  10.435   6.949  0.8565  0.2351 -0.2382
  987MOL0     C30217   1.991   9.952   6.943  0.3592  0.0002 -0.8816
  987MOL0     C30218   1.850   9.945   6.914 -0.0581 -1.2337  0.1875
  987MOL0     H30219   1.405   9.535   7.014 -0.1563 -0.5834 -0.9450
  987MOL0     H30220   1.172   9.519   7.046 -0.6163 -0.1541  0.3022
  987MOL0     H30221   0.927   9.884   7.115 -3.9491  1.9618  0.8804
  987MOL0     H30222   0.938   9.811   7.273  1.4057  2.5897 -1.2707
  987MOL0     H30223   0.783   9.633   7.215 -0.9876  0.0401  0.5624
  987MOL0     H30224   0.765   9.713   7.045  0.0068  3.0366 -0.0065
  987MOL0     H30225   0.576   9.793   7.183 -0.3006  0.3670  0.1482
  987MOL0     H30226   0.686   9.921   7.203  2.4508  0.5084  1.1181
  987MOL0     H30227   0.667   9.694   7.403 -0.6629  0.0724  0.6749
  987MOL0     H30228   0.759   9.852   7.423  1.9592  0.2730 -2.5596
  987MOL0     H30229   0.447   9.795   7.393 -0.9854  0.3580 -0.6405
  987MOL0     H30230   0.530   9.960   7.383 -2.9475  0.6699  0.0137
  987MOL0     H30231   0.585   9.774   7.610  2.4985  0.3597 -3.0264
  987MOL0     H30232   0.433   9.883   7.607 -0.3168  0.2467  0.0285
  987MOL0     H30233   0.726   9.948   7.597 -0.1086 -1.4999  0.2669
  987MOL0     H30234   0.589  10.069   7.561  1.4790  1.2321  1.0484
  987MOL0     H30235   0.646  10.074   7.820  3.1327 -1.5407 -1.2993
  987MOL0     H30236   0.598   9.917   7.830  0.2943 -2.6153 -3.4693
  987MOL0     H30237   0.423  10.259   7.686  0.9835  0.8564  1.2694
  987MOL0     H30238   0.070  10.230   7.812  0.1613  1.1773 -0.2602
  987MOL0     H30239   0.123  10.266   7.641  0.3711  0.2762 -0.0955
  987MOL0     H30240   0.107  10.463   7.763  0.2921  0.5416 -1.9394
  987MOL0     H30241   0.272  10.427   7.710 -0.6819 -1.5088 -1.8552
  987MOL0     H30242   0.215  10.533   7.953 -2.3668 -1.0122  0.5872
  987MOL0     H30243   0.158  10.381   7.990  0.9436  1.0748  2.4869
  987MOL0     H30244   0.400  10.317   7.942 -1.4031  0.1608 -2.5712
  987MOL0     H30245   0.383  10.452   8.066 -0.1660 -1.0103  0.4033
  987MOL0     H30246   0.612  10.550   7.687 -2.5476 -2.0041  1.0623
  987MOL0     H30247   0.845  10.525   7.675 -1.1711 -0.2285 -0.5297
  987MOL0     H30248   1.202  10.705   7.653  0.2571 -1.1537 -1.6708
  987MOL0     H30249   1.453  10.724   7.638  0.1773 -1.0313 -1.7110
  987MOL0     H30250   1.822  10.527   7.754 -0.8073  0.3945 -2.3229
  987MOL0     H30251   1.719  10.389   7.755  2.1705 -0.0121 -0.6381
  987MOL0     H30252   1.606  10.483   7.962 -1.0095  2.1798 -0.3401
  987MOL0     H30253   1.745  10.599   7.976  0.5477 -1.5642  2.7401
  987MOL0     H30254   1.814  10.425   8.105 -1.5841 -2.0003 -0.6823
  987MOL0     H30255   1.907  10.392   7.959  0.4698 -1.1505 -0.5855
  987MOL0     H30256   1.641  10.244   8.015 -0.2973 -0.1847 -4.3024
  987MOL0     H30257   1.756  10.229   7.889 -2.9228  0.4701  0.5581
  987MOL0     H30258   1.800  10.148   8.190  0.4978  1.5351  0.6773
  987MOL0     H30259   1.929  10.161   8.069  0.6029 -1.8215  4.3315
  987MOL0     H30260   1.740  10.019   7.925 -1.6518 -0.1628 -0.2346
  987MOL0     H30261   1.692   9.981   8.093  0.7647  2.1047  0.6924
  987MOL0     H30262   1.848   9.817   7.966 -1.5459 -1.8751  3.2433
  987MOL0     H30263   1.969   9.946   7.947 -1.5429 -1.3602 -2.1708
  987MOL0     H30264   1.885   9.814   8.211  1.2631 -3.1785  1.0236
  987MOL0     H30265   2.011   9.941   8.179 -2.3816  1.9259 -1.0641
  987MOL0     H30266   1.500  10.322   7.785  0.1826  1.5716  1.8849
  987MOL0     H30267   1.234  10.313   7.801 -0.0852  0.2840  1.7366
  987MOL0     H30268   0.838  10.428   8.110 -0.9639 -1.6666  0.5820
  987MOL0     H30269   0.596  10.415   8.080  4.1571 -2.3613  1.6163
  987MOL0     H30270   1.131   9.925   7.160  2.1776  3.1818 -1.6486
  987MOL0     H30271   1.389   9.953   7.120  0.1039 -0.9685  1.3148
  987MOL0     H30272   1.742   9.819   7.217  3.2230 -2.1278  1.1117
  987MOL0     H30273   1.990   9.814   7.254 -1.2524  0.0476  0.4099
  987MOL0     H30274   2.239   9.888   6.898  1.4715  1.3553 -1.4895
  987MOL0     H30275   2.360   9.869   7.009  0.1445  0.6737  1.5106
  987MOL0     H30276   2.209  10.116   7.050  0.9441 -0.7441  4.2496
  987MOL0     H30277   2.380  10.080   7.081 -0.2563 -0.7158 -0.1631
  987MOL0     H30278   2.266  10.120   6.795 -1.0746  0.1898  1.4630
  987MOL0     H30279   2.425  10.045   6.857  0.6894  0.4497  3.1174
  987MOL0     H30280   2.482  10.263   6.957 -0.3682 -1.1829  0.0756
  987MOL0     H30281   2.437  10.296   6.788  1.9347 -0.4342  1.0713
  987MOL0     H30282   2.141  10.492   6.967  1.4031  0.1222  3.8527
  987MOL0     H30283   2.044  10.015   6.872 -4.3140  2.5164 -2.5957
  987MOL0     H30284   1.823   9.967   6.811  0.7840 -0.3460  0.1336
  988MOL0     O30285   1.156   4.505   7.967  0.0731  0.2126  0.6746
  988MOL0     C30286   1.183   4.425   8.056 -0.8017  0.2403 -0.5143
  988MOL0     O30287   1.085   4.356   8.117  0.1288 -0.3236 -0.4417
  988MOL0     C30288   0.951   4.378   8.080  0.6153 -0.9340 -0.1315
  988MOL0     C30289   0.868   4.439   8.175 -0.0522 -0.8442  0.3986
  988MOL0     C30290   0.736   4.428   8.152 -0.5822  0.4588  0.0220
  988MOL0     C30291   0.681   4.433   8.028  0.3993  0.3251 -0.3491
  988MOL0     O30292   0.549   4.474   8.000  0.4408 -0.5671  0.5088
  988MOL0     C30293   0.490   4.471   7.869 -0.1818  0.2712 -0.7027
  988MOL0     C30294   0.459   4.329   7.822  0.4579  0.0016  0.8356
  988MOL0     C30295   0.411   4.309   7.670 -0.1409  0.1037 -0.7925
  988MOL0     C30296   0.368   4.170   7.657 -0.0501  0.5852 -0.6267
  988MOL0     C30297   0.269   4.130   7.537  0.1281 -0.1949  0.7967
  988MOL0     C30298   0.261   4.221   7.414  0.1709 -0.3247 -0.9778
  988MOL0     C30299   0.386   4.263   7.342 -0.9377 -0.2848 -0.3845
  988MOL0     C30300   0.445   4.162   7.244  0.8995  0.0835  0.0626
  988MOL0     N30301   0.501   4.050   7.315 -0.8049  0.0197 -0.1351
  988MOL0     C30302   0.471   3.923   7.273 -0.1976  0.1140  0.4551
  988MOL0     C30303   0.560   3.840   7.334 -0.6314  0.0043 -0.4373
  988MOL0     C30304   0.559   3.686   7.311 -0.0547  0.6418 -0.5334
  988MOL0     C30305   0.674   3.654   7.212  0.3282  0.1752  0.7557
  988MOL0     C30306   0.659   3.738   7.080 -0.5493  0.5704 -0.3046
  988MOL0     C30307   0.749   3.682   6.969  0.5294  0.1714  0.4189
  988MOL0     O30308   0.711   3.546   6.922 -0.8288  0.4906 -0.9177
  988MOL0     C30309   0.796   3.473   6.835 -0.8629  0.9836 -0.5476
  988MOL0     C30310   0.926   3.521   6.801 -1.0038  1.0238 -0.2678
  988MOL0     C30311   1.035   3.442   6.754  0.1099  0.4376  0.8013
  988MOL0     C30312   1.015   3.304   6.727 -0.0529 -0.5268  0.4240
  988MOL0     C30313   1.115   3.210   6.676 -0.5315 -0.1551 -0.4443
  988MOL0     O30314   1.095   3.077   6.707 -0.1229 -0.3379  0.2881
  988MOL0     C30315   1.186   2.989   6.645 -0.0677 -0.6198 -1.1658
  988MOL0     C30316   1.287   2.934   6.723 -1.1599  1.4967  0.8831
  988MOL0     C30317   1.371   2.841   6.664 -0.1926  0.2923 -0.2944
  988MOL0     C30318   1.353   2.793   6.535  0.6720  0.0451  0.3942
  988MOL0     O30319   1.443   2.696   6.501 -0.9220 -0.3210  0.1518
  988MOL0     C30320   1.418   2.618   6.387  1.4982 -0.3592  0.6566
  988MOL0     C30321   1.501   2.493   6.410 -0.3592 -0.5961 -0.1589
  988MOL0     C30322   1.484   2.387   6.301  0.5510 -0.1410  0.0484
  988MOL0     C30323   1.339   2.316   6.315  0.5334 -0.1731 -0.3077
  988MOL0     C30324   1.289   2.211   6.207  0.4609  0.5265 -0.3505
  988MOL0     C30325   1.392   2.107   6.167  0.3251 -0.3662  0.7632
  988MOL0     C30326   1.342   2.045   6.039 -0.5949 -0.1783  0.3451
  988MOL0     C30327   1.437   1.940   5.994 -0.1002  0.4518  1.4151
  988MOL0    Cl30328   1.404   1.777   6.050 -0.0176  0.0193  0.2654
  988MOL0     C30329   1.238   2.827   6.469  0.1516 -0.1963  0.7696
  988MOL0     C30330   1.162   2.935   6.515  0.1421 -0.4408 -1.3561
  988MOL0     O30331   1.212   3.260   6.621  0.0289  0.9097  0.4335
  988MOL0     C30332   0.891   3.260   6.765  0.5451  0.5261 -0.9178
  988MOL0     C30333   0.773   3.333   6.811 -0.6517 -0.1856 -1.0508
  988MOL0     N30334   0.631   3.927   7.418 -0.3484 -0.0754 -0.6774
  988MOL0     N30335   0.597   4.049   7.408 -0.0852 -0.8648 -0.8033
  988MOL0     C30336   0.771   4.390   7.922  0.2595 -0.0512 -1.0463
  988MOL0     C30337   0.911   4.362   7.950  0.3062 -1.1135  0.3624
  988MOL0     C30338   1.323   4.415   8.108  0.0962 -0.9845 -0.4913
  988MOL0     C30339   1.417   4.497   8.043  0.2629 -0.1101 -1.1304
  988MOL0     C30340   1.549   4.492   8.089  0.2537 -0.0080  1.0455
  988MOL0     C30341   1.599   4.421   8.196  0.6354 -0.2429 -0.1412
  988MOL0     O30342   1.731   4.425   8.231  0.1973  0.2080 -0.3729
  988MOL0     C30343   1.830   4.436   8.131 -0.9111 -0.4852  1.1689
  988MOL0     C30344   1.824   4.338   8.013 -1.5438 -0.3537 -0.5583
  988MOL0     C30345   1.788   4.188   8.040 -0.4415 -0.0461  0.9827
  988MOL0     C30346   1.851   4.124   8.156 -0.2097 -0.7205  0.6781
  988MOL0     C30347   1.816   3.982   8.183 -1.1350 -0.6971  0.2656
  988MOL0     C30348   1.786   3.870   8.211 -0.3415  0.5216 -0.6768
  988MOL0     C30349   1.499   4.362   8.278  0.2481 -1.0646 -0.1818
  988MOL0     C30350   1.365   4.357   8.234 -0.4761 -0.3557  0.9089
  988MOL0     H30351   0.902   4.456   8.277 -3.1672  0.5694  1.3317
  988MOL0     H30352   0.663   4.455   8.227  0.8225 -0.5352  1.8331
  988MOL0     H30353   0.551   4.529   7.800  0.0358  2.3323  1.1333
  988MOL0     H30354   0.394   4.523   7.879 -1.1588 -1.8603  3.6580
  988MOL0     H30355   0.382   4.299   7.894  0.9358 -2.5762  0.3948
  988MOL0     H30356   0.548   4.267   7.838  2.1081  1.9364 -0.3301
  988MOL0     H30357   0.487   4.325   7.593  0.4863 -2.6619 -0.8778
  988MOL0     H30358   0.337   4.388   7.653  0.3523  0.9665  0.8977
  988MOL0     H30359   0.460   4.112   7.648  1.4749  3.0016 -1.6219
  988MOL0     H30360   0.324   4.140   7.753 -1.1268  1.4203 -0.8378
  988MOL0     H30361   0.169   4.109   7.575 -0.2790  0.1406 -0.0583
  988MOL0     H30362   0.308   4.033   7.503  0.5882  0.1676  0.2541
  988MOL0     H30363   0.226   4.322   7.436  4.2815  1.3431 -1.0824
  988MOL0     H30364   0.209   4.163   7.337 -1.6034  2.4623 -2.0302
  988MOL0     H30365   0.346   4.335   7.270  1.3601 -0.8955 -2.3646
  988MOL0     H30366   0.465   4.314   7.398 -0.0770 -1.0257 -0.9169
  988MOL0     H30367   0.525   4.211   7.189 -0.2118  1.7205 -0.1657
  988MOL0     H30368   0.371   4.133   7.169  0.0719  1.5488  0.2866
  988MOL0     H30369   0.413   3.890   7.187 -2.3394 -0.4352  2.0328
  988MOL0     H30370   0.468   3.665   7.253 -0.1756  3.4937 -1.5293
  988MOL0     H30371   0.559   3.631   7.406  4.1012  0.7573 -0.3211
  988MOL0     H30372   0.670   3.547   7.193  0.5863  0.2597  0.2160
  988MOL0     H30373   0.769   3.669   7.265 -0.0961 -3.3727  2.8178
  988MOL0     H30374   0.554   3.735   7.051 -1.0147  0.4305  1.3144
  988MOL0     H30375   0.674   3.846   7.092  0.0137  0.5354 -0.6498
  988MOL0     H30376   0.849   3.679   7.014  0.2820 -0.9683  0.9224
  988MOL0     H30377   0.738   3.744   6.879  0.7979 -0.5449 -0.1180
  988MOL0     H30378   0.957   3.624   6.814  0.5358  0.3003  2.7723
  988MOL0     H30379   1.135   3.485   6.747  0.1873  0.2490  0.7341
  988MOL0     H30380   1.320   2.973   6.819  2.6507  1.7608 -0.3637
  988MOL0     H30381   1.457   2.797   6.715 -1.5279  1.5694  3.4078
  988MOL0     H30382   1.443   2.667   6.292 -1.2796  0.4084  0.2423
  988MOL0     H30383   1.312   2.592   6.379  2.7779 -6.8822 -0.6411
  988MOL0     H30384   1.501   2.440   6.506  3.8378  1.7135  1.3260
  988MOL0     H30385   1.604   2.525   6.393 -0.8065 -0.0474 -2.0823
  988MOL0     H30386   1.567   2.318   6.317 -0.4067 -2.3215 -3.2855
  988MOL0     H30387   1.505   2.419   6.198 -0.0262 -1.9945 -0.6971
  988MOL0     H30388   1.327   2.264   6.411 -0.8715 -2.9579 -1.8764
  988MOL0     H30389   1.264   2.396   6.313  0.7018 -0.0229 -1.6069
  988MOL0     H30390   1.253   2.259   6.116 -0.6543 -0.2710 -0.3532
  988MOL0     H30391   1.208   2.154   6.253  2.0702 -1.8492 -0.2769
  988MOL0     H30392   1.395   2.034   6.248 -2.5686  2.2311  3.4640
  988MOL0     H30393   1.491   2.153   6.155 -0.2134  1.1583  1.9265
  988MOL0     H30394   1.243   1.998   6.036 -0.8983  0.3520  1.5055
  988MOL0     H30395   1.342   2.130   5.971  0.5858 -0.0642  0.4684
  988MOL0     H30396   1.541   1.965   6.016 -0.3714  1.5807  1.4508
  988MOL0     H30397   1.431   1.928   5.886 -0.6311 -1.1729  1.5865
  988MOL0     H30398   1.205   2.781   6.377 -0.2653  1.2477  0.1644
  988MOL0     H30399   1.066   2.952   6.466 -2.0128 -0.5745  2.4434
  988MOL0     H30400   0.877   3.153   6.754  1.0054  0.5907 -2.4635
  988MOL0     H30401   0.681   3.282   6.838 -0.1512 -0.5227  0.1108
  988MOL0     H30402   0.737   4.383   7.819 -0.3145 -0.2420 -0.8506
  988MOL0     H30403   0.978   4.322   7.875 -1.9193 -1.7179 -1.4093
  988MOL0     H30404   1.406   4.564   7.959  1.0324  0.2650 -0.9411
  988MOL0     H30405   1.620   4.550   8.030 -1.9460 -0.6582 -2.5364
  988MOL0     H30406   1.925   4.410   8.179  0.1819 -1.9539 -1.5640
  988MOL0     H30407   1.837   4.541   8.102 -0.9894 -0.9907 -0.7789
  988MOL0     H30408   1.755   4.384   7.942  0.6332  2.1040 -1.2561
  988MOL0     H30409   1.923   4.339   7.966 -1.0380  0.3238  0.4810
  988MOL0     H30410   1.813   4.143   7.944  0.3839  4.6589 -1.2855
  988MOL0     H30411   1.680   4.178   8.056 -0.0443 -3.7740  2.2822
  988MOL0     H30412   1.959   4.129   8.137 -0.5284  0.5161 -1.0093
  988MOL0     H30413   1.826   4.186   8.243  0.3797 -3.3475  2.8485
  988MOL0     H30414   1.774   3.775   8.259  0.7011 -0.9011 -3.0236
  988MOL0     H30415   1.517   4.295   8.362  0.1401 -1.5547 -0.5410
  988MOL0     H30416   1.288   4.316   8.299 -0.6783  1.1596  1.6703
  989MOL0     O30417   5.604   7.970   9.475  0.9276  0.3345  0.4046
  989MOL0     C30418   5.682   7.874   9.499  0.3861 -0.6455 -0.0524
  989MOL0     O30419   5.776   7.883   9.590  0.0188 -0.5926  0.2358
  989MOL0     C30420   5.813   7.997   9.657 -0.6184  0.6256 -0.1367
  989MOL0     C30421   5.850   7.986   9.798  0.5132 -1.3336  0.1288
  989MOL0     C30422   5.898   8.096   9.878  1.4940 -0.2659 -0.2661
  989MOL0     C30423   5.926   8.212   9.808  0.6556  0.2528  0.1864
  989MOL0     O30424   5.954   8.334   9.875  0.1714  0.7599  0.2293
  989MOL0     C30425   6.063   8.317   9.969  0.6953 -0.5092  0.1629
  989MOL0     C30426   6.016   8.301  10.117  0.0258  0.8821 -0.1526
  989MOL0     C30427   6.134   8.269  10.218  0.0349  0.6358 -0.3993
  989MOL0     C30428   6.081   8.313  10.356 -0.0186 -0.0643  0.2705
  989MOL0     C30429   6.177   8.270  10.464  0.3524  0.6916 -0.6172
  989MOL0     C30430   6.109   8.300  10.601 -0.0813  1.1735  0.2978
  989MOL0     C30431   6.196   8.397  10.678  0.2909 -0.8528 -0.0363
  989MOL0     C30432   6.121   8.441  10.805  0.8415 -0.0390  0.1208
  989MOL0     N30433   6.124   8.335  10.908  0.2393 -0.6374  0.5559
  989MOL0     C30434   6.026   8.294  10.994  0.6219  0.3742  0.3914
  989MOL0     C30435   6.083   8.198  11.062 -0.1146 -0.1702  0.6190
  989MOL0     C30436   6.003   8.112  11.149  0.1411 -1.0947 -0.8210
  989MOL0     C30437   5.966   7.981  11.069 -0.5387 -0.0345  0.4628
  989MOL0     C30438   6.091   7.916  10.987 -1.1220 -0.1427  0.1563
  989MOL0     C30439   6.039   7.779  10.927  0.0151  0.5145 -0.1739
  989MOL0     O30440   6.017   7.673  11.029  0.0134 -0.3029 -0.0723
  989MOL0     C30441   6.112   7.589  11.079 -0.1372  0.1796  0.7271
  989MOL0     C30442   6.241   7.598  11.045 -0.7263 -0.2100  0.3047
  989MOL0     C30443   6.344   7.507  11.084  0.1198  0.2296 -0.4243
  989MOL0     C30444   6.300   7.401  11.165  0.3121  0.0853  0.9463
  989MOL0     C30445   6.406   7.306  11.214 -0.6937 -0.3640 -0.8338
  989MOL0     O30446   6.534   7.325  11.160 -0.3974 -0.2640  0.6872
  989MOL0     C30447   6.639   7.238  11.174  0.3361  0.3258  0.5278
  989MOL0     C30448   6.639   7.125  11.257  0.1644  0.2830 -1.0547
  989MOL0     C30449   6.743   7.031  11.254  0.3178 -0.7165  0.7276
  989MOL0     C30450   6.844   7.039  11.156 -0.4525 -0.3408  0.3460
  989MOL0     O30451   6.947   6.947  11.138 -0.4095  0.2834  0.0487
  989MOL0     C30452   6.911   6.807  11.153  0.2846 -0.3280  0.1613
  989MOL0     C30453   7.034   6.715  11.128 -0.0955 -1.0291  0.5605
  989MOL0     C30454   7.049   6.590  11.218  0.1110 -0.5050 -0.1653
  989MOL0     C30455   7.164   6.498  11.181 -1.0586 -0.0962 -0.4649
  989MOL0     C30456   7.158   6.370  11.262  0.1273 -0.8196 -0.1435
  989MOL0     C30457   7.264   6.279  11.218 -1.5324 -0.0328 -0.5721
  989MOL0     C30458   7.277   6.174  11.321 -0.1574  0.4274 -0.5537
  989MOL0     C30459   7.312   6.217  11.464 -0.5565  0.0031 -0.3707
  989MOL0    Cl30460   7.430   6.345  11.452  0.0586 -0.4092  0.2089
  989MOL0     C30461   6.840   7.156  11.073 -0.8773 -0.6452  0.3372
  989MOL0     C30462   6.750   7.261  11.088  0.0998  0.2092 -0.6524
  989MOL0     O30463   6.378   7.239  11.321  0.3571 -0.5206  0.9650
  989MOL0     C30464   6.156   7.381  11.206 -0.0987  0.4773  0.7870
  989MOL0     C30465   6.069   7.480  11.157 -0.4112 -0.4653 -0.1766
  989MOL0     N30466   6.218   8.195  11.042 -0.4594 -0.5931 -0.1372
  989MOL0     N30467   6.242   8.284  10.956 -0.4052  0.5722  0.7801
  989MOL0     C30468   5.909   8.221   9.666  0.7371  0.3864 -1.1218
  989MOL0     C30469   5.848   8.117   9.594  0.1115  0.0799  0.5717
  989MOL0     C30470   5.659   7.740   9.432  0.0876  0.6718  1.0163
  989MOL0     C30471   5.569   7.725   9.317  0.0859  0.7438  0.3936
  989MOL0     C30472   5.559   7.600   9.258 -0.1742  0.6953  0.1298
  989MOL0     C30473   5.638   7.496   9.300 -0.5974  0.1758 -0.8905
  989MOL0     O30474   5.606   7.370   9.249  0.0517 -0.1260 -0.1030
  989MOL0     C30475   5.726   7.291   9.224 -0.6947 -0.1803 -0.2961
  989MOL0     C30476   5.726   7.248   9.072 -0.6656 -1.2722  0.4997
  989MOL0     C30477   5.851   7.190   9.010  0.5936 -0.0003  0.7169
  989MOL0     C30478   5.822   7.114   8.874 -0.6287  0.0903  0.0385
  989MOL0     C30479   5.943   7.047   8.839 -0.1443 -0.6750 -0.0135
  989MOL0     C30480   6.050   6.990   8.805  0.2934 -0.3412  0.2284
  989MOL0     C30481   5.720   7.508   9.412 -0.7958  0.5126 -0.5701
  989MOL0     C30482   5.736   7.629   9.473 -0.1318 -0.1930  0.4077
  989MOL0     H30483   5.841   7.883   9.833 -0.1835 -0.4235  2.8423
  989MOL0     H30484   5.922   8.091   9.984 -0.7576  1.2391  0.3814
  989MOL0     H30485   6.123   8.409   9.965 -1.9942  1.3286 -2.0404
  989MOL0     H30486   6.134   8.238   9.941  0.9740  0.3651 -1.7401
  989MOL0     H30487   5.939   8.225  10.129 -0.3222  1.0851 -1.0225
  989MOL0     H30488   5.966   8.397  10.135  2.0122  2.4139 -2.2013
  989MOL0     H30489   6.214   8.339  10.192 -0.5262  0.5288 -2.6275
  989MOL0     H30490   6.151   8.161  10.222 -4.4642 -0.2358  2.5104
  989MOL0     H30491   6.074   8.422  10.366 -1.4232 -0.2665  2.0474
  989MOL0     H30492   5.977   8.280  10.364 -0.1160  0.0804 -0.3413
  989MOL0     H30493   6.270   8.326  10.450 -0.8908  2.2431 -3.5467
  989MOL0     H30494   6.199   8.163  10.467 -1.2788  0.3574  0.9642
  989MOL0     H30495   6.103   8.207  10.659  0.3279  1.1929  0.3681
  989MOL0     H30496   6.007   8.336  10.587 -0.1372  0.6315 -0.8091
  989MOL0     H30497   6.293   8.352  10.701  0.5881 -0.0607  0.2915
  989MOL0     H30498   6.203   8.489  10.620 -2.4740  1.2169  2.6027
  989MOL0     H30499   6.020   8.467  10.772  0.6360 -2.1402 -1.0791
  989MOL0     H30500   6.169   8.531  10.844  0.1341  1.1200 -1.5495
  989MOL0     H30501   5.918   8.308  10.995  0.2865 -1.6408 -1.0132
  989MOL0     H30502   5.920   8.160  11.201  1.2977 -0.7328  0.8108
  989MOL0     H30503   6.049   8.079  11.243 -1.0040 -0.6757 -0.0883
  989MOL0     H30504   5.878   8.004  11.009 -1.2867 -1.4002  1.0002
  989MOL0     H30505   5.935   7.899  11.135  0.4719  0.9810  2.2884
  989MOL0     H30506   6.121   7.981  10.904 -2.4812  0.0068 -0.2369
  989MOL0     H30507   6.176   7.905  11.055 -1.1314 -1.1791  0.0206
  989MOL0     H30508   6.118   7.758  10.854  1.5076  2.5139  0.7490
  989MOL0     H30509   5.944   7.789  10.873  0.1164  0.8293 -0.2993
  989MOL0     H30510   6.270   7.683  10.983 -0.7625  0.4667  1.1907
  989MOL0     H30511   6.449   7.521  11.059  0.5320  2.1826  2.0306
  989MOL0     H30512   6.565   7.100  11.333  0.0060  0.7017 -1.0628
  989MOL0     H30513   6.739   6.947  11.323 -0.1871  0.3837  2.0879
  989MOL0     H30514   6.817   6.773  11.108 -1.1559  0.3039  2.5059
  989MOL0     H30515   6.890   6.790  11.259 -0.6593  1.6334  0.3382
  989MOL0     H30516   7.123   6.776  11.147  0.1396 -0.6390 -1.5885
  989MOL0     H30517   7.037   6.696  11.021 -1.7738  5.1311 -0.9976
  989MOL0     H30518   6.954   6.537  11.223  0.6204 -1.3368  1.4499
  989MOL0     H30519   7.063   6.630  11.319  1.4137 -1.2912 -0.0076
  989MOL0     H30520   7.159   6.484  11.073  1.0286  5.1956 -1.5701
  989MOL0     H30521   7.258   6.549  11.206 -0.8574 -0.8154  0.3185
  989MOL0     H30522   7.068   6.310  11.248 -0.2653  0.3210 -3.2996
  989MOL0     H30523   7.163   6.388  11.370  0.4192  0.6511 -0.3830
  989MOL0     H30524   7.363   6.326  11.208 -2.0114  0.8614 -1.2063
  989MOL0     H30525   7.226   6.235  11.125 -0.7584 -0.4844 -0.6879
  989MOL0     H30526   7.183   6.118  11.317 -0.9071  1.0178  4.0241
  989MOL0     H30527   7.364   6.112  11.296  0.3716  0.1518  1.8174
  989MOL0     H30528   7.358   6.133  11.517  1.7105  2.3330  1.7030
  989MOL0     H30529   7.222   6.247  11.519  1.0958 -0.5666  2.8940
  989MOL0     H30530   6.912   7.155  10.991 -1.1184  2.5987 -0.0635
  989MOL0     H30531   6.759   7.350  11.027 -0.3347  0.2130 -0.7116
  989MOL0     H30532   6.125   7.291  11.259 -1.1867  1.3939  1.7327
  989MOL0     H30533   5.962   7.466  11.161 -1.3167  4.3097 -1.6418
  989MOL0     H30534   5.936   8.319   9.628 -1.0989  2.5530  2.5962
  989MOL0     H30535   5.831   8.135   9.489 -0.0165 -2.2819  0.1333
  989MOL0     H30536   5.513   7.808   9.274  0.8229  1.1573  0.2130
  989MOL0     H30537   5.504   7.578   9.168  0.6183 -0.6433 -0.0480
  989MOL0     H30538   5.743   7.202   9.286  2.1640 -0.5183 -1.4081
  989MOL0     H30539   5.819   7.345   9.245 -1.1807  1.6639 -2.4348
  989MOL0     H30540   5.646   7.178   9.046 -1.7695 -1.0103  2.9629
  989MOL0     H30541   5.714   7.338   9.011  0.6035 -2.5466 -1.7942
  989MOL0     H30542   5.873   7.111   9.082 -1.0477 -1.2969 -0.1330
  989MOL0     H30543   5.930   7.265   9.014  1.1797 -0.4896 -0.7226
  989MOL0     H30544   5.734   7.048   8.879 -1.3401  0.8524 -1.6895
  989MOL0     H30545   5.793   7.183   8.795 -0.9370 -1.9617 -1.7409
  989MOL0     H30546   6.134   6.931   8.774  1.7177  0.6403  2.0665
  989MOL0     H30547   5.779   7.430   9.460  0.8944  0.9654 -1.8004
  989MOL0     H30548   5.801   7.638   9.560 -0.2970  1.9715  0.3614
  990MOL0     O30549   3.017   0.481   3.824 -0.3860 -0.5588  0.3755
  990MOL0     C30550   2.965   0.588   3.859 -0.7287 -0.8604 -0.1421
  990MOL0     O30551   3.000   0.707   3.813  0.0627  0.0080 -0.1454
  990MOL0     C30552   3.106   0.720   3.735  0.6726 -0.9380 -0.5745
  990MOL0     C30553   3.237   0.691   3.774 -0.6328  0.1785 -0.2130
  990MOL0     C30554   3.355   0.696   3.700 -0.3945 -1.1827  0.4481
  990MOL0     C30555   3.341   0.753   3.573 -0.3432 -0.3451  0.9652
  990MOL0     O30556   3.452   0.765   3.499  0.0222  0.2382  0.2221
  990MOL0     C30557   3.451   0.836   3.366  0.5693 -0.0544 -0.1662
  990MOL0     C30558   3.428   0.744   3.256  0.0360 -0.2623 -1.3691
  990MOL0     C30559   3.514   0.622   3.235  0.0954  0.9719 -0.2370
  990MOL0     C30560   3.667   0.646   3.222  0.5597  1.1174 -0.7105
  990MOL0     C30561   3.695   0.754   3.116 -0.3960 -0.6167 -0.4067
  990MOL0     C30562   3.841   0.777   3.079  0.0790  0.2630  0.2134
  990MOL0     C30563   3.935   0.773   3.203  0.3371 -0.9136 -0.0426
  990MOL0     C30564   3.929   0.914   3.272  0.5265 -0.0405 -0.3553
  990MOL0     N30565   4.029   0.915   3.378 -0.3720  0.2763  0.3167
  990MOL0     C30566   4.035   0.826   3.481  0.0928 -0.2116  1.3259
  990MOL0     C30567   4.147   0.864   3.538 -0.0561  0.0597 -0.4554
  990MOL0     C30568   4.184   0.803   3.667  0.0788  0.0591  1.0655
  990MOL0     C30569   4.316   0.722   3.648  0.1997 -1.2980 -0.8820
  990MOL0     C30570   4.438   0.824   3.630 -0.0725 -0.1098  0.8976
  990MOL0     C30571   4.568   0.742   3.650  0.1410  0.4099  1.5112
  990MOL0     O30572   4.627   0.711   3.520 -1.0863 -0.7187  0.1881
  990MOL0     C30573   4.710   0.813   3.463  0.2555  1.1766 -0.4095
  990MOL0     C30574   4.703   0.948   3.503 -0.6468 -0.3077 -0.3278
  990MOL0     C30575   4.803   1.038   3.450 -0.3584 -0.3863  0.1246
  990MOL0     C30576   4.919   0.986   3.380 -0.2637  0.2437 -0.6192
  990MOL0     C30577   5.026   1.077   3.324  0.7705 -1.0918 -0.5360
  990MOL0     O30578   5.008   1.217   3.328 -0.8735  0.1519 -0.5991
  990MOL0     C30579   5.104   1.290   3.270 -0.9846  0.7699 -1.1630
  990MOL0     C30580   5.168   1.390   3.344 -0.1979 -0.2328 -0.2513
  990MOL0     C30581   5.266   1.478   3.282  0.2801 -0.6617 -0.6910
  990MOL0     C30582   5.291   1.472   3.140 -0.4938 -0.8047 -0.7686
  990MOL0     O30583   5.395   1.551   3.105  0.6217 -0.6535 -1.0072
  990MOL0     C30584   5.453   1.519   2.984  0.4807  0.1219 -0.0206
  990MOL0     C30585   5.552   1.627   2.955  0.4625 -0.4454  0.4682
  990MOL0     C30586   5.662   1.641   3.059 -0.4810  1.2365  0.4366
  990MOL0     C30587   5.745   1.763   3.032 -0.4033 -0.6916  0.2340
  990MOL0     C30588   5.854   1.724   2.934 -0.2157 -0.2680  0.2646
  990MOL0     C30589   5.947   1.834   2.909 -1.0726 -0.6556  0.3652
  990MOL0     C30590   6.054   1.801   2.797  0.0982 -0.0385  0.2840
  990MOL0     C30591   6.134   1.678   2.834 -0.0300 -0.3862  0.0604
  990MOL0    Cl30592   6.231   1.727   2.969  0.1374  0.1624 -0.0158
  990MOL0     C30593   5.230   1.368   3.070  0.2085  0.9013 -1.1312
  990MOL0     C30594   5.139   1.277   3.135 -0.9930 -1.0778 -0.0880
  990MOL0     O30595   5.116   1.018   3.271 -0.1162 -0.3835  1.0352
  990MOL0     C30596   4.921   0.849   3.345  0.6578 -0.3767  0.1703
  990MOL0     C30597   4.819   0.763   3.393 -0.2308  1.0269  0.6901
  990MOL0     N30598   4.201   0.982   3.487  0.6088 -0.3468  0.1290
  990MOL0     N30599   4.123   1.008   3.383  0.4763 -0.6663 -0.0942
  990MOL0     C30600   3.221   0.808   3.538  0.2584 -0.2777  0.8560
  990MOL0     C30601   3.105   0.780   3.612  0.8067 -1.1266 -0.3714
  990MOL0     C30602   2.837   0.571   3.927  1.0801  0.5894  0.2414
  990MOL0     C30603   2.815   0.462   4.007 -0.2213 -0.9206  0.0597
  990MOL0     C30604   2.693   0.451   4.076  0.6408 -0.2084 -0.1362
  990MOL0     C30605   2.589   0.545   4.062 -0.5866  0.2535 -1.0804
  990MOL0     O30606   2.478   0.524   4.143  0.2246 -0.1721  0.6979
  990MOL0     C30607   2.361   0.599   4.119 -0.0922  1.0086 -1.0247
  990MOL0     C30608   2.254   0.548   4.221 -0.1219  0.3155  0.2533
  990MOL0     C30609   2.210   0.400   4.196 -0.4903 -0.1368 -0.7855
  990MOL0     C30610   2.093   0.373   4.284  0.1789 -0.5826  0.5653
  990MOL0     C30611   2.042   0.236   4.251  0.4953  0.7769 -0.2919
  990MOL0     C30612   2.003   0.128   4.218 -0.7396 -0.7308 -0.0968
  990MOL0     C30613   2.603   0.647   3.967 -0.9701 -0.1325  0.2466
  990MOL0     C30614   2.731   0.663   3.907 -1.0714 -0.1663  0.0387
  990MOL0     H30615   3.240   0.647   3.873  1.5010 -2.0497 -1.1711
  990MOL0     H30616   3.453   0.661   3.728  1.5112 -1.9540 -5.6705
  990MOL0     H30617   3.545   0.891   3.354 -0.3969  1.1789 -2.9122
  990MOL0     H30618   3.378   0.917   3.357  1.1753  0.2855 -6.3846
  990MOL0     H30619   3.425   0.801   3.162 -2.8088  0.3886 -0.9783
  990MOL0     H30620   3.330   0.699   3.275  0.2256  0.0357  0.4209
  990MOL0     H30621   3.482   0.565   3.147  2.2548 -1.5824  0.4940
  990MOL0     H30622   3.506   0.555   3.321  4.2541 -0.9432 -1.1099
  990MOL0     H30623   3.696   0.684   3.320 -1.1842 -0.0489  0.3320
  990MOL0     H30624   3.714   0.550   3.200  0.2744  1.1911 -1.6845
  990MOL0     H30625   3.645   0.849   3.137 -2.9334 -1.8417 -0.4408
  990MOL0     H30626   3.645   0.725   3.023  1.1831 -1.5837 -0.9804
  990MOL0     H30627   3.837   0.859   3.006 -5.9518  0.0524 -0.2641
  990MOL0     H30628   3.886   0.699   3.017  2.3096  2.9185 -1.7406
  990MOL0     H30629   3.911   0.694   3.276 -3.7415 -0.5362 -0.7346
  990MOL0     H30630   4.038   0.760   3.169  0.7044  1.4834  0.0121
  990MOL0     H30631   3.829   0.929   3.314  1.1137 -1.3444  1.6390
  990MOL0     H30632   3.950   0.996   3.202 -1.3637  0.6179 -0.1960
  990MOL0     H30633   3.967   0.743   3.495  0.2933 -0.3542  1.4452
  990MOL0     H30634   4.112   0.732   3.710 -2.3088  0.6560 -1.6252
  990MOL0     H30635   4.194   0.888   3.734  5.9197  2.7671 -2.4786
  990MOL0     H30636   4.305   0.670   3.553  1.7715  0.6233 -2.1865
  990MOL0     H30637   4.320   0.655   3.735 -0.2529 -0.7505 -0.4262
  990MOL0     H30638   4.415   0.870   3.534 -0.5406  0.7969  1.4374
  990MOL0     H30639   4.450   0.914   3.691  0.0603  0.4244  0.0873
  990MOL0     H30640   4.547   0.643   3.692 -0.3175 -0.7202 -1.1947
  990MOL0     H30641   4.629   0.802   3.720  0.6001  0.8798  0.7227
  990MOL0     H30642   4.622   0.992   3.561 -1.6806 -1.6949 -0.6681
  990MOL0     H30643   4.804   1.140   3.488  2.3391 -0.4292  0.3858
  990MOL0     H30644   5.147   1.391   3.451  2.6966  0.3699  0.3709
  990MOL0     H30645   5.325   1.546   3.342  0.5420  0.3018 -1.9882
  990MOL0     H30646   5.385   1.503   2.900  2.1185  0.0872 -1.4025
  990MOL0     H30647   5.511   1.427   2.994 -1.4121 -1.6151 -3.2721
  990MOL0     H30648   5.494   1.719   2.951 -4.6186 -3.2745 -0.9792
  990MOL0     H30649   5.591   1.619   2.853 -1.8899 -1.7767 -0.4252
  990MOL0     H30650   5.728   1.553   3.066 -0.6583  1.0132 -0.5681
  990MOL0     H30651   5.617   1.645   3.158 -0.0848 -0.5685  0.7285
  990MOL0     H30652   5.696   1.845   2.979  0.9186  0.1399  0.2448
  990MOL0     H30653   5.778   1.798   3.130  0.1552 -0.6203  0.0253
  990MOL0     H30654   5.800   1.704   2.841  2.1540  0.9590 -1.4711
  990MOL0     H30655   5.914   1.639   2.970 -0.5311  0.1985  1.9648
  990MOL0     H30656   5.994   1.861   3.004 -0.6740 -0.8818  0.2361
  990MOL0     H30657   5.897   1.925   2.874  1.1220  0.4062 -0.2493
  990MOL0     H30658   6.000   1.794   2.702 -0.4760 -0.9303  0.6534
  990MOL0     H30659   6.126   1.880   2.780 -0.4825  0.1013 -1.7127
  990MOL0     H30660   6.205   1.645   2.758 -0.2334 -1.6503  0.3915
  990MOL0     H30661   6.073   1.594   2.868 -0.7133  0.6138  1.4446
  990MOL0     H30662   5.258   1.358   2.965  1.5993  1.0861 -0.7942
  990MOL0     H30663   5.101   1.188   3.085 -2.4978 -0.1031 -0.7746
  990MOL0     H30664   5.009   0.802   3.302 -0.0783 -0.6727 -1.0602
  990MOL0     H30665   4.834   0.656   3.386 -0.0159  1.0558  0.7151
  990MOL0     H30666   3.198   0.862   3.446  0.7673  1.5937  1.7776
  990MOL0     H30667   3.011   0.813   3.570  0.8400 -0.0840  0.3484
  990MOL0     H30668   2.891   0.386   4.026 -0.9655 -1.3051  1.6482
  990MOL0     H30669   2.682   0.362   4.137  0.5585 -1.2698 -1.6327
  990MOL0     H30670   2.324   0.574   4.019 -2.9444  2.0604 -0.3298
  990MOL0     H30671   2.375   0.707   4.128 -1.3163  1.1595 -0.6729
  990MOL0     H30672   2.304   0.551   4.318  0.9262 -3.7638  0.0284
  990MOL0     H30673   2.157   0.599   4.215  0.3843  1.1631 -1.8128
  990MOL0     H30674   2.285   0.321   4.211 -0.2110 -0.7829 -4.5389
  990MOL0     H30675   2.182   0.386   4.091 -1.2807 -0.7875 -0.5051
  990MOL0     H30676   2.112   0.372   4.391 -0.0283 -2.0514  0.6076
  990MOL0     H30677   2.010   0.440   4.260 -0.1604 -1.1519  0.1222
  990MOL0     H30678   1.980   0.033   4.175 -1.1945 -1.5072  1.7517
  990MOL0     H30679   2.536   0.732   3.957 -2.1998 -0.8926  1.6534
  990MOL0     H30680   2.742   0.748   3.840 -0.4867 -0.2031  0.0882
  991MOL0     O30681   1.264  10.776   2.753 -0.2333  0.0892 -0.2070
  991MOL0     C30682   1.239  10.888   2.786  0.3614 -0.6891  1.2898
  991MOL0     O30683   1.331  10.992   2.792 -0.6111  0.2671  0.5517
  991MOL0     C30684   1.445  10.957   2.735 -1.3844 -0.5149 -0.3473
  991MOL0     C30685   1.535  10.856   2.788  0.7750 -0.3245  0.1753
  991MOL0     C30686   1.643  10.809   2.711 -0.8797 -0.0699  0.3765
  991MOL0     C30687   1.680  10.865   2.586 -0.5684 -0.9896  0.4300
  991MOL0     O30688   1.791  10.834   2.516  0.4910  0.0598 -0.0208
  991MOL0     C30689   1.862  10.715   2.547 -0.1356  0.3118 -0.6043
  991MOL0     C30690   1.981  10.713   2.454 -1.0414 -0.3644  0.5185
  991MOL0     C30691   2.074  10.597   2.473  0.4008  1.0581  0.1025
  991MOL0     C30692   2.205  10.633   2.540  0.5952  0.1039  0.2377
  991MOL0     C30693   2.300  10.508   2.537 -0.6388  0.3707 -0.5454
  991MOL0     C30694   2.436  10.552   2.592 -0.1572  0.1442 -0.2279
  991MOL0     C30695   2.552  10.451   2.579 -0.2841  0.1389 -0.0933
  991MOL0     C30696   2.611  10.443   2.438  0.3461 -0.1344  0.2480
  991MOL0     N30697   2.743  10.372   2.438  0.8903 -0.3612  0.0133
  991MOL0     C30698   2.781  10.289   2.334 -0.0677 -0.2703 -0.0667
  991MOL0     C30699   2.912  10.272   2.362 -0.5623  0.3597  0.3940
  991MOL0     C30700   3.018  10.186   2.307  0.3540 -0.1560  0.2164
  991MOL0     C30701   3.163  10.259   2.273 -0.0180 -0.4267  0.4699
  991MOL0     C30702   3.266  10.163   2.215  0.6625  0.7092  0.4500
  991MOL0     C30703   3.413  10.212   2.236  0.3341 -0.1829 -0.1165
  991MOL0     O30704   3.501  10.153   2.135 -0.2914  0.1850  0.1345
  991MOL0     C30705   3.634  10.158   2.159 -0.2606 -0.5566  1.2302
  991MOL0     C30706   3.695  10.233   2.265  0.1794 -0.1164  0.2425
  991MOL0     C30707   3.839  10.247   2.284  0.2147 -0.0154  0.1334
  991MOL0     C30708   3.916  10.161   2.202  0.1990  0.5017 -0.0729
  991MOL0     C30709   4.067  10.170   2.214  0.8246 -0.2036 -0.1847
  991MOL0     O30710   4.117  10.227   2.328 -0.2569 -0.1040  0.3542
  991MOL0     C30711   4.241  10.209   2.379 -0.0460  0.0726 -0.3039
  991MOL0     C30712   4.271  10.238   2.515  0.1046 -0.4918  0.8122
  991MOL0     C30713   4.393  10.217   2.579  0.4650  0.3152  0.0192
  991MOL0     C30714   4.503  10.160   2.512  0.5473 -1.7293  0.4485
  991MOL0     O30715   4.630  10.143   2.566  0.3153 -0.1694 -0.2833
  991MOL0     C30716   4.750  10.127   2.482 -0.0147 -0.3779 -0.7709
  991MOL0     C30717   4.887  10.161   2.547  0.1114 -0.0822 -0.2926
  991MOL0     C30718   4.881  10.311   2.581 -0.5454 -0.1451  0.4659
  991MOL0     C30719   5.023  10.363   2.591 -1.2406  0.6590 -0.1862
  991MOL0     C30720   5.119  10.284   2.677 -0.3405  0.7057 -0.9562
  991MOL0     C30721   5.229  10.372   2.747 -0.2243  0.3280  0.2045
  991MOL0     C30722   5.346  10.279   2.801  0.1113 -0.6731  0.0051
  991MOL0     C30723   5.436  10.342   2.907 -0.6776 -0.2225  0.1225
  991MOL0    Cl30724   5.525  10.493   2.858  0.1267 -0.2546 -0.5187
  991MOL0     C30725   4.471  10.119   2.377  0.1866  0.1208  1.0606
  991MOL0     C30726   4.345  10.142   2.313 -0.2258 -0.8626  0.2151
  991MOL0     O30727   4.132  10.131   2.119 -0.2400 -0.3139  0.3224
  991MOL0     C30728   3.853  10.082   2.091  0.1444 -0.7590  1.3681
  991MOL0     C30729   3.720  10.084   2.079 -0.3451 -0.2776  0.0424
  991MOL0     N30730   2.943  10.347   2.472  0.0475  0.3514 -0.2134
  991MOL0     N30731   2.841  10.405   2.518  0.5415  0.6842 -0.6392
  991MOL0     C30732   1.598  10.976   2.552 -0.4592  0.7590 -0.0605
  991MOL0     C30733   1.484  11.016   2.618 -0.0911  0.6174  0.4596
  991MOL0     C30734   1.099  10.918   2.831  0.0333  0.2280  0.0931
  991MOL0     C30735   0.983  10.825   2.820  0.9381  0.2246 -0.4466
  991MOL0     C30736   0.855  10.873   2.850 -0.1823  0.2021  0.4971
  991MOL0     C30737   0.828  10.993   2.900 -0.6398  0.6245  0.5371
  991MOL0     O30738   0.703  11.025   2.916  0.5886  0.1379 -0.1093
  991MOL0     C30739   0.664  11.122   3.016  0.4078  0.9898 -0.1323
  991MOL0     C30740   0.514  11.130   3.036 -0.0910  1.0667  1.2526
  991MOL0     C30741   0.487  11.226   3.154  0.6746  0.5946 -0.4467
  991MOL0     C30742   0.334  11.230   3.179 -0.0469  0.3231 -0.5241
  991MOL0     C30743   0.280  11.097   3.231 -0.2268 -0.5827  0.1474
  991MOL0     C30744   0.256  10.993   3.278  0.5960 -0.0672 -0.7233
  991MOL0     C30745   0.939  11.086   2.908 -1.1830 -0.0654  0.2845
  991MOL0     C30746   1.071  11.042   2.872  0.4148 -0.0380  0.0005
  991MOL0     H30747   1.504  10.814   2.883  4.3418  0.3087  1.7928
  991MOL0     H30748   1.705  10.723   2.736  0.4619  0.8245  0.2760
  991MOL0     H30749   1.798  10.627   2.529 -0.3097 -0.0766  1.6402
  991MOL0     H30750   1.903  10.703   2.647  1.3088 -2.0181 -1.3953
  991MOL0     H30751   2.040  10.805   2.461  0.2205 -1.1165  0.0722
  991MOL0     H30752   1.953  10.707   2.348 -0.1002  3.9581 -0.1891
  991MOL0     H30753   2.109  10.570   2.373  2.2187  0.6791  0.8136
  991MOL0     H30754   2.021  10.514   2.522 -2.0325  0.9510 -2.4313
  991MOL0     H30755   2.246  10.717   2.484 -1.4318  1.4192  0.6547
  991MOL0     H30756   2.200  10.668   2.644  0.2717 -0.9198  0.5866
  991MOL0     H30757   2.311  10.473   2.434  2.4447 -0.1109 -0.1544
  991MOL0     H30758   2.261  10.429   2.602 -0.9243  0.5779 -0.4587
  991MOL0     H30759   2.427  10.573   2.699 -0.0005 -4.7026  0.9943
  991MOL0     H30760   2.473  10.635   2.531  1.4929 -1.1953 -1.1440
  991MOL0     H30761   2.632  10.488   2.644 -1.2825 -0.8081  1.7573
  991MOL0     H30762   2.530  10.349   2.612  1.2871 -0.6107 -1.2330
  991MOL0     H30763   2.622  10.547   2.405  0.0632 -0.1115  0.2279
  991MOL0     H30764   2.550  10.398   2.359  1.3014 -0.2722 -0.4351
  991MOL0     H30765   2.717  10.244   2.260 -1.7950  0.1849  1.0879
  991MOL0     H30766   2.984  10.155   2.208 -0.2673  1.4229 -0.0852
  991MOL0     H30767   3.031  10.099   2.373 -1.6968 -1.3931 -0.9138
  991MOL0     H30768   3.196  10.291   2.373  0.4463 -1.5706  0.7012
  991MOL0     H30769   3.139  10.343   2.208  1.0396  0.1076  0.7472
  991MOL0     H30770   3.261  10.068   2.269 -2.1036  0.4133 -0.1836
  991MOL0     H30771   3.248  10.147   2.108  0.7009  0.1095  0.5286
  991MOL0     H30772   3.451  10.199   2.338  0.6206  3.7878  0.4759
  991MOL0     H30773   3.418  10.316   2.203  2.4711 -1.4051 -4.3275
  991MOL0     H30774   3.637  10.292   2.335  0.8731 -0.8608  1.4631
  991MOL0     H30775   3.873  10.309   2.367 -0.5196  1.2450 -0.4761
  991MOL0     H30776   4.189  10.270   2.578 -2.1533 -0.2972 -2.0050
  991MOL0     H30777   4.417  10.237   2.683 -1.5734 -0.6366  0.7249
  991MOL0     H30778   4.735  10.180   2.387  0.3890  0.5929 -0.3026
  991MOL0     H30779   4.751  10.021   2.456 -2.4174 -0.4259 -0.9523
  991MOL0     H30780   4.971  10.152   2.478 -1.4541 -0.0209 -2.2942
  991MOL0     H30781   4.896  10.099   2.637 -2.8573  0.3138  0.3704
  991MOL0     H30782   4.839  10.337   2.678 -4.8182 -0.9480 -0.9667
  991MOL0     H30783   4.823  10.368   2.508  2.6325  1.7935 -0.7377
  991MOL0     H30784   5.076  10.371   2.495 -0.1808 -0.5713  0.2619
  991MOL0     H30785   5.019  10.462   2.638  0.1380  0.8099 -0.3442
  991MOL0     H30786   5.174  10.216   2.610 -3.1774 -3.0759  0.1913
  991MOL0     H30787   5.061  10.221   2.745  1.7360 -2.5303 -1.9236
  991MOL0     H30788   5.194  10.435   2.829  0.4902 -0.1106  0.8700
  991MOL0     H30789   5.281  10.439   2.678 -2.1470 -1.5743 -3.3496
  991MOL0     H30790   5.295  10.187   2.833 -2.9797 -0.0279 -2.5620
  991MOL0     H30791   5.402  10.265   2.708 -1.9416  1.4877 -1.6761
  991MOL0     H30792   5.505  10.268   2.947  0.7428  0.2496 -1.3504
  991MOL0     H30793   5.367  10.362   2.991  0.0927 -0.3303  0.7892
  991MOL0     H30794   4.538  10.060   2.314  0.7877  1.2448  0.6198
  991MOL0     H30795   4.351  10.124   2.206  1.8959  2.4307 -0.3697
  991MOL0     H30796   3.909  10.041   2.008  0.4340 -1.5888  1.9625
  991MOL0     H30797   3.696  10.025   1.991  1.5949 -0.0010 -0.7113
  991MOL0     H30798   1.604  11.031   2.459  1.1293  0.0798 -0.3859
  991MOL0     H30799   1.426  11.091   2.567  2.7045  0.6208 -3.0955
  991MOL0     H30800   1.004  10.729   2.776 -0.1309  0.3522 -1.2830
  991MOL0     H30801   0.777  10.812   2.806  0.0394  1.7110 -2.2659
  991MOL0     H30802   0.700  11.224   3.000  2.0736  0.4847  0.2067
  991MOL0     H30803   0.702  11.086   3.112 -2.9763  2.6156  2.0293
  991MOL0     H30804   0.474  11.176   2.945 -1.9931  0.4243  1.7044
  991MOL0     H30805   0.472  11.030   3.046  2.2790 -0.0327  0.8578
  991MOL0     H30806   0.538  11.323   3.150  1.9159  0.0250  0.9414
  991MOL0     H30807   0.531  11.176   3.241  0.9249  0.0243 -0.8953
  991MOL0     H30808   0.316  11.310   3.251  0.8175 -0.4075  0.5402
  991MOL0     H30809   0.291  11.265   3.085  0.2699  0.0988 -0.7559
  991MOL0     H30810   0.247  10.895   3.321  1.8798 -0.9359 -2.2997
  991MOL0     H30811   0.917  11.188   2.940 -0.8282 -0.1441  0.8008
  991MOL0     H30812   1.149  11.118   2.870  2.4361 -2.0034 -0.4321
  992MOL0     O30813   0.376   1.295   1.051 -0.0436  0.7295  0.6905
  992MOL0     C30814   0.299   1.361   1.121  0.3044 -0.9459 -1.0457
  992MOL0     O30815   0.290   1.372   1.252  0.2660  0.3840  0.6895
  992MOL0     C30816   0.379   1.290   1.315  0.6093 -0.1844  0.3769
  992MOL0     C30817   0.356   1.149   1.306  0.1983  0.1952 -0.5553
  992MOL0     C30818   0.447   1.059   1.362  1.0564  0.6940 -0.4295
  992MOL0     C30819   0.554   1.104   1.432 -0.1199  0.0067  0.8211
  992MOL0     O30820   0.653   1.015   1.465  0.5802 -0.7251 -0.7086
  992MOL0     C30821   0.654   0.884   1.510  0.7726 -0.1085 -0.9931
  992MOL0     C30822   0.624   0.857   1.652 -0.2359  0.0541  0.5913
  992MOL0     C30823   0.752   0.880   1.740  0.5923 -0.1816 -0.9630
  992MOL0     C30824   0.774   1.024   1.768 -1.2091  0.1201 -1.1641
  992MOL0     C30825   0.925   1.049   1.793  0.0961 -0.2649  0.1144
  992MOL0     C30826   0.933   1.174   1.880  1.0892 -0.5393  0.8556
  992MOL0     C30827   0.915   1.301   1.794  0.4470 -0.1182 -0.5234
  992MOL0     C30828   0.929   1.423   1.882  0.2884  0.6334  0.0527
  992MOL0     N30829   1.058   1.475   1.903 -0.4194  0.6906 -0.0989
  992MOL0     C30830   1.130   1.449   2.013  0.3782 -0.9655  0.2461
  992MOL0     C30831   1.255   1.485   1.987 -0.5091 -0.2879 -0.3142
  992MOL0     C30832   1.378   1.452   2.068  0.4544  0.8118 -0.7042
  992MOL0     C30833   1.395   1.303   2.093 -0.4027 -0.2960 -0.2759
  992MOL0     C30834   1.433   1.246   1.957 -1.0013 -0.5168 -0.3087
  992MOL0     C30835   1.572   1.289   1.899  0.3394 -0.3228  0.0057
  992MOL0     O30836   1.635   1.191   1.820  1.1421  1.2599  0.2140
  992MOL0     C30837   1.606   1.193   1.681  0.2537 -0.0644  0.2652
  992MOL0     C30838   1.490   1.251   1.635  1.0674  0.5122  1.1694
  992MOL0     C30839   1.457   1.235   1.501  0.0125 -0.3775  1.1694
  992MOL0     C30840   1.535   1.153   1.408  0.2957 -0.1262  0.1496
  992MOL0     C30841   1.496   1.134   1.267 -0.8830  0.0331  0.3592
  992MOL0     O30842   1.536   1.012   1.218  0.6673 -0.1983  0.1577
  992MOL0     C30843   1.502   0.974   1.094  0.6495  0.3028 -0.3965
  992MOL0     C30844   1.372   0.979   1.042  0.9844  0.5057  0.3867
  992MOL0     C30845   1.336   0.914   0.922  0.5223  0.2363 -0.2844
  992MOL0     C30846   1.437   0.851   0.846  0.3095  0.0295  0.2119
  992MOL0     O30847   1.406   0.813   0.723  0.2232  0.1277 -0.1163
  992MOL0     C30848   1.480   0.710   0.647 -0.3879 -0.3674  0.1786
  992MOL0     C30849   1.596   0.764   0.571 -0.0039 -0.0311 -0.7532
  992MOL0     C30850   1.584   0.883   0.479  0.0441 -0.1172 -0.2691
  992MOL0     C30851   1.715   0.922   0.412 -0.7550 -0.9651 -0.6950
  992MOL0     C30852   1.718   0.941   0.258 -0.8092  0.0324 -0.1108
  992MOL0     C30853   1.617   1.044   0.198 -0.3911 -0.3046  0.0624
  992MOL0     C30854   1.661   1.193   0.201  0.2942 -0.0781 -0.4000
  992MOL0     C30855   1.533   1.280   0.224 -0.0079  0.5287  0.1556
  992MOL0    Cl30856   1.578   1.451   0.184 -0.6033 -0.0141  0.1428
  992MOL0     C30857   1.566   0.835   0.903 -0.0678  0.8744  0.0939
  992MOL0     C30858   1.598   0.899   1.025  0.4736  0.6065  0.5003
  992MOL0     O30859   1.424   1.216   1.217 -0.0845 -0.7920  0.0670
  992MOL0     C30860   1.647   1.095   1.464  0.4306 -0.2189 -0.5599
  992MOL0     C30861   1.685   1.128   1.594  0.0169  0.0187 -0.3128
  992MOL0     N30862   1.258   1.529   1.851  0.1003 -0.6748 -0.1557
  992MOL0     N30863   1.142   1.515   1.802  0.2800 -0.3886  0.1254
  992MOL0     C30864   0.573   1.244   1.443  0.7719 -0.3225 -0.1203
  992MOL0     C30865   0.483   1.337   1.390 -0.5927 -0.0498 -0.5580
  992MOL0     C30866   0.196   1.445   1.058  0.1902 -0.5332  0.9441
  992MOL0     C30867   0.112   1.543   1.127  0.1197  0.2191 -0.1635
  992MOL0     C30868   0.015   1.622   1.064 -0.1278 -0.2065  0.6013
  992MOL0     C30869   0.002   1.617   0.922 -0.5018 -0.5681  0.0594
  992MOL0     O30870  -0.080   1.705   0.867  0.0267  0.2017  0.7851
  992MOL0     C30871  -0.218   1.670   0.834  1.4868 -0.3448  0.0107
  992MOL0     C30872  -0.224   1.619   0.686  0.0001 -0.4301  0.5483
  992MOL0     C30873  -0.365   1.569   0.656  0.9332  0.1604 -0.4315
  992MOL0     C30874  -0.470   1.688   0.631 -0.1576  0.1143  0.8174
  992MOL0     C30875  -0.598   1.632   0.583 -0.2349  0.6786  0.7391
  992MOL0     C30876  -0.706   1.589   0.554  0.5714  0.5307  0.4020
  992MOL0     C30877   0.090   1.528   0.856  0.0785  0.0957 -0.7729
  992MOL0     C30878   0.184   1.445   0.918  0.1229  0.6997 -0.5748
  992MOL0     H30879   0.261   1.116   1.265 -1.0014  3.7975 -1.0666
  992MOL0     H30880   0.427   0.955   1.340 -3.1151  1.3278 -0.5070
  992MOL0     H30881   0.751   0.836   1.496 -1.0584 -4.2907 -0.7886
  992MOL0     H30882   0.588   0.824   1.447  1.3081  1.0156 -2.7089
  992MOL0     H30883   0.582   0.757   1.662 -0.9125  0.4963  2.8356
  992MOL0     H30884   0.541   0.925   1.675  1.0638  1.1818  2.1558
  992MOL0     H30885   0.840   0.824   1.707 -0.2423 -3.0450  1.2416
  992MOL0     H30886   0.725   0.843   1.839  3.6534  2.1561  0.9189
  992MOL0     H30887   0.732   1.079   1.683  0.1161 -0.1111 -1.9948
  992MOL0     H30888   0.714   1.064   1.850 -0.6970  3.2881 -2.1978
  992MOL0     H30889   0.986   1.059   1.702  1.4489 -2.1968  0.7391
  992MOL0     H30890   0.980   0.978   1.855  1.8759  2.0681  1.3335
  992MOL0     H30891   1.023   1.187   1.941  1.4824  2.7716 -0.2098
  992MOL0     H30892   0.858   1.179   1.960  1.8864  2.8505  1.5782
  992MOL0     H30893   0.983   1.313   1.709  0.1066  0.7307 -0.6823
  992MOL0     H30894   0.812   1.310   1.759  0.6377  1.9895 -0.6557
  992MOL0     H30895   0.884   1.400   1.979  4.0031 -1.9224  1.4244
  992MOL0     H30896   0.866   1.502   1.842 -3.3524 -1.2851  1.5697
  992MOL0     H30897   1.088   1.403   2.102  1.2398 -3.4983 -0.5751
  992MOL0     H30898   1.365   1.477   2.174  2.8461 -5.2891  1.4968
  992MOL0     H30899   1.470   1.497   2.033  0.0044  1.2194 -1.3814
  992MOL0     H30900   1.319   1.245   2.146  1.1938 -1.2948  1.0143
  992MOL0     H30901   1.483   1.288   2.156 -0.3646 -1.2290 -0.5348
  992MOL0     H30902   1.446   1.139   1.971  0.0245 -0.2918  0.5437
  992MOL0     H30903   1.360   1.264   1.878 -2.5247  0.9542  1.3444
  992MOL0     H30904   1.644   1.310   1.979 -0.5187 -1.2559  1.0535
  992MOL0     H30905   1.550   1.384   1.849 -0.3960 -2.2652 -3.7264
  992MOL0     H30906   1.416   1.302   1.696 -2.0459 -2.1943 -0.0752
  992MOL0     H30907   1.374   1.287   1.454 -1.2326 -2.5543  0.7942
  992MOL0     H30908   1.304   1.036   1.105  1.5730 -0.0387  1.5433
  992MOL0     H30909   1.236   0.918   0.880  1.4806  1.9067 -2.6553
  992MOL0     H30910   1.402   0.675   0.579  0.4467 -1.7412 -0.1115
  992MOL0     H30911   1.514   0.625   0.707 -2.2225 -2.4106 -1.4877
  992MOL0     H30912   1.625   0.674   0.517  1.7802  0.4752 -0.6937
  992MOL0     H30913   1.680   0.780   0.640 -1.1256  4.9961 -0.1422
  992MOL0     H30914   1.546   0.970   0.534  0.5745 -1.8408  3.0910
  992MOL0     H30915   1.512   0.866   0.398 -3.0798  0.4427  2.2024
  992MOL0     H30916   1.759   1.008   0.464 -2.4294 -1.5370  1.8487
  992MOL0     H30917   1.792   0.851   0.445  2.3224  2.1124 -0.5795
  992MOL0     H30918   1.710   0.846   0.205  0.9263 -0.6741  0.8155
  992MOL0     H30919   1.821   0.967   0.232 -0.5927 -3.3865 -3.4905
  992MOL0     H30920   1.528   1.022   0.258 -0.1609  0.6745  0.7990
  992MOL0     H30921   1.601   1.018   0.093  2.5876 -0.8513 -0.3284
  992MOL0     H30922   1.737   1.207   0.279  1.4979 -3.6846 -0.7423
  992MOL0     H30923   1.693   1.237   0.106 -1.0459  1.3424 -0.2255
  992MOL0     H30924   1.518   1.279   0.333  1.4205  1.4230  0.3901
  992MOL0     H30925   1.449   1.241   0.167  0.1461  1.8422 -1.0296
  992MOL0     H30926   1.647   0.788   0.848  0.6278  0.9311  1.0593
  992MOL0     H30927   1.701   0.911   1.058  1.3011 -0.3927 -1.5769
  992MOL0     H30928   1.703   1.020   1.409 -0.0527  1.7371 -4.0106
  992MOL0     H30929   1.779   1.086   1.629  0.7218  1.9510  0.2202
  992MOL0     H30930   0.661   1.274   1.500  1.3343  0.8204 -1.5308
  992MOL0     H30931   0.490   1.444   1.410 -3.5704  0.2010 -0.4765
  992MOL0     H30932   0.118   1.565   1.233 -2.1506  0.7185 -0.0888
  992MOL0     H30933  -0.049   1.685   1.126  0.4189  1.4752 -0.4638
  992MOL0     H30934  -0.293   1.744   0.862  3.3855  1.0729  1.6966
  992MOL0     H30935  -0.242   1.588   0.902  0.7592 -0.3609 -0.2659
  992MOL0     H30936  -0.181   1.704   0.631 -0.1667  0.2077  1.3818
  992MOL0     H30937  -0.156   1.534   0.671 -0.2292 -0.2380 -2.0124
  992MOL0     H30938  -0.396   1.500   0.735 -0.3734 -0.9825 -1.8772
  992MOL0     H30939  -0.374   1.508   0.565 -1.2822 -4.1218  2.3244
  992MOL0     H30940  -0.484   1.738   0.728 -0.7188  0.2636  0.6593
  992MOL0     H30941  -0.442   1.768   0.563 -3.8326 -0.0314 -1.1040
  992MOL0     H30942  -0.805   1.550   0.542  0.4604 -1.3739  5.3174
  992MOL0     H30943   0.109   1.536   0.749  0.2960 -1.4720 -0.8656
  992MOL0     H30944   0.255   1.379   0.870  0.6287 -1.0025  2.2883
  993MOL0     O30945   5.808   7.205   7.366 -0.1745 -0.2530 -0.4150
  993MOL0     C30946   5.693   7.157   7.360  0.4680  1.1181 -0.3692
  993MOL0     O30947   5.607   7.155   7.246 -0.5445  0.0551 -0.4449
  993MOL0     C30948   5.638   7.231   7.135 -0.9597 -0.6243 -0.0861
  993MOL0     C30949   5.632   7.372   7.137  0.4922  0.2503 -0.6857
  993MOL0     C30950   5.643   7.453   7.028 -0.9144  0.4004  0.6167
  993MOL0     C30951   5.681   7.394   6.909 -0.5136  0.5021  0.0592
  993MOL0     O30952   5.705   7.478   6.797  0.3716  0.4046 -0.6842
  993MOL0     C30953   5.615   7.464   6.684  0.3075  0.1146 -1.1248
  993MOL0     C30954   5.634   7.592   6.600  0.7625 -0.4285  0.4944
  993MOL0     C30955   5.761   7.603   6.513  0.2005  0.0714 -1.0330
  993MOL0     C30956   5.901   7.591   6.578  1.1595  0.3047 -0.0574
  993MOL0     C30957   6.012   7.603   6.475  0.0503 -0.7769 -0.6398
  993MOL0     C30958   6.158   7.582   6.521  0.7775 -0.1773  0.6591
  993MOL0     C30959   6.254   7.557   6.400 -0.5902  0.2698 -0.4017
  993MOL0     C30960   6.258   7.670   6.303  0.1527 -0.1923 -0.1589
  993MOL0     N30961   6.301   7.792   6.373 -0.2172  0.4539  0.4873
  993MOL0     C30962   6.218   7.905   6.381 -0.2859  0.1293 -0.5283
  993MOL0     C30963   6.301   8.006   6.421  0.1518 -0.0488 -0.7224
  993MOL0     C30964   6.253   8.152   6.422  0.4850 -0.6511 -1.6374
  993MOL0     C30965   6.175   8.172   6.558 -0.2691 -0.2464 -0.3857
  993MOL0     C30966   6.057   8.262   6.556  0.4922  0.8279  0.4725
  993MOL0     C30967   5.982   8.277   6.699  0.7979  0.0925  0.8982
  993MOL0     O30968   5.895   8.388   6.698  0.4023  0.1613  1.4753
  993MOL0     C30969   5.831   8.415   6.816 -0.9225 -0.3486 -0.5782
  993MOL0     C30970   5.845   8.358   6.935 -0.0912 -0.0849  0.0665
  993MOL0     C30971   5.806   8.418   7.059 -0.8255 -0.9964 -0.0534
  993MOL0     C30972   5.741   8.543   7.066 -0.4127  0.1367 -0.4663
  993MOL0     C30973   5.713   8.614   7.194  0.7784 -0.7462  0.0224
  993MOL0     O30974   5.722   8.540   7.312 -0.9057 -0.9415  0.1544
  993MOL0     C30975   5.706   8.615   7.428  0.5522  0.6971 -0.5800
  993MOL0     C30976   5.820   8.682   7.478  0.5325  0.2632 -0.4666
  993MOL0     C30977   5.812   8.740   7.605 -0.2031  0.7411  0.6292
  993MOL0     C30978   5.692   8.730   7.681  0.4472  0.8504  0.4239
  993MOL0     O30979   5.712   8.783   7.804  0.2847  0.3860  0.3503
  993MOL0     C30980   5.601   8.851   7.868 -1.0254  0.1713  0.4976
  993MOL0     C30981   5.661   8.970   7.943  0.1806  0.9520 -0.4078
  993MOL0     C30982   5.724   9.072   7.845  0.3053 -0.7993 -0.3710
  993MOL0     C30983   5.729   9.209   7.921  0.5486  0.5349 -0.8648
  993MOL0     C30984   5.802   9.307   7.827 -0.4451  0.7425 -0.0369
  993MOL0     C30985   5.798   9.454   7.881 -0.1003  0.2660  0.0308
  993MOL0     C30986   5.909   9.539   7.809 -1.2923 -0.6820 -0.1210
  993MOL0     C30987   5.875   9.685   7.822  0.1568 -0.2296  0.1829
  993MOL0    Cl30988   5.963   9.782   7.705 -0.0806 -0.0417 -0.1619
  993MOL0     C30989   5.580   8.662   7.640 -0.2893  0.0909  0.0547
  993MOL0     C30990   5.592   8.606   7.513  0.1183  1.3522 -0.2712
  993MOL0     O30991   5.664   8.721   7.181 -0.3648 -0.7549 -0.0466
  993MOL0     C30992   5.728   8.605   6.938 -0.3909  0.0343 -0.0933
  993MOL0     C30993   5.762   8.541   6.818 -0.8057  0.3881  0.0059
  993MOL0     N30994   6.430   7.960   6.428 -0.4772  0.3637  0.0733
  993MOL0     N30995   6.430   7.833   6.405  0.2652 -0.8058 -0.5795
  993MOL0     C30996   5.689   7.256   6.897  0.0734 -0.0137  0.4564
  993MOL0     C30997   5.666   7.177   7.008 -0.1225 -1.0599 -0.3681
  993MOL0     C30998   5.632   7.092   7.483  0.7323  0.0467  0.5731
  993MOL0     C30999   5.704   7.069   7.597  0.4635  0.0944  0.0234
  993MOL0     C31000   5.654   6.997   7.707  0.0544  0.5438  0.9917
  993MOL0     C31001   5.536   6.915   7.693 -0.3793  0.0305  0.0589
  993MOL0     O31002   5.491   6.844   7.804 -0.7946 -0.6285  0.0034
  993MOL0     C31003   5.363   6.776   7.787 -0.0477  0.6888 -0.8184
  993MOL0     C31004   5.315   6.743   7.929 -0.9373 -0.0687 -0.1837
  993MOL0     C31005   5.302   6.870   8.009  0.5203  0.1061 -0.1788
  993MOL0     C31006   5.230   6.848   8.136  0.7069 -0.0247 -0.0659
  993MOL0     C31007   5.305   6.770   8.228 -0.3194  1.2816  0.2092
  993MOL0     C31008   5.369   6.698   8.301  0.2086  0.1508 -0.2169
  993MOL0     C31009   5.472   6.919   7.570 -0.1225 -0.6730 -0.3446
  993MOL0     C31010   5.516   7.006   7.468  0.6061 -0.1204 -0.4861
  993MOL0     H31011   5.596   7.405   7.234 -1.3236  1.5213 -1.7130
  993MOL0     H31012   5.641   7.560   7.044 -1.2933  0.6858 -1.1577
  993MOL0     H31013   5.509   7.444   6.704  0.2630 -0.8669 -2.2225
  993MOL0     H31014   5.646   7.379   6.622 -1.3307 -2.8302  1.7659
  993MOL0     H31015   5.629   7.685   6.659  1.6522 -0.9470  1.4216
  993MOL0     H31016   5.548   7.605   6.534  1.2493 -1.5752 -0.3950
  993MOL0     H31017   5.762   7.700   6.461  2.1861  0.6795  0.0429
  993MOL0     H31018   5.758   7.533   6.428 -2.8036 -2.6268  1.0753
  993MOL0     H31019   5.913   7.658   6.664 -0.3774 -0.1456  0.5462
  993MOL0     H31020   5.891   7.490   6.620 -1.1422  1.3276  2.1036
  993MOL0     H31021   6.013   7.706   6.437  1.7641 -0.1922  0.8144
  993MOL0     H31022   5.989   7.531   6.396 -0.9442  1.3627 -2.4066
  993MOL0     H31023   6.171   7.499   6.592  4.2455 -0.8302 -0.5243
  993MOL0     H31024   6.182   7.674   6.575  0.3253  0.8401 -0.8185
  993MOL0     H31025   6.355   7.543   6.439 -1.3824 -1.0414  1.3586
  993MOL0     H31026   6.232   7.472   6.334  0.2194  1.1283 -1.8235
  993MOL0     H31027   6.164   7.681   6.248 -1.4218  1.7690  2.6388
  993MOL0     H31028   6.338   7.649   6.232  1.6186  1.2187  0.9994
  993MOL0     H31029   6.111   7.910   6.359 -0.7779 -1.2240  1.2873
  993MOL0     H31030   6.187   8.168   6.336 -0.6545  4.1697 -0.1447
  993MOL0     H31031   6.335   8.224   6.411 -0.1540  0.9937  2.6038
  993MOL0     H31032   6.247   8.193   6.637 -2.3852 -1.9545  2.1624
  993MOL0     H31033   6.134   8.074   6.585 -0.8956 -0.5731 -2.3328
  993MOL0     H31034   6.081   8.366   6.530 -3.2206  1.3168 -1.8074
  993MOL0     H31035   5.986   8.225   6.481  0.8127 -0.4248  0.7697
  993MOL0     H31036   6.056   8.277   6.780  1.8787  2.3492  0.0056
  993MOL0     H31037   5.915   8.192   6.713 -1.9215  2.1804  1.3462
  993MOL0     H31038   5.896   8.263   6.943  1.5871  0.6010 -1.5927
  993MOL0     H31039   5.835   8.376   7.155 -1.2272 -0.7396  0.1875
  993MOL0     H31040   5.910   8.691   7.419  1.3836 -1.5548  0.4599
  993MOL0     H31041   5.897   8.794   7.645  0.1377  2.4048 -2.0281
  993MOL0     H31042   5.547   8.771   7.920 -0.7482 -0.9260 -0.8459
  993MOL0     H31043   5.538   8.885   7.786 -0.0909  1.0055  0.1076
  993MOL0     H31044   5.733   8.941   8.019  1.3608 -0.8102 -2.1004
  993MOL0     H31045   5.577   9.021   7.991 -0.0798 -1.6708  2.1957
  993MOL0     H31046   5.660   9.074   7.756  0.8156  0.6428 -0.7253
  993MOL0     H31047   5.822   9.038   7.812  0.0850 -2.8162  0.8901
  993MOL0     H31048   5.626   9.246   7.928  0.1779 -0.7675  2.0333
  993MOL0     H31049   5.778   9.197   8.018 -2.9757  0.1757  1.0367
  993MOL0     H31050   5.762   9.304   7.725  0.9748  0.8467 -0.6187
  993MOL0     H31051   5.905   9.272   7.833 -0.1607  1.5327 -0.1464
  993MOL0     H31052   5.818   9.449   7.988  2.3373 -2.7764 -0.4198
  993MOL0     H31053   5.699   9.498   7.870  0.1720  2.2923  4.1260
  993MOL0     H31054   6.007   9.522   7.856  0.2768 -0.2873 -3.0203
  993MOL0     H31055   5.918   9.505   7.705  1.4461  0.0178 -0.2049
  993MOL0     H31056   5.889   9.723   7.924 -0.7861  1.6436 -0.3432
  993MOL0     H31057   5.767   9.689   7.807 -0.7164 -1.5954  4.5955
  993MOL0     H31058   5.492   8.659   7.705  0.2540  0.3316  0.8179
  993MOL0     H31059   5.516   8.536   7.479  1.5406 -0.6917  0.5847
  993MOL0     H31060   5.662   8.691   6.931 -1.4392 -0.7733 -0.5284
  993MOL0     H31061   5.741   8.567   6.714 -0.5889  0.4021 -0.0360
  993MOL0     H31062   5.736   7.210   6.810  1.2922 -0.8251  1.5047
  993MOL0     H31063   5.685   7.070   6.998  0.5478 -1.3007  2.6419
  993MOL0     H31064   5.798   7.121   7.615 -0.6761  2.4060 -0.2880
  993MOL0     H31065   5.703   6.983   7.803  0.5869 -5.7101  0.2797
  993MOL0     H31066   5.372   6.687   7.724  0.7905 -0.7614  1.2398
  993MOL0     H31067   5.295   6.850   7.743  0.8216  0.5255 -2.5349
  993MOL0     H31068   5.223   6.683   7.927  1.0005 -3.3622  0.8085
  993MOL0     H31069   5.393   6.686   7.980 -1.6219  0.1137  1.1336
  993MOL0     H31070   5.244   6.937   7.944  0.2702 -0.1851 -0.2589
  993MOL0     H31071   5.404   6.908   8.023  0.1906  0.5185  1.2691
  993MOL0     H31072   5.215   6.943   8.189  1.7792 -0.5434  1.2245
  993MOL0     H31073   5.129   6.808   8.122  0.7501  0.4696 -2.1880
  993MOL0     H31074   5.431   6.645   8.371  0.9339  2.2533  0.8016
  993MOL0     H31075   5.385   6.859   7.545 -0.5411  0.6173 -2.1615
  993MOL0     H31076   5.468   6.990   7.372 -0.1891 -2.9480  0.2897
  994MOL0     O31077  10.044   8.853   5.395 -0.5885 -0.3917  0.2046
  994MOL0     C31078  10.145   8.919   5.397  0.5587  0.5867  0.4046
  994MOL0     O31079  10.193   8.982   5.286 -0.5293  0.2720 -0.3890
  994MOL0     C31080  10.136   8.963   5.167  0.5931  0.7300 -0.3889
  994MOL0     C31081  10.177   8.844   5.098  0.7236 -0.2245  0.0692
  994MOL0     C31082  10.130   8.820   4.967 -0.1123  0.6395 -0.4483
  994MOL0     C31083  10.065   8.915   4.887 -0.1992  0.5910 -0.3072
  994MOL0     O31084  10.051   8.893   4.752  0.9874  0.0875  0.0295
  994MOL0     C31085  10.046   9.026   4.672 -0.7422  0.2264 -0.1807
  994MOL0     C31086  10.064   9.001   4.521  0.4430  0.6175  0.4259
  994MOL0     C31087  10.202   8.972   4.475  0.1058  0.3496  0.8286
  994MOL0     C31088  10.190   8.930   4.326 -0.2686 -0.4820 -0.7246
  994MOL0     C31089  10.310   8.847   4.291  0.4609  0.2852  0.0794
  994MOL0     C31090  10.413   8.919   4.221  0.7789  0.0376  0.2086
  994MOL0     C31091  10.506   9.011   4.309  0.6068  0.3662 -0.3146
  994MOL0     C31092  10.643   8.938   4.351 -1.2312  0.2359 -0.5169
  994MOL0     N31093  10.732   9.022   4.438 -0.8084  0.7050  0.1574
  994MOL0     C31094  10.769   9.010   4.571 -0.5165 -0.0394 -0.5857
  994MOL0     C31095  10.867   9.108   4.588 -0.8183 -0.4879 -0.4297
  994MOL0     C31096  10.961   9.119   4.707 -0.7758 -0.5646 -0.6534
  994MOL0     C31097  11.101   9.057   4.700  0.2706  0.1364 -0.0257
  994MOL0     C31098  11.079   8.899   4.688 -0.5026 -1.4169  0.2768
  994MOL0     C31099  11.017   8.834   4.816 -0.3218 -0.2378 -0.1709
  994MOL0     O31100  11.084   8.894   4.928  0.0997 -0.3030 -1.0407
  994MOL0     C31101  11.012   8.932   5.041 -0.7756  0.5802  0.5733
  994MOL0     C31102  10.914   8.863   5.087 -0.2639 -0.8107 -0.4152
  994MOL0     C31103  10.849   8.899   5.201  1.0941 -1.3597 -0.3101
  994MOL0     C31104  10.879   9.022   5.262  0.2241  0.6528 -0.0434
  994MOL0     C31105  10.796   9.071   5.383 -0.6158 -0.7603  0.0899
  994MOL0     O31106  10.835   9.193   5.433 -0.4512  0.3021  0.2163
  994MOL0     C31107  10.745   9.261   5.504 -0.2919 -0.3197  1.2767
  994MOL0     C31108  10.612   9.288   5.477  0.5905 -0.0716  0.1174
  994MOL0     C31109  10.524   9.348   5.576 -0.8142 -0.0171 -0.3378
  994MOL0     C31110  10.578   9.389   5.698  1.0105 -0.0893  0.5401
  994MOL0     O31111  10.506   9.463   5.791  0.8686 -0.2754  0.3083
  994MOL0     C31112  10.360   9.478   5.780 -0.7770 -0.2798 -0.0802
  994MOL0     C31113  10.328   9.588   5.884  0.3592 -0.3466  0.8266
  994MOL0     C31114  10.400   9.725   5.865  0.6582 -0.5862  0.3909
  994MOL0     C31115  10.426   9.800   5.996  0.0531 -0.9889  0.3950
  994MOL0     C31116  10.513   9.725   6.087 -0.5536  0.1727  0.5356
  994MOL0     C31117  10.652   9.678   6.020  0.5434  0.6746  0.0478
  994MOL0     C31118  10.743   9.659   6.145  0.4372  1.1420  0.9160
  994MOL0     C31119  10.876   9.604   6.085  0.5144 -0.1935  0.2970
  994MOL0    Cl31120  10.996   9.618   6.215  0.2343  0.0996  0.0532
  994MOL0     C31121  10.709   9.360   5.722 -0.3167 -1.3930 -1.1011
  994MOL0     C31122  10.785   9.303   5.630  0.6941  0.3942 -0.0983
  994MOL0     O31123  10.695   9.011   5.415 -0.0988  0.1289  0.0276
  994MOL0     C31124  10.988   9.093   5.220  0.0505  0.4667  0.4000
  994MOL0     C31125  11.052   9.051   5.110  0.5718  0.5451 -0.1724
  994MOL0     N31126  10.895   9.167   4.470 -0.1894  0.6229 -0.4375
  994MOL0     N31127  10.821   9.102   4.377 -0.0479  0.5903  0.5939
  994MOL0     C31128  10.022   9.032   4.953 -0.0394  0.3801  0.1389
  994MOL0     C31129  10.054   9.054   5.089  0.5808 -0.4527 -0.5473
  994MOL0     C31130  10.218   8.927   5.519 -0.3762 -0.3910 -0.6819
  994MOL0     C31131  10.355   8.961   5.513  0.4532  0.6592 -0.7962
  994MOL0     C31132  10.416   8.972   5.637  0.2135 -0.8792 -0.4237
  994MOL0     C31133  10.356   8.960   5.765 -0.7085  0.2289  0.0535
  994MOL0     O31134  10.434   8.979   5.873 -0.6312  0.4805  0.0646
  994MOL0     C31135  10.381   9.014   6.004  0.1301 -0.1294  0.2430
  994MOL0     C31136  10.493   9.090   6.078  1.1291  0.6194 -0.0594
  994MOL0     C31137  10.471   9.238   6.060 -0.4938 -0.0931 -0.2622
  994MOL0     C31138  10.587   9.311   6.132  0.1885 -0.7270 -0.2491
  994MOL0     C31139  10.587   9.315   6.279 -0.5307 -0.0208 -0.1163
  994MOL0     C31140  10.579   9.307   6.399  0.5642  0.0957 -0.1027
  994MOL0     C31141  10.217   8.951   5.764 -0.1367 -0.1943  0.9004
  994MOL0     C31142  10.148   8.927   5.649 -0.9281  0.1247 -0.6476
  994MOL0     H31143  10.230   8.762   5.145 -1.0833 -0.6059  1.5216
  994MOL0     H31144  10.157   8.731   4.910 -0.8908  0.6566 -0.8685
  994MOL0     H31145  10.129   9.085   4.713  0.1396 -3.4669  4.0112
  994MOL0     H31146   9.946   9.068   4.690 -0.2657  1.5826 -0.5612
  994MOL0     H31147  10.030   9.092   4.473  1.8278  1.3607  0.8017
  994MOL0     H31148   9.994   8.919   4.501 -1.0260  1.4980  1.6926
  994MOL0     H31149  10.252   8.894   4.533  0.5676 -1.0911 -1.4080
  994MOL0     H31150  10.263   9.061   4.489  0.4788  0.7035 -2.4229
  994MOL0     H31151  10.098   8.876   4.300 -1.7178  1.7334 -0.5038
  994MOL0     H31152  10.189   9.025   4.271  3.5649 -0.4133 -0.9527
  994MOL0     H31153  10.273   8.769   4.223  1.7904 -0.8279  0.5730
  994MOL0     H31154  10.355   8.804   4.381 -2.0064 -2.5788  0.1049
  994MOL0     H31155  10.356   8.965   4.139  0.2810  1.3367  1.2485
  994MOL0     H31156  10.475   8.838   4.181  0.4163  1.8371 -4.6645
  994MOL0     H31157  10.526   9.095   4.242 -2.6707  2.6140  1.2338
  994MOL0     H31158  10.448   9.049   4.394 -2.6841 -2.2767 -1.1748
  994MOL0     H31159  10.697   8.904   4.262  0.0581  0.3104  0.2047
  994MOL0     H31160  10.621   8.854   4.417  1.1330  1.1699  1.6277
  994MOL0     H31161  10.731   8.943   4.648  2.9429  0.8872  2.2229
  994MOL0     H31162  10.913   9.084   4.799 -0.5423  0.3758 -0.1550
  994MOL0     H31163  10.973   9.227   4.724  0.4762 -0.9107  0.9284
  994MOL0     H31164  11.173   9.077   4.779  2.0944  0.3263 -1.6791
  994MOL0     H31165  11.153   9.077   4.606  1.0553 -1.9379 -0.0949
  994MOL0     H31166  11.018   8.872   4.601  3.1471  1.0460 -3.3993
  994MOL0     H31167  11.180   8.861   4.669 -0.3991 -0.0945 -2.2132
  994MOL0     H31168  11.033   8.727   4.824  0.5478 -0.0758  0.3484
  994MOL0     H31169  10.907   8.839   4.822 -0.2683 -0.1854  4.5842
  994MOL0     H31170  10.903   8.761   5.052  2.5474 -1.8512  1.3498
  994MOL0     H31171  10.763   8.842   5.235 -1.3786  2.3534  0.1635
  994MOL0     H31172  10.557   9.268   5.386  1.9580 -0.8985 -0.5560
  994MOL0     H31173  10.423   9.373   5.543 -0.4839 -0.3607 -1.6804
  994MOL0     H31174  10.303   9.387   5.798  0.2225 -0.5316  2.1363
  994MOL0     H31175  10.344   9.519   5.680 -0.1218  2.0571  0.6944
  994MOL0     H31176  10.346   9.550   5.985 -1.8399  2.6460  2.5224
  994MOL0     H31177  10.220   9.601   5.895  0.6743  1.1098  3.2510
  994MOL0     H31178  10.333   9.788   5.805  0.9732 -1.0164 -0.4238
  994MOL0     H31179  10.496   9.706   5.817 -0.5552 -4.4552 -0.8770
  994MOL0     H31180  10.473   9.895   5.969  0.5873 -1.9979 -2.5604
  994MOL0     H31181  10.330   9.813   6.046 -0.4148 -4.5327  0.6895
  994MOL0     H31182  10.458   9.643   6.134  1.0025 -0.5276  1.2097
  994MOL0     H31183  10.535   9.794   6.169  0.8588  2.0147 -1.2748
  994MOL0     H31184  10.702   9.761   5.971  3.5758 -1.5614 -0.9958
  994MOL0     H31185  10.649   9.592   5.952 -0.3011 -0.2860  1.2286
  994MOL0     H31186  10.746   9.755   6.198  0.9976  1.1656  0.8488
  994MOL0     H31187  10.700   9.577   6.203 -2.8850  1.3619 -0.9822
  994MOL0     H31188  10.905   9.664   5.999 -0.9098 -0.2683 -0.2673
  994MOL0     H31189  10.865   9.500   6.051 -4.1187  0.1686  0.0310
  994MOL0     H31190  10.746   9.403   5.815 -1.0547  1.3888 -1.9851
  994MOL0     H31191  10.887   9.276   5.654  0.5406  1.0258  1.3698
  994MOL0     H31192  11.016   9.188   5.265 -3.6919  2.1059 -0.3711
  994MOL0     H31193  11.140   9.093   5.061 -0.7997  0.4408 -2.8981
  994MOL0     H31194   9.964   9.100   4.891  1.0731  0.2683 -1.0418
  994MOL0     H31195  10.029   9.148   5.138 -0.2720 -0.4063 -1.0595
  994MOL0     H31196  10.408   8.961   5.419  0.6740 -0.9286 -0.7059
  994MOL0     H31197  10.523   8.992   5.640  0.1530 -0.3894  2.5714
  994MOL0     H31198  10.374   8.925   6.068  1.1883  1.5556  2.8579
  994MOL0     H31199  10.282   9.059   5.992  1.5969  2.8989 -1.8079
  994MOL0     H31200  10.506   9.053   6.181  1.5197  3.4021  0.9610
  994MOL0     H31201  10.588   9.067   6.029  1.3704 -2.4397  1.5662
  994MOL0     H31202  10.377   9.281   6.096  0.2121  1.5558 -0.2767
  994MOL0     H31203  10.472   9.254   5.952  0.3536 -3.4769 -0.8717
  994MOL0     H31204  10.677   9.254   6.107  0.2899 -0.8106  0.3132
  994MOL0     H31205  10.596   9.416   6.102  3.5760  0.8109  4.9255
  994MOL0     H31206  10.576   9.287   6.504  1.9759 -1.1291 -0.2612
  994MOL0     H31207  10.157   8.950   5.855 -0.3436  2.7113  0.8859
  994MOL0     H31208  10.042   8.902   5.649 -0.8535 -0.1875 -0.1509
  995MOL0     O31209  11.186   2.062   8.822 -0.6727  0.4998 -0.6210
  995MOL0     C31210  11.176   1.975   8.729  0.1069 -0.3152 -0.2864
  995MOL0     O31211  11.165   2.002   8.601  0.6031 -0.4143  0.0903
  995MOL0     C31212  11.155   2.129   8.540 -0.8308  0.0647  0.6694
  995MOL0     C31213  11.175   2.254   8.599  0.5442  0.0168  0.3915
  995MOL0     C31214  11.177   2.371   8.532  0.5907 -0.5310  0.7548
  995MOL0     C31215  11.151   2.367   8.387 -0.3159  0.2525  0.2677
  995MOL0     O31216  11.132   2.481   8.324  0.1784 -0.3674  0.2127
  995MOL0     C31217  11.075   2.486   8.185 -0.6176  0.0041 -0.3216
  995MOL0     C31218  10.933   2.548   8.195  0.4927 -0.4877  0.9236
  995MOL0     C31219  10.948   2.698   8.203 -0.5889  0.0071 -0.4298
  995MOL0     C31220  10.826   2.778   8.198  0.2904 -0.4128 -0.1387
  995MOL0     C31221  10.817   2.903   8.292  0.3044 -0.1598 -0.1376
  995MOL0     C31222  10.915   3.016   8.267  0.6623 -0.2884  0.4643
  995MOL0     C31223  10.861   3.155   8.304 -0.3467 -0.1786  0.7945
  995MOL0     C31224  10.841   3.172   8.461 -0.6110  0.3509  0.0143
  995MOL0     N31225  10.806   3.315   8.500  0.4306  0.0494  0.8161
  995MOL0     C31226  10.701   3.386   8.454  0.0672 -0.0148  0.5172
  995MOL0     C31227  10.673   3.490   8.535 -0.1274 -0.9387  0.6127
  995MOL0     C31228  10.560   3.576   8.542  0.5141 -0.4229  0.2588
  995MOL0     C31229  10.511   3.616   8.678 -0.0330  0.3881  0.9906
  995MOL0     C31230  10.370   3.683   8.700 -0.9799  0.3573 -0.0960
  995MOL0     C31231  10.257   3.630   8.608 -0.6397  0.0384  0.4516
  995MOL0     O31232  10.130   3.668   8.628  0.3129 -0.1894 -0.6947
  995MOL0     C31233  10.087   3.617   8.744  0.8870  0.0350  0.6927
  995MOL0     C31234  10.040   3.486   8.752  1.0583 -0.0809  0.8617
  995MOL0     C31235   9.978   3.434   8.873  1.6242 -0.1647  0.0122
  995MOL0     C31236   9.963   3.526   8.984  0.3694 -0.0228 -0.1894
  995MOL0     C31237   9.915   3.475   9.115  0.6624  0.2889  0.3000
  995MOL0     O31238   9.879   3.573   9.209 -0.0348  0.5384  0.6325
  995MOL0     C31239   9.787   3.544   9.308 -0.3160  0.4974 -0.0183
  995MOL0     C31240   9.676   3.626   9.315  0.0071 -0.1424  0.4271
  995MOL0     C31241   9.569   3.609   9.403  1.0828  0.1466  0.1782
  995MOL0     C31242   9.578   3.507   9.497  1.2584 -0.1738  0.1315
  995MOL0     O31243   9.464   3.483   9.566  0.2076 -0.0239 -0.5749
  995MOL0     C31244   9.460   3.412   9.695 -0.0061 -0.1639 -1.2284
  995MOL0     C31245   9.432   3.261   9.690  0.5702 -0.0270  0.4539
  995MOL0     C31246   9.303   3.226   9.598  0.7112 -0.0867  1.5191
  995MOL0     C31247   9.323   3.248   9.448 -0.0342  0.6518 -0.0212
  995MOL0     C31248   9.203   3.178   9.379 -0.3836  0.2099  0.6439
  995MOL0     C31249   9.167   3.028   9.389 -0.5702  0.2321 -0.2925
  995MOL0     C31250   9.302   2.947   9.379 -0.3234 -0.0951  0.3000
  995MOL0     C31251   9.266   2.798   9.382 -0.3446 -0.5555  0.7174
  995MOL0    Cl31252   9.198   2.739   9.216 -0.0070  0.3456  0.4490
  995MOL0     C31253   9.682   3.419   9.492  0.4617  0.3037 -0.0154
  995MOL0     C31254   9.790   3.434   9.399 -0.2056  0.9310 -0.1788
  995MOL0     O31255   9.895   3.360   9.131 -0.2332  0.3702 -0.5279
  995MOL0     C31256  10.008   3.658   8.972  0.4156 -0.9252 -0.2438
  995MOL0     C31257  10.066   3.704   8.855  0.2754 -0.6111  0.3496
  995MOL0     N31258  10.773   3.499   8.629 -0.4423  0.6278 -0.5315
  995MOL0     N31259  10.845   3.393   8.610 -0.8798  0.2309  0.4636
  995MOL0     C31260  11.143   2.238   8.331  0.3509 -0.2249  0.5817
  995MOL0     C31261  11.144   2.120   8.403  0.0456 -0.3719 -0.5328
  995MOL0     C31262  11.173   1.833   8.764  0.5478  0.1241  0.2709
  995MOL0     C31263  11.177   1.732   8.661  0.7192 -0.5858 -0.3104
  995MOL0     C31264  11.166   1.596   8.691 -0.1065  0.0616  0.0157
  995MOL0     C31265  11.179   1.553   8.825 -0.2534 -0.9581  0.5340
  995MOL0     O31266  11.183   1.419   8.852  0.0457  1.2367 -0.0334
  995MOL0     C31267  11.245   1.377   8.968  0.6286  0.5042  0.2176
  995MOL0     C31268  11.274   1.230   8.981 -0.2361  1.1087  0.3985
  995MOL0     C31269  11.153   1.141   8.973  0.4100 -0.0146  0.5606
  995MOL0     C31270  11.058   1.157   9.085 -0.5258  0.2683 -0.5075
  995MOL0     C31271  10.973   1.030   9.102  0.0041 -1.1230 -0.5520
  995MOL0     C31272  10.901   0.946   9.124 -0.2942  0.7020 -0.1776
  995MOL0     C31273  11.178   1.649   8.930  0.8663 -0.0326 -0.5181
  995MOL0     C31274  11.166   1.782   8.894  0.4069 -0.7549  0.1852
  995MOL0     H31275  11.169   2.256   8.707  1.0282  0.6761  0.4130
  995MOL0     H31276  11.186   2.473   8.568 -0.3150 -0.4112  0.6807
  995MOL0     H31277  11.058   2.386   8.145 -2.1262  0.0282  0.1796
  995MOL0     H31278  11.146   2.532   8.116 -2.0677  0.8361 -1.3289
  995MOL0     H31279  10.889   2.512   8.288  0.6514 -1.2552  0.7117
  995MOL0     H31280  10.882   2.517   8.103  1.0541 -1.0805  0.8032
  995MOL0     H31281  11.017   2.732   8.125 -0.8716  2.5458  0.3491
  995MOL0     H31282  10.997   2.722   8.298 -0.4053  2.6172 -1.1168
  995MOL0     H31283  10.812   2.811   8.095 -1.2406  0.7616  0.4224
  995MOL0     H31284  10.752   2.703   8.229  2.4711 -2.2575  0.9300
  995MOL0     H31285  10.843   2.882   8.396  0.4885  2.6305  0.4441
  995MOL0     H31286  10.715   2.940   8.281  0.1030 -0.1179  1.7111
  995MOL0     H31287  10.950   3.018   8.163  0.1580  1.4421  0.2832
  995MOL0     H31288  11.004   3.004   8.328  0.0328 -3.6100  0.9053
  995MOL0     H31289  10.942   3.222   8.274 -2.1457  0.5609 -3.0570
  995MOL0     H31290  10.773   3.174   8.242 -0.1675 -1.4880  0.1178
  995MOL0     H31291  10.935   3.150   8.513 -1.0453 -0.0558  0.6396
  995MOL0     H31292  10.761   3.108   8.497 -1.6348  1.1722 -0.7427
  995MOL0     H31293  10.636   3.346   8.376  1.2583  1.4471 -1.2945
  995MOL0     H31294  10.474   3.537   8.486 -0.1802  2.4445 -0.8991
  995MOL0     H31295  10.579   3.673   8.494  0.5735 -0.2594  0.6151
  995MOL0     H31296  10.583   3.681   8.728 -0.5461  1.8946 -0.1523
  995MOL0     H31297  10.511   3.528   8.743 -1.3164  0.0638  0.5850
  995MOL0     H31298  10.349   3.657   8.805  2.2873 -2.9434 -0.0754
  995MOL0     H31299  10.383   3.789   8.677  0.9622 -0.0056 -0.8442
  995MOL0     H31300  10.267   3.522   8.597  3.0163  0.2168  0.8912
  995MOL0     H31301  10.302   3.677   8.520  2.5056 -0.4373  1.6782
  995MOL0     H31302  10.048   3.416   8.669  2.4370  2.3757 -1.2358
  995MOL0     H31303   9.929   3.337   8.870  0.8361  0.1860  0.9493
  995MOL0     H31304   9.670   3.702   9.238  1.0345 -0.9256 -0.4562
  995MOL0     H31305   9.484   3.677   9.411  1.1925  0.4629 -1.1731
  995MOL0     H31306   9.385   3.457   9.761  2.7575  2.5394  0.3174
  995MOL0     H31307   9.545   3.438   9.759 -1.6864 -1.2833  1.6377
  995MOL0     H31308   9.422   3.215   9.789 -2.4695  0.1801  0.3280
  995MOL0     H31309   9.522   3.211   9.654  1.0899  1.9054 -1.0678
  995MOL0     H31310   9.210   3.272   9.632  0.4454  1.1204 -0.6456
  995MOL0     H31311   9.300   3.117   9.613 -0.7463 -0.4628 -0.9118
  995MOL0     H31312   9.315   3.355   9.427 -1.2784  0.7654  0.9226
  995MOL0     H31313   9.418   3.207   9.413 -0.0487  1.6289 -1.3296
  995MOL0     H31314   9.224   3.195   9.273  2.7760  3.5940  1.5712
  995MOL0     H31315   9.114   3.239   9.396  0.9772  2.4226  0.3462
  995MOL0     H31316   9.102   2.999   9.306 -2.6914 -1.5376  1.8465
  995MOL0     H31317   9.116   3.004   9.482 -1.2331 -2.7360 -1.3101
  995MOL0     H31318   9.347   2.967   9.281  1.3120  0.4713  1.1288
  995MOL0     H31319   9.375   2.972   9.457  0.9751 -0.3616 -0.7926
  995MOL0     H31320   9.200   2.773   9.465 -0.6818 -2.9710 -0.1909
  995MOL0     H31321   9.362   2.745   9.388 -1.6377 -3.3426 -1.2068
  995MOL0     H31322   9.676   3.324   9.544  0.6460  0.9935  1.3243
  995MOL0     H31323   9.866   3.356   9.397 -1.8926 -0.7813 -1.0738
  995MOL0     H31324  10.009   3.725   9.058  0.0389  0.7601 -1.4801
  995MOL0     H31325  10.089   3.810   8.853 -2.2015  0.0019 -2.2204
  995MOL0     H31326  11.118   2.219   8.227  0.5648  0.4543  0.3958
  995MOL0     H31327  11.141   2.031   8.341  2.1671 -2.2695  1.8781
  995MOL0     H31328  11.168   1.755   8.556 -0.2775 -1.2197 -0.3770
  995MOL0     H31329  11.153   1.513   8.622 -0.2249  0.8980 -0.9977
  995MOL0     H31330  11.192   1.420   9.055  1.0550 -1.3364  1.4326
  995MOL0     H31331  11.343   1.422   8.954  1.2632 -1.1672 -0.9003
  995MOL0     H31332  11.327   1.205   8.889 -0.3834 -1.1474  0.8683
  995MOL0     H31333  11.338   1.207   9.067  0.9813 -0.5226 -0.8745
  995MOL0     H31334  11.191   1.039   8.960 -1.9394 -0.8589 -0.0715
  995MOL0     H31335  11.106   1.161   8.876  1.2187  0.4111  0.2442
  995MOL0     H31336  11.109   1.176   9.180 -2.9324 -0.4408  1.0183
  995MOL0     H31337  10.991   1.243   9.071 -1.3451  0.4547  3.4518
  995MOL0     H31338  10.849   0.856   9.152  1.4423 -0.0528  0.7841
  995MOL0     H31339  11.191   1.627   9.036  4.4296 -0.5755 -0.9160
  995MOL0     H31340  11.151   1.850   8.977 -3.1075 -2.5357  1.1593
  996MOL0     O31341   9.049   3.577   9.061 -0.4450  0.0781 -0.3229
  996MOL0     C31342   9.009   3.696   9.061  0.0517  0.1456 -0.7551
  996MOL0     O31343   8.970   3.776   9.167 -0.4124 -0.2563  0.1378
  996MOL0     C31344   8.966   3.722   9.302 -0.0350  0.3209  0.3598
  996MOL0     C31345   8.861   3.748   9.394 -0.4722  0.1223 -0.3274
  996MOL0     C31346   8.885   3.723   9.532 -0.1112  0.4163  0.0288
  996MOL0     C31347   9.001   3.672   9.580  0.6373 -0.1775 -0.6065
  996MOL0     O31348   9.004   3.656   9.717 -0.1961 -0.2619 -0.3530
  996MOL0     C31349   9.072   3.553   9.781  0.9729 -0.2478 -0.1609
  996MOL0     C31350   8.967   3.450   9.841  0.4151  0.6264  0.0430
  996MOL0     C31351   8.861   3.400   9.724 -0.1658  0.2413 -0.0163
  996MOL0     C31352   8.916   3.330   9.600 -0.1320 -0.3066 -0.0335
  996MOL0     C31353   8.817   3.258   9.507  0.5562  0.2134 -0.0206
  996MOL0     C31354   8.755   3.124   9.567  0.6326  0.9042 -0.2267
  996MOL0     C31355   8.710   3.025   9.463 -0.0962  0.1950  0.0468
  996MOL0     C31356   8.828   2.949   9.401  0.1626  0.0323 -0.2830
  996MOL0     N31357   8.799   2.840   9.311 -0.4446 -0.2153  0.3926
  996MOL0     C31358   8.849   2.834   9.191  0.5575  0.2131 -1.4105
  996MOL0     C31359   8.788   2.734   9.129 -0.0255 -0.2718  0.5242
  996MOL0     C31360   8.821   2.696   8.986  0.9326  0.5690 -0.4973
  996MOL0     C31361   8.938   2.607   8.966 -0.4115  0.7546  0.3076
  996MOL0     C31362   8.987   2.596   8.818 -0.8163  0.8176 -0.2509
  996MOL0     C31363   9.103   2.503   8.799  0.6362 -0.3279  0.0652
  996MOL0     O31364   9.074   2.381   8.866  0.2801 -0.2447  0.2467
  996MOL0     C31365   9.132   2.262   8.827 -0.4735 -0.0813 -0.5851
  996MOL0     C31366   9.091   2.142   8.889 -0.1853  0.1640  1.5083
  996MOL0     C31367   9.150   2.019   8.862 -0.3092  0.6342 -0.2289
  996MOL0     C31368   9.263   2.021   8.775 -0.5607  0.0286  0.6106
  996MOL0     C31369   9.347   1.897   8.755 -0.3107 -0.1517  0.1278
  996MOL0     O31370   9.444   1.896   8.662 -0.3013 -0.1336  0.1978
  996MOL0     C31371   9.509   1.779   8.635  0.5780  0.9778 -0.1597
  996MOL0     C31372   9.434   1.671   8.571 -0.5009 -0.1934 -0.0316
  996MOL0     C31373   9.493   1.547   8.557 -0.2392  0.0467  0.3626
  996MOL0     C31374   9.627   1.529   8.592 -0.5854 -0.5205 -0.0331
  996MOL0     O31375   9.687   1.403   8.583 -0.6573  0.4773  0.6220
  996MOL0     C31376   9.605   1.284   8.584  0.1304  0.2601 -0.6110
  996MOL0     C31377   9.694   1.159   8.627 -0.4127  0.6011  0.8029
  996MOL0     C31378   9.599   1.043   8.654  0.2122 -0.3694  0.3125
  996MOL0     C31379   9.683   0.923   8.694 -0.4067 -0.1102 -0.2631
  996MOL0     C31380   9.594   0.816   8.730  1.6136  0.6992 -0.5430
  996MOL0     C31381   9.680   0.687   8.752  0.6742 -0.2027  0.0947
  996MOL0     C31382   9.593   0.560   8.771 -1.4695  0.1361 -0.5023
  996MOL0     C31383   9.670   0.434   8.793  0.6877  0.0724 -0.8180
  996MOL0    Cl31384   9.555   0.309   8.825  0.3703  0.5149 -0.1889
  996MOL0     C31385   9.704   1.631   8.645  0.5192 -0.2360 -0.3755
  996MOL0     C31386   9.646   1.763   8.658 -0.5306 -0.1272 -0.3686
  996MOL0     O31387   9.314   1.800   8.826  0.6946 -0.2906  0.9290
  996MOL0     C31388   9.299   2.133   8.698  0.5220  0.2515 -0.4605
  996MOL0     C31389   9.228   2.252   8.726  0.8631 -0.7377 -0.5295
  996MOL0     N31390   8.696   2.672   9.211 -0.1837  0.4468 -0.1388
  996MOL0     N31391   8.704   2.741   9.327  0.2998  0.5078  0.2303
  996MOL0     C31392   9.107   3.645   9.490 -1.1658 -0.0552  0.1258
  996MOL0     C31393   9.085   3.666   9.354  0.3528  0.0862 -0.2427
  996MOL0     C31394   9.015   3.764   8.932  0.3197  0.3579  0.2372
  996MOL0     C31395   8.987   3.900   8.911  0.0175 -0.3603  0.5554
  996MOL0     C31396   8.996   3.949   8.781  0.3409  0.0378 -0.3312
  996MOL0     C31397   9.046   3.879   8.674 -0.7366  0.4525  1.1617
  996MOL0     O31398   9.079   3.962   8.570  0.0882  0.0944  0.8501
  996MOL0     C31399   9.146   3.905   8.449 -0.7851  0.0203 -0.9356
  996MOL0     C31400   9.207   4.007   8.357  0.4379 -0.9866  0.5002
  996MOL0     C31401   9.284   3.952   8.230  0.7382  0.0445 -0.7885
  996MOL0     C31402   9.391   3.844   8.256  0.0950 -1.4823 -0.8115
  996MOL0     C31403   9.333   3.708   8.260 -0.5216 -1.0053 -0.3934
  996MOL0     C31404   9.292   3.590   8.236 -0.4303  0.3586  0.1669
  996MOL0     C31405   9.097   3.745   8.696  0.0242 -0.3700  0.3572
  996MOL0     C31406   9.071   3.694   8.823  0.9658 -0.5371  0.2091
  996MOL0     H31407   8.770   3.796   9.360  0.5378  1.3984 -1.3205
  996MOL0     H31408   8.808   3.734   9.608 -2.0006 -1.7243 -1.4243
  996MOL0     H31409   9.131   3.590   9.865  1.4492 -1.7181  0.1950
  996MOL0     H31410   9.147   3.516   9.710  1.2522  0.2546 -0.1296
  996MOL0     H31411   8.927   3.494   9.932 -0.4117  2.4919 -1.1497
  996MOL0     H31412   9.029   3.368   9.877 -0.4982  0.1390  0.5376
  996MOL0     H31413   8.809   3.488   9.684  0.7851  1.0634  0.4865
  996MOL0     H31414   8.791   3.337   9.778 -0.9114  0.1983 -1.0087
  996MOL0     H31415   8.953   3.412   9.538  1.5085 -0.2009  1.0388
  996MOL0     H31416   8.984   3.250   9.630 -3.0827 -3.7341 -1.5969
  996MOL0     H31417   8.872   3.234   9.416  2.6782  0.9046  1.0184
  996MOL0     H31418   8.731   3.324   9.493  0.1684  0.5691  3.2913
  996MOL0     H31419   8.667   3.160   9.621 -0.7353 -0.8515 -1.1642
  996MOL0     H31420   8.820   3.063   9.631 -1.2492 -2.4050 -1.2120
  996MOL0     H31421   8.649   2.950   9.516 -0.2563  0.3659  0.1019
  996MOL0     H31422   8.661   3.090   9.391  4.0987  0.9528 -2.4621
  996MOL0     H31423   8.875   2.899   9.487  3.2549  0.1099 -1.7797
  996MOL0     H31424   8.896   3.017   9.349 -1.3338  2.6895  1.0448
  996MOL0     H31425   8.933   2.894   9.157 -0.3101  0.9628 -2.2985
  996MOL0     H31426   8.834   2.783   8.921  2.8633 -0.3105 -1.3622
  996MOL0     H31427   8.737   2.635   8.949  3.1189 -1.9586 -1.5799
  996MOL0     H31428   8.915   2.508   9.004  0.4133  1.0657  1.6732
  996MOL0     H31429   9.021   2.652   9.022  1.2411  1.0276 -2.1981
  996MOL0     H31430   8.898   2.554   8.771 -0.1380 -1.7797  0.6231
  996MOL0     H31431   9.013   2.695   8.779  0.4571 -0.0349 -1.6474
  996MOL0     H31432   9.201   2.533   8.836  0.8031  0.0156 -0.6380
  996MOL0     H31433   9.103   2.490   8.690 -0.8139  0.2120 -0.0298
  996MOL0     H31434   9.016   2.152   8.967  0.3521  2.2209  1.8408
  996MOL0     H31435   9.128   1.933   8.925  2.4797  1.7855  2.5721
  996MOL0     H31436   9.327   1.686   8.557 -1.1018 -3.6766 -0.2455
  996MOL0     H31437   9.442   1.461   8.515  0.7083 -0.1045 -0.5356
  996MOL0     H31438   9.542   1.261   8.497 -2.4557  1.7839  0.7323
  996MOL0     H31439   9.534   1.298   8.665  0.4420 -2.7469  0.2977
  996MOL0     H31440   9.756   1.186   8.713 -1.1084 -3.3303  2.7403
  996MOL0     H31441   9.772   1.143   8.553  0.0080  1.1592  1.1173
  996MOL0     H31442   9.530   1.043   8.569 -2.0542  1.8379  1.9956
  996MOL0     H31443   9.538   1.071   8.741  2.0256  0.9866  1.2036
  996MOL0     H31444   9.753   0.885   8.621 -0.1992 -1.5186  0.6385
  996MOL0     H31445   9.749   0.960   8.773  0.9169 -0.3927 -1.2223
  996MOL0     H31446   9.512   0.786   8.664  1.2908 -1.5099  0.7490
  996MOL0     H31447   9.556   0.838   8.830 -0.4032  1.6072 -1.4535
  996MOL0     H31448   9.749   0.705   8.835  1.0316 -1.9551  0.2130
  996MOL0     H31449   9.742   0.674   8.663  0.2748  2.1373 -0.6090
  996MOL0     H31450   9.524   0.581   8.853 -1.9342  0.2481 -0.9133
  996MOL0     H31451   9.530   0.542   8.683 -0.5499  0.5518 -1.2689
  996MOL0     H31452   9.727   0.442   8.887 -1.0167 -0.8930  0.3560
  996MOL0     H31453   9.736   0.415   8.709  1.8536  0.6029 -0.0533
  996MOL0     H31454   9.809   1.615   8.670 -0.3259 -1.2914  2.9381
  996MOL0     H31455   9.720   1.829   8.703 -1.2957 -1.3146  2.9086
  996MOL0     H31456   9.385   2.131   8.633  1.0059  0.6257  0.1530
  996MOL0     H31457   9.250   2.347   8.678 -3.1294 -0.8794 -3.0487
  996MOL0     H31458   9.203   3.611   9.528  0.5305  2.3180 -1.7476
  996MOL0     H31459   9.176   3.650   9.297  1.2958 -1.3851  1.5973
  996MOL0     H31460   8.933   3.955   8.988 -0.0560 -1.0639  1.0223
  996MOL0     H31461   8.953   4.047   8.763 -0.3125  0.3935  2.7140
  996MOL0     H31462   9.079   3.840   8.392  0.3024 -1.2209 -0.8346
  996MOL0     H31463   9.230   3.843   8.483 -0.3281  1.3060  0.3936
  996MOL0     H31464   9.122   4.068   8.326  0.6974 -0.9508 -0.1401
  996MOL0     H31465   9.275   4.078   8.406  0.6119 -0.8675  0.0924
  996MOL0     H31466   9.331   4.034   8.175  4.1806 -1.5454 -0.4538
  996MOL0     H31467   9.212   3.914   8.158 -1.1240 -2.8715  2.3155
  996MOL0     H31468   9.467   3.847   8.178 -0.5106 -0.2463 -1.3745
  996MOL0     H31469   9.440   3.869   8.351 -1.4624 -0.4380 -0.2407
  996MOL0     H31470   9.255   3.493   8.212  2.2345 -0.2721 -1.9532
  996MOL0     H31471   9.134   3.689   8.611 -1.3477 -0.2657 -0.3261
  996MOL0     H31472   9.108   3.592   8.829  2.6255  0.1292  2.3871
  997MOL0     O31473   8.998   4.251   3.549  0.1608  0.2554  0.1780
  997MOL0     C31474   8.898   4.290   3.606  0.4141 -1.1306 -0.3935
  997MOL0     O31475   8.896   4.387   3.697  0.4674  0.2128  0.5329
  997MOL0     C31476   9.022   4.434   3.728  0.6201  0.3922 -1.0220
  997MOL0     C31477   9.118   4.357   3.799 -0.3582  0.3205 -0.5525
  997MOL0     C31478   9.247   4.408   3.806  0.1301 -0.6380 -1.0838
  997MOL0     C31479   9.277   4.533   3.770 -1.0612 -0.2345  0.2562
  997MOL0     O31480   9.404   4.583   3.783 -0.9217 -0.5152 -0.0998
  997MOL0     C31481   9.491   4.560   3.898  0.6011 -0.5101 -0.0197
  997MOL0     C31482   9.596   4.446   3.861  0.2793 -0.0637 -0.3669
  997MOL0     C31483   9.680   4.489   3.729 -0.4014 -0.4778  0.0997
  997MOL0     C31484   9.810   4.412   3.697 -0.5678 -0.9972  0.4127
  997MOL0     C31485   9.944   4.498   3.697  0.1235  0.0204  0.0495
  997MOL0     C31486   9.968   4.586   3.563 -0.6266 -0.6139  0.0368
  997MOL0     C31487  10.094   4.682   3.587  0.7442 -0.2577 -0.1636
  997MOL0     C31488  10.129   4.753   3.458  0.5150 -0.1058 -0.0671
  997MOL0     N31489  10.180   4.660   3.357 -0.0409  0.6044  0.0975
  997MOL0     C31490  10.106   4.642   3.241 -0.1930  0.1190 -1.1540
  997MOL0     C31491  10.182   4.567   3.157  0.9391  0.3863 -0.1106
  997MOL0     C31492  10.155   4.492   3.024 -0.1948 -1.1009 -0.6316
  997MOL0     C31493  10.010   4.460   2.977  2.1887  0.0522  0.4437
  997MOL0     C31494  10.002   4.394   2.843  0.0817 -0.2435 -0.5115
  997MOL0     C31495   9.873   4.412   2.766 -0.4483 -0.8811 -0.6838
  997MOL0     O31496   9.769   4.336   2.821  0.0235 -1.1941 -0.4551
  997MOL0     C31497   9.636   4.368   2.773 -0.7797  0.4404  0.0692
  997MOL0     C31498   9.535   4.294   2.828 -0.4810  0.2014 -0.0103
  997MOL0     C31499   9.404   4.313   2.787  0.0636 -0.0872  0.4168
  997MOL0     C31500   9.367   4.406   2.688  0.6086  0.3460  0.9161
  997MOL0     C31501   9.220   4.423   2.650 -0.9833 -0.1778 -0.3631
  997MOL0     O31502   9.131   4.326   2.681  0.2883  0.0102  0.1055
  997MOL0     C31503   8.989   4.351   2.673  0.0710  1.0548 -0.6096
  997MOL0     C31504   8.920   4.452   2.746 -0.1013 -0.7543  1.0062
  997MOL0     C31505   8.788   4.480   2.697  0.8531  0.5260 -0.3019
  997MOL0     C31506   8.715   4.407   2.604 -0.8169  0.8490 -0.3919
  997MOL0     O31507   8.585   4.423   2.573  0.2364  0.8285  0.2672
  997MOL0     C31508   8.490   4.451   2.678 -0.1151 -0.7779  0.7222
  997MOL0     C31509   8.353   4.477   2.621 -0.0503 -0.9447  0.5041
  997MOL0     C31510   8.368   4.628   2.584 -0.4646  0.7635 -0.5043
  997MOL0     C31511   8.325   4.721   2.699 -0.5146  0.1695 -0.7091
  997MOL0     C31512   8.310   4.866   2.632  0.8149  0.3432 -0.6128
  997MOL0     C31513   8.238   4.971   2.721 -0.4135  0.6208  0.6027
  997MOL0     C31514   8.311   5.002   2.854 -0.8168 -0.0515  0.6161
  997MOL0     C31515   8.444   5.079   2.829  0.6403  0.4608 -0.3931
  997MOL0    Cl31516   8.420   5.213   2.709  0.4214 -0.0261 -0.4559
  997MOL0     C31517   8.782   4.291   2.549 -1.3176  0.1625  0.8813
  997MOL0     C31518   8.916   4.264   2.593  0.7942  0.5361  0.7616
  997MOL0     O31519   9.190   4.533   2.613 -0.9094 -0.1343 -0.4139
  997MOL0     C31520   9.473   4.485   2.636  0.2235  0.2822 -0.0353
  997MOL0     C31521   9.601   4.469   2.682 -0.1241  0.1613 -0.4937
  997MOL0     N31522  10.309   4.568   3.216  0.2983 -0.1422  0.2721
  997MOL0     N31523  10.312   4.615   3.338 -0.9295 -0.2856  0.4924
  997MOL0     C31524   9.175   4.617   3.740  0.6265  0.8604 -0.1063
  997MOL0     C31525   9.046   4.565   3.709 -0.1803  0.4816 -0.1859
  997MOL0     C31526   8.774   4.234   3.547 -0.2489  0.2449  0.3220
  997MOL0     C31527   8.649   4.261   3.603 -0.6291 -0.5348 -0.5925
  997MOL0     C31528   8.530   4.242   3.535  0.5962 -0.6595  0.4021
  997MOL0     C31529   8.535   4.169   3.416  0.2222  0.4918 -0.2103
  997MOL0     O31530   8.415   4.136   3.355  0.6822 -0.1053  0.6092
  997MOL0     C31531   8.419   4.049   3.247  0.7026  0.2766  0.1758
  997MOL0     C31532   8.269   4.021   3.210  0.0727 -0.0619  0.6255
  997MOL0     C31533   8.210   3.921   3.321 -0.1657 -0.3526 -0.2285
  997MOL0     C31534   8.272   3.770   3.322 -0.4001 -0.8788  0.8726
  997MOL0     C31535   8.316   3.722   3.190  0.8189  0.5703 -0.0685
  997MOL0     C31536   8.347   3.672   3.085  0.4147 -0.5019  0.1939
  997MOL0     C31537   8.661   4.136   3.359  0.0139 -0.5629  0.6107
  997MOL0     C31538   8.779   4.172   3.423  0.1620 -0.3338 -0.8949
  997MOL0     H31539   9.081   4.263   3.839 -1.3200  0.6413 -0.6595
  997MOL0     H31540   9.320   4.342   3.852  0.1281  0.9060  1.2769
  997MOL0     H31541   9.433   4.532   3.986 -0.9689 -0.8333 -1.1044
  997MOL0     H31542   9.562   4.641   3.914  2.0510 -1.9704  1.3692
  997MOL0     H31543   9.556   4.345   3.849  1.9326 -0.5022 -2.8388
  997MOL0     H31544   9.671   4.434   3.940 -1.0023 -4.5794  0.4573
  997MOL0     H31545   9.701   4.596   3.737 -4.9803  0.8300 -2.4167
  997MOL0     H31546   9.611   4.483   3.645 -2.2815 -0.2839  1.5765
  997MOL0     H31547   9.824   4.329   3.767  1.4731 -0.2189  1.0200
  997MOL0     H31548   9.797   4.361   3.601 -2.8272 -1.0128  0.6820
  997MOL0     H31549  10.024   4.425   3.709  1.4817  1.0049 -2.3059
  997MOL0     H31550   9.955   4.568   3.780  1.3893 -1.1243  0.8805
  997MOL0     H31551   9.873   4.639   3.550 -0.6482 -0.2618  1.4491
  997MOL0     H31552   9.987   4.519   3.478  2.7637 -1.4495  1.2724
  997MOL0     H31553  10.091   4.761   3.662  2.8360 -0.6348  0.3747
  997MOL0     H31554  10.179   4.621   3.618  0.8896 -1.0956 -2.0404
  997MOL0     H31555  10.206   4.824   3.488 -0.2176 -0.2123  2.2463
  997MOL0     H31556  10.045   4.800   3.406 -1.6757 -2.1110  1.4613
  997MOL0     H31557  10.004   4.676   3.224 -1.0320 -1.9879 -0.7027
  997MOL0     H31558  10.205   4.398   3.047 -1.7830 -2.4676 -2.4009
  997MOL0     H31559  10.207   4.533   2.937  2.6536 -2.9311  0.0962
  997MOL0     H31560   9.947   4.550   2.980 -1.4426 -2.1750 -1.2310
  997MOL0     H31561   9.954   4.384   3.032 -0.6972 -1.0836 -3.5392
  997MOL0     H31562  10.081   4.441   2.784 -0.1737 -0.3137 -0.9063
  997MOL0     H31563  10.036   4.291   2.856  2.1908  0.3233 -1.2488
  997MOL0     H31564   9.900   4.379   2.665  4.6749 -2.6644  0.9610
  997MOL0     H31565   9.848   4.518   2.765  0.2578 -0.5531  2.6911
  997MOL0     H31566   9.560   4.224   2.907  2.4521  1.3746  0.2123
  997MOL0     H31567   9.328   4.245   2.823  0.0655  0.0635  0.7105
  997MOL0     H31568   8.971   4.514   2.819 -0.8435  2.2134 -0.8094
  997MOL0     H31569   8.735   4.560   2.747  0.9393  0.1657  0.3710
  997MOL0     H31570   8.527   4.535   2.737  2.5910 -0.4249 -1.3089
  997MOL0     H31571   8.479   4.371   2.752 -0.4724 -2.3021 -0.9263
  997MOL0     H31572   8.288   4.459   2.707 -2.9745  5.8268  0.3171
  997MOL0     H31573   8.343   4.413   2.533 -5.3982  0.7665 -0.4841
  997MOL0     H31574   8.302   4.650   2.499  0.7636  0.1202 -1.6483
  997MOL0     H31575   8.461   4.663   2.540 -1.6031  1.9626 -2.0808
  997MOL0     H31576   8.234   4.684   2.747  0.4518  1.3192  2.2483
  997MOL0     H31577   8.397   4.728   2.781 -0.5122  2.4207 -0.8633
  997MOL0     H31578   8.255   4.860   2.538  2.1902 -1.3977 -1.3772
  997MOL0     H31579   8.408   4.911   2.610  0.3417  2.3985  1.2072
  997MOL0     H31580   8.143   4.925   2.751 -2.7642  3.5220 -1.7280
  997MOL0     H31581   8.212   5.063   2.666 -2.3495  0.3119  0.9238
  997MOL0     H31582   8.253   5.049   2.933  1.1678  0.6705  1.7078
  997MOL0     H31583   8.344   4.908   2.899  0.0145 -1.1613 -2.0509
  997MOL0     H31584   8.517   5.011   2.786  2.3282  2.6129 -1.1407
  997MOL0     H31585   8.473   5.118   2.927  0.9467  1.1626 -0.7535
  997MOL0     H31586   8.729   4.224   2.482  0.1107  0.2782 -0.4201
  997MOL0     H31587   8.955   4.167   2.567 -3.3311 -1.2788  0.5708
  997MOL0     H31588   9.445   4.566   2.568  0.7577 -0.8257 -1.6381
  997MOL0     H31589   9.674   4.542   2.649  0.0843  0.7994  1.3154
  997MOL0     H31590   9.197   4.723   3.727  3.9691  0.8401  3.6778
  997MOL0     H31591   8.970   4.637   3.680 -0.4905  1.5863  2.9659
  997MOL0     H31592   8.649   4.310   3.700  2.5581 -1.8065  0.1780
  997MOL0     H31593   8.438   4.278   3.582  0.8378  0.9968 -0.3262
  997MOL0     H31594   8.481   3.961   3.268  1.8624  0.9877 -0.1963
  997MOL0     H31595   8.465   4.101   3.162 -0.1607 -0.0885 -0.5377
  997MOL0     H31596   8.221   4.118   3.207 -2.2979 -1.1576  1.0634
  997MOL0     H31597   8.280   3.976   3.111  4.9876  0.9775  0.4539
  997MOL0     H31598   8.104   3.900   3.305  0.2027 -2.1343 -0.6392
  997MOL0     H31599   8.223   3.972   3.417  1.2250 -1.3401  0.1440
  997MOL0     H31600   8.366   3.770   3.378 -0.6306  0.0307  1.2724
  997MOL0     H31601   8.197   3.710   3.375 -2.0999 -0.4986 -0.9615
  997MOL0     H31602   8.378   3.653   2.984  3.8675 -4.1891  1.6590
  997MOL0     H31603   8.663   4.097   3.258  2.1862 -0.8776  0.7385
  997MOL0     H31604   8.875   4.155   3.375  1.8207  0.7768  1.8137
  998MOL0     O31605  10.622  11.139   2.875 -0.1608 -0.0194  0.2154
  998MOL0     C31606  10.682  11.140   2.771 -0.0410  0.1292  0.5803
  998MOL0     O31607  10.680  11.037   2.684  0.3188  0.1998  0.1604
  998MOL0     C31608  10.574  10.950   2.708  0.6929 -0.0062 -0.0743
  998MOL0     C31609  10.450  10.966   2.653  0.7981 -0.3024 -0.4967
  998MOL0     C31610  10.350  10.870   2.654  0.1394 -0.3369 -0.4094
  998MOL0     C31611  10.368  10.758   2.738 -0.4518 -0.4631  0.2985
  998MOL0     O31612  10.270  10.663   2.743 -0.4521  0.0571  0.3340
  998MOL0     C31613  10.214  10.638   2.871 -0.4456 -0.8874  0.1825
  998MOL0     C31614  10.129  10.511   2.874 -0.8733 -0.6921 -0.0778
  998MOL0     C31615  10.206  10.395   2.934  0.2226 -0.5716  0.7454
  998MOL0     C31616  10.120  10.272   2.939  0.2503 -0.5873  0.2545
  998MOL0     C31617  10.018  10.272   3.059 -0.3020 -0.8486 -0.1428
  998MOL0     C31618   9.905  10.177   3.038  0.8157 -0.3813  0.2456
  998MOL0     C31619   9.822  10.166   3.171  0.8534 -0.1172 -0.3144
  998MOL0     C31620   9.693  10.070   3.156 -0.2821 -0.4809  0.2589
  998MOL0     N31621   9.743   9.933   3.157 -0.7322  0.0013 -0.1191
  998MOL0     C31622   9.816   9.872   3.260 -0.3373 -0.3018  1.0654
  998MOL0     C31623   9.873   9.756   3.212 -0.9280 -0.5959 -0.1604
  998MOL0     C31624   9.945   9.652   3.294 -0.0611 -0.0911  0.6989
  998MOL0     C31625  10.034   9.558   3.209 -0.0307 -0.2520 -1.1308
  998MOL0     C31626  10.157   9.635   3.161 -0.0837 -0.1830  0.0251
  998MOL0     C31627  10.270   9.612   3.251  0.8183  0.3507 -1.0343
  998MOL0     O31628  10.385   9.667   3.190  0.6825  0.3000  0.9906
  998MOL0     C31629  10.410   9.804   3.189 -0.5784  0.1259  0.3537
  998MOL0     C31630  10.521   9.845   3.105 -0.3465  0.4761 -0.1356
  998MOL0     C31631  10.551   9.980   3.082  0.5030  0.5094  0.1353
  998MOL0     C31632  10.461  10.073   3.141  0.0736 -0.3898  0.0722
  998MOL0     C31633  10.470  10.221   3.121 -0.5424  0.4838 -0.3574
  998MOL0     O31634  10.546  10.267   3.012  0.3509  0.2032  0.0819
  998MOL0     C31635  10.618  10.384   3.014  1.0734 -0.5261 -0.2968
  998MOL0     C31636  10.681  10.411   2.895  0.7239 -0.3299  0.0673
  998MOL0     C31637  10.771  10.520   2.887 -0.0045 -0.0354 -0.4263
  998MOL0     C31638  10.810  10.605   2.995  0.5266  0.1901 -0.7343
  998MOL0     O31639  10.921  10.690   2.976  0.1922 -0.4459 -0.2957
  998MOL0     C31640  10.940  10.788   3.081 -0.4682  0.7624 -0.9936
  998MOL0     C31641  11.047  10.892   3.045 -0.6594  0.8843  0.0049
  998MOL0     C31642  11.019  10.986   2.913  1.0749  0.1106  0.1548
  998MOL0     C31643  11.073  10.909   2.783  0.1729 -0.1404  0.3252
  998MOL0     C31644  11.068  11.000   2.663  0.1580 -0.0213 -0.7756
  998MOL0     C31645  11.105  10.914   2.540  0.3686 -0.3939 -0.5638
  998MOL0     C31646  11.197  10.996   2.441  0.7134 -1.5112  0.7206
  998MOL0     C31647  11.119  11.042   2.316  0.6250  0.4858  0.2746
  998MOL0    Cl31648  10.945  11.095   2.356  0.5228 -0.6231  0.6073
  998MOL0     C31649  10.739  10.579   3.111 -0.2964  0.5837  0.2355
  998MOL0     C31650  10.640  10.480   3.115  0.4976 -0.4047  0.4238
  998MOL0     O31651  10.408  10.290   3.192 -0.3045 -0.2258  0.4004
  998MOL0     C31652  10.370  10.033   3.243 -0.5519  0.6177 -1.1809
  998MOL0     C31653  10.336   9.902   3.262 -0.6169 -0.4647  0.3142
  998MOL0     N31654   9.831   9.751   3.083  0.8544  1.2320  0.4066
  998MOL0     N31655   9.756   9.850   3.046  0.1942  1.0852 -0.6308
  998MOL0     C31656  10.499  10.744   2.796  0.9755  0.3337  0.4283
  998MOL0     C31657  10.603  10.838   2.786 -0.0299 -0.2859 -0.3027
  998MOL0     C31658  10.743  11.266   2.729 -0.7151  0.9279  1.0804
  998MOL0     C31659  10.787  11.291   2.588 -0.6944  0.1739 -0.0711
  998MOL0     C31660  10.832  11.423   2.559  0.4634  0.1946  0.8136
  998MOL0     C31661  10.848  11.519   2.653  0.1660  0.3738  0.0666
  998MOL0     O31662  10.893  11.640   2.606  0.4162 -0.3184 -0.0888
  998MOL0     C31663  10.948  11.726   2.712  0.4778 -0.2186  0.7613
  998MOL0     C31664  11.002  11.843   2.616  0.0274  0.2093 -1.0748
  998MOL0     C31665  11.128  11.805   2.533  1.0406  0.6342  0.4314
  998MOL0     C31666  11.251  11.852   2.600  0.7192 -0.4980  0.5860
  998MOL0     C31667  11.271  11.769   2.719 -0.3269  0.1472 -0.4396
  998MOL0     C31668  11.290  11.699   2.819  0.4027 -0.4420 -0.6530
  998MOL0     C31669  10.816  11.485   2.788  0.2842  0.4238 -0.2414
  998MOL0     C31670  10.762  11.362   2.824  0.1673 -0.3673  0.4515
  998MOL0     H31671  10.428  11.060   2.604  1.8723  0.2574  0.0626
  998MOL0     H31672  10.262  10.886   2.592  0.2769  0.3649 -0.4243
  998MOL0     H31673  10.154  10.724   2.900 -1.4562 -1.1397 -1.0878
  998MOL0     H31674  10.296  10.639   2.944  2.5822  2.1667 -2.9113
  998MOL0     H31675  10.107  10.494   2.768  1.2111  0.5739 -0.7724
  998MOL0     H31676  10.040  10.528   2.936 -0.6937  0.0522 -0.0196
  998MOL0     H31677  10.258  10.429   3.024 -0.2475 -1.3798  1.3325
  998MOL0     H31678  10.282  10.376   2.856  0.5021  2.7752  0.0763
  998MOL0     H31679  10.075  10.261   2.840  0.2999 -1.1138  0.2857
  998MOL0     H31680  10.183  10.183   2.947  0.2510 -0.6462 -0.3182
  998MOL0     H31681   9.983  10.374   3.077 -0.5760 -1.0308  0.4054
  998MOL0     H31682  10.073  10.236   3.147  0.0716 -1.4314 -0.6125
  998MOL0     H31683   9.950  10.080   3.019  1.7551 -0.2066  1.4700
  998MOL0     H31684   9.841  10.195   2.951 -0.0030  0.0847  0.9225
  998MOL0     H31685   9.881  10.127   3.255  0.9840 -1.8326 -1.1724
  998MOL0     H31686   9.783  10.265   3.195 -0.1124 -0.1325 -1.7377
  998MOL0     H31687   9.639  10.084   3.062  1.7771 -0.6455 -0.9985
  998MOL0     H31688   9.623  10.090   3.238 -0.2038  1.3453 -0.0972
  998MOL0     H31689   9.822   9.905   3.363 -0.3646 -0.9172  1.2657
  998MOL0     H31690   9.871   9.599   3.354 -0.4972 -1.3792 -0.8966
  998MOL0     H31691  10.010   9.708   3.362 -2.4340  2.4403  1.0690
  998MOL0     H31692   9.968   9.521   3.130 -0.6609  0.5013 -0.9640
  998MOL0     H31693  10.068   9.480   3.278  0.0938  0.3999 -0.4465
  998MOL0     H31694  10.178   9.581   3.068 -1.9003 -2.0172  0.6064
  998MOL0     H31695  10.131   9.740   3.146 -1.3847 -0.4599  0.2143
  998MOL0     H31696  10.281   9.504   3.262  0.4699  0.1817 -2.1377
  998MOL0     H31697  10.248   9.651   3.351 -1.9755 -4.3840  0.5142
  998MOL0     H31698  10.582   9.774   3.050 -2.1313 -0.6862 -0.7290
  998MOL0     H31699  10.625  10.007   3.007 -0.5043  2.3879 -0.2487
  998MOL0     H31700  10.657  10.339   2.817 -0.3651 -0.7421  0.7580
  998MOL0     H31701  10.809  10.554   2.791 -1.4534  0.7404 -0.7612
  998MOL0     H31702  10.958  10.747   3.181 -1.7208  0.2391 -0.9719
  998MOL0     H31703  10.844  10.837   3.097  0.6333  1.9609  3.0300
  998MOL0     H31704  11.144  10.840   3.050 -0.8310  0.7293  2.7356
  998MOL0     H31705  11.042  10.962   3.128 -1.3647 -2.1189  2.7039
  998MOL0     H31706  11.057  11.087   2.927  2.1212 -0.4666  1.8334
  998MOL0     H31707  10.914  10.992   2.886  1.8698 -1.3999 -3.9912
  998MOL0     H31708  11.179  10.887   2.795 -0.0858 -1.3292  0.4906
  998MOL0     H31709  11.027  10.811   2.774  1.7493 -0.7829 -1.3662
  998MOL0     H31710  11.128  11.091   2.669  0.8911 -0.5160 -0.4369
  998MOL0     H31711  10.965  11.037   2.659  0.4051  1.4349  2.4357
  998MOL0     H31712  11.020  10.870   2.488 -3.2261  3.8009  1.1388
  998MOL0     H31713  11.172  10.833   2.570  1.4301  0.4885 -0.5071
  998MOL0     H31714  11.241  11.083   2.489 -3.2038  0.3782  1.2934
  998MOL0     H31715  11.273  10.930   2.398  0.9235 -0.7984 -0.0216
  998MOL0     H31716  11.112  10.960   2.243  0.2833  2.6050 -2.1971
  998MOL0     H31717  11.166  11.130   2.272 -0.8950  1.5046  0.6338
  998MOL0     H31718  10.743  10.636   3.203 -1.5888 -1.2640  1.5150
  998MOL0     H31719  10.585  10.469   3.208 -1.3441 -2.4445 -0.8186
  998MOL0     H31720  10.312  10.110   3.292 -0.1192 -0.8692  1.8706
  998MOL0     H31721  10.258   9.866   3.329 -0.0098  2.4612  2.7755
  998MOL0     H31722  10.513  10.650   2.849  3.2336 -0.1881 -0.9549
  998MOL0     H31723  10.690  10.805   2.842 -3.0090 -2.6233  3.3526
  998MOL0     H31724  10.774  11.211   2.515 -2.4935  1.3516 -1.0933
  998MOL0     H31725  10.860  11.437   2.456 -0.1290 -0.7344  0.5095
  998MOL0     H31726  11.020  11.678   2.779  0.3698 -2.3155 -0.5310
  998MOL0     H31727  10.862  11.762   2.770 -0.8089 -0.8533 -0.6844
  998MOL0     H31728  10.927  11.880   2.545  0.2560  0.1393 -1.3552
  998MOL0     H31729  11.023  11.927   2.684 -2.3976 -0.4417  0.6109
  998MOL0     H31730  11.108  11.844   2.432 -2.1309  1.2067  1.1745
  998MOL0     H31731  11.136  11.697   2.518 -1.7558  0.1680  1.6693
  998MOL0     H31732  11.343  11.836   2.543 -0.4577 -0.3708 -1.4333
  998MOL0     H31733  11.246  11.955   2.635 -0.8899 -0.7874  1.3182
  998MOL0     H31734  11.309  11.626   2.896 -0.6202 -2.6309 -2.3468
  998MOL0     H31735  10.832  11.559   2.867  0.5748 -1.4768  1.5648
  998MOL0     H31736  10.735  11.359   2.929 -2.6400 -2.0535 -0.2174
  999MOL0     O31737   9.705   7.444   9.362  0.4972 -0.0973 -0.2103
  999MOL0     C31738   9.684   7.388   9.472  0.5692  0.0487  0.1576
  999MOL0     O31739   9.567   7.364   9.525 -0.8106  0.2225 -0.1357
  999MOL0     C31740   9.462   7.396   9.446 -0.0466  0.1741 -0.5732
  999MOL0     C31741   9.384   7.300   9.379  0.1641  0.6340  0.3355
  999MOL0     C31742   9.277   7.330   9.295 -0.0249 -0.3990  0.9181
  999MOL0     C31743   9.236   7.463   9.305 -0.4195  0.0359  0.2622
  999MOL0     O31744   9.118   7.507   9.238  0.7104 -0.3140 -0.4214
  999MOL0     C31745   9.003   7.425   9.283  0.6004 -0.7760  0.8503
  999MOL0     C31746   8.866   7.468   9.219 -0.1294 -0.4232 -0.3142
  999MOL0     C31747   8.876   7.437   9.073 -0.1761  0.2780  0.6245
  999MOL0     C31748   8.751   7.420   9.002  0.1964  0.6954 -1.2571
  999MOL0     C31749   8.779   7.431   8.851 -0.0237  0.6082 -0.2811
  999MOL0     C31750   8.670   7.358   8.770  0.0724  0.1200 -0.9421
  999MOL0     C31751   8.681   7.387   8.629 -0.1350  1.2858  0.5884
  999MOL0     C31752   8.622   7.527   8.604 -0.2445  0.3737  0.0917
  999MOL0     N31753   8.608   7.565   8.462  0.3098 -0.0678 -0.0977
  999MOL0     C31754   8.598   7.694   8.408  0.5078 -0.1539 -0.4487
  999MOL0     C31755   8.552   7.688   8.272  0.4684  0.1723 -0.0828
  999MOL0     C31756   8.520   7.806   8.185  0.1642 -0.4188  0.3227
  999MOL0     C31757   8.544   7.754   8.038 -0.3427 -0.0448 -0.8843
  999MOL0     C31758   8.552   7.866   7.933  0.8774  1.1251  0.0653
  999MOL0     C31759   8.428   7.875   7.843 -0.2293 -0.0848 -1.0286
  999MOL0     O31760   8.312   7.870   7.932  0.2201  0.0750  0.7514
  999MOL0     C31761   8.199   7.938   7.896 -0.4178  0.3566 -0.4747
  999MOL0     C31762   8.107   7.973   7.992 -0.4356  0.3813 -0.1085
  999MOL0     C31763   7.997   8.058   7.963 -1.2349  0.1049 -1.0999
  999MOL0     C31764   7.963   8.072   7.827  0.2806  0.4091  0.0710
  999MOL0     C31765   7.846   8.162   7.796  0.4397  0.1605  0.1871
  999MOL0     O31766   7.772   8.221   7.896  0.3402 -0.2520 -0.1081
  999MOL0     C31767   7.665   8.305   7.870  0.2656  0.5044  0.3576
  999MOL0     C31768   7.574   8.283   7.763  0.2086  0.0531 -0.2991
  999MOL0     C31769   7.461   8.367   7.748  0.1533 -0.7125  0.3966
  999MOL0     C31770   7.449   8.473   7.842 -0.2118  0.6877 -0.4190
  999MOL0     O31771   7.346   8.563   7.841  0.8753 -0.0810  0.1053
  999MOL0     C31772   7.278   8.587   7.717 -0.5616  0.2180  0.0601
  999MOL0     C31773   7.355   8.670   7.612  0.0328 -1.0952  0.0897
  999MOL0     C31774   7.274   8.707   7.490  0.1599  0.6017  0.1705
  999MOL0     C31775   7.252   8.601   7.379 -0.0408 -0.0649  0.4760
  999MOL0     C31776   7.221   8.672   7.241  0.0573 -0.0890 -1.2780
  999MOL0     C31777   7.078   8.711   7.198  0.3904 -0.0079  0.5366
  999MOL0     C31778   7.070   8.821   7.088  0.0237 -1.6653 -0.3099
  999MOL0     C31779   7.120   8.762   6.963 -0.1735  0.2501  0.7120
  999MOL0    Cl31780   7.131   8.880   6.825  0.0461 -0.1034  0.1208
  999MOL0     C31781   7.531   8.492   7.951 -0.3081  0.4719 -0.2337
  999MOL0     C31782   7.650   8.412   7.955  0.8476 -0.8929 -0.5221
  999MOL0     O31783   7.830   8.174   7.672 -0.3819 -0.0248 -0.2440
  999MOL0     C31784   8.053   8.023   7.732 -0.0468  0.3393  0.3556
  999MOL0     C31785   8.173   7.950   7.769  0.3454 -0.0578 -0.0269
  999MOL0     N31786   8.532   7.549   8.249 -0.3995 -1.9055 -0.5400
  999MOL0     N31787   8.571   7.480   8.351  0.8072 -1.1544 -1.0074
  999MOL0     C31788   9.305   7.561   9.372  0.0713 -0.5887 -0.5817
  999MOL0     C31789   9.415   7.525   9.453 -0.0178 -0.0645 -0.4593
  999MOL0     C31790   9.805   7.346   9.562 -0.0676 -0.7118 -0.8245
  999MOL0     C31791   9.926   7.340   9.502  0.2737 -0.3467 -0.4832
  999MOL0     C31792  10.038   7.315   9.576 -1.0266 -0.2653 -0.1095
  999MOL0     C31793  10.035   7.291   9.714  0.1167  0.0820 -0.7714
  999MOL0     O31794  10.156   7.288   9.792 -0.1079  0.1347 -0.4472
  999MOL0     C31795  10.171   7.328   9.928 -0.8215  0.6573  0.2543
  999MOL0     C31796  10.134   7.484   9.945 -0.3456  0.0577 -0.3290
  999MOL0     C31797  10.249   7.576   9.921  0.5611 -0.5455  1.3633
  999MOL0     C31798  10.233   7.719   9.962  0.8446 -0.2814 -0.2541
  999MOL0     C31799  10.110   7.778   9.913  0.6571 -0.5831  0.6485
  999MOL0     C31800   9.997   7.814   9.865 -1.4728 -0.9705 -0.0540
  999MOL0     C31801   9.917   7.308   9.780 -0.2416  0.6595  0.6715
  999MOL0     C31802   9.806   7.333   9.699  0.3316 -0.6644  1.0910
  999MOL0     H31803   9.420   7.198   9.387  0.6985  0.8619  0.8743
  999MOL0     H31804   9.218   7.258   9.239  1.2733  0.6525 -2.0522
  999MOL0     H31805   8.995   7.427   9.392  3.3058 -0.3212  1.1053
  999MOL0     H31806   9.016   7.324   9.244  1.3237  0.3045 -1.9230
  999MOL0     H31807   8.851   7.573   9.245  2.5825 -0.6946  3.1398
  999MOL0     H31808   8.784   7.416   9.270  0.0318  1.1192  1.6615
  999MOL0     H31809   8.927   7.341   9.059 -0.9035  0.2396 -2.5012
  999MOL0     H31810   8.938   7.510   9.020 -0.3889 -0.0425 -0.0632
  999MOL0     H31811   8.706   7.329   9.042 -0.0388  2.6691  3.5111
  999MOL0     H31812   8.692   7.507   9.029  1.8821  1.5894 -0.3409
  999MOL0     H31813   8.869   7.380   8.814  2.9112  3.6549  1.9629
  999MOL0     H31814   8.795   7.536   8.827 -2.2171  0.7273 -1.3641
  999MOL0     H31815   8.573   7.393   8.805 -0.1796 -2.3040  1.0797
  999MOL0     H31816   8.663   7.250   8.784 -1.3305  0.1942 -0.9499
  999MOL0     H31817   8.786   7.390   8.596 -0.1735  4.6088  0.3574
  999MOL0     H31818   8.630   7.308   8.574 -2.2935  1.3510  2.3863
  999MOL0     H31819   8.659   7.603   8.673 -0.3376  0.4857  0.0184
  999MOL0     H31820   8.518   7.516   8.636  0.0157  0.0100  0.8323
  999MOL0     H31821   8.619   7.784   8.464  0.5819  2.0861 -3.7684
  999MOL0     H31822   8.590   7.887   8.205  0.5740 -0.6948  0.0353
  999MOL0     H31823   8.414   7.831   8.193 -0.8851 -3.9876 -0.1905
  999MOL0     H31824   8.465   7.680   8.022  1.7428 -2.5355 -0.2944
  999MOL0     H31825   8.636   7.695   8.039 -0.4155 -0.1645  0.4657
  999MOL0     H31826   8.563   7.966   7.976  3.3291  0.1973  1.8778
  999MOL0     H31827   8.629   7.837   7.861 -0.9753 -0.0138 -1.5562
  999MOL0     H31828   8.424   7.792   7.772 -3.7763 -1.8294  0.9120
  999MOL0     H31829   8.429   7.970   7.789  0.1706 -0.4597 -1.6855
  999MOL0     H31830   8.138   7.939   8.091 -0.1244 -2.0304 -0.9571
  999MOL0     H31831   7.922   8.084   8.036 -0.2850  1.2085 -0.4860
  999MOL0     H31832   7.597   8.195   7.705  1.4435  0.5602 -0.6299
  999MOL0     H31833   7.397   8.344   7.664  0.6260  0.1549 -0.2191
  999MOL0     H31834   7.184   8.638   7.739 -1.2923 -1.8005  1.9581
  999MOL0     H31835   7.249   8.492   7.670  0.9930  0.1144 -0.7748
  999MOL0     H31836   7.453   8.629   7.587 -0.3568 -0.8181 -2.0663
  999MOL0     H31837   7.386   8.754   7.674 -1.2058 -1.6839  1.5828
  999MOL0     H31838   7.322   8.784   7.429 -2.3239  0.6565 -1.8455
  999MOL0     H31839   7.179   8.750   7.523  0.6866  1.1461  1.0350
  999MOL0     H31840   7.338   8.534   7.373  1.7578  2.2044 -0.7032
  999MOL0     H31841   7.173   8.528   7.402 -0.3370 -0.0836 -0.5595
  999MOL0     H31842   7.263   8.611   7.161  0.3598 -0.2028 -1.0343
  999MOL0     H31843   7.284   8.762   7.243 -1.7572  1.2559  0.7240
  999MOL0     H31844   7.018   8.747   7.283  0.7016  3.4702 -0.5428
  999MOL0     H31845   7.017   8.632   7.154 -2.0463  4.0860 -4.5821
  999MOL0     H31846   6.968   8.860   7.082  0.1298 -1.2261  0.5718
  999MOL0     H31847   7.126   8.912   7.115  0.0182 -1.6820 -0.2423
  999MOL0     H31848   7.047   8.686   6.934 -1.6969  1.8397  0.2219
  999MOL0     H31849   7.223   8.725   6.973 -0.5403 -1.5306 -1.2930
  999MOL0     H31850   7.524   8.566   8.030 -0.8660 -0.4347  0.5788
  999MOL0     H31851   7.709   8.440   8.042  0.7350 -2.4732  0.0908
  999MOL0     H31852   8.046   8.047   7.627  0.7116  0.9423  0.4271
  999MOL0     H31853   8.237   7.928   7.684 -2.6518 -0.1499 -2.4580
  999MOL0     H31854   9.276   7.665   9.378  0.6274 -0.5061  1.3286
  999MOL0     H31855   9.464   7.604   9.510 -2.4692  2.4783 -1.6183
  999MOL0     H31856   9.947   7.354   9.396  2.4464 -0.2985 -0.1058
  999MOL0     H31857  10.133   7.317   9.523 -2.0926  1.5377 -2.1138
  999MOL0     H31858  10.277   7.303   9.942 -1.5514 -5.5020 -2.2099
  999MOL0     H31859  10.113   7.274  10.003  0.2396  3.5148  3.3668
  999MOL0     H31860  10.055   7.502   9.872  1.2443  2.9623 -1.5203
  999MOL0     H31861  10.095   7.516  10.042  2.1580 -1.5929  1.3486
  999MOL0     H31862  10.280   7.570   9.816  2.3514 -0.7978  1.8637
  999MOL0     H31863  10.332   7.532   9.978  0.4436 -1.0991  1.1060
  999MOL0     H31864  10.231   7.731  10.070 -1.7747 -0.1298 -0.2558
  999MOL0     H31865  10.319   7.767   9.915  0.6992  0.0491 -0.1901
  999MOL0     H31866   9.903   7.840   9.821 -2.2489 -3.1873  0.1646
  999MOL0     H31867   9.922   7.312   9.888  0.1999 -0.5174  0.7107
  999MOL0     H31868   9.705   7.340   9.740  1.0208 -0.2656  2.8379
 1000MOL0     O31869   7.840   8.001   0.450  0.1128 -0.5178 -0.9956
 1000MOL0     C31870   7.859   8.069   0.544  0.6491  0.4624  0.2472
 1000MOL0     O31871   7.977   8.095   0.585  0.1058 -0.2998 -0.7604
 1000MOL0     C31872   8.083   8.038   0.527 -0.1148  0.2372 -0.5899
 1000MOL0     C31873   8.114   7.903   0.496  0.6455 -0.1018 -0.2802
 1000MOL0     C31874   8.228   7.855   0.436  0.3190  0.0980  0.6131
 1000MOL0     C31875   8.336   7.952   0.423  0.2746 -0.6424 -0.3591
 1000MOL0     O31876   8.456   7.927   0.364  0.6298  0.6421  0.0041
 1000MOL0     C31877   8.468   7.821   0.277 -0.8580  0.5605 -0.1409
 1000MOL0     C31878   8.620   7.786   0.256  0.1607 -0.9516  0.6762
 1000MOL0     C31879   8.699   7.915   0.226  0.0449 -0.7012  0.5524
 1000MOL0     C31880   8.846   7.887   0.196 -0.0667  0.3578 -0.5724
 1000MOL0     C31881   8.887   7.815   0.063 -0.5250 -0.5190  0.7908
 1000MOL0     C31882   9.034   7.769   0.050  0.7528  0.8838 -0.2882
 1000MOL0     C31883   9.044   7.689  -0.079  0.1990 -0.5979  0.8345
 1000MOL0     C31884   9.192   7.663  -0.102  0.6868  0.1874  0.7829
 1000MOL0     N31885   9.207   7.588  -0.230  0.3707 -0.0908 -0.1464
 1000MOL0     C31886   9.186   7.645  -0.358 -0.9772  0.5122 -0.5465
 1000MOL0     C31887   9.214   7.549  -0.444  0.2827  0.1446  0.5178
 1000MOL0     C31888   9.206   7.565  -0.593  0.0542 -1.4236 -0.5179
 1000MOL0     C31889   9.219   7.439  -0.656 -0.2520 -0.1913  0.0469
 1000MOL0     C31890   9.218   7.448  -0.815 -0.6579  1.1156  0.0127
 1000MOL0     C31891   9.086   7.473  -0.875 -0.3127  0.5863 -0.0247
 1000MOL0     O31892   8.983   7.376  -0.851  0.0964  0.5163 -0.0327
 1000MOL0     C31893   8.857   7.397  -0.889  0.4425 -0.2743 -0.3520
 1000MOL0     C31894   8.752   7.308  -0.853  0.7916  0.9527 -0.6647
 1000MOL0     C31895   8.615   7.337  -0.879  0.1249 -0.6966 -0.3322
 1000MOL0     C31896   8.584   7.461  -0.933  0.5458  1.1632  0.6655
 1000MOL0     C31897   8.446   7.486  -0.968 -0.2232  0.0020  0.1668
 1000MOL0     O31898   8.360   7.447  -0.867  0.4489  0.0524  0.8894
 1000MOL0     C31899   8.228   7.439  -0.897  0.4297  0.4844  0.1728
 1000MOL0     C31900   8.159   7.565  -0.912  0.5549 -0.0912  0.4442
 1000MOL0     C31901   8.021   7.564  -0.933  1.5192  0.2053  0.2843
 1000MOL0     C31902   7.952   7.445  -0.940  0.3441  0.7640  0.7105
 1000MOL0     O31903   7.827   7.462  -0.980  0.3504  0.1518  0.1515
 1000MOL0     C31904   7.739   7.377  -0.915 -0.3820 -0.5522  0.7402
 1000MOL0     C31905   7.625   7.466  -0.865  0.0698 -0.2972 -0.3570
 1000MOL0     C31906   7.515   7.489  -0.967 -0.3282 -0.2525 -0.5925
 1000MOL0     C31907   7.400   7.583  -0.917 -0.0310  0.4658 -0.1550
 1000MOL0     C31908   7.280   7.508  -0.858 -0.8716 -0.5826 -0.1823
 1000MOL0     C31909   7.202   7.609  -0.784 -0.4490  0.0354 -0.8250
 1000MOL0     C31910   7.119   7.709  -0.864  0.6792 -0.6885 -0.0100
 1000MOL0     C31911   7.010   7.656  -0.949 -0.1017 -0.0851 -0.0784
 1000MOL0    Cl31912   6.917   7.530  -0.866  0.0286  0.0405  0.3935
 1000MOL0     C31913   8.025   7.319  -0.925 -0.4734 -0.2902  0.4143
 1000MOL0     C31914   8.165   7.317  -0.900  0.3447 -0.5281  0.1242
 1000MOL0     O31915   8.413   7.511  -1.085  0.2221 -0.1384 -0.4188
 1000MOL0     C31916   8.680   7.548  -0.977  0.3420 -0.1378  0.3647
 1000MOL0     C31917   8.812   7.510  -0.958  0.0169  0.1990  0.2459
 1000MOL0     N31918   9.230   7.429  -0.376 -0.1531  0.1639 -0.2347
 1000MOL0     N31919   9.225   7.451  -0.242  0.0822 -0.2948 -0.1577
 1000MOL0     C31920   8.315   8.085   0.464  0.9103  1.0196  0.1573
 1000MOL0     C31921   8.192   8.128   0.516  1.1228  0.7760  0.7165
 1000MOL0     C31922   7.746   8.132   0.604  0.2322  0.3646  0.7686
 1000MOL0     C31923   7.744   8.161   0.743  0.6321 -0.7676 -1.0203
 1000MOL0     C31924   7.635   8.229   0.805  0.6844  0.1938 -0.6285
 1000MOL0     C31925   7.523   8.256   0.730 -0.2723  0.1606 -0.1353
 1000MOL0     O31926   7.421   8.320   0.794  0.2241 -0.0321  0.1857
 1000MOL0     C31927   7.291   8.343   0.735  0.1628 -0.8917  0.1412
 1000MOL0     C31928   7.192   8.230   0.756 -0.5322  0.4125 -0.9652
 1000MOL0     C31929   7.061   8.277   0.687  0.5960 -0.6852  0.3936
 1000MOL0     C31930   6.961   8.158   0.688  1.1309 -0.5563  0.1753
 1000MOL0     C31931   6.929   8.108   0.822  0.1032 -1.0864  0.1913
 1000MOL0     C31932   6.905   8.067   0.933  0.0295 -0.1182  0.4374
 1000MOL0     C31933   7.525   8.224   0.594  0.0160  0.0623 -0.3984
 1000MOL0     C31934   7.633   8.159   0.532  0.4720 -0.0410  0.5771
 1000MOL0     H31935   8.033   7.833   0.509 -1.8885  2.3522 -1.7574
 1000MOL0     H31936   8.230   7.750   0.407 -0.2207 -0.1853  1.5345
 1000MOL0     H31937   8.416   7.841   0.183 -2.7681 -0.4181  0.6599
 1000MOL0     H31938   8.425   7.730   0.319 -0.9925  0.5326 -0.3399
 1000MOL0     H31939   8.647   7.710   0.182  1.0023 -1.6327  1.6477
 1000MOL0     H31940   8.639   7.735   0.351  0.3576 -0.9125  0.6584
 1000MOL0     H31941   8.694   7.991   0.305  0.1043  0.0681 -0.1747
 1000MOL0     H31942   8.665   7.951   0.129  1.8536 -3.9170 -1.4406
 1000MOL0     H31943   8.903   7.980   0.206  2.4761 -1.3881  3.9180
 1000MOL0     H31944   8.889   7.822   0.273  0.3776  1.1523 -0.1316
 1000MOL0     H31945   8.857   7.871  -0.027  1.6097  0.7088  0.7618
 1000MOL0     H31946   8.824   7.726   0.061 -1.0680 -0.1384  0.7322
 1000MOL0     H31947   9.062   7.703   0.133 -1.9257  2.2362  1.8449
 1000MOL0     H31948   9.097   7.859   0.050  1.5392  0.3757  1.5326
 1000MOL0     H31949   8.997   7.590  -0.073  1.2963 -1.0952  1.6692
 1000MOL0     H31950   9.022   7.751  -0.166  1.0420  0.7251  1.5231
 1000MOL0     H31951   9.235   7.596  -0.026  1.0786 -0.9094 -0.3704
 1000MOL0     H31952   9.258   7.749  -0.094  1.0076  0.0017  0.2107
 1000MOL0     H31953   9.169   7.746  -0.394 -0.5877  0.4205 -1.0066
 1000MOL0     H31954   9.286   7.633  -0.621 -0.8132 -0.1578 -0.0240
 1000MOL0     H31955   9.109   7.606  -0.623 -0.4065 -2.0158  0.1259
 1000MOL0     H31956   9.158   7.361  -0.611  0.8780 -3.0854 -3.0113
 1000MOL0     H31957   9.322   7.405  -0.640  0.0536  1.2647  1.5260
 1000MOL0     H31958   9.304   7.507  -0.847  0.3298 -1.1694 -1.8586
 1000MOL0     H31959   9.249   7.344  -0.833 -0.6778  0.7131  2.0980
 1000MOL0     H31960   9.100   7.473  -0.984 -0.7167  0.3515 -0.0789
 1000MOL0     H31961   9.051   7.572  -0.843  0.7139  0.6420  0.9884
 1000MOL0     H31962   8.788   7.216  -0.809  1.4802  0.1367 -2.7918
 1000MOL0     H31963   8.540   7.271  -0.838  0.1992  0.0202  0.9967
 1000MOL0     H31964   8.222   7.653  -0.920  0.1981  0.2705  1.4328
 1000MOL0     H31965   7.962   7.655  -0.934 -1.0744 -1.3453  1.6336
 1000MOL0     H31966   7.790   7.329  -0.831  2.5261  1.0248  0.0118
 1000MOL0     H31967   7.694   7.301  -0.981  0.1724 -0.5378  0.3427
 1000MOL0     H31968   7.670   7.563  -0.840  2.9984 -2.2572  2.7092
 1000MOL0     H31969   7.589   7.427  -0.770  2.9011  1.3516  1.5475
 1000MOL0     H31970   7.471   7.392  -0.993 -3.0029  1.3838 -2.6305
 1000MOL0     H31971   7.544   7.517  -1.069 -1.4654  0.4468 -0.7354
 1000MOL0     H31972   7.441   7.653  -0.844  3.3374 -0.0991 -1.3119
 1000MOL0     H31973   7.356   7.642  -0.998  0.8728 -0.6792 -1.5135
 1000MOL0     H31974   7.318   7.434  -0.787 -0.8803 -0.2452  0.1802
 1000MOL0     H31975   7.205   7.465  -0.925 -1.5988 -2.6369  1.8316
 1000MOL0     H31976   7.264   7.669  -0.717 -0.3021  1.1483 -1.9432
 1000MOL0     H31977   7.144   7.556  -0.708 -0.9272  1.8084  0.0867
 1000MOL0     H31978   7.074   7.774  -0.788 -1.4776  3.9382 -4.6434
 1000MOL0     H31979   7.175   7.782  -0.923 -3.7447  1.8152 -1.5140
 1000MOL0     H31980   7.047   7.610  -1.041 -1.5750  0.5257 -1.0208
 1000MOL0     H31981   6.938   7.731  -0.982 -0.9998 -1.5261 -1.5437
 1000MOL0     H31982   7.975   7.224  -0.935  0.1860 -1.2653  4.4695
 1000MOL0     H31983   8.210   7.220  -0.881  0.2036 -0.1663  2.6878
 1000MOL0     H31984   8.645   7.643  -1.017 -1.6851 -1.9024 -2.4445
 1000MOL0     H31985   8.877   7.588  -0.995  0.3911  0.6113  1.7209
 1000MOL0     H31986   8.398   8.155   0.462  1.2174  0.6391 -1.3080
 1000MOL0     H31987   8.167   8.225   0.558 -1.1506  0.3133  0.6036
 1000MOL0     H31988   7.827   8.144   0.810 -0.4309 -0.8244  0.3120
 1000MOL0     H31989   7.634   8.257   0.910 -2.6337  1.1090 -0.7727
 1000MOL0     H31990   7.297   8.363   0.627  2.4883  0.9617  0.5145
 1000MOL0     H31991   7.257   8.440   0.770  0.3733  0.6982 -3.5701
 1000MOL0     H31992   7.238   8.135   0.725 -0.5263  0.6613 -1.7267
 1000MOL0     H31993   7.168   8.226   0.863 -1.0368 -0.7705 -1.1025
 1000MOL0     H31994   7.075   8.313   0.585 -2.2146 -0.8172 -0.1112
 1000MOL0     H31995   7.005   8.343   0.754 -0.3643 -0.9595 -0.1187
 1000MOL0     H31996   6.878   8.192   0.626  0.8101 -0.4050  0.6790
 1000MOL0     H31997   7.009   8.074   0.638 -1.0458 -0.6286 -1.9524
 1000MOL0     H31998   6.873   8.026   1.027 -2.8321 -1.2667 -0.9209
 1000MOL0     H31999   7.443   8.256   0.530 -1.8790 -1.7309  1.0176
 1000MOL0     H32000   7.613   8.137   0.428  1.5183  1.6165 -0.0173
 1001MOL0     O32001   0.558   7.439   8.862 -0.1801  0.9054 -0.8574
 1001MOL0     C32002   0.616   7.473   8.759 -0.0488 -0.5390 -0.0398
 1001MOL0     O32003   0.669   7.592   8.743  0.0338  0.2446 -0.0359
 1001MOL0     C32004   0.633   7.692   8.823 -0.1291 -0.3419 -0.6398
 1001MOL0     C32005   0.525   7.782   8.788  1.1654  0.2911  0.1548
 1001MOL0     C32006   0.482   7.891   8.875  0.3133 -0.4705  0.1038
 1001MOL0     C32007   0.576   7.935   8.966 -0.9237 -0.1536  0.4138
 1001MOL0     O32008   0.537   8.051   9.027  0.3258 -0.2890 -0.0133
 1001MOL0     C32009   0.639   8.155   9.047  0.5547 -0.5427 -0.1629
 1001MOL0     C32010   0.563   8.283   9.099  0.2007 -0.0567  0.0664
 1001MOL0     C32011   0.614   8.325   9.231  0.1676 -0.5542 -0.0230
 1001MOL0     C32012   0.527   8.422   9.304 -0.4669 -0.2106 -0.0493
 1001MOL0     C32013   0.588   8.492   9.431 -0.0943 -0.6623 -0.3203
 1001MOL0     C32014   0.500   8.612   9.467  0.3209 -0.7518  1.3601
 1001MOL0     C32015   0.510   8.664   9.613  0.1271 -0.3498  0.8729
 1001MOL0     C32016   0.419   8.596   9.717 -0.5597 -0.1513  0.5967
 1001MOL0     N32017   0.283   8.614   9.686  0.4481  0.6001  1.2915
 1001MOL0     C32018   0.210   8.729   9.691  0.8622 -0.6364  0.7046
 1001MOL0     C32019   0.079   8.695   9.669 -0.9419 -0.3096 -1.0973
 1001MOL0     C32020  -0.046   8.775   9.650 -0.0723  0.0437  0.8474
 1001MOL0     C32021  -0.021   8.921   9.612 -0.0661 -0.4174  0.3680
 1001MOL0     C32022   0.076   8.961   9.497 -0.3521  0.5302  0.1838
 1001MOL0     C32023   0.061   8.867   9.379  0.1064 -0.5599  0.8252
 1001MOL0     O32024   0.172   8.868   9.287 -0.2036 -0.5379 -0.1934
 1001MOL0     C32025   0.185   8.767   9.190 -1.1636  0.2692 -0.5584
 1001MOL0     C32026   0.091   8.690   9.134  0.6400 -0.1361  0.2678
 1001MOL0     C32027   0.115   8.600   9.024 -0.5615 -0.0562 -1.0900
 1001MOL0     C32028   0.245   8.587   8.972  0.5693  1.0091  0.0286
 1001MOL0     C32029   0.275   8.499   8.856  0.0513 -0.1498 -0.1732
 1001MOL0     O32030   0.196   8.389   8.840  0.2379  0.4822  0.5004
 1001MOL0     C32031   0.224   8.319   8.731 -0.1901 -0.6675  0.4128
 1001MOL0     C32032   0.155   8.339   8.608  0.3383 -0.0438  0.0071
 1001MOL0     C32033   0.190   8.276   8.488  0.4592 -0.0008  0.0041
 1001MOL0     C32034   0.299   8.182   8.495  0.1422  0.4547  0.3169
 1001MOL0     O32035   0.365   8.126   8.390 -0.2164 -0.1039  0.6177
 1001MOL0     C32036   0.420   8.208   8.288 -0.2178  0.5518  0.2453
 1001MOL0     C32037   0.441   8.140   8.156  0.3847 -0.1234  0.9851
 1001MOL0     C32038   0.295   8.143   8.091 -0.0193  0.3178 -0.8159
 1001MOL0     C32039   0.304   8.052   7.959  1.1397  0.2696  1.1446
 1001MOL0     C32040   0.313   8.156   7.837  0.1373  0.8952 -0.4568
 1001MOL0     C32041   0.305   8.072   7.710 -0.4664  0.1622  0.3709
 1001MOL0     C32042   0.319   8.148   7.578 -0.0807 -0.0211 -0.7372
 1001MOL0     C32043   0.466   8.144   7.528 -0.4081  0.2843  0.0054
 1001MOL0    Cl32044   0.527   7.982   7.482  0.4001 -0.1641  0.2491
 1001MOL0     C32045   0.354   8.150   8.620  0.0533 -0.4401 -0.2831
 1001MOL0     C32046   0.327   8.221   8.735  0.3110  1.1748 -0.7575
 1001MOL0     O32047   0.371   8.538   8.795 -0.3333 -0.5324  0.4071
 1001MOL0     C32048   0.349   8.652   9.045 -0.4063 -1.1997  0.1462
 1001MOL0     C32049   0.320   8.741   9.158  0.1052  0.7876  0.2110
 1001MOL0     N32050   0.086   8.565   9.634 -0.5827  0.2123 -0.0162
 1001MOL0     N32051   0.202   8.512   9.656 -0.4371  0.6750  0.1155
 1001MOL0     C32052   0.701   7.868   8.981 -0.1824 -0.4509  1.0739
 1001MOL0     C32053   0.725   7.741   8.920  0.1077 -0.4105  0.5228
 1001MOL0     C32054   0.625   7.365   8.646 -0.2896  0.1237 -0.0329
 1001MOL0     C32055   0.571   7.243   8.661  0.6474 -0.1352  0.0022
 1001MOL0     C32056   0.594   7.140   8.573 -0.1879  0.2673 -0.0148
 1001MOL0     C32057   0.680   7.162   8.459 -0.2251 -0.2504  0.3747
 1001MOL0     O32058   0.721   7.072   8.371  0.7912  0.3858  0.2333
 1001MOL0     C32059   0.679   6.938   8.384 -0.1417  0.7451  0.2325
 1001MOL0     C32060   0.782   6.840   8.318 -0.4977  0.3969  0.2226
 1001MOL0     C32061   0.741   6.695   8.311  0.6776  0.2579  0.3266
 1001MOL0     C32062   0.672   6.650   8.178  0.0648 -0.1594  0.6452
 1001MOL0     C32063   0.776   6.666   8.076  0.5001 -0.3172  0.1237
 1001MOL0     C32064   0.873   6.664   8.006 -0.3326 -0.5444 -0.0677
 1001MOL0     C32065   0.735   7.291   8.439 -0.3287 -0.0235 -0.3472
 1001MOL0     C32066   0.702   7.388   8.536 -0.6004 -0.4040 -0.3969
 1001MOL0     H32067   0.460   7.746   8.709  1.6608 -2.2537  0.8105
 1001MOL0     H32068   0.387   7.937   8.850  0.5049 -0.8485 -1.4245
 1001MOL0     H32069   0.689   8.161   8.950  0.7629 -4.4696 -0.4614
 1001MOL0     H32070   0.711   8.125   9.124  0.2277  3.1348  1.8076
 1001MOL0     H32071   0.454   8.282   9.096  0.1073 -0.0013  2.2898
 1001MOL0     H32072   0.594   8.363   9.030 -1.8006  0.9573  0.2709
 1001MOL0     H32073   0.704   8.387   9.221 -1.5842  3.1086  4.0930
 1001MOL0     H32074   0.627   8.235   9.290 -3.0201 -1.9296 -1.1873
 1001MOL0     H32075   0.496   8.509   9.246 -0.8930 -0.3779 -0.0790
 1001MOL0     H32076   0.433   8.373   9.332  0.7790 -3.6429 -1.2338
 1001MOL0     H32077   0.681   8.542   9.400  0.0579 -0.7724 -0.0495
 1001MOL0     H32078   0.611   8.419   9.510  1.2195  0.6583  0.5949
 1001MOL0     H32079   0.396   8.587   9.448  0.0127  2.2618 -1.9317
 1001MOL0     H32080   0.517   8.692   9.394 -1.2429 -2.5136 -1.0576
 1001MOL0     H32081   0.618   8.653   9.627  0.7969  0.3435 -2.6730
 1001MOL0     H32082   0.501   8.773   9.612  1.2488 -0.2399 -0.3692
 1001MOL0     H32083   0.444   8.638   9.814  0.1407  0.2773  0.2383
 1001MOL0     H32084   0.449   8.491   9.720 -2.8196 -0.9024  5.0849
 1001MOL0     H32085   0.243   8.833   9.701  0.9054 -0.4430 -1.1549
 1001MOL0     H32086  -0.104   8.756   9.740 -2.6774  1.0084 -0.5258
 1001MOL0     H32087  -0.112   8.728   9.577 -1.8550  0.2838  2.2518
 1001MOL0     H32088  -0.008   8.985   9.699 -0.1613  1.6007 -1.0320
 1001MOL0     H32089  -0.122   8.943   9.576 -0.8409 -2.0209  1.4288
 1001MOL0     H32090   0.046   9.057   9.453 -1.8259 -1.3649 -3.3010
 1001MOL0     H32091   0.178   8.959   9.535  0.4861  1.6856 -1.8261
 1001MOL0     H32092  -0.020   8.902   9.315  1.6071 -0.9045 -1.3653
 1001MOL0     H32093   0.054   8.764   9.417  2.1354 -0.1209  2.6014
 1001MOL0     H32094  -0.011   8.703   9.168 -0.0373  0.2478 -1.7930
 1001MOL0     H32095   0.042   8.543   8.967  1.4783 -3.1364 -0.8560
 1001MOL0     H32096   0.085   8.420   8.595 -1.2086 -1.3105  0.2057
 1001MOL0     H32097   0.129   8.297   8.402 -0.8548  1.4831  1.2414
 1001MOL0     H32098   0.515   8.234   8.336 -0.8961 -0.7842  2.4495
 1001MOL0     H32099   0.357   8.297   8.280 -0.9215  0.1222  0.8223
 1001MOL0     H32100   0.473   8.035   8.151 -1.5839 -0.7521  0.9773
 1001MOL0     H32101   0.510   8.201   8.098 -0.5560 -1.8039 -2.0951
 1001MOL0     H32102   0.254   8.242   8.069 -0.6552  1.1117  3.1998
 1001MOL0     H32103   0.225   8.095   8.160 -0.1861 -0.0523 -1.2337
 1001MOL0     H32104   0.379   7.973   7.946 -0.2514 -0.5721 -3.7856
 1001MOL0     H32105   0.209   8.001   7.944  2.5443 -1.9103 -1.1968
 1001MOL0     H32106   0.396   8.227   7.846 -0.0613  0.9982  0.8311
 1001MOL0     H32107   0.225   8.220   7.844  0.5472  1.2908  1.8666
 1001MOL0     H32108   0.200   8.041   7.701 -0.7653  1.2459 -0.1858
 1001MOL0     H32109   0.368   7.983   7.715 -1.6828 -0.7460  0.0059
 1001MOL0     H32110   0.256   8.092   7.507 -1.0918 -0.9523  0.8439
 1001MOL0     H32111   0.282   8.250   7.589 -1.6086  0.0163 -4.6644
 1001MOL0     H32112   0.536   8.182   7.604 -0.6992  1.9829 -0.5330
 1001MOL0     H32113   0.460   8.206   7.439 -2.3273  0.3483  0.1398
 1001MOL0     H32114   0.422   8.067   8.637 -1.8102 -1.4691  3.1118
 1001MOL0     H32115   0.377   8.176   8.820  0.0043 -0.7693 -1.5382
 1001MOL0     H32116   0.451   8.647   9.009 -0.5446 -0.2918 -0.4000
 1001MOL0     H32117   0.400   8.804   9.195 -1.1651  0.5509  3.6968
 1001MOL0     H32118   0.787   7.907   9.035  0.5226  1.1338 -1.0622
 1001MOL0     H32119   0.821   7.694   8.939  2.2106  2.4087 -2.1025
 1001MOL0     H32120   0.511   7.203   8.742  1.5938 -0.7913  0.3863
 1001MOL0     H32121   0.553   7.039   8.576 -3.5632  1.3303 -3.3336
 1001MOL0     H32122   0.583   6.929   8.333  0.7951 -2.5104 -1.2553
 1001MOL0     H32123   0.674   6.902   8.488  2.7902 -3.0820 -0.7449
 1001MOL0     H32124   0.808   6.876   8.218  2.0052  0.0616  0.6850
 1001MOL0     H32125   0.877   6.835   8.372 -0.3145  0.6447 -0.0777
 1001MOL0     H32126   0.680   6.674   8.400  0.1006  3.6149  0.8608
 1001MOL0     H32127   0.834   6.640   8.328  1.1979  0.5813 -1.3298
 1001MOL0     H32128   0.646   6.544   8.179  0.0163 -0.3228 -3.2872
 1001MOL0     H32129   0.578   6.702   8.157 -1.0074 -2.9922 -2.5545
 1001MOL0     H32130   0.966   6.649   7.953  2.0265  3.0329  2.5685
 1001MOL0     H32131   0.819   7.311   8.373  0.2260  1.2284  0.6925
 1001MOL0     H32132   0.760   7.480   8.534  2.2848 -1.8990  3.1102
 1002MOL0     O32133   4.932   6.989  10.804 -0.1266 -0.4631 -0.2857
 1002MOL0     C32134   4.866   6.898  10.750 -1.1631 -0.5795  0.8208
 1002MOL0     O32135   4.728   6.908  10.713  0.8299 -0.9911  0.2864
 1002MOL0     C32136   4.655   7.018  10.762 -1.3297  0.2922 -0.5253
 1002MOL0     C32137   4.532   6.999  10.830 -0.4663  0.2913 -0.5057
 1002MOL0     C32138   4.465   7.112  10.880  0.2172 -0.5564  0.2997
 1002MOL0     C32139   4.510   7.245  10.860  0.1643  0.0491 -0.9361
 1002MOL0     O32140   4.437   7.355  10.902  0.5368  0.2049 -0.2802
 1002MOL0     C32141   4.493   7.460  10.976 -1.2066 -0.2860  0.1936
 1002MOL0     C32142   4.378   7.523  11.049  1.2149  0.0252 -0.9192
 1002MOL0     C32143   4.423   7.628  11.157  0.2465  1.0025 -0.1989
 1002MOL0     C32144   4.488   7.744  11.094  0.1471  0.6862  0.7460
 1002MOL0     C32145   4.526   7.855  11.198  0.1332  0.8852 -0.6424
 1002MOL0     C32146   4.614   7.805  11.319  0.4252 -0.3013  0.1681
 1002MOL0     C32147   4.660   7.926  11.394  0.4464  0.3477 -0.1154
 1002MOL0     C32148   4.776   8.013  11.324  0.7003  0.1842 -0.3471
 1002MOL0     N32149   4.802   8.143  11.405  0.2050  0.6325  0.3821
 1002MOL0     C32150   4.900   8.241  11.393 -0.0571  0.0761 -0.3363
 1002MOL0     C32151   4.871   8.341  11.479 -0.4589 -0.6529  0.3334
 1002MOL0     C32152   4.970   8.449  11.485 -1.0847 -0.0922 -0.3463
 1002MOL0     C32153   4.921   8.564  11.570  0.9845  0.5775  0.1527
 1002MOL0     C32154   4.824   8.649  11.482 -0.2556  0.4182 -0.3188
 1002MOL0     C32155   4.757   8.755  11.571 -0.5870  0.4495 -0.3130
 1002MOL0     O32156   4.672   8.680  11.662  0.3488 -0.2307  0.4970
 1002MOL0     C32157   4.537   8.667  11.634 -0.0480  0.0673  0.6955
 1002MOL0     C32158   4.489   8.535  11.622  0.6241 -0.2376  0.0320
 1002MOL0     C32159   4.362   8.513  11.592 -0.1114  0.5312  0.5984
 1002MOL0     C32160   4.266   8.610  11.569 -0.3669  0.1571 -0.1495
 1002MOL0     C32161   4.126   8.592  11.515 -0.7969  0.6418 -0.2015
 1002MOL0     O32162   4.036   8.679  11.558 -0.5312 -0.4647  0.0715
 1002MOL0     C32163   3.912   8.667  11.517  0.6053 -0.4623 -0.1233
 1002MOL0     C32164   3.806   8.688  11.610 -0.3018  0.8399 -0.3942
 1002MOL0     C32165   3.669   8.662  11.579 -0.2830 -0.7349 -0.0331
 1002MOL0     C32166   3.638   8.630  11.446  0.5330 -0.3936  0.7280
 1002MOL0     O32167   3.505   8.622  11.418 -0.0876 -0.5698  0.7254
 1002MOL0     C32168   3.462   8.533  11.311 -0.8300 -0.5827  0.7604
 1002MOL0     C32169   3.318   8.569  11.273 -0.7529  0.6466  0.6468
 1002MOL0     C32170   3.246   8.576  11.396 -0.6823 -0.3270 -0.6934
 1002MOL0     C32171   3.094   8.589  11.365  0.6211  0.4355 -0.2256
 1002MOL0     C32172   3.002   8.603  11.475  0.9828 -0.1716  0.8302
 1002MOL0     C32173   2.863   8.586  11.420  0.6530  0.1255  1.0431
 1002MOL0     C32174   2.753   8.540  11.522  0.6293 -0.0543 -1.4865
 1002MOL0     C32175   2.612   8.511  11.478  0.6933 -0.2654  0.5785
 1002MOL0    Cl32176   2.528   8.661  11.470 -0.3053 -0.2774 -0.0700
 1002MOL0     C32177   3.738   8.608  11.350 -0.7256  0.7754 -0.0780
 1002MOL0     C32178   3.879   8.623  11.390  0.1944 -0.2492  0.8677
 1002MOL0     O32179   4.117   8.493  11.443  0.4380 -0.4825  0.5420
 1002MOL0     C32180   4.315   8.742  11.580  0.6388  0.1282  0.1150
 1002MOL0     C32181   4.448   8.768  11.614 -0.2134 -0.1972  0.3070
 1002MOL0     N32182   4.758   8.308  11.553  0.0269  0.2801  0.7901
 1002MOL0     N32183   4.716   8.188  11.504 -0.6794 -0.1625 -0.0036
 1002MOL0     C32184   4.630   7.259  10.792  1.2768 -0.2233  0.3787
 1002MOL0     C32185   4.702   7.155  10.745  0.7369 -0.0096  0.2712
 1002MOL0     C32186   4.943   6.786  10.693 -0.6945  0.6231  0.8467
 1002MOL0     C32187   4.877   6.675  10.643 -1.0383  0.6332  0.1302
 1002MOL0     C32188   4.941   6.566  10.579 -0.6205  0.1084 -0.1385
 1002MOL0     C32189   5.084   6.577  10.564 -0.3009  0.5803 -0.6724
 1002MOL0     O32190   5.151   6.467  10.518 -0.5140  0.4738 -0.3985
 1002MOL0     C32191   5.088   6.372  10.440 -0.2698  0.4065  0.8354
 1002MOL0     C32192   5.187   6.279  10.356  0.8540 -0.8461 -0.5158
 1002MOL0     C32193   5.144   6.182  10.247 -0.1657 -0.1572 -0.4970
 1002MOL0     C32194   5.264   6.076  10.209 -0.5549  0.3815 -0.2101
 1002MOL0     C32195   5.334   6.014  10.322  0.5734 -0.4834  0.1959
 1002MOL0     C32196   5.402   5.960  10.405  0.4436 -1.0971  0.5718
 1002MOL0     C32197   5.145   6.692  10.611  0.3441  0.1611 -0.2549
 1002MOL0     C32198   5.080   6.800  10.671 -0.5368 -0.0566 -0.4419
 1002MOL0     H32199   4.478   6.908  10.855 -0.2714  0.3110 -0.0183
 1002MOL0     H32200   4.365   7.096  10.917  0.6434  0.1803  1.8370
 1002MOL0     H32201   4.533   7.534  10.906 -2.6608  0.3595  0.0086
 1002MOL0     H32202   4.575   7.426  11.040  0.9830  0.0020 -2.2681
 1002MOL0     H32203   4.329   7.439  11.100 -0.4748  0.9799 -0.8883
 1002MOL0     H32204   4.300   7.562  10.983 -0.1110  2.1111  1.6807
 1002MOL0     H32205   4.498   7.574  11.215  1.2424  2.2090 -0.3035
 1002MOL0     H32206   4.339   7.653  11.221  0.1840  2.7529 -0.8938
 1002MOL0     H32207   4.577   7.715  11.037 -2.3539 -0.4518 -2.9506
 1002MOL0     H32208   4.413   7.791  11.030 -0.9568 -0.3187  1.2729
 1002MOL0     H32209   4.435   7.904  11.234 -0.7368 -0.0567 -1.4800
 1002MOL0     H32210   4.580   7.927  11.135 -1.4698  3.0363  0.3263
 1002MOL0     H32211   4.706   7.751  11.291  1.7399 -0.5228  4.2739
 1002MOL0     H32212   4.548   7.744  11.380  1.3666  0.4423  2.0085
 1002MOL0     H32213   4.579   7.996  11.415  1.3367  1.3987 -0.0770
 1002MOL0     H32214   4.696   7.883  11.488  1.6835 -0.5159 -0.9493
 1002MOL0     H32215   4.741   8.039  11.223  0.1816 -0.8794 -0.4480
 1002MOL0     H32216   4.868   7.955  11.312  2.3658  3.0159 -2.8053
 1002MOL0     H32217   4.987   8.231  11.329 -0.1241  0.1253 -0.4363
 1002MOL0     H32218   4.983   8.500  11.390 -3.3085 -0.2843 -0.8016
 1002MOL0     H32219   5.064   8.408  11.524 -1.0615  0.0793 -0.2236
 1002MOL0     H32220   5.003   8.634  11.588  0.4326  1.8918 -1.9841
 1002MOL0     H32221   4.873   8.534  11.663  3.4014  4.7788  3.0795
 1002MOL0     H32222   4.884   8.703  11.407 -3.6356  1.7184 -2.3590
 1002MOL0     H32223   4.749   8.589  11.429  0.8820 -1.3154 -0.0189
 1002MOL0     H32224   4.703   8.828  11.510  0.7824  0.7841 -1.1490
 1002MOL0     H32225   4.831   8.803  11.636 -1.3049  0.6264  0.3919
 1002MOL0     H32226   4.576   8.471  11.623  2.6998  2.3822  1.4346
 1002MOL0     H32227   4.339   8.407  11.581  2.1795  0.0592 -0.1889
 1002MOL0     H32228   3.825   8.701  11.716 -1.0596 -2.0963  0.1808
 1002MOL0     H32229   3.590   8.659  11.653 -0.1326  1.2086  0.2650
 1002MOL0     H32230   3.481   8.429  11.338 -0.5116 -0.4215  1.1744
 1002MOL0     H32231   3.520   8.539  11.219  0.0172 -0.7192  1.2748
 1002MOL0     H32232   3.288   8.493  11.201 -0.4135 -1.1298  2.2813
 1002MOL0     H32233   3.330   8.662  11.217 -2.7425  1.0027  0.7558
 1002MOL0     H32234   3.276   8.670  11.442  1.8356 -0.7669 -1.2889
 1002MOL0     H32235   3.274   8.495  11.464  1.4544  1.0139  0.0910
 1002MOL0     H32236   3.092   8.683  11.310  1.3145  1.8021  1.9530
 1002MOL0     H32237   3.061   8.515  11.291  0.5317 -1.1323  1.3323
 1002MOL0     H32238   3.002   8.703  11.518 -1.5550  0.8575 -1.2960
 1002MOL0     H32239   3.015   8.523  11.548 -3.9467 -0.0499  2.1720
 1002MOL0     H32240   2.850   8.516  11.337 -0.0136  3.3340 -1.7632
 1002MOL0     H32241   2.827   8.677  11.372 -2.0291 -1.4778 -0.2035
 1002MOL0     H32242   2.792   8.454  11.576  0.9963  0.3473 -1.0983
 1002MOL0     H32243   2.733   8.617  11.597 -1.3460  0.8268 -2.8147
 1002MOL0     H32244   2.573   8.445  11.557  1.6294  0.7777  1.9602
 1002MOL0     H32245   2.630   8.464  11.381  2.1552 -0.3133  0.8431
 1002MOL0     H32246   3.727   8.561  11.252  3.7292 -0.2982 -0.3038
 1002MOL0     H32247   3.959   8.606  11.318  1.3149  3.3196  1.1030
 1002MOL0     H32248   4.244   8.820  11.554 -0.3885 -1.0669 -0.7505
 1002MOL0     H32249   4.467   8.874  11.629 -0.8143  0.0871 -0.8216
 1002MOL0     H32250   4.663   7.353  10.750  3.2071 -1.7564 -1.7813
 1002MOL0     H32251   4.799   7.189  10.707  0.2392  2.2458  0.9015
 1002MOL0     H32252   4.769   6.676  10.650 -1.1749 -2.5616  0.0328
 1002MOL0     H32253   4.876   6.489  10.538 -2.1488  0.6934  1.1007
 1002MOL0     H32254   5.020   6.422  10.370 -0.6277  1.8045  2.1263
 1002MOL0     H32255   5.028   6.313  10.509 -0.7431 -1.3536 -1.0003
 1002MOL0     H32256   5.266   6.344  10.317  1.7369 -0.3688  1.8545
 1002MOL0     H32257   5.224   6.211  10.433  1.4844  1.2210  1.0925
 1002MOL0     H32258   5.103   6.250  10.172 -2.4614  1.7967  2.2991
 1002MOL0     H32259   5.061   6.126  10.293  0.1866 -0.9755 -0.8302
 1002MOL0     H32260   5.221   5.988  10.160  0.5642 -0.2444 -0.1175
 1002MOL0     H32261   5.327   6.135  10.142 -1.7939  2.0422  0.0197
 1002MOL0     H32262   5.468   5.922  10.480  0.7011 -1.1191  0.3364
 1002MOL0     H32263   5.250   6.709  10.590  0.3243  3.4952  1.7130
 1002MOL0     H32264   5.149   6.879  10.696  1.1471 -1.5693 -0.0463
 1003MOL0     O32265   1.829   9.261   0.260  0.2346  0.3716 -0.5849
 1003MOL0     C32266   1.919   9.300   0.189 -0.6739 -0.1408 -0.8558
 1003MOL0     O32267   1.911   9.313   0.055 -1.0516  0.4053  0.2610
 1003MOL0     C32268   1.809   9.252  -0.017 -0.3999  0.8597 -0.7552
 1003MOL0     C32269   1.769   9.117   0.007 -0.6976 -0.6712 -0.8891
 1003MOL0     C32270   1.671   9.065  -0.067 -1.0303 -0.3943 -1.0244
 1003MOL0     C32271   1.606   9.133  -0.173 -0.1127  0.7605 -0.4010
 1003MOL0     O32272   1.505   9.078  -0.253  0.6667 -0.9409  0.0121
 1003MOL0     C32273   1.470   8.946  -0.225 -0.7864  0.4420  0.0966
 1003MOL0     C32274   1.376   8.896  -0.339 -0.3428  0.0969  0.4539
 1003MOL0     C32275   1.274   8.792  -0.287  0.7837  0.6937  0.7424
 1003MOL0     C32276   1.331   8.646  -0.279  0.6144  0.7905 -0.3851
 1003MOL0     C32277   1.349   8.583  -0.423 -0.1389  0.1076  0.3974
 1003MOL0     C32278   1.426   8.459  -0.445  0.0473 -0.2473  0.7272
 1003MOL0     C32279   1.396   8.350  -0.345 -0.0648  0.1341 -0.5411
 1003MOL0     C32280   1.244   8.309  -0.333 -0.5316  0.4908 -1.0733
 1003MOL0     N32281   1.224   8.207  -0.225 -0.2374 -0.2696  0.9935
 1003MOL0     C32282   1.263   8.203  -0.100  0.4463  0.2693 -0.8354
 1003MOL0     C32283   1.263   8.076  -0.062 -0.8315  0.8418 -0.2827
 1003MOL0     C32284   1.304   8.016   0.066 -0.0024 -0.1936 -0.8728
 1003MOL0     C32285   1.180   8.036   0.150 -0.9089 -0.4565 -0.4349
 1003MOL0     C32286   1.198   8.005   0.297 -0.4187 -0.4613  0.2405
 1003MOL0     C32287   1.065   7.984   0.363 -0.8188 -0.5902  0.3717
 1003MOL0     O32288   1.087   7.928   0.494  0.2261 -0.2277  0.0233
 1003MOL0     C32289   0.986   7.930   0.588 -1.1568 -0.5072 -0.3988
 1003MOL0     C32290   1.013   7.859   0.704  0.5137 -0.6564 -0.5588
 1003MOL0     C32291   0.920   7.862   0.803 -0.6663  0.2569 -0.0944
 1003MOL0     C32292   0.804   7.928   0.778 -0.0735  0.1134 -0.8802
 1003MOL0     C32293   0.709   7.948   0.890  0.3625 -1.3165  0.7190
 1003MOL0     O32294   0.774   7.977   1.005  0.0833 -0.1590  0.5482
 1003MOL0     C32295   0.698   7.974   1.119 -1.3166  0.9960 -0.6218
 1003MOL0     C32296   0.599   7.880   1.154 -1.1505  0.4433  0.6838
 1003MOL0     C32297   0.512   7.890   1.264 -0.5884  0.2079 -0.4004
 1003MOL0     C32298   0.539   7.992   1.359 -0.2409 -0.0852 -0.7237
 1003MOL0     O32299   0.455   8.018   1.465  0.0733 -0.3384 -0.2971
 1003MOL0     C32300   0.445   8.148   1.536 -0.5552 -0.8117  0.8431
 1003MOL0     C32301   0.520   8.152   1.661 -0.3566 -0.0690 -0.1256
 1003MOL0     C32302   0.511   8.030   1.756  0.2044 -1.2329  0.3751
 1003MOL0     C32303   0.611   8.051   1.872  0.0267 -0.1196  0.8845
 1003MOL0     C32304   0.577   7.953   1.987 -0.2124 -0.0775 -0.7710
 1003MOL0     C32305   0.697   7.956   2.077  0.4890  0.1656  0.2180
 1003MOL0     C32306   0.796   7.846   2.050  0.2674  0.2012  0.2432
 1003MOL0     C32307   0.762   7.705   2.105 -0.1521 -0.2884  0.6653
 1003MOL0    Cl32308   0.759   7.692   2.278 -0.0757 -0.3363 -0.2126
 1003MOL0     C32309   0.654   8.080   1.332  0.6323 -0.1332  0.5051
 1003MOL0     C32310   0.723   8.075   1.211  0.0629 -0.3383  0.0145
 1003MOL0     O32311   0.593   7.968   0.871  0.3349 -0.7819 -0.1044
 1003MOL0     C32312   0.779   8.009   0.670 -0.1430 -0.7411  0.1395
 1003MOL0     C32313   0.879   8.019   0.570  0.4276  0.1551 -0.1808
 1003MOL0     N32314   1.204   8.004  -0.159 -0.1660 -0.5517 -0.0907
 1003MOL0     N32315   1.190   8.086  -0.262 -0.0049  0.4815 -0.1584
 1003MOL0     C32316   1.638   9.266  -0.190 -0.0069 -0.7518 -0.9121
 1003MOL0     C32317   1.738   9.323  -0.109 -0.4297  0.9518  0.6885
 1003MOL0     C32318   2.051   9.327   0.263  0.2107  0.3920 -0.0264
 1003MOL0     C32319   2.163   9.344   0.179 -0.8140 -0.1223 -0.1157
 1003MOL0     C32320   2.286   9.383   0.231 -0.2125 -0.2739  0.5334
 1003MOL0     C32321   2.305   9.375   0.371  0.6615 -0.1585  0.9378
 1003MOL0     O32322   2.428   9.400   0.421 -0.7259  0.0473 -0.4378
 1003MOL0     C32323   2.464   9.365   0.550 -0.1659 -0.6957  0.1880
 1003MOL0     C32324   2.452   9.208   0.582 -0.6272  0.0080  0.7407
 1003MOL0     C32325   2.484   9.178   0.729 -0.2138  0.8640 -0.4195
 1003MOL0     C32326   2.528   9.027   0.776  0.2564 -0.6370  1.0904
 1003MOL0     C32327   2.426   8.930   0.741  1.7521 -0.4484 -0.3433
 1003MOL0     C32328   2.343   8.844   0.716 -0.6171 -0.3293 -0.9924
 1003MOL0     C32329   2.194   9.356   0.452 -0.1573  0.5808 -0.1225
 1003MOL0     C32330   2.069   9.327   0.403 -0.1519  0.9126  0.4953
 1003MOL0     H32331   1.823   9.051   0.074 -2.0048  1.0265  2.0428
 1003MOL0     H32332   1.640   8.961  -0.053  0.7235 -0.9337 -0.8736
 1003MOL0     H32333   1.426   8.943  -0.124  1.4281 -0.9094  1.1111
 1003MOL0     H32334   1.558   8.880  -0.225  0.4179  2.0080  0.2358
 1003MOL0     H32335   1.440   8.869  -0.424  0.1202 -2.1475  1.4267
 1003MOL0     H32336   1.310   8.974  -0.378 -0.6027 -0.3701 -0.0674
 1003MOL0     H32337   1.198   8.796  -0.365  0.5843  1.9715  0.9772
 1003MOL0     H32338   1.224   8.824  -0.195 -1.1768 -2.2898  0.8504
 1003MOL0     H32339   1.423   8.658  -0.222 -1.2370  5.0392  2.2545
 1003MOL0     H32340   1.271   8.572  -0.225  3.0609 -0.8902  0.1985
 1003MOL0     H32341   1.393   8.662  -0.485  1.6431 -0.7163  0.5489
 1003MOL0     H32342   1.250   8.573  -0.469 -0.5476  2.4909  0.6413
 1003MOL0     H32343   1.533   8.478  -0.443  1.1602 -5.0097 -0.3611
 1003MOL0     H32344   1.409   8.437  -0.551  1.2475  1.5088  0.1238
 1003MOL0     H32345   1.453   8.258  -0.365  0.1063  0.5746 -2.2176
 1003MOL0     H32346   1.441   8.380  -0.250  2.0310 -0.4598 -1.2723
 1003MOL0     H32347   1.194   8.287  -0.427 -2.6673 -0.3377  0.1771
 1003MOL0     H32348   1.203   8.397  -0.283  2.8285  0.7367  1.6897
 1003MOL0     H32349   1.318   8.281  -0.049 -1.1579  0.4513  0.7015
 1003MOL0     H32350   1.394   8.070   0.096  0.6915 -1.2487 -1.0182
 1003MOL0     H32351   1.330   7.911   0.052  4.1780  0.9688 -3.5276
 1003MOL0     H32352   1.100   7.971   0.113 -2.0971  0.6779  0.0249
 1003MOL0     H32353   1.136   8.137   0.147 -1.3013 -0.4960  1.8639
 1003MOL0     H32354   1.268   7.921   0.301 -1.3664 -1.2843 -0.0364
 1003MOL0     H32355   1.242   8.099   0.331 -1.9506  0.4747 -0.2819
 1003MOL0     H32356   0.999   7.919   0.306 -0.4470 -0.0849 -0.6578
 1003MOL0     H32357   1.018   8.083   0.366 -4.4167 -2.1276  1.4318
 1003MOL0     H32358   1.109   7.813   0.723  0.4748  0.3693  2.7364
 1003MOL0     H32359   0.935   7.800   0.891  2.1740 -1.1884 -1.4628
 1003MOL0     H32360   0.577   7.797   1.088  0.7351  0.9854 -0.7049
 1003MOL0     H32361   0.427   7.825   1.281 -0.5259  0.3900  0.7117
 1003MOL0     H32362   0.347   8.187   1.566 -0.9688  0.3222 -1.7227
 1003MOL0     H32363   0.475   8.231   1.471 -0.9158  0.6681  2.4723
 1003MOL0     H32364   0.493   8.243   1.715 -0.7132 -0.7560  0.8803
 1003MOL0     H32365   0.625   8.163   1.633 -0.7844  1.4562 -1.2397
 1003MOL0     H32366   0.534   7.935   1.708 -1.1793 -0.9625 -0.9200
 1003MOL0     H32367   0.409   8.016   1.793  1.1346 -4.6761  2.0267
 1003MOL0     H32368   0.717   8.049   1.844  0.6766  5.3935  1.8659
 1003MOL0     H32369   0.608   8.155   1.904  0.9208 -0.4721  2.1673
 1003MOL0     H32370   0.547   7.859   1.939 -2.5307  0.9636 -1.5223
 1003MOL0     H32371   0.491   7.994   2.041  0.5124 -0.3988  0.6573
 1003MOL0     H32372   0.667   7.936   2.180  0.3652  1.6303  0.4827
 1003MOL0     H32373   0.736   8.058   2.085 -1.5770  1.0011  0.1861
 1003MOL0     H32374   0.833   7.843   1.947 -0.9567 -2.0517 -0.1988
 1003MOL0     H32375   0.881   7.863   2.117 -1.0298 -1.6341  2.5007
 1003MOL0     H32376   0.834   7.634   2.063 -1.2324  0.7876 -3.5230
 1003MOL0     H32377   0.664   7.678   2.066  0.1050 -1.7108  0.9287
 1003MOL0     H32378   0.685   8.147   1.411 -0.7993 -0.8119  1.6992
 1003MOL0     H32379   0.791   8.158   1.195 -1.2396  0.4435 -1.7586
 1003MOL0     H32380   0.684   8.059   0.657 -1.3591 -2.8263  0.5440
 1003MOL0     H32381   0.865   8.089   0.488 -1.3614  2.5852  2.0214
 1003MOL0     H32382   1.585   9.328  -0.262 -1.2540 -1.1076 -0.3214
 1003MOL0     H32383   1.748   9.431  -0.114 -2.0005  1.0864 -0.1565
 1003MOL0     H32384   2.156   9.321   0.073  0.8530  0.1497 -0.3155
 1003MOL0     H32385   2.364   9.402   0.158 -2.8304  5.3088 -1.4142
 1003MOL0     H32386   2.393   9.414   0.616 -0.4777 -2.4171  1.2052
 1003MOL0     H32387   2.563   9.408   0.562 -0.1549  0.3696 -2.8808
 1003MOL0     H32388   2.348   9.173   0.571 -0.5765 -0.7177  2.2561
 1003MOL0     H32389   2.500   9.145   0.507 -1.3335  2.8668 -2.3662
 1003MOL0     H32390   2.389   9.204   0.777  0.8311 -0.2276  2.5014
 1003MOL0     H32391   2.560   9.247   0.766 -0.0554 -0.5166  2.0370
 1003MOL0     H32392   2.624   8.997   0.734  0.1005  0.3843 -0.0474
 1003MOL0     H32393   2.541   9.017   0.884  4.0099 -0.9101  0.7321
 1003MOL0     H32394   2.271   8.776   0.676 -1.1451 -0.5366  0.2685
 1003MOL0     H32395   2.203   9.376   0.559  0.9215  1.8477 -0.4324
 1003MOL0     H32396   1.992   9.298   0.473  2.1179 -0.9017  2.4109
 1004MOL0     O32397   2.577  11.120   5.578 -0.0966  0.3218 -1.3253
 1004MOL0     C32398   2.686  11.113   5.636  0.5827  0.1723 -1.2692
 1004MOL0     O32399   2.797  11.055   5.584  0.4947 -0.1839 -0.6742
 1004MOL0     C32400   2.790  11.037   5.450  0.0491 -0.8718 -0.2449
 1004MOL0     C32401   2.853  11.128   5.361  0.5591  0.0241  0.1839
 1004MOL0     C32402   2.878  11.097   5.225 -0.1195  0.6300 -0.7111
 1004MOL0     C32403   2.835  10.970   5.175  0.7600  0.4777 -0.5487
 1004MOL0     O32404   2.846  10.942   5.048 -0.5324  0.9327  0.5884
 1004MOL0     C32405   2.725  10.913   4.975  0.9146  0.3427  0.3316
 1004MOL0     C32406   2.749  10.821   4.859 -0.6307 -0.8276  0.1033
 1004MOL0     C32407   2.683  10.869   4.728  0.1599 -0.2680  0.4369
 1004MOL0     C32408   2.655  10.755   4.624 -1.1862  1.0702  0.2287
 1004MOL0     C32409   2.518  10.754   4.552  0.1532 -0.1618  0.5323
 1004MOL0     C32410   2.509  10.872   4.457  0.5082  0.5536 -0.4816
 1004MOL0     C32411   2.376  10.880   4.373 -0.1068  0.0740 -0.7220
 1004MOL0     C32412   2.358  11.015   4.301 -0.0309  0.0697  0.1457
 1004MOL0     N32413   2.226  11.042   4.239 -0.9557 -0.3230  0.3596
 1004MOL0     C32414   2.171  11.166   4.205  0.7109 -0.7477 -0.1593
 1004MOL0     C32415   2.057  11.137   4.134 -0.2748  0.4447  0.2805
 1004MOL0     C32416   1.966  11.214   4.060 -0.8704 -0.3959  0.0492
 1004MOL0     C32417   1.844  11.245   4.142  0.1473  0.1795 -0.0901
 1004MOL0     C32418   1.773  11.123   4.214 -0.5235  0.5185 -0.8097
 1004MOL0     C32419   1.628  11.141   4.261  0.4609 -0.2495  0.4672
 1004MOL0     O32420   1.551  11.224   4.165  0.0992 -0.1126 -0.5837
 1004MOL0     C32421   1.425  11.255   4.193 -0.6587  0.8417  0.1351
 1004MOL0     C32422   1.332  11.153   4.228 -0.5921  1.1815 -0.2801
 1004MOL0     C32423   1.195  11.185   4.224  0.0664  0.5081  0.3831
 1004MOL0     C32424   1.146  11.313   4.199  0.8800  0.7930 -0.2648
 1004MOL0     C32425   1.004  11.343   4.207  0.6260  0.3877 -0.1532
 1004MOL0     O32426   0.967  11.465   4.172 -0.7009  0.2174 -0.5113
 1004MOL0     C32427   0.846  11.533   4.187 -0.5795  0.7850 -0.5488
 1004MOL0     C32428   0.746  11.489   4.275  0.0434  0.3796 -0.4673
 1004MOL0     C32429   0.634  11.572   4.300 -1.0285  0.6328 -1.0916
 1004MOL0     C32430   0.608  11.690   4.224  0.1934  1.4106 -0.4432
 1004MOL0     O32431   0.492  11.752   4.263  0.5334 -0.6738  0.9010
 1004MOL0     C32432   0.441  11.852   4.167  0.7214  0.1168 -0.0697
 1004MOL0     C32433   0.488  12.005   4.207  1.2173 -0.5673  0.6013
 1004MOL0     C32434   0.451  12.107   4.098 -0.4182 -0.6120  0.3755
 1004MOL0     C32435   0.297  12.108   4.058  0.1130  0.0296 -0.2457
 1004MOL0     C32436   0.209  12.135   4.168  0.2964 -0.2084 -0.2385
 1004MOL0     C32437   0.063  12.149   4.122  0.1610  0.9884 -0.0048
 1004MOL0     C32438  -0.040  12.193   4.221 -0.0143  0.4329 -0.9632
 1004MOL0     C32439  -0.052  12.105   4.350 -0.2626  0.1041  0.0193
 1004MOL0    Cl32440  -0.200  12.154   4.431  0.6533  0.0371 -0.4086
 1004MOL0     C32441   0.705  11.720   4.127  0.2246  0.4309  0.5175
 1004MOL0     C32442   0.823  11.650   4.116 -0.7291 -0.2091 -0.5143
 1004MOL0     O32443   0.929  11.252   4.241  0.4265  0.2177  0.3282
 1004MOL0     C32444   1.241  11.414   4.169 -0.1527 -0.2042 -0.9814
 1004MOL0     C32445   1.376  11.381   4.165  0.2354  0.6857  0.7901
 1004MOL0     N32446   2.064  11.002   4.120  0.2932  0.0751 -0.4724
 1004MOL0     N32447   2.154  10.945   4.184 -0.2384 -0.3362  0.3564
 1004MOL0     C32448   2.754  10.882   5.259  0.2192 -0.8686 -0.1726
 1004MOL0     C32449   2.735  10.920   5.398 -1.6021 -0.2249  0.3260
 1004MOL0     C32450   2.705  11.163   5.783 -0.2636 -0.0227  0.4157
 1004MOL0     C32451   2.829  11.187   5.837 -0.0849 -0.8386  0.0929
 1004MOL0     C32452   2.853  11.262   5.956  0.6617 -0.1796  0.1849
 1004MOL0     C32453   2.740  11.299   6.038 -0.3490  0.3993  1.2724
 1004MOL0     O32454   2.744  11.377   6.153 -0.4123 -0.1890 -0.0425
 1004MOL0     C32455   2.847  11.336   6.255 -0.0172 -0.4659 -0.6823
 1004MOL0     C32456   2.871  11.451   6.360  0.3243  0.8356  0.3883
 1004MOL0     C32457   2.751  11.527   6.400 -0.5870  0.8705  0.7050
 1004MOL0     C32458   2.636  11.438   6.469 -0.6117 -0.2684  1.1507
 1004MOL0     C32459   2.659  11.369   6.593 -1.3643  1.2467 -0.6283
 1004MOL0     C32460   2.673  11.305   6.702 -0.1354 -0.5158  0.0890
 1004MOL0     C32461   2.613  11.267   5.984  0.2725  0.6283  0.3791
 1004MOL0     C32462   2.600  11.199   5.863  0.4468 -0.4607  0.1230
 1004MOL0     H32463   2.887  11.216   5.414  2.1708 -1.0841  1.0868
 1004MOL0     H32464   2.931  11.177   5.174  1.7843  0.2758  0.6060
 1004MOL0     H32465   2.685  11.006   4.935  2.5749 -1.3194 -6.5368
 1004MOL0     H32466   2.641  10.870   5.030 -1.2762  2.2324 -1.3624
 1004MOL0     H32467   2.723  10.717   4.881  0.4720 -1.8248 -2.8509
 1004MOL0     H32468   2.855  10.796   4.843 -0.7251 -1.9582  1.0937
 1004MOL0     H32469   2.744  10.946   4.679 -1.7384  0.7208 -0.4773
 1004MOL0     H32470   2.580  10.903   4.742 -0.9328 -1.9640 -2.6375
 1004MOL0     H32471   2.720  10.759   4.536 -0.7439  0.0139  0.4889
 1004MOL0     H32472   2.671  10.660   4.677  2.0404  2.0723  1.2643
 1004MOL0     H32473   2.441  10.753   4.630 -0.0118 -4.3651  0.5564
 1004MOL0     H32474   2.505  10.666   4.488  4.9768 -2.1048  1.7708
 1004MOL0     H32475   2.591  10.861   4.386  0.7119 -3.4730  0.1402
 1004MOL0     H32476   2.502  10.965   4.514 -0.9497  1.4144 -2.0170
 1004MOL0     H32477   2.382  10.789   4.312 -1.6960  1.4766 -3.0874
 1004MOL0     H32478   2.293  10.869   4.444  1.7160  4.6079  2.5957
 1004MOL0     H32479   2.434  11.038   4.226  1.1775 -0.9249  1.0368
 1004MOL0     H32480   2.352  11.094   4.378 -1.5207 -0.2830  0.4380
 1004MOL0     H32481   2.219  11.261   4.224  0.7026 -0.5353 -1.1516
 1004MOL0     H32482   1.934  11.166   3.967 -1.6427  0.5987 -0.2231
 1004MOL0     H32483   2.014  11.310   4.036 -2.7890  0.5081 -0.4053
 1004MOL0     H32484   1.781  11.296   4.067  0.4112 -0.1018 -0.5088
 1004MOL0     H32485   1.875  11.324   4.211  2.1454  1.2924 -2.1168
 1004MOL0     H32486   1.791  11.038   4.148  1.3275 -0.3725  0.7476
 1004MOL0     H32487   1.830  11.088   4.301 -1.7235 -2.9197 -1.2383
 1004MOL0     H32488   1.628  11.192   4.358 -0.2255 -1.0282  0.8848
 1004MOL0     H32489   1.569  11.050   4.274 -4.6219  2.5224 -0.5292
 1004MOL0     H32490   1.358  11.048   4.230 -2.6484  0.5712 -1.8486
 1004MOL0     H32491   1.125  11.103   4.241  1.3025 -1.6393 -3.5109
 1004MOL0     H32492   0.744  11.393   4.327 -2.0595 -0.3129 -1.6573
 1004MOL0     H32493   0.567  11.536   4.378  0.2898 -1.5013 -0.8701
 1004MOL0     H32494   0.332  11.852   4.160  0.7165 -3.6206 -3.0545
 1004MOL0     H32495   0.475  11.809   4.072  0.6526 -1.8122  0.7605
 1004MOL0     H32496   0.594  11.997   4.233  0.6766 -3.9219  2.3367
 1004MOL0     H32497   0.440  12.043   4.297 -1.0463 -2.3052  0.2112
 1004MOL0     H32498   0.522  12.095   4.016  0.7669  1.3072  1.0421
 1004MOL0     H32499   0.475  12.209   4.130  0.3338 -1.0239  1.1537
 1004MOL0     H32500   0.279  12.189   3.987  2.3272  0.2657 -0.6259
 1004MOL0     H32501   0.272  12.024   3.992  1.2862  1.4190 -2.5747
 1004MOL0     H32502   0.244  12.224   4.221  1.9272 -0.5466 -0.6996
 1004MOL0     H32503   0.215  12.059   4.247  1.9509  0.7395  0.6022
 1004MOL0     H32504   0.030  12.048   4.094  2.6659  0.0497  0.1580
 1004MOL0     H32505   0.047  12.214   4.036  0.3538 -1.7884 -2.3157
 1004MOL0     H32506  -0.006  12.289   4.261  2.6207 -1.3912  1.6406
 1004MOL0     H32507  -0.134  12.179   4.167 -0.0927  0.7195 -0.8970
 1004MOL0     H32508   0.035  12.119   4.416  1.3940 -0.4960 -1.9344
 1004MOL0     H32509  -0.057  11.997   4.333 -3.3430 -0.0858  1.3572
 1004MOL0     H32510   0.695  11.804   4.059 -2.5221 -0.8639 -0.8519
 1004MOL0     H32511   0.895  11.687   4.043 -2.3270  1.5624 -1.2904
 1004MOL0     H32512   1.218  11.518   4.148  2.5813  1.4341  2.9100
 1004MOL0     H32513   1.453  11.450   4.130  0.3616  0.1909  0.0663
 1004MOL0     H32514   2.714  10.796   5.209 -1.5382  0.1843 -0.6443
 1004MOL0     H32515   2.673  10.851   5.452 -1.5098  0.6325  1.5692
 1004MOL0     H32516   2.913  11.147   5.780 -0.0200  1.3993 -1.4898
 1004MOL0     H32517   2.957  11.287   5.975  0.8966  0.4885 -1.7587
 1004MOL0     H32518   2.934  11.304   6.197 -0.3057 -0.7621 -0.9532
 1004MOL0     H32519   2.806  11.255   6.315  3.1386 -2.8485 -1.4856
 1004MOL0     H32520   2.908  11.400   6.450 -0.3180 -0.6597 -0.1532
 1004MOL0     H32521   2.958  11.516   6.346  1.0873  0.1461  1.7004
 1004MOL0     H32522   2.716  11.591   6.318  2.8540  3.7091  1.1984
 1004MOL0     H32523   2.793  11.589   6.479  0.5543 -2.7425  3.2244
 1004MOL0     H32524   2.560  11.516   6.479  0.3663  1.3730 -2.5789
 1004MOL0     H32525   2.598  11.371   6.390 -1.6840 -0.0073  1.4252
 1004MOL0     H32526   2.694  11.258   6.796  2.9243 -1.4884 -0.9713
 1004MOL0     H32527   2.533  11.313   6.040  1.9728  2.5863  1.3477
 1004MOL0     H32528   2.503  11.191   5.814  1.6275 -0.0122 -2.4366
 1005MOL0     O32529   5.222   2.963  11.376  0.9671  0.0099 -0.2551
 1005MOL0     C32530   5.205   2.963  11.248 -0.2975  0.0433  0.2056
 1005MOL0     O32531   5.275   3.038  11.157 -1.5445  0.2441 -0.3972
 1005MOL0     C32532   5.396   3.095  11.211 -0.0860 -0.3830 -0.2275
 1005MOL0     C32533   5.500   3.019  11.272 -0.3337 -1.3000  0.0705
 1005MOL0     C32534   5.630   3.063  11.285  0.1028 -0.3688  0.3664
 1005MOL0     C32535   5.660   3.197  11.242  0.3105  0.2096  0.0209
 1005MOL0     O32536   5.778   3.261  11.235  0.2416 -0.4906 -0.2918
 1005MOL0     C32537   5.902   3.200  11.240 -0.3354  0.0437 -0.4567
 1005MOL0     C32538   6.002   3.306  11.272 -0.2883  0.1335  0.4494
 1005MOL0     C32539   6.147   3.267  11.210 -0.5119 -1.1982 -0.5856
 1005MOL0     C32540   6.160   3.329  11.073 -0.9963  0.0377 -0.8258
 1005MOL0     C32541   6.279   3.271  10.993 -0.1001 -0.5749  0.7975
 1005MOL0     C32542   6.414   3.343  11.026  1.4143 -0.1917 -0.4709
 1005MOL0     C32543   6.530   3.308  10.932  0.2166  0.4692 -0.1830
 1005MOL0     C32544   6.645   3.396  10.948 -0.0267  0.0145  0.0986
 1005MOL0     N32545   6.714   3.376  11.083  0.3658 -0.1006  0.6021
 1005MOL0     C32546   6.663   3.428  11.204 -0.0246  0.6232 -0.3015
 1005MOL0     C32547   6.755   3.396  11.299  1.4164 -0.3278  0.0389
 1005MOL0     C32548   6.737   3.414  11.447 -0.0494  0.0143  0.4356
 1005MOL0     C32549   6.839   3.334  11.516 -0.8313 -0.1448 -0.2366
 1005MOL0     C32550   6.802   3.307  11.665  0.3383  0.5314  0.0591
 1005MOL0     C32551   6.644   3.278  11.696 -0.2181  0.8267  0.1479
 1005MOL0     O32552   6.618   3.165  11.610 -0.2438 -0.6813 -0.0189
 1005MOL0     C32553   6.486   3.129  11.588 -1.3858 -0.1797  0.6304
 1005MOL0     C32554   6.455   3.073  11.469 -0.2104 -0.2405  0.6799
 1005MOL0     C32555   6.328   3.015  11.448  0.0239 -0.2827  0.2968
 1005MOL0     C32556   6.223   3.022  11.542  0.4962  0.7964  0.4175
 1005MOL0     C32557   6.090   2.957  11.523 -0.0965  0.2884  1.0427
 1005MOL0     O32558   5.998   2.975  11.625  0.1068  0.0552 -0.0099
 1005MOL0     C32559   5.885   2.910  11.640  0.4693 -0.0302 -0.1543
 1005MOL0     C32560   5.841   2.798  11.566  0.1438  0.1987 -0.0490
 1005MOL0     C32561   5.710   2.742  11.593  0.3505 -1.4350  0.6201
 1005MOL0     C32562   5.613   2.807  11.676  0.7675 -0.7237  0.6538
 1005MOL0     O32563   5.480   2.752  11.697 -0.5675  0.9599  0.2811
 1005MOL0     C32564   5.386   2.811  11.601  0.3550 -0.2169 -0.7804
 1005MOL0     C32565   5.256   2.739  11.610 -0.2117  0.8397 -0.9997
 1005MOL0     C32566   5.187   2.747  11.743  0.0188 -0.0091  0.3717
 1005MOL0     C32567   5.051   2.680  11.743 -0.9634 -0.0092  0.5171
 1005MOL0     C32568   5.001   2.708  11.892 -0.5912  0.4916 -0.1798
 1005MOL0     C32569   4.861   2.640  11.898 -1.1353 -0.0471  0.0177
 1005MOL0     C32570   4.764   2.664  12.009  0.4406 -0.1453  0.3869
 1005MOL0     C32571   4.637   2.577  11.985  0.0917  0.4828 -0.5500
 1005MOL0    Cl32572   4.541   2.648  11.854 -0.4656  0.3891 -0.1077
 1005MOL0     C32573   5.663   2.914  11.750  0.6626  0.9663  0.2994
 1005MOL0     C32574   5.793   2.964  11.733  0.4807 -0.0922 -0.2260
 1005MOL0     O32575   6.064   2.910  11.405  0.2348 -0.2364  0.1782
 1005MOL0     C32576   6.251   3.091  11.656 -0.2302  1.0544  1.0512
 1005MOL0     C32577   6.377   3.153  11.674  0.2053 -0.8937  0.9467
 1005MOL0     N32578   6.860   3.338  11.227 -0.0508 -0.5563  0.2859
 1005MOL0     N32579   6.832   3.324  11.103  0.2891  0.6007  0.0098
 1005MOL0     C32580   5.559   3.272  11.183  0.6621  0.2061 -0.7604
 1005MOL0     C32581   5.425   3.223  11.166 -0.1639  0.1307  0.1133
 1005MOL0     C32582   5.097   2.869  11.193 -0.5427  0.0956  0.2942
 1005MOL0     C32583   5.054   2.750  11.253  0.4657  0.3715  0.0724
 1005MOL0     C32584   4.949   2.669  11.198 -0.6207  1.2118  0.7562
 1005MOL0     C32585   4.894   2.699  11.077  0.6812  0.3862 -0.4072
 1005MOL0     O32586   4.798   2.612  11.023  0.3597 -0.3695 -0.1679
 1005MOL0     C32587   4.734   2.655  10.899 -0.6785  0.0490 -0.2364
 1005MOL0     C32588   4.639   2.538  10.852 -0.8548  1.1516 -1.1894
 1005MOL0     C32589   4.535   2.510  10.957  0.8130 -0.0095 -0.6274
 1005MOL0     C32590   4.454   2.384  10.937 -0.1782  0.5103  1.1539
 1005MOL0     C32591   4.364   2.404  10.823  1.3026 -0.0339 -0.2830
 1005MOL0     C32592   4.284   2.430  10.730  0.4591  0.0758  0.1917
 1005MOL0     C32593   4.939   2.815  11.009 -0.8940 -0.6415 -0.0550
 1005MOL0     C32594   5.040   2.896  11.065  0.4136  0.1291  0.4600
 1005MOL0     H32595   5.459   2.921  11.297  0.6389 -2.4263 -2.3942
 1005MOL0     H32596   5.707   2.998  11.326  1.8473  1.4001  0.0219
 1005MOL0     H32597   5.936   3.164  11.143  2.2936 -1.0796  0.7678
 1005MOL0     H32598   5.911   3.114  11.307 -0.5044 -0.7361 -1.4166
 1005MOL0     H32599   6.011   3.305  11.381  2.5849  1.2495  0.3136
 1005MOL0     H32600   5.978   3.406  11.235 -1.1070 -0.0852  0.3781
 1005MOL0     H32601   6.173   3.162  11.194  2.2130 -0.4510 -1.7154
 1005MOL0     H32602   6.227   3.313  11.270 -0.9375  0.4882 -1.2468
 1005MOL0     H32603   6.069   3.306  11.018 -2.1096  2.0529  0.0473
 1005MOL0     H32604   6.164   3.438  11.079  0.4640 -0.0363  0.0197
 1005MOL0     H32605   6.268   3.284  10.885 -2.7020  2.5399  1.2753
 1005MOL0     H32606   6.288   3.167  11.025 -2.1650 -1.0360  0.0757
 1005MOL0     H32607   6.434   3.317  11.131  3.4459  0.6984 -0.5947
 1005MOL0     H32608   6.395   3.450  11.016 -2.0018 -0.7777 -1.3180
 1005MOL0     H32609   6.566   3.209  10.964 -2.9074 -0.5537  0.5084
 1005MOL0     H32610   6.495   3.297  10.829  3.1654  1.8296 -1.4490
 1005MOL0     H32611   6.626   3.502  10.932  0.5402  0.4817  2.1654
 1005MOL0     H32612   6.721   3.375  10.872  0.6352  2.9023 -0.1302
 1005MOL0     H32613   6.572   3.482  11.227 -1.5808 -2.7495  2.2691
 1005MOL0     H32614   6.633   3.384  11.460  0.2394 -0.5450  1.5498
 1005MOL0     H32615   6.741   3.521  11.472 -3.0781  0.1321  0.7313
 1005MOL0     H32616   6.936   3.378  11.494 -1.4839  1.8867  0.7120
 1005MOL0     H32617   6.851   3.232  11.479  4.1112  0.7796 -1.8844
 1005MOL0     H32618   6.860   3.225  11.709  0.7539  2.9281  4.5577
 1005MOL0     H32619   6.826   3.389  11.734 -3.8125  1.2135  0.9841
 1005MOL0     H32620   6.593   3.369  11.664  0.6974 -0.2558 -5.3634
 1005MOL0     H32621   6.632   3.251  11.802 -4.4060  0.6398 -0.1892
 1005MOL0     H32622   6.531   3.066  11.392 -0.9337  2.5406 -0.4174
 1005MOL0     H32623   6.307   2.947  11.366 -2.6869 -3.3018  3.2136
 1005MOL0     H32624   5.903   2.755  11.488  0.1403 -1.1584  0.6694
 1005MOL0     H32625   5.674   2.659  11.532 -0.7773 -1.4010  1.2193
 1005MOL0     H32626   5.427   2.803  11.500  1.7418 -0.4335 -0.2277
 1005MOL0     H32627   5.365   2.917  11.619  0.8593 -0.1219 -0.7319
 1005MOL0     H32628   5.272   2.638  11.570 -1.3122  1.1632 -2.3230
 1005MOL0     H32629   5.183   2.790  11.547  3.0505  3.9405 -2.6047
 1005MOL0     H32630   5.185   2.854  11.766  2.5845  0.2130 -0.1212
 1005MOL0     H32631   5.252   2.700  11.819 -1.2675 -2.3616  0.0997
 1005MOL0     H32632   4.983   2.721  11.668 -2.8392  2.3131  3.2327
 1005MOL0     H32633   5.073   2.573  11.735  2.9136  0.5355  1.9611
 1005MOL0     H32634   4.985   2.814  11.916 -1.1434  0.6941 -1.4160
 1005MOL0     H32635   5.067   2.664  11.968 -1.2163 -0.5416 -0.2262
 1005MOL0     H32636   4.885   2.533  11.899  2.0736  0.5137  2.9755
 1005MOL0     H32637   4.806   2.676  11.810 -0.6516  0.8906  0.0830
 1005MOL0     H32638   4.802   2.635  12.108 -1.1727 -1.9924  0.5281
 1005MOL0     H32639   4.740   2.771  12.010 -4.9152 -1.0785  0.0828
 1005MOL0     H32640   4.566   2.589  12.067  0.3184 -0.0445 -0.2695
 1005MOL0     H32641   4.657   2.470  11.970 -2.3637 -0.1981  0.4162
 1005MOL0     H32642   5.594   2.966  11.816 -2.6850  1.4237 -3.2251
 1005MOL0     H32643   5.830   3.042  11.799  1.7731 -1.3384  0.5677
 1005MOL0     H32644   6.176   3.118  11.729  0.1910  3.5346  0.6631
 1005MOL0     H32645   6.396   3.201  11.769  3.0370 -0.5062  0.2942
 1005MOL0     H32646   5.587   3.366  11.137 -0.8258  0.7677 -0.5924
 1005MOL0     H32647   5.352   3.278  11.108 -0.5463 -0.6037 -0.1128
 1005MOL0     H32648   5.091   2.696  11.339  1.2380  0.5217 -0.1627
 1005MOL0     H32649   4.906   2.587  11.256 -1.0319 -1.2639 -2.7316
 1005MOL0     H32650   4.808   2.683  10.823 -0.3928 -0.1483 -0.0310
 1005MOL0     H32651   4.673   2.743  10.922  0.3248  0.5995  0.4263
 1005MOL0     H32652   4.596   2.556  10.753  1.0477  0.6481 -2.1499
 1005MOL0     H32653   4.698   2.447  10.843 -1.0374  1.1042 -1.9264
 1005MOL0     H32654   4.451   2.579  10.960 -0.5196 -1.6122  0.2364
 1005MOL0     H32655   4.588   2.509  11.053  0.0972  0.0692 -0.2307
 1005MOL0     H32656   4.512   2.294  10.912 -2.1926 -1.6397  3.6030
 1005MOL0     H32657   4.394   2.368  11.027 -1.1924 -1.9518  0.1496
 1005MOL0     H32658   4.216   2.471  10.659  1.4026  2.1441  0.4015
 1005MOL0     H32659   4.900   2.866  10.922  2.5267  4.4500  0.9527
 1005MOL0     H32660   5.064   2.988  11.012  1.2160  0.4481  1.3457
 1006MOL0     O32661   3.421   9.520   9.372 -0.1758  0.3325  0.0222
 1006MOL0     C32662   3.476   9.414   9.409  0.5972 -0.9022  0.5448
 1006MOL0     O32663   3.449   9.355   9.534 -1.2982  0.3411  0.3429
 1006MOL0     C32664   3.339   9.376   9.608 -0.2145 -0.6999  0.9854
 1006MOL0     C32665   3.346   9.312   9.734  0.0268 -0.2083 -0.9181
 1006MOL0     C32666   3.241   9.342   9.828  0.2271  1.1198  0.2121
 1006MOL0     C32667   3.127   9.423   9.800 -0.6019  0.1548  0.4878
 1006MOL0     O32668   3.048   9.454   9.916 -0.1143  0.0593 -0.6686
 1006MOL0     C32669   2.906   9.499   9.895 -0.2800  0.7423  0.0365
 1006MOL0     C32670   2.812   9.378   9.880  0.2586  0.4200  0.1910
 1006MOL0     C32671   2.681   9.391   9.790 -0.2364 -0.1832  1.0516
 1006MOL0     C32672   2.713   9.402   9.638 -0.0861  0.5097  0.4024
 1006MOL0     C32673   2.588   9.401   9.560 -0.0707  0.3501  0.6697
 1006MOL0     C32674   2.512   9.533   9.544 -0.3867  0.6197  0.2334
 1006MOL0     C32675   2.571   9.610   9.424  0.1700 -0.4914 -0.1722
 1006MOL0     C32676   2.513   9.751   9.420 -0.5825  0.6442 -0.5617
 1006MOL0     N32677   2.594   9.844   9.337  0.4384  0.5163 -0.6373
 1006MOL0     C32678   2.597   9.837   9.198  1.0001 -0.1390 -0.4980
 1006MOL0     C32679   2.706   9.910   9.164 -0.8167 -0.5703  0.2049
 1006MOL0     C32680   2.767   9.932   9.028 -0.1481  0.6409 -0.2294
 1006MOL0     C32681   2.807   9.805   8.952 -0.6659 -0.4043 -1.4334
 1006MOL0     C32682   2.911   9.722   9.032 -0.5826 -0.4899 -0.3053
 1006MOL0     C32683   2.970   9.622   8.940 -0.3829  0.4234  0.2185
 1006MOL0     O32684   3.030   9.514   9.008 -0.5751 -0.1380 -0.0788
 1006MOL0     C32685   3.135   9.456   8.934 -0.9032  0.7810  0.9459
 1006MOL0     C32686   3.110   9.412   8.801  0.5773  1.1531 -0.3194
 1006MOL0     C32687   3.208   9.346   8.727 -0.7729  0.8802 -1.0799
 1006MOL0     C32688   3.339   9.327   8.794  0.9527  0.7300 -0.2420
 1006MOL0     C32689   3.467   9.284   8.716  0.4209  0.7064 -1.1085
 1006MOL0     O32690   3.453   9.278   8.582  0.2815 -0.5868  0.5490
 1006MOL0     C32691   3.568   9.258   8.513 -0.4474  0.2522 -0.0126
 1006MOL0     C32692   3.560   9.151   8.423  0.9310  0.3882  0.0037
 1006MOL0     C32693   3.669   9.120   8.341 -1.1085  0.0115 -0.2178
 1006MOL0     C32694   3.796   9.192   8.342 -0.1382 -0.8424 -0.1837
 1006MOL0     O32695   3.901   9.185   8.252 -0.1053  1.2184  0.4775
 1006MOL0     C32696   3.920   9.099   8.145  0.5550  0.3164  0.3576
 1006MOL0     C32697   3.843   9.175   8.030 -0.3575 -0.7100 -0.0987
 1006MOL0     C32698   3.828   9.095   7.896 -0.6476 -0.2585 -0.9770
 1006MOL0     C32699   3.698   9.000   7.900 -0.1962 -0.3661 -0.5664
 1006MOL0     C32700   3.696   8.898   7.783 -0.9684 -0.4735  0.0484
 1006MOL0     C32701   3.583   8.939   7.687  0.1910  0.5140  0.9570
 1006MOL0     C32702   3.559   8.839   7.567  0.1098 -0.5876 -0.7685
 1006MOL0     C32703   3.619   8.875   7.433  0.1334 -0.4756  1.3314
 1006MOL0    Cl32704   3.489   8.943   7.329 -0.6530  0.2532  0.5108
 1006MOL0     C32705   3.797   9.296   8.435  0.4806 -0.5216 -0.1063
 1006MOL0     C32706   3.692   9.335   8.519  0.5825  0.5385  0.2530
 1006MOL0     O32707   3.566   9.264   8.785  0.0197 -0.0310 -0.3336
 1006MOL0     C32708   3.351   9.359   8.922 -0.3960 -0.3797  0.7541
 1006MOL0     C32709   3.257   9.437   8.997  1.0959  1.1977  1.1255
 1006MOL0     N32710   2.765   9.973   9.275  0.4233 -0.1589  0.0949
 1006MOL0     N32711   2.690   9.930   9.377  0.4994  1.1066  0.4752
 1006MOL0     C32712   3.104   9.453   9.661  0.2948  0.0027  0.2677
 1006MOL0     C32713   3.213   9.423   9.568 -0.4791 -0.6055  0.1962
 1006MOL0     C32714   3.579   9.349   9.324  0.6695  0.6590  0.5249
 1006MOL0     C32715   3.625   9.222   9.362 -0.4208 -0.0917 -0.5597
 1006MOL0     C32716   3.720   9.160   9.288 -0.4213  0.1238 -0.0390
 1006MOL0     C32717   3.765   9.213   9.161  0.1961 -0.1419 -0.8161
 1006MOL0     O32718   3.837   9.147   9.062 -1.2532  0.3588  0.2157
 1006MOL0     C32719   3.873   9.010   9.089 -0.0968  0.0250  0.3617
 1006MOL0     C32720   3.922   8.965   8.948  0.0079  0.0891  0.2710
 1006MOL0     C32721   4.044   9.050   8.911  1.1551  0.0672  0.2935
 1006MOL0     C32722   4.125   8.998   8.797 -0.6373 -0.7225  0.2518
 1006MOL0     C32723   4.051   9.006   8.669  0.0631  0.1379  0.6173
 1006MOL0     C32724   3.972   9.021   8.574  0.2758  0.3768  0.1667
 1006MOL0     C32725   3.705   9.328   9.119  0.3201 -0.6611  0.6690
 1006MOL0     C32726   3.624   9.404   9.198  0.0125 -0.4818  0.4283
 1006MOL0     H32727   3.426   9.241   9.754 -0.7877 -0.0943  4.1181
 1006MOL0     H32728   3.265   9.304   9.927 -1.0025  1.9741  0.8790
 1006MOL0     H32729   2.894   9.551   9.800  3.5749  0.8691 -0.5262
 1006MOL0     H32730   2.888   9.585   9.960  0.7628  2.9970 -2.4893
 1006MOL0     H32731   2.765   9.359   9.977 -0.9634 -0.4379 -0.5320
 1006MOL0     H32732   2.877   9.297   9.848  1.2410  1.0775  0.4792
 1006MOL0     H32733   2.616   9.470   9.829  2.0692  1.2675  2.2554
 1006MOL0     H32734   2.646   9.288   9.801 -1.1008 -0.1963 -1.4213
 1006MOL0     H32735   2.764   9.495   9.611 -0.1820  0.3607 -0.2991
 1006MOL0     H32736   2.773   9.318   9.601  0.4774  2.0268 -2.4434
 1006MOL0     H32737   2.519   9.336   9.614  1.2597 -1.4164  0.3210
 1006MOL0     H32738   2.609   9.337   9.474 -1.3151 -0.4323  0.9206
 1006MOL0     H32739   2.518   9.603   9.628  1.4251  1.1856 -0.3084
 1006MOL0     H32740   2.406   9.523   9.520 -0.7688  1.9503  1.2057
 1006MOL0     H32741   2.680   9.621   9.430  0.3032 -1.5483 -0.4984
 1006MOL0     H32742   2.548   9.560   9.330  1.3112 -0.3159 -0.5666
 1006MOL0     H32743   2.501   9.797   9.519  0.4483  0.0953 -0.1606
 1006MOL0     H32744   2.407   9.738   9.394 -0.3322 -0.1993 -1.2209
 1006MOL0     H32745   2.528   9.785   9.132  2.4294  0.4399 -2.5437
 1006MOL0     H32746   2.862   9.978   9.056  0.3224  0.9305 -2.1497
 1006MOL0     H32747   2.704   9.994   8.964  0.4945  0.9228 -0.5973
 1006MOL0     H32748   2.850   9.823   8.853  3.6184 -5.6297 -1.0137
 1006MOL0     H32749   2.714   9.748   8.941 -0.7901 -0.3938 -0.5113
 1006MOL0     H32750   2.997   9.788   9.052  0.7085 -2.6828  2.1006
 1006MOL0     H32751   2.860   9.682   9.120  1.6317 -1.9848  0.4073
 1006MOL0     H32752   3.026   9.670   8.859 -1.6487  0.2344 -0.8018
 1006MOL0     H32753   2.890   9.569   8.887 -3.6754  1.0879  3.9569
 1006MOL0     H32754   3.008   9.416   8.766  0.0288  0.1240  1.0770
 1006MOL0     H32755   3.184   9.332   8.622 -0.9905 -1.8368 -0.7391
 1006MOL0     H32756   3.461   9.109   8.415  0.7200  0.8648  0.0608
 1006MOL0     H32757   3.659   9.043   8.265  0.2416  0.7753 -1.2262
 1006MOL0     H32758   3.880   8.997   8.146  1.3751 -0.0503 -1.5269
 1006MOL0     H32759   4.026   9.092   8.120  0.2483 -2.7596 -0.4566
 1006MOL0     H32760   3.895   9.270   8.019  2.2243 -1.9663  0.4235
 1006MOL0     H32761   3.743   9.193   8.071  0.2167 -2.7752  2.5640
 1006MOL0     H32762   3.914   9.029   7.879  0.4062  0.8684 -0.1987
 1006MOL0     H32763   3.833   9.161   7.809  3.4045  0.1726 -0.6175
 1006MOL0     H32764   3.719   8.936   7.986 -0.4087 -1.5960 -1.4028
 1006MOL0     H32765   3.605   9.056   7.919  0.5844  1.1969 -1.1293
 1006MOL0     H32766   3.702   8.794   7.817 -0.7334 -0.8275 -1.0554
 1006MOL0     H32767   3.795   8.902   7.738  0.0806 -2.7419  1.9564
 1006MOL0     H32768   3.586   9.039   7.644 -0.0721 -0.2409 -0.9030
 1006MOL0     H32769   3.487   8.940   7.740  1.1624  0.3723  2.8160
 1006MOL0     H32770   3.601   8.744   7.604  2.9134  1.0471  0.6076
 1006MOL0     H32771   3.450   8.825   7.563 -0.5285  2.2553  2.3563
 1006MOL0     H32772   3.665   8.790   7.381 -1.3948  0.3320 -1.5600
 1006MOL0     H32773   3.701   8.945   7.450  2.9899 -3.4735  1.0577
 1006MOL0     H32774   3.891   9.340   8.465  0.1501 -1.7044  2.9974
 1006MOL0     H32775   3.706   9.408   8.598 -0.3523 -2.5033  3.5496
 1006MOL0     H32776   3.449   9.343   8.964 -0.9341 -2.3419  1.3954
 1006MOL0     H32777   3.286   9.454   9.100  2.5152 -0.0944  0.9880
 1006MOL0     H32778   3.011   9.501   9.631 -0.5226 -2.9001 -2.2942
 1006MOL0     H32779   3.207   9.449   9.463  0.4894 -2.6833 -0.4419
 1006MOL0     H32780   3.601   9.175   9.457  1.1057 -1.7339 -0.9373
 1006MOL0     H32781   3.761   9.065   9.322 -1.8778 -1.0608 -1.4314
 1006MOL0     H32782   3.784   8.953   9.115 -0.4276  0.7005  0.7210
 1006MOL0     H32783   3.939   8.995   9.175 -3.3376 -1.7579  2.7295
 1006MOL0     H32784   3.939   8.857   8.938 -3.8523 -0.4409 -4.2872
 1006MOL0     H32785   3.853   8.989   8.867  1.9876  2.8870 -0.7367
 1006MOL0     H32786   4.113   9.055   8.996  1.2602  0.2550  0.1987
 1006MOL0     H32787   4.020   9.154   8.886  1.6778  0.3751  1.0266
 1006MOL0     H32788   4.213   9.063   8.803 -1.3870  0.3817 -0.3323
 1006MOL0     H32789   4.141   8.894   8.826 -2.6502 -0.2960  3.5418
 1006MOL0     H32790   3.886   9.007   8.512  1.4483 -2.8238 -0.9019
 1006MOL0     H32791   3.738   9.345   9.018  0.8279 -3.0376  0.3806
 1006MOL0     H32792   3.598   9.506   9.175  1.4794 -0.7318 -3.0372
 1007MOL0     O32793   9.558   9.184   9.152  0.8096  0.6410 -0.1007
 1007MOL0     C32794   9.438   9.176   9.181  0.3840 -0.5340  0.4794
 1007MOL0     O32795   9.328   9.226   9.113  0.8696 -0.5158  0.2208
 1007MOL0     C32796   9.343   9.253   8.978  1.1197 -1.0535 -0.3944
 1007MOL0     C32797   9.337   9.152   8.888  0.4405 -0.0546  0.2301
 1007MOL0     C32798   9.339   9.173   8.747  0.3475  0.7467 -0.7568
 1007MOL0     C32799   9.350   9.298   8.702 -0.8729  0.0863 -0.5949
 1007MOL0     O32800   9.364   9.324   8.572 -0.4372 -0.1731 -0.4038
 1007MOL0     C32801   9.344   9.219   8.478  0.2189  0.2116 -0.7967
 1007MOL0     C32802   9.327   9.292   8.347 -0.9021  0.3074  0.3603
 1007MOL0     C32803   9.308   9.181   8.238  0.2562 -0.0606 -0.6471
 1007MOL0     C32804   9.244   9.250   8.119 -0.2493 -1.1418  0.0181
 1007MOL0     C32805   9.236   9.149   8.000 -0.3785  0.1585  0.2434
 1007MOL0     C32806   9.380   9.111   7.941  0.8715 -0.4667  0.1135
 1007MOL0     C32807   9.360   9.043   7.803  0.2236  0.0440 -0.4229
 1007MOL0     C32808   9.398   8.891   7.794 -0.4712 -0.8521  0.5881
 1007MOL0     N32809   9.298   8.807   7.862 -0.2714  0.7218  0.4135
 1007MOL0     C32810   9.319   8.667   7.864  1.0439  0.0200 -0.9086
 1007MOL0     C32811   9.195   8.611   7.858  0.2971  0.1057  0.4112
 1007MOL0     C32812   9.172   8.465   7.830  0.1325  0.2722  0.4304
 1007MOL0     C32813   9.076   8.445   7.713 -0.7221  0.0916 -0.8604
 1007MOL0     C32814   9.144   8.503   7.584  1.3136 -0.6236 -0.8455
 1007MOL0     C32815   9.099   8.446   7.449 -0.4378 -0.3551 -0.3556
 1007MOL0     O32816   8.961   8.406   7.449  0.6347  0.9336 -0.2082
 1007MOL0     C32817   8.917   8.306   7.357 -0.1158  0.1353 -0.3302
 1007MOL0     C32818   8.980   8.271   7.239 -0.0089  0.5269 -0.6420
 1007MOL0     C32819   8.935   8.168   7.158  0.6603 -0.1504  0.4340
 1007MOL0     C32820   8.813   8.099   7.194  0.5913 -0.3851  0.3774
 1007MOL0     C32821   8.773   7.978   7.111 -0.4555 -1.0978 -0.2232
 1007MOL0     O32822   8.843   7.959   6.994  0.2587  0.3609  0.1487
 1007MOL0     C32823   8.819   7.851   6.916 -0.4863 -0.5152 -0.0932
 1007MOL0     C32824   8.691   7.834   6.869  0.7193  0.7265 -0.3529
 1007MOL0     C32825   8.660   7.731   6.789 -0.4417  0.7329  0.2923
 1007MOL0     C32826   8.762   7.641   6.755  0.0339  0.6513 -0.3951
 1007MOL0     O32827   8.748   7.528   6.682 -0.3882  0.0889 -0.8024
 1007MOL0     C32828   8.622   7.518   6.613  0.0078  0.1598  0.0668
 1007MOL0     C32829   8.610   7.387   6.532  1.0212 -0.4756 -0.1847
 1007MOL0     C32830   8.488   7.381   6.437 -0.0862 -0.3376 -0.0095
 1007MOL0     C32831   8.347   7.349   6.503 -0.3979 -0.5046  0.0593
 1007MOL0     C32832   8.337   7.213   6.569 -0.1907  0.0241 -0.0134
 1007MOL0     C32833   8.214   7.209   6.648  0.6947  0.0896 -0.6673
 1007MOL0     C32834   8.162   7.061   6.676 -0.6591 -0.7347  0.0327
 1007MOL0     C32835   8.026   7.041   6.748 -0.1249 -0.0825  0.2713
 1007MOL0    Cl32836   8.040   7.103   6.921 -0.0443 -0.1916  0.2818
 1007MOL0     C32837   8.892   7.664   6.795  0.0675  0.3653  0.7682
 1007MOL0     C32838   8.920   7.776   6.870 -0.1619  0.2593  0.2675
 1007MOL0     O32839   8.678   7.916   7.151  0.1608  0.9151 -0.5159
 1007MOL0     C32840   8.746   8.141   7.303 -0.9959  0.0100  0.5927
 1007MOL0     C32841   8.791   8.248   7.384  0.1468  0.4352  0.2815
 1007MOL0     N32842   9.100   8.719   7.853 -0.3246  0.5089  0.0960
 1007MOL0     N32843   9.165   8.822   7.840 -0.4169 -1.1761 -0.0098
 1007MOL0     C32844   9.366   9.407   8.787 -0.4022 -0.0446 -0.5873
 1007MOL0     C32845   9.355   9.386   8.927  0.5961  0.5082  0.9179
 1007MOL0     C32846   9.414   9.111   9.316 -0.2096 -0.1436 -0.2705
 1007MOL0     C32847   9.316   9.162   9.399  0.5602 -0.0747 -0.2473
 1007MOL0     C32848   9.289   9.111   9.523  0.3902  0.0038  1.3233
 1007MOL0     C32849   9.363   9.004   9.575  0.4188  1.5387 -0.3780
 1007MOL0     O32850   9.307   8.954   9.694 -0.5228 -0.4134  0.2386
 1007MOL0     C32851   9.370   8.833   9.752 -0.9303 -0.3580  0.1286
 1007MOL0     C32852   9.289   8.780   9.870  0.1360 -0.6305  0.2698
 1007MOL0     C32853   9.381   8.769  10.001 -0.3875 -0.1740  0.3302
 1007MOL0     C32854   9.286   8.735  10.119  0.8660 -0.3605  0.6915
 1007MOL0     C32855   9.336   8.773  10.259 -0.7585 -0.1987 -0.8375
 1007MOL0     C32856   9.382   8.787  10.376  0.0912 -0.9996 -0.1955
 1007MOL0     C32857   9.467   8.951   9.502 -1.0941 -0.1375  0.2265
 1007MOL0     C32858   9.493   9.005   9.368 -0.6668 -0.0042 -0.5476
 1007MOL0     H32859   9.329   9.050   8.926 -2.2202 -0.0257 -0.0561
 1007MOL0     H32860   9.345   9.085   8.684  0.2932  0.3606 -0.2303
 1007MOL0     H32861   9.259   9.154   8.499  0.5620 -0.7156 -2.1460
 1007MOL0     H32862   9.424   9.145   8.466  0.6208  0.6000 -0.5210
 1007MOL0     H32863   9.418   9.352   8.335  0.8817 -2.4498 -1.0814
 1007MOL0     H32864   9.241   9.359   8.340 -0.3290  0.9196 -2.1568
 1007MOL0     H32865   9.242   9.102   8.273  0.5662 -0.8756 -1.8515
 1007MOL0     H32866   9.407   9.135   8.231 -0.3621 -1.4788 -0.2146
 1007MOL0     H32867   9.143   9.280   8.149  0.3662 -0.6150  1.6749
 1007MOL0     H32868   9.298   9.338   8.082 -3.2734 -0.2029 -2.6217
 1007MOL0     H32869   9.175   9.202   7.926  1.0679  1.0026 -0.3761
 1007MOL0     H32870   9.181   9.059   8.029  0.2171  0.6462  3.2932
 1007MOL0     H32871   9.420   9.052   8.024  1.4580 -0.8104 -0.3960
 1007MOL0     H32872   9.438   9.204   7.932 -1.7112  1.1959 -0.2919
 1007MOL0     H32873   9.258   9.058   7.766 -0.2299  2.5878  1.5296
 1007MOL0     H32874   9.420   9.097   7.730 -1.8234 -1.8021 -3.6712
 1007MOL0     H32875   9.498   8.888   7.839  0.8798 -0.5383 -2.1780
 1007MOL0     H32876   9.417   8.856   7.692 -0.0129 -0.4685  0.5354
 1007MOL0     H32877   9.417   8.620   7.860  2.1050  1.9493  0.5560
 1007MOL0     H32878   9.124   8.415   7.915  1.6941 -0.9477  0.6271
 1007MOL0     H32879   9.258   8.402   7.809 -1.3589 -1.6700 -0.1111
 1007MOL0     H32880   8.977   8.487   7.731  0.3144  4.1632 -3.2330
 1007MOL0     H32881   9.060   8.338   7.697 -1.4783  0.5857 -4.5064
 1007MOL0     H32882   9.116   8.608   7.585  2.2996 -0.3284  1.1816
 1007MOL0     H32883   9.253   8.499   7.592  1.2455 -0.7125  0.3482
 1007MOL0     H32884   9.171   8.369   7.419 -0.1914  0.0706 -0.8718
 1007MOL0     H32885   9.117   8.525   7.375  1.8546 -3.8481 -3.9307
 1007MOL0     H32886   9.060   8.336   7.204 -0.5541  1.8344  0.4118
 1007MOL0     H32887   8.990   8.137   7.069 -1.2438  2.1045 -1.6680
 1007MOL0     H32888   8.606   7.898   6.892  0.1089 -0.6231  1.4405
 1007MOL0     H32889   8.559   7.738   6.749 -1.0417 -0.9548  1.3797
 1007MOL0     H32890   8.618   7.602   6.543  0.4885 -1.0150 -1.4249
 1007MOL0     H32891   8.541   7.510   6.686  0.7668 -2.1735  0.7465
 1007MOL0     H32892   8.600   7.296   6.592 -0.4845 -0.0471  0.2555
 1007MOL0     H32893   8.703   7.380   6.474  0.2096 -2.2204 -1.3665
 1007MOL0     H32894   8.512   7.297   6.371 -0.4200 -2.4404  2.4028
 1007MOL0     H32895   8.481   7.469   6.373  1.8861  0.1946  0.4139
 1007MOL0     H32896   8.340   7.431   6.576 -0.9311 -0.7237  0.2590
 1007MOL0     H32897   8.271   7.350   6.424  0.5635  0.0577 -0.8802
 1007MOL0     H32898   8.422   7.182   6.631 -0.5159  0.8925  0.8872
 1007MOL0     H32899   8.326   7.140   6.488  1.6281 -0.3400  0.0238
 1007MOL0     H32900   8.135   7.271   6.604  1.2153  1.9955  0.9212
 1007MOL0     H32901   8.216   7.262   6.743 -1.1437 -0.9989  0.0350
 1007MOL0     H32902   8.154   7.009   6.581  2.1990  1.8657 -1.8491
 1007MOL0     H32903   8.237   7.006   6.735  1.6093  1.5534 -0.5316
 1007MOL0     H32904   8.003   6.934   6.749 -0.5075 -0.0976 -2.3579
 1007MOL0     H32905   7.955   7.101   6.690  1.0171 -1.4850 -2.7814
 1007MOL0     H32906   8.975   7.602   6.763  0.0155 -1.0484  3.0967
 1007MOL0     H32907   9.018   7.803   6.907 -0.2634  1.0893 -0.0507
 1007MOL0     H32908   8.649   8.102   7.331 -0.7177  0.5368  2.3724
 1007MOL0     H32909   8.737   8.275   7.474 -1.5557  0.5071 -0.7259
 1007MOL0     H32910   9.369   9.511   8.756  2.3349 -0.1429 -0.8674
 1007MOL0     H32911   9.356   9.465   9.001 -4.2483  2.8067 -1.0351
 1007MOL0     H32912   9.260   9.248   9.363  1.9266  1.9445  2.1521
 1007MOL0     H32913   9.209   9.163   9.575 -1.2009  0.6053 -1.5514
 1007MOL0     H32914   9.473   8.853   9.784 -0.4236 -0.6523 -1.2276
 1007MOL0     H32915   9.388   8.755   9.677  0.4102  0.6409 -0.6458
 1007MOL0     H32916   9.201   8.842   9.889 -0.9771 -2.3318  0.8529
 1007MOL0     H32917   9.259   8.678   9.844 -1.6124  0.5208 -2.8345
 1007MOL0     H32918   9.426   8.860  10.041  1.3971 -1.5983  1.7011
 1007MOL0     H32919   9.465   8.700   9.990  1.4521  1.7507  1.6203
 1007MOL0     H32920   9.195   8.792  10.099  0.6602 -1.3878 -1.5505
 1007MOL0     H32921   9.275   8.627  10.111  1.8886 -0.3536 -1.1706
 1007MOL0     H32922   9.418   8.791  10.477 -1.6860  2.8817  0.4608
 1007MOL0     H32923   9.533   8.880   9.550 -0.4521 -0.7016 -1.4131
 1007MOL0     H32924   9.562   8.954   9.302  2.8109  0.8315  2.1519
 1008MOL0     O32925   5.850  10.649   7.196  0.0253 -0.1121 -0.4857
 1008MOL0     C32926   5.852  10.659   7.315 -0.8930  0.8875  0.3011
 1008MOL0     O32927   5.753  10.604   7.403 -0.1870 -0.7194 -0.1111
 1008MOL0     C32928   5.650  10.523   7.372 -0.0823 -0.1024 -0.1954
 1008MOL0     C32929   5.575  10.479   7.476  1.6051 -0.3400  0.2330
 1008MOL0     C32930   5.449  10.408   7.444  0.7129 -0.5975 -0.5038
 1008MOL0     C32931   5.418  10.380   7.309  0.5464 -1.2527 -0.0976
 1008MOL0     O32932   5.315  10.311   7.269 -0.5368  0.9448 -0.2690
 1008MOL0     C32933   5.202  10.293   7.354 -0.2575  0.2554 -0.1859
 1008MOL0     C32934   5.095  10.208   7.282  0.6380 -0.2799 -0.1302
 1008MOL0     C32935   5.031  10.279   7.157 -0.0779  0.2250 -0.7614
 1008MOL0     C32936   4.961  10.186   7.066 -0.1347  0.3405 -0.1866
 1008MOL0     C32937   4.878  10.258   6.960 -0.3210  0.2679  0.5179
 1008MOL0     C32938   4.944  10.282   6.820  0.2972 -0.2041 -0.8728
 1008MOL0     C32939   4.889  10.178   6.720  0.2467 -1.3142  0.2452
 1008MOL0     C32940   4.760  10.222   6.648 -0.0121 -0.7583  0.0039
 1008MOL0     N32941   4.671  10.116   6.613  0.7646  0.0497  0.6324
 1008MOL0     C32942   4.594  10.019   6.689 -0.3358  0.2248  0.0405
 1008MOL0     C32943   4.528   9.946   6.591  0.1401 -0.3876 -0.8021
 1008MOL0     C32944   4.431   9.836   6.611 -0.3934 -1.4666  0.1734
 1008MOL0     C32945   4.292   9.878   6.675 -0.1086  0.1513  0.5869
 1008MOL0     C32946   4.209   9.949   6.573  1.2201  0.1243  0.5311
 1008MOL0     C32947   4.141   9.856   6.469  0.8716  0.1897 -0.0462
 1008MOL0     O32948   4.046   9.755   6.525  0.3864 -0.3937  0.9484
 1008MOL0     C32949   3.962   9.704   6.434  0.9237 -0.1268 -0.3281
 1008MOL0     C32950   3.980   9.701   6.294 -0.6079 -0.1331  0.4388
 1008MOL0     C32951   3.883   9.651   6.199  0.5812 -0.2951  0.0207
 1008MOL0     C32952   3.771   9.581   6.252  1.2997  0.0910 -0.2306
 1008MOL0     C32953   3.683   9.510   6.163  0.5848 -0.3573  0.4640
 1008MOL0     O32954   3.586   9.441   6.218  0.3826 -0.1130  0.1958
 1008MOL0     C32955   3.489   9.380   6.133 -0.6332  0.1742 -0.6666
 1008MOL0     C32956   3.353   9.404   6.147 -0.9134 -0.4241 -0.2328
 1008MOL0     C32957   3.269   9.345   6.053  0.7512 -0.5300  1.2421
 1008MOL0     C32958   3.304   9.253   5.956 -0.6050 -0.5705 -0.6582
 1008MOL0     O32959   3.215   9.173   5.885 -0.0547  0.9086 -1.6599
 1008MOL0     C32960   3.072   9.191   5.914  0.8431 -0.0969  0.5454
 1008MOL0     C32961   2.995   9.119   5.804 -0.2103  0.6063 -0.1842
 1008MOL0     C32962   3.011   8.969   5.811  0.1782 -1.2451  1.0578
 1008MOL0     C32963   2.950   8.906   5.683  0.2413 -0.0469 -0.5664
 1008MOL0     C32964   3.014   8.931   5.542 -0.2186 -0.6057 -0.5252
 1008MOL0     C32965   2.987   8.819   5.439 -0.3105  0.2088 -0.3898
 1008MOL0     C32966   3.061   8.845   5.307  0.1593 -0.4197  0.0427
 1008MOL0     C32967   2.984   8.774   5.194 -0.3221  0.6595 -0.7442
 1008MOL0    Cl32968   2.848   8.875   5.147 -0.8697  0.4292 -0.0553
 1008MOL0     C32969   3.440   9.234   5.945 -0.3086 -0.2135  0.3271
 1008MOL0     C32970   3.536   9.286   6.042  1.4059  0.0006 -0.0188
 1008MOL0     O32971   3.687   9.535   6.036  0.2118  0.4419  0.1401
 1008MOL0     C32972   3.753   9.576   6.392 -0.1368 -0.8577 -0.4116
 1008MOL0     C32973   3.835   9.657   6.475 -0.3816 -0.7161 -0.1374
 1008MOL0     N32974   4.546  10.006   6.468  0.0437 -0.4723  0.2821
 1008MOL0     N32975   4.628  10.104   6.486 -0.1366  0.6731  0.3931
 1008MOL0     C32976   5.511  10.412   7.210 -0.7941 -0.3208  0.7875
 1008MOL0     C32977   5.624  10.480   7.238  0.0318 -0.8352  0.3689
 1008MOL0     C32978   5.970  10.729   7.382 -0.2595  0.3368  0.1728
 1008MOL0     C32979   6.042  10.822   7.314  1.1347  0.2486 -0.0980
 1008MOL0     C32980   6.156  10.889   7.359 -1.0231  0.5323 -1.2377
 1008MOL0     C32981   6.217  10.840   7.473 -0.4642 -0.2742 -0.3857
 1008MOL0     O32982   6.340  10.885   7.524  0.2350 -0.3390  0.0908
 1008MOL0     C32983   6.393  11.006   7.467 -0.0619  0.5536 -0.0608
 1008MOL0     C32984   6.510  11.030   7.535  0.0070  0.3628 -0.8162
 1008MOL0     C32985   6.627  10.952   7.465  0.4124 -0.7828 -0.3164
 1008MOL0     C32986   6.753  10.929   7.542  0.5104  0.1255 -0.7166
 1008MOL0     C32987   6.789  11.042   7.615 -0.4712  0.0650 -0.3965
 1008MOL0     C32988   6.821  11.141   7.678 -0.0346  0.3647  0.0601
 1008MOL0     C32989   6.144  10.750   7.547 -0.1461  0.6193  0.3537
 1008MOL0     C32990   6.022  10.696   7.509 -0.3293 -0.4636  1.1891
 1008MOL0     H32991   5.605  10.497   7.579  1.1526 -0.0538  0.3164
 1008MOL0     H32992   5.383  10.377   7.524 -0.0173 -0.7155 -1.1466
 1008MOL0     H32993   5.158  10.389   7.383  0.7913  0.4827  0.7124
 1008MOL0     H32994   5.243  10.239   7.439  2.0913  1.5004 -0.4576
 1008MOL0     H32995   5.018  10.176   7.352 -2.0502  2.0878 -1.7876
 1008MOL0     H32996   5.151  10.120   7.246 -0.0881 -1.0020  0.4601
 1008MOL0     H32997   5.117  10.327   7.108 -0.1956 -2.8256 -4.3741
 1008MOL0     H32998   4.965  10.355   7.200 -0.1576 -0.1158 -0.2618
 1008MOL0     H32999   5.042  10.130   7.017 -0.3274 -0.3931  0.3087
 1008MOL0     H33000   4.898  10.126   7.133 -3.4683  3.0334 -0.6658
 1008MOL0     H33001   4.856  10.358   6.999  2.0206  0.4632  1.5014
 1008MOL0     H33002   4.778  10.220   6.937  0.2917  0.5787 -3.2635
 1008MOL0     H33003   5.053  10.279   6.828  0.4286  2.3472 -0.7773
 1008MOL0     H33004   4.908  10.380   6.785 -1.4832  0.0537  1.4118
 1008MOL0     H33005   4.971  10.165   6.649  2.1130 -1.0497  2.2409
 1008MOL0     H33006   4.870  10.083   6.771 -1.2460 -2.6720 -2.5755
 1008MOL0     H33007   4.793  10.276   6.559  1.0597  0.3872  1.0616
 1008MOL0     H33008   4.697  10.286   6.711 -2.5945 -1.3496 -1.7876
 1008MOL0     H33009   4.580  10.016   6.797  2.1187 -0.2224  0.4078
 1008MOL0     H33010   4.492   9.765   6.667  2.7978  1.2184  0.4113
 1008MOL0     H33011   4.421   9.793   6.511 -1.1844 -3.1015  0.9161
 1008MOL0     H33012   4.313   9.941   6.762  2.1868  0.2469  0.0282
 1008MOL0     H33013   4.238   9.789   6.709 -2.0598  1.5988  1.4765
 1008MOL0     H33014   4.118   9.984   6.622  1.9372  2.4365  0.3208
 1008MOL0     H33015   4.240  10.041   6.523 -2.6283  0.8304 -0.9344
 1008MOL0     H33016   4.221   9.820   6.404  0.0050 -0.8155 -0.5815
 1008MOL0     H33017   4.090   9.934   6.411  2.1877  2.0162  1.1115
 1008MOL0     H33018   4.066   9.744   6.245 -1.3872  0.5716 -0.3614
 1008MOL0     H33019   3.909   9.657   6.094 -2.1937  2.5072 -0.6606
 1008MOL0     H33020   3.313   9.465   6.227 -0.4858 -0.3324 -0.0857
 1008MOL0     H33021   3.166   9.364   6.080 -0.4968 -1.4028 -2.3944
 1008MOL0     H33022   3.042   9.296   5.908 -0.3032 -0.4710 -1.1093
 1008MOL0     H33023   3.042   9.152   6.012  0.1303 -0.6592  0.1132
 1008MOL0     H33024   3.015   9.161   5.705 -1.6655 -1.7586 -1.5503
 1008MOL0     H33025   2.888   9.141   5.810 -0.4190 -0.0704 -1.2698
 1008MOL0     H33026   2.960   8.934   5.902 -4.9652 -1.7126 -1.6804
 1008MOL0     H33027   3.114   8.932   5.818 -0.2877 -2.3672  2.7381
 1008MOL0     H33028   2.966   8.799   5.698  1.6559  0.2541  0.2152
 1008MOL0     H33029   2.844   8.930   5.687 -0.3656 -2.6544  1.3692
 1008MOL0     H33030   3.122   8.944   5.549 -0.0918 -0.2427 -2.4399
 1008MOL0     H33031   2.973   9.023   5.500  2.0740 -0.6433 -3.1341
 1008MOL0     H33032   2.879   8.820   5.420  0.0378 -2.0556 -3.1728
 1008MOL0     H33033   3.016   8.722   5.480  0.0119  0.4319 -0.0902
 1008MOL0     H33034   3.059   8.953   5.291 -1.9552 -0.3826  0.3201
 1008MOL0     H33035   3.161   8.802   5.320 -0.0342 -0.9531 -0.1698
 1008MOL0     H33036   2.969   8.666   5.207  1.0351  0.3679 -1.4006
 1008MOL0     H33037   3.060   8.775   5.116  2.7595  1.6646  2.0008
 1008MOL0     H33038   3.474   9.169   5.865  1.2502 -0.3125  1.0268
 1008MOL0     H33039   3.641   9.262   6.026  1.7964  0.1031  2.1541
 1008MOL0     H33040   3.670   9.533   6.447 -2.1501  2.1671 -0.8659
 1008MOL0     H33041   3.799   9.668   6.576 -0.8411  2.6521 -0.5449
 1008MOL0     H33042   5.483  10.380   7.111  0.8765 -0.5286  0.3624
 1008MOL0     H33043   5.690  10.514   7.159  2.2940 -0.3173  2.3665
 1008MOL0     H33044   5.999  10.851   7.219  0.4434 -2.6301 -0.7847
 1008MOL0     H33045   6.196  10.958   7.285  4.6226 -0.1594  0.6531
 1008MOL0     H33046   6.317  11.082   7.486 -3.2207 -2.8829  2.4243
 1008MOL0     H33047   6.417  10.990   7.361  0.3785  1.5369 -0.1194
 1008MOL0     H33048   6.521  11.139   7.544  1.3537  0.1057  1.6173
 1008MOL0     H33049   6.494  10.988   7.635 -1.2957  0.3163 -1.0212
 1008MOL0     H33050   6.648  11.023   7.385 -1.3994  1.0037  0.7218
 1008MOL0     H33051   6.578  10.863   7.424 -2.1263 -0.1858  1.2229
 1008MOL0     H33052   6.740  10.843   7.607 -0.8611  0.0403 -1.0657
 1008MOL0     H33053   6.819  10.901   7.459  4.1287  0.1058  1.9384
 1008MOL0     H33054   6.856  11.224   7.736  3.2327 -1.7616  1.4355
 1008MOL0     H33055   6.201  10.729   7.637  1.4402 -1.1759 -0.9656
 1008MOL0     H33056   5.968  10.625   7.571  0.4960  1.6738  4.6122
 1009MOL0     O33057  11.259   6.264   7.725 -1.0488  0.4723 -0.8410
 1009MOL0     C33058  11.361   6.329   7.686  0.5719  0.8265  0.0576
 1009MOL0     O33059  11.359   6.467   7.673 -0.2716 -0.3571 -1.0494
 1009MOL0     C33060  11.242   6.536   7.708  0.1651  0.9304 -0.0078
 1009MOL0     C33061  11.221   6.588   7.837 -0.3477  0.0876 -0.0004
 1009MOL0     C33062  11.094   6.623   7.880  0.4925  1.3367 -0.1306
 1009MOL0     C33063  10.979   6.600   7.796 -0.6117  0.8767 -0.2870
 1009MOL0     O33064  10.852   6.636   7.833  0.7090  1.0666  0.0176
 1009MOL0     C33065  10.773   6.516   7.847  0.0352  1.0866 -0.6221
 1009MOL0     C33066  10.654   6.551   7.941  0.4853 -0.4288 -0.0162
 1009MOL0     C33067  10.556   6.645   7.863 -0.3479  0.2227  0.1887
 1009MOL0     C33068  10.504   6.616   7.727  0.5820  0.6709 -0.0657
 1009MOL0     C33069  10.380   6.701   7.676 -0.9006  0.0980  0.4574
 1009MOL0     C33070  10.430   6.844   7.635  1.2425 -0.9519  1.0617
 1009MOL0     C33071  10.293   6.925   7.610  0.1782 -0.3592  0.3550
 1009MOL0     C33072  10.327   7.069   7.563  0.3138 -0.2616 -0.1387
 1009MOL0     N33073  10.219   7.158   7.565  0.5184 -0.8589  0.8284
 1009MOL0     C33074  10.161   7.211   7.674  1.0239 -0.7812 -0.2921
 1009MOL0     C33075  10.049   7.261   7.608  0.2870 -0.9491  0.0853
 1009MOL0     C33076   9.944   7.350   7.679  0.0288 -0.3766  0.9666
 1009MOL0     C33077   9.943   7.501   7.661 -1.0215 -0.3918  0.1894
 1009MOL0     C33078   9.930   7.546   7.514  0.4732 -0.6554  0.1344
 1009MOL0     C33079   9.803   7.518   7.436 -0.3760 -0.7141  0.1985
 1009MOL0     O33080   9.688   7.582   7.495  0.6452  0.7510  0.4290
 1009MOL0     C33081   9.566   7.546   7.438 -0.5048 -0.4856  0.4565
 1009MOL0     C33082   9.540   7.468   7.321 -0.8891 -0.2767 -0.2576
 1009MOL0     C33083   9.411   7.436   7.291  0.9047 -0.2319 -0.6884
 1009MOL0     C33084   9.299   7.494   7.352  0.4980 -0.1802 -0.5723
 1009MOL0     C33085   9.154   7.464   7.310 -0.0201 -0.1371 -0.6258
 1009MOL0     O33086   9.061   7.531   7.367  0.0730 -0.7294 -0.3846
 1009MOL0     C33087   8.936   7.505   7.318  0.1553 -1.0660  0.1391
 1009MOL0     C33088   8.897   7.580   7.205  1.5347  0.1287 -0.6224
 1009MOL0     C33089   8.756   7.571   7.163 -0.0560  0.2383  0.0565
 1009MOL0     C33090   8.677   7.471   7.210  0.8114 -1.1612 -1.3240
 1009MOL0     O33091   8.548   7.455   7.174  0.3382  0.2824 -0.7370
 1009MOL0     C33092   8.509   7.525   7.057  0.5041  0.0200  0.4968
 1009MOL0     C33093   8.365   7.478   7.022 -0.1214  0.1600 -0.2232
 1009MOL0     C33094   8.306   7.536   6.893  0.9406  0.0579 -0.8194
 1009MOL0     C33095   8.276   7.691   6.899 -0.3627  0.3929 -1.2000
 1009MOL0     C33096   8.226   7.739   6.761  0.8368 -0.2496 -0.1408
 1009MOL0     C33097   8.145   7.874   6.779 -0.0246 -0.0455  0.1820
 1009MOL0     C33098   8.072   7.916   6.642 -0.6223 -0.1002 -1.3020
 1009MOL0     C33099   7.951   7.831   6.606 -0.6357  0.5573  0.4347
 1009MOL0    Cl33100   7.856   7.884   6.462 -0.0531  0.0695  0.1001
 1009MOL0     C33101   8.732   7.384   7.308 -0.0326 -0.4567 -0.3191
 1009MOL0     C33102   8.850   7.410   7.372 -0.8342 -0.1929  0.1561
 1009MOL0     O33103   9.141   7.370   7.240 -0.0373  0.2613  0.4271
 1009MOL0     C33104   9.327   7.572   7.459 -0.2713  0.3677 -0.8192
 1009MOL0     C33105   9.454   7.596   7.505 -0.0094  0.8426 -0.5587
 1009MOL0     N33106  10.041   7.231   7.479 -0.8006 -0.2187  0.1621
 1009MOL0     N33107  10.142   7.164   7.456 -0.5440 -0.0843  0.6920
 1009MOL0     C33108  11.005   6.556   7.675 -0.2538  0.0271  0.3247
 1009MOL0     C33109  11.130   6.529   7.624  0.6946  0.4828  1.0964
 1009MOL0     C33110  11.485   6.253   7.681 -1.0912  0.3193  0.0713
 1009MOL0     C33111  11.483   6.114   7.679 -0.7894  0.9294  0.2521
 1009MOL0     C33112  11.601   6.046   7.628  0.5995 -0.3138 -0.6307
 1009MOL0     C33113  11.717   6.118   7.588  0.5783  1.6770 -0.0254
 1009MOL0     O33114  11.808   6.037   7.527  0.2017  0.1507  0.0295
 1009MOL0     C33115  11.934   6.089   7.493  0.4846  0.5945 -0.0869
 1009MOL0     C33116  12.047   5.979   7.470 -1.1040 -0.4255 -0.5000
 1009MOL0     C33117  12.088   5.915   7.602  0.5345  1.2445  1.2345
 1009MOL0     C33118  12.000   5.796   7.636  0.8023 -0.7225 -0.8307
 1009MOL0     C33119  12.032   5.670   7.564  0.2569  0.1306  0.1325
 1009MOL0     C33120  12.049   5.567   7.512  0.0115 -1.4101 -0.0864
 1009MOL0     C33121  11.722   6.257   7.605  0.9729  1.2966 -0.0290
 1009MOL0     C33122  11.606   6.325   7.652 -0.1240  0.4500 -0.3214
 1009MOL0     H33123  11.302   6.584   7.909  1.7450  3.1383 -1.9613
 1009MOL0     H33124  11.088   6.656   7.983  2.3894 -1.8102  1.1565
 1009MOL0     H33125  10.835   6.438   7.891 -0.5174  1.0776  0.1699
 1009MOL0     H33126  10.725   6.491   7.752 -3.7347 -0.0255  1.3829
 1009MOL0     H33127  10.685   6.587   8.040 -1.3921  0.2806  0.3585
 1009MOL0     H33128  10.592   6.462   7.958 -0.7246  0.0191 -1.9257
 1009MOL0     H33129  10.616   6.736   7.860  0.0382 -0.0411 -2.1569
 1009MOL0     H33130  10.467   6.666   7.922 -0.1309  1.4921  0.0836
 1009MOL0     H33131  10.578   6.624   7.647 -1.0901  0.8831 -1.6777
 1009MOL0     H33132  10.485   6.508   7.722 -0.4133  0.8893 -3.8078
 1009MOL0     H33133  10.310   6.705   7.761  2.5614 -1.4877  3.6573
 1009MOL0     H33134  10.325   6.655   7.594  0.2659  0.6973 -0.6993
 1009MOL0     H33135  10.485   6.842   7.540 -0.1558 -0.8361  0.2166
 1009MOL0     H33136  10.486   6.893   7.715  1.1883 -2.3602  1.9891
 1009MOL0     H33137  10.236   6.889   7.524  0.4513  1.8674 -0.8328
 1009MOL0     H33138  10.240   6.910   7.704  2.3397 -3.5695  1.2565
 1009MOL0     H33139  10.382   7.071   7.468 -0.8767  1.8756 -0.8550
 1009MOL0     H33140  10.389   7.117   7.640 -0.9212  0.1243  0.6369
 1009MOL0     H33141  10.198   7.230   7.774 -3.3818  3.0619  0.9531
 1009MOL0     H33142   9.950   7.328   7.786 -0.3185  0.1075  1.0914
 1009MOL0     H33143   9.849   7.315   7.638 -0.2024  0.7331  0.5179
 1009MOL0     H33144  10.036   7.545   7.700 -0.7873 -0.5032 -0.2397
 1009MOL0     H33145   9.862   7.546   7.720 -1.5272 -0.4563 -0.4526
 1009MOL0     H33146   9.940   7.655   7.517 -1.0336 -0.4300 -1.5570
 1009MOL0     H33147  10.024   7.520   7.463  0.8177  3.5057 -1.7243
 1009MOL0     H33148   9.787   7.410   7.427 -0.3248 -0.5965 -1.7344
 1009MOL0     H33149   9.809   7.563   7.336 -0.7224  0.6623  0.7739
 1009MOL0     H33150   9.619   7.436   7.255 -0.2295 -0.5768  0.6567
 1009MOL0     H33151   9.388   7.359   7.219  0.8845 -0.2569 -0.6552
 1009MOL0     H33152   8.964   7.658   7.168  1.6133 -1.1176 -3.3085
 1009MOL0     H33153   8.722   7.652   7.098  0.5196 -0.8137 -1.6230
 1009MOL0     H33154   8.578   7.513   6.973  2.0767  1.8155  1.4489
 1009MOL0     H33155   8.494   7.631   7.081 -0.2300  0.2456 -0.8401
 1009MOL0     H33156   8.300   7.502   7.106  0.1795  0.7045 -0.1414
 1009MOL0     H33157   8.371   7.370   7.005  0.7597  0.1495  0.0930
 1009MOL0     H33158   8.211   7.492   6.864 -0.0213  1.0180  0.7440
 1009MOL0     H33159   8.380   7.518   6.814  0.3831  1.1390 -1.6142
 1009MOL0     H33160   8.192   7.700   6.968 -2.0987 -5.3574 -2.0616
 1009MOL0     H33161   8.368   7.745   6.926  1.7530 -1.6333 -3.7877
 1009MOL0     H33162   8.172   7.657   6.714  0.3309 -1.7053  2.7454
 1009MOL0     H33163   8.305   7.766   6.690  1.6331 -0.7714  0.5330
 1009MOL0     H33164   8.224   7.941   6.815  1.6551 -2.1942  0.6825
 1009MOL0     H33165   8.062   7.871   6.850  0.3088 -3.2890  0.5868
 1009MOL0     H33166   8.032   8.014   6.669  1.4531  0.6518 -0.7414
 1009MOL0     H33167   8.140   7.924   6.556  0.6351 -1.7604 -0.5120
 1009MOL0     H33168   7.886   7.837   6.694  0.6147 -1.0572  1.5422
 1009MOL0     H33169   7.975   7.725   6.590 -2.6256 -0.0412  1.0873
 1009MOL0     H33170   8.659   7.320   7.357  1.1279 -1.5924 -0.0416
 1009MOL0     H33171   8.886   7.345   7.451 -4.6648 -2.2520  0.4452
 1009MOL0     H33172   9.249   7.620   7.517 -1.3427  0.2915 -2.1572
 1009MOL0     H33173   9.488   7.647   7.595  3.1354  2.3844 -2.4328
 1009MOL0     H33174  10.921   6.531   7.610  0.7882  1.1721 -1.5728
 1009MOL0     H33175  11.129   6.487   7.524 -2.6601  4.2232 -0.6771
 1009MOL0     H33176  11.392   6.056   7.692  0.0981 -0.0521  2.5634
 1009MOL0     H33177  11.583   5.941   7.611 -3.2187 -0.5653  3.2374
 1009MOL0     H33178  11.966   6.167   7.563 -0.4440  1.4255 -0.5640
 1009MOL0     H33179  11.914   6.124   7.391 -3.2993  0.8288  0.6128
 1009MOL0     H33180  12.030   5.908   7.389 -0.5655  1.9926 -2.8703
 1009MOL0     H33181  12.142   6.026   7.440 -0.5579 -1.2888 -0.1455
 1009MOL0     H33182  12.080   5.994   7.677  1.0326 -0.2722  2.9598
 1009MOL0     H33183  12.189   5.873   7.612 -0.8722 -2.1924  2.2519
 1009MOL0     H33184  12.007   5.792   7.745  1.5954  0.1589 -0.8374
 1009MOL0     H33185  11.893   5.814   7.623  0.4584 -2.0567 -0.0026
 1009MOL0     H33186  12.039   5.477   7.454 -0.0172 -1.6126  0.2275
 1009MOL0     H33187  11.804   6.317   7.565 -0.4401  3.6609  0.4145
 1009MOL0     H33188  11.607   6.433   7.645 -0.8856  0.6682  2.0773
 1010MOL0     O33189   3.998  11.354   7.110 -0.0846  0.0197 -0.0968
 1010MOL0     C33190   3.989  11.460   7.046 -0.5077 -0.3251  0.0450
 1010MOL0     O33191   3.996  11.589   7.091  0.3575 -0.0659 -0.7094
 1010MOL0     C33192   4.073  11.641   7.189  0.2290  0.5699  0.4014
 1010MOL0     C33193   4.051  11.777   7.231 -0.4022  0.5547 -0.1283
 1010MOL0     C33194   4.130  11.828   7.341 -0.1312  0.1202  1.3411
 1010MOL0     C33195   4.235  11.753   7.390  0.2507 -0.0048  0.2339
 1010MOL0     O33196   4.313  11.822   7.484 -0.2613 -0.3672 -0.5297
 1010MOL0     C33197   4.430  11.763   7.525 -0.7788  0.2312  0.8124
 1010MOL0     C33198   4.519  11.853   7.614  0.3951 -0.4264 -0.0721
 1010MOL0     C33199   4.593  11.974   7.542 -0.0694 -0.0346  0.2940
 1010MOL0     C33200   4.510  12.101   7.519 -0.2002  0.5486 -0.0866
 1010MOL0     C33201   4.545  12.196   7.417 -1.1017  0.8604  0.2949
 1010MOL0     C33202   4.534  12.134   7.277  0.9101  0.6035  0.3589
 1010MOL0     C33203   4.553  12.257   7.177 -0.1626  0.2849 -0.3887
 1010MOL0     C33204   4.602  12.220   7.035 -0.7597  0.1411 -0.1865
 1010MOL0     N33205   4.647  12.343   6.969 -0.1596  0.0605  0.1670
 1010MOL0     C33206   4.770  12.393   6.973  0.2024 -0.5865  1.0053
 1010MOL0     C33207   4.781  12.482   6.867  0.4804  0.4515 -0.6211
 1010MOL0     C33208   4.890  12.587   6.852  0.1625 -0.8669  1.0440
 1010MOL0     C33209   4.848  12.726   6.920 -0.4547  0.0014  0.3801
 1010MOL0     C33210   4.940  12.851   6.897  0.1846 -0.3552  0.3867
 1010MOL0     C33211   4.909  12.976   6.974 -0.8704 -1.3138  0.6142
 1010MOL0     O33212   4.763  13.008   6.975  0.6749 -0.2977  0.1789
 1010MOL0     C33213   4.704  13.088   7.068 -0.3020 -0.7318  0.1134
 1010MOL0     C33214   4.578  13.123   7.032 -0.6714  0.2601  0.7106
 1010MOL0     C33215   4.505  13.217   7.103  0.2567  1.0611  1.1317
 1010MOL0     C33216   4.557  13.268   7.222 -0.5339  1.1438  0.4324
 1010MOL0     C33217   4.495  13.369   7.307  0.2045  0.1920 -0.3719
 1010MOL0     O33218   4.374  13.408   7.265 -0.2080 -0.4182 -0.3806
 1010MOL0     C33219   4.302  13.513   7.323 -0.1216 -0.0772 -0.7368
 1010MOL0     C33220   4.197  13.565   7.242  0.0839 -0.8804  0.5866
 1010MOL0     C33221   4.139  13.687   7.281 -0.3500  0.6119 -0.1572
 1010MOL0     C33222   4.172  13.748   7.404 -0.2200 -0.9431  1.0432
 1010MOL0     O33223   4.116  13.867   7.445 -0.3222 -0.3594 -0.6491
 1010MOL0     C33224   3.999  13.912   7.373 -0.9175  0.8806  0.1241
 1010MOL0     C33225   3.953  14.048   7.437  0.1585 -1.5255  0.4534
 1010MOL0     C33226   3.945  14.047   7.594 -0.5030 -0.0796  0.2148
 1010MOL0     C33227   3.868  13.916   7.635  0.0561 -0.1459  1.1030
 1010MOL0     C33228   3.838  13.908   7.780 -0.0965  0.0616 -0.4743
 1010MOL0     C33229   3.728  14.020   7.822 -0.4846  0.3685 -0.0706
 1010MOL0     C33230   3.660  13.988   7.951 -0.1488 -0.3989  0.1344
 1010MOL0     C33231   3.752  13.966   8.075  0.4709 -1.0474  0.7221
 1010MOL0    Cl33232   3.797  14.131   8.120 -0.0250  0.5929  0.6057
 1010MOL0     C33233   4.269  13.691   7.490  0.5901 -1.5899  0.0500
 1010MOL0     C33234   4.341  13.581   7.439  0.1713 -0.2703  0.3100
 1010MOL0     O33235   4.562  13.412   7.402 -0.6438  0.9132  0.8957
 1010MOL0     C33236   4.691  13.223   7.266  0.3430 -0.3518 -0.1943
 1010MOL0     C33237   4.765  13.143   7.185 -0.9148  0.7674  0.1656
 1010MOL0     N33238   4.654  12.498   6.812 -1.0359  0.3058 -0.2878
 1010MOL0     N33239   4.578  12.400   6.862  0.7958  0.5786  0.5092
 1010MOL0     C33240   4.262  11.627   7.345  0.5915  0.1371  0.0536
 1010MOL0     C33241   4.181  11.572   7.245 -0.1722 -0.9152 -0.1150
 1010MOL0     C33242   3.954  11.445   6.902  1.2797 -0.0313  0.0551
 1010MOL0     C33243   3.890  11.543   6.825  0.9638  0.1001 -0.2709
 1010MOL0     C33244   3.860  11.524   6.686 -0.3527 -0.3925 -0.9562
 1010MOL0     C33245   3.873  11.401   6.626 -0.3377  1.3891 -0.1328
 1010MOL0     O33246   3.844  11.395   6.495  0.1003 -0.1359  0.0444
 1010MOL0     C33247   3.803  11.266   6.441  0.2934 -0.1560 -0.3896
 1010MOL0     C33248   3.795  11.285   6.289  0.2658 -0.3074 -0.1989
 1010MOL0     C33249   3.945  11.271   6.230  0.2440  0.9800  0.4329
 1010MOL0     C33250   3.988  11.122   6.221 -0.8466 -0.9750  0.6840
 1010MOL0     C33251   3.918  11.035   6.129 -0.0088  0.4391 -1.2495
 1010MOL0     C33252   3.863  10.957   6.059  0.6173  0.3773  0.0502
 1010MOL0     C33253   3.922  11.297   6.703 -0.9473 -0.0198 -0.2819
 1010MOL0     C33254   3.968  11.324   6.838  0.4969  1.1517  0.5055
 1010MOL0     H33255   3.965  11.836   7.200 -0.3752  0.0499 -1.1972
 1010MOL0     H33256   4.122  11.923   7.394 -1.0376  0.1322  1.1901
 1010MOL0     H33257   4.493  11.719   7.448 -0.1908 -2.7598  2.7862
 1010MOL0     H33258   4.416  11.682   7.598  1.2382  0.2885  1.3173
 1010MOL0     H33259   4.593  11.791   7.666  0.3990 -2.6336 -2.5280
 1010MOL0     H33260   4.459  11.896   7.695  0.5413 -1.2525  0.4909
 1010MOL0     H33261   4.625  11.940   7.443  0.6020  1.1172  0.0931
 1010MOL0     H33262   4.681  11.995   7.605 -0.5284 -1.8819  1.6459
 1010MOL0     H33263   4.415  12.052   7.495  0.8872 -2.1613  0.8091
 1010MOL0     H33264   4.523  12.146   7.619  2.7428 -0.3409  0.0311
 1010MOL0     H33265   4.639  12.245   7.444 -0.7126  1.2484 -1.5866
 1010MOL0     H33266   4.477  12.281   7.417 -4.9147 -1.7821 -3.0697
 1010MOL0     H33267   4.432  12.096   7.260  1.2790  0.1652 -0.9794
 1010MOL0     H33268   4.616  12.063   7.265  2.1243  1.5161  2.6171
 1010MOL0     H33269   4.464  12.320   7.173  0.1873  0.8030 -0.1652
 1010MOL0     H33270   4.607  12.337   7.229  0.2880 -0.2744  0.0164
 1010MOL0     H33271   4.519  12.175   6.980 -0.1423 -2.5650  0.9293
 1010MOL0     H33272   4.689  12.155   7.026  1.3865  2.1176  3.5057
 1010MOL0     H33273   4.856  12.353   7.025  1.7621 -1.6037 -2.1302
 1010MOL0     H33274   4.899  12.601   6.744 -1.2657  1.7337  1.1665
 1010MOL0     H33275   4.985  12.557   6.898  0.6350  0.7588  1.2018
 1010MOL0     H33276   4.830  12.705   7.025 -3.4238  1.3146  0.2408
 1010MOL0     H33277   4.753  12.753   6.872  1.0642 -0.3976 -3.2207
 1010MOL0     H33278   5.044  12.826   6.916  0.6652 -1.1509 -2.7704
 1010MOL0     H33279   4.929  12.881   6.793  0.0713  0.3964  0.6060
 1010MOL0     H33280   4.959  13.062   6.926 -1.1466 -0.7165  1.3732
 1010MOL0     H33281   4.955  12.957   7.071  2.1022 -1.0733 -0.6442
 1010MOL0     H33282   4.542  13.080   6.939 -2.9352  1.0699  1.1434
 1010MOL0     H33283   4.406  13.243   7.070 -0.2989 -0.2689  1.6728
 1010MOL0     H33284   4.184  13.529   7.141  0.2677 -0.2600  0.3432
 1010MOL0     H33285   4.074  13.733   7.208  1.1568 -1.6268 -3.1591
 1010MOL0     H33286   3.919  13.838   7.379  1.6882 -2.2392 -1.1157
 1010MOL0     H33287   4.026  13.930   7.268  0.3139  3.3085  0.7699
 1010MOL0     H33288   3.857  14.083   7.397  0.2653  0.8132  2.0353
 1010MOL0     H33289   4.035  14.116   7.409 -0.1104 -0.6639  1.6870
 1010MOL0     H33290   3.887  14.136   7.619 -1.2217 -0.5779  0.3650
 1010MOL0     H33291   4.044  14.057   7.637  0.6206 -1.1084 -1.9619
 1010MOL0     H33292   3.771  13.918   7.584  2.4405 -3.4363 -4.3245
 1010MOL0     H33293   3.921  13.824   7.610  0.3169  0.6007 -1.3406
 1010MOL0     H33294   3.927  13.921   7.842  0.0238 -1.2556 -0.3444
 1010MOL0     H33295   3.796  13.808   7.797  1.1063  0.0481  3.2361
 1010MOL0     H33296   3.655  14.037   7.742 -0.2213  3.0134  0.1480
 1010MOL0     H33297   3.782  14.114   7.834 -2.3006  1.2738  1.7350
 1010MOL0     H33298   3.581  14.063   7.969  0.4032  0.1411  0.3501
 1010MOL0     H33299   3.606  13.898   7.919 -0.9428 -0.5941  1.9154
 1010MOL0     H33300   3.844  13.908   8.064  0.6485 -0.3415 -3.2329
 1010MOL0     H33301   3.687  13.929   8.154  0.0534 -0.0406  0.8691
 1010MOL0     H33302   4.291  13.738   7.585 -2.7723 -2.5069  1.4146
 1010MOL0     H33303   4.419  13.545   7.505 -0.4835  2.7967  3.0942
 1010MOL0     H33304   4.742  13.261   7.354 -0.3347 -0.5371  0.2853
 1010MOL0     H33305   4.870  13.127   7.206  0.0701  0.8085 -3.8713
 1010MOL0     H33306   4.346  11.570   7.384  1.3682  2.1377  1.5145
 1010MOL0     H33307   4.207  11.475   7.204 -1.6430 -0.7852 -1.4470
 1010MOL0     H33308   3.878  11.647   6.854 -1.2562  0.4268 -2.1133
 1010MOL0     H33309   3.836  11.615   6.633  1.5646  2.7996  3.0684
 1010MOL0     H33310   3.700  11.246   6.473 -0.1145  1.6198 -0.5289
 1010MOL0     H33311   3.875  11.186   6.461  2.1969  0.6853 -3.2622
 1010MOL0     H33312   3.730  11.205   6.253  1.1426 -0.7254 -0.8976
 1010MOL0     H33313   3.753  11.385   6.276  0.6427  0.1927  2.0395
 1010MOL0     H33314   4.018  11.309   6.302  5.0162  0.2854 -3.5876
 1010MOL0     H33315   3.943  11.332   6.140 -0.3926  0.5631  0.1549
 1010MOL0     H33316   4.089  11.130   6.180 -0.9157 -1.1475  0.4811
 1010MOL0     H33317   4.000  11.077   6.320  0.0552  1.2765  1.6593
 1010MOL0     H33318   3.820  10.879   5.999  1.8531  0.7933 -1.4433
 1010MOL0     H33319   3.929  11.200   6.654 -4.3454 -0.5301  0.0065
 1010MOL0     H33320   4.020  11.239   6.884 -2.0556 -1.2599 -0.7704
 1011MOL0     O33321  10.086   7.368  11.134 -0.7781  0.2959 -0.7042
 1011MOL0     C33322  10.064   7.482  11.163  0.3813 -0.5491 -0.3325
 1011MOL0     O33323  10.078   7.586  11.067  0.1202 -0.4515  0.0897
 1011MOL0     C33324  10.107   7.555  10.933 -0.2352 -0.4816 -0.8861
 1011MOL0     C33325  10.240   7.551  10.886  0.4904 -0.2836  0.6451
 1011MOL0     C33326  10.260   7.526  10.751  0.0931  0.5836 -0.2954
 1011MOL0     C33327  10.148   7.521  10.658 -1.5154  0.4141 -0.3421
 1011MOL0     O33328  10.178   7.514  10.525  0.1969  0.2267 -0.0333
 1011MOL0     C33329  10.265   7.414  10.479 -0.0166  0.3300  0.7543
 1011MOL0     C33330  10.237   7.399  10.327  1.4460 -0.0225  0.0898
 1011MOL0     C33331  10.370   7.368  10.248  0.3908 -0.2527  0.7794
 1011MOL0     C33332  10.459   7.488  10.238  0.3185  0.1033 -0.4349
 1011MOL0     C33333  10.578   7.479  10.151  0.1327 -0.5718  0.1514
 1011MOL0     C33334  10.635   7.612  10.105 -0.9691  0.6198  0.0679
 1011MOL0     C33335  10.788   7.589  10.069 -0.6587 -0.9204 -0.4310
 1011MOL0     C33336  10.869   7.699  10.143  0.6966  1.0067  0.3593
 1011MOL0     N33337  10.904   7.647  10.287  0.7614 -0.5780  0.0702
 1011MOL0     C33338  10.842   7.695  10.407 -0.5887  0.3273 -1.2725
 1011MOL0     C33339  10.921   7.641  10.508  0.5668 -0.3162 -0.3817
 1011MOL0     C33340  10.905   7.669  10.658  0.4430  0.6134  1.0245
 1011MOL0     C33341  10.798   7.580  10.721 -0.3963 -0.6508 -0.4369
 1011MOL0     C33342  10.813   7.422  10.720 -0.0889  0.1982 -0.2055
 1011MOL0     C33343  10.812   7.353  10.578  1.2818 -1.1805  0.1808
 1011MOL0     O33344  10.790   7.211  10.590  0.6969 -0.4360 -0.7505
 1011MOL0     C33345  10.712   7.166  10.478 -0.7981  0.3001  0.3168
 1011MOL0     C33346  10.603   7.078  10.501 -0.1069 -0.0118  0.2814
 1011MOL0     C33347  10.514   7.036  10.410 -0.2963  0.1431  0.2355
 1011MOL0     C33348  10.542   7.062  10.278 -0.7530 -0.8581  0.9033
 1011MOL0     C33349  10.453   7.012  10.167 -0.3675  0.4239  0.9270
 1011MOL0     O33350  10.368   6.911  10.193  0.9452  0.4740  0.9916
 1011MOL0     C33351  10.275   6.876  10.092  1.5164  0.2627 -0.4492
 1011MOL0     C33352  10.312   6.774  10.003  0.0516  0.3325 -1.1895
 1011MOL0     C33353  10.233   6.749   9.894  0.7260 -0.2670 -0.8758
 1011MOL0     C33354  10.109   6.825   9.878 -0.1371 -0.0426 -0.3348
 1011MOL0     O33355  10.028   6.805   9.766 -0.6690  0.4654  0.1995
 1011MOL0     C33356   9.998   6.915   9.679  0.1468  0.8572  0.1168
 1011MOL0     C33357   9.931   6.853   9.558 -0.7796 -0.2924  0.2046
 1011MOL0     C33358   9.789   6.792   9.591  0.5651 -0.2554  0.7117
 1011MOL0     C33359   9.719   6.754   9.455 -0.5729 -0.0090  0.1708
 1011MOL0     C33360   9.594   6.662   9.470 -0.4260  0.2546 -0.3561
 1011MOL0     C33361   9.489   6.715   9.566  0.0554  1.0184  0.1949
 1011MOL0     C33362   9.382   6.604   9.616 -0.2388 -0.6323  0.0742
 1011MOL0     C33363   9.427   6.532   9.746  0.5490 -1.3533  0.7895
 1011MOL0    Cl33364   9.427   6.654   9.872 -0.2435  0.4547 -0.3226
 1011MOL0     C33365  10.086   6.938   9.961  1.2518  0.4062  0.3292
 1011MOL0     C33366  10.166   6.957  10.072  0.3154  0.0980 -0.0261
 1011MOL0     O33367  10.480   7.062  10.055 -0.1450 -0.1543 -0.4792
 1011MOL0     C33368  10.666   7.128  10.241 -0.3508 -0.0296 -0.0003
 1011MOL0     C33369  10.746   7.192  10.344  1.0580  0.3104  1.0814
 1011MOL0     N33370  11.026   7.570  10.455 -0.3449  0.3430 -0.0442
 1011MOL0     N33371  11.014   7.575  10.326 -0.7274  0.6144 -0.5063
 1011MOL0     C33372  10.022   7.552  10.702  0.0492  0.2404  0.0928
 1011MOL0     C33373  10.000   7.556  10.847 -0.3379  0.5128  0.5022
 1011MOL0     C33374  10.063   7.526  11.306  0.3226  0.7063  1.5069
 1011MOL0     C33375  10.025   7.443  11.411 -0.2849  0.6827 -0.0033
 1011MOL0     C33376  10.026   7.482  11.540  0.2843 -0.9476 -0.7052
 1011MOL0     C33377  10.083   7.609  11.578 -0.1805 -1.1566  0.1376
 1011MOL0     O33378  10.109   7.639  11.712 -0.1945  1.5394  0.2444
 1011MOL0     C33379  10.006   7.719  11.768 -0.1432 -0.1564  0.4622
 1011MOL0     C33380  10.064   7.806  11.880  0.1374 -0.3197 -0.6924
 1011MOL0     C33381  10.162   7.918  11.832 -0.7010 -0.9184 -0.2442
 1011MOL0     C33382  10.118   8.066  11.797  0.2455 -0.3698 -0.4615
 1011MOL0     C33383  10.010   8.071  11.691 -0.6262  0.0758  0.0544
 1011MOL0     C33384   9.918   8.065  11.616 -0.0483  0.1941  1.0007
 1011MOL0     C33385  10.133   7.690  11.476 -0.6652 -0.3164  0.5023
 1011MOL0     C33386  10.117   7.647  11.337  0.8253 -0.2917 -1.0010
 1011MOL0     H33387  10.318   7.573  10.958  0.0162 -0.5710  1.2580
 1011MOL0     H33388  10.357   7.515  10.704  0.9405 -0.8473  1.6583
 1011MOL0     H33389  10.247   7.315  10.522 -1.6256 -0.7499 -2.1347
 1011MOL0     H33390  10.364   7.454  10.502  0.4985 -0.8849  0.7265
 1011MOL0     H33391  10.190   7.487  10.281 -1.4934 -1.7763 -0.4778
 1011MOL0     H33392  10.159   7.323  10.326  0.6649  0.6867  1.9939
 1011MOL0     H33393  10.347   7.347  10.143  0.6759 -0.1581  0.6975
 1011MOL0     H33394  10.412   7.275  10.289 -3.7918 -3.0332 -0.6086
 1011MOL0     H33395  10.399   7.572  10.203 -0.0090  0.1193  0.1494
 1011MOL0     H33396  10.490   7.515  10.340 -2.0795  1.4466  0.0156
 1011MOL0     H33397  10.548   7.431  10.057  1.7859 -0.4909 -0.4421
 1011MOL0     H33398  10.646   7.415  10.208 -0.3246  0.1187  1.5009
 1011MOL0     H33399  10.620   7.685  10.185 -3.2937 -1.6442  1.9015
 1011MOL0     H33400  10.589   7.648  10.013 -2.5243  3.2727  1.7522
 1011MOL0     H33401  10.831   7.492  10.096  2.6720 -0.3465 -3.0298
 1011MOL0     H33402  10.805   7.589   9.961  1.8546 -2.9404 -0.1433
 1011MOL0     H33403  10.804   7.786  10.151 -2.6959 -1.0283 -2.2970
 1011MOL0     H33404  10.960   7.730  10.092 -1.0830  3.5008 -1.5171
 1011MOL0     H33405  10.751   7.752  10.417 -0.1717  0.5983  2.7342
 1011MOL0     H33406  10.869   7.771  10.670 -1.5823  0.2319 -1.0240
 1011MOL0     H33407  10.995   7.655  10.719 -0.2241  0.1952  1.9300
 1011MOL0     H33408  10.709   7.604  10.662  1.9545 -1.9512 -4.9991
 1011MOL0     H33409  10.783   7.618  10.822  1.6508  3.1642 -1.3754
 1011MOL0     H33410  10.909   7.406  10.770  0.0573  5.2107  1.6726
 1011MOL0     H33411  10.733   7.380  10.781  2.3179  0.9779  3.8530
 1011MOL0     H33412  10.909   7.371  10.530  0.9797  3.6911  0.8301
 1011MOL0     H33413  10.741   7.403  10.511 -0.3437 -3.3520  0.1868
 1011MOL0     H33414  10.584   7.075  10.608  1.0445  0.6459  0.5316
 1011MOL0     H33415  10.419   7.004  10.452 -0.4899 -2.6546 -1.9943
 1011MOL0     H33416  10.402   6.717  10.024 -0.9359 -0.5734  0.9211
 1011MOL0     H33417  10.268   6.677   9.821 -0.9097 -1.8978 -0.1247
 1011MOL0     H33418  10.091   6.962   9.648  0.8741  0.4836  1.6502
 1011MOL0     H33419   9.941   6.995   9.727  0.0702  1.3843 -0.8323
 1011MOL0     H33420   9.993   6.778   9.509  0.1806  1.1956 -0.9575
 1011MOL0     H33421   9.933   6.922   9.473 -1.3975  0.5089  0.8133
 1011MOL0     H33422   9.730   6.865   9.648 -0.1244  1.4229 -1.9644
 1011MOL0     H33423   9.791   6.705   9.657 -3.6179  0.4386  2.0679
 1011MOL0     H33424   9.687   6.848   9.409 -1.4317 -0.3100  0.1297
 1011MOL0     H33425   9.796   6.699   9.401  0.4346 -1.8254  3.2300
 1011MOL0     H33426   9.634   6.564   9.499 -1.9411 -0.4700 -0.6319
 1011MOL0     H33427   9.554   6.637   9.371  1.7725  2.8258 -2.0350
 1011MOL0     H33428   9.442   6.800   9.515  1.9584  2.7430  1.1882
 1011MOL0     H33429   9.544   6.759   9.648  2.5460  3.4520 -2.5507
 1011MOL0     H33430   9.289   6.656   9.641 -0.1538  0.7847 -2.3163
 1011MOL0     H33431   9.369   6.519   9.548 -3.6317 -0.5275  0.3903
 1011MOL0     H33432   9.529   6.498   9.726  1.7686  1.1754  2.2667
 1011MOL0     H33433   9.369   6.444   9.777 -2.9474  0.3170 -0.5301
 1011MOL0     H33434  10.004   7.008   9.945  2.6892  2.4796  1.5086
 1011MOL0     H33435  10.147   7.042  10.137  3.0615  2.6932 -2.3252
 1011MOL0     H33436  10.695   7.143  10.137 -0.4097 -1.1644 -0.1949
 1011MOL0     H33437  10.832   7.253  10.319 -0.6181  0.9083 -4.4628
 1011MOL0     H33438   9.938   7.548  10.633  1.4340 -3.5690 -1.6912
 1011MOL0     H33439   9.905   7.581  10.893 -3.3808 -2.2188 -3.5419
 1011MOL0     H33440   9.992   7.345  11.377 -4.3590  1.8501  0.0551
 1011MOL0     H33441   9.990   7.422  11.623  1.0100 -0.0240  0.3038
 1011MOL0     H33442   9.924   7.660  11.809 -0.4026 -0.4654 -0.4780
 1011MOL0     H33443   9.958   7.777  11.689  1.2171 -2.5367 -2.2917
 1011MOL0     H33444   9.982   7.849  11.938 -0.1205 -1.2092 -0.3805
 1011MOL0     H33445  10.123   7.737  11.941 -1.4388 -0.3681  0.8768
 1011MOL0     H33446  10.191   7.889  11.731  3.0646  2.4435 -0.3648
 1011MOL0     H33447  10.245   7.921  11.903 -3.7264  0.0141  3.6186
 1011MOL0     H33448  10.094   8.108  11.895  3.3407 -2.9376  1.6120
 1011MOL0     H33449  10.200   8.125  11.756 -0.5674  1.3787  0.3234
 1011MOL0     H33450   9.845   8.046  11.540  1.3095 -0.9582 -0.0819
 1011MOL0     H33451  10.171   7.789  11.496  1.5971 -0.4166 -2.4544
 1011MOL0     H33452  10.154   7.722  11.268 -1.0383  1.9468  0.2992
 1012MOL0     O33453   0.724   1.450   6.720  0.3957 -0.6228  0.2381
 1012MOL0     C33454   0.785   1.545   6.674 -0.9351  0.2075  0.1970
 1012MOL0     O33455   0.924   1.537   6.660  0.0988 -0.3893 -0.1438
 1012MOL0     C33456   0.976   1.415   6.698  0.3196  0.0149  0.0347
 1012MOL0     C33457   0.938   1.290   6.636 -0.5909 -0.6126 -0.2006
 1012MOL0     C33458   1.008   1.175   6.657  0.0190 -0.2085  0.4565
 1012MOL0     C33459   1.118   1.175   6.736 -0.7878  0.5524  0.4749
 1012MOL0     O33460   1.191   1.063   6.764  0.3830 -0.2760  0.1045
 1012MOL0     C33461   1.304   1.025   6.687 -0.2928 -0.4602  0.2665
 1012MOL0     C33462   1.373   1.141   6.600  0.0194  0.3781 -0.1530
 1012MOL0     C33463   1.512   1.108   6.558  0.0935  1.1224 -0.0348
 1012MOL0     C33464   1.542   0.970   6.497 -0.4518 -0.3337  0.2663
 1012MOL0     C33465   1.673   0.955   6.432 -0.0858 -1.1685 -0.4333
 1012MOL0     C33466   1.687   1.013   6.297  0.1734 -0.0695  0.0782
 1012MOL0     C33467   1.829   1.043   6.252 -0.0929 -0.1638  0.8820
 1012MOL0     C33468   1.830   1.118   6.114 -0.7923  0.0682  0.4924
 1012MOL0     N33469   1.785   1.032   6.000  0.3125 -0.6170  0.0164
 1012MOL0     C33470   1.699   1.079   5.902 -0.1107 -0.1061  0.8564
 1012MOL0     C33471   1.713   0.982   5.804 -0.3397  0.0272 -1.5675
 1012MOL0     C33472   1.632   0.980   5.678  0.3541 -0.7082 -0.3516
 1012MOL0     C33473   1.624   0.847   5.622 -1.0388 -0.2054  0.1773
 1012MOL0     C33474   1.499   0.831   5.539  0.2161 -0.5722  0.3568
 1012MOL0     C33475   1.459   0.946   5.443  0.0056 -0.2379 -0.1485
 1012MOL0     O33476   1.395   1.059   5.500  0.3743  0.3078 -1.1062
 1012MOL0     C33477   1.248   1.073   5.494 -0.1380  0.6175 -0.2518
 1012MOL0     C33478   1.167   0.977   5.437 -0.3164  0.5243  0.4652
 1012MOL0     C33479   1.031   0.976   5.445  0.3927  0.2039 -0.0279
 1012MOL0     C33480   0.970   1.091   5.505 -0.5141  0.9756 -0.3003
 1012MOL0     C33481   0.830   1.102   5.486  0.1812  0.1223 -0.4067
 1012MOL0     O33482   0.789   1.233   5.484  0.1601  0.3602  0.2155
 1012MOL0     C33483   0.668   1.281   5.456  0.0990 -0.5178  0.5091
 1012MOL0     C33484   0.663   1.420   5.466 -0.9756 -0.8234  0.3043
 1012MOL0     C33485   0.538   1.492   5.443  0.6244  0.5819 -0.4989
 1012MOL0     C33486   0.414   1.416   5.435  0.3742 -0.8258 -0.2495
 1012MOL0     O33487   0.291   1.480   5.422 -0.1499  0.3665 -0.1622
 1012MOL0     C33488   0.278   1.599   5.341 -0.0501  0.0386 -1.5304
 1012MOL0     C33489   0.136   1.641   5.316  0.0733  0.1049  0.1015
 1012MOL0     C33490   0.115   1.781   5.273 -0.2198 -0.6854  0.2895
 1012MOL0     C33491   0.179   1.802   5.139  0.3306  0.5839  1.0920
 1012MOL0     C33492   0.138   1.935   5.077  0.4008 -0.2418  0.7986
 1012MOL0     C33493   0.192   2.068   5.141  0.1791  0.6479  0.7660
 1012MOL0     C33494   0.348   2.084   5.112 -0.3863 -0.4427 -0.2976
 1012MOL0     C33495   0.388   2.234   5.109 -0.6865 -1.1107  0.3190
 1012MOL0    Cl33496   0.324   2.299   4.954  0.5150 -0.2192 -0.3644
 1012MOL0     C33497   0.422   1.274   5.427 -0.5827 -0.1625 -0.6671
 1012MOL0     C33498   0.546   1.211   5.426 -0.3459  0.6796  0.6535
 1012MOL0     O33499   0.766   0.998   5.469  0.4655  0.2813 -0.7262
 1012MOL0     C33500   1.048   1.186   5.574  0.4350 -0.1619  0.5047
 1012MOL0     C33501   1.184   1.176   5.575  0.9846 -0.4056  0.6212
 1012MOL0     N33502   1.817   0.896   5.833  0.2378  0.4313 -0.8869
 1012MOL0     N33503   1.863   0.927   5.948  0.1296  0.3425 -0.0848
 1012MOL0     C33504   1.162   1.297   6.795  0.0784  0.4871 -0.8630
 1012MOL0     C33505   1.089   1.419   6.783  0.4969  0.0261 -0.6342
 1012MOL0     C33506   0.718   1.669   6.637 -0.4110  0.1598 -0.9116
 1012MOL0     C33507   0.789   1.784   6.593 -0.3896 -0.4332 -0.2263
 1012MOL0     C33508   0.732   1.906   6.565  0.4570  0.2459  0.0495
 1012MOL0     C33509   0.594   1.922   6.569 -0.3237  0.0686  0.9241
 1012MOL0     O33510   0.517   2.030   6.539 -0.9843  0.0265  0.2549
 1012MOL0     C33511   0.582   2.155   6.533  0.4286  0.2942 -0.5428
 1012MOL0     C33512   0.475   2.259   6.563  0.7869 -0.4663 -0.0823
 1012MOL0     C33513   0.363   2.266   6.457  0.0420 -0.3504  0.4937
 1012MOL0     C33514   0.237   2.339   6.507 -0.5681  0.0078  0.4405
 1012MOL0     C33515   0.138   2.244   6.569 -0.3066  0.5945 -0.1568
 1012MOL0     C33516   0.055   2.171   6.612  0.9405  0.3399  1.0488
 1012MOL0     C33517   0.523   1.813   6.620 -0.9081 -0.1721  0.8601
 1012MOL0     C33518   0.574   1.685   6.647  0.3231  0.5835  0.5533
 1012MOL0     H33519   0.852   1.302   6.570 -0.8345 -4.1343 -0.7619
 1012MOL0     H33520   0.965   1.087   6.609 -1.5555 -0.0223  1.4390
 1012MOL0     H33521   1.280   0.939   6.625  2.7767 -1.4023  0.2326
 1012MOL0     H33522   1.376   0.999   6.765 -4.2348 -0.9895  4.0756
 1012MOL0     H33523   1.361   1.246   6.629  1.2246 -0.0545  2.1152
 1012MOL0     H33524   1.327   1.140   6.501 -0.6857 -0.9747  0.1655
 1012MOL0     H33525   1.583   1.110   6.641 -0.3970  1.1950  0.3903
 1012MOL0     H33526   1.541   1.184   6.484  1.0899 -2.0741 -3.1900
 1012MOL0     H33527   1.536   0.888   6.569  3.1749 -0.9108  0.0940
 1012MOL0     H33528   1.465   0.950   6.422  1.1315  3.8821 -2.8967
 1012MOL0     H33529   1.689   0.847   6.438  0.5519 -1.0078  1.6651
 1012MOL0     H33530   1.744   1.011   6.493 -1.5752 -0.8526  1.0817
 1012MOL0     H33531   1.622   1.100   6.288  1.7631  0.9565 -2.7524
 1012MOL0     H33532   1.636   0.941   6.232 -4.9367  0.4731  2.9853
 1012MOL0     H33533   1.880   1.111   6.320 -1.2547  2.6034 -0.8176
 1012MOL0     H33534   1.888   0.951   6.245  0.4567  0.2957 -1.3768
 1012MOL0     H33535   1.931   1.150   6.084 -0.8068 -1.8620 -1.8290
 1012MOL0     H33536   1.769   1.208   6.116 -0.3662  0.5526 -2.7238
 1012MOL0     H33537   1.637   1.168   5.897 -1.6492 -1.2242 -1.3435
 1012MOL0     H33538   1.678   1.055   5.612 -2.1172  1.3023  0.0666
 1012MOL0     H33539   1.533   1.017   5.705  1.7537  3.0318  0.3663
 1012MOL0     H33540   1.611   0.777   5.706  1.0251 -1.8300 -0.7644
 1012MOL0     H33541   1.721   0.822   5.577 -2.2157 -2.2661 -1.4210
 1012MOL0     H33542   1.525   0.744   5.478  1.7538  0.7957 -1.0220
 1012MOL0     H33543   1.411   0.810   5.601  0.1912 -0.8338  0.2353
 1012MOL0     H33544   1.406   0.894   5.363 -0.9645 -2.4944  1.8514
 1012MOL0     H33545   1.551   0.980   5.396  0.4982 -1.3073  0.0216
 1012MOL0     H33546   1.222   0.901   5.382 -0.0177  1.4404 -0.5274
 1012MOL0     H33547   0.968   0.901   5.400  0.8363  0.1935 -0.6426
 1012MOL0     H33548   0.751   1.479   5.488 -0.2818 -1.0838 -1.6059
 1012MOL0     H33549   0.544   1.600   5.453  0.3315  0.5413  0.1695
 1012MOL0     H33550   0.325   1.586   5.243  0.6088  0.9974 -1.3524
 1012MOL0     H33551   0.316   1.687   5.392 -2.7087 -0.2828  1.3522
 1012MOL0     H33552   0.074   1.630   5.406  1.7498  2.2848  1.6468
 1012MOL0     H33553   0.091   1.571   5.246 -0.8085  0.5534  0.2045
 1012MOL0     H33554   0.168   1.849   5.339  2.4494 -1.1387 -1.2455
 1012MOL0     H33555   0.014   1.807   5.237  0.1044  0.6318  0.2817
 1012MOL0     H33556   0.288   1.799   5.146  0.6660 -0.5470 -2.6806
 1012MOL0     H33557   0.148   1.730   5.063 -1.8616  1.3554  1.1743
 1012MOL0     H33558   0.029   1.942   5.072  0.0097 -2.3632  3.6943
 1012MOL0     H33559   0.166   1.929   4.971 -3.5829 -2.7333 -0.3014
 1012MOL0     H33560   0.187   2.053   5.249 -0.8505 -1.3412  0.4964
 1012MOL0     H33561   0.131   2.150   5.103 -0.5931  0.4241  1.5009
 1012MOL0     H33562   0.411   2.028   5.183 -0.6983  0.3293  0.6189
 1012MOL0     H33563   0.367   2.060   5.007  1.2435  2.3417 -0.7544
 1012MOL0     H33564   0.497   2.240   5.113 -0.7276  1.0274 -0.7962
 1012MOL0     H33565   0.357   2.292   5.197  0.3942 -4.0101  2.7977
 1012MOL0     H33566   0.328   1.223   5.408  0.4504 -1.5185 -2.5950
 1012MOL0     H33567   0.551   1.104   5.407  2.1258  0.1552  3.5509
 1012MOL0     H33568   1.003   1.273   5.621  3.5952  1.8823  0.0680
 1012MOL0     H33569   1.259   1.239   5.623 -0.4252 -0.2561  2.7402
 1012MOL0     H33570   1.253   1.295   6.855 -0.1700 -0.3508 -0.4947
 1012MOL0     H33571   1.118   1.516   6.823  0.0334  0.6313 -1.7088
 1012MOL0     H33572   0.894   1.785   6.563 -0.4529  2.1153 -0.5539
 1012MOL0     H33573   0.792   1.982   6.516  1.1303 -0.5154 -0.3472
 1012MOL0     H33574   0.623   2.153   6.432  3.8314 -0.7523  0.7357
 1012MOL0     H33575   0.666   2.171   6.601  2.0998 -3.7104 -1.3907
 1012MOL0     H33576   0.426   2.233   6.657 -1.5641  0.7619 -0.8640
 1012MOL0     H33577   0.522   2.357   6.572 -0.0840  0.3784 -3.2297
 1012MOL0     H33578   0.348   2.168   6.411  0.5605 -0.2627  0.1289
 1012MOL0     H33579   0.413   2.329   6.382  2.5852 -1.0609  1.4661
 1012MOL0     H33580   0.256   2.423   6.575 -2.3974  0.6942  0.1743
 1012MOL0     H33581   0.193   2.384   6.417  2.5560 -0.4213 -1.4318
 1012MOL0     H33582  -0.032   2.113   6.637  0.4534  0.2289 -0.7891
 1012MOL0     H33583   0.416   1.819   6.602 -0.7586 -0.1792 -0.0734
 1012MOL0     H33584   0.501   1.611   6.678 -1.1550  1.2309 -1.1574
 1013MOL0     O33585   2.513  11.205   3.497  0.0030 -0.1204  0.2232
 1013MOL0     C33586   2.548  11.101   3.443 -0.6969  0.0204  0.3198
 1013MOL0     O33587   2.494  11.059   3.324  0.0877 -0.7889 -0.2098
 1013MOL0     C33588   2.422  11.151   3.252  0.1169  1.1417  0.0946
 1013MOL0     C33589   2.314  11.235   3.294 -0.8094 -0.3466  0.1281
 1013MOL0     C33590   2.245  11.318   3.198  0.5032  0.0126  0.1220
 1013MOL0     C33591   2.280  11.314   3.067  0.6324  1.0959 -0.9194
 1013MOL0     O33592   2.196  11.382   2.981  0.1178  0.0830  0.5021
 1013MOL0     C33593   2.125  11.299   2.884 -0.6689  0.4976 -0.7252
 1013MOL0     C33594   2.001  11.393   2.860  0.3329 -0.3095 -0.3301
 1013MOL0     C33595   2.058  11.512   2.789  1.0649  0.2269 -0.2676
 1013MOL0     C33596   1.950  11.597   2.730  0.5426 -0.3702 -0.9206
 1013MOL0     C33597   1.892  11.704   2.832  0.4707 -1.1147 -1.3943
 1013MOL0     C33598   1.743  11.732   2.815  0.2516  0.7080  0.0340
 1013MOL0     C33599   1.662  11.615   2.867 -1.0578 -0.2584 -0.1662
 1013MOL0     C33600   1.507  11.629   2.840  0.1655  0.2602  0.9501
 1013MOL0     N33601   1.460  11.535   2.729  1.1159  0.3589  0.2432
 1013MOL0     C33602   1.524  11.482   2.624 -0.1128  0.1955  0.0620
 1013MOL0     C33603   1.433  11.418   2.539 -0.7661 -1.1787  0.7186
 1013MOL0     C33604   1.477  11.347   2.414  0.0888  0.1834 -0.1867
 1013MOL0     C33605   1.516  11.444   2.289 -0.2699 -0.3356 -0.5872
 1013MOL0     C33606   1.622  11.543   2.303 -0.3691 -0.3065 -0.6909
 1013MOL0     C33607   1.764  11.476   2.301  0.8476 -0.3893 -0.5017
 1013MOL0     O33608   1.788  11.424   2.438  0.2736 -0.1056  0.1214
 1013MOL0     C33609   1.902  11.357   2.464 -0.7143 -0.0856 -0.4085
 1013MOL0     C33610   2.032  11.409   2.448  0.0724 -0.1480  0.5680
 1013MOL0     C33611   2.150  11.336   2.481  0.6259  0.0171 -0.1154
 1013MOL0     C33612   2.133  11.204   2.536 -0.1228  0.0663  0.3336
 1013MOL0     C33613   2.245  11.113   2.568  0.0283  0.3620 -0.0178
 1013MOL0     O33614   2.363  11.160   2.518 -0.1224  0.4076  0.5779
 1013MOL0     C33615   2.486  11.107   2.558  0.6431  0.5338  0.0506
 1013MOL0     C33616   2.588  11.199   2.536 -0.1339 -0.2042  0.0062
 1013MOL0     C33617   2.720  11.167   2.588 -0.0071  0.1684 -0.0789
 1013MOL0     C33618   2.750  11.040   2.650  0.0996 -0.8102 -0.2705
 1013MOL0     O33619   2.872  11.016   2.698  0.5483 -0.3533  0.1330
 1013MOL0     C33620   2.900  10.885   2.759 -0.2683  0.4508  0.3587
 1013MOL0     C33621   3.025  10.887   2.834 -0.3690 -0.8664 -0.1607
 1013MOL0     C33622   3.145  10.911   2.748 -0.2709  0.0389  0.9717
 1013MOL0     C33623   3.169  10.808   2.641  0.1336  0.5832  1.3387
 1013MOL0     C33624   3.174  10.663   2.703 -0.2124 -0.0671  0.5684
 1013MOL0     C33625   3.245  10.559   2.617  0.2572 -0.1574 -1.0584
 1013MOL0     C33626   3.242  10.419   2.676 -0.3867  0.8678  0.4446
 1013MOL0     C33627   3.359  10.335   2.627  0.1940 -0.4138  0.0341
 1013MOL0    Cl33628   3.459  10.293   2.761 -0.0170  0.4117  0.3715
 1013MOL0     C33629   2.651  10.943   2.634  0.3824  0.5717 -0.9492
 1013MOL0     C33630   2.525  10.977   2.597  1.0694  0.2536 -0.0299
 1013MOL0     O33631   2.226  11.000   2.615  0.2569 -0.1510  0.6698
 1013MOL0     C33632   2.005  11.166   2.582 -0.2165 -0.5328  0.5563
 1013MOL0     C33633   1.891  11.247   2.550 -0.2043  0.4938 -0.7729
 1013MOL0     N33634   1.308  11.432   2.602 -0.6161 -0.3166 -0.0092
 1013MOL0     N33635   1.322  11.501   2.711 -0.2761  0.0105  0.1076
 1013MOL0     C33636   2.360  11.206   3.027  0.5235 -0.6785 -0.2758
 1013MOL0     C33637   2.433  11.128   3.114 -0.0681  0.2715  0.6047
 1013MOL0     C33638   2.653  11.012   3.492 -0.4611 -0.4669 -0.4698
 1013MOL0     C33639   2.712  11.031   3.617  0.3199 -0.2062  0.1624
 1013MOL0     C33640   2.822  10.962   3.663  0.4819  0.4532  0.1622
 1013MOL0     C33641   2.884  10.879   3.575 -1.6966 -0.1957  0.3822
 1013MOL0     O33642   3.003  10.819   3.616  0.5221 -0.3177  0.1130
 1013MOL0     C33643   3.103  10.893   3.688 -0.0101  0.0504 -0.8041
 1013MOL0     C33644   3.236  10.821   3.699  1.0331 -0.8504  0.1476
 1013MOL0     C33645   3.298  10.788   3.564 -1.0451 -0.0182 -0.1056
 1013MOL0     C33646   3.452  10.755   3.554  0.3111 -0.1593 -0.5909
 1013MOL0     C33647   3.520  10.871   3.618 -0.2495  0.8807  0.2197
 1013MOL0     C33648   3.579  10.972   3.653 -0.9838  0.8756  0.1989
 1013MOL0     C33649   2.828  10.843   3.450  0.3378  0.0400 -0.4312
 1013MOL0     C33650   2.716  10.915   3.411  0.0856  0.1967 -0.5190
 1013MOL0     H33651   2.296  11.233   3.401 -0.0395  0.3624  0.2841
 1013MOL0     H33652   2.168  11.381   3.240  2.1119  1.7126  0.6680
 1013MOL0     H33653   2.113  11.199   2.926 -2.3602  1.3987  1.1047
 1013MOL0     H33654   2.190  11.283   2.798  0.1894  0.6540 -0.1283
 1013MOL0     H33655   1.946  11.418   2.951  3.8553  1.8827  1.3812
 1013MOL0     H33656   1.932  11.343   2.791 -1.8378  1.8616  0.1024
 1013MOL0     H33657   2.109  11.475   2.699 -2.1257  0.2891 -2.2621
 1013MOL0     H33658   2.119  11.569   2.859 -0.4473  0.4761  0.9096
 1013MOL0     H33659   2.002  11.643   2.646 -1.5633 -0.8816 -2.5980
 1013MOL0     H33660   1.863  11.547   2.687 -1.0779  0.6768  0.9897
 1013MOL0     H33661   1.947  11.798   2.823 -0.5813 -0.3745 -0.3561
 1013MOL0     H33662   1.906  11.679   2.938  3.1990 -2.6776 -2.0220
 1013MOL0     H33663   1.708  11.731   2.712 -3.1916 -2.8150  1.0056
 1013MOL0     H33664   1.699  11.813   2.874 -0.5392 -1.2164  2.2333
 1013MOL0     H33665   1.692  11.519   2.823 -2.1636 -0.6735 -0.0549
 1013MOL0     H33666   1.675  11.616   2.975 -3.0046 -2.5835  0.1880
 1013MOL0     H33667   1.479  11.732   2.818  0.8651  0.4293  0.8371
 1013MOL0     H33668   1.457  11.614   2.937 -4.1340  2.5008 -0.6783
 1013MOL0     H33669   1.624  11.506   2.590 -1.3836  0.4272 -4.0233
 1013MOL0     H33670   1.401  11.280   2.373  0.2838 -0.8189  1.0134
 1013MOL0     H33671   1.560  11.285   2.449 -0.7645 -0.7074  0.3229
 1013MOL0     H33672   1.424  11.498   2.264 -0.5249 -0.1599  0.6494
 1013MOL0     H33673   1.543  11.386   2.200  0.6974  2.0838 -1.9499
 1013MOL0     H33674   1.619  11.619   2.225  4.1539  2.1868  1.1851
 1013MOL0     H33675   1.606  11.600   2.395 -1.2538  0.8302 -1.5104
 1013MOL0     H33676   1.840  11.549   2.270 -0.0171  0.5242 -0.4959
 1013MOL0     H33677   1.772  11.395   2.227 -0.9790 -1.3906  0.3297
 1013MOL0     H33678   2.046  11.505   2.402  1.6446 -0.1749  0.9252
 1013MOL0     H33679   2.239  11.381   2.440  0.7902 -2.6670 -3.1015
 1013MOL0     H33680   2.572  11.298   2.495  3.7222  0.4596 -0.2941
 1013MOL0     H33681   2.799  11.241   2.595  2.3577 -2.2223  0.3630
 1013MOL0     H33682   2.900  10.807   2.683 -2.7133 -1.3749  2.0569
 1013MOL0     H33683   2.819  10.861   2.829 -1.9650 -0.6518 -1.8762
 1013MOL0     H33684   3.036  10.792   2.888  3.6511 -1.0440 -1.0144
 1013MOL0     H33685   3.016  10.962   2.914 -1.0995 -1.4090  0.2741
 1013MOL0     H33686   3.231  10.897   2.815  1.2748 -2.0301 -1.2931
 1013MOL0     H33687   3.148  11.010   2.702  0.9556 -0.7662 -0.7677
 1013MOL0     H33688   3.100  10.806   2.556 -1.9498  1.3845  2.9123
 1013MOL0     H33689   3.269  10.821   2.599 -0.8810 -3.1326 -2.8983
 1013MOL0     H33690   3.072  10.628   2.719 -0.7303 -0.1218 -2.3887
 1013MOL0     H33691   3.220  10.679   2.801  0.4700 -1.1847  0.4465
 1013MOL0     H33692   3.349  10.591   2.624  0.1455 -0.1327  2.7095
 1013MOL0     H33693   3.193  10.553   2.521 -0.7567 -0.0731 -0.5277
 1013MOL0     H33694   3.247  10.427   2.785  0.1108 -4.1395  0.9889
 1013MOL0     H33695   3.144  10.374   2.661 -0.5894  0.6754  2.2149
 1013MOL0     H33696   3.420  10.380   2.548 -1.2442 -2.6929 -2.5707
 1013MOL0     H33697   3.326  10.238   2.588  0.4225 -0.4243 -0.1347
 1013MOL0     H33698   2.674  10.839   2.655  0.7086  0.5233 -1.5028
 1013MOL0     H33699   2.464  10.887   2.591  3.7910 -1.7962  0.7606
 1013MOL0     H33700   2.003  11.080   2.648  0.5410 -0.6146  0.4809
 1013MOL0     H33701   1.797  11.199   2.575  2.0970 -6.5983 -3.2153
 1013MOL0     H33702   2.371  11.171   2.925 -1.4503 -2.2782 -0.0168
 1013MOL0     H33703   2.490  11.040   3.086 -2.6837 -2.8404  4.0713
 1013MOL0     H33704   2.674  11.096   3.695 -0.3046 -0.6522  0.2438
 1013MOL0     H33705   2.857  10.985   3.764  1.4181  1.3335 -0.3413
 1013MOL0     H33706   3.069  10.924   3.787 -1.8032 -2.7747 -0.4443
 1013MOL0     H33707   3.123  10.988   3.637 -0.8447 -0.2092 -1.6462
 1013MOL0     H33708   3.305  10.891   3.748  0.0531  1.5792 -1.7308
 1013MOL0     H33709   3.220  10.726   3.751  1.1550 -1.4364 -0.8560
 1013MOL0     H33710   3.293  10.880   3.504  2.6160  1.4592  1.5446
 1013MOL0     H33711   3.255  10.697   3.520  2.8182 -1.6217 -1.0156
 1013MOL0     H33712   3.485  10.667   3.610  1.1148 -1.2805 -2.7378
 1013MOL0     H33713   3.485  10.756   3.450 -0.0365  1.1212 -0.7126
 1013MOL0     H33714   3.633  11.064   3.662 -1.4726  1.6095 -3.2524
 1013MOL0     H33715   2.866  10.758   3.394  0.8642  0.1768 -0.2910
 1013MOL0     H33716   2.673  10.884   3.316 -1.6368 -0.4013  0.4000
 1014MOL0     O33717  10.913   9.294   2.303 -1.0721 -0.7445 -0.0568
 1014MOL0     C33718  10.878   9.267   2.189 -0.8060  0.3323  0.2721
 1014MOL0     O33719  10.791   9.332   2.108 -0.1517 -0.1849  0.7397
 1014MOL0     C33720  10.751   9.441   2.166 -0.6685 -0.2824 -0.2286
 1014MOL0     C33721  10.784   9.565   2.102  0.0132  0.0546  0.0535
 1014MOL0     C33722  10.759   9.686   2.169  0.0686 -0.4560 -0.4746
 1014MOL0     C33723  10.698   9.698   2.294  0.2686  0.9696  0.0324
 1014MOL0     O33724  10.671   9.815   2.354  0.6971  0.0860 -0.0659
 1014MOL0     C33725  10.621   9.910   2.257 -1.2450 -1.4436  0.7199
 1014MOL0     C33726  10.571  10.036   2.323 -0.1906 -0.5808 -0.1076
 1014MOL0     C33727  10.502  10.131   2.220  0.0212 -0.0385 -0.0169
 1014MOL0     C33728  10.438  10.251   2.286 -0.7327 -0.7793  0.1958
 1014MOL0     C33729  10.402  10.368   2.186  0.1734 -0.4493  0.9714
 1014MOL0     C33730  10.356  10.494   2.252  0.4929 -0.2061  0.3216
 1014MOL0     C33731  10.206  10.491   2.283  0.1900  0.0348 -0.0106
 1014MOL0     C33732  10.168  10.595   2.388  0.8926  0.7247 -0.1309
 1014MOL0     N33733  10.019  10.580   2.406  0.1928 -0.1639 -0.4859
 1014MOL0     C33734   9.960  10.490   2.496 -0.3143  0.0800 -1.2604
 1014MOL0     C33735   9.836  10.520   2.487  0.5050  0.3770 -0.2299
 1014MOL0     C33736   9.725  10.433   2.551 -0.6035 -0.0320 -0.2627
 1014MOL0     C33737   9.748  10.464   2.705 -0.3807  0.6582 -0.7560
 1014MOL0     C33738   9.754  10.615   2.751 -0.6089  0.0147  0.3212
 1014MOL0     C33739   9.640  10.706   2.693  0.4358  0.0092  0.4530
 1014MOL0     O33740   9.649  10.846   2.736 -0.6289  0.2703 -0.0101
 1014MOL0     C33741   9.757  10.920   2.681  0.3050  0.5269 -0.8130
 1014MOL0     C33742   9.804  11.016   2.766 -0.1698  0.3394 -0.2998
 1014MOL0     C33743   9.892  11.110   2.719 -0.2085 -1.0261  0.1724
 1014MOL0     C33744   9.943  11.106   2.588 -0.2053  0.4446 -0.0063
 1014MOL0     C33745  10.044  11.202   2.543  0.0112  0.4682  0.2569
 1014MOL0     O33746  10.103  11.281   2.646 -0.3730  0.8798 -0.9150
 1014MOL0     C33747  10.199  11.374   2.621 -0.4753  0.7345 -0.0289
 1014MOL0     C33748  10.198  11.459   2.520  0.1332 -0.3711  1.4477
 1014MOL0     C33749  10.308  11.522   2.465 -0.6867 -1.0930  0.1717
 1014MOL0     C33750  10.428  11.523   2.541 -0.0654 -0.2462  0.0419
 1014MOL0     O33751  10.536  11.601   2.514 -1.3810 -0.5299  0.0906
 1014MOL0     C33752  10.537  11.688   2.407 -0.5105  0.1866 -0.1467
 1014MOL0     C33753  10.673  11.769   2.404 -0.8655 -0.2032 -0.0346
 1014MOL0     C33754  10.702  11.841   2.271  0.0550 -0.8507 -0.4158
 1014MOL0     C33755  10.737  11.750   2.162  0.1940  1.3699 -0.1533
 1014MOL0     C33756  10.773  11.813   2.028 -0.3631  0.7740  0.0158
 1014MOL0     C33757  10.906  11.889   2.033 -0.1769  0.5590  0.3063
 1014MOL0     C33758  11.018  11.789   2.018 -0.4436  0.8215  0.4685
 1014MOL0     C33759  11.159  11.864   2.020  0.4696  0.4313  0.3466
 1014MOL0    Cl33760  11.174  11.969   1.874 -0.5569  0.1747 -0.6466
 1014MOL0     C33761  10.426  11.442   2.655 -0.3446 -0.0709 -1.0688
 1014MOL0     C33762  10.320  11.362   2.687  0.3496 -0.0428 -0.8931
 1014MOL0     O33763  10.085  11.197   2.425 -0.0377  0.0301  0.0121
 1014MOL0     C33764   9.890  11.008   2.505 -0.1994 -0.3605 -0.2204
 1014MOL0     C33765   9.803  10.912   2.550 -0.2819 -0.0943  0.3999
 1014MOL0     N33766   9.812  10.623   2.394 -0.0623  0.2147  0.8003
 1014MOL0     N33767   9.927  10.663   2.346 -0.3392  0.1225 -0.7950
 1014MOL0     C33768  10.661   9.581   2.353  0.6824 -0.1232  0.4678
 1014MOL0     C33769  10.679   9.456   2.284  1.4903 -0.5268 -0.8327
 1014MOL0     C33770  10.934   9.136   2.141  0.5660  0.1690  0.1829
 1014MOL0     C33771  10.902   9.086   2.013 -0.1582 -0.0946 -0.1813
 1014MOL0     C33772  10.963   8.979   1.956 -0.6651  0.4525 -0.1297
 1014MOL0     C33773  11.052   8.894   2.027 -0.9943 -0.2924 -1.3893
 1014MOL0     O33774  11.116   8.787   1.963  0.8440 -0.4796  0.3826
 1014MOL0     C33775  11.212   8.730   2.044 -1.1549  0.7435 -1.6278
 1014MOL0     C33776  11.240   8.587   1.990  0.5960  0.1881 -0.2408
 1014MOL0     C33777  11.322   8.492   2.083 -0.1358  1.2138  0.7336
 1014MOL0     C33778  11.469   8.532   2.103  0.4890  0.3591 -1.0120
 1014MOL0     C33779  11.544   8.543   1.976  0.1191  0.8891  0.1144
 1014MOL0     C33780  11.603   8.536   1.871  0.2124 -0.0224  0.3777
 1014MOL0     C33781  11.095   8.953   2.145 -0.3238  0.0908 -0.9929
 1014MOL0     C33782  11.039   9.070   2.198 -0.1595  1.1612 -0.0783
 1014MOL0     H33783  10.850   9.552   2.017  3.0139  1.3313  2.0172
 1014MOL0     H33784  10.794   9.780   2.127 -0.3006  0.7752  1.8003
 1014MOL0     H33785  10.536   9.870   2.201 -1.8026  0.5166  0.0847
 1014MOL0     H33786  10.693   9.942   2.181 -1.7544  1.0191  1.1945
 1014MOL0     H33787  10.656  10.085   2.371 -1.4369 -0.3927  2.0338
 1014MOL0     H33788  10.503   9.999   2.400 -1.0148  0.3077 -0.3854
 1014MOL0     H33789  10.424  10.080   2.162 -0.3146  0.4299  0.0171
 1014MOL0     H33790  10.577  10.172   2.153 -0.1399 -0.8600 -0.7188
 1014MOL0     H33791  10.336  10.221   2.314 -2.2559  3.5288  0.0860
 1014MOL0     H33792  10.494  10.281   2.374 -0.7725 -3.2861  1.1420
 1014MOL0     H33793  10.325  10.330   2.119  2.4857 -1.5392 -1.2443
 1014MOL0     H33794  10.493  10.368   2.125 -1.3352 -0.3630 -1.3868
 1014MOL0     H33795  10.368  10.579   2.184 -2.0676 -0.2174 -0.2304
 1014MOL0     H33796  10.418  10.503   2.342  0.0867 -2.9322  0.9551
 1014MOL0     H33797  10.156  10.509   2.187  0.2931 -4.4026 -1.1256
 1014MOL0     H33798  10.166  10.398   2.324 -2.5253  2.1204  2.5378
 1014MOL0     H33799  10.192  10.683   2.329 -0.0889 -1.9017 -4.9805
 1014MOL0     H33800  10.215  10.604   2.486  0.4759 -0.4777  0.1955
 1014MOL0     H33801   9.998  10.406   2.555 -1.4127  1.2213  1.1937
 1014MOL0     H33802   9.726  10.325   2.534  1.2997  0.0411 -0.8684
 1014MOL0     H33803   9.629  10.468   2.512  1.4025  0.7949 -5.2285
 1014MOL0     H33804   9.834  10.403   2.735 -1.6264 -1.3609 -1.0728
 1014MOL0     H33805   9.673  10.404   2.757  2.1664  0.5038  3.2054
 1014MOL0     H33806   9.746  10.619   2.860  0.1133 -0.6057  0.4054
 1014MOL0     H33807   9.849  10.656   2.716 -0.6106 -0.3407 -0.1031
 1014MOL0     H33808   9.543  10.660   2.710  1.5397 -2.8980 -0.4464
 1014MOL0     H33809   9.647  10.712   2.584 -0.4649 -2.1530  0.2273
 1014MOL0     H33810   9.752  11.018   2.861 -4.6733  1.2161 -2.4997
 1014MOL0     H33811   9.933  11.181   2.791  3.3535 -0.4289 -2.1791
 1014MOL0     H33812  10.103  11.461   2.468  0.6948 -1.0989  0.3283
 1014MOL0     H33813  10.304  11.585   2.377  1.8904  0.7803  1.2691
 1014MOL0     H33814  10.454  11.758   2.422 -2.5272 -2.2429  0.6747
 1014MOL0     H33815  10.519  11.640   2.310 -4.0055  0.0060  0.4480
 1014MOL0     H33816  10.760  11.706   2.424  0.7050  2.0640  0.6426
 1014MOL0     H33817  10.672  11.846   2.482 -0.5097  1.4387 -1.5931
 1014MOL0     H33818  10.788  11.907   2.284 -0.3051 -0.1614 -1.3969
 1014MOL0     H33819  10.613  11.899   2.246 -3.2687 -4.2555  2.2853
 1014MOL0     H33820  10.828  11.700   2.198 -0.3830  0.1353 -0.3534
 1014MOL0     H33821  10.665  11.668   2.149  0.5329  1.2501 -1.4515
 1014MOL0     H33822  10.692  11.885   2.015 -1.0656  0.1635  0.9037
 1014MOL0     H33823  10.774  11.733   1.953  4.0053 -0.0684  0.6630
 1014MOL0     H33824  10.917  11.955   2.119 -1.4286  2.2048 -0.7312
 1014MOL0     H33825  10.904  11.962   1.951  2.0924  1.6587  1.1313
 1014MOL0     H33826  11.021  11.715   2.099  4.5176 -1.7430 -1.5866
 1014MOL0     H33827  11.011  11.743   1.919  4.1240  0.7142 -0.0237
 1014MOL0     H33828  11.227  11.779   2.009 -1.3641 -1.4368  2.4115
 1014MOL0     H33829  11.174  11.919   2.113 -1.3282  0.4563  0.6576
 1014MOL0     H33830  10.514  11.452   2.718 -1.0394  2.5037 -0.3899
 1014MOL0     H33831  10.333  11.301   2.776 -4.3132  0.9985  0.7885
 1014MOL0     H33832   9.933  10.997   2.406  2.7412 -2.6079  1.1371
 1014MOL0     H33833   9.773  10.841   2.474 -0.3461  1.8662 -1.4857
 1014MOL0     H33834  10.613   9.571   2.450 -0.5000 -1.4381 -0.2224
 1014MOL0     H33835  10.634   9.366   2.324 -2.5586  0.9183 -1.6867
 1014MOL0     H33836  10.827   9.141   1.956  1.1572  2.2456  0.2293
 1014MOL0     H33837  10.929   8.953   1.857  0.4660 -0.3709 -0.3180
 1014MOL0     H33838  11.161   8.707   2.138  0.5548 -1.5806 -1.1581
 1014MOL0     H33839  11.302   8.793   2.044 -0.0417 -0.7644 -2.6213
 1014MOL0     H33840  11.141   8.542   1.985  1.1442 -0.9721 -4.7498
 1014MOL0     H33841  11.278   8.592   1.888 -0.5771  2.2028 -0.6315
 1014MOL0     H33842  11.327   8.397   2.030  1.1627 -0.2509  3.2626
 1014MOL0     H33843  11.262   8.481   2.174  0.0946 -0.3011  0.7241
 1014MOL0     H33844  11.474   8.625   2.161  2.2628 -1.6278  2.3322
 1014MOL0     H33845  11.519   8.464   2.173 -2.8065 -1.5583 -0.3315
 1014MOL0     H33846  11.656   8.525   1.779 -1.6255 -0.2598 -0.6975
 1014MOL0     H33847  11.165   8.902   2.210 -0.4935  0.4475 -0.5233
 1014MOL0     H33848  11.074   9.103   2.296 -0.5809  0.8549  0.1791
 1015MOL0     O33849   5.343   2.380   6.334 -0.4509 -0.2451 -0.0069
 1015MOL0     C33850   5.305   2.396   6.447  0.9919  0.5425 -0.4557
 1015MOL0     O33851   5.190   2.330   6.496  0.1813 -0.1491  0.5827
 1015MOL0     C33852   5.121   2.236   6.424  0.3650 -0.3929 -0.2128
 1015MOL0     C33853   5.121   2.106   6.480  0.2577  0.6412  0.3867
 1015MOL0     C33854   5.045   2.002   6.419  0.5449 -0.2037 -0.3635
 1015MOL0     C33855   4.982   2.034   6.296 -0.6166 -0.2708  1.0240
 1015MOL0     O33856   4.916   1.924   6.241  0.4347  0.3929 -0.0975
 1015MOL0     C33857   4.824   1.928   6.129  0.6670  0.7440 -0.7202
 1015MOL0     C33858   4.687   1.873   6.187 -0.0561  1.1494 -1.1814
 1015MOL0     C33859   4.625   1.948   6.293  0.1191  0.1500  0.2284
 1015MOL0     C33860   4.597   2.098   6.269  0.1453  0.6542  0.9850
 1015MOL0     C33861   4.515   2.114   6.139  0.4110  0.3123 -0.3755
 1015MOL0     C33862   4.495   2.268   6.126  0.3946 -0.9853 -1.2104
 1015MOL0     C33863   4.410   2.311   6.004 -0.2860  0.9208  0.2599
 1015MOL0     C33864   4.483   2.297   5.868  0.5297  0.1740 -0.1429
 1015MOL0     N33865   4.596   2.397   5.861  1.1387  0.3375  0.9090
 1015MOL0     C33866   4.718   2.387   5.918 -0.3279 -0.7570 -0.8602
 1015MOL0     C33867   4.793   2.490   5.877 -0.3760  0.1630  0.7732
 1015MOL0     C33868   4.943   2.504   5.900  0.3638 -0.2072 -0.1489
 1015MOL0     C33869   4.988   2.643   5.865  0.5421  0.6338  0.9790
 1015MOL0     C33870   5.108   2.679   5.946 -0.5879 -0.2221 -0.5159
 1015MOL0     C33871   5.065   2.776   6.058  0.5145 -0.0040 -0.1292
 1015MOL0     O33872   5.171   2.788   6.163  0.0257  0.0238 -0.1872
 1015MOL0     C33873   5.148   2.869   6.274 -0.6746  0.2098 -0.3600
 1015MOL0     C33874   5.041   2.951   6.303  0.4806  0.0497  0.2168
 1015MOL0     C33875   5.009   3.018   6.419 -0.4898  0.4261 -0.0081
 1015MOL0     C33876   5.107   3.010   6.528  0.3908 -1.4892  0.6658
 1015MOL0     C33877   5.077   3.073   6.666  1.1445 -0.8456 -0.4289
 1015MOL0     O33878   5.158   3.028   6.766 -0.1708 -0.3465 -0.6684
 1015MOL0     C33879   5.149   3.102   6.885  0.7212  0.3918  0.5785
 1015MOL0     C33880   5.216   3.230   6.890  0.3789 -0.0970 -0.2808
 1015MOL0     C33881   5.240   3.283   7.017 -0.8539  0.2355 -0.1254
 1015MOL0     C33882   5.196   3.221   7.131  0.5425  0.3331 -0.0169
 1015MOL0     O33883   5.216   3.265   7.264 -0.3029 -0.4458  0.2779
 1015MOL0     C33884   5.263   3.399   7.283 -0.5529  0.3088 -0.6660
 1015MOL0     C33885   5.310   3.404   7.430 -0.4703 -0.0476  0.2331
 1015MOL0     C33886   5.214   3.352   7.541 -0.0942  0.8786  1.5683
 1015MOL0     C33887   5.273   3.392   7.680  1.4662 -0.3387  0.1774
 1015MOL0     C33888   5.200   3.313   7.792  0.8314  0.0234 -0.3614
 1015MOL0     C33889   5.072   3.391   7.837 -0.1648 -0.0160 -0.0110
 1015MOL0     C33890   4.981   3.317   7.929 -0.1301 -0.1915 -0.9124
 1015MOL0     C33891   5.047   3.247   8.055  0.0302 -0.1794 -0.6181
 1015MOL0    Cl33892   5.136   3.374   8.151 -0.4012 -0.1528  0.0866
 1015MOL0     C33893   5.124   3.109   7.118  0.1571  0.4608 -0.1777
 1015MOL0     C33894   5.098   3.038   7.002  0.1421  0.2667  0.8611
 1015MOL0     O33895   4.986   3.154   6.678 -0.1919 -0.0617  0.1641
 1015MOL0     C33896   5.212   2.921   6.513  0.0430 -0.9752 -0.1713
 1015MOL0     C33897   5.230   2.857   6.387  0.5519 -0.1013 -0.4053
 1015MOL0     N33898   4.710   2.568   5.801 -0.0261  0.2999 -1.1152
 1015MOL0     N33899   4.591   2.512   5.797 -0.4815  0.0453  0.1462
 1015MOL0     C33900   4.991   2.161   6.241  0.7568 -0.4377 -0.7214
 1015MOL0     C33901   5.055   2.262   6.310  0.2278 -1.0617  0.0094
 1015MOL0     C33902   5.378   2.493   6.530 -0.9357 -1.4910  0.2635
 1015MOL0     C33903   5.483   2.567   6.481 -0.0128  0.0012  0.2197
 1015MOL0     C33904   5.524   2.675   6.555  0.3549  0.5208 -0.8494
 1015MOL0     C33905   5.474   2.708   6.680 -0.0865 -1.0286 -0.2418
 1015MOL0     O33906   5.530   2.815   6.748 -0.0714  0.0724 -0.3822
 1015MOL0     C33907   5.486   2.838   6.881 -0.9571 -0.4373 -0.5579
 1015MOL0     C33908   5.562   2.962   6.936 -0.3510  0.3633  0.2818
 1015MOL0     C33909   5.508   3.002   7.074 -0.7860 -0.0316  0.8503
 1015MOL0     C33910   5.601   3.103   7.144 -1.1731  0.2149 -1.0276
 1015MOL0     C33911   5.595   3.241   7.100  0.0737 -0.8676  0.4412
 1015MOL0     C33912   5.572   3.359   7.061  0.4079  0.3013 -1.3751
 1015MOL0     C33913   5.368   2.628   6.727  0.2113 -0.7207 -0.0224
 1015MOL0     C33914   5.322   2.521   6.657 -0.4168  0.0336 -0.0828
 1015MOL0     H33915   5.177   2.074   6.567 -2.3494 -1.0709  1.5717
 1015MOL0     H33916   5.029   1.903   6.460  0.6481 -0.1820 -0.2699
 1015MOL0     H33917   4.865   1.864   6.050 -0.8715 -0.2886 -0.7227
 1015MOL0     H33918   4.826   2.031   6.092  3.2425  0.7650 -0.7544
 1015MOL0     H33919   4.709   1.772   6.221 -0.2213 -0.1663 -4.5319
 1015MOL0     H33920   4.613   1.858   6.107 -0.0207 -0.7546 -0.9007
 1015MOL0     H33921   4.695   1.950   6.378  1.6122 -0.3728 -0.9474
 1015MOL0     H33922   4.526   1.906   6.313 -1.2159  2.2330 -1.5298
 1015MOL0     H33923   4.547   2.145   6.354 -0.2029  0.1782  1.0460
 1015MOL0     H33924   4.690   2.152   6.251 -1.5044  2.7237 -2.5065
 1015MOL0     H33925   4.414   2.074   6.150  0.0356  1.6050  1.4903
 1015MOL0     H33926   4.551   2.073   6.045  0.5413 -0.7886  0.1449
 1015MOL0     H33927   4.595   2.313   6.123 -0.6327  2.0360  2.0288
 1015MOL0     H33928   4.448   2.312   6.214  1.7961 -1.8655  0.0372
 1015MOL0     H33929   4.308   2.271   6.003 -1.8908  4.5559  0.9994
 1015MOL0     H33930   4.382   2.417   6.014  0.0938  1.2838 -1.8785
 1015MOL0     H33931   4.405   2.314   5.793  0.1506 -0.9258 -0.0108
 1015MOL0     H33932   4.517   2.193   5.863 -2.2642 -0.9342  1.6977
 1015MOL0     H33933   4.764   2.306   5.974  2.9838  2.1021  0.9477
 1015MOL0     H33934   5.008   2.431   5.850  4.7121  2.5675  0.9225
 1015MOL0     H33935   4.953   2.491   6.009  1.2414  1.1954 -0.0342
 1015MOL0     H33936   4.900   2.708   5.858 -0.8204 -1.2648 -3.6179
 1015MOL0     H33937   5.009   2.643   5.757 -1.8154  4.5751  0.3261
 1015MOL0     H33938   5.148   2.585   5.986 -1.9193 -0.1658  1.0277
 1015MOL0     H33939   5.184   2.729   5.886  0.1978  0.4296  0.9629
 1015MOL0     H33940   4.973   2.729   6.095 -0.0765  0.5834 -0.8317
 1015MOL0     H33941   5.034   2.872   6.017 -2.2702 -0.8076 -0.0910
 1015MOL0     H33942   4.966   2.968   6.227 -1.2031 -0.0453  1.7979
 1015MOL0     H33943   4.911   3.064   6.429  0.5982  2.7575  0.6548
 1015MOL0     H33944   5.246   3.282   6.800  0.9671 -0.6477 -0.4087
 1015MOL0     H33945   5.294   3.377   7.024 -0.6489  0.1622 -0.6872
 1015MOL0     H33946   5.190   3.475   7.258  0.3824  1.7475  0.7477
 1015MOL0     H33947   5.350   3.421   7.220 -0.7789  1.6121 -0.5411
 1015MOL0     H33948   5.326   3.510   7.451  2.3574 -0.6691  1.6807
 1015MOL0     H33949   5.408   3.357   7.438 -0.0059  0.7057 -0.7769
 1015MOL0     H33950   5.217   3.242   7.541 -2.0288  0.7728  3.1932
 1015MOL0     H33951   5.108   3.379   7.538 -0.8154 -1.5769  2.3152
 1015MOL0     H33952   5.382   3.382   7.678  1.4169 -0.9394  0.2164
 1015MOL0     H33953   5.248   3.498   7.693  0.5863 -0.4499 -0.5245
 1015MOL0     H33954   5.274   3.307   7.873 -2.1440  1.8308  2.8111
 1015MOL0     H33955   5.165   3.213   7.765  0.6081  0.2045 -0.7517
 1015MOL0     H33956   5.016   3.411   7.746 -0.1714  1.4380  0.2820
 1015MOL0     H33957   5.096   3.490   7.877  0.3914  0.6392 -1.8878
 1015MOL0     H33958   4.902   3.384   7.965 -1.6315 -2.9149  1.3848
 1015MOL0     H33959   4.927   3.237   7.877 -1.2444  0.7797 -1.2873
 1015MOL0     H33960   5.103   3.160   8.020 -1.8409 -0.6378 -2.6443
 1015MOL0     H33961   4.967   3.220   8.124  1.8110  0.3059  1.7996
 1015MOL0     H33962   5.084   3.063   7.208  4.9960 -0.6192  1.6871
 1015MOL0     H33963   5.035   2.950   7.009 -0.4427  0.5583 -0.4603
 1015MOL0     H33964   5.277   2.893   6.596 -0.4627 -0.1677  0.5223
 1015MOL0     H33965   5.308   2.781   6.380  0.5167 -0.0107 -2.1909
 1015MOL0     H33966   4.954   2.176   6.140  1.6059  0.6001 -0.8947
 1015MOL0     H33967   5.063   2.359   6.262  0.5157  0.4948  2.9678
 1015MOL0     H33968   5.514   2.557   6.377 -3.1263  1.9866 -1.0492
 1015MOL0     H33969   5.607   2.735   6.521  0.9145  2.4415  3.2572
 1015MOL0     H33970   5.509   2.757   6.951  0.9544 -0.1537 -0.7982
 1015MOL0     H33971   5.380   2.862   6.871 -2.2810 -5.8605 -2.5596
 1015MOL0     H33972   5.671   2.946   6.932 -0.5150 -0.7290 -0.2211
 1015MOL0     H33973   5.549   3.041   6.862 -3.6928 -0.1778  0.1672
 1015MOL0     H33974   5.498   2.915   7.139  1.4498 -0.8342  0.2006
 1015MOL0     H33975   5.410   3.051   7.065  0.3942  3.1090  3.1578
 1015MOL0     H33976   5.585   3.098   7.252 -2.2501 -2.3148 -1.2268
 1015MOL0     H33977   5.702   3.061   7.138 -0.6349  0.3945  3.3624
 1015MOL0     H33978   5.545   3.456   7.024 -2.9335 -0.4745 -1.2834
 1015MOL0     H33979   5.332   2.629   6.829  0.9886 -3.5547  0.3789
 1015MOL0     H33980   5.242   2.459   6.697 -0.7249  0.5436  0.1055
 1016MOL0     O33981   3.517  10.523   2.389 -0.6480 -0.0294  0.1110
 1016MOL0     C33982   3.591  10.609   2.340 -0.3005 -0.1398  0.4529
 1016MOL0     O33983   3.545  10.703   2.248 -0.0159 -0.2409  0.7533
 1016MOL0     C33984   3.408  10.695   2.232 -0.2211 -0.4453  0.4474
 1016MOL0     C33985   3.323  10.780   2.298 -0.0480  0.1664 -0.0535
 1016MOL0     C33986   3.183  10.791   2.258  0.0855 -0.4951 -0.6973
 1016MOL0     C33987   3.123  10.703   2.166 -0.3300 -0.7654  0.1905
 1016MOL0     O33988   2.993  10.707   2.125  0.1702 -0.4347  0.1526
 1016MOL0     C33989   2.897  10.764   2.222 -0.6910 -0.3487  0.1335
 1016MOL0     C33990   2.745  10.755   2.169 -0.1076  0.9788 -0.8644
 1016MOL0     C33991   2.656  10.861   2.240  0.0169  0.4629 -0.3577
 1016MOL0     C33992   2.519  10.846   2.191  0.8698 -0.0375  0.0780
 1016MOL0     C33993   2.456  10.991   2.185 -1.6113 -0.4195  0.2069
 1016MOL0     C33994   2.305  10.966   2.154  0.0383 -0.3448 -0.1536
 1016MOL0     C33995   2.231  11.101   2.134  0.5297  0.4527 -0.2734
 1016MOL0     C33996   2.084  11.076   2.081  0.0747  0.2456 -0.5174
 1016MOL0     N33997   2.028  11.203   2.027 -0.3031 -0.4817 -0.1516
 1016MOL0     C33998   2.054  11.248   1.903  0.8449 -0.0097  0.0638
 1016MOL0     C33999   1.980  11.369   1.897  0.7679  0.2610 -0.2253
 1016MOL0     C34000   1.957  11.459   1.779 -0.1362 -1.5922 -0.2679
 1016MOL0     C34001   1.979  11.599   1.828  0.1978 -0.0924  0.0322
 1016MOL0     C34002   1.939  11.700   1.714 -1.0345  0.5735 -0.6262
 1016MOL0     C34003   1.828  11.795   1.744  0.0440  0.2083 -0.2498
 1016MOL0     O34004   1.704  11.734   1.738  0.5980  0.6598 -0.0194
 1016MOL0     C34005   1.614  11.753   1.837  0.7190  0.3379  0.0385
 1016MOL0     C34006   1.565  11.884   1.870 -1.5388  0.5090 -0.5645
 1016MOL0     C34007   1.475  11.902   1.969  1.4709 -0.0950  0.3155
 1016MOL0     C34008   1.413  11.804   2.045 -0.2354 -1.3528  1.1407
 1016MOL0     C34009   1.310  11.831   2.148  0.5325  0.5535 -0.0052
 1016MOL0     O34010   1.237  11.739   2.202  0.1795 -0.3618  0.1956
 1016MOL0     C34011   1.148  11.765   2.299 -0.1034 -1.0685  0.5572
 1016MOL0     C34012   1.047  11.859   2.294 -0.3437 -0.7015  0.4884
 1016MOL0     C34013   0.962  11.883   2.406 -0.0276  0.3268  0.1179
 1016MOL0     C34014   0.972  11.806   2.519  0.1761  0.1432  0.0022
 1016MOL0     O34015   0.886  11.818   2.628 -0.3774  0.5235  0.5000
 1016MOL0     C34016   0.752  11.790   2.595 -0.3364 -0.3029 -0.4275
 1016MOL0     C34017   0.661  11.813   2.706 -0.1546  0.3962  0.4803
 1016MOL0     C34018   0.590  11.947   2.729 -0.3630 -0.5816  0.6838
 1016MOL0     C34019   0.682  12.062   2.711  0.3408 -0.0055 -0.3003
 1016MOL0     C34020   0.611  12.189   2.757 -0.7449 -0.5509  0.2971
 1016MOL0     C34021   0.642  12.206   2.906  0.4858  0.3887  0.6645
 1016MOL0     C34022   0.564  12.328   2.962 -0.6847  0.2342  0.3211
 1016MOL0     C34023   0.539  12.309   3.109 -0.5198 -0.5135 -0.2788
 1016MOL0    Cl34024   0.491  12.459   3.210  0.0350  0.1861  0.1180
 1016MOL0     C34025   1.062  11.699   2.513 -0.2517 -0.9871  0.3394
 1016MOL0     C34026   1.151  11.679   2.406 -0.3790 -0.4228  1.7626
 1016MOL0     O34027   1.294  11.945   2.170 -0.4424 -0.2502 -0.4740
 1016MOL0     C34028   1.457  11.676   2.012 -0.1563  0.7717  0.2758
 1016MOL0     C34029   1.553  11.655   1.906  0.9595  0.6499  0.2926
 1016MOL0     N34030   1.928  11.389   2.026 -0.7328  0.6118  0.3018
 1016MOL0     N34031   1.959  11.288   2.099 -0.3745  0.1013  0.2772
 1016MOL0     C34032   3.216  10.614   2.109  0.3044  0.1695 -0.3532
 1016MOL0     C34033   3.351  10.623   2.129  0.6774  1.0419 -0.0634
 1016MOL0     C34034   3.730  10.623   2.364  0.4100  0.9780 -0.3247
 1016MOL0     C34035   3.784  10.606   2.496 -0.3419  0.0219  0.1776
 1016MOL0     C34036   3.923  10.630   2.515 -0.6405 -0.9100  0.0089
 1016MOL0     C34037   4.015  10.663   2.411 -0.8254 -0.7279 -0.8526
 1016MOL0     O34038   4.148  10.693   2.432 -0.9838 -0.4898 -0.3873
 1016MOL0     C34039   4.226  10.590   2.497 -0.4726 -0.7620 -0.7350
 1016MOL0     C34040   4.355  10.650   2.544  1.4476  0.3161  0.0546
 1016MOL0     C34041   4.355  10.682   2.698 -0.6679  0.3619  0.5431
 1016MOL0     C34042   4.498  10.692   2.761  1.5231  1.2083 -0.0008
 1016MOL0     C34043   4.567  10.564   2.760 -1.4410 -0.4367  0.7061
 1016MOL0     C34044   4.606  10.449   2.746  0.1851 -2.0249  0.4729
 1016MOL0     C34045   3.956  10.689   2.285  0.6146 -0.5757 -0.5312
 1016MOL0     C34046   3.821  10.666   2.258 -0.1629  0.6251 -0.8458
 1016MOL0     H34047   3.367  10.834   2.381  0.3030  0.5837 -0.5022
 1016MOL0     H34048   3.127  10.874   2.299  1.1211  0.7545 -1.7341
 1016MOL0     H34049   2.934  10.866   2.225 -0.2532 -0.4922 -0.3863
 1016MOL0     H34050   2.915  10.721   2.321  1.4608  0.5945  0.1932
 1016MOL0     H34051   2.717  10.654   2.200  1.2731 -0.0484 -2.7519
 1016MOL0     H34052   2.734  10.768   2.061  0.1688  4.3907 -0.6071
 1016MOL0     H34053   2.693  10.962   2.219  0.2065 -0.0538 -2.7760
 1016MOL0     H34054   2.659  10.852   2.349  0.1329 -0.3771 -0.4307
 1016MOL0     H34055   2.510  10.790   2.097  0.3595  2.9445 -1.8142
 1016MOL0     H34056   2.475  10.772   2.258  2.4317 -3.3812 -2.3046
 1016MOL0     H34057   2.504  11.043   2.102  2.3512  0.3632  2.7522
 1016MOL0     H34058   2.474  11.052   2.274  0.1424  1.4352 -1.3172
 1016MOL0     H34059   2.256  10.908   2.233  0.3733 -0.5842 -0.1181
 1016MOL0     H34060   2.292  10.904   2.065 -0.5056 -2.5428  1.3699
 1016MOL0     H34061   2.226  11.145   2.234 -4.1324  1.1357 -0.5604
 1016MOL0     H34062   2.279  11.172   2.067  3.2303 -0.1031  0.9295
 1016MOL0     H34063   2.025  11.035   2.163 -0.2875  0.7851 -0.5063
 1016MOL0     H34064   2.089  11.002   2.000 -1.3305 -0.0927 -0.3148
 1016MOL0     H34065   2.121  11.212   1.825  0.1963  2.1537 -1.5990
 1016MOL0     H34066   1.856  11.453   1.736  0.0641 -0.8220 -0.8545
 1016MOL0     H34067   2.041  11.438   1.712  2.9868 -1.1737  3.2147
 1016MOL0     H34068   2.085  11.608   1.854  0.9483 -4.4511 -0.7178
 1016MOL0     H34069   1.935  11.637   1.921 -0.4700  0.0354 -0.3265
 1016MOL0     H34070   2.030  11.752   1.680  0.8042 -0.5919  2.1073
 1016MOL0     H34071   1.905  11.632   1.636 -1.9241 -0.3003  0.4899
 1016MOL0     H34072   1.826  11.861   1.657  2.7517  0.1431 -0.4563
 1016MOL0     H34073   1.828  11.845   1.842 -1.2434  2.7978 -1.4697
 1016MOL0     H34074   1.609  11.967   1.815 -1.1264  1.1537  0.7024
 1016MOL0     H34075   1.445  12.006   1.980  1.1155 -0.2033  0.3720
 1016MOL0     H34076   1.050  11.917   2.202 -0.7027 -0.2151  0.7770
 1016MOL0     H34077   0.873  11.946   2.401  0.2682  0.6898 -1.0450
 1016MOL0     H34078   0.749  11.681   2.589  0.3907 -0.4678  1.5664
 1016MOL0     H34079   0.717  11.838   2.503 -1.0129  1.3893  0.6664
 1016MOL0     H34080   0.729  11.800   2.791  0.8864  3.2668  0.2222
 1016MOL0     H34081   0.589  11.732   2.713  0.5966 -0.3265  0.1018
 1016MOL0     H34082   0.574  11.958   2.837  2.9478  1.0689  1.1420
 1016MOL0     H34083   0.500  11.961   2.668  0.4967 -2.6336 -1.1866
 1016MOL0     H34084   0.777  12.055   2.765 -0.0492  0.7954  0.5274
 1016MOL0     H34085   0.707  12.068   2.605 -0.5668  1.6252 -0.4430
 1016MOL0     H34086   0.502  12.185   2.744 -0.4823 -2.6263 -1.9983
 1016MOL0     H34087   0.651  12.276   2.704 -1.1040  0.2851  1.3625
 1016MOL0     H34088   0.746  12.241   2.918  0.1203  2.2231 -0.9736
 1016MOL0     H34089   0.624  12.113   2.960  1.0322 -1.2019 -1.7488
 1016MOL0     H34090   0.617  12.421   2.941 -2.5059  1.8184  2.3107
 1016MOL0     H34091   0.469  12.332   2.908 -1.3529  0.9512  1.4996
 1016MOL0     H34092   0.631  12.270   3.154  0.2103  0.0591 -1.2193
 1016MOL0     H34093   0.472  12.223   3.122 -0.8759 -0.1086  0.6403
 1016MOL0     H34094   1.059  11.619   2.587 -1.0438 -1.2400  0.0533
 1016MOL0     H34095   1.217  11.593   2.414  0.9559  0.5521  1.5859
 1016MOL0     H34096   1.401  11.592   2.050 -0.7589  2.0298  2.3196
 1016MOL0     H34097   1.574  11.554   1.871  3.0977  0.5337  1.7762
 1016MOL0     H34098   3.171  10.534   2.051 -0.2317 -1.8507  2.5849
 1016MOL0     H34099   3.403  10.549   2.068 -1.5877 -0.2193 -0.5746
 1016MOL0     H34100   3.722  10.567   2.575 -1.4741  0.1841 -0.6023
 1016MOL0     H34101   3.968  10.639   2.613  0.5047  0.4712 -0.5961
 1016MOL0     H34102   4.251  10.519   2.417  0.2008 -0.9868 -0.3357
 1016MOL0     H34103   4.172  10.542   2.579  0.8870  1.2560  1.4760
 1016MOL0     H34104   4.428  10.570   2.529 -0.1201 -1.3100  0.6756
 1016MOL0     H34105   4.382  10.736   2.482  1.6921  0.7587  0.7741
 1016MOL0     H34106   4.304  10.600   2.749 -3.0756 -1.5284 -4.2932
 1016MOL0     H34107   4.303  10.775   2.722  1.9216  2.5632 -1.6913
 1016MOL0     H34108   4.552  10.769   2.705 -0.8449  4.6634  2.1574
 1016MOL0     H34109   4.482  10.720   2.865  1.0181  1.7226 -0.2130
 1016MOL0     H34110   4.650  10.352   2.745  2.9109 -0.9113  1.2346
 1016MOL0     H34111   4.028  10.723   2.212  3.1952 -1.7552  1.2663
 1016MOL0     H34112   3.792  10.691   2.156  0.1952  4.3840 -0.1949
 1017MOL0     O34113   0.753   3.894  11.029  0.8896 -0.2225  0.3296
 1017MOL0     C34114   0.761   3.913  10.904 -0.0665 -0.0594 -0.4759
 1017MOL0     O34115   0.872   3.945  10.840  0.2617  0.1367  0.4501
 1017MOL0     C34116   0.981   3.968  10.926 -0.0960  0.4263 -0.3563
 1017MOL0     C34117   1.027   4.096  10.979  0.8402  0.5666 -0.1409
 1017MOL0     C34118   1.139   4.097  11.065  1.1606 -0.3249  0.3265
 1017MOL0     C34119   1.207   3.989  11.106 -0.4907  0.7698 -0.2107
 1017MOL0     O34120   1.313   4.016  11.189  0.1700  0.7255  0.0749
 1017MOL0     C34121   1.430   3.963  11.131  0.0988 -0.4625  0.1932
 1017MOL0     C34122   1.549   4.044  11.186 -1.5224 -0.5731 -0.0995
 1017MOL0     C34123   1.670   4.009  11.107  0.3137  0.4212  0.6860
 1017MOL0     C34124   1.796   4.078  11.159 -0.0687 -0.1407  0.5328
 1017MOL0     C34125   1.847   4.020  11.292 -0.3281 -0.3122 -0.6465
 1017MOL0     C34126   1.963   4.106  11.334  0.7791 -0.6238  0.2194
 1017MOL0     C34127   2.042   4.058  11.458  0.7091  0.7319  0.4452
 1017MOL0     C34128   1.971   4.078  11.590 -0.1708  0.4342 -0.5619
 1017MOL0     N34129   2.053   4.044  11.707 -0.6150 -0.1112 -0.6969
 1017MOL0     C34130   2.185   4.080  11.744 -0.2921 -0.4353  0.2039
 1017MOL0     C34131   2.207   4.005  11.847  0.4652  0.6032  0.8561
 1017MOL0     C34132   2.313   4.021  11.944  0.2863  0.7047  0.1197
 1017MOL0     C34133   2.454   4.052  11.879  0.3848  0.4175  0.2694
 1017MOL0     C34134   2.556   4.098  11.984 -0.0589  0.6180 -0.0604
 1017MOL0     C34135   2.702   4.095  11.951 -0.6253 -0.8656  0.3191
 1017MOL0     O34136   2.734   3.954  11.938 -1.0872  0.9047  0.0393
 1017MOL0     C34137   2.781   3.904  11.822  0.3460  0.4149  0.3760
 1017MOL0     C34138   2.858   3.788  11.813 -0.7057 -0.0817  0.8237
 1017MOL0     C34139   2.903   3.744  11.686 -1.0593  0.0944 -0.2056
 1017MOL0     C34140   2.865   3.799  11.568 -0.3413  0.7491  0.4642
 1017MOL0     C34141   2.917   3.749  11.432  0.0656 -0.5764 -0.9836
 1017MOL0     O34142   2.930   3.844  11.327 -0.1355  0.0132 -0.7793
 1017MOL0     C34143   3.011   3.812  11.220 -0.8427  0.4590  1.6093
 1017MOL0     C34144   2.981   3.720  11.116 -0.4973 -0.6039 -0.4293
 1017MOL0     C34145   3.059   3.696  11.001  1.0064 -0.4752  0.6623
 1017MOL0     C34146   3.186   3.749  10.989  0.0124  0.4937  0.2773
 1017MOL0     O34147   3.275   3.736  10.890 -0.0930 -0.2384  0.3971
 1017MOL0     C34148   3.222   3.696  10.758 -0.0654 -0.3096  0.3264
 1017MOL0     C34149   3.322   3.631  10.675 -0.4640  0.2553  0.8133
 1017MOL0     C34150   3.428   3.732  10.611  0.2437  0.2962 -0.2952
 1017MOL0     C34151   3.367   3.796  10.486 -0.4935 -0.1742 -0.0127
 1017MOL0     C34152   3.394   3.713  10.357 -0.4136 -0.7045 -1.0912
 1017MOL0     C34153   3.299   3.752  10.243  0.9789 -0.2220 -1.5899
 1017MOL0     C34154   3.316   3.656  10.120 -0.2506 -0.6349 -0.1874
 1017MOL0     C34155   3.396   3.734  10.016  0.6795 -0.0341  0.1066
 1017MOL0    Cl34156   3.309   3.865   9.928 -0.1046 -0.0781  0.0611
 1017MOL0     C34157   3.222   3.839  11.089  0.6779 -0.3516  0.3417
 1017MOL0     C34158   3.138   3.869  11.196  0.4108 -0.1440  0.8739
 1017MOL0     O34159   2.947   3.630  11.422 -0.0505  0.2932 -0.5133
 1017MOL0     C34160   2.784   3.909  11.583 -1.3999 -1.1133  0.1820
 1017MOL0     C34161   2.734   3.964  11.701 -0.3840 -0.0613  0.1357
 1017MOL0     N34162   2.101   3.931  11.881 -0.3374  0.2576 -0.2883
 1017MOL0     N34163   2.012   3.942  11.792 -0.4953 -1.1372 -0.3123
 1017MOL0     C34164   1.159   3.863  11.070  0.1454 -0.6124 -0.2980
 1017MOL0     C34165   1.055   3.855  10.978 -0.1464  0.1367 -0.4660
 1017MOL0     C34166   0.647   3.909  10.813  1.4275  0.0807  0.3525
 1017MOL0     C34167   0.657   3.951  10.681 -0.5512  0.8216 -0.7458
 1017MOL0     C34168   0.544   3.952  10.600 -0.3704 -1.0110  0.0347
 1017MOL0     C34169   0.420   3.906  10.645 -0.5136 -0.0330 -0.6839
 1017MOL0     O34170   0.303   3.880  10.569 -0.1578  0.2243 -0.3846
 1017MOL0     C34171   0.306   3.885  10.428  0.6268  0.1379  0.9618
 1017MOL0     C34172   0.359   3.772  10.362 -0.0785  0.4415  0.4906
 1017MOL0     C34173   0.286   3.634  10.380 -0.5096  0.3992  0.3375
 1017MOL0     C34174   0.299   3.533  10.257 -0.3794 -0.2680 -0.0409
 1017MOL0     C34175   0.437   3.485  10.221  0.9179  0.6509 -0.2048
 1017MOL0     C34176   0.535   3.412  10.210  0.6286  0.1290 -0.1200
 1017MOL0     C34177   0.402   3.877  10.787  0.2969 -0.3107 -0.1644
 1017MOL0     C34178   0.520   3.886  10.871  0.7454 -0.7555  1.1207
 1017MOL0     H34179   0.983   4.189  10.944  1.5689  1.1938  0.5681
 1017MOL0     H34180   1.173   4.194  11.101  1.0648  1.1380 -3.1130
 1017MOL0     H34181   1.434   3.994  11.026 -0.7029  2.8388  1.0136
 1017MOL0     H34182   1.449   3.856  11.142  0.0766 -0.5377 -0.4387
 1017MOL0     H34183   1.582   4.024  11.288  0.2758 -1.1096 -0.7538
 1017MOL0     H34184   1.527   4.150  11.170 -0.2743 -0.0470  1.3367
 1017MOL0     H34185   1.651   4.039  11.003  0.7039 -0.7024  0.2789
 1017MOL0     H34186   1.678   3.900  11.096 -2.1731  0.2376  0.0728
 1017MOL0     H34187   1.876   4.068  11.086  1.1271 -0.9735  1.8898
 1017MOL0     H34188   1.770   4.184  11.160  0.3555 -0.0339  0.3518
 1017MOL0     H34189   1.872   3.913  11.296  2.6902  0.1552 -3.2163
 1017MOL0     H34190   1.778   4.045  11.373  1.6056  0.1306  0.9198
 1017MOL0     H34191   1.924   4.203  11.366 -1.4515 -1.3339 -0.1890
 1017MOL0     H34192   2.035   4.120  11.252 -0.2806  0.7658 -0.5198
 1017MOL0     H34193   2.080   3.955  11.456  2.9437  1.4838  0.8463
 1017MOL0     H34194   2.134   4.117  11.469  0.8943  0.4426  0.4719
 1017MOL0     H34195   1.886   4.011  11.607 -0.2584  0.7484  0.2441
 1017MOL0     H34196   1.937   4.182  11.600 -0.8482  0.3871 -1.9681
 1017MOL0     H34197   2.249   4.154  11.699 -1.2167  1.3785  1.7231
 1017MOL0     H34198   2.328   3.939  12.014 -1.1235  0.4663  0.1668
 1017MOL0     H34199   2.276   4.115  11.985 -2.7816 -0.6058  0.5565
 1017MOL0     H34200   2.450   4.141  11.815 -3.2804  0.6694  0.6316
 1017MOL0     H34201   2.486   3.965  11.821  1.5296 -1.5134  3.5145
 1017MOL0     H34202   2.540   4.199  12.022  0.1497 -0.7092  4.1274
 1017MOL0     H34203   2.540   4.033  12.071  1.6487 -1.8992 -1.5132
 1017MOL0     H34204   2.747   4.133  12.043  0.1403  0.8623 -0.7140
 1017MOL0     H34205   2.733   4.172  11.879 -0.5740  1.3819  2.5881
 1017MOL0     H34206   2.879   3.739  11.907  0.4944  1.3456  1.3362
 1017MOL0     H34207   2.965   3.654  11.686 -3.6920 -1.8274  0.1029
 1017MOL0     H34208   2.887   3.667  11.128 -0.3855 -0.8956 -0.8107
 1017MOL0     H34209   3.010   3.629  10.931  0.4500  1.2888 -0.6974
 1017MOL0     H34210   3.165   3.778  10.714 -3.2489 -1.9589  1.1245
 1017MOL0     H34211   3.143   3.624  10.780  0.5522 -0.3431  2.6736
 1017MOL0     H34212   3.263   3.593  10.591  1.8064  2.4449 -2.0053
 1017MOL0     H34213   3.365   3.540  10.720  2.7886  1.1299 -0.2173
 1017MOL0     H34214   3.513   3.666  10.593  0.2348  0.4588 -0.9664
 1017MOL0     H34215   3.462   3.804  10.686  2.6260  0.4190 -1.3972
 1017MOL0     H34216   3.265   3.830  10.506  0.0042  1.8664 -0.6941
 1017MOL0     H34217   3.413   3.891  10.456  3.4175 -2.3712 -1.7620
 1017MOL0     H34218   3.387   3.607  10.385  0.3620 -0.9097 -1.6398
 1017MOL0     H34219   3.495   3.739  10.324 -0.8273 -1.7058 -3.3285
 1017MOL0     H34220   3.326   3.855  10.221  3.3759 -0.4044  0.1275
 1017MOL0     H34221   3.202   3.734  10.290  2.6314  1.0349  2.8462
 1017MOL0     H34222   3.360   3.557  10.139  2.0634  0.2865 -0.4119
 1017MOL0     H34223   3.221   3.639  10.069 -0.1588  0.9855 -0.9424
 1017MOL0     H34224   3.430   3.657   9.946 -0.1362  1.7025 -2.3488
 1017MOL0     H34225   3.488   3.776  10.057  0.4270  1.3487 -0.6713
 1017MOL0     H34226   3.320   3.885  11.078 -0.5583  2.1541 -0.8767
 1017MOL0     H34227   3.169   3.945  11.267  0.6865 -0.5533  1.1945
 1017MOL0     H34228   2.760   3.953  11.486 -3.8936  0.3616  1.3524
 1017MOL0     H34229   2.662   4.044  11.685  1.0117  0.9200 -1.5942
 1017MOL0     H34230   1.190   3.773  11.123  2.0437 -2.2451 -3.8478
 1017MOL0     H34231   1.031   3.753  10.950  3.4393 -0.6873 -1.0129
 1017MOL0     H34232   0.750   3.979  10.633  0.0083  1.3599  0.6309
 1017MOL0     H34233   0.555   3.961  10.492 -0.7340  2.9573  0.2117
 1017MOL0     H34234   0.360   3.977  10.406 -0.0020  1.2765  3.8190
 1017MOL0     H34235   0.210   3.902  10.378  1.7741  2.4226 -0.6288
 1017MOL0     H34236   0.367   3.792  10.255  1.1799  0.2726  0.5376
 1017MOL0     H34237   0.461   3.756  10.398  0.6833  0.6472 -1.4881
 1017MOL0     H34238   0.177   3.645  10.387 -0.8443 -2.5528  1.0907
 1017MOL0     H34239   0.327   3.589  10.471 -3.2866 -1.0069  0.9933
 1017MOL0     H34240   0.238   3.447  10.286  1.3535 -0.4654  3.5199
 1017MOL0     H34241   0.257   3.585  10.170 -1.6089 -0.8477  0.1851
 1017MOL0     H34242   0.621   3.350  10.223  0.1738 -0.4206  0.3235
 1017MOL0     H34243   0.298   3.861  10.815 -0.4004 -0.8852 -2.7709
 1017MOL0     H34244   0.498   3.898  10.976 -0.4315  1.7546  0.6814
 1018MOL0     O34245   9.546   1.661   4.801  0.7438 -0.0630 -0.7948
 1018MOL0     C34246   9.627   1.655   4.895 -0.5317 -0.4624 -0.2710
 1018MOL0     O34247   9.681   1.766   4.963 -0.5874  0.1502 -0.2933
 1018MOL0     C34248   9.615   1.880   4.943  0.0208  0.5599  0.0802
 1018MOL0     C34249   9.673   1.981   4.871  0.2355 -0.7258  0.4474
 1018MOL0     C34250   9.609   2.105   4.846 -0.4013  1.1610 -0.4512
 1018MOL0     C34251   9.483   2.136   4.906 -0.2894 -0.4372  1.5678
 1018MOL0     O34252   9.415   2.257   4.883 -0.6515 -0.6191 -0.2453
 1018MOL0     C34253   9.413   2.273   4.740 -0.0822  0.2510 -0.0533
 1018MOL0     C34254   9.303   2.372   4.721  0.2509 -0.2763 -0.3169
 1018MOL0     C34255   9.171   2.347   4.788 -0.4216  0.2771  0.3916
 1018MOL0     C34256   9.068   2.454   4.761 -1.1282  0.5374 -0.9845
 1018MOL0     C34257   8.939   2.426   4.847 -1.1428  0.2720 -0.9818
 1018MOL0     C34258   8.872   2.553   4.901 -0.1076 -0.3722  0.7755
 1018MOL0     C34259   8.825   2.643   4.790 -0.6324 -0.0699  0.3745
 1018MOL0     C34260   8.689   2.625   4.760 -0.4679 -0.7855  0.4256
 1018MOL0     N34261   8.671   2.502   4.695 -0.5344 -0.1038  1.5319
 1018MOL0     C34262   8.624   2.395   4.760  0.5268  0.1574  0.5486
 1018MOL0     C34263   8.607   2.293   4.672 -0.6338 -0.6881 -0.0286
 1018MOL0     C34264   8.550   2.157   4.705 -0.4582  0.5498  1.0220
 1018MOL0     C34265   8.636   2.041   4.645  0.3060 -0.1642  0.0033
 1018MOL0     C34266   8.787   2.049   4.656  0.4083  0.6856  0.3126
 1018MOL0     C34267   8.847   1.912   4.651  0.0269 -0.0533  0.0862
 1018MOL0     O34268   8.986   1.927   4.655 -0.2575 -0.0941  0.2053
 1018MOL0     C34269   9.058   1.809   4.659  0.0723  0.2240  0.0455
 1018MOL0     C34270   8.998   1.683   4.679 -0.2928  0.4065  0.1670
 1018MOL0     C34271   9.089   1.574   4.659 -0.5241 -0.5252 -0.7857
 1018MOL0     C34272   9.225   1.577   4.635 -0.2743  0.0572  0.6742
 1018MOL0     C34273   9.299   1.451   4.598  0.2929 -0.5394  0.6485
 1018MOL0     O34274   9.227   1.337   4.618  0.2524  0.7636  0.0349
 1018MOL0     C34275   9.279   1.209   4.595 -0.0272  0.1348  0.1466
 1018MOL0     C34276   9.422   1.174   4.577 -0.7408  0.2307 -0.5631
 1018MOL0     C34277   9.472   1.048   4.562  0.7007  0.8634  1.6144
 1018MOL0     C34278   9.377   0.949   4.535 -0.0697 -0.1474  0.0909
 1018MOL0     O34279   9.424   0.828   4.494 -0.4497 -0.1206 -0.7951
 1018MOL0     C34280   9.418   0.726   4.594  0.5392 -0.5807  0.6012
 1018MOL0     C34281   9.484   0.737   4.726 -0.2697  0.3964 -1.2686
 1018MOL0     C34282   9.447   0.628   4.832 -0.3158 -1.0340 -0.4304
 1018MOL0     C34283   9.489   0.491   4.782 -1.1790 -0.4313 -0.1353
 1018MOL0     C34284   9.640   0.463   4.746  1.0573  0.3077 -0.0135
 1018MOL0     C34285   9.750   0.496   4.845 -0.1212  0.1694 -0.8094
 1018MOL0     C34286   9.880   0.440   4.795 -0.0962  0.0157 -0.5049
 1018MOL0     C34287  10.007   0.496   4.870  0.0175 -0.5979  0.5761
 1018MOL0    Cl34288   9.980   0.429   5.031 -0.5521  0.2600 -0.5179
 1018MOL0     C34289   9.241   0.978   4.545  0.6093 -0.2946  0.0811
 1018MOL0     C34290   9.186   1.101   4.579 -0.5949  0.7021 -0.1088
 1018MOL0     O34291   9.420   1.460   4.561 -0.1187  0.0815 -0.4052
 1018MOL0     C34292   9.274   1.704   4.626  0.2796  0.8577 -0.1693
 1018MOL0     C34293   9.194   1.820   4.621 -0.8493 -0.5094  0.0602
 1018MOL0     N34294   8.633   2.348   4.546  0.1162 -0.3980  0.1968
 1018MOL0     N34295   8.676   2.473   4.562  0.1220 -0.0848 -0.2294
 1018MOL0     C34296   9.430   2.038   4.992 -0.3517  0.6959 -0.6391
 1018MOL0     C34297   9.491   1.916   5.018 -0.3243  0.3289  0.0911
 1018MOL0     C34298   9.681   1.515   4.908 -1.6491  0.8468 -0.6041
 1018MOL0     C34299   9.642   1.413   4.825 -0.2632 -1.0546 -0.4625
 1018MOL0     C34300   9.669   1.281   4.854  1.0890  0.8123  1.2332
 1018MOL0     C34301   9.756   1.243   4.957 -0.0494  0.1776  0.8093
 1018MOL0     O34302   9.787   1.116   4.993 -0.0275 -0.1029  0.2928
 1018MOL0     C34303   9.745   1.016   4.906 -0.1687  0.0886 -0.1364
 1018MOL0     C34304   9.771   0.878   4.963 -0.2549 -0.1937 -0.0063
 1018MOL0     C34305   9.694   0.844   5.094 -0.2128 -1.1762  0.7161
 1018MOL0     C34306   9.743   0.711   5.157  0.5403  0.4785 -0.2479
 1018MOL0     C34307   9.886   0.720   5.177 -0.5008  0.3393 -0.4913
 1018MOL0     C34308  10.003   0.748   5.198  0.7448  0.0561 -0.3083
 1018MOL0     C34309   9.796   1.347   5.037 -0.1431 -0.0338  0.2647
 1018MOL0     C34310   9.763   1.474   5.017  0.3851 -0.5170  0.5531
 1018MOL0     H34311   9.771   1.975   4.824  1.1816  3.0416  1.5876
 1018MOL0     H34312   9.672   2.167   4.784  1.4171  0.6624  0.8376
 1018MOL0     H34313   9.395   2.180   4.686  1.4148 -0.1049  0.0076
 1018MOL0     H34314   9.504   2.316   4.696 -0.4705 -0.8977 -2.1097
 1018MOL0     H34315   9.283   2.379   4.614 -2.9707 -2.0360  0.0550
 1018MOL0     H34316   9.344   2.463   4.767  2.6388 -0.1417 -2.5178
 1018MOL0     H34317   9.192   2.344   4.895 -0.8479  0.1892  0.4750
 1018MOL0     H34318   9.123   2.259   4.745  0.6691  0.5083 -1.4076
 1018MOL0     H34319   9.121   2.546   4.786  1.4538 -0.8076 -1.1248
 1018MOL0     H34320   9.032   2.456   4.658 -1.4636 -2.7554 -1.0659
 1018MOL0     H34321   8.951   2.364   4.936 -2.8127  1.2863 -0.0043
 1018MOL0     H34322   8.877   2.372   4.775  0.0342 -0.8370 -1.2009
 1018MOL0     H34323   8.944   2.602   4.967  2.2359  0.1114 -1.9781
 1018MOL0     H34324   8.787   2.527   4.966 -0.7956  1.4732  0.6767
 1018MOL0     H34325   8.840   2.742   4.835 -1.1663  0.0477  0.2998
 1018MOL0     H34326   8.889   2.641   4.702 -1.2808  1.2784 -0.1616
 1018MOL0     H34327   8.662   2.712   4.700  1.9509  0.3372  0.8544
 1018MOL0     H34328   8.647   2.628   4.861  3.1225 -0.6047  2.0637
 1018MOL0     H34329   8.606   2.382   4.866 -1.3922 -4.1835 -0.0918
 1018MOL0     H34330   8.444   2.144   4.683 -0.0742 -1.2139  0.0535
 1018MOL0     H34331   8.548   2.128   4.810 -0.8587 -3.5754  0.0370
 1018MOL0     H34332   8.600   2.036   4.542 -0.7960 -0.1731  0.3702
 1018MOL0     H34333   8.606   1.948   4.694  0.6667 -0.4956 -0.4054
 1018MOL0     H34334   8.828   2.111   4.575 -1.0301  1.0719 -0.1514
 1018MOL0     H34335   8.821   2.096   4.749  0.8362 -1.7727  1.4975
 1018MOL0     H34336   8.806   1.858   4.565  2.3169 -2.4482  0.3600
 1018MOL0     H34337   8.809   1.856   4.738  3.9024 -3.3136 -0.0173
 1018MOL0     H34338   8.892   1.664   4.692  0.5042 -2.5101  4.7868
 1018MOL0     H34339   9.048   1.477   4.686  0.4099 -1.6737 -3.1097
 1018MOL0     H34340   9.500   1.250   4.579 -1.9983  1.6411 -2.2770
 1018MOL0     H34341   9.576   1.019   4.552  0.2863 -0.5299  1.1841
 1018MOL0     H34342   9.477   0.645   4.551  1.1082 -0.4351  1.0915
 1018MOL0     H34343   9.310   0.709   4.598  0.9577 -4.9231 -1.5857
 1018MOL0     H34344   9.460   0.840   4.754  0.7701  0.4981 -0.6921
 1018MOL0     H34345   9.593   0.747   4.718 -0.2910  1.8982 -0.1411
 1018MOL0     H34346   9.341   0.633   4.856 -0.1559 -1.5875  0.4483
 1018MOL0     H34347   9.490   0.650   4.930  1.9609  1.5861 -1.8781
 1018MOL0     H34348   9.447   0.415   4.849  0.8449 -1.6970 -0.1997
 1018MOL0     H34349   9.441   0.476   4.684 -1.0696 -0.3585 -0.2000
 1018MOL0     H34350   9.657   0.525   4.658  1.4026 -1.3555 -1.1518
 1018MOL0     H34351   9.639   0.360   4.710  3.4727 -0.0673  0.7995
 1018MOL0     H34352   9.727   0.473   4.950  1.4316  2.3285  0.0850
 1018MOL0     H34353   9.757   0.605   4.849 -0.0071  0.1421  2.0823
 1018MOL0     H34354   9.888   0.332   4.810 -1.9369 -0.3437 -1.6808
 1018MOL0     H34355   9.894   0.455   4.688  1.2690  1.3060 -0.1686
 1018MOL0     H34356  10.021   0.605   4.867  0.4512 -0.6335  1.2854
 1018MOL0     H34357  10.099   0.449   4.833  1.0286 -0.1779  2.4610
 1018MOL0     H34358   9.166   0.902   4.530  0.3659 -0.1531  0.5728
 1018MOL0     H34359   9.079   1.117   4.581 -0.7353 -0.1529  2.1005
 1018MOL0     H34360   9.377   1.720   4.596  0.8114  0.4162  1.3113
 1018MOL0     H34361   9.246   1.909   4.587  2.9481 -2.4536  0.2459
 1018MOL0     H34362   9.327   2.053   5.025 -0.7374 -0.8025 -1.0904
 1018MOL0     H34363   9.443   1.837   5.074  1.2352  0.0336  1.0703
 1018MOL0     H34364   9.577   1.444   4.743 -1.2628  1.3222  1.1216
 1018MOL0     H34365   9.614   1.211   4.792  1.0704  2.5668 -0.8488
 1018MOL0     H34366   9.792   1.022   4.807 -1.0580 -2.1964 -0.7876
 1018MOL0     H34367   9.637   1.008   4.890  0.0879 -1.6660 -1.3701
 1018MOL0     H34368   9.741   0.805   4.887  0.1236 -2.2510  1.7262
 1018MOL0     H34369   9.878   0.867   4.984 -0.3469 -0.9985  0.0954
 1018MOL0     H34370   9.588   0.836   5.069 -0.3728 -0.5705  1.1698
 1018MOL0     H34371   9.714   0.923   5.166 -0.6436  0.1739 -0.5913
 1018MOL0     H34372   9.695   0.699   5.254  3.3352  3.8972  1.7976
 1018MOL0     H34373   9.706   0.636   5.086 -3.2273  1.4275  0.4784
 1018MOL0     H34374  10.103   0.776   5.223  1.8722 -1.3380 -2.8908
 1018MOL0     H34375   9.856   1.319   5.123 -1.1975  1.1617  1.4364
 1018MOL0     H34376   9.792   1.534   5.103 -1.0065 -2.0608  2.1774
 1019MOL0     O34377   2.724  10.805   7.321 -0.6667 -0.2650  0.1863
 1019MOL0     C34378   2.606  10.793   7.360  0.3365  0.8969 -0.9432
 1019MOL0     O34379   2.555  10.683   7.432  0.0439 -0.5677 -0.5824
 1019MOL0     C34380   2.627  10.563   7.440  0.2792 -0.6539  0.7622
 1019MOL0     C34381   2.607  10.462   7.349 -0.6507  0.0905  0.3970
 1019MOL0     C34382   2.679  10.336   7.357  0.0036  0.3950 -0.0008
 1019MOL0     C34383   2.784  10.311   7.448 -0.6662 -1.0331 -0.0446
 1019MOL0     O34384   2.847  10.190   7.447  0.3260  0.0642 -0.1154
 1019MOL0     C34385   2.951  10.180   7.539  0.2180 -0.3691 -0.2745
 1019MOL0     C34386   3.031  10.053   7.522 -1.2960  0.5202 -0.6734
 1019MOL0     C34387   3.113  10.014   7.648  0.0421  0.2818 -0.0686
 1019MOL0     C34388   3.201   9.880   7.628 -0.2980  0.6045 -0.4119
 1019MOL0     C34389   3.110   9.756   7.613  0.3111 -0.7254  0.1836
 1019MOL0     C34390   3.200   9.638   7.587 -0.0104 -0.2466  0.9487
 1019MOL0     C34391   3.112   9.529   7.529 -0.0441  0.8318  0.3988
 1019MOL0     C34392   3.207   9.409   7.506  0.7530 -0.1895 -0.2025
 1019MOL0     N34393   3.156   9.322   7.400 -0.1793  0.1705  0.4983
 1019MOL0     C34394   3.205   9.331   7.278  0.0079 -0.5554  0.1682
 1019MOL0     C34395   3.172   9.213   7.214 -0.7069  0.6411 -0.7340
 1019MOL0     C34396   3.229   9.188   7.070 -0.1765 -0.1830  0.3069
 1019MOL0     C34397   3.376   9.208   7.055  0.0126 -1.1160 -0.1279
 1019MOL0     C34398   3.431   9.146   6.931 -0.1967 -0.3831  0.7117
 1019MOL0     C34399   3.575   9.194   6.908  0.3840 -0.3247  0.0264
 1019MOL0     O34400   3.665   9.131   7.002  0.1432  0.6564  0.1810
 1019MOL0     C34401   3.768   9.067   6.949 -0.4688 -1.1540 -0.2395
 1019MOL0     C34402   3.848   9.119   6.841  0.3898  0.8040 -0.5674
 1019MOL0     C34403   3.953   9.042   6.779  0.2019  0.1980 -0.2498
 1019MOL0     C34404   3.968   8.907   6.820 -0.4481  0.7172  0.6331
 1019MOL0     C34405   4.073   8.819   6.762 -0.3725 -0.9823 -0.2836
 1019MOL0     O34406   4.061   8.686   6.771 -0.3629 -0.1834 -0.3952
 1019MOL0     C34407   4.163   8.598   6.736 -0.0273 -0.1974  0.2224
 1019MOL0     C34408   4.146   8.483   6.654 -0.3413 -0.3849 -0.5768
 1019MOL0     C34409   4.252   8.394   6.634  0.4836  0.9449  0.4288
 1019MOL0     C34410   4.384   8.426   6.681  0.6841 -0.0089  0.5763
 1019MOL0     O34411   4.492   8.352   6.652  0.1386 -0.2160 -0.4830
 1019MOL0     C34412   4.469   8.217   6.623 -0.7396  0.3637  0.2639
 1019MOL0     C34413   4.605   8.150   6.600 -0.1313 -0.3664  0.0868
 1019MOL0     C34414   4.630   7.997   6.616  0.5379 -0.6220 -0.4233
 1019MOL0     C34415   4.772   7.973   6.576 -0.3860 -0.2898  0.1305
 1019MOL0     C34416   4.803   7.823   6.575  0.3937  0.1149 -0.6539
 1019MOL0     C34417   4.946   7.778   6.581 -1.1548  0.6183  0.4042
 1019MOL0     C34418   5.015   7.830   6.448 -0.3103 -0.0735 -0.2232
 1019MOL0     C34419   5.097   7.717   6.384 -0.3880  0.1862 -1.1360
 1019MOL0    Cl34420   5.231   7.667   6.499  0.0968  0.3672  0.0380
 1019MOL0     C34421   4.403   8.545   6.742  0.0774 -0.4305  0.0815
 1019MOL0     C34422   4.288   8.623   6.781 -0.6047  0.5006 -0.2133
 1019MOL0     O34423   4.167   8.887   6.709 -0.6018  0.8621  0.5275
 1019MOL0     C34424   3.890   8.858   6.929 -1.2628 -0.7960 -0.0906
 1019MOL0     C34425   3.802   8.947   7.001 -0.4016  0.0479  0.1062
 1019MOL0     N34426   3.100   9.138   7.300 -0.5466 -0.3712 -0.1847
 1019MOL0     N34427   3.100   9.196   7.409  0.0811 -0.8771 -0.3362
 1019MOL0     C34428   2.804  10.419   7.543 -0.1993 -0.0549 -0.2483
 1019MOL0     C34429   2.721  10.535   7.537  0.1102 -0.5323 -0.8211
 1019MOL0     C34430   2.510  10.900   7.318  0.1202  0.1404 -0.0456
 1019MOL0     C34431   2.568  11.028   7.298 -0.2319  1.1708  0.1580
 1019MOL0     C34432   2.483  11.144   7.271 -0.5126  0.5304  0.0559
 1019MOL0     C34433   2.348  11.126   7.252 -0.0509 -0.5761  0.0535
 1019MOL0     O34434   2.257  11.229   7.220  0.9283 -0.2628 -0.2412
 1019MOL0     C34435   2.299  11.352   7.164 -0.5229 -0.4100 -0.2022
 1019MOL0     C34436   2.284  11.332   7.005  0.8604 -0.7419 -0.4689
 1019MOL0     C34437   2.160  11.249   6.955 -0.3246 -0.2987 -0.8995
 1019MOL0     C34438   2.018  11.307   6.967  0.0462  1.0411 -0.1344
 1019MOL0     C34439   1.980  11.320   7.102  0.3500 -0.3387 -0.3647
 1019MOL0     C34440   1.952  11.335   7.222 -0.3481 -0.6667  0.9981
 1019MOL0     C34441   2.292  10.997   7.275  0.0565 -0.9158 -0.4280
 1019MOL0     C34442   2.371  10.882   7.308 -0.0833 -0.9031  0.5072
 1019MOL0     H34443   2.522  10.457   7.283 -2.1081  0.2294  2.1940
 1019MOL0     H34444   2.646  10.262   7.285 -1.8526  0.3458  0.8360
 1019MOL0     H34445   2.898  10.185   7.635 -1.4263  0.5644 -1.1743
 1019MOL0     H34446   3.011  10.271   7.543 -1.5995  0.8375  1.2556
 1019MOL0     H34447   3.096  10.063   7.435 -0.8170 -0.8604 -0.5030
 1019MOL0     H34448   2.973   9.963   7.499  2.1922 -2.2252  0.2878
 1019MOL0     H34449   3.041  10.007   7.730 -1.1136  0.4977 -1.0211
 1019MOL0     H34450   3.173  10.104   7.661  0.9051  0.0143 -1.9322
 1019MOL0     H34451   3.267   9.885   7.541  3.1018 -2.2765  1.7350
 1019MOL0     H34452   3.254   9.867   7.723 -2.6553 -1.8148  0.6655
 1019MOL0     H34453   3.049   9.760   7.523  1.6909  2.3599 -0.7531
 1019MOL0     H34454   3.050   9.741   7.703  0.3760 -0.2111  0.3195
 1019MOL0     H34455   3.239   9.601   7.683  0.1638 -1.4379  0.4320
 1019MOL0     H34456   3.283   9.648   7.516  1.0916 -3.9575  1.5053
 1019MOL0     H34457   3.027   9.493   7.588  0.7228 -0.2007  0.9116
 1019MOL0     H34458   3.076   9.561   7.431  1.1638  0.3839 -0.2080
 1019MOL0     H34459   3.206   9.372   7.609 -1.9376  1.4709  0.4736
 1019MOL0     H34460   3.307   9.447   7.485  1.0525 -0.1626  1.1991
 1019MOL0     H34461   3.266   9.410   7.235 -0.4646  0.7676  1.8243
 1019MOL0     H34462   3.178   9.258   7.003 -0.6809  0.1137  0.9890
 1019MOL0     H34463   3.199   9.088   7.037  0.6819 -0.8823  1.5829
 1019MOL0     H34464   3.435   9.170   7.139  2.0235  1.6761 -0.1410
 1019MOL0     H34465   3.396   9.315   7.048  4.4505 -1.7937 -0.9424
 1019MOL0     H34466   3.422   9.038   6.942  0.8975 -0.7014 -1.0801
 1019MOL0     H34467   3.373   9.183   6.845 -1.1256 -3.2971 -0.0109
 1019MOL0     H34468   3.581   9.303   6.916  0.4978 -0.3037 -0.3142
 1019MOL0     H34469   3.590   9.161   6.805 -3.5642  0.4327 -0.9399
 1019MOL0     H34470   3.840   9.221   6.804  0.3121  1.7823  1.9717
 1019MOL0     H34471   4.023   9.078   6.705 -0.1549 -0.2310 -0.8029
 1019MOL0     H34472   4.049   8.469   6.608 -0.2787  0.7761 -1.1026
 1019MOL0     H34473   4.233   8.308   6.570  0.3045  0.1342  1.5372
 1019MOL0     H34474   4.419   8.223   6.527 -3.3660  6.0714  1.5535
 1019MOL0     H34475   4.406   8.168   6.698  1.7640 -0.5646  1.8989
 1019MOL0     H34476   4.669   8.212   6.664 -0.1107 -1.2923  0.9876
 1019MOL0     H34477   4.623   8.177   6.495 -5.1822  0.4874 -0.7973
 1019MOL0     H34478   4.563   7.937   6.553 -0.4350  0.2883 -0.2950
 1019MOL0     H34479   4.604   7.965   6.718  0.4360 -0.2342 -0.3261
 1019MOL0     H34480   4.785   8.014   6.475 -1.2556 -2.0237 -0.7288
 1019MOL0     H34481   4.838   8.031   6.641 -0.8522  2.1377 -1.4059
 1019MOL0     H34482   4.747   7.777   6.493  3.1217  3.2900 -4.6869
 1019MOL0     H34483   4.755   7.789   6.667  0.0502  3.5677  0.5977
 1019MOL0     H34484   4.959   7.669   6.577  1.7507  0.8547  1.4826
 1019MOL0     H34485   5.006   7.821   6.662  0.1118 -1.7389  0.7959
 1019MOL0     H34486   4.941   7.872   6.379 -1.3242 -2.1189 -0.4482
 1019MOL0     H34487   5.081   7.915   6.469  0.4347 -0.8518  0.6761
 1019MOL0     H34488   5.130   7.742   6.283  1.9957  2.0129 -0.0051
 1019MOL0     H34489   5.027   7.633   6.382  1.1324 -1.3407  2.1425
 1019MOL0     H34490   4.497   8.579   6.783 -1.4655  3.4771  0.8445
 1019MOL0     H34491   4.304   8.703   6.852 -0.0381 -0.8276  1.2066
 1019MOL0     H34492   3.884   8.750   6.943 -4.5111 -0.6621  0.2566
 1019MOL0     H34493   3.733   8.923   7.080 -2.7062  4.3526 -0.3138
 1019MOL0     H34494   2.884  10.419   7.616  1.9426  2.1438 -2.4005
 1019MOL0     H34495   2.718  10.616   7.610  7.8218 -1.2063  1.1003
 1019MOL0     H34496   2.675  11.048   7.306 -0.1895  0.7365  0.7385
 1019MOL0     H34497   2.532  11.241   7.276  2.4358 -0.8373 -0.3479
 1019MOL0     H34498   2.404  11.372   7.187  0.6046 -1.5806 -3.7223
 1019MOL0     H34499   2.250  11.438   7.210 -0.2769  0.1651 -0.9977
 1019MOL0     H34500   2.279  11.428   6.953 -1.1976 -1.0648 -0.9276
 1019MOL0     H34501   2.372  11.279   6.967  2.3356 -0.9284  2.8242
 1019MOL0     H34502   2.171  11.146   6.991  2.5592  0.0487 -0.5482
 1019MOL0     H34503   2.187  11.248   6.849  2.0423  2.8158 -0.5030
 1019MOL0     H34504   2.017  11.406   6.920  1.5250 -0.0590 -2.6951
 1019MOL0     H34505   1.941  11.239   6.930  0.0200  1.9799 -1.9010
 1019MOL0     H34506   1.931  11.360   7.324  2.3389  2.1075  1.0156
 1019MOL0     H34507   2.185  10.982   7.266  0.1097 -0.3182 -2.7465
 1019MOL0     H34508   2.320  10.787   7.323 -4.8358  1.2986  0.0883
 1020MOL0     O34509   3.479   3.234   5.885 -0.7353 -0.8245  0.7020
 1020MOL0     C34510   3.517   3.341   5.835  0.8807  0.0842 -0.3599
 1020MOL0     O34511   3.466   3.388   5.722 -0.7308 -0.2206  0.5123
 1020MOL0     C34512   3.394   3.301   5.647  0.7892  0.7378 -0.6857
 1020MOL0     C34513   3.435   3.270   5.516  0.2496  0.1695  0.3279
 1020MOL0     C34514   3.359   3.184   5.435  0.0343  0.4926 -0.3163
 1020MOL0     C34515   3.236   3.137   5.479  1.2048  0.3467  0.6818
 1020MOL0     O34516   3.154   3.057   5.399  0.0879  0.1941  0.0688
 1020MOL0     C34517   3.111   2.939   5.467 -0.4041 -0.4662 -0.8459
 1020MOL0     C34518   3.051   2.841   5.360 -0.3386 -0.1905 -0.0183
 1020MOL0     C34519   2.973   2.732   5.431 -0.0857 -0.0589  0.0105
 1020MOL0     C34520   2.861   2.675   5.337 -0.7046 -0.0271  0.3283
 1020MOL0     C34521   2.749   2.606   5.422 -0.6237  0.0175  0.2580
 1020MOL0     C34522   2.661   2.509   5.342  0.3865 -0.3116 -0.2537
 1020MOL0     C34523   2.737   2.393   5.256  0.1159  0.0787 -0.6659
 1020MOL0     C34524   2.785   2.281   5.351 -0.8437  0.5075  0.0789
 1020MOL0     N34525   2.680   2.176   5.365 -0.2173 -0.8256  0.9979
 1020MOL0     C34526   2.683   2.061   5.303  0.3693 -0.8789  0.0637
 1020MOL0     C34527   2.580   1.989   5.363 -0.5285  0.4841  0.8766
 1020MOL0     C34528   2.554   1.844   5.332  1.4871 -0.4466 -0.5714
 1020MOL0     C34529   2.571   1.748   5.446 -0.3664  0.3955 -0.1108
 1020MOL0     C34530   2.452   1.752   5.547 -0.3111 -0.3413 -0.3732
 1020MOL0     C34531   2.468   1.639   5.652  0.2823  0.6958 -0.2039
 1020MOL0     O34532   2.549   1.537   5.594 -0.3731  0.9528 -0.3724
 1020MOL0     C34533   2.593   1.436   5.677 -0.2608 -1.0491 -0.7054
 1020MOL0     C34534   2.676   1.346   5.617  0.0359 -0.6102 -0.4404
 1020MOL0     C34535   2.725   1.229   5.683  0.0343 -0.3075 -0.0737
 1020MOL0     C34536   2.706   1.215   5.824  0.1051 -0.9877  0.0715
 1020MOL0     C34537   2.772   1.107   5.893  0.0195 -0.8501  0.5265
 1020MOL0     O34538   2.786   1.105   6.035 -0.3364 -0.4722 -0.3550
 1020MOL0     C34539   2.867   1.017   6.095 -0.8031  0.2719  0.1415
 1020MOL0     C34540   2.976   1.071   6.155 -0.0701 -0.4213  0.2163
 1020MOL0     C34541   3.056   0.990   6.222  0.0742  0.3091 -0.4462
 1020MOL0     C34542   3.013   0.864   6.261 -0.5396  1.2382 -0.3643
 1020MOL0     O34543   3.086   0.794   6.349 -0.0743 -0.5110  0.8616
 1020MOL0     C34544   3.089   0.647   6.340  0.3904  0.2980  0.2403
 1020MOL0     C34545   3.214   0.592   6.418 -0.0542  0.8681  0.7143
 1020MOL0     C34546   3.220   0.439   6.385 -0.7156  0.0069  0.2380
 1020MOL0     C34547   3.101   0.361   6.453  0.0384  0.6843 -0.1458
 1020MOL0     C34548   3.118   0.355   6.604  0.7798 -1.3225 -0.2175
 1020MOL0     C34549   3.021   0.259   6.673  0.6365  0.1066 -0.1087
 1020MOL0     C34550   3.028   0.234   6.824  0.1195 -0.2447 -0.4867
 1020MOL0     C34551   3.139   0.137   6.858 -0.5070  0.2770  0.0332
 1020MOL0    Cl34552   3.134   0.109   7.027  0.0633  0.4066  0.5355
 1020MOL0     C34553   2.901   0.808   6.204 -0.4090 -0.3666  0.1797
 1020MOL0     C34554   2.828   0.878   6.118  0.3192  0.0256 -0.5132
 1020MOL0     O34555   2.814   1.018   5.821 -0.2644  0.0671 -0.5142
 1020MOL0     C34556   2.633   1.314   5.886  0.1225 -1.3223 -0.8164
 1020MOL0     C34557   2.576   1.426   5.818 -0.5609 -0.8969 -0.6276
 1020MOL0     N34558   2.519   2.068   5.453 -0.6816  0.2388  0.2521
 1020MOL0     N34559   2.586   2.182   5.466  0.9112  0.8642  0.1409
 1020MOL0     C34560   3.181   3.180   5.605  0.4974 -0.5187 -0.0031
 1020MOL0     C34561   3.266   3.251   5.694  0.4458 -0.4754 -0.0363
 1020MOL0     C34562   3.599   3.435   5.909 -0.4266  0.0209 -0.4233
 1020MOL0     C34563   3.639   3.402   6.042 -0.2592  0.7898 -0.4877
 1020MOL0     C34564   3.723   3.484   6.109  1.1282 -1.1419  0.2311
 1020MOL0     C34565   3.772   3.607   6.051  0.4353 -0.6741  0.0295
 1020MOL0     O34566   3.831   3.710   6.124  0.0504 -0.5481  0.2733
 1020MOL0     C34567   3.857   3.671   6.267 -0.7577 -0.3981 -1.2164
 1020MOL0     C34568   3.989   3.578   6.270  0.0360  0.5599  0.8758
 1020MOL0     C34569   4.041   3.539   6.405 -0.8975  1.5814 -0.9667
 1020MOL0     C34570   4.157   3.439   6.408 -0.1628  1.4913  0.7943
 1020MOL0     C34571   4.205   3.422   6.551 -0.7122  0.0635  1.4935
 1020MOL0     C34572   4.240   3.414   6.665 -0.7088 -0.3326  0.6286
 1020MOL0     C34573   3.749   3.632   5.917 -0.2041 -0.4482 -0.0398
 1020MOL0     C34574   3.660   3.546   5.848 -0.3823 -0.8816  0.2304
 1020MOL0     H34575   3.533   3.301   5.482 -1.2431  2.5245 -2.2399
 1020MOL0     H34576   3.390   3.150   5.337 -0.0060 -1.1744  0.2212
 1020MOL0     H34577   3.027   2.954   5.535 -4.4429 -1.1922 -5.1842
 1020MOL0     H34578   3.193   2.888   5.519 -3.0728 -1.2563  3.0624
 1020MOL0     H34579   3.134   2.797   5.304 -0.5867  3.1143 -3.4166
 1020MOL0     H34580   2.994   2.907   5.293  0.4815  0.6461  0.0904
 1020MOL0     H34581   2.920   2.763   5.521 -2.0006  3.2590 -2.0421
 1020MOL0     H34582   3.054   2.661   5.451 -0.5661 -1.0361 -1.3799
 1020MOL0     H34583   2.797   2.750   5.290  0.1934 -1.0839 -2.8572
 1020MOL0     H34584   2.906   2.615   5.257 -0.1757  0.0845  0.5354
 1020MOL0     H34585   2.680   2.681   5.462  0.0193  1.5259 -1.3250
 1020MOL0     H34586   2.805   2.551   5.499 -1.5638  0.7002  1.4770
 1020MOL0     H34587   2.607   2.567   5.267  0.9946  1.7675  0.8207
 1020MOL0     H34588   2.583   2.462   5.403  1.4605 -1.0780  0.5831
 1020MOL0     H34589   2.670   2.345   5.183 -0.9190  2.5419 -1.4338
 1020MOL0     H34590   2.813   2.441   5.194  0.9025 -2.8481 -2.1928
 1020MOL0     H34591   2.819   2.320   5.447 -0.9814  1.2749 -0.1784
 1020MOL0     H34592   2.871   2.234   5.302  0.3415 -2.4356  4.3596
 1020MOL0     H34593   2.771   2.023   5.252  0.4202  1.7136 -2.0004
 1020MOL0     H34594   2.613   1.824   5.242 -0.4058 -3.0412 -1.3514
 1020MOL0     H34595   2.456   1.828   5.287 -0.5539  0.7624  3.0432
 1020MOL0     H34596   2.666   1.780   5.490  1.6902 -2.4719 -2.0862
 1020MOL0     H34597   2.583   1.647   5.406  0.2057  1.5758 -3.1665
 1020MOL0     H34598   2.452   1.850   5.597  1.1543 -1.5414  2.1271
 1020MOL0     H34599   2.369   1.732   5.479 -0.9574  5.2758 -1.7786
 1020MOL0     H34600   2.376   1.601   5.700  1.4208 -1.5745  0.3185
 1020MOL0     H34601   2.528   1.680   5.734 -2.5717  4.1309  0.4113
 1020MOL0     H34602   2.688   1.340   5.509 -2.7054  1.2009 -0.9465
 1020MOL0     H34603   2.767   1.154   5.616  0.4604  1.0836 -1.4318
 1020MOL0     H34604   2.995   1.173   6.124  1.0041 -0.4855  0.6037
 1020MOL0     H34605   3.143   1.031   6.271  0.1165  0.6860 -0.8378
 1020MOL0     H34606   3.107   0.624   6.234  2.3237  1.2325  0.3182
 1020MOL0     H34607   2.997   0.599   6.374  1.0223 -2.2335 -1.3322
 1020MOL0     H34608   3.230   0.611   6.524  3.7276 -0.4792  0.5620
 1020MOL0     H34609   3.300   0.630   6.361 -1.3951 -0.8950 -2.8263
 1020MOL0     H34610   3.314   0.395   6.421  0.6909  2.0188 -0.7882
 1020MOL0     H34611   3.225   0.414   6.279 -0.1074  0.4488  0.1594
 1020MOL0     H34612   3.008   0.404   6.413  0.7464  1.4557 -1.0209
 1020MOL0     H34613   3.107   0.259   6.414 -2.5058  0.9861 -1.5450
 1020MOL0     H34614   3.107   0.451   6.656 -0.8583 -3.1393  3.0801
 1020MOL0     H34615   3.220   0.321   6.624  0.6631 -2.0323 -0.8153
 1020MOL0     H34616   3.035   0.164   6.621 -0.1842  0.0301 -0.2043
 1020MOL0     H34617   2.926   0.304   6.642  0.0033 -1.3439 -0.3535
 1020MOL0     H34618   3.045   0.325   6.882 -1.5043  0.2299 -0.6949
 1020MOL0     H34619   2.931   0.202   6.862  0.9397  0.4332  2.3745
 1020MOL0     H34620   3.240   0.159   6.822  1.3593 -1.2065  3.7852
 1020MOL0     H34621   3.119   0.043   6.807  2.1710  1.7401 -4.2097
 1020MOL0     H34622   2.870   0.704   6.212  1.0743 -0.7396  1.4760
 1020MOL0     H34623   2.737   0.837   6.073  0.3016  0.2865 -0.7169
 1020MOL0     H34624   2.610   1.322   5.991  0.4187  4.5334 -0.8715
 1020MOL0     H34625   2.512   1.497   5.869  0.7017  0.3036 -0.6295
 1020MOL0     H34626   3.085   3.146   5.643  0.4607 -0.9716 -0.4929
 1020MOL0     H34627   3.226   3.292   5.786 -1.2357 -0.1136 -0.8907
 1020MOL0     H34628   3.611   3.309   6.091 -1.4800  0.0448 -2.4837
 1020MOL0     H34629   3.740   3.459   6.214  0.6742 -1.7164  0.1752
 1020MOL0     H34630   3.771   3.635   6.324  1.0174  0.4659  2.2713
 1020MOL0     H34631   3.879   3.763   6.321 -1.4697  0.5529 -2.4981
 1020MOL0     H34632   3.956   3.483   6.226 -1.6058 -0.6461  4.3413
 1020MOL0     H34633   4.069   3.608   6.202  2.5088 -2.0708  2.3857
 1020MOL0     H34634   3.959   3.499   6.466  0.2284  0.1540 -0.3513
 1020MOL0     H34635   4.058   3.634   6.456 -4.0973  1.4113  0.6479
 1020MOL0     H34636   4.123   3.344   6.365 -1.1128  2.1081  0.1386
 1020MOL0     H34637   4.247   3.471   6.356  0.3239 -2.3882 -1.0993
 1020MOL0     H34638   4.276   3.405   6.765 -0.0088  3.2809  0.8013
 1020MOL0     H34639   3.789   3.719   5.866  2.1267  1.0545  3.9317
 1020MOL0     H34640   3.642   3.571   5.744  4.8926 -1.0732 -1.0473
 1021MOL0     O34641   4.865   8.422   0.887 -0.1531  0.0237 -0.4430
 1021MOL0     C34642   4.873   8.323   0.815  0.1122  0.5186 -0.7793
 1021MOL0     O34643   4.768   8.274   0.743 -0.1863  0.1997 -0.0085
 1021MOL0     C34644   4.653   8.347   0.706  0.2366 -0.1199 -0.1648
 1021MOL0     C34645   4.541   8.325   0.783 -0.7301 -0.2620  0.0701
 1021MOL0     C34646   4.421   8.387   0.750 -0.4690 -0.0589  0.5187
 1021MOL0     C34647   4.415   8.470   0.642 -0.6002  0.2602  0.3210
 1021MOL0     O34648   4.289   8.523   0.621 -0.0597  0.2582 -0.7493
 1021MOL0     C34649   4.275   8.621   0.527 -0.1137 -0.7537  1.0103
 1021MOL0     C34650   4.147   8.703   0.571  0.4981  0.2720 -1.2346
 1021MOL0     C34651   4.017   8.634   0.540  0.2168 -0.4984 -0.5339
 1021MOL0     C34652   3.912   8.742   0.556 -0.8400 -0.4579 -0.9830
 1021MOL0     C34653   3.768   8.693   0.560  0.1761 -0.9488 -0.0178
 1021MOL0     C34654   3.689   8.808   0.612 -0.1768 -1.4661 -0.8894
 1021MOL0     C34655   3.537   8.777   0.631  0.2809  0.2318  0.3618
 1021MOL0     C34656   3.506   8.678   0.735  0.2809 -0.1847 -0.7416
 1021MOL0     N34657   3.436   8.730   0.860  0.1185 -0.3867  0.0647
 1021MOL0     C34658   3.492   8.823   0.950 -0.4210 -0.0712  0.3789
 1021MOL0     C34659   3.391   8.859   1.029 -0.5444  0.3864 -0.2142
 1021MOL0     C34660   3.411   8.954   1.136  0.1190 -0.4814  0.3057
 1021MOL0     C34661   3.435   9.093   1.100  1.4525 -1.1613  0.6352
 1021MOL0     C34662   3.331   9.152   1.004 -0.6011 -0.4137  0.7638
 1021MOL0     C34663   3.194   9.156   1.071 -0.9573  0.7746 -0.1965
 1021MOL0     O34664   3.105   9.264   1.023  0.7710 -0.2037 -0.6901
 1021MOL0     C34665   2.981   9.257   1.077  0.0090  0.7661  0.7915
 1021MOL0     C34666   2.887   9.181   1.012 -0.4930  0.3611 -0.2378
 1021MOL0     C34667   2.747   9.194   1.041 -0.4189 -0.2846  0.7474
 1021MOL0     C34668   2.710   9.271   1.150 -0.3740  0.0794 -0.9094
 1021MOL0     C34669   2.569   9.271   1.200 -0.5097 -0.3471  0.3218
 1021MOL0     O34670   2.472   9.217   1.110  0.0902 -0.5759  1.0402
 1021MOL0     C34671   2.344   9.186   1.164  0.5100 -0.1422  0.7538
 1021MOL0     C34672   2.241   9.235   1.099  0.3176  0.1358 -0.0877
 1021MOL0     C34673   2.106   9.226   1.145 -0.8247 -0.6028 -0.8042
 1021MOL0     C34674   2.080   9.148   1.254  0.2791 -0.4412 -1.1533
 1021MOL0     O34675   1.947   9.135   1.291  0.2537  0.0673 -0.2284
 1021MOL0     C34676   1.834   9.151   1.203  0.9939  1.1722  0.1002
 1021MOL0     C34677   1.706   9.073   1.250 -0.6675  0.3485  1.0181
 1021MOL0     C34678   1.659   9.124   1.375  0.0300 -0.2106 -0.0137
 1021MOL0     C34679   1.532   9.053   1.410 -0.6165  0.5020  0.5942
 1021MOL0     C34680   1.516   9.040   1.560  0.0643 -0.2734  0.3235
 1021MOL0     C34681   1.606   8.954   1.648 -0.1486  0.5095  0.9545
 1021MOL0     C34682   1.544   8.920   1.788 -0.4729  0.6635 -0.6157
 1021MOL0     C34683   1.646   8.873   1.897  0.8598 -0.5748  0.5861
 1021MOL0    Cl34684   1.683   8.702   1.872  0.1077  0.8072  0.8877
 1021MOL0     C34685   2.190   9.103   1.337 -0.4863 -0.6060 -0.3747
 1021MOL0     C34686   2.324   9.122   1.290  0.0693 -0.2037  0.1165
 1021MOL0     O34687   2.548   9.315   1.311 -0.7469 -0.5506 -0.6615
 1021MOL0     C34688   2.816   9.324   1.232  0.4112  0.1825  0.5853
 1021MOL0     C34689   2.948   9.319   1.200 -0.6806  0.1185  0.1194
 1021MOL0     N34690   3.279   8.783   0.999  0.3351 -0.1690  0.1593
 1021MOL0     N34691   3.308   8.709   0.894 -0.2670  0.2522  0.0343
 1021MOL0     C34692   4.534   8.486   0.560 -0.3754  0.6898 -0.0523
 1021MOL0     C34693   4.654   8.430   0.600 -0.5170  0.5849 -0.8003
 1021MOL0     C34694   5.000   8.245   0.841  0.9008 -0.0466 -0.1142
 1021MOL0     C34695   4.995   8.106   0.860 -0.1741 -1.1511  0.2623
 1021MOL0     C34696   5.112   8.027   0.884 -0.2145  0.0458  0.4848
 1021MOL0     C34697   5.238   8.084   0.868 -1.1666 -0.8647 -0.4082
 1021MOL0     O34698   5.343   7.996   0.888 -0.0009 -0.2919  0.3287
 1021MOL0     C34699   5.379   7.911   0.776  0.5525 -0.0826 -0.1350
 1021MOL0     C34700   5.507   7.832   0.798  0.7911 -0.1940  0.9564
 1021MOL0     C34701   5.479   7.720   0.902 -0.6991 -0.2522 -0.5986
 1021MOL0     C34702   5.584   7.609   0.907 -0.2543 -0.9249  0.1323
 1021MOL0     C34703   5.547   7.516   1.014 -0.1941  0.1908 -0.5967
 1021MOL0     C34704   5.500   7.456   1.104  0.4122  0.9580 -0.9421
 1021MOL0     C34705   5.250   8.222   0.842  0.2754 -0.2214  1.0615
 1021MOL0     C34706   5.128   8.305   0.832 -0.4795  0.8505  0.5611
 1021MOL0     H34707   4.550   8.258   0.868  0.3563  1.3455  1.2672
 1021MOL0     H34708   4.334   8.370   0.814  0.0661  1.2218  1.6254
 1021MOL0     H34709   4.278   8.571   0.429 -1.2463  0.9662  0.0462
 1021MOL0     H34710   4.361   8.688   0.534 -1.2696  0.5871  3.5466
 1021MOL0     H34711   4.142   8.801   0.523 -3.0261  1.0945  0.5216
 1021MOL0     H34712   4.141   8.725   0.678 -3.6709  3.5564 -1.9019
 1021MOL0     H34713   4.018   8.545   0.604  4.0684 -0.1693  0.0670
 1021MOL0     H34714   4.027   8.599   0.437  0.1108  1.9601 -1.4294
 1021MOL0     H34715   3.923   8.784   0.656 -2.3435 -0.9710 -0.5724
 1021MOL0     H34716   3.935   8.820   0.483  2.8972  1.8400  2.2168
 1021MOL0     H34717   3.757   8.607   0.627  0.3301  0.1080  1.4345
 1021MOL0     H34718   3.731   8.681   0.458 -0.4688  1.0300 -0.0617
 1021MOL0     H34719   3.690   8.900   0.554 -2.2634 -0.5895  0.3210
 1021MOL0     H34720   3.734   8.849   0.703 -1.3447 -1.6999 -0.1816
 1021MOL0     H34721   3.494   8.877   0.644  1.4731  0.7449  0.4864
 1021MOL0     H34722   3.490   8.742   0.539 -1.4926 -1.0211  1.6812
 1021MOL0     H34723   3.603   8.641   0.770 -0.1184  0.2687  0.9014
 1021MOL0     H34724   3.443   8.596   0.698 -1.6573  0.8341  0.1380
 1021MOL0     H34725   3.586   8.879   0.948  0.7175 -1.9177 -1.3229
 1021MOL0     H34726   3.492   8.908   1.194 -1.6308 -1.8523  1.8074
 1021MOL0     H34727   3.315   8.959   1.189 -1.6825  0.9575 -2.8199
 1021MOL0     H34728   3.534   9.097   1.054  0.4681 -2.3815 -1.7591
 1021MOL0     H34729   3.432   9.138   1.200 -3.2864 -0.7170  0.5029
 1021MOL0     H34730   3.358   9.256   0.984 -2.3745  0.0530  0.6053
 1021MOL0     H34731   3.319   9.105   0.906 -0.4604  0.4516  0.3233
 1021MOL0     H34732   3.199   9.161   1.180 -3.5786  1.2882 -0.0290
 1021MOL0     H34733   3.143   9.062   1.046 -2.4872  1.7068 -0.7473
 1021MOL0     H34734   2.921   9.119   0.930  2.1008  0.0457  0.9680
 1021MOL0     H34735   2.671   9.151   0.976 -1.4965  4.2528 -1.3635
 1021MOL0     H34736   2.264   9.292   1.009  0.8283  3.7776  2.1751
 1021MOL0     H34737   2.021   9.268   1.091 -0.0651  0.0529 -1.5238
 1021MOL0     H34738   1.862   9.120   1.102  0.6134 -0.4113  0.4559
 1021MOL0     H34739   1.809   9.258   1.195 -0.8922  0.6246 -2.6260
 1021MOL0     H34740   1.731   8.968   1.264 -2.2272 -0.4662 -1.6534
 1021MOL0     H34741   1.625   9.084   1.178 -1.6013  5.0886  2.4187
 1021MOL0     H34742   1.625   9.228   1.373 -2.6665 -1.0187 -1.2065
 1021MOL0     H34743   1.728   9.114   1.459  0.2009 -0.5950 -0.1988
 1021MOL0     H34744   1.444   9.099   1.365  0.5149  0.6563 -1.6263
 1021MOL0     H34745   1.536   8.953   1.365 -1.9597  1.7477 -2.5853
 1021MOL0     H34746   1.419   8.990   1.568  1.0499 -2.1656  1.1140
 1021MOL0     H34747   1.508   9.145   1.591 -0.1315  0.1532 -1.0862
 1021MOL0     H34748   1.706   8.996   1.662  2.3441 -4.8260  1.7661
 1021MOL0     H34749   1.629   8.858   1.601  2.5496  0.6943  1.7250
 1021MOL0     H34750   1.504   9.012   1.833 -0.4897  0.5023 -0.2993
 1021MOL0     H34751   1.459   8.854   1.770  1.2091 -1.2972 -1.8237
 1021MOL0     H34752   1.586   8.899   1.984  0.2291  3.4513 -0.8442
 1021MOL0     H34753   1.742   8.924   1.900  0.8612 -0.5669  0.4145
 1021MOL0     H34754   2.183   9.069   1.440  0.3222  1.4739  0.4203
 1021MOL0     H34755   2.415   9.089   1.340  0.1661 -1.0782 -0.5965
 1021MOL0     H34756   2.799   9.356   1.334 -0.6369 -2.9347  1.5036
 1021MOL0     H34757   3.024   9.350   1.271 -1.8118 -3.8335  3.4909
 1021MOL0     H34758   4.553   8.549   0.473  1.6704 -1.2318 -1.0988
 1021MOL0     H34759   4.746   8.426   0.543  1.0717 -4.6701  1.4939
 1021MOL0     H34760   4.900   8.056   0.874 -0.6060 -0.0425  1.3622
 1021MOL0     H34761   5.114   7.922   0.908  2.0263 -0.0862 -0.0737
 1021MOL0     H34762   5.377   7.973   0.686 -1.7782  0.8620  0.4778
 1021MOL0     H34763   5.297   7.842   0.753  0.1402  0.1198  0.7015
 1021MOL0     H34764   5.536   7.792   0.700  0.0045  2.1406 -0.3112
 1021MOL0     H34765   5.585   7.900   0.834  0.4491  0.1216  1.1141
 1021MOL0     H34766   5.391   7.658   0.881  1.3088 -2.1282 -4.6542
 1021MOL0     H34767   5.478   7.762   1.003  1.3135 -0.8596 -0.2679
 1021MOL0     H34768   5.581   7.551   0.814 -0.9292 -1.8068  0.6954
 1021MOL0     H34769   5.691   7.632   0.902 -0.1232 -1.8091 -2.0545
 1021MOL0     H34770   5.475   7.407   1.196 -0.2344  3.5875  0.3573
 1021MOL0     H34771   5.346   8.268   0.821  0.1080 -0.8317 -1.3093
 1021MOL0     H34772   5.128   8.412   0.813  0.0640  0.6465 -0.6447
 1022MOL0     O34773   6.320  11.405   4.654  0.3465  0.2271 -0.1402
 1022MOL0     C34774   6.444  11.425   4.639  0.9640  1.3546 -0.9681
 1022MOL0     O34775   6.517  11.358   4.548 -0.5138  0.0793  0.3890
 1022MOL0     C34776   6.473  11.247   4.474  1.4332 -0.0380  0.4817
 1022MOL0     C34777   6.383  11.148   4.511 -0.7729  0.4308  0.1168
 1022MOL0     C34778   6.351  11.042   4.429  0.5569 -0.0845 -0.2829
 1022MOL0     C34779   6.403  11.029   4.294  0.3199  0.9106 -0.1975
 1022MOL0     O34780   6.359  10.929   4.209  0.0421  0.0397  0.4046
 1022MOL0     C34781   6.212  10.913   4.198  0.2242  0.6883 -1.1186
 1022MOL0     C34782   6.186  10.792   4.118 -0.4533 -0.0254  0.0117
 1022MOL0     C34783   6.034  10.771   4.080 -0.0810  0.2924 -0.3504
 1022MOL0     C34784   5.938  10.784   4.196 -0.4602 -0.7063  0.7198
 1022MOL0     C34785   5.808  10.719   4.163 -0.2808  0.1506 -0.5375
 1022MOL0     C34786   5.730  10.796   4.063  0.7061 -0.0070 -0.5181
 1022MOL0     C34787   5.577  10.781   4.067 -0.4950 -0.6044 -0.6392
 1022MOL0     C34788   5.549  10.618   4.082  0.0969 -0.5612  0.1250
 1022MOL0     N34789   5.404  10.590   4.110 -0.2503 -0.3382  0.4069
 1022MOL0     C34790   5.338  10.601   4.230 -0.1177  0.0773 -0.7076
 1022MOL0     C34791   5.216  10.552   4.206 -0.8593  0.5336 -0.2292
 1022MOL0     C34792   5.105  10.581   4.313 -0.1152  0.8816 -0.7020
 1022MOL0     C34793   4.995  10.668   4.235  0.6255 -0.1681 -0.1014
 1022MOL0     C34794   5.048  10.803   4.186 -1.2506 -0.1777  0.5498
 1022MOL0     C34795   4.931  10.886   4.125  0.1713 -0.1901  0.2540
 1022MOL0     O34796   4.846  10.916   4.232  0.3398  0.7465  0.3427
 1022MOL0     C34797   4.713  10.922   4.201  0.7519 -0.0010 -0.5723
 1022MOL0     C34798   4.658  11.040   4.151 -0.4557  0.2639 -0.7437
 1022MOL0     C34799   4.528  11.046   4.099  1.2493  1.3505  0.3258
 1022MOL0     C34800   4.447  10.925   4.114  0.0124  0.6854  0.9364
 1022MOL0     C34801   4.302  10.927   4.090 -0.0858 -0.0198 -0.2957
 1022MOL0     O34802   4.229  10.817   4.128 -0.3797 -0.7495  0.4286
 1022MOL0     C34803   4.090  10.812   4.122  1.0959 -0.5868  0.3827
 1022MOL0     C34804   3.991  10.880   4.037  0.1710 -0.4431 -0.6967
 1022MOL0     C34805   3.865  10.837   4.040  1.1327 -0.0650 -0.1080
 1022MOL0     C34806   3.814  10.730   4.123  0.1198 -0.1266  0.0845
 1022MOL0     O34807   3.692  10.672   4.123 -0.1438  0.1872  0.1225
 1022MOL0     C34808   3.582  10.715   4.035 -0.0009 -0.1476 -0.7980
 1022MOL0     C34809   3.467  10.615   4.064 -0.4200  0.6821  0.7640
 1022MOL0     C34810   3.356  10.626   3.971  0.4907 -0.1397  0.5378
 1022MOL0     C34811   3.273  10.502   3.991 -0.2327 -0.0148  0.2848
 1022MOL0     C34812   3.146  10.511   3.907  0.4601  1.1419  0.0440
 1022MOL0     C34813   3.059  10.389   3.901 -1.2593  0.3285  0.5820
 1022MOL0     C34814   2.945  10.392   3.994  0.5182  1.0950  0.7036
 1022MOL0     C34815   2.871  10.253   4.018 -0.0821  0.1721 -1.0913
 1022MOL0    Cl34816   2.976  10.118   4.058 -0.1644  0.1806  0.3718
 1022MOL0     C34817   3.900  10.686   4.218 -0.3678  0.2982  0.2448
 1022MOL0     C34818   4.033  10.725   4.214 -0.0830  0.9497  0.3212
 1022MOL0     O34819   4.259  11.037   4.052  0.1734 -0.9351 -0.3273
 1022MOL0     C34820   4.506  10.811   4.165  0.0640  0.2361  0.3785
 1022MOL0     C34821   4.642  10.803   4.198  0.2720  0.0082  0.0393
 1022MOL0     N34822   5.211  10.507   4.068  1.0900  0.6218 -1.0281
 1022MOL0     N34823   5.327  10.521   4.020  0.1661  0.8366 -0.2768
 1022MOL0     C34824   6.503  11.129   4.253 -0.7459  0.1829 -0.3836
 1022MOL0     C34825   6.522  11.236   4.341 -0.3333 -0.0336 -0.1294
 1022MOL0     C34826   6.516  11.531   4.719  0.6005 -0.5342 -0.1967
 1022MOL0     C34827   6.655  11.549   4.712  0.1061 -0.8598 -0.7980
 1022MOL0     C34828   6.714  11.644   4.799 -0.0149 -0.0978  0.3303
 1022MOL0     C34829   6.643  11.733   4.878  1.3377  0.0153 -0.1218
 1022MOL0     O34830   6.709  11.832   4.944  0.3042 -0.3047 -0.2902
 1022MOL0     C34831   6.654  11.895   5.061  0.1496  0.5495  0.7708
 1022MOL0     C34832   6.753  11.993   5.119 -0.2375  0.4679  0.5083
 1022MOL0     C34833   6.726  12.061   5.253  0.2789 -0.5239 -0.4926
 1022MOL0     C34834   6.662  11.968   5.357  0.0788 -0.7462 -0.4795
 1022MOL0     C34835   6.667  12.046   5.481 -0.1253  0.6515 -0.3261
 1022MOL0     C34836   6.663  12.098   5.591  0.7164  0.0818 -0.5223
 1022MOL0     C34837   6.503  11.707   4.887 -0.1497 -0.1339  0.0900
 1022MOL0     C34838   6.441  11.598   4.816  0.5370  0.6496  0.0416
 1022MOL0     H34839   6.324  11.155   4.602 -0.1750  2.4295  0.4225
 1022MOL0     H34840   6.281  10.966   4.462 -2.3682  1.9004 -1.5058
 1022MOL0     H34841   6.166  11.005   4.161 -1.7812 -1.0921 -3.3359
 1022MOL0     H34842   6.168  10.893   4.296 -0.8331  1.9547 -1.3105
 1022MOL0     H34843   6.230  10.705   4.168  0.3267 -0.4681 -1.3825
 1022MOL0     H34844   6.246  10.807   4.028  0.8330 -1.5894  0.5527
 1022MOL0     H34845   6.022  10.670   4.039  2.4708 -0.4630  0.5277
 1022MOL0     H34846   6.009  10.850   4.010 -0.8666  0.3697  0.0108
 1022MOL0     H34847   5.971  10.725   4.282 -1.9667  0.8052  2.4241
 1022MOL0     H34848   5.940  10.889   4.227  0.3983 -0.8003  0.9802
 1022MOL0     H34849   5.752  10.709   4.257  1.2862  1.6784  0.6113
 1022MOL0     H34850   5.814  10.614   4.135  1.5932  0.2834 -0.7512
 1022MOL0     H34851   5.761  10.751   3.968 -3.4435  2.5787 -3.4490
 1022MOL0     H34852   5.757  10.902   4.062 -0.6631  0.4786  2.5462
 1022MOL0     H34853   5.546  10.821   4.164  1.0016 -0.8676 -0.0241
 1022MOL0     H34854   5.524  10.833   3.987  1.1161  0.2605 -1.1770
 1022MOL0     H34855   5.603  10.565   4.161  3.1640  1.0066 -0.7803
 1022MOL0     H34856   5.578  10.568   3.989 -2.9209 -0.8987 -0.7433
 1022MOL0     H34857   5.378  10.641   4.323  0.9297 -3.2657  0.4182
 1022MOL0     H34858   5.149  10.634   4.399 -2.0863  2.3817 -0.5506
 1022MOL0     H34859   5.062  10.492   4.360  1.8092 -0.5771 -1.5459
 1022MOL0     H34860   4.925  10.701   4.313  2.4764  2.8494  0.4397
 1022MOL0     H34861   4.965  10.613   4.146  3.9398 -1.1958 -0.7426
 1022MOL0     H34862   5.099  10.858   4.266 -1.7391  1.6122 -0.3214
 1022MOL0     H34863   5.124  10.797   4.108 -0.5679  1.6002  1.0202
 1022MOL0     H34864   4.890  10.810   4.057  0.3431 -3.4371  3.4551
 1022MOL0     H34865   4.988  10.967   4.078  1.7705  0.7703  3.5951
 1022MOL0     H34866   4.718  11.129   4.135 -3.3752  1.9254 -3.7666
 1022MOL0     H34867   4.498  11.129   4.036  0.5324 -1.6196 -3.6848
 1022MOL0     H34868   4.032  10.948   3.963  3.6971  0.5839  1.9232
 1022MOL0     H34869   3.803  10.875   3.959  0.7400 -1.0663 -0.2976
 1022MOL0     H34870   3.619  10.731   3.933  0.0637  0.4382 -0.6866
 1022MOL0     H34871   3.550  10.813   4.072  0.4618  0.5360 -2.1409
 1022MOL0     H34872   3.450  10.612   4.172  0.6708 -2.8060  0.9816
 1022MOL0     H34873   3.514  10.519   4.040 -2.2089 -0.7133  2.4422
 1022MOL0     H34874   3.400  10.617   3.871 -2.8757  1.4946 -1.2512
 1022MOL0     H34875   3.307  10.723   3.974  0.6714  0.0381 -1.2141
 1022MOL0     H34876   3.333  10.423   3.946 -0.4398  0.4275 -0.8080
 1022MOL0     H34877   3.240  10.477   4.092 -0.1625  0.4009  0.4135
 1022MOL0     H34878   3.181  10.537   3.806 -0.4890  1.5369 -0.1896
 1022MOL0     H34879   3.083  10.593   3.940  0.1584  2.3273 -3.1101
 1022MOL0     H34880   3.118  10.303   3.933 -0.0081  0.4867 -1.1620
 1022MOL0     H34881   3.039  10.371   3.795  0.6061 -1.2590  0.4295
 1022MOL0     H34882   2.982  10.432   4.088 -0.1221 -0.4797  1.6608
 1022MOL0     H34883   2.875  10.467   3.956  0.6439  2.2568  2.6535
 1022MOL0     H34884   2.810  10.227   3.931 -2.2668  1.6788 -0.0900
 1022MOL0     H34885   2.798  10.261   4.099  0.1003 -0.5993 -0.8400
 1022MOL0     H34886   3.862  10.612   4.288  0.8351  1.6682  2.4772
 1022MOL0     H34887   4.100  10.677   4.284  0.2189  1.0553  0.1077
 1022MOL0     H34888   4.440  10.729   4.193  0.0807 -0.2297 -0.8950
 1022MOL0     H34889   4.685  10.719   4.252 -1.4323 -0.3403  0.9139
 1022MOL0     H34890   6.556  11.152   4.161  2.9100 -0.1804  1.4634
 1022MOL0     H34891   6.588  11.317   4.310  3.2616 -2.8058 -0.2768
 1022MOL0     H34892   6.716  11.487   4.648  2.1159  2.3616 -2.2450
 1022MOL0     H34893   6.821  11.653   4.784  0.0471 -1.3481 -0.0643
 1022MOL0     H34894   6.654  11.814   5.135 -2.6833  0.0326  0.3141
 1022MOL0     H34895   6.559  11.939   5.030  0.6471 -0.1656 -2.0676
 1022MOL0     H34896   6.848  11.940   5.127  0.7508  2.1847  0.5938
 1022MOL0     H34897   6.763  12.072   5.044  2.7214 -0.7321 -0.4804
 1022MOL0     H34898   6.663  12.149   5.237  0.9987 -0.2119 -1.7363
 1022MOL0     H34899   6.820  12.103   5.290 -0.4110 -0.2229  0.9790
 1022MOL0     H34900   6.559  11.947   5.325 -0.2787  0.5865 -0.2952
 1022MOL0     H34901   6.720  11.876   5.367  0.6714 -0.2622  0.6487
 1022MOL0     H34902   6.671  12.138   5.690  1.9648 -2.8320  0.6848
 1022MOL0     H34903   6.448  11.767   4.958 -1.5025  1.0064 -1.8266
 1022MOL0     H34904   6.337  11.569   4.824  0.7118 -0.2067 -0.6319
 1023MOL0     O34905   9.109   6.421   7.682 -0.7899  0.1500  0.5483
 1023MOL0     C34906   9.184   6.515   7.644 -0.4165 -0.3592 -0.6854
 1023MOL0     O34907   9.146   6.610   7.556  0.0026 -1.1061 -0.1596
 1023MOL0     C34908   9.013   6.628   7.513 -0.4719  0.0418 -0.2088
 1023MOL0     C34909   8.931   6.722   7.573 -0.1671 -1.1414 -0.4300
 1023MOL0     C34910   8.804   6.741   7.538  0.1001  0.4475  0.1073
 1023MOL0     C34911   8.756   6.666   7.427 -0.2736  0.4512 -0.2100
 1023MOL0     O34912   8.628   6.688   7.382  0.5751 -0.3427 -0.8454
 1023MOL0     C34913   8.633   6.731   7.243  1.0351  0.8168 -0.3831
 1023MOL0     C34914   8.524   6.838   7.221  1.0916 -0.3990  0.1199
 1023MOL0     C34915   8.389   6.767   7.239 -0.7996  1.1420 -0.3040
 1023MOL0     C34916   8.268   6.854   7.230  0.8982  0.2794  0.4965
 1023MOL0     C34917   8.134   6.782   7.258 -1.5415 -0.8506 -0.7593
 1023MOL0     C34918   8.016   6.877   7.306  0.2541  0.0303  0.5033
 1023MOL0     C34919   7.889   6.786   7.304 -0.2629 -0.0425  1.0606
 1023MOL0     C34920   7.814   6.788   7.163 -1.0531 -0.1371  0.6144
 1023MOL0     N34921   7.758   6.650   7.139 -0.2247  0.7340 -0.8333
 1023MOL0     C34922   7.635   6.618   7.195  0.7762 -0.0745  0.2809
 1023MOL0     C34923   7.626   6.493   7.171 -0.0592  0.0134 -0.3741
 1023MOL0     C34924   7.514   6.395   7.194  0.3603  0.3430  0.0227
 1023MOL0     C34925   7.428   6.402   7.318  1.4442 -0.0879  0.5109
 1023MOL0     C34926   7.350   6.267   7.332 -0.1669 -0.3703  0.0239
 1023MOL0     C34927   7.238   6.238   7.234 -0.2931 -0.3042 -0.0767
 1023MOL0     O34928   7.294   6.204   7.112  0.3366 -0.4645 -0.2099
 1023MOL0     C34929   7.198   6.205   7.011 -0.3411  0.2437  0.0886
 1023MOL0     C34930   7.070   6.154   7.019 -0.3853  0.7675 -0.4278
 1023MOL0     C34931   6.995   6.139   6.904 -0.1340 -0.3972 -0.5331
 1023MOL0     C34932   7.035   6.194   6.779 -0.0332 -0.0218  1.0107
 1023MOL0     C34933   6.962   6.177   6.652 -0.2542 -0.6018  1.2637
 1023MOL0     O34934   7.000   6.250   6.539  0.7988  0.9420 -0.2281
 1023MOL0     C34935   6.967   6.208   6.408 -0.5900  0.7380  0.5869
 1023MOL0     C34936   6.854   6.131   6.380 -0.2076 -0.3830 -0.4319
 1023MOL0     C34937   6.834   6.057   6.261 -0.2964  0.1642 -0.9344
 1023MOL0     C34938   6.935   6.068   6.169 -0.7833  0.7658 -0.5950
 1023MOL0     O34939   6.922   5.989   6.061  0.4252 -0.2875  0.1439
 1023MOL0     C34940   7.015   6.010   5.958  0.8450  0.6934  0.6190
 1023MOL0     C34941   6.972   5.912   5.847  0.0113 -0.0288 -0.5295
 1023MOL0     C34942   7.064   5.934   5.728  0.1445 -0.9984  0.5554
 1023MOL0     C34943   7.025   5.837   5.616 -0.6946 -0.1739  0.0781
 1023MOL0     C34944   7.085   5.868   5.477 -0.7481 -0.0763  0.2253
 1023MOL0     C34945   7.238   5.842   5.464 -0.3721  0.5074  0.1784
 1023MOL0     C34946   7.289   5.697   5.469  0.2235 -0.6772  1.1891
 1023MOL0     C34947   7.292   5.614   5.335 -0.7116 -0.5368  0.3828
 1023MOL0    Cl34948   7.125   5.559   5.307 -0.3887  0.1354 -0.0786
 1023MOL0     C34949   7.055   6.145   6.198  0.1296 -1.1319  0.5890
 1023MOL0     C34950   7.075   6.210   6.317  1.2644 -0.0711  0.4804
 1023MOL0     O34951   6.867   6.105   6.663  0.3136  0.6494  0.4094
 1023MOL0     C34952   7.152   6.264   6.786  0.5494 -0.8518 -0.5030
 1023MOL0     C34953   7.226   6.266   6.902  0.2787  0.4672 -0.7083
 1023MOL0     N34954   7.731   6.439   7.109  0.2403  0.2770 -0.0974
 1023MOL0     N34955   7.815   6.540   7.087  0.3165  0.2630 -0.2021
 1023MOL0     C34956   8.844   6.578   7.355  0.1126 -0.4066  0.2309
 1023MOL0     C34957   8.974   6.564   7.396 -0.1074  0.8756 -0.9896
 1023MOL0     C34958   9.317   6.532   7.699  0.0052  0.9731 -0.2847
 1023MOL0     C34959   9.389   6.657   7.702  0.3854 -0.7420 -0.5303
 1023MOL0     C34960   9.512   6.656   7.761  0.5893 -0.0075  1.1149
 1023MOL0     C34961   9.580   6.537   7.801 -1.1651 -1.1845 -0.8308
 1023MOL0     O34962   9.705   6.555   7.861  0.1082 -0.2891  0.1199
 1023MOL0     C34963   9.797   6.446   7.863  0.5452  0.2548  0.5534
 1023MOL0     C34964   9.927   6.489   7.912 -0.4532 -0.1650 -0.4505
 1023MOL0     C34965  10.025   6.363   7.870 -0.4579 -0.6712  1.0098
 1023MOL0     C34966  10.155   6.426   7.825  0.4005  1.0382 -0.8603
 1023MOL0     C34967  10.272   6.345   7.883  0.1058  0.9320  0.3398
 1023MOL0     C34968  10.356   6.271   7.923  0.0776 -0.4553  0.6494
 1023MOL0     C34969   9.512   6.420   7.779 -0.2120 -0.4833  1.0816
 1023MOL0     C34970   9.378   6.414   7.735 -0.4608 -0.2094  0.6696
 1023MOL0     H34971   8.970   6.783   7.654  1.7358 -0.5015 -1.7549
 1023MOL0     H34972   8.746   6.806   7.603  0.5130 -1.5533  2.6569
 1023MOL0     H34973   8.611   6.648   7.176 -0.3658  0.3722  0.5738
 1023MOL0     H34974   8.731   6.767   7.209  3.4534 -2.5484  2.2578
 1023MOL0     H34975   8.538   6.877   7.120  2.7539 -2.3809 -0.4899
 1023MOL0     H34976   8.519   6.922   7.291 -1.3943 -1.0575  0.8547
 1023MOL0     H34977   8.391   6.716   7.335  1.2419 -1.6986 -1.6723
 1023MOL0     H34978   8.382   6.687   7.164 -0.0372  1.2504 -0.5008
 1023MOL0     H34979   8.280   6.930   7.308 -1.8132  1.1951  0.1161
 1023MOL0     H34980   8.252   6.907   7.136 -2.1732  2.1075  1.8780
 1023MOL0     H34981   8.148   6.699   7.327 -2.7379 -3.2646 -3.2425
 1023MOL0     H34982   8.108   6.729   7.166  2.0675 -0.4697 -2.1863
 1023MOL0     H34983   7.997   6.970   7.251  0.1558  2.3063  4.1044
 1023MOL0     H34984   8.041   6.899   7.410 -1.6144  2.7793  0.5127
 1023MOL0     H34985   7.923   6.687   7.334  2.6500  1.2632  2.5613
 1023MOL0     H34986   7.811   6.822   7.373 -2.1285  0.5860 -1.2553
 1023MOL0     H34987   7.881   6.817   7.082 -2.4290 -0.2355 -0.5896
 1023MOL0     H34988   7.738   6.866   7.170  0.7159  1.5248  2.3788
 1023MOL0     H34989   7.570   6.694   7.235  1.4232 -0.2489  1.7105
 1023MOL0     H34990   7.562   6.297   7.205 -1.1298 -0.1342  3.6183
 1023MOL0     H34991   7.461   6.416   7.101  0.0518 -2.3468 -0.4949
 1023MOL0     H34992   7.354   6.480   7.301 -0.2144 -1.8836 -0.9752
 1023MOL0     H34993   7.479   6.421   7.413  2.8632 -3.3601  0.5603
 1023MOL0     H34994   7.419   6.183   7.322  1.7225  1.3138 -2.3348
 1023MOL0     H34995   7.304   6.266   7.431 -2.7496  2.4180 -0.9986
 1023MOL0     H34996   7.174   6.327   7.228  3.0458  2.2993 -0.6599
 1023MOL0     H34997   7.195   6.149   7.280 -0.7216  0.0266  0.1749
 1023MOL0     H34998   7.026   6.114   7.110 -1.8143  2.8546 -0.1141
 1023MOL0     H34999   6.899   6.093   6.921 -0.9102  1.5818  0.7687
 1023MOL0     H35000   6.771   6.136   6.449 -0.8527 -1.5431 -1.0922
 1023MOL0     H35001   6.735   6.018   6.240 -0.3666 -0.6010  0.6347
 1023MOL0     H35002   7.109   5.975   6.002  0.1812  1.4426  2.7796
 1023MOL0     H35003   7.015   6.118   5.938 -2.1144  0.3498 -1.9200
 1023MOL0     H35004   6.870   5.945   5.824 -1.8845 -3.6927  1.6782
 1023MOL0     H35005   6.976   5.807   5.878 -3.8915 -0.2859 -0.3561
 1023MOL0     H35006   7.168   5.911   5.753 -0.5867 -1.4097  3.7817
 1023MOL0     H35007   7.053   6.035   5.688  1.6069 -0.2461  1.9138
 1023MOL0     H35008   7.059   5.738   5.647 -0.1731  0.1119  0.4355
 1023MOL0     H35009   6.916   5.835   5.608 -0.5724  0.2772 -2.9546
 1023MOL0     H35010   7.061   5.974   5.462 -0.1829  0.2133  1.3287
 1023MOL0     H35011   7.032   5.826   5.390  2.2452  0.7578 -2.1794
 1023MOL0     H35012   7.271   5.890   5.556 -2.0576  1.9099  0.1125
 1023MOL0     H35013   7.269   5.890   5.371  1.3896 -0.2966  0.3159
 1023MOL0     H35014   7.395   5.702   5.493  0.5095  1.1643 -0.2482
 1023MOL0     H35015   7.235   5.641   5.546  1.3132 -0.6769  1.9699
 1023MOL0     H35016   7.366   5.535   5.350 -1.0206 -0.9725 -0.3595
 1023MOL0     H35017   7.317   5.670   5.245 -2.7501 -0.3205 -0.0956
 1023MOL0     H35018   7.143   6.154   6.136 -0.3999 -4.3729 -0.8479
 1023MOL0     H35019   7.174   6.242   6.348 -0.3107  2.9255  2.8805
 1023MOL0     H35020   7.187   6.311   6.695 -0.2393  0.9757  0.1009
 1023MOL0     H35021   7.320   6.319   6.904  1.5146 -1.6006  2.0134
 1023MOL0     H35022   8.806   6.516   7.274 -1.0184 -1.4771  1.5158
 1023MOL0     H35023   9.050   6.504   7.347  0.9288 -1.1702  2.7950
 1023MOL0     H35024   9.336   6.751   7.691 -1.3687 -1.3861  1.6659
 1023MOL0     H35025   9.561   6.751   7.772  1.2771 -0.1724 -0.3256
 1023MOL0     H35026   9.795   6.405   7.762  1.6190  2.1292 -0.2813
 1023MOL0     H35027   9.767   6.373   7.939  0.7694  1.1830  1.5623
 1023MOL0     H35028   9.948   6.575   7.847 -2.8057 -0.8700 -2.2752
 1023MOL0     H35029   9.929   6.521   8.017  3.1457  1.6912 -0.9301
 1023MOL0     H35030   9.973   6.309   7.791 -1.3013  3.0359 -1.2355
 1023MOL0     H35031  10.057   6.297   7.950  3.7191 -0.6159 -0.3611
 1023MOL0     H35032  10.154   6.446   7.718 -3.8742  4.3205 -0.4776
 1023MOL0     H35033  10.163   6.526   7.870  2.0314  0.9598 -0.8951
 1023MOL0     H35034  10.410   6.193   7.974 -2.7451 -0.8609  3.3180
 1023MOL0     H35035   9.568   6.330   7.803 -1.0222 -1.6850 -1.2678
 1023MOL0     H35036   9.323   6.321   7.718  0.7830 -0.3980 -3.7339
 1024MOL0     O35037   0.129   1.160   9.124 -0.0432 -0.6857 -0.3363
 1024MOL0     C35038   0.221   1.083   9.145 -0.1231 -1.0760 -0.8557
 1024MOL0     O35039   0.351   1.109   9.104 -0.3015  0.5912 -0.3580
 1024MOL0     C35040   0.384   1.212   9.017 -0.3195  0.3151 -0.3283
 1024MOL0     C35041   0.314   1.237   8.897  1.5222  0.4653  0.0642
 1024MOL0     C35042   0.353   1.350   8.825 -0.6115  0.3116 -0.7409
 1024MOL0     C35043   0.471   1.428   8.861 -0.8469  0.6744 -0.4572
 1024MOL0     O35044   0.496   1.543   8.795 -0.8586  0.1859  0.0144
 1024MOL0     C35045   0.631   1.578   8.771  0.7499  0.2691 -0.9406
 1024MOL0     C35046   0.666   1.669   8.655 -0.7205 -0.5603 -0.0319
 1024MOL0     C35047   0.604   1.629   8.531 -0.8669 -0.1488  0.3740
 1024MOL0     C35048   0.643   1.732   8.418 -0.8255 -0.0011 -0.3870
 1024MOL0     C35049   0.564   1.864   8.417  0.6138  0.2768 -0.6331
 1024MOL0     C35050   0.414   1.842   8.393  0.7629  0.7409  0.3922
 1024MOL0     C35051   0.380   1.744   8.276 -0.1015 -0.0741  0.8250
 1024MOL0     C35052   0.452   1.763   8.145 -0.0827 -0.5059 -0.4549
 1024MOL0     N35053   0.389   1.880   8.078  0.3986 -1.1478  0.4683
 1024MOL0     C35054   0.385   2.014   8.129  0.2665 -0.0126  0.2536
 1024MOL0     C35055   0.315   2.088   8.036 -0.0060 -0.3128 -0.3644
 1024MOL0     C35056   0.290   2.230   8.030 -0.2804  0.9690 -0.4584
 1024MOL0     C35057   0.410   2.322   8.003 -0.7091  0.5423  0.0026
 1024MOL0     C35058   0.381   2.428   7.893 -0.3366 -0.2477  0.2873
 1024MOL0     C35059   0.249   2.510   7.940 -0.0505 -0.4058  0.0135
 1024MOL0     O35060   0.246   2.636   7.879 -0.4219  0.1803 -0.3587
 1024MOL0     C35061   0.141   2.715   7.914 -0.2702 -0.1040 -0.0708
 1024MOL0     C35062   0.024   2.681   7.966  0.8990  0.4449  0.4648
 1024MOL0     C35063  -0.092   2.757   7.987 -0.2389 -0.6425 -0.5744
 1024MOL0     C35064  -0.087   2.892   7.952  0.1897  0.0437  0.0088
 1024MOL0     C35065  -0.204   2.982   7.954 -0.3828  0.5224  0.3377
 1024MOL0     O35066  -0.188   3.099   7.884  0.4925  0.4589  1.0859
 1024MOL0     C35067  -0.272   3.207   7.875  0.0534  0.2096 -0.1338
 1024MOL0     C35068  -0.229   3.303   7.780 -0.1121 -0.0905  0.0101
 1024MOL0     C35069  -0.285   3.429   7.785 -0.5518 -0.3181 -0.1402
 1024MOL0     C35070  -0.384   3.469   7.881  1.0604 -0.2135  0.2472
 1024MOL0     O35071  -0.435   3.587   7.897  0.4843 -0.1497  0.0947
 1024MOL0     C35072  -0.445   3.663   7.783 -0.1977 -0.2223 -0.0577
 1024MOL0     C35073  -0.520   3.795   7.800 -0.7803 -0.4599 -0.1639
 1024MOL0     C35074  -0.437   3.900   7.861  0.7836  0.2442  0.4463
 1024MOL0     C35075  -0.435   3.888   8.014  0.7742 -0.6021  0.3617
 1024MOL0     C35076  -0.331   3.976   8.074 -1.1847 -0.1554 -1.5413
 1024MOL0     C35077  -0.359   4.126   8.065 -0.0988  0.5914  0.7351
 1024MOL0     C35078  -0.228   4.206   8.062 -0.6704  0.4093  0.9543
 1024MOL0     C35079  -0.242   4.338   8.136  1.0046  0.5164  0.0565
 1024MOL0    Cl35080  -0.249   4.306   8.317 -0.5275 -0.2929 -0.6156
 1024MOL0     C35081  -0.432   3.369   7.960  0.2689  0.7770 -0.2428
 1024MOL0     C35082  -0.367   3.243   7.968  0.5536  0.3404  0.5233
 1024MOL0     O35083  -0.289   2.964   8.030  0.2780  0.4057  0.3486
 1024MOL0     C35084   0.029   2.929   7.885  0.0238 -0.2974  0.9963
 1024MOL0     C35085   0.143   2.848   7.868 -0.6512 -0.1184  0.5260
 1024MOL0     N35086   0.284   2.003   7.929  0.2926  0.5508 -0.3081
 1024MOL0     N35087   0.331   1.886   7.954  0.5977 -0.1429  0.7815
 1024MOL0     C35088   0.532   1.411   8.983 -0.2018 -0.2579 -0.9027
 1024MOL0     C35089   0.487   1.299   9.054 -0.6719 -0.7136  0.3965
 1024MOL0     C35090   0.197   0.963   9.213  0.5408  0.2286 -0.7773
 1024MOL0     C35091   0.076   0.940   9.268 -0.5545  0.0594  0.2926
 1024MOL0     C35092   0.033   0.823   9.325  0.1818 -0.4130  0.0054
 1024MOL0     C35093   0.126   0.713   9.316  0.6371  0.4296  0.3941
 1024MOL0     O35094   0.104   0.579   9.353  0.4458 -0.2941  0.2212
 1024MOL0     C35095  -0.026   0.513   9.359  0.0956  0.8305 -0.0506
 1024MOL0     C35096  -0.088   0.527   9.502 -0.2054  0.0743 -0.3529
 1024MOL0     C35097  -0.008   0.437   9.605  0.3187  0.7250 -0.1205
 1024MOL0     C35098  -0.092   0.356   9.697  0.5242 -0.4482 -0.1290
 1024MOL0     C35099  -0.035   0.314   9.834  0.0405 -0.0535 -0.5396
 1024MOL0     C35100   0.018   0.278   9.940 -0.4407 -0.4262 -0.1509
 1024MOL0     C35101   0.255   0.732   9.252  0.4224 -1.2000 -0.4764
 1024MOL0     C35102   0.286   0.863   9.206 -0.1272 -0.0798 -0.9846
 1024MOL0     H35103   0.231   1.173   8.871  1.0361  2.1843 -3.0549
 1024MOL0     H35104   0.314   1.371   8.727  1.3331 -0.1186 -1.6514
 1024MOL0     H35105   0.678   1.481   8.754 -1.7971 -1.8813  2.8125
 1024MOL0     H35106   0.660   1.626   8.865 -2.0614 -1.1929  0.8340
 1024MOL0     H35107   0.775   1.668   8.647 -0.6562 -2.5759  0.5658
 1024MOL0     H35108   0.634   1.772   8.675 -3.0928 -0.5883 -2.9196
 1024MOL0     H35109   0.496   1.615   8.544 -0.7966 -1.4248 -0.2813
 1024MOL0     H35110   0.649   1.533   8.503  0.9968  1.2903 -1.9496
 1024MOL0     H35111   0.747   1.764   8.419 -0.6564 -0.4957 -1.0525
 1024MOL0     H35112   0.638   1.670   8.328 -1.1453 -0.3982 -0.1012
 1024MOL0     H35113   0.608   1.936   8.348  2.8803  2.5887  2.9430
 1024MOL0     H35114   0.573   1.907   8.517  1.7304 -0.3906 -0.4308
 1024MOL0     H35115   0.367   1.941   8.389 -1.4437 -0.1682  1.8737
 1024MOL0     H35116   0.379   1.806   8.490 -1.2202  0.1323 -0.4982
 1024MOL0     H35117   0.389   1.640   8.309  1.0877  0.1271  1.1768
 1024MOL0     H35118   0.274   1.760   8.252  0.9910  2.1618 -3.3384
 1024MOL0     H35119   0.441   1.669   8.090 -2.2433 -1.4659  1.4267
 1024MOL0     H35120   0.559   1.778   8.160 -0.8032  1.2549  5.3211
 1024MOL0     H35121   0.436   2.050   8.217 -0.0439  2.4707 -0.5136
 1024MOL0     H35122   0.239   2.266   8.119 -5.3235  1.9702 -3.3656
 1024MOL0     H35123   0.208   2.244   7.960 -0.9102 -0.8897 -0.1515
 1024MOL0     H35124   0.501   2.272   7.970  0.5622  2.9202 -0.3495
 1024MOL0     H35125   0.437   2.378   8.094 -1.8011 -0.4259  0.9664
 1024MOL0     H35126   0.457   2.505   7.878 -1.3980  0.9222  0.6903
 1024MOL0     H35127   0.356   2.381   7.798  1.7954 -0.2890 -0.2990
 1024MOL0     H35128   0.235   2.515   8.049 -1.9201 -0.2565 -0.2068
 1024MOL0     H35129   0.166   2.443   7.915 -0.5971 -1.4766  3.9660
 1024MOL0     H35130   0.023   2.577   7.996  0.4623  0.6570  1.2050
 1024MOL0     H35131  -0.183   2.724   8.035  1.0940  0.0718  2.7349
 1024MOL0     H35132  -0.148   3.286   7.710  0.5800 -3.6380  1.4801
 1024MOL0     H35133  -0.238   3.502   7.721  0.0327 -1.1830 -0.7214
 1024MOL0     H35134  -0.501   3.607   7.707 -3.9982  1.4814  1.2054
 1024MOL0     H35135  -0.347   3.684   7.740 -0.2682  0.6162  0.1757
 1024MOL0     H35136  -0.614   3.785   7.855  0.3824  2.9219  2.8184
 1024MOL0     H35137  -0.552   3.820   7.698 -2.1332 -2.5065 -0.2964
 1024MOL0     H35138  -0.480   3.995   7.827  0.2503 -0.3122 -0.4816
 1024MOL0     H35139  -0.339   3.893   7.813 -0.2430  3.2462 -2.4986
 1024MOL0     H35140  -0.521   3.924   8.072  0.1199 -0.7059 -0.5191
 1024MOL0     H35141  -0.423   3.782   8.038 -0.6705 -1.6864 -3.0937
 1024MOL0     H35142  -0.241   3.965   8.013 -1.2487  0.6958 -1.8047
 1024MOL0     H35143  -0.318   3.955   8.180 -0.8881  1.3288 -1.2598
 1024MOL0     H35144  -0.413   4.148   8.157 -2.9646 -3.1672  0.1832
 1024MOL0     H35145  -0.422   4.140   7.977  0.5734  1.6917  0.4032
 1024MOL0     H35146  -0.146   4.151   8.110 -1.6099 -0.6435  1.3901
 1024MOL0     H35147  -0.202   4.221   7.956 -0.1153  0.6767  1.1259
 1024MOL0     H35148  -0.342   4.378   8.115  0.0193 -1.3680  0.9266
 1024MOL0     H35149  -0.167   4.414   8.112  0.8634  1.2100  1.6612
 1024MOL0     H35150  -0.496   3.392   8.044  0.9248 -0.0886  0.5198
 1024MOL0     H35151  -0.397   3.168   8.041 -2.9316 -1.6899 -2.6540
 1024MOL0     H35152   0.029   3.030   7.845  0.9260  0.0044  1.7334
 1024MOL0     H35153   0.224   2.887   7.807 -4.5521  1.8734 -4.0091
 1024MOL0     H35154   0.606   1.477   9.028  0.1870 -1.3940  0.1915
 1024MOL0     H35155   0.531   1.285   9.153 -0.1616 -0.2264  0.2391
 1024MOL0     H35156   0.003   1.020   9.270 -1.4127 -0.7088  0.8967
 1024MOL0     H35157  -0.066   0.825   9.370 -0.3994  2.4800 -1.1975
 1024MOL0     H35158  -0.012   0.409   9.329 -0.0344  0.5718  0.7630
 1024MOL0     H35159  -0.084   0.565   9.283  0.0196 -0.7516 -1.1242
 1024MOL0     H35160  -0.080   0.626   9.548  2.2933  0.2345 -0.9828
 1024MOL0     H35161  -0.188   0.484   9.494  0.0100 -0.6706  0.7050
 1024MOL0     H35162   0.060   0.498   9.664 -0.8599 -0.9523  3.2444
 1024MOL0     H35163   0.060   0.373   9.549  0.0929 -0.7398  1.2040
 1024MOL0     H35164  -0.184   0.412   9.715 -1.2159 -2.3741 -2.3210
 1024MOL0     H35165  -0.131   0.260   9.661 -2.3335  0.8836 -0.8477
 1024MOL0     H35166   0.079   0.239  10.019 -1.1438 -2.9809 -0.7595
 1024MOL0     H35167   0.331   0.654   9.248  1.4089 -0.2428 -0.8673
 1024MOL0     H35168   0.385   0.896   9.176 -0.2980  2.1201  0.5919
  11.47469  11.47469  11.47469
